<event>
 8    1  0.7016814E-009  0.1060295E+03  0.7561462E-02  0.1268104E+00
         -1   -1    0    0    0  501 -0.00000000000E+00  0.00000000000E+00  0.23349440076E+02  0.23349440076E+02  0.00000000000E+00 0.  1.
          1   -1    0    0  501    0  0.00000000000E+00 -0.00000000000E+00 -0.76802921925E+03  0.76802921925E+03  0.00000000000E+00 0. -1.
         25    2    1    2    0    0  0.71676101470E+02 -0.34503468222E+02 -0.39325639903E+03  0.42026901113E+03  0.12508994164E+03 0.  0.
         23    2    1    2    0    0 -0.71676101470E+02  0.34503468222E+02 -0.35142338015E+03  0.37110964820E+03  0.88859586028E+02 0.  0.
          5    1    3    3  502    0  0.32705815445E+02  0.11351771678E+02 -0.33364078423E+03  0.33545816190E+03  0.41800000000E+01 0. -1.
         -5    1    3    3    0  502  0.38970286025E+02 -0.45855239900E+02 -0.59615614794E+02  0.84810849226E+02  0.41800000000E+01 0. -1.
        -11    1    4    4    0    0 -0.43103560031E+02  0.63115200595E+02 -0.19236708887E+03  0.20699406348E+03  0.00000000000E+00 0. -1.
         11    1    4    4    0    0 -0.28572541439E+02 -0.28611732373E+02 -0.15905629128E+03  0.16411558472E+03  0.00000000000E+00 0.  1.
</event>
<event>
 8    1  0.7016814E-009  0.8667281E+02  0.7561462E-02  0.1311115E+00
         -2   -1    0    0    0  501 -0.00000000000E+00  0.00000000000E+00  0.99718821150E+02  0.99718821150E+02  0.00000000000E+00 0. -1.
          2   -1    0    0  501    0  0.00000000000E+00 -0.00000000000E+00 -0.14861567897E+03  0.14861567897E+03  0.00000000000E+00 0.  1.
         25    2    1    2    0    0  0.18805651118E+02 -0.35901455272E+02  0.77020099785E+01  0.13171365659E+03  0.12508636764E+03 0.  0.
         23    2    1    2    0    0 -0.18805651118E+02  0.35901455272E+02 -0.56598867801E+02  0.11662084353E+03  0.93565069902E+02 0.  0.
          5    1    3    3  502    0 -0.43164730812E+02  0.20101844451E+02  0.91929912310E+00  0.47807903607E+02  0.41800000000E+01 0.  1.
         -5    1    3    3    0  502  0.61970381931E+02 -0.56003299723E+02  0.67827108554E+01  0.83905752979E+02  0.41800000000E+01 0.  1.
        -11    1    4    4    0    0 -0.16457760916E+02  0.20276504308E+02 -0.82359453660E+02  0.86400660463E+02  0.00000000000E+00 0.  1.
         11    1    4    4    0    0 -0.23478902026E+01  0.15624950964E+02  0.25760585860E+02  0.30220183071E+02  0.00000000000E+00 0. -1.
</event>
<event>
 8    1  0.7016814E-009  0.9809315E+02  0.7561462E-02  0.1284358E+00
         -2   -1    0    0    0  501 -0.00000000000E+00  0.00000000000E+00  0.54527661613E+02  0.54527661613E+02  0.00000000000E+00 0. -1.
          2   -1    0    0  501    0  0.00000000000E+00 -0.00000000000E+00 -0.21702799930E+03  0.21702799930E+03  0.00000000000E+00 0.  1.
         25    2    1    2    0    0  0.13662584520E+01  0.10966296719E+01 -0.81921054116E+02  0.14954125913E+03  0.12509380406E+03 0.  0.
         23    2    1    2    0    0 -0.13662584520E+01 -0.10966296719E+01 -0.80579283576E+02  0.12201440179E+03  0.91604716273E+02 0.  0.
          5    1    3    3  502    0 -0.41031850124E+02  0.40069387545E+02 -0.69987080632E+02  0.90580529907E+02  0.41800000000E+01 0.  1.
         -5    1    3    3    0  502  0.42398108576E+02 -0.38972757873E+02 -0.11933973483E+02  0.58960729220E+02  0.41800000000E+01 0.  1.
        -11    1    4    4    0    0  0.26170400178E+02  0.29730237437E+02 -0.68197615635E+02  0.78865021663E+02  0.00000000000E+00 0. -1.
         11    1    4    4    0    0 -0.27536658630E+02 -0.30826867109E+02 -0.12381667941E+02  0.43149380126E+02  0.00000000000E+00 0.  1.
</event>
<event>
 8    1  0.7016814E-009  0.1352678E+03  0.7561462E-02  0.1219842E+00
         -1   -1    0    0    0  501 -0.00000000000E+00  0.00000000000E+00  0.27617625578E+02  0.27617625578E+02  0.00000000000E+00 0.  1.
          1   -1    0    0  501    0  0.00000000000E+00 -0.00000000000E+00 -0.77922194447E+03  0.77922194447E+03  0.00000000000E+00 0. -1.
         25    2    1    2    0    0  0.25108616452E+02  0.94342774043E+02 -0.44458972330E+03  0.47205733696E+03  0.12508839147E+03 0.  0.
         23    2    1    2    0    0 -0.25108616452E+02 -0.94342774043E+02 -0.30701459560E+03  0.33478223309E+03  0.91050425861E+02 0.  0.
          5    1    3    3  502    0 -0.35340970630E+02  0.76658503198E+02 -0.33588604831E+03  0.34635591545E+03  0.41800000000E+01 0. -1.
         -5    1    3    3    0  502  0.60449587082E+02  0.17684270844E+02 -0.10870367498E+03  0.12570142151E+03  0.41800000000E+01 0. -1.
        -11    1    4    4    0    0 -0.43461225182E+02 -0.22879929628E+02 -0.19163385280E+03  0.19782796266E+03  0.00000000000E+00 0. -1.
         11    1    4    4    0    0  0.18352608730E+02 -0.71462844414E+02 -0.11538074280E+03  0.13695427043E+03  0.00000000000E+00 0.  1.
</event>
<event>
 8    1  0.7016814E-009  0.1155709E+03  0.7561462E-02  0.1250588E+00
          2   -1    0    0  501    0  0.00000000000E+00  0.00000000000E+00  0.53668565644E+02  0.53668565644E+02  0.00000000000E+00 0. -1.
         -2   -1    0    0    0  501 -0.00000000000E+00 -0.00000000000E+00 -0.36263476721E+03  0.36263476721E+03  0.00000000000E+00 0.  1.
         25    2    1    2    0    0 -0.38159913983E+01 -0.75787528127E+02 -0.10384734813E+03  0.17941624662E+03  0.12509039382E+03 0.  0.
         23    2    1    2    0    0  0.38159913983E+01  0.75787528127E+02 -0.20511885344E+03  0.23688708624E+03  0.91013385718E+02 0.  0.
          5    1    3    3  502    0 -0.33178299330E+02  0.24046231848E+02 -0.20405166961E+02  0.45965900962E+02  0.41800000000E+01 0.  1.
         -5    1    3    3    0  502  0.29362307931E+02 -0.99833759975E+02 -0.83442181167E+02  0.13345034566E+03  0.41800000000E+01 0.  1.
        -11    1    4    4    0    0 -0.71354934747E+01  0.74430733708E+02 -0.21136914179E+03  0.22420473565E+03  0.00000000000E+00 0.  1.
         11    1    4    4    0    0  0.10951484873E+02  0.13567944194E+01  0.62502883480E+01  0.12682350589E+02  0.00000000000E+00 0. -1.
</event>
<event>
 8    1  0.7016814E-009  0.1468560E+03  0.7561462E-02  0.1204390E+00
          1   -1    0    0  501    0  0.00000000000E+00  0.00000000000E+00  0.70313508412E+03  0.70313508412E+03  0.00000000000E+00 0. -1.
         -1   -1    0    0    0  501 -0.00000000000E+00 -0.00000000000E+00 -0.41488512374E+02  0.41488512374E+02  0.00000000000E+00 0.  1.
         25    2    1    2    0    0  0.83478940960E+02  0.82171369638E+02  0.47909032665E+03  0.50881866987E+03  0.12509208666E+03 0.  0.
         23    2    1    2    0    0 -0.83478940960E+02 -0.82171369638E+02  0.18255624509E+03  0.23580492662E+03  0.92500341756E+02 0.  0.
          5    1    3    3  502    0  0.72830170715E+02 -0.14187095824E+02  0.20378565690E+03  0.21691374740E+03  0.41800000000E+01 0. -1.
         -5    1    3    3    0  502  0.10648770245E+02  0.96358465462E+02  0.27530466975E+03  0.29190492247E+03  0.41800000000E+01 0. -1.
        -11    1    4    4    0    0 -0.61450367450E+02 -0.36040260047E+02  0.34464683360E+02  0.79138248674E+02  0.00000000000E+00 0. -1.
         11    1    4    4    0    0 -0.22028573510E+02 -0.46131109591E+02  0.14809156173E+03  0.15666667795E+03  0.00000000000E+00 0.  1.
</event>
<event>
 8    1  0.7016814E-009  0.1840055E+03  0.7561462E-02  0.1163982E+00
         -2   -1    0    0    0  501 -0.00000000000E+00  0.00000000000E+00  0.31709732907E+02  0.31709732907E+02  0.00000000000E+00 0.  1.
          2   -1    0    0  501    0  0.00000000000E+00 -0.00000000000E+00 -0.12275784013E+04  0.12275784013E+04  0.00000000000E+00 0. -1.
         25    2    1    2    0    0 -0.15031160764E+03 -0.47565711837E+02 -0.76905149209E+03  0.79494826243E+03  0.12508583502E+03 0.  0.
         23    2    1    2    0    0  0.15031160764E+03  0.47565711837E+02 -0.42681717634E+03  0.46433987181E+03  0.92641989419E+02 0.  0.
          5    1    3    3  502    0 -0.10319310012E+03  0.28787318189E+02 -0.49772307684E+03  0.50913972465E+03  0.41800000000E+01 0. -1.
         -5    1    3    3    0  502 -0.47118507521E+02 -0.76353030026E+02 -0.27132841525E+03  0.28580853778E+03  0.41800000000E+01 0. -1.
        -11    1    4    4    0    0  0.31722749556E+02 -0.16958507044E+02 -0.17455629515E+03  0.17822408360E+03  0.00000000000E+00 0. -1.
         11    1    4    4    0    0  0.11858885808E+03  0.64524218881E+02 -0.25226088120E+03  0.28611578821E+03  0.00000000000E+00 0.  1.
</event>
<event>
 8    1  0.7016814E-009  0.9140037E+02  0.7561462E-02  0.1299495E+00
         -1   -1    0    0    0  501 -0.00000000000E+00  0.00000000000E+00  0.19450667688E+02  0.19450667688E+02  0.00000000000E+00 0.  1.
          1   -1    0    0  501    0  0.00000000000E+00 -0.00000000000E+00 -0.82996251033E+03  0.82996251033E+03  0.00000000000E+00 0. -1.
         25    2    1    2    0    0  0.39020563494E+02 -0.44272707397E+02 -0.34884942043E+03  0.37526731745E+03  0.12508782681E+03 0.  0.
         23    2    1    2    0    0 -0.39020563494E+02  0.44272707397E+02 -0.46166242221E+03  0.47414586056E+03  0.90550693083E+02 0.  0.
          5    1    3    3  502    0  0.32291734759E+02 -0.54439735722E+02 -0.35525545576E+03  0.36087442720E+03  0.41800000000E+01 0.  1.
         -5    1    3    3    0  502  0.67288287343E+01  0.10167028326E+02  0.64060353288E+01  0.14392890250E+02  0.41800000000E+01 0.  1.
        -11    1    4    4    0    0  0.82506473404E+01  0.56943256009E+02 -0.28950887565E+03  0.29517113115E+03  0.00000000000E+00 0.  1.
         11    1    4    4    0    0 -0.47271210834E+02 -0.12670548612E+02 -0.17215354656E+03  0.17897472941E+03  0.00000000000E+00 0. -1.
</event>
<event>
 8    1  0.7016814E-009  0.1248674E+03  0.7561462E-02  0.1235277E+00
          3   -1    0    0  501    0  0.00000000000E+00  0.00000000000E+00  0.16406992103E+03  0.16406992103E+03  0.00000000000E+00 0. -1.
         -3   -1    0    0    0  501 -0.00000000000E+00 -0.00000000000E+00 -0.98744540418E+02  0.98744540418E+02  0.00000000000E+00 0.  1.
         25    2    1    2    0    0  0.46746485289E+02  0.47028629307E+02  0.29855432061E+02  0.14469175280E+03  0.12508969040E+03 0.  0.
         23    2    1    2    0    0 -0.46746485289E+02 -0.47028629307E+02  0.35469948552E+02  0.11812270865E+03  0.91092980993E+02 0.  0.
          5    1    3    3  502    0  0.83687712836E+02  0.57044541531E+02  0.31517469515E+02  0.10615336209E+03  0.41800000000E+01 0. -1.
         -5    1    3    3    0  502 -0.36941227548E+02 -0.10015912223E+02 -0.16620374539E+01  0.38538390715E+02  0.41800000000E+01 0. -1.
        -11    1    4    4    0    0 -0.50302937855E+02  0.11194861863E+02  0.29766221775E+02  0.59512506649E+02  0.00000000000E+00 0.  1.
         11    1    4    4    0    0  0.35564525660E+01 -0.58223491170E+02  0.57037267765E+01  0.58610201996E+02  0.00000000000E+00 0. -1.
</event>
<event>
 8    1  0.7016814E-009  0.1362171E+03  0.7561462E-02  0.1218512E+00
          2   -1    0    0  501    0  0.00000000000E+00  0.00000000000E+00  0.66745329339E+03  0.66745329339E+03  0.00000000000E+00 0. -1.
         -2   -1    0    0    0  501 -0.00000000000E+00 -0.00000000000E+00 -0.63008328043E+02  0.63008328043E+02  0.00000000000E+00 0.  1.
         25    2    1    2    0    0 -0.51781165748E+02 -0.78093846868E+02  0.55866802807E+02  0.16597656033E+03  0.12508869205E+03 0.  0.
         23    2    1    2    0    0  0.51781165748E+02  0.78093846868E+02  0.54857816254E+03  0.56448506110E+03  0.94474577262E+02 0.  0.
          5    1    3    3  502    0 -0.27239665822E+02 -0.10196902745E+03  0.72065153213E+02  0.12786923266E+03  0.41800000000E+01 0. -1.
         -5    1    3    3    0  502 -0.24541499926E+02  0.23875180581E+02 -0.16198350406E+02  0.38107327672E+02  0.41800000000E+01 0. -1.
        -11    1    4    4    0    0  0.51118671098E+02 -0.30097137319E+01  0.18387970238E+03  0.19087671901E+03  0.00000000000E+00 0. -1.
         11    1    4    4    0    0  0.66249465015E+00  0.81103560600E+02  0.36469846016E+03  0.37360834210E+03  0.00000000000E+00 0.  1.
</event>
<event>
 8    1  0.7016814E-009  0.1104201E+03  0.7561462E-02  0.1259794E+00
          3   -1    0    0  501    0  0.00000000000E+00  0.00000000000E+00  0.35239398547E+02  0.35239398547E+02  0.00000000000E+00 0. -1.
         -3   -1    0    0    0  501 -0.00000000000E+00 -0.00000000000E+00 -0.40178903328E+03  0.40178903328E+03  0.00000000000E+00 0.  1.
         25    2    1    2    0    0 -0.19251099013E+02  0.41358135780E+02 -0.24762521496E+03  0.28115683551E+03  0.12509923605E+03 0.  0.
         23    2    1    2    0    0  0.19251099013E+02 -0.41358135780E+02 -0.11892441977E+03  0.15587159632E+03  0.89843401051E+02 0.  0.
          5    1    3    3  502    0 -0.20102024598E+02  0.79395736436E+02 -0.21750282251E+03  0.23244940214E+03  0.41800000000E+01 0.  1.
         -5    1    3    3    0  502  0.85092558442E+00 -0.38037600655E+02 -0.30122392447E+02  0.48707433361E+02  0.41800000000E+01 0.  1.
        -11    1    4    4    0    0  0.63089891163E+00  0.28374133481E+02 -0.29193987031E+02  0.40715824479E+02  0.00000000000E+00 0.  1.
         11    1    4    4    0    0  0.18620200102E+02 -0.69732269261E+02 -0.89730432743E+02  0.11515577184E+03  0.00000000000E+00 0. -1.
</event>
<event>
 8    1  0.7016814E-009  0.1740450E+03  0.7561462E-02  0.1173694E+00
          2   -1    0    0  501    0  0.00000000000E+00  0.00000000000E+00  0.96225312881E+03  0.96225312881E+03  0.00000000000E+00 0. -1.
         -2   -1    0    0    0  501 -0.00000000000E+00 -0.00000000000E+00 -0.36371993511E+02  0.36371993511E+02  0.00000000000E+00 0.  1.
         25    2    1    2    0    0  0.14062004648E+03  0.75693093083E+01  0.32182452202E+03  0.37289295637E+03  0.12508733757E+03 0.  0.
         23    2    1    2    0    0 -0.14062004648E+03 -0.75693093083E+01  0.60405661328E+03  0.62573216595E+03  0.82613918567E+02 0.  0.
          5    1    3    3  502    0 -0.17916163442E+02 -0.16822703659E+02  0.24051322364E+02  0.34640017009E+02  0.41800000000E+01 0. -1.
         -5    1    3    3    0  502  0.15853620993E+03  0.24392012967E+02  0.29777319966E+03  0.33825293936E+03  0.41800000000E+01 0. -1.
        -11    1    4    4    0    0 -0.88780809770E+02 -0.44253110255E+02  0.39316304930E+03  0.40548434407E+03  0.00000000000E+00 0.  1.
         11    1    4    4    0    0 -0.51839236715E+02  0.36683800947E+02  0.21089356397E+03  0.22024782188E+03  0.00000000000E+00 0. -1.
</event>
<event>
 8    1  0.7016814E-009  0.8873621E+02  0.7561462E-02  0.1305941E+00
          1   -1    0    0  501    0  0.00000000000E+00  0.00000000000E+00  0.20348740032E+03  0.20348740032E+03  0.00000000000E+00 0. -1.
         -1   -1    0    0    0  501 -0.00000000000E+00 -0.00000000000E+00 -0.78762822035E+02  0.78762822035E+02  0.00000000000E+00 0.  1.
         25    2    1    2    0    0  0.36451583295E+02 -0.17245040148E+02  0.12454740558E+03  0.18106857255E+03  0.12509061673E+03 0.  0.
         23    2    1    2    0    0 -0.36451583295E+02  0.17245040148E+02  0.17717270432E+00  0.10118164980E+03  0.92798628937E+02 0.  0.
          5    1    3    3  502    0 -0.13725013380E+02  0.45383823841E+02  0.67184158472E+02  0.82336207153E+02  0.41800000000E+01 0. -1.
         -5    1    3    3    0  502  0.50176596675E+02 -0.62628863989E+02  0.57363247111E+02  0.98732365400E+02  0.41800000000E+01 0. -1.
        -11    1    4    4    0    0 -0.23128827723E+02 -0.49281918062E+01 -0.44020593375E+02  0.49970415122E+02  0.00000000000E+00 0.  1.
         11    1    4    4    0    0 -0.13322755572E+02  0.22173231954E+02  0.44197766079E+02  0.51211234683E+02  0.00000000000E+00 0. -1.
</event>
<event>
 8    1  0.7016814E-009  0.1047263E+03  0.7561462E-02  0.1270660E+00
         -2   -1    0    0    0  501 -0.00000000000E+00  0.00000000000E+00  0.50586347061E+02  0.50586347061E+02  0.00000000000E+00 0.  1.
          2   -1    0    0  501    0  0.00000000000E+00 -0.00000000000E+00 -0.37874711070E+03  0.37874711070E+03  0.00000000000E+00 0. -1.
         25    2    1    2    0    0  0.17464420077E+02  0.24025854525E+02 -0.30477006362E+03  0.33077856481E+03  0.12508964627E+03 0.  0.
         23    2    1    2    0    0 -0.17464420077E+02 -0.24025854525E+02 -0.23390700019E+02  0.98554892949E+02  0.91014803316E+02 0.  0.
          5    1    3    3  502    0  0.71468919672E+02  0.82285876986E+01 -0.17679870458E+03  0.19092084872E+03  0.41800000000E+01 0.  1.
         -5    1    3    3    0  502 -0.54004499596E+02  0.15797266826E+02 -0.12797135904E+03  0.13985771609E+03  0.41800000000E+01 0.  1.
        -11    1    4    4    0    0  0.17752825095E+02  0.18575394437E+02 -0.33649387836E+02  0.42337800830E+02  0.00000000000E+00 0. -1.
         11    1    4    4    0    0 -0.35217245171E+02 -0.42601248962E+02  0.10258687818E+02  0.56217092119E+02  0.00000000000E+00 0.  1.
</event>
<event>
 8    1  0.7016814E-009  0.9517435E+02  0.7561462E-02  0.1290784E+00
          1   -1    0    0  501    0  0.00000000000E+00  0.00000000000E+00  0.24312599739E+03  0.24312599739E+03  0.00000000000E+00 0. -1.
         -1   -1    0    0    0  501 -0.00000000000E+00 -0.00000000000E+00 -0.11857012212E+03  0.11857012212E+03  0.00000000000E+00 0.  1.
         25    2    1    2    0    0 -0.71583160810E+02 -0.50888597252E+02 -0.36290719303E+02  0.15710791352E+03  0.12510828086E+03 0.  0.
         23    2    1    2    0    0  0.71583160810E+02  0.50888597252E+02  0.16084659457E+03  0.20458820600E+03  0.90944536975E+02 0.  0.
          5    1    3    3  502    0 -0.92189980698E+01 -0.21206227905E+02 -0.74463265980E+02  0.78082932884E+02  0.41800000000E+01 0.  1.
         -5    1    3    3    0  502 -0.62364162740E+02 -0.29682369347E+02  0.38172546677E+02  0.79024980634E+02  0.41800000000E+01 0.  1.
        -11    1    4    4    0    0  0.33140242213E+02 -0.90798997878E+00  0.12795944302E+03  0.13218441344E+03  0.00000000000E+00 0. -1.
         11    1    4    4    0    0  0.38442918597E+02  0.51796587231E+02  0.32887151557E+02  0.72403792556E+02  0.00000000000E+00 0.  1.
</event>
<event>
 8    1  0.7016814E-009  0.9058694E+02  0.7561462E-02  0.1301437E+00
         -2   -1    0    0    0  501 -0.00000000000E+00  0.00000000000E+00  0.37148079474E+02  0.37148079474E+02  0.00000000000E+00 0.  1.
          2   -1    0    0  501    0  0.00000000000E+00 -0.00000000000E+00 -0.39764555015E+03  0.39764555015E+03  0.00000000000E+00 0. -1.
         25    2    1    2    0    0 -0.28245615736E+02 -0.26212170739E+02 -0.27270188170E+03  0.30248828260E+03  0.12509177481E+03 0.  0.
         23    2    1    2    0    0  0.28245615736E+02  0.26212170739E+02 -0.87795588978E+02  0.13230534702E+03  0.91168781410E+02 0.  0.
          5    1    3    3  502    0  0.43916030005E+02 -0.10363521519E+02 -0.16979141600E+03  0.17573450890E+03  0.41800000000E+01 0. -1.
         -5    1    3    3    0  502 -0.72161645741E+02 -0.15848649220E+02 -0.10291046569E+03  0.12675377370E+03  0.41800000000E+01 0. -1.
        -11    1    4    4    0    0  0.40486206196E+02  0.10286718512E+02 -0.10029586239E+03  0.10864717890E+03  0.00000000000E+00 0. -1.
         11    1    4    4    0    0 -0.12240590460E+02  0.15925452227E+02  0.12500273416E+02  0.23658168122E+02  0.00000000000E+00 0.  1.
</event>
<event>
 8    1  0.7016814E-009  0.1486862E+03  0.7561462E-02  0.1202097E+00
         -2   -1    0    0    0  501 -0.00000000000E+00  0.00000000000E+00  0.11823840237E+03  0.11823840237E+03  0.00000000000E+00 0.  1.
          2   -1    0    0  501    0  0.00000000000E+00 -0.00000000000E+00 -0.25695277922E+03  0.25695277922E+03  0.00000000000E+00 0. -1.
         25    2    1    2    0    0 -0.69155805452E+02 -0.11675083866E+03 -0.66369152218E+02  0.19612693229E+03  0.12509046905E+03 0.  0.
         23    2    1    2    0    0  0.69155805452E+02  0.11675083866E+03 -0.72345224634E+02  0.17906424930E+03  0.91743610633E+02 0.  0.
          5    1    3    3  502    0  0.12200335136E+02 -0.45162360128E+02  0.25989951792E+02  0.53679017725E+02  0.41800000000E+01 0. -1.
         -5    1    3    3    0  502 -0.81356140589E+02 -0.71588478535E+02 -0.92359104009E+02  0.14244791456E+03  0.41800000000E+01 0. -1.
        -11    1    4    4    0    0  0.28753285600E+02  0.87425188226E+02 -0.10629541554E+01  0.92038279214E+02  0.00000000000E+00 0.  1.
         11    1    4    4    0    0  0.40402519852E+02  0.29325650437E+02 -0.71282270479E+02  0.87025970081E+02  0.00000000000E+00 0. -1.
</event>
<event>
 8    1  0.7016814E-009  0.1404921E+03  0.7561462E-02  0.1212668E+00
         -4   -1    0    0    0  501 -0.00000000000E+00  0.00000000000E+00  0.42889958984E+03  0.42889958984E+03  0.00000000000E+00 0.  1.
          4   -1    0    0  501    0  0.00000000000E+00 -0.00000000000E+00 -0.75398486920E+02  0.75398486920E+02  0.00000000000E+00 0. -1.
         25    2    1    2    0    0 -0.11821407952E+03  0.55896229748E+01  0.30249531175E+03  0.34807620235E+03  0.12509123283E+03 0.  0.
         23    2    1    2    0    0  0.11821407952E+03 -0.55896229748E+01  0.51005791174E+02  0.15622187441E+03  0.88305553792E+02 0.  0.
          5    1    3    3  502    0 -0.95317825059E+01  0.22738409904E+02 -0.12011257290E+01  0.25036079280E+02  0.41800000000E+01 0.  1.
         -5    1    3    3    0  502 -0.10868229701E+03 -0.17148786929E+02  0.30369643748E+03  0.32304012307E+03  0.41800000000E+01 0.  1.
        -11    1    4    4    0    0  0.82527135164E+02 -0.43930660119E+02  0.20871182826E+02  0.95792678266E+02  0.00000000000E+00 0. -1.
         11    1    4    4    0    0  0.35686944353E+02  0.38341037144E+02  0.30134608348E+02  0.60429196146E+02  0.00000000000E+00 0.  1.
</event>
<event>
 8    1  0.7016814E-009  0.8746235E+02  0.7561462E-02  0.1309116E+00
          1   -1    0    0  501    0  0.00000000000E+00  0.00000000000E+00  0.35609942058E+03  0.35609942058E+03  0.00000000000E+00 0. -1.
         -1   -1    0    0    0  501 -0.00000000000E+00 -0.00000000000E+00 -0.78665196559E+02  0.78665196559E+02  0.00000000000E+00 0.  1.
         25    2    1    2    0    0 -0.59955591407E+02  0.55917693848E+02  0.22109925850E+02  0.15118738762E+03  0.12508923186E+03 0.  0.
         23    2    1    2    0    0  0.59955591407E+02 -0.55917693848E+02  0.25532429818E+03  0.28357722952E+03  0.92217603738E+02 0.  0.
          5    1    3    3  502    0 -0.18167783027E+02  0.17478394765E+02 -0.51878095211E+02  0.57830543715E+02  0.41800000000E+01 0. -1.
         -5    1    3    3    0  502 -0.41787808380E+02  0.38439299083E+02  0.73988021061E+02  0.93356843904E+02  0.41800000000E+01 0. -1.
        -11    1    4    4    0    0  0.11222117834E+02 -0.39422351637E+02  0.25970163741E+02  0.48523263926E+02  0.00000000000E+00 0.  1.
         11    1    4    4    0    0  0.48733473573E+02 -0.16495342211E+02  0.22935413443E+03  0.23505396560E+03  0.00000000000E+00 0. -1.
</event>
<event>
 8    1  0.7016814E-009  0.1074712E+03  0.7561462E-02  0.1265326E+00
          2   -1    0    0  501    0  0.00000000000E+00  0.00000000000E+00  0.31896627845E+03  0.31896627845E+03  0.00000000000E+00 0. -1.
         -2   -1    0    0    0  501 -0.00000000000E+00 -0.00000000000E+00 -0.66354079984E+02  0.66354079984E+02  0.00000000000E+00 0.  1.
         25    2    1    2    0    0  0.23058946261E+02 -0.86473974481E+02  0.17781325089E+03  0.23510382747E+03  0.12508714657E+03 0.  0.
         23    2    1    2    0    0 -0.23058946261E+02  0.86473974481E+02  0.74798947583E+02  0.15021653096E+03  0.94660764576E+02 0.  0.
          5    1    3    3  502    0 -0.30422770553E+02 -0.19315045446E+02  0.13361430917E+03  0.13845169541E+03  0.41800000000E+01 0. -1.
         -5    1    3    3    0  502  0.53481716814E+02 -0.67158929035E+02  0.44198941718E+02  0.96652132059E+02  0.41800000000E+01 0. -1.
        -11    1    4    4    0    0 -0.18858758505E+02  0.26152069441E+02  0.83142701587E+02  0.89175626354E+02  0.00000000000E+00 0. -1.
         11    1    4    4    0    0 -0.42001877556E+01  0.60321905039E+02 -0.83437540037E+01  0.61040904610E+02  0.00000000000E+00 0.  1.
</event>
<event>
 8    1  0.7016814E-009  0.1053417E+03  0.7561462E-02  0.1269448E+00
         -2   -1    0    0    0  501 -0.00000000000E+00  0.00000000000E+00  0.15182619136E+03  0.15182619136E+03  0.00000000000E+00 0.  1.
          2   -1    0    0  501    0  0.00000000000E+00 -0.00000000000E+00 -0.13434826857E+03  0.13434826857E+03  0.00000000000E+00 0. -1.
         25    2    1    2    0    0  0.15850635963E+02  0.77546837885E+02 -0.37566970963E+02  0.15271881486E+03  0.12508798655E+03 0.  0.
         23    2    1    2    0    0 -0.15850635963E+02 -0.77546837885E+02  0.55044893749E+02  0.13345564507E+03  0.92280627145E+02 0.  0.
          5    1    3    3  502    0 -0.29449863555E+02  0.53543469516E+02  0.29673673053E+02  0.68060244370E+02  0.41800000000E+01 0. -1.
         -5    1    3    3    0  502  0.45300499518E+02  0.24003368370E+02 -0.67240644016E+02  0.84658570489E+02  0.41800000000E+01 0. -1.
        -11    1    4    4    0    0 -0.35068078087E+02 -0.28073898010E+02  0.65438478998E+02  0.79373222082E+02  0.00000000000E+00 0.  1.
         11    1    4    4    0    0  0.19217442124E+02 -0.49472939876E+02 -0.10393585248E+02  0.54082422986E+02  0.00000000000E+00 0. -1.
</event>
<event>
 8    1  0.7016814E-009  0.1136014E+03  0.7561462E-02  0.1254042E+00
         -4   -1    0    0    0  501 -0.00000000000E+00  0.00000000000E+00  0.14578141128E+03  0.14578141128E+03  0.00000000000E+00 0.  1.
          4   -1    0    0  501    0  0.00000000000E+00 -0.00000000000E+00 -0.12716775373E+03  0.12716775373E+03  0.00000000000E+00 0. -1.
         25    2    1    2    0    0  0.83311487846E+01 -0.41953867814E+02 -0.59004149110E+02  0.14477025901E+03  0.12508958076E+03 0.  0.
         23    2    1    2    0    0 -0.83311487846E+01  0.41953867814E+02  0.77617806658E+02  0.12817890601E+03  0.92605469440E+02 0.  0.
          5    1    3    3  502    0 -0.15267019683E+02 -0.83080505643E+02 -0.36385630519E+02  0.92069749735E+02  0.41800000000E+01 0. -1.
         -5    1    3    3    0  502  0.23598168467E+02  0.41126637829E+02 -0.22618518592E+02  0.52700509271E+02  0.41800000000E+01 0. -1.
        -11    1    4    4    0    0 -0.41429004588E+02  0.45741437803E+02  0.71250965159E+02  0.94262089885E+02  0.00000000000E+00 0.  1.
         11    1    4    4    0    0  0.33097855804E+02 -0.37875699884E+01  0.63668414992E+01  0.33916816123E+02  0.00000000000E+00 0. -1.
</event>
<event>
 8    1  0.7016814E-009  0.9636352E+02  0.7561462E-02  0.1288134E+00
         -2   -1    0    0    0  501 -0.00000000000E+00  0.00000000000E+00  0.24236302878E+02  0.24236302878E+02  0.00000000000E+00 0.  1.
          2   -1    0    0  501    0  0.00000000000E+00 -0.00000000000E+00 -0.50024201403E+03  0.50024201403E+03  0.00000000000E+00 0. -1.
         25    2    1    2    0    0  0.31954328660E+02 -0.19831703659E+01 -0.28944360481E+03  0.31693813873E+03  0.12508865391E+03 0.  0.
         23    2    1    2    0    0 -0.31954328660E+02  0.19831703659E+01 -0.18656210634E+03  0.20754017817E+03  0.85102843356E+02 0.  0.
          5    1    3    3  502    0  0.40948879033E+02  0.56115600155E+02 -0.17166463041E+03  0.18523495623E+03  0.41800000000E+01 0.  1.
         -5    1    3    3    0  502 -0.89945503728E+01 -0.58098770521E+02 -0.11777897439E+03  0.13170318250E+03  0.41800000000E+01 0.  1.
        -11    1    4    4    0    0 -0.60866861247E+01 -0.25638635083E+02 -0.12056451119E+02  0.28978360383E+02  0.00000000000E+00 0.  1.
         11    1    4    4    0    0 -0.25867642536E+02  0.27621805449E+02 -0.17450565523E+03  0.17856181779E+03  0.00000000000E+00 0. -1.
</event>
<event>
 8    1  0.7016814E-009  0.1001634E+03  0.7561462E-02  0.1279953E+00
          1   -1    0    0  501    0  0.00000000000E+00  0.00000000000E+00  0.22561819340E+03  0.22561819340E+03  0.00000000000E+00 0. -1.
         -1   -1    0    0    0  501 -0.00000000000E+00 -0.00000000000E+00 -0.52523559435E+02  0.52523559435E+02  0.00000000000E+00 0.  1.
         25    2    1    2    0    0  0.14223772626E+02 -0.10019638559E+02  0.92512174855E+02  0.15655252015E+03  0.12508988850E+03 0.  0.
         23    2    1    2    0    0 -0.14223772626E+02  0.10019638559E+02  0.80582459111E+02  0.12158923268E+03  0.89373933129E+02 0.  0.
          5    1    3    3  502    0 -0.32928934609E+02  0.39091902052E+02  0.65498821861E+02  0.83186895637E+02  0.41800000000E+01 0.  1.
         -5    1    3    3    0  502  0.47152707235E+02 -0.49111540611E+02  0.27013352994E+02  0.73365624517E+02  0.41800000000E+01 0.  1.
        -11    1    4    4    0    0  0.30299325642E+02  0.18511445692E+02  0.64254480891E+02  0.73412267848E+02  0.00000000000E+00 0. -1.
         11    1    4    4    0    0 -0.44523098268E+02 -0.84918071330E+01  0.16327978220E+02  0.48176964833E+02  0.00000000000E+00 0.  1.
</event>
<event>
 8    1  0.7016814E-009  0.1051828E+03  0.7561462E-02  0.1269760E+00
         -2   -1    0    0    0  501 -0.00000000000E+00  0.00000000000E+00  0.24967240612E+02  0.24967240612E+02  0.00000000000E+00 0.  1.
          2   -1    0    0  501    0  0.00000000000E+00 -0.00000000000E+00 -0.59950521414E+03  0.59950521414E+03  0.00000000000E+00 0. -1.
         25    2    1    2    0    0  0.28555884902E+02 -0.36636537682E+02 -0.23684181502E+03  0.27184481537E+03  0.12509150190E+03 0.  0.
         23    2    1    2    0    0 -0.28555884902E+02  0.36636537682E+02 -0.33769615851E+03  0.35262763938E+03  0.90276697580E+02 0.  0.
          5    1    3    3  502    0  0.35683167603E+01 -0.73543086370E+02 -0.80295008386E+02  0.10902329663E+03  0.41800000000E+01 0.  1.
         -5    1    3    3    0  502  0.24987568142E+02  0.36906548688E+02 -0.15654680663E+03  0.16282151874E+03  0.41800000000E+01 0.  1.
        -11    1    4    4    0    0 -0.41387009124E+02 -0.10748954211E+02 -0.84353823417E+02  0.94572681393E+02  0.00000000000E+00 0.  1.
         11    1    4    4    0    0  0.12831124222E+02  0.47385491893E+02 -0.25334233510E+03  0.25805495799E+03  0.00000000000E+00 0. -1.
</event>
<event>
 8    1  0.7016814E-009  0.1645285E+03  0.7561462E-02  0.1183677E+00
          2   -1    0    0  501    0  0.00000000000E+00  0.00000000000E+00  0.60905771899E+03  0.60905771899E+03  0.00000000000E+00 0. -1.
         -2   -1    0    0    0  501 -0.00000000000E+00 -0.00000000000E+00 -0.46354441450E+02  0.46354441450E+02  0.00000000000E+00 0.  1.
         25    2    1    2    0    0  0.11975516606E+03  0.43274004478E+02  0.30026897566E+03  0.34931845362E+03  0.12509190633E+03 0.  0.
         23    2    1    2    0    0 -0.11975516606E+03 -0.43274004478E+02  0.26243430188E+03  0.30609370682E+03  0.92777450344E+02 0.  0.
          5    1    3    3  502    0  0.12829881810E+03 -0.51535781583E+01  0.23004077173E+03  0.26348315914E+03  0.41800000000E+01 0.  1.
         -5    1    3    3    0  502 -0.85436520324E+01  0.48427582637E+02  0.70228203933E+02  0.85835294476E+02  0.41800000000E+01 0.  1.
        -11    1    4    4    0    0 -0.53170102050E+02  0.22413292912E+02  0.60798518778E+02  0.83820494730E+02  0.00000000000E+00 0.  1.
         11    1    4    4    0    0 -0.66585064014E+02 -0.65687297390E+02  0.20163578310E+03  0.22227321209E+03  0.00000000000E+00 0. -1.
</event>
<event>
 8    1  0.7016814E-009  0.1417550E+03  0.7561462E-02  0.1210987E+00
          1   -1    0    0  501    0  0.00000000000E+00  0.00000000000E+00  0.84022645161E+03  0.84022645161E+03  0.00000000000E+00 0. -1.
         -1   -1    0    0    0  501 -0.00000000000E+00 -0.00000000000E+00 -0.38067454620E+02  0.38067454620E+02  0.00000000000E+00 0.  1.
         25    2    1    2    0    0 -0.70339668127E+02 -0.10214941513E+03  0.25437302631E+03  0.30940872484E+03  0.12508377421E+03 0.  0.
         23    2    1    2    0    0  0.70339668127E+02  0.10214941513E+03  0.54778597068E+03  0.56888518139E+03  0.90436209598E+02 0.  0.
          5    1    3    3  502    0 -0.56260624310E+02 -0.57848314883E+01  0.17419225038E+03  0.18319152441E+03  0.41800000000E+01 0. -1.
         -5    1    3    3    0  502 -0.14079043817E+02 -0.96364583645E+02  0.80180775927E+02  0.12621720043E+03  0.41800000000E+01 0. -1.
        -11    1    4    4    0    0  0.40942992830E+02  0.28122126528E+02  0.78549437467E+02  0.92936520210E+02  0.00000000000E+00 0.  1.
         11    1    4    4    0    0  0.29396675297E+02  0.74027288606E+02  0.46923653322E+03  0.47594866118E+03  0.00000000000E+00 0. -1.
</event>
<event>
 8    1  0.7016814E-009  0.2981652E+03  0.7561462E-02  0.1086161E+00
         -2   -1    0    0    0  501 -0.00000000000E+00  0.00000000000E+00  0.28535800031E+03  0.28535800031E+03  0.00000000000E+00 0.  1.
          2   -1    0    0  501    0  0.00000000000E+00 -0.00000000000E+00 -0.31869230708E+03  0.31869230708E+03  0.00000000000E+00 0. -1.
         25    2    1    2    0    0 -0.19473346999E+03  0.20117793374E+03 -0.44712852550E+02  0.30990385433E+03  0.12508986523E+03 0.  0.
         23    2    1    2    0    0  0.19473346999E+03 -0.20117793374E+03  0.11378545786E+02  0.29414645307E+03  0.89437012398E+02 0.  0.
          5    1    3    3  502    0 -0.29059279851E+02  0.11317900592E+03  0.35924004192E+00  0.11692532053E+03  0.41800000000E+01 0. -1.
         -5    1    3    3    0  502 -0.16567419014E+03  0.87998927821E+02 -0.45072092591E+02  0.19297853380E+03  0.41800000000E+01 0. -1.
        -11    1    4    4    0    0 -0.56732620322E+01 -0.22719354162E+02  0.10826230260E+02  0.25798492538E+02  0.00000000000E+00 0.  1.
         11    1    4    4    0    0  0.20040673202E+03 -0.17845857958E+03  0.55231552604E+00  0.26834796053E+03  0.00000000000E+00 0. -1.
</event>
<event>
 8    1  0.7016814E-009  0.1147758E+03  0.7561462E-02  0.1251973E+00
          2   -1    0    0  501    0  0.00000000000E+00  0.00000000000E+00  0.10881819921E+04  0.10881819921E+04  0.00000000000E+00 0. -1.
         -2   -1    0    0    0  501 -0.00000000000E+00 -0.00000000000E+00 -0.18772513396E+02  0.18772513396E+02  0.00000000000E+00 0.  1.
         25    2    1    2    0    0  0.60515959758E+02  0.32411862386E+02  0.80916772772E+03  0.82165243106E+03  0.12509035001E+03 0.  0.
         23    2    1    2    0    0 -0.60515959758E+02 -0.32411862386E+02  0.26024175097E+03  0.28530207443E+03  0.94650908688E+02 0.  0.
          5    1    3    3  502    0  0.46797595736E+02  0.79496214652E+02  0.57501356344E+03  0.58238108971E+03  0.41800000000E+01 0.  1.
         -5    1    3    3    0  502  0.13718364022E+02 -0.47084352266E+02  0.23415416428E+03  0.23927134135E+03  0.41800000000E+01 0.  1.
        -11    1    4    4    0    0 -0.14200686822E+02 -0.38724041365E+02  0.21935768206E+03  0.22320171049E+03  0.00000000000E+00 0. -1.
         11    1    4    4    0    0 -0.46315272936E+02  0.63121789796E+01  0.40884068907E+02  0.62100363936E+02  0.00000000000E+00 0.  1.
</event>
<event>
 8    1  0.7016814E-009  0.1002254E+03  0.7561462E-02  0.1279823E+00
          1   -1    0    0  501    0  0.00000000000E+00  0.00000000000E+00  0.32797520933E+03  0.32797520933E+03  0.00000000000E+00 0. -1.
         -1   -1    0    0    0  501 -0.00000000000E+00 -0.00000000000E+00 -0.50118632915E+02  0.50118632915E+02  0.00000000000E+00 0.  1.
         25    2    1    2    0    0 -0.47529039413E+02  0.42565111647E+02  0.12738544287E+03  0.18959403216E+03  0.12509215665E+03 0.  0.
         23    2    1    2    0    0  0.47529039413E+02 -0.42565111647E+02  0.15047113354E+03  0.18849981009E+03  0.93913886393E+02 0.  0.
          5    1    3    3  502    0 -0.53629577757E+02 -0.26557635465E+02  0.23147864777E+02  0.64301910202E+02  0.41800000000E+01 0.  1.
         -5    1    3    3    0  502  0.61005383444E+01  0.69122747112E+02  0.10423757810E+03  0.12529212195E+03  0.41800000000E+01 0.  1.
        -11    1    4    4    0    0  0.34563437313E+02 -0.10138184307E+02  0.14927195420E+03  0.15355627728E+03  0.00000000000E+00 0. -1.
         11    1    4    4    0    0  0.12965602100E+02 -0.32426927340E+02  0.11991793431E+01  0.34943532815E+02  0.00000000000E+00 0.  1.
</event>
<event>
 8    1  0.7016814E-009  0.1204149E+03  0.7561462E-02  0.1242414E+00
         -2   -1    0    0    0  501 -0.00000000000E+00  0.00000000000E+00  0.97053429766E+02  0.97053429766E+02  0.00000000000E+00 0.  1.
          2   -1    0    0  501    0  0.00000000000E+00 -0.00000000000E+00 -0.20412994267E+03  0.20412994267E+03  0.00000000000E+00 0. -1.
         25    2    1    2    0    0 -0.42448458256E+02 -0.45819665095E+02 -0.12970348907E+03  0.19071467061E+03  0.12509107559E+03 0.  0.
         23    2    1    2    0    0  0.42448458256E+02  0.45819665095E+02  0.22626976164E+02  0.11046870182E+03  0.88261207303E+02 0.  0.
          5    1    3    3  502    0 -0.60231756485E+02 -0.79757654440E+02 -0.81726715661E+02  0.12917382236E+03  0.41800000000E+01 0.  1.
         -5    1    3    3    0  502  0.17783298229E+02  0.33937989345E+02 -0.47976773406E+02  0.61540848248E+02  0.41800000000E+01 0.  1.
        -11    1    4    4    0    0 -0.16787292583E+02  0.39208237336E+02 -0.80965682841E+01  0.43412595928E+02  0.00000000000E+00 0.  1.
         11    1    4    4    0    0  0.59235750838E+02  0.66114277586E+01  0.30723544449E+02  0.67056105896E+02  0.00000000000E+00 0. -1.
</event>
<event>
 8    1  0.7016814E-009  0.1818925E+03  0.7561462E-02  0.1165984E+00
          3   -1    0    0  501    0  0.00000000000E+00  0.00000000000E+00  0.11677556882E+03  0.11677556882E+03  0.00000000000E+00 0. -1.
         -3   -1    0    0    0  501 -0.00000000000E+00 -0.00000000000E+00 -0.33665009770E+03  0.33665009770E+03  0.00000000000E+00 0.  1.
         25    2    1    2    0    0  0.22157359293E+02 -0.16086676477E+03 -0.14432590066E+03  0.25069231070E+03  0.12509038518E+03 0.  0.
         23    2    1    2    0    0 -0.22157359293E+02  0.16086676477E+03 -0.75548628215E+02  0.20273335582E+03  0.94995546005E+02 0.  0.
          5    1    3    3  502    0  0.37474825714E+02 -0.30978498269E+01 -0.24386093646E+01  0.37912774252E+02  0.41800000000E+01 0.  1.
         -5    1    3    3    0  502 -0.15317466421E+02 -0.15776891494E+03 -0.14188729130E+03  0.21277953645E+03  0.41800000000E+01 0.  1.
        -11    1    4    4    0    0 -0.33171258140E+02  0.95503828529E+02  0.14800265896E+01  0.10111134511E+03  0.00000000000E+00 0. -1.
         11    1    4    4    0    0  0.11013898847E+02  0.65362936239E+02 -0.77028654804E+02  0.10162201072E+03  0.00000000000E+00 0.  1.
</event>
<event>
 8    1  0.7016814E-009  0.1111727E+03  0.7561462E-02  0.1258414E+00
          2   -1    0    0  501    0  0.00000000000E+00  0.00000000000E+00  0.70597202316E+02  0.70597202316E+02  0.00000000000E+00 0. -1.
         -2   -1    0    0    0  501 -0.00000000000E+00 -0.00000000000E+00 -0.23151298169E+03  0.23151298169E+03  0.00000000000E+00 0.  1.
         25    2    1    2    0    0  0.27063461608E+02 -0.30382950293E+02 -0.25709668662E+02  0.13403122129E+03  0.12509127305E+03 0.  0.
         23    2    1    2    0    0 -0.27063461608E+02  0.30382950293E+02 -0.13520611071E+03  0.16807896272E+03  0.91182732534E+02 0.  0.
          5    1    3    3  502    0  0.51034308311E+01 -0.75671020734E+02  0.28485749868E+01  0.76011414700E+02  0.41800000000E+01 0.  1.
         -5    1    3    3    0  502  0.21960030776E+02  0.45288070441E+02 -0.28558243649E+02  0.58019806586E+02  0.41800000000E+01 0.  1.
        -11    1    4    4    0    0 -0.58285621365E+02  0.27735998167E+02 -0.11131372185E+03  0.12867495454E+03  0.00000000000E+00 0. -1.
         11    1    4    4    0    0  0.31222159758E+02  0.26469521263E+01 -0.23892388858E+02  0.39404008183E+02  0.00000000000E+00 0.  1.
</event>
<event>
 8    1  0.7016814E-009  0.1172236E+03  0.7561462E-02  0.1247749E+00
         -1   -1    0    0    0  501 -0.00000000000E+00  0.00000000000E+00  0.71651433369E+02  0.71651433369E+02  0.00000000000E+00 0. -1.
          1   -1    0    0  501    0  0.00000000000E+00 -0.00000000000E+00 -0.27994768330E+03  0.27994768330E+03  0.00000000000E+00 0.  1.
         25    2    1    2    0    0  0.35255134838E+02 -0.73255925369E+02 -0.65830210974E+02  0.16306255721E+03  0.12508567366E+03 0.  0.
         23    2    1    2    0    0 -0.35255134838E+02  0.73255925369E+02 -0.14246603895E+03  0.18853655945E+03  0.92952175125E+02 0.  0.
          5    1    3    3  502    0 -0.41741644567E+02 -0.56323368642E+02 -0.31780623814E+02  0.77085453857E+02  0.41800000000E+01 0.  1.
         -5    1    3    3    0  502  0.76996779404E+02 -0.16932556727E+02 -0.34049587160E+02  0.85977103357E+02  0.41800000000E+01 0.  1.
        -11    1    4    4    0    0  0.17616516457E+01  0.21865410397E+02  0.94968764135E+01  0.23903770622E+02  0.00000000000E+00 0. -1.
         11    1    4    4    0    0 -0.37016786483E+02  0.51390514972E+02 -0.15196291537E+03  0.16463278883E+03  0.00000000000E+00 0.  1.
</event>
<event>
 8    1  0.7016814E-009  0.6599954E+02  0.7561462E-02  0.1374251E+00
          1   -1    0    0  501    0  0.00000000000E+00  0.00000000000E+00  0.60164622419E+03  0.60164622419E+03  0.00000000000E+00 0. -1.
         -1   -1    0    0    0  501 -0.00000000000E+00 -0.00000000000E+00 -0.24337970774E+02  0.24337970774E+02  0.00000000000E+00 0.  1.
         25    2    1    2    0    0 -0.34810916681E+02 -0.39059725662E+00  0.43130574450E+03  0.45042654694E+03  0.12508987353E+03 0.  0.
         23    2    1    2    0    0  0.34810916681E+02  0.39059725662E+00  0.14600250892E+03  0.17555764803E+03  0.91059336068E+02 0.  0.
          5    1    3    3  502    0 -0.28827770296E+02 -0.25254550851E+02  0.31508688601E+02  0.49790586824E+02  0.41800000000E+01 0.  1.
         -5    1    3    3    0  502 -0.59831463853E+01  0.24863953594E+02  0.39979705590E+03  0.40063596012E+03  0.41800000000E+01 0.  1.
        -11    1    4    4    0    0 -0.11788493253E+02  0.14647287198E+02 -0.27722130798E+01  0.19005177210E+02  0.00000000000E+00 0.  1.
         11    1    4    4    0    0  0.46599409934E+02 -0.14256689941E+02  0.14877472200E+03  0.15655247082E+03  0.00000000000E+00 0. -1.
</event>
<event>
 8    1  0.7016814E-009  0.1396234E+03  0.7561462E-02  0.1213837E+00
          1   -1    0    0  501    0  0.00000000000E+00  0.00000000000E+00  0.41835079211E+02  0.41835079211E+02  0.00000000000E+00 0. -1.
         -1   -1    0    0    0  501 -0.00000000000E+00 -0.00000000000E+00 -0.54983832758E+03  0.54983832758E+03  0.00000000000E+00 0.  1.
         25    2    1    2    0    0  0.54953741231E+02  0.73614668580E+02 -0.37606374252E+03  0.40682829008E+03  0.12508511528E+03 0.  0.
         23    2    1    2    0    0 -0.54953741231E+02 -0.73614668580E+02 -0.13193950585E+03  0.18484511672E+03  0.91217601723E+02 0.  0.
          5    1    3    3  502    0 -0.38459453792E+02  0.22031460551E+02 -0.15589531512E+03  0.16212753164E+03  0.41800000000E+01 0.  1.
         -5    1    3    3    0  502  0.93413195023E+02  0.51583208029E+02 -0.22016842740E+03  0.24470075844E+03  0.41800000000E+01 0.  1.
        -11    1    4    4    0    0 -0.39464016578E+02  0.11751197654E+02 -0.29785060088E+02  0.50819770319E+02  0.00000000000E+00 0. -1.
         11    1    4    4    0    0 -0.15489724653E+02 -0.85365866234E+02 -0.10215444576E+03  0.13402534640E+03  0.00000000000E+00 0.  1.
</event>
<event>
 8    1  0.7016814E-009  0.1235588E+03  0.7561462E-02  0.1237339E+00
          2   -1    0    0  501    0  0.00000000000E+00  0.00000000000E+00  0.95725373094E+02  0.95725373094E+02  0.00000000000E+00 0. -1.
         -2   -1    0    0    0  501 -0.00000000000E+00 -0.00000000000E+00 -0.27909938959E+03  0.27909938959E+03  0.00000000000E+00 0.  1.
         25    2    1    2    0    0 -0.33441904989E+02  0.10633288019E+03 -0.14848645857E+03  0.22387443636E+03  0.12508594028E+03 0.  0.
         23    2    1    2    0    0  0.33441904989E+02 -0.10633288019E+03 -0.34887557923E+02  0.15095032633E+03  0.95623307313E+02 0.  0.
          5    1    3    3  502    0 -0.13781526201E+02  0.35643244493E+02 -0.14531540411E+03  0.15031437195E+03  0.41800000000E+01 0.  1.
         -5    1    3    3    0  502 -0.19660378788E+02  0.70689635697E+02 -0.31710544593E+01  0.73560064406E+02  0.41800000000E+01 0.  1.
        -11    1    4    4    0    0  0.49401218717E+02 -0.31323277275E+02 -0.44724222324E+02  0.73633444660E+02  0.00000000000E+00 0.  1.
         11    1    4    4    0    0 -0.15959313728E+02 -0.75009602915E+02  0.98366644004E+01  0.77316881667E+02  0.00000000000E+00 0. -1.
</event>
<event>
 8    1  0.7016814E-009  0.9409093E+02  0.7561462E-02  0.1293237E+00
         -1   -1    0    0    0  501 -0.00000000000E+00  0.00000000000E+00  0.19691888333E+03  0.19691888333E+03  0.00000000000E+00 0.  1.
          1   -1    0    0  501    0  0.00000000000E+00 -0.00000000000E+00 -0.77903056349E+02  0.77903056349E+02  0.00000000000E+00 0. -1.
         25    2    1    2    0    0  0.17517451838E+02  0.55313218860E+02  0.91140233605E+02  0.16528911504E+03  0.12509011180E+03 0.  0.
         23    2    1    2    0    0 -0.17517451838E+02 -0.55313218860E+02  0.27875593376E+02  0.10953282464E+03  0.88622670166E+02 0.  0.
          5    1    3    3  502    0 -0.46007927829E+02  0.36672099074E+01  0.63836780976E+02  0.78884630042E+02  0.41800000000E+01 0.  1.
         -5    1    3    3    0  502  0.63525379667E+02  0.51646008952E+02  0.27303452630E+02  0.86404485000E+02  0.41800000000E+01 0.  1.
        -11    1    4    4    0    0 -0.26619093716E+01 -0.32684138057E+02 -0.30753141462E+02  0.44956582964E+02  0.00000000000E+00 0. -1.
         11    1    4    4    0    0 -0.14855542467E+02 -0.22629080803E+02  0.58628734837E+02  0.64576241673E+02  0.00000000000E+00 0.  1.
</event>
<event>
 8    1  0.7016814E-009  0.1140784E+03  0.7561462E-02  0.1253198E+00
         -2   -1    0    0    0  501 -0.00000000000E+00  0.00000000000E+00  0.36963154182E+02  0.36963154182E+02  0.00000000000E+00 0.  1.
          2   -1    0    0  501    0  0.00000000000E+00 -0.00000000000E+00 -0.42996194026E+03  0.42996194026E+03  0.00000000000E+00 0. -1.
         25    2    1    2    0    0 -0.44948849004E+02  0.44202871485E+02 -0.26657901055E+03  0.30113559638E+03  0.12507591961E+03 0.  0.
         23    2    1    2    0    0  0.44948849004E+02 -0.44202871485E+02 -0.12641977553E+03  0.16578949807E+03  0.86775026070E+02 0.  0.
          5    1    3    3  502    0  0.38171190131E+02  0.19076382261E+02 -0.14810850227E+03  0.15418997685E+03  0.41800000000E+01 0.  1.
         -5    1    3    3    0  502 -0.83120039136E+02  0.25126489224E+02 -0.11847050828E+03  0.14694561953E+03  0.41800000000E+01 0.  1.
        -11    1    4    4    0    0  0.37921007129E+02  0.13472089773E+02 -0.20937153983E+02  0.45363690342E+02  0.00000000000E+00 0.  1.
         11    1    4    4    0    0  0.70278418758E+01 -0.57674961258E+02 -0.10548262155E+03  0.12042580773E+03  0.00000000000E+00 0. -1.
</event>
<event>
 8    1  0.7016814E-009  0.1377631E+03  0.7561462E-02  0.1216371E+00
         -2   -1    0    0    0  501 -0.00000000000E+00  0.00000000000E+00  0.31685220452E+03  0.31685220452E+03  0.00000000000E+00 0. -1.
          2   -1    0    0  501    0  0.00000000000E+00 -0.00000000000E+00 -0.15614369393E+03  0.15614369393E+03  0.00000000000E+00 0.  1.
         25    2    1    2    0    0 -0.10652780622E+03  0.51338424515E+02  0.24660297342E+03  0.30073962932E+03  0.12508993091E+03 0.  0.
         23    2    1    2    0    0  0.10652780622E+03 -0.51338424515E+02 -0.85894462830E+02  0.17225626912E+03  0.91162251927E+02 0.  0.
          5    1    3    3  502    0  0.70840449009E+01 -0.20948463071E+02  0.34645382064E+01  0.22770534078E+02  0.41800000000E+01 0.  1.
         -5    1    3    3    0  502 -0.11361185112E+03  0.72286887586E+02  0.24313843521E+03  0.27796909525E+03  0.41800000000E+01 0.  1.
        -11    1    4    4    0    0  0.39681005424E+02 -0.20855743705E+02 -0.87996854310E+02  0.98757230649E+02  0.00000000000E+00 0.  1.
         11    1    4    4    0    0  0.66846800800E+02 -0.30482680809E+02  0.21023914799E+01  0.73499038473E+02  0.00000000000E+00 0. -1.
</event>
<event>
 8    1  0.7016814E-009  0.8118464E+02  0.7561462E-02  0.1325723E+00
          2   -1    0    0  501    0  0.00000000000E+00  0.00000000000E+00  0.34873739843E+03  0.34873739843E+03  0.00000000000E+00 0. -1.
         -2   -1    0    0    0  501 -0.00000000000E+00 -0.00000000000E+00 -0.61123621312E+02  0.61123621312E+02  0.00000000000E+00 0.  1.
         25    2    1    2    0    0  0.47695966591E+02 -0.49630391516E+02  0.67359622936E+02  0.15786896593E+03  0.12508881089E+03 0.  0.
         23    2    1    2    0    0 -0.47695966591E+02  0.49630391516E+02  0.22025415418E+03  0.25199205381E+03  0.10124239112E+03 0.  0.
          5    1    3    3  502    0  0.17483609461E+02 -0.25905591275E+02  0.10151328713E+03  0.10629767694E+03  0.41800000000E+01 0. -1.
         -5    1    3    3    0  502  0.30212357130E+02 -0.23724800241E+02 -0.34153664195E+02  0.51571288987E+02  0.41800000000E+01 0. -1.
        -11    1    4    4    0    0 -0.42042250828E+02  0.64102398102E+02  0.22335867565E+03  0.23614776367E+03  0.00000000000E+00 0. -1.
         11    1    4    4    0    0 -0.56537157628E+01 -0.14472006586E+02 -0.31045214711E+01  0.15844290143E+02  0.00000000000E+00 0.  1.
</event>
<event>
 8    1  0.7016814E-009  0.6552269E+02  0.7561462E-02  0.1376016E+00
         -2   -1    0    0    0  501 -0.00000000000E+00  0.00000000000E+00  0.14167884324E+03  0.14167884324E+03  0.00000000000E+00 0.  1.
          2   -1    0    0  501    0  0.00000000000E+00 -0.00000000000E+00 -0.12791196260E+03  0.12791196260E+03  0.00000000000E+00 0. -1.
         25    2    1    2    0    0 -0.29132143737E+02 -0.52224053162E+02  0.59732210305E+02  0.15096736936E+03  0.12508867309E+03 0.  0.
         23    2    1    2    0    0  0.29132143737E+02  0.52224053162E+02 -0.45965329658E+02  0.11862343648E+03  0.91556947440E+02 0.  0.
          5    1    3    3  502    0 -0.30217768001E+02 -0.27672747508E+02 -0.34354728935E+02  0.53634077393E+02  0.41800000000E+01 0. -1.
         -5    1    3    3    0  502  0.10856242643E+01 -0.24551305653E+02  0.94086939240E+02  0.97333291966E+02  0.41800000000E+01 0. -1.
        -11    1    4    4    0    0  0.25169986087E+01  0.30420168878E+02 -0.70193288103E+02  0.76542926853E+02  0.00000000000E+00 0. -1.
         11    1    4    4    0    0  0.26615145128E+02  0.21803884284E+02  0.24227958445E+02  0.42080509627E+02  0.00000000000E+00 0.  1.
</event>
<event>
 8    1  0.7016814E-009  0.1304948E+03  0.7561462E-02  0.1226723E+00
         -2   -1    0    0    0  501 -0.00000000000E+00  0.00000000000E+00  0.14251885675E+03  0.14251885675E+03  0.00000000000E+00 0. -1.
          2   -1    0    0  501    0  0.00000000000E+00 -0.00000000000E+00 -0.14213624894E+03  0.14213624894E+03  0.00000000000E+00 0.  1.
         25    2    1    2    0    0 -0.66324161174E+02 -0.62932510471E+02 -0.34318229227E+01  0.15498034749E+03  0.12509090882E+03 0.  0.
         23    2    1    2    0    0  0.66324161174E+02  0.62932510471E+02  0.38144307300E+01  0.12967475820E+03  0.91878168257E+02 0.  0.
          5    1    3    3  502    0 -0.87853845734E+01 -0.90379592674E+02 -0.54136112703E+01  0.91062798887E+02  0.41800000000E+01 0. -1.
         -5    1    3    3    0  502 -0.57538776601E+02  0.27447082203E+02  0.19817883477E+01  0.63917548602E+02  0.41800000000E+01 0. -1.
        -11    1    4    4    0    0 -0.73493445180E+01  0.19121858537E+02 -0.31001309198E+02  0.37158303389E+02  0.00000000000E+00 0.  1.
         11    1    4    4    0    0  0.73673505692E+02  0.43810651934E+02  0.34815739928E+02  0.92516454810E+02  0.00000000000E+00 0. -1.
</event>
<event>
 8    1  0.7016814E-009  0.1110207E+03  0.7561462E-02  0.1258691E+00
          1   -1    0    0  501    0  0.00000000000E+00  0.00000000000E+00  0.19557503828E+03  0.19557503828E+03  0.00000000000E+00 0. -1.
         -1   -1    0    0    0  501 -0.00000000000E+00 -0.00000000000E+00 -0.10419670163E+03  0.10419670163E+03  0.00000000000E+00 0.  1.
         25    2    1    2    0    0  0.41260220240E+02 -0.27634390108E+02  0.13317184163E+03  0.18933746174E+03  0.12509144545E+03 0.  0.
         23    2    1    2    0    0 -0.41260220240E+02  0.27634390108E+02 -0.41793504986E+02  0.11043427817E+03  0.89347453490E+02 0.  0.
          5    1    3    3  502    0  0.18062099501E+02  0.49432939519E+02  0.65305113931E+02  0.83976694704E+02  0.41800000000E+01 0. -1.
         -5    1    3    3    0  502  0.23198120739E+02 -0.77067329627E+02  0.67866727700E+02  0.10536076704E+03  0.41800000000E+01 0. -1.
        -11    1    4    4    0    0 -0.48162297432E+02 -0.11005044502E+02  0.46547221063E+01  0.49622417679E+02  0.00000000000E+00 0.  1.
         11    1    4    4    0    0  0.69020771920E+01  0.38639434609E+02 -0.46448227093E+02  0.60811860492E+02  0.00000000000E+00 0. -1.
</event>
<event>
 8    1  0.7016814E-009  0.1106975E+03  0.7561462E-02  0.1259284E+00
          2   -1    0    0  501    0  0.00000000000E+00  0.00000000000E+00  0.22018006220E+03  0.22018006220E+03  0.00000000000E+00 0. -1.
         -2   -1    0    0    0  501 -0.00000000000E+00 -0.00000000000E+00 -0.70176195794E+02  0.70176195794E+02  0.00000000000E+00 0.  1.
         25    2    1    2    0    0  0.41226221985E+02 -0.43931161441E+02  0.85231213192E+02  0.16291423729E+03  0.12508853138E+03 0.  0.
         23    2    1    2    0    0 -0.41226221985E+02  0.43931161441E+02  0.64772653216E+02  0.12744202071E+03  0.91741068845E+02 0.  0.
          5    1    3    3  502    0 -0.85492554110E+01 -0.62744787061E+02  0.13332466549E+01  0.63476357945E+02  0.41800000000E+01 0. -1.
         -5    1    3    3    0  502  0.49775477396E+02  0.18813625620E+02  0.83897966537E+02  0.99437879342E+02  0.41800000000E+01 0. -1.
        -11    1    4    4    0    0 -0.14367276051E+02  0.67384363622E+02  0.23263779396E+02  0.72720523332E+02  0.00000000000E+00 0.  1.
         11    1    4    4    0    0 -0.26858945934E+02 -0.23453202181E+02  0.41508873820E+02  0.54721497376E+02  0.00000000000E+00 0. -1.
</event>
<event>
 8    1  0.7016814E-009  0.1023568E+03  0.7561462E-02  0.1275417E+00
          2   -1    0    0  501    0  0.00000000000E+00  0.00000000000E+00  0.89665007241E+03  0.89665007241E+03  0.00000000000E+00 0. -1.
         -2   -1    0    0    0  501 -0.00000000000E+00 -0.00000000000E+00 -0.13850179264E+02  0.13850179264E+02  0.00000000000E+00 0.  1.
         25    2    1    2    0    0  0.79549909114E+01  0.17214145663E+02  0.58521701617E+03  0.59873788615E+03  0.12509393113E+03 0.  0.
         23    2    1    2    0    0 -0.79549909114E+01 -0.17214145663E+02  0.29758287697E+03  0.31176236552E+03  0.90997775778E+02 0.  0.
          5    1    3    3  502    0  0.53282470005E+02  0.44811907008E+02  0.39948860657E+03  0.40553143874E+03  0.41800000000E+01 0.  1.
         -5    1    3    3    0  502 -0.45327479093E+02 -0.27597761344E+02  0.18572840960E+03  0.19320644742E+03  0.41800000000E+01 0.  1.
        -11    1    4    4    0    0 -0.30879352259E+02  0.20878825402E+02  0.21269613386E+03  0.21593773432E+03  0.00000000000E+00 0. -1.
         11    1    4    4    0    0  0.22924361348E+02 -0.38092971065E+02  0.84886743116E+02  0.95824631200E+02  0.00000000000E+00 0.  1.
</event>
<event>
 8    1  0.7016814E-009  0.9521310E+02  0.7561462E-02  0.1290697E+00
         -2   -1    0    0    0  501 -0.00000000000E+00  0.00000000000E+00  0.84082107023E+02  0.84082107023E+02  0.00000000000E+00 0.  1.
          2   -1    0    0  501    0  0.00000000000E+00 -0.00000000000E+00 -0.19012622081E+03  0.19012622081E+03  0.00000000000E+00 0. -1.
         25    2    1    2    0    0 -0.10896976391E+01 -0.61531487652E+02 -0.81972088154E+02  0.16172408047E+03  0.12509174055E+03 0.  0.
         23    2    1    2    0    0  0.10896976391E+01  0.61531487652E+02 -0.24072025635E+02  0.11248424737E+03  0.91027095272E+02 0.  0.
          5    1    3    3  502    0  0.19259986147E+02  0.93285231255E+01  0.24087241851E+02  0.32490552936E+02  0.41800000000E+01 0.  1.
         -5    1    3    3    0  502 -0.20349683786E+02 -0.70860010777E+02 -0.10605933001E+03  0.12923352753E+03  0.41800000000E+01 0.  1.
        -11    1    4    4    0    0  0.31178642466E+02  0.56131379357E+02  0.11873074203E+02  0.65297851310E+02  0.00000000000E+00 0.  1.
         11    1    4    4    0    0 -0.30088944827E+02  0.54001082942E+01 -0.35945099838E+02  0.47186396056E+02  0.00000000000E+00 0. -1.
</event>
<event>
 8    1  0.7016814E-009  0.1098616E+03  0.7561462E-02  0.1260826E+00
          1   -1    0    0  501    0  0.00000000000E+00  0.00000000000E+00  0.45315471897E+03  0.45315471897E+03  0.00000000000E+00 0. -1.
         -1   -1    0    0    0  501 -0.00000000000E+00 -0.00000000000E+00 -0.47056430937E+02  0.47056430937E+02  0.00000000000E+00 0.  1.
         25    2    1    2    0    0  0.69799642935E+02  0.25065931777E+02  0.32851514154E+03  0.35926645133E+03  0.12509953533E+03 0.  0.
         23    2    1    2    0    0 -0.69799642935E+02 -0.25065931777E+02  0.77583146500E+02  0.14094469858E+03  0.91356293424E+02 0.  0.
          5    1    3    3  502    0  0.83448822351E+01 -0.22509558404E+02  0.29715267448E+01  0.24548312574E+02  0.41800000000E+01 0.  1.
         -5    1    3    3    0  502  0.61454760700E+02  0.47575490181E+02  0.32554361479E+03  0.33471813875E+03  0.41800000000E+01 0.  1.
        -11    1    4    4    0    0  0.28607655930E+01 -0.42667224326E+02  0.24887378819E+02  0.49477849953E+02  0.00000000000E+00 0. -1.
         11    1    4    4    0    0 -0.72660408528E+02  0.17601292549E+02  0.52695767681E+02  0.91466848630E+02  0.00000000000E+00 0.  1.
</event>
<event>
 8    1  0.7016814E-009  0.1467383E+03  0.7561462E-02  0.1204539E+00
         -2   -1    0    0    0  501 -0.00000000000E+00  0.00000000000E+00  0.14418520187E+03  0.14418520187E+03  0.00000000000E+00 0. -1.
          2   -1    0    0  501    0  0.00000000000E+00 -0.00000000000E+00 -0.15501785785E+03  0.15501785785E+03  0.00000000000E+00 0.  1.
         25    2    1    2    0    0  0.10130168007E+03 -0.91108017288E+01 -0.22101196966E+02  0.16272847745E+03  0.12508819838E+03 0.  0.
         23    2    1    2    0    0 -0.10130168007E+03  0.91108017288E+01  0.11268540982E+02  0.13647458227E+03  0.90295595116E+02 0.  0.
          5    1    3    3  502    0 -0.18264731107E+02  0.29923377216E+02 -0.28793524521E+01  0.35422760719E+02  0.41800000000E+01 0.  1.
         -5    1    3    3    0  502  0.11956641117E+03 -0.39034178944E+02 -0.19221844514E+02  0.12730571673E+03  0.41800000000E+01 0.  1.
        -11    1    4    4    0    0 -0.11616127390E+03  0.28391433007E+01 -0.10156394865E+01  0.11620040366E+03  0.00000000000E+00 0.  1.
         11    1    4    4    0    0  0.14859593832E+02  0.62716584281E+01  0.12284180469E+02  0.20274178604E+02  0.00000000000E+00 0. -1.
</event>
<event>
 8    1  0.7016814E-009  0.9987413E+02  0.7561462E-02  0.1280561E+00
          2   -1    0    0  501    0  0.00000000000E+00  0.00000000000E+00  0.11204424630E+03  0.11204424630E+03  0.00000000000E+00 0. -1.
         -2   -1    0    0    0  501 -0.00000000000E+00 -0.00000000000E+00 -0.13415647430E+03  0.13415647430E+03  0.00000000000E+00 0.  1.
         25    2    1    2    0    0  0.12379410578E+02 -0.26272996904E+02 -0.65163777747E+02  0.14400413383E+03  0.12508937788E+03 0.  0.
         23    2    1    2    0    0 -0.12379410578E+02  0.26272996904E+02  0.43051549743E+02  0.10219658676E+03  0.88018101763E+02 0.  0.
          5    1    3    3  502    0  0.34946958482E+02  0.39298367005E+02 -0.66489504481E+01  0.53172666836E+02  0.41800000000E+01 0. -1.
         -5    1    3    3    0  502 -0.22567547904E+02 -0.65571363909E+02 -0.58514827299E+02  0.90831466998E+02  0.41800000000E+01 0. -1.
        -11    1    4    4    0    0 -0.34016769443E+02 -0.98492337034E+01 -0.77106358323E+01  0.36243646517E+02  0.00000000000E+00 0.  1.
         11    1    4    4    0    0  0.21637358865E+02  0.36122230607E+02  0.50762185575E+02  0.65952940246E+02  0.00000000000E+00 0. -1.
</event>
<event>
 8    1  0.7016814E-009  0.1015902E+03  0.7561462E-02  0.1276987E+00
         -1   -1    0    0    0  501 -0.00000000000E+00  0.00000000000E+00  0.56060922915E+03  0.56060922915E+03  0.00000000000E+00 0.  1.
          1   -1    0    0  501    0  0.00000000000E+00 -0.00000000000E+00 -0.26471354751E+02  0.26471354751E+02  0.00000000000E+00 0. -1.
         25    2    1    2    0    0  0.42998283268E+02 -0.32480676704E+02  0.28497018751E+03  0.31584499041E+03  0.12508478515E+03 0.  0.
         23    2    1    2    0    0 -0.42998283268E+02  0.32480676704E+02  0.24916768689E+03  0.27123559349E+03  0.92630255656E+02 0.  0.
          5    1    3    3  502    0  0.58638095473E+02 -0.67860237627E+02  0.24074201144E+03  0.25693895494E+03  0.41800000000E+01 0. -1.
         -5    1    3    3    0  502 -0.15639812204E+02  0.35379560923E+02  0.44228176069E+02  0.58906035474E+02  0.41800000000E+01 0. -1.
        -11    1    4    4    0    0 -0.28538715575E+02 -0.95086296593E+01  0.16383796423E+02  0.34253483179E+02  0.00000000000E+00 0. -1.
         11    1    4    4    0    0 -0.14459567693E+02  0.41989306364E+02  0.23278389046E+03  0.23698211031E+03  0.00000000000E+00 0.  1.
</event>
<event>
 8    1  0.7016814E-009  0.1365422E+03  0.7561462E-02  0.1218059E+00
         -2   -1    0    0    0  501 -0.00000000000E+00  0.00000000000E+00  0.18754377665E+03  0.18754377665E+03  0.00000000000E+00 0.  1.
          2   -1    0    0  501    0  0.00000000000E+00 -0.00000000000E+00 -0.10343068756E+03  0.10343068756E+03  0.00000000000E+00 0. -1.
         25    2    1    2    0    0 -0.80837428665E+02  0.33056813860E+02  0.47619950855E+02  0.15982033938E+03  0.12508972118E+03 0.  0.
         23    2    1    2    0    0  0.80837428665E+02 -0.33056813860E+02  0.36493138236E+02  0.13115412483E+03  0.90786631755E+02 0.  0.
          5    1    3    3  502    0  0.25337272013E+02  0.33789952117E+02 -0.21238392992E+01  0.42493779668E+02  0.41800000000E+01 0. -1.
         -5    1    3    3    0  502 -0.10617470068E+03 -0.73313825644E+00  0.49743790155E+02  0.11732655971E+03  0.41800000000E+01 0. -1.
        -11    1    4    4    0    0  0.15160133731E+02  0.29825568190E+02  0.19271545852E+02  0.38610706444E+02  0.00000000000E+00 0. -1.
         11    1    4    4    0    0  0.65677294933E+02 -0.62882382050E+02  0.17221592384E+02  0.92543418385E+02  0.00000000000E+00 0.  1.
</event>
<event>
 8    1  0.7016814E-009  0.1000305E+03  0.7561462E-02  0.1280232E+00
         -2   -1    0    0    0  501 -0.00000000000E+00  0.00000000000E+00  0.14972042720E+02  0.14972042720E+02  0.00000000000E+00 0.  1.
          2   -1    0    0  501    0  0.00000000000E+00 -0.00000000000E+00 -0.91638400429E+03  0.91638400429E+03  0.00000000000E+00 0. -1.
         25    2    1    2    0    0 -0.70983309682E+01 -0.40247304742E+02 -0.60445556977E+03  0.61861465865E+03  0.12508928104E+03 0.  0.
         23    2    1    2    0    0  0.70983309682E+01  0.40247304742E+02 -0.29695639180E+03  0.31274138836E+03  0.89184334499E+02 0.  0.
          5    1    3    3  502    0 -0.59844017780E+02 -0.42713762442E+02 -0.26463070762E+03  0.27468646814E+03  0.41800000000E+01 0. -1.
         -5    1    3    3    0  502  0.52745686811E+02  0.24664577002E+01 -0.33982486215E+03  0.34392819051E+03  0.41800000000E+01 0. -1.
        -11    1    4    4    0    0  0.14107353018E+01  0.56352296437E+02 -0.28798250877E+03  0.29344760494E+03  0.00000000000E+00 0. -1.
         11    1    4    4    0    0  0.56875956663E+01 -0.16104991695E+02 -0.89738830305E+01  0.19293783419E+02  0.00000000000E+00 0.  1.
</event>
<event>
 8    1  0.7016814E-009  0.1517084E+03  0.7561462E-02  0.1198389E+00
         -2   -1    0    0    0  501 -0.00000000000E+00  0.00000000000E+00  0.84094051674E+02  0.84094051674E+02  0.00000000000E+00 0.  1.
          2   -1    0    0  501    0  0.00000000000E+00 -0.00000000000E+00 -0.28524535313E+03  0.28524535313E+03  0.00000000000E+00 0. -1.
         25    2    1    2    0    0 -0.51170859839E+02 -0.96496996469E+02 -0.89681332796E+02  0.18873337139E+03  0.12508963506E+03 0.  0.
         23    2    1    2    0    0  0.51170859839E+02  0.96496996469E+02 -0.11146996866E+03  0.18060603342E+03  0.90900264954E+02 0.  0.
          5    1    3    3  502    0  0.40132933726E+02 -0.47621525624E+02 -0.33457997050E+02  0.70819291431E+02  0.41800000000E+01 0.  1.
         -5    1    3    3    0  502 -0.91303793565E+02 -0.48875470846E+02 -0.56223335746E+02  0.11791407996E+03  0.41800000000E+01 0.  1.
        -11    1    4    4    0    0  0.35268704290E+02  0.11060647159E+03 -0.74445971681E+02  0.13791256563E+03  0.00000000000E+00 0. -1.
         11    1    4    4    0    0  0.15902155549E+02 -0.14109475118E+02 -0.37023996979E+02  0.42693467785E+02  0.00000000000E+00 0.  1.
</event>
<event>
 8    1  0.7016814E-009  0.8179082E+02  0.7561462E-02  0.1324045E+00
         -2   -1    0    0    0  501 -0.00000000000E+00  0.00000000000E+00  0.34547572650E+02  0.34547572650E+02  0.00000000000E+00 0.  1.
          2   -1    0    0  501    0  0.00000000000E+00 -0.00000000000E+00 -0.43088262612E+03  0.43088262612E+03  0.00000000000E+00 0. -1.
         25    2    1    2    0    0 -0.52480977732E+02  0.80254159440E+01 -0.25303647492E+03  0.28721667027E+03  0.12508915908E+03 0.  0.
         23    2    1    2    0    0  0.52480977732E+02 -0.80254159440E+01 -0.14329857855E+03  0.17821352850E+03  0.91689251280E+02 0.  0.
          5    1    3    3  502    0 -0.47680141180E+02 -0.24463143316E+02 -0.24796501348E+03  0.25372418402E+03  0.41800000000E+01 0.  1.
         -5    1    3    3    0  502 -0.48008365524E+01  0.32488559260E+02 -0.50714614349E+01  0.33492486254E+02  0.41800000000E+01 0.  1.
        -11    1    4    4    0    0  0.55618467658E+02  0.11627793670E+02 -0.14732986546E+03  0.15790727908E+03  0.00000000000E+00 0. -1.
         11    1    4    4    0    0 -0.31374899260E+01 -0.19653209614E+02  0.40312869114E+01  0.20306249415E+02  0.00000000000E+00 0.  1.
</event>
<event>
 8    1  0.7016814E-009  0.1050086E+03  0.7561462E-02  0.1270103E+00
         -2   -1    0    0    0  501 -0.00000000000E+00  0.00000000000E+00  0.26254526106E+02  0.26254526106E+02  0.00000000000E+00 0.  1.
          2   -1    0    0  501    0  0.00000000000E+00 -0.00000000000E+00 -0.53644738001E+03  0.53644738001E+03  0.00000000000E+00 0. -1.
         25    2    1    2    0    0 -0.87200601749E+01 -0.41616035242E+02 -0.24728904746E+03  0.28036699903E+03  0.12508336145E+03 0.  0.
         23    2    1    2    0    0  0.87200601749E+01  0.41616035242E+02 -0.26290380644E+03  0.28233490709E+03  0.93737156342E+02 0.  0.
          5    1    3    3  502    0 -0.46140839147E+02 -0.58510371465E+02 -0.21613760003E+03  0.22865995529E+03  0.41800000000E+01 0.  1.
         -5    1    3    3    0  502  0.37420778972E+02  0.16894336223E+02 -0.31151447434E+02  0.51707043741E+02  0.41800000000E+01 0.  1.
        -11    1    4    4    0    0 -0.30447637389E+02 -0.74378915463E+01 -0.14917827130E+03  0.15243535509E+03  0.00000000000E+00 0.  1.
         11    1    4    4    0    0  0.39167697564E+02  0.49053926789E+02 -0.11372553515E+03  0.12989955200E+03  0.00000000000E+00 0. -1.
</event>
<event>
 8    1  0.7016814E-009  0.1133894E+03  0.7561462E-02  0.1254419E+00
          2   -1    0    0  501    0  0.00000000000E+00  0.00000000000E+00  0.88248254533E+03  0.88248254533E+03  0.00000000000E+00 0. -1.
         -2   -1    0    0    0  501 -0.00000000000E+00 -0.00000000000E+00 -0.19493768409E+02  0.19493768409E+02  0.00000000000E+00 0.  1.
         25    2    1    2    0    0  0.47656532159E+01 -0.74025563645E+02  0.48177505937E+03  0.50324763766E+03  0.12509389054E+03 0.  0.
         23    2    1    2    0    0 -0.47656532159E+01  0.74025563645E+02  0.38121371755E+03  0.39872867608E+03  0.90322550668E+02 0.  0.
          5    1    3    3  502    0  0.52663000711E+02 -0.38059958020E+02  0.12002270401E+03  0.13654623366E+03  0.41800000000E+01 0.  1.
         -5    1    3    3    0  502 -0.47897347495E+02 -0.35965605625E+02  0.36175235536E+03  0.36670140400E+03  0.41800000000E+01 0.  1.
        -11    1    4    4    0    0  0.30249672990E+02  0.52297785157E+02  0.31497956768E+03  0.32072141978E+03  0.00000000000E+00 0. -1.
         11    1    4    4    0    0 -0.35015326206E+02  0.21727778488E+02  0.66234149870E+02  0.78007256305E+02  0.00000000000E+00 0.  1.
</event>
<event>
 8    1  0.7016814E-009  0.1100462E+03  0.7561462E-02  0.1260484E+00
          2   -1    0    0  501    0  0.00000000000E+00  0.00000000000E+00  0.18521373535E+03  0.18521373535E+03  0.00000000000E+00 0. -1.
         -2   -1    0    0    0  501 -0.00000000000E+00 -0.00000000000E+00 -0.79581502648E+02  0.79581502648E+02  0.00000000000E+00 0.  1.
         25    2    1    2    0    0 -0.11402038153E+02  0.38604953972E+02  0.10395486345E+03  0.16754595769E+03  0.12507871665E+03 0.  0.
         23    2    1    2    0    0  0.11402038153E+02 -0.38604953972E+02  0.16773692458E+01  0.97249280302E+02  0.88511355240E+02 0.  0.
          5    1    3    3  502    0  0.38605363014E+02  0.62576035979E+02  0.73903261546E+02  0.10433263535E+03  0.41800000000E+01 0. -1.
         -5    1    3    3    0  502 -0.50007401167E+02 -0.23971082007E+02  0.30051601907E+02  0.63213322340E+02  0.41800000000E+01 0. -1.
        -11    1    4    4    0    0  0.18704697062E+01  0.25729479480E+02 -0.15352319447E+02  0.30019968082E+02  0.00000000000E+00 0.  1.
         11    1    4    4    0    0  0.95315684466E+01 -0.64334433452E+02  0.17029688693E+02  0.67229312220E+02  0.00000000000E+00 0. -1.
</event>
<event>
 8    1  0.7016814E-009  0.2691201E+03  0.7561462E-02  0.1101784E+00
          2   -1    0    0  501    0  0.00000000000E+00  0.00000000000E+00  0.48422876365E+02  0.48422876365E+02  0.00000000000E+00 0.  1.
         -2   -1    0    0    0  501 -0.00000000000E+00 -0.00000000000E+00 -0.15984361273E+04  0.15984361273E+04  0.00000000000E+00 0. -1.
         25    2    1    2    0    0 -0.24586359567E+03 -0.66675694723E+02 -0.84193750170E+03  0.88848310214E+03  0.12509560373E+03 0.  0.
         23    2    1    2    0    0  0.24586359567E+03  0.66675694723E+02 -0.70807574925E+03  0.75837590154E+03  0.94171043422E+02 0.  0.
          5    1    3    3  502    0 -0.19310119389E+02 -0.31898755368E+02 -0.41880673078E+02  0.56230547590E+02  0.41800000000E+01 0.  1.
         -5    1    3    3    0  502 -0.22655347628E+03 -0.34776939355E+02 -0.80005682862E+03  0.83225255455E+03  0.41800000000E+01 0.  1.
        -11    1    4    4    0    0  0.10832688689E+03  0.77976326505E+02 -0.33687626086E+03  0.36235429768E+03  0.00000000000E+00 0.  1.
         11    1    4    4    0    0  0.13753670879E+03 -0.11300631782E+02 -0.37119948839E+03  0.39602160386E+03  0.00000000000E+00 0. -1.
</event>
<event>
 8    1  0.7016814E-009  0.7962206E+02  0.7561462E-02  0.1330127E+00
         -2   -1    0    0    0  501 -0.00000000000E+00  0.00000000000E+00  0.79280416495E+02  0.79280416495E+02  0.00000000000E+00 0.  1.
          2   -1    0    0  501    0  0.00000000000E+00 -0.00000000000E+00 -0.21482945338E+03  0.21482945338E+03  0.00000000000E+00 0. -1.
         25    2    1    2    0    0  0.13876160217E+02 -0.66956840842E+02 -0.10040599243E+03  0.17436898940E+03  0.12508962703E+03 0.  0.
         23    2    1    2    0    0 -0.13876160217E+02  0.66956840842E+02 -0.35143044461E+02  0.11974088048E+03  0.91799120507E+02 0.  0.
          5    1    3    3  502    0  0.30327001513E+02 -0.61436431157E+02  0.37029048866E+01  0.68741152149E+02  0.41800000000E+01 0. -1.
         -5    1    3    3    0  502 -0.16450841296E+02 -0.55204096846E+01 -0.10410889731E+03  0.10562783725E+03  0.41800000000E+01 0. -1.
        -11    1    4    4    0    0 -0.20978555238E+02  0.54746156185E+02 -0.64499103976E+02  0.87162926813E+02  0.00000000000E+00 0. -1.
         11    1    4    4    0    0  0.71023950211E+01  0.12210684657E+02  0.29356059515E+02  0.32577953666E+02  0.00000000000E+00 0.  1.
</event>
<event>
 8    1  0.7016814E-009  0.9496991E+02  0.7561462E-02  0.1291244E+00
         -2   -1    0    0    0  501 -0.00000000000E+00  0.00000000000E+00  0.88554295954E+02  0.88554295954E+02  0.00000000000E+00 0.  1.
          2   -1    0    0  501    0  0.00000000000E+00 -0.00000000000E+00 -0.17679735033E+03  0.17679735033E+03  0.00000000000E+00 0. -1.
         25    2    1    2    0    0 -0.54236740320E+02 -0.12525792463E+02 -0.19841111900E+02  0.13835166201E+03  0.12509593592E+03 0.  0.
         23    2    1    2    0    0  0.54236740320E+02  0.12525792463E+02 -0.68401942471E+02  0.12699998427E+03  0.91387366700E+02 0.  0.
          5    1    3    3  502    0  0.13576524352E+02 -0.31798959216E+02  0.34666857723E+02  0.49140199888E+02  0.41800000000E+01 0.  1.
         -5    1    3    3    0  502 -0.67813264672E+02  0.19273166753E+02 -0.54507969622E+02  0.89211462125E+02  0.41800000000E+01 0.  1.
        -11    1    4    4    0    0  0.37809071497E+02 -0.23762252361E+02 -0.74345078766E+02  0.86725781988E+02  0.00000000000E+00 0. -1.
         11    1    4    4    0    0  0.16427668823E+02  0.36288044824E+02  0.59431362949E+01  0.40274202278E+02  0.00000000000E+00 0.  1.
</event>
<event>
 8    1  0.7016814E-009  0.9232521E+02  0.7561462E-02  0.1297317E+00
         -1   -1    0    0    0  501 -0.00000000000E+00  0.00000000000E+00  0.67042136467E+03  0.67042136467E+03  0.00000000000E+00 0.  1.
          1   -1    0    0  501    0  0.00000000000E+00 -0.00000000000E+00 -0.37026129483E+02  0.37026129483E+02  0.00000000000E+00 0. -1.
         25    2    1    2    0    0 -0.71621669664E+01 -0.66090786551E+02  0.55142711577E+03  0.56933153930E+03  0.12508896407E+03 0.  0.
         23    2    1    2    0    0  0.71621669664E+01  0.66090786551E+02  0.81968119419E+02  0.13811595486E+03  0.89095205719E+02 0.  0.
          5    1    3    3  502    0 -0.20087577254E+02 -0.83413146864E+02  0.53503104701E+03  0.54188278944E+03  0.41800000000E+01 0.  1.
         -5    1    3    3    0  502  0.12925410288E+02  0.17322360312E+02  0.16396068759E+02  0.27448749856E+02  0.41800000000E+01 0.  1.
        -11    1    4    4    0    0  0.19240578223E+02  0.15450195832E+02 -0.14410073361E+02  0.28575489774E+02  0.00000000000E+00 0. -1.
         11    1    4    4    0    0 -0.12078411256E+02  0.50640590719E+02  0.96378192780E+02  0.10954046508E+03  0.00000000000E+00 0.  1.
</event>
<event>
 8    1  0.7016814E-009  0.1187645E+03  0.7561462E-02  0.1245149E+00
         -4   -1    0    0    0  501 -0.00000000000E+00  0.00000000000E+00  0.21243280252E+03  0.21243280252E+03  0.00000000000E+00 0.  1.
          4   -1    0    0  501    0  0.00000000000E+00 -0.00000000000E+00 -0.94122027845E+02  0.94122027845E+02  0.00000000000E+00 0. -1.
         25    2    1    2    0    0 -0.41766168705E+02  0.62741968833E+02  0.11915840238E+03  0.18848356442E+03  0.12508541761E+03 0.  0.
         23    2    1    2    0    0  0.41766168705E+02 -0.62741968833E+02 -0.84762770644E+00  0.11807126594E+03  0.90879799001E+02 0.  0.
          5    1    3    3  502    0 -0.71396835100E+02  0.48353054684E+02  0.26888446814E+02  0.90421164180E+02  0.41800000000E+01 0. -1.
         -5    1    3    3    0  502  0.29630666396E+02  0.14388914149E+02  0.92269955564E+02  0.98062400242E+02  0.41800000000E+01 0. -1.
        -11    1    4    4    0    0 -0.28707189981E+02 -0.11803099587E+02  0.16143925562E+01  0.31080897345E+02  0.00000000000E+00 0. -1.
         11    1    4    4    0    0  0.70473358685E+02 -0.50938869246E+02 -0.24620202627E+01  0.86990368594E+02  0.00000000000E+00 0.  1.
</event>
<event>
 8    1  0.7016814E-009  0.1644854E+03  0.7561462E-02  0.1183724E+00
         -2   -1    0    0    0  501 -0.00000000000E+00  0.00000000000E+00  0.21324098133E+02  0.21324098133E+02  0.00000000000E+00 0. -1.
          2   -1    0    0  501    0  0.00000000000E+00 -0.00000000000E+00 -0.20485232528E+04  0.20485232528E+04  0.00000000000E+00 0.  1.
         25    2    1    2    0    0  0.12940119402E+03 -0.90540040359E+02 -0.14670353999E+04  0.14808043836E+04  0.12508633078E+03 0.  0.
         23    2    1    2    0    0 -0.12940119402E+03  0.90540040359E+02 -0.56016375476E+03  0.58904296727E+03  0.90807583558E+02 0.  0.
          5    1    3    3  502    0  0.24960942377E+02  0.26304075101E+01 -0.43470806505E+02  0.50370141019E+02  0.41800000000E+01 0.  1.
         -5    1    3    3    0  502  0.10444025164E+03 -0.93170447869E+02 -0.14235645934E+04  0.14304342426E+04  0.41800000000E+01 0.  1.
        -11    1    4    4    0    0 -0.12015752772E+03  0.65581933423E+02 -0.53562942191E+03  0.55284509500E+03  0.00000000000E+00 0.  1.
         11    1    4    4    0    0 -0.92436662956E+01  0.24958106937E+02 -0.24534332851E+02  0.36197872270E+02  0.00000000000E+00 0. -1.
</event>
<event>
 8    1  0.7016814E-009  0.2551639E+03  0.7561462E-02  0.1110084E+00
          2   -1    0    0  501    0  0.00000000000E+00  0.00000000000E+00  0.12602832385E+04  0.12602832385E+04  0.00000000000E+00 0. -1.
         -2   -1    0    0    0  501 -0.00000000000E+00 -0.00000000000E+00 -0.61612232769E+02  0.61612232769E+02  0.00000000000E+00 0.  1.
         25    2    1    2    0    0  0.24585852488E+03 -0.43798356741E+02  0.47418637842E+03  0.55033172375E+03  0.12509026490E+03 0.  0.
         23    2    1    2    0    0 -0.24585852488E+03  0.43798356741E+02  0.72448462731E+03  0.77156374753E+03  0.89821662070E+02 0.  0.
          5    1    3    3  502    0  0.52070222505E+02 -0.41321237367E+02  0.22483899490E+03  0.23449690565E+03  0.41800000000E+01 0.  1.
         -5    1    3    3    0  502  0.19378830237E+03 -0.24771193746E+01  0.24934738352E+03  0.31583481810E+03  0.41800000000E+01 0.  1.
        -11    1    4    4    0    0 -0.48033600971E+02  0.11992550017E+02  0.61430575746E+02  0.78897171779E+02  0.00000000000E+00 0.  1.
         11    1    4    4    0    0 -0.19782492390E+03  0.31805806724E+02  0.66305405157E+03  0.69266657575E+03  0.00000000000E+00 0. -1.
</event>
<event>
 8    1  0.7016814E-009  0.1106869E+03  0.7561462E-02  0.1259303E+00
          2   -1    0    0  501    0  0.00000000000E+00  0.00000000000E+00  0.89458632950E+03  0.89458632950E+03  0.00000000000E+00 0. -1.
         -2   -1    0    0    0  501 -0.00000000000E+00 -0.00000000000E+00 -0.20572445204E+02  0.20572445204E+02  0.00000000000E+00 0.  1.
         25    2    1    2    0    0 -0.25826344793E+01  0.64180963047E+02  0.60619662278E+03  0.62229177817E+03  0.12508735226E+03 0.  0.
         23    2    1    2    0    0  0.25826344793E+01 -0.64180963047E+02  0.26781726152E+03  0.29286699653E+03  0.99594809463E+02 0.  0.
          5    1    3    3  502    0 -0.39024567767E+02  0.15806015283E+02  0.48399439051E+03  0.48584029213E+03  0.41800000000E+01 0. -1.
         -5    1    3    3    0  502  0.36441933288E+02  0.48374947764E+02  0.12220223227E+03  0.13645148604E+03  0.41800000000E+01 0. -1.
        -11    1    4    4    0    0  0.16267979863E+02 -0.88750770016E+02  0.19754970158E+03  0.21718018082E+03  0.00000000000E+00 0. -1.
         11    1    4    4    0    0 -0.13685345384E+02  0.24569806968E+02  0.70267559944E+02  0.75686815716E+02  0.00000000000E+00 0.  1.
</event>
<event>
 8    1  0.7016814E-009  0.8914310E+02  0.7561462E-02  0.1304940E+00
         -1   -1    0    0    0  501 -0.00000000000E+00  0.00000000000E+00  0.43799236204E+02  0.43799236204E+02  0.00000000000E+00 0. -1.
          1   -1    0    0  501    0  0.00000000000E+00 -0.00000000000E+00 -0.34985151495E+03  0.34985151495E+03  0.00000000000E+00 0.  1.
         25    2    1    2    0    0  0.39718715636E+02  0.42904325389E+02 -0.16247561796E+03  0.21322454305E+03  0.12509205339E+03 0.  0.
         23    2    1    2    0    0 -0.39718715636E+02 -0.42904325389E+02 -0.14357666079E+03  0.18042620810E+03  0.92309271132E+02 0.  0.
          5    1    3    3  502    0 -0.14415400288E+02  0.60651949140E+02 -0.30732384276E+02  0.69630557539E+02  0.41800000000E+01 0. -1.
         -5    1    3    3    0  502  0.54134115924E+02 -0.17747623751E+02 -0.13174323368E+03  0.14359398551E+03  0.41800000000E+01 0. -1.
        -11    1    4    4    0    0 -0.30224691864E+02 -0.29320274008E+02 -0.15479038968E+03  0.16041594436E+03  0.00000000000E+00 0.  1.
         11    1    4    4    0    0 -0.94940237720E+01 -0.13584051380E+02  0.11213728894E+02  0.20010263741E+02  0.00000000000E+00 0. -1.
</event>
<event>
 8    1  0.7016814E-009  0.8923894E+02  0.7561462E-02  0.1304705E+00
         -1   -1    0    0    0  501 -0.00000000000E+00  0.00000000000E+00  0.17438437708E+02  0.17438437708E+02  0.00000000000E+00 0.  1.
          1   -1    0    0  501    0  0.00000000000E+00 -0.00000000000E+00 -0.95884445983E+03  0.95884445983E+03  0.00000000000E+00 0. -1.
         25    2    1    2    0    0 -0.54306542149E+01 -0.51840138043E+02 -0.69588175373E+03  0.70895412336E+03  0.12509053499E+03 0.  0.
         23    2    1    2    0    0  0.54306542149E+01  0.51840138043E+02 -0.24552426840E+03  0.26732877418E+03  0.92008777918E+02 0.  0.
          5    1    3    3  502    0 -0.42403722610E+01 -0.64233977588E+02 -0.15467751703E+03  0.16759054659E+03  0.41800000000E+01 0. -1.
         -5    1    3    3    0  502 -0.11902819539E+01  0.12393839544E+02 -0.54120423670E+03  0.54136357677E+03  0.41800000000E+01 0. -1.
        -11    1    4    4    0    0  0.40776800209E+02  0.51238021659E+02 -0.11751972963E+03  0.13453240930E+03  0.00000000000E+00 0.  1.
         11    1    4    4    0    0 -0.35346145994E+02  0.60211638441E+00 -0.12800453877E+03  0.13279636488E+03  0.00000000000E+00 0. -1.
</event>
<event>
 8    1  0.7016814E-009  0.8625907E+02  0.7561462E-02  0.1312172E+00
          2   -1    0    0  501    0  0.00000000000E+00  0.00000000000E+00  0.13683933632E+03  0.13683933632E+03  0.00000000000E+00 0. -1.
         -2   -1    0    0    0  501 -0.00000000000E+00 -0.00000000000E+00 -0.11463317015E+03  0.11463317015E+03  0.00000000000E+00 0.  1.
         25    2    1    2    0    0 -0.51167132027E+02 -0.31957075271E+02  0.31569120056E+02  0.14242333034E+03  0.12509382728E+03 0.  0.
         23    2    1    2    0    0  0.51167132027E+02  0.31957075271E+02 -0.93629538859E+01  0.10904917612E+03  0.90358883614E+02 0.  0.
          5    1    3    3  502    0 -0.51409859786E+02 -0.62408973728E+02 -0.19074253065E+02  0.83181447541E+02  0.41800000000E+01 0.  1.
         -5    1    3    3    0  502  0.24272775895E+00  0.30451898458E+02  0.50643373122E+02  0.59241882799E+02  0.41800000000E+01 0.  1.
        -11    1    4    4    0    0  0.97321853250E+01  0.98676477083E+01 -0.46918370180E+02  0.48922585406E+02  0.00000000000E+00 0.  1.
         11    1    4    4    0    0  0.41434946702E+02  0.22089427562E+02  0.37555416294E+02  0.60126590717E+02  0.00000000000E+00 0. -1.
</event>
<event>
 8    1  0.7016814E-009  0.6523915E+02  0.7561462E-02  0.1377074E+00
          2   -1    0    0  501    0  0.00000000000E+00  0.00000000000E+00  0.28979251074E+02  0.28979251074E+02  0.00000000000E+00 0. -1.
         -2   -1    0    0    0  501 -0.00000000000E+00 -0.00000000000E+00 -0.55949303472E+03  0.55949303472E+03  0.00000000000E+00 0.  1.
         25    2    1    2    0    0  0.12360320684E+02  0.10411671405E+02 -0.44612171637E+03  0.46360866611E+03  0.12508888460E+03 0.  0.
         23    2    1    2    0    0 -0.12360320684E+02 -0.10411671405E+02 -0.84392067277E+02  0.12486361968E+03  0.90596479356E+02 0.  0.
          5    1    3    3  502    0  0.29284640584E+02 -0.19902167423E+02 -0.31681140847E+02  0.47695424598E+02  0.41800000000E+01 0.  1.
         -5    1    3    3    0  502 -0.16924319900E+02  0.30313838828E+02 -0.41444057552E+03  0.41591324151E+03  0.41800000000E+01 0.  1.
        -11    1    4    4    0    0 -0.30233054886E+02  0.10812944866E+02  0.38717154979E+01  0.32341112617E+02  0.00000000000E+00 0. -1.
         11    1    4    4    0    0  0.17872734202E+02 -0.21224616271E+02 -0.88263782775E+02  0.92522507064E+02  0.00000000000E+00 0.  1.
</event>
<event>
 8    1  0.7016814E-009  0.5645292E+02  0.7561462E-02  0.1413350E+00
         -1   -1    0    0    0  501 -0.00000000000E+00  0.00000000000E+00  0.53497015152E+02  0.53497015152E+02  0.00000000000E+00 0.  1.
          1   -1    0    0  501    0  0.00000000000E+00 -0.00000000000E+00 -0.25233576037E+03  0.25233576037E+03  0.00000000000E+00 0. -1.
         25    2    1    2    0    0 -0.19043500614E+01  0.38652630625E+02 -0.13487446722E+03  0.18797511547E+03  0.12508345104E+03 0.  0.
         23    2    1    2    0    0  0.19043500614E+01 -0.38652630625E+02 -0.63964277998E+02  0.11785766006E+03  0.91111726855E+02 0.  0.
          5    1    3    3  502    0 -0.37186566619E+01  0.16038443950E+02  0.22906105245E+02  0.28517050149E+02  0.41800000000E+01 0.  1.
         -5    1    3    3    0  502  0.18143066005E+01  0.22614186675E+02 -0.15778057247E+03  0.15945806532E+03  0.41800000000E+01 0.  1.
        -11    1    4    4    0    0 -0.28649706371E+02 -0.29104566571E+02 -0.73819723396E+02  0.84363694992E+02  0.00000000000E+00 0. -1.
         11    1    4    4    0    0  0.30554056433E+02 -0.95480640541E+01  0.98554453983E+01  0.33493965063E+02  0.00000000000E+00 0.  1.
</event>
<event>
 8    1  0.7016814E-009  0.8782396E+02  0.7561462E-02  0.1308209E+00
         -1   -1    0    0    0  501 -0.00000000000E+00  0.00000000000E+00  0.17251755521E+02  0.17251755521E+02  0.00000000000E+00 0.  1.
          1   -1    0    0  501    0  0.00000000000E+00 -0.00000000000E+00 -0.99658967911E+03  0.99658967911E+03  0.00000000000E+00 0. -1.
         25    2    1    2    0    0 -0.32066994661E+02 -0.11544248823E+02 -0.79805184364E+03  0.80851430408E+03  0.12508826056E+03 0.  0.
         23    2    1    2    0    0  0.32066994661E+02  0.11544248823E+02 -0.18128607995E+03  0.20532713056E+03  0.90183290756E+02 0.  0.
          5    1    3    3  502    0 -0.29060164577E+02  0.29872658345E+02 -0.70825432893E+03  0.70949174466E+03  0.41800000000E+01 0. -1.
         -5    1    3    3    0  502 -0.30068300839E+01 -0.41416907168E+02 -0.89797514710E+02  0.99022559423E+02  0.41800000000E+01 0. -1.
        -11    1    4    4    0    0 -0.17421919799E+02  0.33598365910E+02 -0.10613833150E+03  0.11268415548E+03  0.00000000000E+00 0. -1.
         11    1    4    4    0    0  0.49488914460E+02 -0.22054117087E+02 -0.75147748445E+02  0.92642975078E+02  0.00000000000E+00 0.  1.
</event>
<event>
 8    1  0.7016814E-009  0.7099525E+02  0.7561462E-02  0.1356741E+00
          2   -1    0    0  501    0  0.00000000000E+00  0.00000000000E+00  0.47951785464E+03  0.47951785464E+03  0.00000000000E+00 0. -1.
         -2   -1    0    0    0  501 -0.00000000000E+00 -0.00000000000E+00 -0.46410733602E+02  0.46410733602E+02  0.00000000000E+00 0.  1.
         25    2    1    2    0    0 -0.22753129564E+02  0.27215917383E+02  0.40363118756E+03  0.42405161851E+03  0.12507289286E+03 0.  0.
         23    2    1    2    0    0  0.22753129564E+02 -0.27215917383E+02  0.29475933471E+02  0.10187696972E+03  0.90838732058E+02 0.  0.
          5    1    3    3  502    0 -0.47608914985E+02  0.11978570152E+02  0.53681617876E+02  0.72864829834E+02  0.41800000000E+01 0.  1.
         -5    1    3    3    0  502  0.24855785421E+02  0.15237347232E+02  0.34994956969E+03  0.35118678868E+03  0.41800000000E+01 0.  1.
        -11    1    4    4    0    0  0.37288040700E+02 -0.30723977855E+02 -0.18415386787E+02  0.51705775935E+02  0.00000000000E+00 0.  1.
         11    1    4    4    0    0 -0.14534911136E+02  0.35080604715E+01  0.47891320258E+02  0.50171193788E+02  0.00000000000E+00 0. -1.
</event>
<event>
 8    1  0.7016814E-009  0.1020016E+03  0.7561462E-02  0.1276142E+00
          2   -1    0    0  501    0  0.00000000000E+00  0.00000000000E+00  0.10651894695E+04  0.10651894695E+04  0.00000000000E+00 0.  1.
         -2   -1    0    0    0  501 -0.00000000000E+00 -0.00000000000E+00 -0.14193093599E+02  0.14193093599E+02  0.00000000000E+00 0. -1.
         25    2    1    2    0    0 -0.35861720176E+02 -0.38931825333E+02  0.55178592370E+03  0.56825831390E+03  0.12509218892E+03 0.  0.
         23    2    1    2    0    0  0.35861720176E+02  0.38931825333E+02  0.49921045220E+03  0.51112424919E+03  0.96099805054E+02 0.  0.
          5    1    3    3  502    0  0.18438620057E+02 -0.41821340359E+02  0.72010835629E+02  0.85393442764E+02  0.41800000000E+01 0. -1.
         -5    1    3    3    0  502 -0.54300340233E+02  0.28895150266E+01  0.47977508807E+03  0.48286487114E+03  0.41800000000E+01 0. -1.
        -11    1    4    4    0    0  0.63977908623E+02  0.39964251901E+02  0.42726944470E+03  0.43387727827E+03  0.00000000000E+00 0. -1.
         11    1    4    4    0    0 -0.28116188447E+02 -0.10324265683E+01  0.71941007494E+02  0.77246970922E+02  0.00000000000E+00 0.  1.
</event>
<event>
 8    1  0.7016814E-009  0.3854275E+03  0.7561462E-02  0.1048946E+00
          1   -1    0    0  501    0  0.00000000000E+00  0.00000000000E+00  0.57219732709E+03  0.57219732709E+03  0.00000000000E+00 0. -1.
         -1   -1    0    0    0  501 -0.00000000000E+00 -0.00000000000E+00 -0.29631674755E+03  0.29631674755E+03  0.00000000000E+00 0.  1.
         25    2    1    2    0    0 -0.17364124696E+03  0.33145346826E+03  0.27863339457E+03  0.48301194021E+03  0.12510508202E+03 0.  0.
         23    2    1    2    0    0  0.17364124696E+03 -0.33145346826E+03 -0.27528150333E+01  0.38550213442E+03  0.92691064203E+02 0.  0.
          5    1    3    3  502    0 -0.13775143150E+02 -0.91154535344E+01  0.20848631571E+02  0.26925525071E+02  0.41800000000E+01 0. -1.
         -5    1    3    3    0  502 -0.15986610381E+03  0.34056892180E+03  0.25778476300E+03  0.45608641514E+03  0.41800000000E+01 0. -1.
        -11    1    4    4    0    0  0.90296525678E+02 -0.11920654944E+03 -0.39166193977E+02  0.15458866300E+03  0.00000000000E+00 0.  1.
         11    1    4    4    0    0  0.83344721285E+02 -0.21224691882E+03  0.36413378944E+02  0.23091347142E+03  0.00000000000E+00 0. -1.
</event>
<event>
 8    1  0.7016814E-009  0.2483952E+03  0.7561462E-02  0.1114323E+00
         -1   -1    0    0    0  501 -0.00000000000E+00  0.00000000000E+00  0.21621489083E+03  0.21621489083E+03  0.00000000000E+00 0.  1.
          1   -1    0    0  501    0  0.00000000000E+00 -0.00000000000E+00 -0.31786920825E+03  0.31786920825E+03  0.00000000000E+00 0. -1.
         25    2    1    2    0    0 -0.12422704062E+03 -0.20098514013E+03 -0.83493769341E+02  0.28008225251E+03  0.12508986561E+03 0.  0.
         23    2    1    2    0    0  0.12422704062E+03  0.20098514013E+03 -0.18160548081E+02  0.25400184657E+03  0.91431659610E+02 0.  0.
          5    1    3    3  502    0  0.73207017979E+01 -0.60121825040E+02 -0.60882817185E+02  0.85979162298E+02  0.41800000000E+01 0.  1.
         -5    1    3    3    0  502 -0.13154774242E+03 -0.14086331509E+03 -0.22610952156E+02  0.19410309021E+03  0.41800000000E+01 0.  1.
        -11    1    4    4    0    0  0.89080240233E+02  0.88976000127E+02  0.26027474455E+02  0.12856689786E+03  0.00000000000E+00 0.  1.
         11    1    4    4    0    0  0.35146800384E+02  0.11200914001E+03 -0.44188022536E+02  0.12543494871E+03  0.00000000000E+00 0. -1.
</event>
<event>
 8    1  0.7016814E-009  0.9847959E+02  0.7561462E-02  0.1283526E+00
         -1   -1    0    0    0  501 -0.00000000000E+00  0.00000000000E+00  0.31289949522E+03  0.31289949522E+03  0.00000000000E+00 0.  1.
          1   -1    0    0  501    0  0.00000000000E+00 -0.00000000000E+00 -0.59323446536E+02  0.59323446536E+02  0.00000000000E+00 0. -1.
         25    2    1    2    0    0  0.39772636722E+02 -0.49655913210E+02  0.20728333738E+03  0.25032420407E+03  0.12509297679E+03 0.  0.
         23    2    1    2    0    0 -0.39772636722E+02  0.49655913210E+02  0.46292711299E+02  0.12189873768E+03  0.93105933107E+02 0.  0.
          5    1    3    3  502    0 -0.25189852505E+02  0.18028043571E+02  0.11719546764E+02  0.33382019121E+02  0.41800000000E+01 0. -1.
         -5    1    3    3    0  502  0.64962489228E+02 -0.67683956780E+02  0.19556379062E+03  0.21694218495E+03  0.41800000000E+01 0. -1.
        -11    1    4    4    0    0  0.34364838151E+00  0.24372502109E+02  0.66143853088E+02  0.70492171583E+02  0.00000000000E+00 0.  1.
         11    1    4    4    0    0 -0.40116285104E+02  0.25283411100E+02 -0.19851141788E+02  0.51406566095E+02  0.00000000000E+00 0. -1.
</event>
<event>
 8    1  0.7016814E-009  0.1221578E+03  0.7561462E-02  0.1239579E+00
         -1   -1    0    0    0  501 -0.00000000000E+00  0.00000000000E+00  0.25783038611E+02  0.25783038611E+02  0.00000000000E+00 0.  1.
          1   -1    0    0  501    0  0.00000000000E+00 -0.00000000000E+00 -0.10261817059E+04  0.10261817059E+04  0.00000000000E+00 0. -1.
         25    2    1    2    0    0 -0.93936050462E+02 -0.17222907856E+00 -0.75810215384E+03  0.77407467311E+03  0.12509481463E+03 0.  0.
         23    2    1    2    0    0  0.93936050462E+02  0.17222907856E+00 -0.24229651341E+03  0.27789007137E+03  0.98444299550E+02 0.  0.
          5    1    3    3  502    0 -0.47082834744E+02  0.55519835246E+02 -0.23890060539E+03  0.24978033768E+03  0.41800000000E+01 0. -1.
         -5    1    3    3    0  502 -0.46853215719E+02 -0.55692064324E+02 -0.51920154845E+03  0.52429433543E+03  0.41800000000E+01 0. -1.
        -11    1    4    4    0    0  0.37667387177E+02 -0.14481147987E+02 -0.14645024355E+02  0.42930320778E+02  0.00000000000E+00 0.  1.
         11    1    4    4    0    0  0.56268663285E+02  0.14653377066E+02 -0.22765148906E+03  0.23495975059E+03  0.00000000000E+00 0. -1.
</event>
<event>
 8    1  0.7016814E-009  0.9883902E+02  0.7561462E-02  0.1282756E+00
          2   -1    0    0  501    0  0.00000000000E+00  0.00000000000E+00  0.10919830744E+03  0.10919830744E+03  0.00000000000E+00 0. -1.
         -2   -1    0    0    0  501 -0.00000000000E+00 -0.00000000000E+00 -0.17494385432E+03  0.17494385432E+03  0.00000000000E+00 0.  1.
         25    2    1    2    0    0 -0.32197316097E+01 -0.79506553945E+02 -0.63521143796E+02  0.16128722281E+03  0.12508786409E+03 0.  0.
         23    2    1    2    0    0  0.32197316097E+01  0.79506553945E+02 -0.22244030850E+01  0.12285493895E+03  0.93577397185E+02 0.  0.
          5    1    3    3  502    0  0.26884907863E+02  0.47872398190E+01 -0.66103708455E+02  0.71644180555E+02  0.41800000000E+01 0. -1.
         -5    1    3    3    0  502 -0.30104639473E+02 -0.84293793764E+02  0.25825646599E+01  0.89643042258E+02  0.41800000000E+01 0. -1.
        -11    1    4    4    0    0 -0.43022212198E+01  0.39948912992E+02 -0.47532572685E+02  0.62239619397E+02  0.00000000000E+00 0.  1.
         11    1    4    4    0    0  0.75219528295E+01  0.39557640954E+02  0.45308169600E+02  0.60615319555E+02  0.00000000000E+00 0. -1.
</event>
<event>
 8    1  0.7016814E-009  0.1501403E+03  0.7561462E-02  0.1200301E+00
          1   -1    0    0  501    0  0.00000000000E+00  0.00000000000E+00  0.94574976464E+03  0.94574976464E+03  0.00000000000E+00 0. -1.
         -1   -1    0    0    0  501 -0.00000000000E+00 -0.00000000000E+00 -0.32736071823E+02  0.32736071823E+02  0.00000000000E+00 0.  1.
         25    2    1    2    0    0 -0.63954131569E+02 -0.11891210194E+03  0.56762196463E+03  0.59671874063E+03  0.12509333216E+03 0.  0.
         23    2    1    2    0    0  0.63954131569E+02  0.11891210194E+03  0.34539172819E+03  0.38176709584E+03  0.90666700788E+02 0.  0.
          5    1    3    3  502    0 -0.66594699739E+01 -0.37522186287E+02  0.39922015603E+03  0.40105668974E+03  0.41800000000E+01 0.  1.
         -5    1    3    3    0  502 -0.57294661595E+02 -0.81389915652E+02  0.16840180860E+03  0.19566205089E+03  0.41800000000E+01 0.  1.
        -11    1    4    4    0    0  0.85544202429E+02  0.76635045661E+02  0.23330038926E+03  0.26003809802E+03  0.00000000000E+00 0.  1.
         11    1    4    4    0    0 -0.21590070860E+02  0.42277056278E+02  0.11209133893E+03  0.12172899782E+03  0.00000000000E+00 0. -1.
</event>
<event>
 8    1  0.7016814E-009  0.1498203E+03  0.7561462E-02  0.1200694E+00
         -1   -1    0    0    0  501 -0.00000000000E+00  0.00000000000E+00  0.65840115349E+03  0.65840115349E+03  0.00000000000E+00 0.  1.
          1   -1    0    0  501    0  0.00000000000E+00 -0.00000000000E+00 -0.38545924451E+02  0.38545924451E+02  0.00000000000E+00 0. -1.
         25    2    1    2    0    0  0.87485133775E+02 -0.72693228159E+02  0.27826792866E+03  0.32560366894E+03  0.12508698994E+03 0.  0.
         23    2    1    2    0    0 -0.87485133775E+02  0.72693228159E+02  0.34158730038E+03  0.37134340901E+03  0.90973015669E+02 0.  0.
          5    1    3    3  502    0  0.10924645006E+03 -0.39882214095E+02  0.25341106562E+03  0.27885483397E+03  0.41800000000E+01 0. -1.
         -5    1    3    3    0  502 -0.21761316282E+02 -0.32811014064E+02  0.24856863038E+02  0.46748834962E+02  0.41800000000E+01 0. -1.
        -11    1    4    4    0    0 -0.92271873482E+02  0.88078464503E+02  0.31933355625E+03  0.34386892080E+03  0.00000000000E+00 0.  1.
         11    1    4    4    0    0  0.47867397074E+01 -0.15385236344E+02  0.22253744131E+02  0.27474488207E+02  0.00000000000E+00 0. -1.
</event>
<event>
 8    1  0.7016814E-009  0.8071944E+02  0.7561462E-02  0.1327022E+00
          1   -1    0    0  501    0  0.00000000000E+00  0.00000000000E+00  0.34591508715E+03  0.34591508715E+03  0.00000000000E+00 0. -1.
         -1   -1    0    0    0  501 -0.00000000000E+00 -0.00000000000E+00 -0.40771733207E+02  0.40771733207E+02  0.00000000000E+00 0.  1.
         25    2    1    2    0    0 -0.35460855726E+02 -0.20619290415E+02  0.22500247921E+03  0.26068395228E+03  0.12508948756E+03 0.  0.
         23    2    1    2    0    0  0.35460855726E+02  0.20619290415E+02  0.80140874727E+02  0.12600286808E+03  0.88156313076E+02 0.  0.
          5    1    3    3  502    0  0.24892343326E+02  0.20467370496E+00 -0.15313754188E+01  0.25288103097E+02  0.41800000000E+01 0.  1.
         -5    1    3    3    0  502 -0.60353199052E+02 -0.20823964120E+02  0.22653385463E+03  0.23539584918E+03  0.41800000000E+01 0.  1.
        -11    1    4    4    0    0  0.34530297877E+02 -0.14234784395E+02 -0.13422958434E+01  0.37373417242E+02  0.00000000000E+00 0.  1.
         11    1    4    4    0    0  0.93055784941E+00  0.34854074810E+02  0.81483170570E+02  0.88629450833E+02  0.00000000000E+00 0. -1.
</event>
<event>
 8    1  0.7016814E-009  0.1319478E+03  0.7561462E-02  0.1224594E+00
          1   -1    0    0  501    0  0.00000000000E+00  0.00000000000E+00  0.17375857042E+03  0.17375857042E+03  0.00000000000E+00 0. -1.
         -1   -1    0    0    0  501 -0.00000000000E+00 -0.00000000000E+00 -0.10616851688E+03  0.10616851688E+03  0.00000000000E+00 0.  1.
         25    2    1    2    0    0  0.30644928067E+02 -0.73150976068E+02  0.35894122873E+02  0.15240372157E+03  0.12509328270E+03 0.  0.
         23    2    1    2    0    0 -0.30644928067E+02  0.73150976068E+02  0.31695930667E+02  0.12752336573E+03  0.94696356167E+02 0.  0.
          5    1    3    3  502    0  0.75505800285E+02 -0.55383733132E+02  0.43574276250E+02  0.10336669542E+03  0.41800000000E+01 0.  1.
         -5    1    3    3    0  502 -0.44860872217E+02 -0.17767242936E+02 -0.76801533762E+01  0.49037026149E+02  0.41800000000E+01 0.  1.
        -11    1    4    4    0    0 -0.63106704652E+02  0.58738170284E+02  0.12391530407E+02  0.87098673045E+02  0.00000000000E+00 0.  1.
         11    1    4    4    0    0  0.32461776585E+02  0.14412805784E+02  0.19304400260E+02  0.40424692689E+02  0.00000000000E+00 0. -1.
</event>
<event>
 8    1  0.7016814E-009  0.1387946E+03  0.7561462E-02  0.1214960E+00
         -2   -1    0    0    0  501 -0.00000000000E+00  0.00000000000E+00  0.13727328783E+03  0.13727328783E+03  0.00000000000E+00 0. -1.
          2   -1    0    0  501    0  0.00000000000E+00 -0.00000000000E+00 -0.71519736989E+03  0.71519736989E+03  0.00000000000E+00 0.  1.
         25    2    1    2    0    0 -0.10842776609E+03  0.50744691359E+01  0.76822018025E+02  0.18256179226E+03  0.12507939416E+03 0.  0.
         23    2    1    2    0    0  0.10842776609E+03 -0.50744691359E+01 -0.65474610008E+03  0.66990886546E+03  0.91121357318E+02 0.  0.
          5    1    3    3  502    0 -0.12222521181E+03 -0.35438182824E+01  0.20834728516E+02  0.12410930409E+03  0.41800000000E+01 0.  1.
         -5    1    3    3    0  502  0.13797445717E+02  0.86182874184E+01  0.55987289509E+02  0.58452488167E+02  0.41800000000E+01 0.  1.
        -11    1    4    4    0    0  0.14749054330E+02  0.33909646742E+02 -0.11807309969E+03  0.12372815207E+03  0.00000000000E+00 0.  1.
         11    1    4    4    0    0  0.93678711761E+02 -0.38984115878E+02 -0.53667300039E+03  0.54618071339E+03  0.00000000000E+00 0. -1.
</event>
<event>
 8    1  0.7016814E-009  0.1105182E+03  0.7561462E-02  0.1259613E+00
         -1   -1    0    0    0  501 -0.00000000000E+00  0.00000000000E+00  0.24622635575E+03  0.24622635575E+03  0.00000000000E+00 0.  1.
          1   -1    0    0  501    0  0.00000000000E+00 -0.00000000000E+00 -0.92479380625E+02  0.92479380625E+02  0.00000000000E+00 0. -1.
         25    2    1    2    0    0  0.45881971904E+01  0.82530378685E+02  0.11660512641E+02  0.15038814717E+03  0.12509321442E+03 0.  0.
         23    2    1    2    0    0 -0.45881971904E+01 -0.82530378685E+02  0.14208646249E+03  0.18831758921E+03  0.91883821347E+02 0.  0.
          5    1    3    3  502    0 -0.42730107726E+02  0.55918931127E+02 -0.34973840913E+02  0.78698353940E+02  0.41800000000E+01 0.  1.
         -5    1    3    3    0  502  0.47318304916E+02  0.26611447558E+02  0.46634353554E+02  0.71689793225E+02  0.41800000000E+01 0.  1.
        -11    1    4    4    0    0  0.21472816586E+02 -0.25172553211E+02  0.11513354856E+03  0.11979346097E+03  0.00000000000E+00 0.  1.
         11    1    4    4    0    0 -0.26061013776E+02 -0.57357825474E+02  0.26952913928E+02  0.68524128243E+02  0.00000000000E+00 0. -1.
</event>
<event>
 8    1  0.7016814E-009  0.1013205E+03  0.7561462E-02  0.1277543E+00
          1   -1    0    0  501    0  0.00000000000E+00  0.00000000000E+00  0.35552385504E+03  0.35552385504E+03  0.00000000000E+00 0. -1.
         -1   -1    0    0    0  501 -0.00000000000E+00 -0.00000000000E+00 -0.38437321530E+02  0.38437321530E+02  0.00000000000E+00 0.  1.
         25    2    1    2    0    0 -0.36493883412E+02  0.22283142950E+02  0.17943315357E+03  0.22287311875E+03  0.12509128058E+03 0.  0.
         23    2    1    2    0    0  0.36493883412E+02 -0.22283142950E+02  0.13765337994E+03  0.17108805782E+03  0.92164681590E+02 0.  0.
          5    1    3    3  502    0 -0.82996464476E+02  0.12835081774E+02  0.12342843934E+03  0.14934927009E+03  0.41800000000E+01 0.  1.
         -5    1    3    3    0  502  0.46502581064E+02  0.94480611762E+01  0.56004714229E+02  0.73523848658E+02  0.41800000000E+01 0.  1.
        -11    1    4    4    0    0  0.40336371782E+02 -0.37589542674E+02  0.14391084450E+03  0.15411141351E+03  0.00000000000E+00 0. -1.
         11    1    4    4    0    0 -0.38424883706E+01  0.15306399724E+02 -0.62574645616E+01  0.16976644313E+02  0.00000000000E+00 0.  1.
</event>
<event>
 8    1  0.7016814E-009  0.1188079E+03  0.7561462E-02  0.1245077E+00
          2   -1    0    0  501    0  0.00000000000E+00  0.00000000000E+00  0.20333560810E+03  0.20333560810E+03  0.00000000000E+00 0.  1.
         -2   -1    0    0    0  501 -0.00000000000E+00 -0.00000000000E+00 -0.93276299065E+02  0.93276299065E+02  0.00000000000E+00 0. -1.
         25    2    1    2    0    0 -0.51513592847E+02  0.50525395600E+02  0.14846504361E+02  0.14516922181E+03  0.12508884211E+03 0.  0.
         23    2    1    2    0    0  0.51513592847E+02 -0.50525395600E+02  0.95212804669E+02  0.15144268535E+03  0.93074931777E+02 0.  0.
          5    1    3    3  502    0 -0.84906886800E+02  0.48742535204E+02 -0.16229684023E+02  0.99327182622E+02  0.41800000000E+01 0.  1.
         -5    1    3    3    0  502  0.33393293953E+02  0.17828603963E+01  0.31076188384E+02  0.45842039185E+02  0.41800000000E+01 0.  1.
        -11    1    4    4    0    0  0.57213969422E+02 -0.67225527158E+02  0.46801160991E+02  0.99915256436E+02  0.00000000000E+00 0. -1.
         11    1    4    4    0    0 -0.57003765748E+01  0.16700131557E+02  0.48411643678E+02  0.51527428916E+02  0.00000000000E+00 0.  1.
</event>
<event>
 8    1  0.7016814E-009  0.2469508E+03  0.7561462E-02  0.1115247E+00
         -1   -1    0    0    0  501 -0.00000000000E+00  0.00000000000E+00  0.12659733227E+04  0.12659733227E+04  0.00000000000E+00 0.  1.
          1   -1    0    0  501    0  0.00000000000E+00 -0.00000000000E+00 -0.56327069994E+02  0.56327069994E+02  0.00000000000E+00 0. -1.
         25    2    1    2    0    0  0.16070858768E+03  0.17549840991E+03  0.48940855522E+03  0.55838613327E+03  0.12508955941E+03 0.  0.
         23    2    1    2    0    0 -0.16070858768E+03 -0.17549840991E+03  0.72023769746E+03  0.76391425940E+03  0.90530176350E+02 0.  0.
          5    1    3    3  502    0  0.36330622537E+02  0.55464691232E+02  0.41670738112E+02  0.78423012708E+02  0.41800000000E+01 0. -1.
         -5    1    3    3    0  502  0.12437796514E+03  0.12003371868E+03  0.44773781711E+03  0.47996312057E+03  0.41800000000E+01 0. -1.
        -11    1    4    4    0    0 -0.12674385356E+03 -0.72292621606E+02  0.40609640056E+03  0.43151421078E+03  0.00000000000E+00 0. -1.
         11    1    4    4    0    0 -0.33964734115E+02 -0.10320578831E+03  0.31414129690E+03  0.33240004862E+03  0.00000000000E+00 0.  1.
</event>
<event>
 8    1  0.7016814E-009  0.1361286E+03  0.7561462E-02  0.1218635E+00
          1   -1    0    0  501    0  0.00000000000E+00  0.00000000000E+00  0.44173419558E+03  0.44173419558E+03  0.00000000000E+00 0. -1.
         -1   -1    0    0    0  501 -0.00000000000E+00 -0.00000000000E+00 -0.61266957117E+02  0.61266957117E+02  0.00000000000E+00 0.  1.
         25    2    1    2    0    0  0.58181887483E+02 -0.10456229221E+03  0.15695773330E+03  0.23366936180E+03  0.12508891084E+03 0.  0.
         23    2    1    2    0    0 -0.58181887483E+02  0.10456229221E+03  0.22350950516E+03  0.26933179090E+03  0.90910448849E+02 0.  0.
          5    1    3    3  502    0  0.70921344004E+02 -0.57236651157E+02  0.16021894204E+03  0.18437313541E+03  0.41800000000E+01 0. -1.
         -5    1    3    3    0  502 -0.12739456521E+02 -0.47325641055E+02 -0.32612087381E+01  0.49296226388E+02  0.41800000000E+01 0. -1.
        -11    1    4    4    0    0 -0.56229016716E+02  0.44407311797E+02  0.54787873366E+02  0.90196578260E+02  0.00000000000E+00 0.  1.
         11    1    4    4    0    0 -0.19528707666E+01  0.60154980416E+02  0.16872163179E+03  0.17913521264E+03  0.00000000000E+00 0. -1.
</event>
<event>
 8    1  0.7016814E-009  0.1768145E+03  0.7561462E-02  0.1170922E+00
          2   -1    0    0  501    0  0.00000000000E+00  0.00000000000E+00  0.12836586816E+03  0.12836586816E+03  0.00000000000E+00 0.  1.
         -2   -1    0    0    0  501 -0.00000000000E+00 -0.00000000000E+00 -0.26922159478E+03  0.26922159478E+03  0.00000000000E+00 0. -1.
         25    2    1    2    0    0  0.14846109722E+03  0.16687005988E+02 -0.47767424838E+02  0.20061686681E+03  0.12508495840E+03 0.  0.
         23    2    1    2    0    0 -0.14846109722E+03 -0.16687005988E+02 -0.93088301785E+02  0.19697059613E+03  0.88390215826E+02 0.  0.
          5    1    3    3  502    0  0.14155239734E+03  0.56579146384E+02 -0.48132649870E+02  0.15991405624E+03  0.41800000000E+01 0. -1.
         -5    1    3    3    0  502  0.69086998752E+01 -0.39892140396E+02  0.36522503197E+00  0.40702810575E+02  0.41800000000E+01 0. -1.
        -11    1    4    4    0    0 -0.10634669317E+03  0.15437666283E+02 -0.24339243318E+02  0.11018320858E+03  0.00000000000E+00 0.  1.
         11    1    4    4    0    0 -0.42114404051E+02 -0.32124672271E+02 -0.68749058468E+02  0.86787387547E+02  0.00000000000E+00 0. -1.
</event>
<event>
 8    1  0.7016814E-009  0.1070122E+03  0.7561462E-02  0.1266205E+00
          2   -1    0    0  501    0  0.00000000000E+00  0.00000000000E+00  0.51557138572E+02  0.51557138572E+02  0.00000000000E+00 0. -1.
         -2   -1    0    0    0  501 -0.00000000000E+00 -0.00000000000E+00 -0.23601707757E+03  0.23601707757E+03  0.00000000000E+00 0.  1.
         25    2    1    2    0    0 -0.10253011849E+02  0.20062370923E+02 -0.12421555206E+03  0.17772020151E+03  0.12508934276E+03 0.  0.
         23    2    1    2    0    0  0.10253011849E+02 -0.20062370923E+02 -0.60244386940E+02  0.10985401464E+03  0.89055574756E+02 0.  0.
          5    1    3    3  502    0 -0.16529126027E+02 -0.51715219783E+02 -0.45870285429E+02  0.71198535447E+02  0.41800000000E+01 0.  1.
         -5    1    3    3    0  502  0.62761141787E+01  0.71777590706E+02 -0.78345266631E+02  0.10652166606E+03  0.41800000000E+01 0.  1.
        -11    1    4    4    0    0 -0.12677467651E+00  0.33166721012E+02 -0.40011842986E+02  0.51971098061E+02  0.00000000000E+00 0.  1.
         11    1    4    4    0    0  0.10379786525E+02 -0.53229091936E+02 -0.20232543955E+02  0.57882916577E+02  0.00000000000E+00 0. -1.
</event>
<event>
 8    1  0.7016814E-009  0.1974534E+03  0.7561462E-02  0.1151906E+00
         -1   -1    0    0    0  501 -0.00000000000E+00  0.00000000000E+00  0.64811023028E+02  0.64811023028E+02  0.00000000000E+00 0.  1.
          1   -1    0    0  501    0  0.00000000000E+00 -0.00000000000E+00 -0.66049738956E+03  0.66049738956E+03  0.00000000000E+00 0. -1.
         25    2    1    2    0    0  0.11736453866E+03 -0.12171525946E+03 -0.22788474978E+03  0.31010859666E+03  0.12508734237E+03 0.  0.
         23    2    1    2    0    0 -0.11736453866E+03  0.12171525946E+03 -0.36780161675E+03  0.41519981592E+03  0.92324528365E+02 0.  0.
          5    1    3    3  502    0  0.57755758921E+02 -0.13692017299E+03 -0.16171777394E+03  0.21966559191E+03  0.41800000000E+01 0.  1.
         -5    1    3    3    0  502  0.59608779740E+02  0.15204913528E+02 -0.66166975838E+02  0.90443004755E+02  0.41800000000E+01 0.  1.
        -11    1    4    4    0    0 -0.98882883346E+01  0.59674359045E+02 -0.69627515160E+02  0.92232305842E+02  0.00000000000E+00 0.  1.
         11    1    4    4    0    0 -0.10747625033E+03  0.62040900414E+02 -0.29817410159E+03  0.32296751008E+03  0.00000000000E+00 0. -1.
</event>
<event>
 8    1  0.7016814E-009  0.1045256E+03  0.7561462E-02  0.1271057E+00
          1   -1    0    0  501    0  0.00000000000E+00  0.00000000000E+00  0.96192614535E+02  0.96192614535E+02  0.00000000000E+00 0. -1.
         -1   -1    0    0    0  501 -0.00000000000E+00 -0.00000000000E+00 -0.12829822818E+03  0.12829822818E+03  0.00000000000E+00 0.  1.
         25    2    1    2    0    0 -0.23194657063E+01 -0.24114452600E+02 -0.13974104349E+02  0.12817850980E+03  0.12509023958E+03 0.  0.
         23    2    1    2    0    0  0.23194657063E+01  0.24114452600E+02 -0.18131509296E+02  0.96312332912E+02  0.91435371143E+02 0.  0.
          5    1    3    3  502    0  0.78612178049E+01 -0.74831662607E+02 -0.11403223233E+02  0.76217336440E+02  0.41800000000E+01 0.  1.
         -5    1    3    3    0  502 -0.10180683511E+02  0.50717210007E+02 -0.25708811164E+01  0.51961173364E+02  0.41800000000E+01 0.  1.
        -11    1    4    4    0    0 -0.19946752689E+02  0.46268013238E+02  0.13056577800E+02  0.52048786880E+02  0.00000000000E+00 0. -1.
         11    1    4    4    0    0  0.22266218396E+02 -0.22153560638E+02 -0.31188087097E+02  0.44263546032E+02  0.00000000000E+00 0.  1.
</event>
<event>
 8    1  0.7016814E-009  0.2402585E+03  0.7561462E-02  0.1119621E+00
         -1   -1    0    0    0  501 -0.00000000000E+00  0.00000000000E+00  0.77089375355E+03  0.77089375355E+03  0.00000000000E+00 0.  1.
          1   -1    0    0  501    0  0.00000000000E+00 -0.00000000000E+00 -0.87578006249E+02  0.87578006249E+02  0.00000000000E+00 0. -1.
         25    2    1    2    0    0 -0.18379997477E+03 -0.11623387121E+03  0.19925345297E+03  0.32037851903E+03  0.12509082059E+03 0.  0.
         23    2    1    2    0    0  0.18379997477E+03  0.11623387121E+03  0.48406229433E+03  0.53809324076E+03  0.89080230268E+02 0.  0.
          5    1    3    3  502    0  0.15629635216E+02 -0.28108043760E+02  0.20130283203E+02  0.38171302346E+02  0.41800000000E+01 0.  1.
         -5    1    3    3    0  502 -0.19942960999E+03 -0.88125827446E+02  0.17912316977E+03  0.28220721669E+03  0.41800000000E+01 0.  1.
        -11    1    4    4    0    0  0.79399371455E+02  0.94402621023E+02  0.20382807311E+03  0.23824776690E+03  0.00000000000E+00 0.  1.
         11    1    4    4    0    0  0.10440060332E+03  0.21831250183E+02  0.28023422122E+03  0.29984547387E+03  0.00000000000E+00 0. -1.
</event>
<event>
 8    1  0.7016814E-009  0.1492381E+03  0.7561462E-02  0.1201412E+00
          2   -1    0    0  501    0  0.00000000000E+00  0.00000000000E+00  0.28671597588E+03  0.28671597588E+03  0.00000000000E+00 0. -1.
         -2   -1    0    0    0  501 -0.00000000000E+00 -0.00000000000E+00 -0.12154788108E+03  0.12154788108E+03  0.00000000000E+00 0.  1.
         25    2    1    2    0    0  0.87643729141E+02  0.10657550454E+03  0.15428327541E+03  0.24184975827E+03  0.12509282585E+03 0.  0.
         23    2    1    2    0    0 -0.87643729141E+02 -0.10657550454E+03  0.10884819389E+02  0.16641409869E+03  0.92387290934E+02 0.  0.
          5    1    3    3  502    0  0.22216335933E+02 -0.11527937739E+02  0.87610485039E+02  0.91211448950E+02  0.41800000000E+01 0.  1.
         -5    1    3    3    0  502  0.65427393208E+02  0.11810344228E+03  0.66672790372E+02  0.15063830932E+03  0.41800000000E+01 0.  1.
        -11    1    4    4    0    0 -0.25536438774E+02 -0.28838024181E+02 -0.39252237541E+02  0.54995267941E+02  0.00000000000E+00 0.  1.
         11    1    4    4    0    0 -0.62107290367E+02 -0.77737480356E+02  0.50137056930E+02  0.11141883075E+03  0.00000000000E+00 0. -1.
</event>
<event>
 8    1  0.7016814E-009  0.8432736E+02  0.7561462E-02  0.1317201E+00
          2   -1    0    0  501    0  0.00000000000E+00  0.00000000000E+00  0.75877978859E+03  0.75877978859E+03  0.00000000000E+00 0. -1.
         -2   -1    0    0    0  501 -0.00000000000E+00 -0.00000000000E+00 -0.41195787430E+02  0.41195787430E+02  0.00000000000E+00 0.  1.
         25    2    1    2    0    0 -0.53836199412E+02 -0.13470612683E+02  0.66886583959E+03  0.68272114492E+03  0.12508739575E+03 0.  0.
         23    2    1    2    0    0  0.53836199412E+02  0.13470612683E+02  0.48718161575E+02  0.11725443111E+03  0.91078804194E+02 0.  0.
          5    1    3    3  502    0 -0.36795132333E+02  0.39914857321E+01  0.45220986037E+02  0.58585183280E+02  0.41800000000E+01 0.  1.
         -5    1    3    3    0  502 -0.17041067079E+02 -0.17462098415E+02  0.62364485355E+03  0.62413596164E+03  0.41800000000E+01 0.  1.
        -11    1    4    4    0    0  0.18306325246E+02  0.51471661246E+02  0.25149784632E+02  0.60141209852E+02  0.00000000000E+00 0.  1.
         11    1    4    4    0    0  0.35529874166E+02 -0.38001048563E+02  0.23568376943E+02  0.57113221253E+02  0.00000000000E+00 0. -1.
</event>
<event>
 8    1  0.7016814E-009  0.1281472E+03  0.7561462E-02  0.1230231E+00
          1   -1    0    0  501    0  0.00000000000E+00  0.00000000000E+00  0.46029703434E+03  0.46029703434E+03  0.00000000000E+00 0. -1.
         -1   -1    0    0    0  501 -0.00000000000E+00 -0.00000000000E+00 -0.48181681164E+02  0.48181681164E+02  0.00000000000E+00 0.  1.
         25    2    1    2    0    0  0.78356803115E+02 -0.43904741814E+02  0.31393507540E+03  0.34967062870E+03  0.12508757757E+03 0.  0.
         23    2    1    2    0    0 -0.78356803115E+02  0.43904741814E+02  0.98180277776E+02  0.15880808680E+03  0.86678870214E+02 0.  0.
          5    1    3    3  502    0  0.10172064277E+02 -0.77181681761E+02  0.15468155398E+03  0.17321760428E+03  0.41800000000E+01 0.  1.
         -5    1    3    3    0  502  0.68184738839E+02  0.33276939947E+02  0.15925352142E+03  0.17645302442E+03  0.41800000000E+01 0.  1.
        -11    1    4    4    0    0 -0.14631577551E+02 -0.10940485795E+02 -0.10755391497E+02  0.21200371159E+02  0.00000000000E+00 0.  1.
         11    1    4    4    0    0 -0.63725225565E+02  0.54845227608E+02  0.10893566927E+03  0.13760771564E+03  0.00000000000E+00 0. -1.
</event>
<event>
 8    1  0.7016814E-009  0.1858317E+03  0.7561462E-02  0.1162276E+00
          1   -1    0    0  501    0  0.00000000000E+00  0.00000000000E+00  0.83239007929E+02  0.83239007929E+02  0.00000000000E+00 0. -1.
         -1   -1    0    0    0  501 -0.00000000000E+00 -0.00000000000E+00 -0.49051024300E+03  0.49051024300E+03  0.00000000000E+00 0.  1.
         25    2    1    2    0    0 -0.15383073623E+03  0.61769347979E+01 -0.10991982361E+03  0.22678607717E+03  0.12508999657E+03 0.  0.
         23    2    1    2    0    0  0.15383073623E+03 -0.61769347979E+01 -0.29735141145E+03  0.34696317376E+03  0.90903971965E+02 0.  0.
          5    1    3    3  502    0 -0.22943464774E+02  0.49681642535E+02 -0.85095978272E+01  0.55538759763E+02  0.41800000000E+01 0.  1.
         -5    1    3    3    0  502 -0.13088727145E+03 -0.43504707737E+02 -0.10141022579E+03  0.17124731740E+03  0.41800000000E+01 0.  1.
        -11    1    4    4    0    0  0.11201758427E+03 -0.45954775142E+02 -0.20157125407E+03  0.23513985415E+03  0.00000000000E+00 0.  1.
         11    1    4    4    0    0  0.41813151962E+02  0.39777840344E+02 -0.95780157387E+02  0.11182331961E+03  0.00000000000E+00 0. -1.
</event>
<event>
 8    1  0.7016814E-009  0.8548859E+02  0.7561462E-02  0.1314160E+00
          1   -1    0    0  501    0  0.00000000000E+00  0.00000000000E+00  0.13780344367E+03  0.13780344367E+03  0.00000000000E+00 0. -1.
         -1   -1    0    0    0  501 -0.00000000000E+00 -0.00000000000E+00 -0.10118762233E+03  0.10118762233E+03  0.00000000000E+00 0.  1.
         25    2    1    2    0    0 -0.44833355591E+02  0.21885406110E+02  0.17136996478E+01  0.13468297953E+03  0.12509023717E+03 0.  0.
         23    2    1    2    0    0  0.44833355591E+02 -0.21885406110E+02  0.34902121687E+02  0.10430808647E+03  0.84693671727E+02 0.  0.
          5    1    3    3  502    0 -0.25470026177E+02  0.65271694775E+02 -0.31120148095E+02  0.76779244525E+02  0.41800000000E+01 0.  1.
         -5    1    3    3    0  502 -0.19363329415E+02 -0.43386288665E+02  0.32833847743E+02  0.57903735007E+02  0.41800000000E+01 0.  1.
        -11    1    4    4    0    0  0.14472802850E+02 -0.17025684826E+02  0.60376552874E+02  0.64379065721E+02  0.00000000000E+00 0. -1.
         11    1    4    4    0    0  0.30360552741E+02 -0.48597212843E+01 -0.25474431187E+02  0.39929020749E+02  0.00000000000E+00 0.  1.
</event>
<event>
 8    1  0.7016814E-009  0.1236666E+03  0.7561462E-02  0.1237168E+00
         -1   -1    0    0    0  501 -0.00000000000E+00  0.00000000000E+00  0.22475966488E+02  0.22475966488E+02  0.00000000000E+00 0.  1.
          1   -1    0    0  501    0  0.00000000000E+00 -0.00000000000E+00 -0.13057857030E+04  0.13057857030E+04  0.00000000000E+00 0. -1.
         25    2    1    2    0    0 -0.97449518773E+02 -0.44546226538E+02 -0.99131250125E+03  0.10049020912E+04  0.12508781986E+03 0.  0.
         23    2    1    2    0    0  0.97449518773E+02  0.44546226538E+02 -0.29199723528E+03  0.32335957835E+03  0.88420905270E+02 0.  0.
          5    1    3    3  502    0 -0.10319699194E+03 -0.35549955126E+02 -0.98639999439E+03  0.99242926186E+03  0.41800000000E+01 0. -1.
         -5    1    3    3    0  502  0.57474731711E+01 -0.89962714126E+01 -0.49125068573E+01  0.12472829302E+02  0.41800000000E+01 0. -1.
        -11    1    4    4    0    0  0.43375778698E+02  0.56530373942E+02 -0.22723026709E+03  0.23814015964E+03  0.00000000000E+00 0. -1.
         11    1    4    4    0    0  0.54073740075E+02 -0.11984147403E+02 -0.64766968195E+02  0.85219418702E+02  0.00000000000E+00 0.  1.
</event>
<event>
 8    1  0.7016814E-009  0.1655051E+03  0.7561462E-02  0.1182618E+00
         -1   -1    0    0    0  501 -0.00000000000E+00  0.00000000000E+00  0.22480388352E+03  0.22480388352E+03  0.00000000000E+00 0.  1.
          1   -1    0    0  501    0  0.00000000000E+00 -0.00000000000E+00 -0.14747052717E+03  0.14747052717E+03  0.00000000000E+00 0. -1.
         25    2    1    2    0    0 -0.43000834460E+02 -0.13578232577E+03  0.70845770243E+02  0.20236834431E+03  0.12509161388E+03 0.  0.
         23    2    1    2    0    0  0.43000834460E+02  0.13578232577E+03  0.64875861056E+01  0.16990606637E+03  0.92412503820E+02 0.  0.
          5    1    3    3  502    0 -0.65970822937E+02 -0.13737481310E+03  0.30120717194E+02  0.15539858029E+03  0.41800000000E+01 0. -1.
         -5    1    3    3    0  502  0.22969988477E+02  0.15924873291E+01  0.40725053049E+02  0.46969764023E+02  0.41800000000E+01 0. -1.
        -11    1    4    4    0    0 -0.22822867556E+01  0.92460908595E+02  0.37721475954E+02  0.99885625588E+02  0.00000000000E+00 0.  1.
         11    1    4    4    0    0  0.45283121215E+02  0.43321417172E+02 -0.31233889848E+02  0.70020440786E+02  0.00000000000E+00 0. -1.
</event>
<event>
 8    1  0.7016814E-009  0.1754049E+03  0.7561462E-02  0.1172326E+00
         -2   -1    0    0    0  501 -0.00000000000E+00  0.00000000000E+00  0.35013019650E+02  0.35013019650E+02  0.00000000000E+00 0. -1.
          2   -1    0    0  501    0  0.00000000000E+00 -0.00000000000E+00 -0.11676656908E+04  0.11676656908E+04  0.00000000000E+00 0.  1.
         25    2    1    2    0    0  0.63158451372E+02 -0.15202507994E+03 -0.46387648412E+03  0.50786797507E+03  0.12509145723E+03 0.  0.
         23    2    1    2    0    0 -0.63158451372E+02  0.15202507994E+03 -0.66877618703E+03  0.69481073538E+03  0.91650175960E+02 0.  0.
          5    1    3    3  502    0  0.64696224204E+02 -0.47278149244E+02 -0.31961857535E+03  0.32953653960E+03  0.41800000000E+01 0.  1.
         -5    1    3    3    0  502 -0.15377728316E+01 -0.10474693069E+03 -0.14425790878E+03  0.17833143548E+03  0.41800000000E+01 0.  1.
        -11    1    4    4    0    0 -0.61548747876E+02  0.13205241948E+03 -0.65369056514E+03  0.66972938177E+03  0.00000000000E+00 0.  1.
         11    1    4    4    0    0 -0.16097034964E+01  0.19972660457E+02 -0.15085621890E+02  0.25081353610E+02  0.00000000000E+00 0. -1.
</event>
<event>
 8    1  0.7016814E-009  0.2045752E+03  0.7561462E-02  0.1145935E+00
          2   -1    0    0  501    0  0.00000000000E+00  0.00000000000E+00  0.66083795315E+03  0.66083795315E+03  0.00000000000E+00 0. -1.
         -2   -1    0    0    0  501 -0.00000000000E+00 -0.00000000000E+00 -0.74574834860E+02  0.74574834860E+02  0.00000000000E+00 0.  1.
         25    2    1    2    0    0 -0.22068605651E+02  0.17276365315E+03  0.16595812240E+03  0.27115148896E+03  0.12508688327E+03 0.  0.
         23    2    1    2    0    0  0.22068605651E+02 -0.17276365315E+03  0.42030499589E+03  0.46426129905E+03  0.92455183852E+02 0.  0.
          5    1    3    3  502    0  0.51587632557E+02  0.75953430221E+02  0.59872941620E+02  0.10969251995E+03  0.41800000000E+01 0. -1.
         -5    1    3    3    0  502 -0.73656238208E+02  0.96810222934E+02  0.10608518078E+03  0.16145896901E+03  0.41800000000E+01 0. -1.
        -11    1    4    4    0    0  0.49511106633E+02 -0.52484524616E+02  0.18508258546E+03  0.19864928504E+03  0.00000000000E+00 0.  1.
         11    1    4    4    0    0 -0.27442500982E+02 -0.12027912854E+03  0.23522241043E+03  0.26561201401E+03  0.00000000000E+00 0. -1.
</event>
<event>
 8    1  0.7016814E-009  0.1208818E+03  0.7561462E-02  0.1241649E+00
         -2   -1    0    0    0  501 -0.00000000000E+00  0.00000000000E+00  0.33564062993E+02  0.33564062993E+02  0.00000000000E+00 0.  1.
          2   -1    0    0  501    0  0.00000000000E+00 -0.00000000000E+00 -0.66686508101E+03  0.66686508101E+03  0.00000000000E+00 0. -1.
         25    2    1    2    0    0 -0.10235811062E+03 -0.63633354669E+01 -0.35526566798E+03  0.39035772905E+03  0.12509111453E+03 0.  0.
         23    2    1    2    0    0  0.10235811062E+03  0.63633354669E+01 -0.27803535004E+03  0.31007141496E+03  0.91230212396E+02 0.  0.
          5    1    3    3  502    0 -0.16543775398E+02  0.29203337518E+02 -0.23947467740E+03  0.24185145222E+03  0.41800000000E+01 0.  1.
         -5    1    3    3    0  502 -0.85814335223E+02 -0.35566672985E+02 -0.11579099058E+03  0.14850627683E+03  0.41800000000E+01 0.  1.
        -11    1    4    4    0    0  0.79310854290E+02 -0.18093273044E+02 -0.10008187431E+03  0.12897270914E+03  0.00000000000E+00 0.  1.
         11    1    4    4    0    0  0.23047256331E+02  0.24456608511E+02 -0.17795347573E+03  0.18109870582E+03  0.00000000000E+00 0. -1.
</event>
<event>
 8    1  0.7016814E-009  0.1061306E+03  0.7561462E-02  0.1267908E+00
          2   -1    0    0  501    0  0.00000000000E+00  0.00000000000E+00  0.14884356188E+04  0.14884356188E+04  0.00000000000E+00 0. -1.
         -2   -1    0    0    0  501 -0.00000000000E+00 -0.00000000000E+00 -0.12957648823E+02  0.12957648823E+02  0.00000000000E+00 0.  1.
         25    2    1    2    0    0 -0.62808091058E+02  0.61235274185E+01  0.11283757205E+04  0.11370409004E+04  0.12509152122E+03 0.  0.
         23    2    1    2    0    0  0.62808091058E+02 -0.61235274185E+01  0.34710224955E+03  0.36435236729E+03  0.91051205484E+02 0.  0.
          5    1    3    3  502    0  0.13985561347E+02 -0.18488601073E+02  0.73924419184E+03  0.73961941015E+03  0.41800000000E+01 0. -1.
         -5    1    3    3    0  502 -0.76793652406E+02  0.24612128491E+02  0.38913152861E+03  0.39742149021E+03  0.41800000000E+01 0. -1.
        -11    1    4    4    0    0  0.89553327335E+01  0.37560090540E+02  0.16592467409E+03  0.17035831608E+03  0.00000000000E+00 0.  1.
         11    1    4    4    0    0  0.53852758325E+02 -0.43683617958E+02  0.18117757546E+03  0.19399405121E+03  0.00000000000E+00 0. -1.
</event>
<event>
 8    1  0.7016814E-009  0.6668901E+02  0.7561462E-02  0.1371728E+00
         -1   -1    0    0    0  501 -0.00000000000E+00  0.00000000000E+00  0.16395515737E+03  0.16395515737E+03  0.00000000000E+00 0.  1.
          1   -1    0    0  501    0  0.00000000000E+00 -0.00000000000E+00 -0.10864277940E+03  0.10864277940E+03  0.00000000000E+00 0. -1.
         25    2    1    2    0    0  0.35282924559E+02 -0.53637256689E+02 -0.13602312764E+02  0.14126527372E+03  0.12509602142E+03 0.  0.
         23    2    1    2    0    0 -0.35282924559E+02  0.53637256689E+02  0.68914690728E+02  0.13133266305E+03  0.91527010846E+02 0.  0.
          5    1    3    3  502    0  0.36381384027E+02 -0.51776888571E+02  0.47967413120E+02  0.79516013577E+02  0.41800000000E+01 0. -1.
         -5    1    3    3    0  502 -0.10984594680E+01 -0.18603681184E+01 -0.61569725884E+02  0.61749260143E+02  0.41800000000E+01 0. -1.
        -11    1    4    4    0    0 -0.17572508868E+02  0.16476375135E+02  0.84080033789E+02  0.87462655388E+02  0.00000000000E+00 0.  1.
         11    1    4    4    0    0 -0.17710415691E+02  0.37160881554E+02 -0.15165343061E+02  0.43870007659E+02  0.00000000000E+00 0. -1.
</event>
<event>
 8    1  0.7016814E-009  0.1226117E+03  0.7561462E-02  0.1238850E+00
         -1   -1    0    0    0  501 -0.00000000000E+00  0.00000000000E+00  0.32721482202E+02  0.32721482202E+02  0.00000000000E+00 0.  1.
          1   -1    0    0  501    0  0.00000000000E+00 -0.00000000000E+00 -0.59847031072E+03  0.59847031072E+03  0.00000000000E+00 0. -1.
         25    2    1    2    0    0 -0.68126008939E+02  0.48106430578E+02 -0.32335246008E+03  0.35659321086E+03  0.12508606172E+03 0.  0.
         23    2    1    2    0    0  0.68126008939E+02 -0.48106430578E+02 -0.24239636844E+03  0.27459858206E+03  0.98453034898E+02 0.  0.
          5    1    3    3  502    0 -0.22318136571E+02 -0.25966856025E+02 -0.17745932950E+02  0.38791331095E+02  0.41800000000E+01 0. -1.
         -5    1    3    3    0  502 -0.45807872367E+02  0.74073286603E+02 -0.30560652713E+03  0.31780187977E+03  0.41800000000E+01 0. -1.
        -11    1    4    4    0    0  0.24024877870E+02 -0.70209202563E+02 -0.10468001895E+03  0.12831380771E+03  0.00000000000E+00 0.  1.
         11    1    4    4    0    0  0.44101131069E+02  0.22102771985E+02 -0.13771634949E+03  0.14628477435E+03  0.00000000000E+00 0. -1.
</event>
<event>
 8    1  0.7016814E-009  0.9324410E+02  0.7561462E-02  0.1295181E+00
          1   -1    0    0  501    0  0.00000000000E+00  0.00000000000E+00  0.45602441613E+03  0.45602441613E+03  0.00000000000E+00 0.  1.
         -1   -1    0    0    0  501 -0.00000000000E+00 -0.00000000000E+00 -0.55505459729E+02  0.55505459729E+02  0.00000000000E+00 0. -1.
         25    2    1    2    0    0 -0.79070158008E+02 -0.17020929512E+02  0.36259878586E+03  0.39200368304E+03  0.12508879280E+03 0.  0.
         23    2    1    2    0    0  0.79070158008E+02  0.17020929512E+02  0.37920170546E+02  0.11952619282E+03  0.79415171769E+02 0.  0.
          5    1    3    3  502    0 -0.15492682798E+02 -0.20349710922E+02  0.22083789024E+01  0.26009292421E+02  0.41800000000E+01 0. -1.
         -5    1    3    3    0  502 -0.63577475210E+02  0.33287814100E+01  0.36039040695E+03  0.36599439062E+03  0.41800000000E+01 0. -1.
        -11    1    4    4    0    0  0.76375640219E+02  0.31079226190E+02  0.53559721488E+02  0.98324973864E+02  0.00000000000E+00 0.  1.
         11    1    4    4    0    0  0.26945177889E+01 -0.14058296678E+02 -0.15639550942E+02  0.21201218957E+02  0.00000000000E+00 0. -1.
</event>
<event>
 8    1  0.7016814E-009  0.7590696E+02  0.7561462E-02  0.1341085E+00
          1   -1    0    0  501    0  0.00000000000E+00  0.00000000000E+00  0.19515962117E+03  0.19515962117E+03  0.00000000000E+00 0. -1.
         -1   -1    0    0    0  501 -0.00000000000E+00 -0.00000000000E+00 -0.79622570307E+02  0.79622570307E+02  0.00000000000E+00 0.  1.
         25    2    1    2    0    0  0.11671930578E+02  0.28284919904E+02  0.62123245002E+01  0.12892577870E+03  0.12508794019E+03 0.  0.
         23    2    1    2    0    0 -0.11671930578E+02 -0.28284919904E+02  0.10932472637E+03  0.14585641278E+03  0.91574705543E+02 0.  0.
          5    1    3    3  502    0 -0.47123385903E+01  0.41059675670E+02 -0.52244411792E+02  0.66746191386E+02  0.41800000000E+01 0. -1.
         -5    1    3    3    0  502  0.16384269168E+02 -0.12774755766E+02  0.58456736292E+02  0.62179587318E+02  0.41800000000E+01 0. -1.
        -11    1    4    4    0    0  0.35638118619E+02 -0.20564535916E+02  0.79172840104E+02  0.89226197085E+02  0.00000000000E+00 0. -1.
         11    1    4    4    0    0 -0.47310049197E+02 -0.77203839880E+01  0.30151886263E+02  0.56630215691E+02  0.00000000000E+00 0.  1.
</event>
<event>
 8    1  0.7016814E-009  0.1111076E+03  0.7561462E-02  0.1258532E+00
          1   -1    0    0  501    0  0.00000000000E+00  0.00000000000E+00  0.42233481088E+02  0.42233481088E+02  0.00000000000E+00 0. -1.
         -1   -1    0    0    0  501 -0.00000000000E+00 -0.00000000000E+00 -0.45939851263E+03  0.45939851263E+03  0.00000000000E+00 0.  1.
         25    2    1    2    0    0 -0.85425712434E+02  0.70367007558E+01 -0.19325961186E+03  0.24564805796E+03  0.12508646329E+03 0.  0.
         23    2    1    2    0    0  0.85425712434E+02 -0.70367007558E+01 -0.22390541967E+03  0.25598393575E+03  0.89705467517E+02 0.  0.
          5    1    3    3  502    0 -0.87048501903E+02  0.41495456548E+02 -0.74561594375E+02  0.12196810384E+03  0.41800000000E+01 0. -1.
         -5    1    3    3    0  502  0.16227894686E+01 -0.34458755792E+02 -0.11869801749E+03  0.12367995412E+03  0.41800000000E+01 0. -1.
        -11    1    4    4    0    0  0.47480947694E+02 -0.19022283820E+02 -0.32761999134E+02  0.60742376171E+02  0.00000000000E+00 0. -1.
         11    1    4    4    0    0  0.37944764740E+02  0.11985583065E+02 -0.19114342054E+03  0.19524155958E+03  0.00000000000E+00 0.  1.
</event>
<event>
 8    1  0.7016814E-009  0.1356990E+03  0.7561462E-02  0.1219236E+00
          1   -1    0    0  501    0  0.00000000000E+00  0.00000000000E+00  0.63570515582E+03  0.63570515582E+03  0.00000000000E+00 0. -1.
         -1   -1    0    0    0  501 -0.00000000000E+00 -0.00000000000E+00 -0.38168666961E+02  0.38168666961E+02  0.00000000000E+00 0.  1.
         25    2    1    2    0    0  0.10540255290E+03  0.33389837802E+02  0.29038959244E+03  0.33495784083E+03  0.12508421286E+03 0.  0.
         23    2    1    2    0    0 -0.10540255290E+03 -0.33389837802E+02  0.30714689641E+03  0.33891598195E+03  0.91105693675E+02 0.  0.
          5    1    3    3  502    0  0.42677724221E+02 -0.35749578831E+02  0.42880755868E+02  0.70396393054E+02  0.41800000000E+01 0.  1.
         -5    1    3    3    0  502  0.62724828678E+02  0.69139416632E+02  0.24750883658E+03  0.26456144777E+03  0.41800000000E+01 0.  1.
        -11    1    4    4    0    0 -0.81667569588E+02 -0.63181429145E+00  0.27609055636E+03  0.28791663103E+03  0.00000000000E+00 0.  1.
         11    1    4    4    0    0 -0.23734983311E+02 -0.32758023510E+02  0.31056340053E+02  0.50999350923E+02  0.00000000000E+00 0. -1.
</event>
<event>
 8    1  0.7016814E-009  0.1901528E+03  0.7561462E-02  0.1158324E+00
         -4   -1    0    0    0  501 -0.00000000000E+00  0.00000000000E+00  0.16900898165E+03  0.16900898165E+03  0.00000000000E+00 0.  1.
          4   -1    0    0  501    0  0.00000000000E+00 -0.00000000000E+00 -0.31559006169E+03  0.31559006169E+03  0.00000000000E+00 0. -1.
         25    2    1    2    0    0 -0.15815734776E+03 -0.79452246847E+02  0.26768910336E+02  0.21838226458E+03  0.12509129764E+03 0.  0.
         23    2    1    2    0    0  0.15815734776E+03  0.79452246847E+02 -0.17334999038E+03  0.26621677876E+03  0.97440997276E+02 0.  0.
          5    1    3    3  502    0 -0.87112177646E+02 -0.20549537403E+02  0.72539534044E+02  0.11528343932E+03  0.41800000000E+01 0.  1.
         -5    1    3    3    0  502 -0.71045170109E+02 -0.58902709444E+02 -0.45770623708E+02  0.10309882526E+03  0.41800000000E+01 0.  1.
        -11    1    4    4    0    0  0.74345088172E+02  0.86684821365E+02 -0.74199381483E+02  0.13618736580E+03  0.00000000000E+00 0.  1.
         11    1    4    4    0    0  0.83812259584E+02 -0.72325745173E+01 -0.99150608898E+02  0.13002941296E+03  0.00000000000E+00 0. -1.
</event>
<event>
 8    1  0.7016814E-009  0.1238913E+03  0.7561462E-02  0.1236812E+00
          1   -1    0    0  501    0  0.00000000000E+00  0.00000000000E+00  0.99195993276E+02  0.99195993276E+02  0.00000000000E+00 0. -1.
         -1   -1    0    0    0  501 -0.00000000000E+00 -0.00000000000E+00 -0.20566003176E+03  0.20566003176E+03  0.00000000000E+00 0.  1.
         25    2    1    2    0    0 -0.72221680522E+02 -0.55052491302E+02 -0.77319000216E+02  0.17283873628E+03  0.12509297754E+03 0.  0.
         23    2    1    2    0    0  0.72221680522E+02  0.55052491302E+02 -0.29145038272E+02  0.13201728876E+03  0.91281889434E+02 0.  0.
          5    1    3    3  502    0 -0.94566566019E+02 -0.19230486277E+02 -0.86234897271E+02  0.12948581744E+03  0.41800000000E+01 0.  1.
         -5    1    3    3    0  502  0.22344885496E+02 -0.35822005026E+02  0.89158970551E+01  0.43352918843E+02  0.41800000000E+01 0.  1.
        -11    1    4    4    0    0  0.87411066055E+00  0.34505573799E+02  0.22831950964E+02  0.41384739669E+02  0.00000000000E+00 0. -1.
         11    1    4    4    0    0  0.71347569862E+02  0.20546917503E+02 -0.51976989236E+02  0.90632549087E+02  0.00000000000E+00 0.  1.
</event>
<event>
 8    1  0.7016814E-009  0.1092800E+03  0.7561462E-02  0.1261909E+00
          2   -1    0    0  501    0  0.00000000000E+00  0.00000000000E+00  0.23927520557E+03  0.23927520557E+03  0.00000000000E+00 0. -1.
         -2   -1    0    0    0  501 -0.00000000000E+00 -0.00000000000E+00 -0.53481107362E+02  0.53481107362E+02  0.00000000000E+00 0.  1.
         25    2    1    2    0    0  0.13033416850E+02 -0.12386411065E+02  0.71543590159E+02  0.14523777629E+03  0.12510888551E+03 0.  0.
         23    2    1    2    0    0 -0.13033416850E+02  0.12386411065E+02  0.11425050805E+03  0.14751853664E+03  0.91570993933E+02 0.  0.
          5    1    3    3  502    0  0.68990867613E+02 -0.12721540465E+02  0.40143347629E+02  0.80935395005E+02  0.41800000000E+01 0.  1.
         -5    1    3    3    0  502 -0.55957450763E+02  0.33512940020E+00  0.31400242530E+02  0.64302381282E+02  0.41800000000E+01 0.  1.
        -11    1    4    4    0    0  0.27348462743E+02  0.36136776122E+02  0.67753814367E+02  0.81513093206E+02  0.00000000000E+00 0.  1.
         11    1    4    4    0    0 -0.40381879593E+02 -0.23750365057E+02  0.46496693680E+02  0.66005443434E+02  0.00000000000E+00 0. -1.
</event>
<event>
 8    1  0.7016814E-009  0.4540418E+03  0.7561462E-02  0.1026524E+00
          2   -1    0    0  501    0  0.00000000000E+00  0.00000000000E+00  0.14403133623E+04  0.14403133623E+04  0.00000000000E+00 0.  1.
         -2   -1    0    0    0  501 -0.00000000000E+00 -0.00000000000E+00 -0.16084176865E+03  0.16084176865E+03  0.00000000000E+00 0. -1.
         25    2    1    2    0    0 -0.44587577065E+03  0.29696650325E+02  0.88039374238E+03  0.99520251274E+03  0.12509119016E+03 0.  0.
         23    2    1    2    0    0  0.44587577065E+03 -0.29696650325E+02  0.39907785129E+03  0.60595261823E+03  0.90710254450E+02 0.  0.
          5    1    3    3  502    0 -0.60958983322E+02 -0.21018381074E+02  0.21829595508E+03  0.22765844240E+03  0.41800000000E+01 0.  1.
         -5    1    3    3    0  502 -0.38491678732E+03  0.50715031399E+02  0.66209778730E+03  0.76754407035E+03  0.41800000000E+01 0.  1.
        -11    1    4    4    0    0  0.35788391529E+02  0.21781637845E+02  0.27034276602E+02  0.49860814543E+02  0.00000000000E+00 0.  1.
         11    1    4    4    0    0  0.41008737912E+03 -0.51478288171E+02  0.37204357469E+03  0.55609180369E+03  0.00000000000E+00 0. -1.
</event>
<event>
 8    1  0.7016814E-009  0.1493979E+03  0.7561462E-02  0.1201215E+00
          1   -1    0    0  501    0  0.00000000000E+00  0.00000000000E+00  0.44002562457E+03  0.44002562457E+03  0.00000000000E+00 0. -1.
         -1   -1    0    0    0  501 -0.00000000000E+00 -0.00000000000E+00 -0.72721209495E+02  0.72721209495E+02  0.00000000000E+00 0.  1.
         25    2    1    2    0    0 -0.11940244714E+03  0.68843855994E+02  0.14498489180E+03  0.23593208499E+03  0.12508760525E+03 0.  0.
         23    2    1    2    0    0  0.11940244714E+03 -0.68843855994E+02  0.22231952328E+03  0.27681474908E+03  0.90576012203E+02 0.  0.
          5    1    3    3  502    0 -0.10858989592E+03  0.49159377752E+02  0.16632546335E+03  0.20467056964E+03  0.41800000000E+01 0.  1.
         -5    1    3    3    0  502 -0.10812551220E+02  0.19684478242E+02 -0.21340571557E+02  0.31261515349E+02  0.41800000000E+01 0.  1.
        -11    1    4    4    0    0  0.91886386145E+02 -0.10895791246E+02  0.86759145926E+02  0.12684232585E+03  0.00000000000E+00 0.  1.
         11    1    4    4    0    0  0.27516060991E+02 -0.57948064748E+02  0.13556037736E+03  0.14997242323E+03  0.00000000000E+00 0. -1.
</event>
<event>
 8    1  0.7016814E-009  0.9671846E+02  0.7561462E-02  0.1287352E+00
         -2   -1    0    0    0  501 -0.00000000000E+00  0.00000000000E+00  0.83110206745E+02  0.83110206745E+02  0.00000000000E+00 0.  1.
          2   -1    0    0  501    0  0.00000000000E+00 -0.00000000000E+00 -0.14750961772E+03  0.14750961772E+03  0.00000000000E+00 0. -1.
         25    2    1    2    0    0  0.31947390083E+01 -0.15209765573E+02 -0.58599086727E+02  0.13900685336E+03  0.12509000355E+03 0.  0.
         23    2    1    2    0    0 -0.31947390083E+01  0.15209765573E+02 -0.58003242451E+01  0.91612971106E+02  0.90098553747E+02 0.  0.
          5    1    3    3  502    0 -0.34774605050E+02 -0.48589515330E+02 -0.64398738367E+02  0.87948189633E+02  0.41800000000E+01 0. -1.
         -5    1    3    3    0  502  0.37969344058E+02  0.33379749757E+02  0.57996516406E+01  0.51058663724E+02  0.41800000000E+01 0. -1.
        -11    1    4    4    0    0  0.39094414097E+02  0.82024984150E+01 -0.22220314172E+02  0.45709917476E+02  0.00000000000E+00 0. -1.
         11    1    4    4    0    0 -0.42289153105E+02  0.70072671578E+01  0.16419989926E+02  0.45903053630E+02  0.00000000000E+00 0.  1.
</event>
<event>
 8    1  0.7016814E-009  0.9828656E+02  0.7561462E-02  0.1283941E+00
          2   -1    0    0  501    0  0.00000000000E+00  0.00000000000E+00  0.88110272428E+03  0.88110272428E+03  0.00000000000E+00 0. -1.
         -2   -1    0    0    0  501 -0.00000000000E+00 -0.00000000000E+00 -0.22890023700E+02  0.22890023700E+02  0.00000000000E+00 0.  1.
         25    2    1    2    0    0  0.25963048993E+02  0.33781353587E+02  0.73672324722E+03  0.74848063333E+03  0.12508739227E+03 0.  0.
         23    2    1    2    0    0 -0.25963048993E+02 -0.33781353587E+02  0.12148945336E+03  0.15551211466E+03  0.87229987755E+02 0.  0.
          5    1    3    3  502    0  0.46992024707E+02  0.64318973076E+02  0.63754749732E+03  0.64251806544E+03  0.41800000000E+01 0. -1.
         -5    1    3    3    0  502 -0.21028975714E+02 -0.30537619489E+02  0.99175749903E+02  0.10596256788E+03  0.41800000000E+01 0. -1.
        -11    1    4    4    0    0  0.51766405766E+01 -0.45817730717E+02  0.11151074025E+03  0.12066775563E+03  0.00000000000E+00 0. -1.
         11    1    4    4    0    0 -0.31139689570E+02  0.12036377131E+02  0.99787131064E+01  0.34844359030E+02  0.00000000000E+00 0.  1.
</event>
<event>
 8    1  0.7016814E-009  0.1380119E+03  0.7561462E-02  0.1216029E+00
         -1   -1    0    0    0  501 -0.00000000000E+00  0.00000000000E+00  0.17017700154E+02  0.17017700154E+02  0.00000000000E+00 0.  1.
          1   -1    0    0  501    0  0.00000000000E+00 -0.00000000000E+00 -0.15512648027E+04  0.15512648027E+04  0.00000000000E+00 0. -1.
         25    2    1    2    0    0  0.70177737429E+02  0.80192180742E+02 -0.10989406389E+04  0.11111583574E+04  0.12508663661E+03 0.  0.
         23    2    1    2    0    0 -0.70177737429E+02 -0.80192180742E+02 -0.43530646359E+03  0.45712414542E+03  0.90083663349E+02 0.  0.
          5    1    3    3  502    0  0.62554563313E+02  0.98673268417E+02 -0.10660597184E+04  0.10724505969E+04  0.41800000000E+01 0.  1.
         -5    1    3    3    0  502  0.76231741154E+01 -0.18481087675E+02 -0.32880920546E+02  0.38707760478E+02  0.41800000000E+01 0.  1.
        -11    1    4    4    0    0  0.14450501145E+02 -0.44606093571E+02 -0.12425625215E+03  0.13280864718E+03  0.00000000000E+00 0.  1.
         11    1    4    4    0    0 -0.84628238574E+02 -0.35586087171E+02 -0.31105021144E+03  0.32431549825E+03  0.00000000000E+00 0. -1.
</event>
<event>
 8    1  0.7016814E-009  0.1053190E+03  0.7561462E-02  0.1269492E+00
         -1   -1    0    0    0  501 -0.00000000000E+00  0.00000000000E+00  0.12284748602E+03  0.12284748602E+03  0.00000000000E+00 0.  1.
          1   -1    0    0  501    0  0.00000000000E+00 -0.00000000000E+00 -0.22593219408E+03  0.22593219408E+03  0.00000000000E+00 0. -1.
         25    2    1    2    0    0  0.10311820120E+01 -0.91828356817E+02  0.34168877179E+02  0.15889943515E+03  0.12509199763E+03 0.  0.
         23    2    1    2    0    0 -0.10311820120E+01  0.91828356817E+02 -0.13725358524E+03  0.18988024495E+03  0.93714728349E+02 0.  0.
          5    1    3    3  502    0  0.31976912349E+02 -0.37937284874E+02 -0.38682606762E+02  0.63052176592E+02  0.41800000000E+01 0. -1.
         -5    1    3    3    0  502 -0.30945730337E+02 -0.53891071943E+02  0.72851483941E+02  0.95847258561E+02  0.41800000000E+01 0. -1.
        -11    1    4    4    0    0 -0.13902508530E+02  0.14196857407E+02  0.10503118532E+02  0.22475453333E+02  0.00000000000E+00 0.  1.
         11    1    4    4    0    0  0.12871326518E+02  0.77631499410E+02 -0.14775670377E+03  0.16740479162E+03  0.00000000000E+00 0. -1.
</event>
<event>
 8    1  0.7016814E-009  0.1679621E+03  0.7561462E-02  0.1179990E+00
          2   -1    0    0  501    0  0.00000000000E+00  0.00000000000E+00  0.96775879569E+03  0.96775879569E+03  0.00000000000E+00 0.  1.
         -2   -1    0    0    0  501 -0.00000000000E+00 -0.00000000000E+00 -0.32382515815E+02  0.32382515815E+02  0.00000000000E+00 0. -1.
         25    2    1    2    0    0  0.92335933002E+01  0.13237643905E+03  0.61194853475E+03  0.63854277335E+03  0.12508830226E+03 0.  0.
         23    2    1    2    0    0 -0.92335933002E+01 -0.13237643905E+03  0.32342774512E+03  0.36159853815E+03  0.92407876372E+02 0.  0.
          5    1    3    3  502    0 -0.11226113643E+01 -0.23696874469E+02  0.55267933297E+02  0.60289459832E+02  0.41800000000E+01 0.  1.
         -5    1    3    3    0  502  0.10356204665E+02  0.15607331352E+03  0.55668060145E+03  0.57825331352E+03  0.41800000000E+01 0.  1.
        -11    1    4    4    0    0 -0.34502567651E+02 -0.12404791455E+03  0.29872776865E+03  0.32529462345E+03  0.00000000000E+00 0.  1.
         11    1    4    4    0    0  0.25268974351E+02 -0.83285244920E+01  0.24699976472E+02  0.36303914701E+02  0.00000000000E+00 0. -1.
</event>
<event>
 8    1  0.7016814E-009  0.1276154E+03  0.7561462E-02  0.1231037E+00
          2   -1    0    0  501    0  0.00000000000E+00  0.00000000000E+00  0.88707949678E+03  0.88707949678E+03  0.00000000000E+00 0. -1.
         -2   -1    0    0    0  501 -0.00000000000E+00 -0.00000000000E+00 -0.26542221512E+02  0.26542221512E+02  0.00000000000E+00 0.  1.
         25    2    1    2    0    0  0.77589322443E+02 -0.72622337740E+02  0.41134946489E+03  0.44288806512E+03  0.12508936433E+03 0.  0.
         23    2    1    2    0    0 -0.77589322443E+02  0.72622337740E+02  0.44918781039E+03  0.47073365318E+03  0.92338379552E+02 0.  0.
          5    1    3    3  502    0 -0.24642762265E+02 -0.29447097722E+01  0.19173913487E+02  0.31639349015E+02  0.41800000000E+01 0.  1.
         -5    1    3    3    0  502  0.10223208471E+03 -0.69677627968E+02  0.39217555140E+03  0.41124871610E+03  0.41800000000E+01 0.  1.
        -11    1    4    4    0    0 -0.10651793063E+02  0.99908468920E+01  0.25989265157E+01  0.14833480243E+02  0.00000000000E+00 0.  1.
         11    1    4    4    0    0 -0.66937529380E+02  0.62631490848E+02  0.44658888387E+03  0.45590017293E+03  0.00000000000E+00 0. -1.
</event>
<event>
 8    1  0.7016814E-009  0.2355607E+03  0.7561462E-02  0.1122786E+00
          4   -1    0    0  501    0  0.00000000000E+00  0.00000000000E+00  0.57263955889E+02  0.57263955889E+02  0.00000000000E+00 0. -1.
         -4   -1    0    0    0  501 -0.00000000000E+00 -0.00000000000E+00 -0.11884741553E+04  0.11884741553E+04  0.00000000000E+00 0.  1.
         25    2    1    2    0    0  0.87521377129E+02 -0.21435463853E+03 -0.45708272811E+03  0.52742924995E+03  0.12509632630E+03 0.  0.
         23    2    1    2    0    0 -0.87521377129E+02  0.21435463853E+03 -0.67412747130E+03  0.71830886124E+03  0.88948693411E+02 0.  0.
          5    1    3    3  502    0  0.22676881696E+02 -0.10871474062E+03 -0.33678467780E+03  0.35464704622E+03  0.41800000000E+01 0. -1.
         -5    1    3    3    0  502  0.64844495433E+02 -0.10563989790E+03 -0.12029805031E+03  0.17278220373E+03  0.41800000000E+01 0. -1.
        -11    1    4    4    0    0 -0.34497602531E+02  0.14277776765E+03 -0.30418237510E+03  0.33779060502E+03  0.00000000000E+00 0. -1.
         11    1    4    4    0    0 -0.53023774598E+02  0.71576870881E+02 -0.36994509619E+03  0.38051825622E+03  0.00000000000E+00 0.  1.
</event>
<event>
 8    1  0.7016814E-009  0.2331811E+03  0.7561462E-02  0.1124421E+00
         -1   -1    0    0    0  501 -0.00000000000E+00  0.00000000000E+00  0.10283997419E+03  0.10283997419E+03  0.00000000000E+00 0.  1.
          1   -1    0    0  501    0  0.00000000000E+00 -0.00000000000E+00 -0.11226356740E+04  0.11226356740E+04  0.00000000000E+00 0. -1.
         25    2    1    2    0    0 -0.10661165007E+03 -0.19033931661E+03 -0.94095591691E+03  0.97398223842E+03  0.12509302061E+03 0.  0.
         23    2    1    2    0    0  0.10661165007E+03  0.19033931661E+03 -0.78839782940E+02  0.25149340981E+03  0.97150009902E+02 0.  0.
          5    1    3    3  502    0 -0.25985567553E+02  0.13043293466E+02 -0.69075908918E+02  0.75062179680E+02  0.41800000000E+01 0. -1.
         -5    1    3    3    0  502 -0.80626082520E+02 -0.20338261008E+03 -0.87188000799E+03  0.89892005874E+03  0.41800000000E+01 0. -1.
        -11    1    4    4    0    0  0.65843800578E+02  0.11887803551E+03  0.23369633545E+01  0.13591488071E+03  0.00000000000E+00 0.  1.
         11    1    4    4    0    0  0.40767849494E+02  0.71461281101E+02 -0.81176746295E+02  0.11557852910E+03  0.00000000000E+00 0. -1.
</event>
<event>
 8    1  0.7016814E-009  0.2753419E+03  0.7561462E-02  0.1098261E+00
         -1   -1    0    0    0  501 -0.00000000000E+00  0.00000000000E+00  0.60249357320E+02  0.60249357320E+02  0.00000000000E+00 0.  1.
          1   -1    0    0  501    0  0.00000000000E+00 -0.00000000000E+00 -0.12858614100E+04  0.12858614100E+04  0.00000000000E+00 0. -1.
         25    2    1    2    0    0 -0.16572173493E+03  0.19519831957E+03 -0.61834810680E+03  0.68085924846E+03  0.12509539419E+03 0.  0.
         23    2    1    2    0    0  0.16572173493E+03 -0.19519831957E+03 -0.60726394584E+03  0.66525151881E+03  0.90686305341E+02 0.  0.
          5    1    3    3  502    0 -0.18345920709E+03  0.16022881987E+03 -0.55681179285E+03  0.60777249069E+03  0.41800000000E+01 0.  1.
         -5    1    3    3    0  502  0.17737472157E+02  0.34969499695E+02 -0.61536313945E+02  0.73086757770E+02  0.41800000000E+01 0.  1.
        -11    1    4    4    0    0  0.16340110612E+03 -0.14825041531E+03 -0.53861708476E+03  0.58205366687E+03  0.00000000000E+00 0. -1.
         11    1    4    4    0    0  0.23206288108E+01 -0.46947904252E+02 -0.68646861077E+02  0.83197851940E+02  0.00000000000E+00 0.  1.
</event>
<event>
 8    1  0.7016814E-009  0.1169617E+03  0.7561462E-02  0.1248195E+00
          1   -1    0    0  501    0  0.00000000000E+00  0.00000000000E+00  0.30366334982E+03  0.30366334982E+03  0.00000000000E+00 0. -1.
         -1   -1    0    0    0  501 -0.00000000000E+00 -0.00000000000E+00 -0.60976165965E+02  0.60976165965E+02  0.00000000000E+00 0.  1.
         25    2    1    2    0    0 -0.15579327069E+02 -0.74531373704E+02  0.18134406113E+03  0.23308669346E+03  0.12508435979E+03 0.  0.
         23    2    1    2    0    0  0.15579327069E+02  0.74531373704E+02  0.61343122727E+02  0.13155282232E+03  0.88008665808E+02 0.  0.
          5    1    3    3  502    0 -0.34763199429E+02  0.15648033545E+02  0.10982056450E+03  0.11632441607E+03  0.41800000000E+01 0. -1.
         -5    1    3    3    0  502  0.19183872360E+02 -0.90179407249E+02  0.71523496632E+02  0.11676227739E+03  0.41800000000E+01 0. -1.
        -11    1    4    4    0    0 -0.19413334299E+02 -0.16128272806E+01  0.40889759980E+02  0.45292949029E+02  0.00000000000E+00 0. -1.
         11    1    4    4    0    0  0.34992661369E+02  0.76144200984E+02  0.20453362747E+02  0.86259873295E+02  0.00000000000E+00 0.  1.
</event>
<event>
 8    1  0.7016814E-009  0.1043964E+03  0.7561462E-02  0.1271314E+00
          3   -1    0    0  501    0  0.00000000000E+00  0.00000000000E+00  0.38203763852E+03  0.38203763852E+03  0.00000000000E+00 0.  1.
         -3   -1    0    0    0  501 -0.00000000000E+00 -0.00000000000E+00 -0.45855015247E+02  0.45855015247E+02  0.00000000000E+00 0. -1.
         25    2    1    2    0    0  0.64340304074E+02  0.20908637417E+02  0.23819521463E+03  0.27741635609E+03  0.12508408573E+03 0.  0.
         23    2    1    2    0    0 -0.64340304074E+02 -0.20908637417E+02  0.97987408642E+02  0.15047629768E+03  0.92004011135E+02 0.  0.
          5    1    3    3  502    0 -0.16119390207E+01 -0.44921977086E+02  0.10976792042E+03  0.11868888375E+03  0.41800000000E+01 0. -1.
         -5    1    3    3    0  502  0.65952243095E+02  0.65830614503E+02  0.12842729421E+03  0.15872747233E+03  0.41800000000E+01 0. -1.
        -11    1    4    4    0    0 -0.23547505639E+02 -0.17686218760E+02 -0.12995816084E+02  0.32189728044E+02  0.00000000000E+00 0. -1.
         11    1    4    4    0    0 -0.40792798435E+02 -0.32224186573E+01  0.11098322473E+03  0.11828656964E+03  0.00000000000E+00 0.  1.
</event>
<event>
 8    1  0.7016814E-009  0.1102416E+03  0.7561462E-02  0.1260123E+00
          1   -1    0    0  501    0  0.00000000000E+00  0.00000000000E+00  0.46542539089E+03  0.46542539089E+03  0.00000000000E+00 0. -1.
         -1   -1    0    0    0  501 -0.00000000000E+00 -0.00000000000E+00 -0.47048208828E+02  0.47048208828E+02  0.00000000000E+00 0.  1.
         25    2    1    2    0    0 -0.94242987131E+02 -0.16995433472E+02  0.18063285876E+03  0.23967875871E+03  0.12508833811E+03 0.  0.
         23    2    1    2    0    0  0.94242987131E+02  0.16995433472E+02  0.23774432330E+03  0.27279484101E+03  0.93402765680E+02 0.  0.
          5    1    3    3  502    0 -0.16237896103E+02 -0.14235857282E+02 -0.16577174271E+02  0.27542766912E+02  0.41800000000E+01 0.  1.
         -5    1    3    3    0  502 -0.78005091029E+02 -0.27595761907E+01  0.19721003303E+03  0.21213599180E+03  0.41800000000E+01 0.  1.
        -11    1    4    4    0    0  0.45187240088E+02  0.45052695183E+02  0.65187717340E+02  0.91219901896E+02  0.00000000000E+00 0.  1.
         11    1    4    4    0    0  0.49055747043E+02 -0.28057261711E+02  0.17255660596E+03  0.18157493911E+03  0.00000000000E+00 0. -1.
</event>
<event>
 8    1  0.7016814E-009  0.1822115E+03  0.7561462E-02  0.1165680E+00
          3   -1    0    0  501    0  0.00000000000E+00  0.00000000000E+00  0.71076774666E+02  0.71076774666E+02  0.00000000000E+00 0. -1.
         -3   -1    0    0    0  501 -0.00000000000E+00 -0.00000000000E+00 -0.72648455842E+03  0.72648455842E+03  0.00000000000E+00 0.  1.
         25    2    1    2    0    0 -0.90102625172E+02  0.12441204228E+03 -0.56283062423E+03  0.59667802585E+03  0.12509802409E+03 0.  0.
         23    2    1    2    0    0  0.90102625172E+02 -0.12441204228E+03 -0.92577159519E+02  0.20088330723E+03  0.90480568811E+02 0.  0.
          5    1    3    3  502    0 -0.11674169119E+03  0.95868473071E+02 -0.50218876699E+03  0.52443342445E+03  0.41800000000E+01 0. -1.
         -5    1    3    3    0  502  0.26639066017E+02  0.28543569211E+02 -0.60641857247E+02  0.72244601403E+02  0.41800000000E+01 0. -1.
        -11    1    4    4    0    0 -0.85426228528E+01 -0.49343461875E+02 -0.77409059966E+01  0.50672233627E+02  0.00000000000E+00 0.  1.
         11    1    4    4    0    0  0.98645248025E+02 -0.75068580407E+02 -0.84836253522E+02  0.15021107361E+03  0.00000000000E+00 0. -1.
</event>
<event>
 8    1  0.7016814E-009  0.9995266E+02  0.7561462E-02  0.1280396E+00
         -1   -1    0    0    0  501 -0.00000000000E+00  0.00000000000E+00  0.43879408862E+02  0.43879408862E+02  0.00000000000E+00 0.  1.
          1   -1    0    0  501    0  0.00000000000E+00 -0.00000000000E+00 -0.38926146806E+03  0.38926146806E+03  0.00000000000E+00 0. -1.
         25    2    1    2    0    0 -0.30378293439E+01  0.42788491910E+02 -0.97483366462E+02  0.16428621549E+03  0.12508745107E+03 0.  0.
         23    2    1    2    0    0  0.30378293439E+01 -0.42788491910E+02 -0.24789869274E+03  0.26885466144E+03  0.94810250858E+02 0.  0.
          5    1    3    3  502    0 -0.28317492152E+02  0.60436250673E+02 -0.54011723799E+01  0.67089983010E+02  0.41800000000E+01 0. -1.
         -5    1    3    3    0  502  0.25279662808E+02 -0.17647758763E+02 -0.92082194082E+02  0.97196232478E+02  0.41800000000E+01 0. -1.
        -11    1    4    4    0    0  0.86029004118E+01 -0.71833812476E+02 -0.14911188613E+03  0.16573611886E+03  0.00000000000E+00 0. -1.
         11    1    4    4    0    0 -0.55650710679E+01  0.29045320566E+02 -0.98786806605E+02  0.10311854257E+03  0.00000000000E+00 0.  1.
</event>
<event>
 8    1  0.7016814E-009  0.1073307E+03  0.7561462E-02  0.1265594E+00
         -2   -1    0    0    0  501 -0.00000000000E+00  0.00000000000E+00  0.62794606111E+02  0.62794606111E+02  0.00000000000E+00 0.  1.
          2   -1    0    0  501    0  0.00000000000E+00 -0.00000000000E+00 -0.22625273632E+03  0.22625273632E+03  0.00000000000E+00 0. -1.
         25    2    1    2    0    0  0.48669645829E+02  0.42506855426E+01 -0.83332365098E+02  0.15804151915E+03  0.12508411550E+03 0.  0.
         23    2    1    2    0    0 -0.48669645829E+02 -0.42506855426E+01 -0.80125765112E+02  0.13100582328E+03  0.91408887672E+02 0.  0.
          5    1    3    3  502    0  0.41567798142E+02  0.51703995230E+02 -0.87286498517E+02  0.10971595230E+03  0.41800000000E+01 0. -1.
         -5    1    3    3    0  502  0.71018476869E+01 -0.47453309687E+02  0.39541334188E+01  0.48325566856E+02  0.41800000000E+01 0. -1.
        -11    1    4    4    0    0  0.13977619995E+02  0.26708769410E+02 -0.93898461545E+01  0.31573745975E+02  0.00000000000E+00 0.  1.
         11    1    4    4    0    0 -0.62647265824E+02 -0.30959454952E+02 -0.70735918958E+02  0.99432077304E+02  0.00000000000E+00 0. -1.
</event>
<event>
 8    1  0.7016814E-009  0.7150811E+02  0.7561462E-02  0.1355038E+00
          1   -1    0    0  501    0  0.00000000000E+00  0.00000000000E+00  0.36044292636E+03  0.36044292636E+03  0.00000000000E+00 0. -1.
         -1   -1    0    0    0  501 -0.00000000000E+00 -0.00000000000E+00 -0.41425555057E+02  0.41425555057E+02  0.00000000000E+00 0.  1.
         25    2    1    2    0    0  0.24775620213E+02  0.37008348270E+02  0.20863351161E+03  0.24730394910E+03  0.12509137410E+03 0.  0.
         23    2    1    2    0    0 -0.24775620213E+02 -0.37008348270E+02  0.11038385969E+03  0.15456453231E+03  0.98600958267E+02 0.  0.
          5    1    3    3  502    0  0.89874254948E+01  0.36205633541E+02 -0.49100477871E+00  0.37541113500E+02  0.41800000000E+01 0.  1.
         -5    1    3    3    0  502  0.15788194719E+02  0.80271472943E+00  0.20912451639E+03  0.20976283560E+03  0.41800000000E+01 0.  1.
        -11    1    4    4    0    0 -0.20844767590E+02 -0.61181907443E+02  0.31376996483E+02  0.71848772033E+02  0.00000000000E+00 0.  1.
         11    1    4    4    0    0 -0.39308526238E+01  0.24173559173E+02  0.79006863206E+02  0.82715760282E+02  0.00000000000E+00 0. -1.
</event>
<event>
 8    1  0.7016814E-009  0.1035080E+03  0.7561462E-02  0.1273087E+00
         -1   -1    0    0    0  501 -0.00000000000E+00  0.00000000000E+00  0.25678875787E+02  0.25678875787E+02  0.00000000000E+00 0.  1.
          1   -1    0    0  501    0  0.00000000000E+00 -0.00000000000E+00 -0.49818060172E+03  0.49818060172E+03  0.00000000000E+00 0. -1.
         25    2    1    2    0    0  0.19367144413E+02  0.27356524583E+02 -0.25909773784E+03  0.28965996244E+03  0.12509112826E+03 0.  0.
         23    2    1    2    0    0 -0.19367144413E+02 -0.27356524583E+02 -0.21340398810E+03  0.23419951507E+03  0.90469248929E+02 0.  0.
          5    1    3    3  502    0  0.38168544591E+02 -0.42172834256E+02 -0.10432543367E+03  0.11889766295E+03  0.41800000000E+01 0. -1.
         -5    1    3    3    0  502 -0.18801400178E+02  0.69529358839E+02 -0.15477230417E+03  0.17076229949E+03  0.41800000000E+01 0. -1.
        -11    1    4    4    0    0  0.26129862603E+02 -0.32086338924E+01 -0.15102823866E+03  0.15330555738E+03  0.00000000000E+00 0. -1.
         11    1    4    4    0    0 -0.45497007016E+02 -0.24147890691E+02 -0.62375749436E+02  0.80893957685E+02  0.00000000000E+00 0.  1.
</event>
<event>
 8    1  0.7016814E-009  0.2020226E+03  0.7561462E-02  0.1148044E+00
         -2   -1    0    0    0  501 -0.00000000000E+00  0.00000000000E+00  0.44412499179E+02  0.44412499179E+02  0.00000000000E+00 0.  1.
          2   -1    0    0  501    0  0.00000000000E+00 -0.00000000000E+00 -0.11931244621E+04  0.11931244621E+04  0.00000000000E+00 0. -1.
         25    2    1    2    0    0  0.87645221202E+01 -0.18225829831E+03 -0.35684577947E+03  0.41985929831E+03  0.12509202971E+03 0.  0.
         23    2    1    2    0    0 -0.87645221202E+01  0.18225829831E+03 -0.79186618348E+03  0.81767766300E+03  0.90828431006E+02 0.  0.
          5    1    3    3  502    0  0.28464116280E+02 -0.17716498426E+03 -0.23213822453E+03  0.29343357894E+03  0.41800000000E+01 0. -1.
         -5    1    3    3    0  502 -0.19699594160E+02 -0.50933140540E+01 -0.12470755494E+03  0.12642571936E+03  0.41800000000E+01 0. -1.
        -11    1    4    4    0    0 -0.38234229020E+02  0.29715243048E+02 -0.19495301473E+03  0.20087690233E+03  0.00000000000E+00 0. -1.
         11    1    4    4    0    0  0.29469706900E+02  0.15254305526E+03 -0.59691316876E+03  0.61680076067E+03  0.00000000000E+00 0.  1.
</event>
<event>
 8    1  0.7016814E-009  0.8154870E+02  0.7561462E-02  0.1324713E+00
          2   -1    0    0  501    0  0.00000000000E+00  0.00000000000E+00  0.41858597595E+03  0.41858597595E+03  0.00000000000E+00 0.  1.
         -2   -1    0    0    0  501 -0.00000000000E+00 -0.00000000000E+00 -0.41333872214E+02  0.41333872214E+02  0.00000000000E+00 0. -1.
         25    2    1    2    0    0 -0.49791639729E+02 -0.23390804915E+02  0.12050556920E+03  0.18219615011E+03  0.12508999866E+03 0.  0.
         23    2    1    2    0    0  0.49791639729E+02  0.23390804915E+02  0.25674653454E+03  0.27772369806E+03  0.90472826443E+02 0.  0.
          5    1    3    3  502    0 -0.26413971394E+02 -0.24477135073E+02  0.14416656878E+03  0.14865496958E+03  0.41800000000E+01 0.  1.
         -5    1    3    3    0  502 -0.23377668335E+02  0.10863301579E+01 -0.23660999582E+02  0.33541180528E+02  0.41800000000E+01 0.  1.
        -11    1    4    4    0    0  0.25883708689E+02  0.56549604583E+02  0.18467733336E+03  0.19486801074E+03  0.00000000000E+00 0.  1.
         11    1    4    4    0    0  0.23907931040E+02 -0.33158799668E+02  0.72069201174E+02  0.82855687311E+02  0.00000000000E+00 0. -1.
</event>
<event>
 8    1  0.7016814E-009  0.1233811E+03  0.7561462E-02  0.1237621E+00
         -1   -1    0    0    0  501 -0.00000000000E+00  0.00000000000E+00  0.13172040731E+02  0.13172040731E+02  0.00000000000E+00 0.  1.
          1   -1    0    0  501    0  0.00000000000E+00 -0.00000000000E+00 -0.16457615438E+04  0.16457615438E+04  0.00000000000E+00 0. -1.
         25    2    1    2    0    0  0.82590430686E+02 -0.45267060172E+02 -0.10366634325E+04  0.10484216749E+04  0.12508657022E+03 0.  0.
         23    2    1    2    0    0 -0.82590430686E+02  0.45267060172E+02 -0.59592607059E+03  0.61051190969E+03  0.93416402705E+02 0.  0.
          5    1    3    3  502    0  0.95203523927E+01  0.15812144351E+02 -0.20899483923E+02  0.28194358424E+02  0.41800000000E+01 0.  1.
         -5    1    3    3    0  502  0.73070078293E+02 -0.61079204524E+02 -0.10157639486E+04  0.10202273165E+04  0.41800000000E+01 0.  1.
        -11    1    4    4    0    0  0.17527576756E+02  0.24723229220E+02 -0.14856269409E+03  0.15162232054E+03  0.00000000000E+00 0.  1.
         11    1    4    4    0    0 -0.10011800744E+03  0.20543830952E+02 -0.44736337650E+03  0.45888958915E+03  0.00000000000E+00 0. -1.
</event>
<event>
 8    1  0.7016814E-009  0.1188220E+03  0.7561462E-02  0.1245053E+00
         -2   -1    0    0    0  501 -0.00000000000E+00  0.00000000000E+00  0.10879714005E+03  0.10879714005E+03  0.00000000000E+00 0.  1.
          2   -1    0    0  501    0  0.00000000000E+00 -0.00000000000E+00 -0.17652677497E+03  0.17652677497E+03  0.00000000000E+00 0. -1.
         25    2    1    2    0    0  0.60985992014E+02 -0.35742565168E+02 -0.83977182275E+02  0.16642044908E+03  0.12508707584E+03 0.  0.
         23    2    1    2    0    0 -0.60985992014E+02  0.35742565168E+02  0.16247547350E+02  0.11890346594E+03  0.94219049188E+02 0.  0.
          5    1    3    3  502    0 -0.32991250289E+02 -0.72579684235E+01 -0.53692324809E+02  0.63572311934E+02  0.41800000000E+01 0.  1.
         -5    1    3    3    0  502  0.93977242303E+02 -0.28484596745E+02 -0.30284857466E+02  0.10284813715E+03  0.41800000000E+01 0.  1.
        -11    1    4    4    0    0 -0.57558774698E+01 -0.23575894335E+02 -0.18703058463E+02  0.30639146774E+02  0.00000000000E+00 0. -1.
         11    1    4    4    0    0 -0.55230114544E+02  0.59318459503E+02  0.34950605813E+02  0.88264319162E+02  0.00000000000E+00 0.  1.
</event>
<event>
 8    1  0.7016814E-009  0.3262818E+03  0.7561462E-02  0.1072794E+00
         -2   -1    0    0    0  501 -0.00000000000E+00  0.00000000000E+00  0.20559853918E+03  0.20559853918E+03  0.00000000000E+00 0.  1.
          2   -1    0    0  501    0  0.00000000000E+00 -0.00000000000E+00 -0.67479745406E+03  0.67479745406E+03  0.00000000000E+00 0. -1.
         25    2    1    2    0    0  0.30893144015E+03  0.67526378548E+02 -0.43164115930E+03  0.54950960960E+03  0.12509306188E+03 0.  0.
         23    2    1    2    0    0 -0.30893144015E+03 -0.67526378548E+02 -0.37557755586E+02  0.33088638364E+03  0.89870837109E+02 0.  0.
          5    1    3    3  502    0  0.22294621829E+03  0.98648155559E+02 -0.35182646935E+03  0.42806052350E+03  0.41800000000E+01 0. -1.
         -5    1    3    3    0  502  0.85985221862E+02 -0.31121777010E+02 -0.79814689943E+02  0.12144908610E+03  0.41800000000E+01 0. -1.
        -11    1    4    4    0    0 -0.27317013947E+03 -0.67684530980E+02 -0.34267322644E+01  0.28145135162E+03  0.00000000000E+00 0.  1.
         11    1    4    4    0    0 -0.35761300676E+02  0.15815243169E+00 -0.34131023321E+02  0.49435032023E+02  0.00000000000E+00 0. -1.
</event>
<event>
 8    1  0.7016814E-009  0.1560928E+03  0.7561462E-02  0.1193180E+00
         -1   -1    0    0    0  501 -0.00000000000E+00  0.00000000000E+00  0.80858088969E+03  0.80858088969E+03  0.00000000000E+00 0.  1.
          1   -1    0    0  501    0  0.00000000000E+00 -0.00000000000E+00 -0.35583645306E+02  0.35583645306E+02  0.00000000000E+00 0. -1.
         25    2    1    2    0    0 -0.89407872656E+02 -0.96269819756E+02  0.37791405932E+03  0.41919934684E+03  0.12508960895E+03 0.  0.
         23    2    1    2    0    0  0.89407872656E+02  0.96269819756E+02  0.39508318506E+03  0.42496518816E+03  0.85106064063E+02 0.  0.
          5    1    3    3  502    0 -0.20171057187E+02 -0.10825964761E+03  0.24959927384E+03  0.27284481441E+03  0.41800000000E+01 0. -1.
         -5    1    3    3    0  502 -0.69236815469E+02  0.11989827857E+02  0.12831478548E+03  0.14635453242E+03  0.41800000000E+01 0. -1.
        -11    1    4    4    0    0  0.13199231762E+02  0.10577354459E+02  0.39532709492E+01  0.17370333838E+02  0.00000000000E+00 0. -1.
         11    1    4    4    0    0  0.76208640894E+02  0.85692465297E+02  0.39112991411E+03  0.40759485432E+03  0.00000000000E+00 0.  1.
</event>
<event>
 8    1  0.7016814E-009  0.7954352E+02  0.7561462E-02  0.1330352E+00
         -1   -1    0    0    0  501 -0.00000000000E+00  0.00000000000E+00  0.15965246604E+03  0.15965246604E+03  0.00000000000E+00 0.  1.
          1   -1    0    0  501    0  0.00000000000E+00 -0.00000000000E+00 -0.90708915083E+02  0.90708915083E+02  0.00000000000E+00 0. -1.
         25    2    1    2    0    0 -0.27345272655E+02  0.42592405209E+02  0.49440654541E+02  0.14371628545E+03  0.12509242768E+03 0.  0.
         23    2    1    2    0    0  0.27345272655E+02 -0.42592405209E+02  0.19502896413E+02  0.10664509567E+03  0.91820131476E+02 0.  0.
          5    1    3    3  502    0 -0.95953636382E+01  0.22053010056E+01 -0.41338003538E+02  0.42699382810E+02  0.41800000000E+01 0. -1.
         -5    1    3    3    0  502 -0.17749909017E+02  0.40387104204E+02  0.90778658079E+02  0.10101690264E+03  0.41800000000E+01 0. -1.
        -11    1    4    4    0    0  0.61101086263E+02 -0.25060128351E+02  0.61255313286E+01  0.66324014576E+02  0.00000000000E+00 0. -1.
         11    1    4    4    0    0 -0.33755813607E+02 -0.17532276858E+02  0.13377365085E+02  0.40321081096E+02  0.00000000000E+00 0.  1.
</event>
<event>
 8    1  0.7016814E-009  0.2658512E+03  0.7561462E-02  0.1103678E+00
         -1   -1    0    0    0  501 -0.00000000000E+00  0.00000000000E+00  0.35103119432E+03  0.35103119432E+03  0.00000000000E+00 0.  1.
          1   -1    0    0  501    0  0.00000000000E+00 -0.00000000000E+00 -0.21533299733E+03  0.21533299733E+03  0.00000000000E+00 0. -1.
         25    2    1    2    0    0 -0.10949970106E+03 -0.22299196154E+03  0.11594547788E+03  0.30133945769E+03  0.12508603229E+03 0.  0.
         23    2    1    2    0    0  0.10949970106E+03  0.22299196154E+03  0.19752719115E+02  0.26502473395E+03  0.90179489070E+02 0.  0.
          5    1    3    3  502    0 -0.81355870041E+02 -0.23380658975E+03  0.10586350633E+03  0.26927468016E+03  0.41800000000E+01 0. -1.
         -5    1    3    3    0  502 -0.28143831023E+02  0.10814628209E+02  0.10081971553E+02  0.32064777535E+02  0.41800000000E+01 0. -1.
        -11    1    4    4    0    0  0.45285434082E+02  0.42529487518E+02 -0.27182182094E+02  0.67811495131E+02  0.00000000000E+00 0. -1.
         11    1    4    4    0    0  0.64214266982E+02  0.18046247403E+03  0.46934901209E+02  0.19721323882E+03  0.00000000000E+00 0.  1.
</event>
<event>
 8    1  0.7016814E-009  0.2501020E+03  0.7561462E-02  0.1113240E+00
         -2   -1    0    0    0  501 -0.00000000000E+00  0.00000000000E+00  0.37744608406E+02  0.37744608406E+02  0.00000000000E+00 0.  1.
          2   -1    0    0  501    0  0.00000000000E+00 -0.00000000000E+00 -0.17128060908E+04  0.17128060908E+04  0.00000000000E+00 0. -1.
         25    2    1    2    0    0  0.85720458800E+02 -0.21092624788E+03 -0.86124094838E+03  0.89956815272E+03  0.12509600761E+03 0.  0.
         23    2    1    2    0    0 -0.85720458800E+02  0.21092624788E+03 -0.81382053403E+03  0.85098254650E+03  0.10014765967E+03 0.  0.
          5    1    3    3  502    0  0.20278202136E+02 -0.18824598399E+03 -0.59353223658E+03  0.62301343824E+03  0.41800000000E+01 0.  1.
         -5    1    3    3    0  502  0.65442256664E+02 -0.22680263896E+02 -0.26770871180E+03  0.27655471448E+03  0.41800000000E+01 0.  1.
        -11    1    4    4    0    0 -0.18299998729E+02  0.14827333230E+03 -0.59753733111E+03  0.61593078596E+03  0.00000000000E+00 0. -1.
         11    1    4    4    0    0 -0.67420460071E+02  0.62652915582E+02 -0.21628320292E+03  0.23505176054E+03  0.00000000000E+00 0.  1.
</event>
<event>
 8    1  0.7016814E-009  0.1219828E+03  0.7561462E-02  0.1239861E+00
         -3   -1    0    0    0  501 -0.00000000000E+00  0.00000000000E+00  0.95876441160E+02  0.95876441160E+02  0.00000000000E+00 0.  1.
          3   -1    0    0  501    0  0.00000000000E+00 -0.00000000000E+00 -0.17357996631E+03  0.17357996631E+03  0.00000000000E+00 0. -1.
         25    2    1    2    0    0 -0.35868858354E+02  0.64341533923E+02 -0.32819086389E+02  0.14883082580E+03  0.12508842589E+03 0.  0.
         23    2    1    2    0    0  0.35868858354E+02 -0.64341533923E+02 -0.44884438763E+02  0.12062558167E+03  0.84317911042E+02 0.  0.
          5    1    3    3  502    0  0.38986610624E+02  0.80159602692E+01  0.16012143407E+02  0.43105365831E+02  0.41800000000E+01 0.  1.
         -5    1    3    3    0  502 -0.74855468977E+02  0.56325573653E+02 -0.48831229796E+02  0.10572545997E+03  0.41800000000E+01 0.  1.
        -11    1    4    4    0    0  0.61118019587E+02 -0.57727104495E+02 -0.43071441762E+02  0.94461526597E+02  0.00000000000E+00 0. -1.
         11    1    4    4    0    0 -0.25249161233E+02 -0.66144294279E+01 -0.18129970017E+01  0.26164055071E+02  0.00000000000E+00 0.  1.
</event>
<event>
 8    1  0.7016814E-009  0.8991829E+02  0.7561462E-02  0.1303050E+00
         -2   -1    0    0    0  501 -0.00000000000E+00  0.00000000000E+00  0.15658936804E+03  0.15658936804E+03  0.00000000000E+00 0.  1.
          2   -1    0    0  501    0  0.00000000000E+00 -0.00000000000E+00 -0.10900099339E+03  0.10900099339E+03  0.00000000000E+00 0. -1.
         25    2    1    2    0    0 -0.31215741770E+02 -0.34276474513E+02 -0.29769593761E+02  0.13668590006E+03  0.12508999690E+03 0.  0.
         23    2    1    2    0    0  0.31215741770E+02  0.34276474513E+02  0.77357968411E+02  0.12890446137E+03  0.92102147881E+02 0.  0.
          5    1    3    3  502    0 -0.79585592750E+02 -0.27614153264E+02 -0.20730855606E+02  0.86854181292E+02  0.41800000000E+01 0.  1.
         -5    1    3    3    0  502  0.48369850980E+02 -0.66623212490E+01 -0.90387381545E+01  0.49831718771E+02  0.41800000000E+01 0.  1.
        -11    1    4    4    0    0  0.19511268813E+02  0.18910184720E+02  0.97370444310E+02  0.10109049472E+03  0.00000000000E+00 0.  1.
         11    1    4    4    0    0  0.11704472957E+02  0.15366289793E+02 -0.20012475899E+02  0.27813966650E+02  0.00000000000E+00 0. -1.
</event>
<event>
 8    1  0.7016814E-009  0.9877964E+02  0.7561462E-02  0.1282883E+00
         -2   -1    0    0    0  501 -0.00000000000E+00  0.00000000000E+00  0.24647039598E+03  0.24647039598E+03  0.00000000000E+00 0.  1.
          2   -1    0    0  501    0  0.00000000000E+00 -0.00000000000E+00 -0.48549502059E+02  0.48549502059E+02  0.00000000000E+00 0. -1.
         25    2    1    2    0    0 -0.20356965130E+02 -0.82229989776E+01  0.11329603263E+03  0.17019211370E+03  0.12508933134E+03 0.  0.
         23    2    1    2    0    0  0.20356965130E+02  0.82229989776E+01  0.84624861295E+02  0.12482778434E+03  0.89098736534E+02 0.  0.
          5    1    3    3  502    0  0.29896192505E+01  0.52797070298E+02  0.21038306126E+02  0.57066199978E+02  0.41800000000E+01 0.  1.
         -5    1    3    3    0  502 -0.23346584381E+02 -0.61020069276E+02  0.92257726504E+02  0.11312591373E+03  0.41800000000E+01 0.  1.
        -11    1    4    4    0    0  0.49451423589E+02  0.67916104736E+01  0.81446304833E+02  0.95525231425E+02  0.00000000000E+00 0.  1.
         11    1    4    4    0    0 -0.29094458458E+02  0.14313885040E+01  0.31785564617E+01  0.29302552913E+02  0.00000000000E+00 0. -1.
</event>
<event>
 8    1  0.7016814E-009  0.1096564E+03  0.7561462E-02  0.1261207E+00
          1   -1    0    0  501    0  0.00000000000E+00  0.00000000000E+00  0.33800285704E+03  0.33800285704E+03  0.00000000000E+00 0. -1.
         -1   -1    0    0    0  501 -0.00000000000E+00 -0.00000000000E+00 -0.51936854308E+02  0.51936854308E+02  0.00000000000E+00 0.  1.
         25    2    1    2    0    0  0.11323625229E+02  0.64817067408E+02  0.99085661904E+02  0.17261201439E+03  0.12508981733E+03 0.  0.
         23    2    1    2    0    0 -0.11323625229E+02 -0.64817067408E+02  0.18698034083E+03  0.21732769696E+03  0.89107818364E+02 0.  0.
          5    1    3    3  502    0 -0.22153252251E+02 -0.31670944825E+02  0.22806195926E+02  0.45071169321E+02  0.41800000000E+01 0.  1.
         -5    1    3    3    0  502  0.33476877480E+02  0.96488012233E+02  0.76279465978E+02  0.12754084507E+03  0.41800000000E+01 0.  1.
        -11    1    4    4    0    0 -0.25221611582E+02 -0.22922119934E+02  0.10874540730E+02  0.35774416964E+02  0.00000000000E+00 0.  1.
         11    1    4    4    0    0  0.13897986352E+02 -0.41894947474E+02  0.17610580010E+03  0.18155328000E+03  0.00000000000E+00 0. -1.
</event>
<event>
 8    1  0.7016814E-009  0.8612526E+02  0.7561462E-02  0.1312516E+00
         -1   -1    0    0    0  501 -0.00000000000E+00  0.00000000000E+00  0.91222765680E+02  0.91222765680E+02  0.00000000000E+00 0.  1.
          1   -1    0    0  501    0  0.00000000000E+00 -0.00000000000E+00 -0.13748447850E+03  0.13748447850E+03  0.00000000000E+00 0. -1.
         25    2    1    2    0    0 -0.17788826557E+02 -0.22263171250E+02 -0.14063775771E+02  0.12906509475E+03  0.12509163741E+03 0.  0.
         23    2    1    2    0    0  0.17788826557E+02  0.22263171250E+02 -0.32197937045E+02  0.99642149428E+02  0.89887483268E+02 0.  0.
          5    1    3    3  502    0 -0.21890086854E+02  0.25373885483E+02  0.42886843827E+02  0.54587212242E+02  0.41800000000E+01 0.  1.
         -5    1    3    3    0  502  0.41012602964E+01 -0.47637056732E+02 -0.56950619598E+02  0.74477882507E+02  0.41800000000E+01 0.  1.
        -11    1    4    4    0    0  0.31835218978E+02 -0.25442700646E+02 -0.66814020667E+00  0.40758540146E+02  0.00000000000E+00 0. -1.
         11    1    4    4    0    0 -0.14046392421E+02  0.47705871895E+02 -0.31529796838E+02  0.58883609281E+02  0.00000000000E+00 0.  1.
</event>
<event>
 8    1  0.7016814E-009  0.8936275E+02  0.7561462E-02  0.1304402E+00
         -2   -1    0    0    0  501 -0.00000000000E+00  0.00000000000E+00  0.38810476451E+02  0.38810476451E+02  0.00000000000E+00 0.  1.
          2   -1    0    0  501    0  0.00000000000E+00 -0.00000000000E+00 -0.34956715160E+03  0.34956715160E+03  0.00000000000E+00 0. -1.
         25    2    1    2    0    0  0.47095938201E+02  0.42730628709E+01 -0.16240343773E+03  0.21037717519E+03  0.12508953910E+03 0.  0.
         23    2    1    2    0    0 -0.47095938201E+02 -0.42730628709E+01 -0.14835323742E+03  0.17800045287E+03  0.86250749017E+02 0.  0.
          5    1    3    3  502    0 -0.98682721770E+01  0.25159125231E+02 -0.14437911276E+03  0.14694612951E+03  0.41800000000E+01 0. -1.
         -5    1    3    3    0  502  0.56964210378E+02 -0.20886062360E+02 -0.18024324974E+02  0.63431045677E+02  0.41800000000E+01 0. -1.
        -11    1    4    4    0    0 -0.44232438238E+02 -0.37026503643E+02 -0.12501310480E+03  0.13767987121E+03  0.00000000000E+00 0. -1.
         11    1    4    4    0    0 -0.28634999621E+01  0.32753440772E+02 -0.23340132625E+02  0.40320581660E+02  0.00000000000E+00 0.  1.
</event>
<event>
 8    1  0.7016814E-009  0.1832951E+03  0.7561462E-02  0.1164652E+00
         -2   -1    0    0    0  501 -0.00000000000E+00  0.00000000000E+00  0.86239418973E+02  0.86239418973E+02  0.00000000000E+00 0.  1.
          2   -1    0    0  501    0  0.00000000000E+00 -0.00000000000E+00 -0.48467186985E+03  0.48467186985E+03  0.00000000000E+00 0. -1.
         25    2    1    2    0    0 -0.11895252957E+03 -0.12530239272E+03 -0.21412672452E+03  0.30223784140E+03  0.12508822769E+03 0.  0.
         23    2    1    2    0    0  0.11895252957E+03  0.12530239272E+03 -0.18430572635E+03  0.26867344742E+03  0.91468172979E+02 0.  0.
          5    1    3    3  502    0 -0.15042472581E+02 -0.37772806326E+01  0.15548788339E+02  0.22355783349E+02  0.41800000000E+01 0. -1.
         -5    1    3    3    0  502 -0.10391005699E+03 -0.12152511209E+03 -0.22967551286E+03  0.27988205805E+03  0.41800000000E+01 0. -1.
        -11    1    4    4    0    0  0.44312358821E+01  0.57134341906E+02 -0.29671372972E+02  0.64531846793E+02  0.00000000000E+00 0.  1.
         11    1    4    4    0    0  0.11452129369E+03  0.68168050813E+02 -0.15463435338E+03  0.20414160062E+03  0.00000000000E+00 0. -1.
</event>
<event>
 8    1  0.7016814E-009  0.1455342E+03  0.7561462E-02  0.1206070E+00
          2   -1    0    0  501    0  0.00000000000E+00  0.00000000000E+00  0.10769899391E+04  0.10769899391E+04  0.00000000000E+00 0. -1.
         -2   -1    0    0    0  501 -0.00000000000E+00 -0.00000000000E+00 -0.31071758649E+02  0.31071758649E+02  0.00000000000E+00 0.  1.
         25    2    1    2    0    0 -0.10447535669E+03  0.94629467390E+02  0.42714676059E+03  0.46687378074E+03  0.12508771248E+03 0.  0.
         23    2    1    2    0    0  0.10447535669E+03 -0.94629467390E+02  0.61877141986E+03  0.64118791700E+03  0.91509773350E+02 0.  0.
          5    1    3    3  502    0 -0.35441529294E+02  0.46736322980E+02  0.34258229970E+03  0.34759241987E+03  0.41800000000E+01 0. -1.
         -5    1    3    3    0  502 -0.69033827398E+02  0.47893144410E+02  0.84564460888E+02  0.11928136087E+03  0.41800000000E+01 0. -1.
        -11    1    4    4    0    0  0.54287720819E+02 -0.78464086376E+02  0.52508278411E+03  0.53368127160E+03  0.00000000000E+00 0. -1.
         11    1    4    4    0    0  0.50187635873E+02 -0.16165381014E+02  0.93688635751E+02  0.10750664541E+03  0.00000000000E+00 0.  1.
</event>
<event>
 8    1  0.7016814E-009  0.1291070E+03  0.7561462E-02  0.1228787E+00
          1   -1    0    0  501    0  0.00000000000E+00  0.00000000000E+00  0.51050568285E+02  0.51050568285E+02  0.00000000000E+00 0. -1.
         -1   -1    0    0    0  501 -0.00000000000E+00 -0.00000000000E+00 -0.37695610445E+03  0.37695610445E+03  0.00000000000E+00 0.  1.
         25    2    1    2    0    0 -0.47680053577E+02  0.69825222735E+02 -0.15125826470E+03  0.21371907164E+03  0.12509128548E+03 0.  0.
         23    2    1    2    0    0  0.47680053577E+02 -0.69825222735E+02 -0.17464727147E+03  0.21428760110E+03  0.90931607893E+02 0.  0.
          5    1    3    3  502    0  0.29191271140E+02 -0.66300951723E+01 -0.35342194018E+01  0.30431095602E+02  0.41800000000E+01 0. -1.
         -5    1    3    3    0  502 -0.76871324717E+02  0.76455317907E+02 -0.14772404529E+03  0.18328797603E+03  0.41800000000E+01 0. -1.
        -11    1    4    4    0    0 -0.20541315655E+02 -0.40137850336E+02 -0.95793782856E+02  0.10587465000E+03  0.00000000000E+00 0.  1.
         11    1    4    4    0    0  0.68221369232E+02 -0.29687372399E+02 -0.78853488610E+02  0.10841295110E+03  0.00000000000E+00 0. -1.
</event>
<event>
 8    1  0.7016814E-009  0.1140028E+03  0.7561462E-02  0.1253332E+00
          2   -1    0    0  501    0  0.00000000000E+00  0.00000000000E+00  0.12323385583E+04  0.12323385583E+04  0.00000000000E+00 0. -1.
         -2   -1    0    0    0  501 -0.00000000000E+00 -0.00000000000E+00 -0.19444231683E+02  0.19444231683E+02  0.00000000000E+00 0.  1.
         25    2    1    2    0    0  0.45642886149E+02 -0.91506428551E+01  0.10570513520E+04  0.10654444120E+04  0.12508887635E+03 0.  0.
         23    2    1    2    0    0 -0.45642886149E+02  0.91506428551E+01  0.15584297461E+03  0.18633837797E+03  0.90928274200E+02 0.  0.
          5    1    3    3  502    0  0.20137922405E+02  0.56891384245E+02  0.39502547466E+03  0.39963078404E+03  0.41800000000E+01 0. -1.
         -5    1    3    3    0  502  0.25504963743E+02 -0.66042027100E+02  0.66202587735E+03  0.66581362798E+03  0.41800000000E+01 0. -1.
        -11    1    4    4    0    0 -0.31073124622E+02  0.46825442186E+02  0.11927456435E+03  0.13185060792E+03  0.00000000000E+00 0.  1.
         11    1    4    4    0    0 -0.14569761527E+02 -0.37674799331E+02  0.36568410263E+02  0.54487770047E+02  0.00000000000E+00 0. -1.
</event>
<event>
 8    1  0.7016814E-009  0.1276754E+03  0.7561462E-02  0.1230946E+00
         -2   -1    0    0    0  501 -0.00000000000E+00  0.00000000000E+00  0.12459981524E+03  0.12459981524E+03  0.00000000000E+00 0.  1.
          2   -1    0    0  501    0  0.00000000000E+00 -0.00000000000E+00 -0.35039802411E+03  0.35039802411E+03  0.00000000000E+00 0. -1.
         25    2    1    2    0    0  0.11930012041E+03  0.80070640558E+01 -0.26733883733E+03  0.31845467041E+03  0.12508673533E+03 0.  0.
         23    2    1    2    0    0 -0.11930012041E+03 -0.80070640558E+01  0.41540628457E+02  0.15654316894E+03  0.92105961399E+02 0.  0.
          5    1    3    3  502    0  0.12238838280E+02  0.10690095617E+02 -0.17838477125E+03  0.17917216949E+03  0.41800000000E+01 0.  1.
         -5    1    3    3    0  502  0.10706128213E+03 -0.26830315614E+01 -0.88954066081E+02  0.13928250092E+03  0.41800000000E+01 0.  1.
        -11    1    4    4    0    0 -0.55973763126E+02  0.23448473786E+02 -0.18859031403E+02  0.63549635300E+02  0.00000000000E+00 0. -1.
         11    1    4    4    0    0 -0.63326357285E+02 -0.31455537842E+02  0.60399659861E+02  0.92993533642E+02  0.00000000000E+00 0.  1.
</event>
<event>
 8    1  0.7016814E-009  0.1214010E+03  0.7561462E-02  0.1240804E+00
          2   -1    0    0  501    0  0.00000000000E+00  0.00000000000E+00  0.44912633164E+03  0.44912633164E+03  0.00000000000E+00 0.  1.
         -2   -1    0    0    0  501 -0.00000000000E+00 -0.00000000000E+00 -0.44670952227E+02  0.44670952227E+02  0.00000000000E+00 0. -1.
         25    2    1    2    0    0 -0.77494754006E+02  0.14385700574E+02  0.14990624083E+03  0.21054965318E+03  0.12508752989E+03 0.  0.
         23    2    1    2    0    0  0.77494754006E+02 -0.14385700574E+02  0.25454913859E+03  0.28324763069E+03  0.96029011541E+02 0.  0.
          5    1    3    3  502    0 -0.99573902558E+02  0.67487566857E+01  0.57741072847E+02  0.11537769144E+03  0.41800000000E+01 0. -1.
         -5    1    3    3    0  502  0.22079148552E+02  0.76369438885E+01  0.92165167979E+02  0.95171961740E+02  0.41800000000E+01 0. -1.
        -11    1    4    4    0    0 -0.14385015551E+02 -0.22752671415E+02  0.97067384003E+02  0.10073077864E+03  0.00000000000E+00 0.  1.
         11    1    4    4    0    0  0.91879769557E+02  0.83669708403E+01  0.15748175459E+03  0.18251685205E+03  0.00000000000E+00 0. -1.
</event>
<event>
 8    1  0.7016814E-009  0.1258659E+03  0.7561462E-02  0.1233722E+00
         -1   -1    0    0    0  501 -0.00000000000E+00  0.00000000000E+00  0.31525790622E+02  0.31525790622E+02  0.00000000000E+00 0.  1.
          1   -1    0    0  501    0  0.00000000000E+00 -0.00000000000E+00 -0.73808903343E+03  0.73808903343E+03  0.00000000000E+00 0. -1.
         25    2    1    2    0    0  0.33522964447E+02  0.83317383090E+02 -0.53191302793E+03  0.55375444872E+03  0.12508774810E+03 0.  0.
         23    2    1    2    0    0 -0.33522964447E+02 -0.83317383090E+02 -0.17465021488E+03  0.21586037533E+03  0.89595918498E+02 0.  0.
          5    1    3    3  502    0  0.34584972624E+02  0.11556430257E+03 -0.43991881904E+03  0.45617679479E+03  0.41800000000E+01 0.  1.
         -5    1    3    3    0  502 -0.10620081767E+01 -0.32246919477E+02 -0.91994208891E+02  0.97577653931E+02  0.41800000000E+01 0.  1.
        -11    1    4    4    0    0 -0.13261954752E+02 -0.53665143729E+00  0.71496999576E+01  0.15075995758E+02  0.00000000000E+00 0.  1.
         11    1    4    4    0    0 -0.20261009695E+02 -0.82780731653E+02 -0.18179991484E+03  0.20078437958E+03  0.00000000000E+00 0. -1.
</event>
<event>
 8    1  0.7016814E-009  0.1032256E+03  0.7561462E-02  0.1273656E+00
          1   -1    0    0  501    0  0.00000000000E+00  0.00000000000E+00  0.10169147082E+03  0.10169147082E+03  0.00000000000E+00 0. -1.
         -1   -1    0    0    0  501 -0.00000000000E+00 -0.00000000000E+00 -0.21992465516E+03  0.21992465516E+03  0.00000000000E+00 0.  1.
         25    2    1    2    0    0 -0.60165194591E+02 -0.31317329140E+02  0.18679043688E+02  0.14351630043E+03  0.12508955220E+03 0.  0.
         23    2    1    2    0    0  0.60165194591E+02  0.31317329140E+02 -0.13691222803E+03  0.17809982556E+03  0.91509365296E+02 0.  0.
          5    1    3    3  502    0 -0.66432968310E+02 -0.42588891137E+02 -0.36248672856E+02  0.86940161091E+02  0.41800000000E+01 0. -1.
         -5    1    3    3    0  502  0.62677737186E+01  0.11271561997E+02  0.54927716545E+02  0.56576139335E+02  0.41800000000E+01 0. -1.
        -11    1    4    4    0    0  0.18012538796E+02  0.60157431367E+02 -0.77706089906E+02  0.99907980217E+02  0.00000000000E+00 0.  1.
         11    1    4    4    0    0  0.42152655796E+02 -0.28840102227E+02 -0.59206138120E+02  0.78191845343E+02  0.00000000000E+00 0. -1.
</event>
<event>
 8    1  0.7016814E-009  0.1411785E+03  0.7561462E-02  0.1211752E+00
         -2   -1    0    0    0  501 -0.00000000000E+00  0.00000000000E+00  0.59277656601E+02  0.59277656601E+02  0.00000000000E+00 0.  1.
          2   -1    0    0  501    0  0.00000000000E+00 -0.00000000000E+00 -0.51233359708E+03  0.51233359708E+03  0.00000000000E+00 0. -1.
         25    2    1    2    0    0  0.89782381887E+02  0.75345407671E+02 -0.12738315441E+03  0.21356463078E+03  0.12508228068E+03 0.  0.
         23    2    1    2    0    0 -0.89782381887E+02 -0.75345407671E+02 -0.32567278607E+03  0.35804662290E+03  0.91634131337E+02 0.  0.
          5    1    3    3  502    0  0.68738918751E+02  0.98431378200E+02 -0.13543568162E+03  0.18103610530E+03  0.41800000000E+01 0.  1.
         -5    1    3    3    0  502  0.21043463135E+02 -0.23085970530E+02  0.80525272102E+01  0.32528525489E+02  0.41800000000E+01 0.  1.
        -11    1    4    4    0    0 -0.35426749284E+02  0.27811879365E+01 -0.27153771492E+02  0.44722666260E+02  0.00000000000E+00 0.  1.
         11    1    4    4    0    0 -0.54355632603E+02 -0.78126595607E+02 -0.29851901458E+03  0.31332395664E+03  0.00000000000E+00 0. -1.
</event>
<event>
 8    1  0.7016814E-009  0.1394507E+03  0.7561462E-02  0.1214070E+00
         -1   -1    0    0    0  501 -0.00000000000E+00  0.00000000000E+00  0.24228073730E+02  0.24228073730E+02  0.00000000000E+00 0.  1.
          1   -1    0    0  501    0  0.00000000000E+00 -0.00000000000E+00 -0.19751946526E+04  0.19751946526E+04  0.00000000000E+00 0. -1.
         25    2    1    2    0    0  0.43676728288E+02  0.11948584077E+03 -0.16554990788E+04  0.16650845940E+04  0.12507990450E+03 0.  0.
         23    2    1    2    0    0 -0.43676728288E+02 -0.11948584077E+03 -0.29546750010E+03  0.33433813237E+03  0.91084688059E+02 0.  0.
          5    1    3    3  502    0  0.22874768828E+02  0.12494856072E+03 -0.86550022703E+03  0.87478198042E+03  0.41800000000E+01 0.  1.
         -5    1    3    3    0  502  0.20801959460E+02 -0.54627199484E+01 -0.78999885174E+03  0.79030261355E+03  0.41800000000E+01 0.  1.
        -11    1    4    4    0    0 -0.31097207320E+02 -0.47184691503E+02 -0.22714914907E+03  0.23407299574E+03  0.00000000000E+00 0. -1.
         11    1    4    4    0    0 -0.12579520968E+02 -0.72301149271E+02 -0.68318351036E+02  0.10026513662E+03  0.00000000000E+00 0.  1.
</event>
<event>
 8    1  0.7016814E-009  0.1120990E+03  0.7561462E-02  0.1256732E+00
          1   -1    0    0  501    0  0.00000000000E+00  0.00000000000E+00  0.10616492616E+03  0.10616492616E+03  0.00000000000E+00 0. -1.
         -1   -1    0    0    0  501 -0.00000000000E+00 -0.00000000000E+00 -0.23673790818E+03  0.23673790818E+03  0.00000000000E+00 0.  1.
         25    2    1    2    0    0 -0.80653265323E+01  0.44561201465E+02  0.43877028832E+02  0.14007958491E+03  0.12508535598E+03 0.  0.
         23    2    1    2    0    0  0.80653265323E+01 -0.44561201465E+02 -0.17445001085E+03  0.20282324943E+03  0.93025340924E+02 0.  0.
          5    1    3    3  502    0 -0.46245196231E+02  0.64009143648E+02  0.66232150862E+00  0.79080337093E+02  0.41800000000E+01 0. -1.
         -5    1    3    3    0  502  0.38179869699E+02 -0.19447942183E+02  0.43214707324E+02  0.60999247818E+02  0.41800000000E+01 0. -1.
        -11    1    4    4    0    0  0.42118900194E+02  0.44884368063E+01 -0.56440407794E+02  0.70566758821E+02  0.00000000000E+00 0. -1.
         11    1    4    4    0    0 -0.34053573662E+02 -0.49049638272E+02 -0.11800960306E+03  0.13225649060E+03  0.00000000000E+00 0.  1.
</event>
<event>
 8    1  0.7016814E-009  0.1068251E+03  0.7561462E-02  0.1266565E+00
          1   -1    0    0  501    0  0.00000000000E+00  0.00000000000E+00  0.67418462657E+02  0.67418462657E+02  0.00000000000E+00 0. -1.
         -1   -1    0    0    0  501 -0.00000000000E+00 -0.00000000000E+00 -0.34617266504E+03  0.34617266504E+03  0.00000000000E+00 0.  1.
         25    2    1    2    0    0 -0.56586764723E+02 -0.85963758418E+02 -0.10846482439E+03  0.19494580505E+03  0.12508964415E+03 0.  0.
         23    2    1    2    0    0  0.56586764723E+02  0.85963758418E+02 -0.17028937800E+03  0.21864532265E+03  0.90639258361E+02 0.  0.
          5    1    3    3  502    0 -0.13106896880E+02 -0.21365265689E+02  0.27975252278E+02  0.37793550558E+02  0.41800000000E+01 0. -1.
         -5    1    3    3    0  502 -0.43479867843E+02 -0.64598492728E+02 -0.13644007667E+03  0.15715225449E+03  0.41800000000E+01 0. -1.
        -11    1    4    4    0    0  0.28497113012E+02  0.74777285178E+02 -0.49424101481E+02  0.94055673065E+02  0.00000000000E+00 0. -1.
         11    1    4    4    0    0  0.28089651711E+02  0.11186473239E+02 -0.12086527652E+03  0.12458964959E+03  0.00000000000E+00 0.  1.
</event>
<event>
 8    1  0.7016814E-009  0.1053056E+03  0.7561462E-02  0.1269519E+00
          1   -1    0    0  501    0  0.00000000000E+00  0.00000000000E+00  0.39175879299E+03  0.39175879299E+03  0.00000000000E+00 0. -1.
         -1   -1    0    0    0  501 -0.00000000000E+00 -0.00000000000E+00 -0.38925751081E+02  0.38925751081E+02  0.00000000000E+00 0.  1.
         25    2    1    2    0    0  0.56852762425E+02  0.43063484075E+01  0.19738814658E+03  0.24054289793E+03  0.12509206250E+03 0.  0.
         23    2    1    2    0    0 -0.56852762425E+02 -0.43063484075E+01  0.15544489533E+03  0.19014164615E+03  0.93487693746E+02 0.  0.
          5    1    3    3  502    0  0.91770606310E+02  0.10706178688E+02  0.17617814648E+03  0.19897908971E+03  0.41800000000E+01 0. -1.
         -5    1    3    3    0  502 -0.34917843885E+02 -0.63998302800E+01  0.21210000091E+02  0.41563808212E+02  0.41800000000E+01 0. -1.
        -11    1    4    4    0    0 -0.27065446661E+02  0.27650600148E+02  0.12486653086E+02  0.40657233019E+02  0.00000000000E+00 0.  1.
         11    1    4    4    0    0 -0.29787315765E+02 -0.31956948556E+02  0.14295824225E+03  0.14948441313E+03  0.00000000000E+00 0. -1.
</event>
<event>
 8    1  0.7016814E-009  0.1330404E+03  0.7561462E-02  0.1223013E+00
         -1   -1    0    0    0  501 -0.00000000000E+00  0.00000000000E+00  0.14705066755E+02  0.14705066755E+02  0.00000000000E+00 0.  1.
          1   -1    0    0  501    0  0.00000000000E+00 -0.00000000000E+00 -0.15027301977E+04  0.15027301977E+04  0.00000000000E+00 0. -1.
         25    2    1    2    0    0  0.10069564948E+03 -0.22490218475E+01 -0.87870618230E+03  0.89326172056E+03  0.12508906699E+03 0.  0.
         23    2    1    2    0    0 -0.10069564948E+03  0.22490218475E+01 -0.60931894865E+03  0.62417354390E+03  0.90434284422E+02 0.  0.
          5    1    3    3  502    0  0.99823312943E+02  0.34175600336E+02 -0.79354206646E+03  0.80053678810E+03  0.41800000000E+01 0.  1.
         -5    1    3    3    0  502  0.87233653582E+00 -0.36424622183E+02 -0.85164115841E+02  0.92724932458E+02  0.41800000000E+01 0.  1.
        -11    1    4    4    0    0  0.11466760049E+02 -0.16358019733E+01 -0.13111231467E+02  0.17494765637E+02  0.00000000000E+00 0.  1.
         11    1    4    4    0    0 -0.11216240953E+03  0.38848238209E+01 -0.59620771719E+03  0.60667877827E+03  0.00000000000E+00 0. -1.
</event>
<event>
 8    1  0.7016814E-009  0.1898608E+03  0.7561462E-02  0.1158587E+00
         -1   -1    0    0    0  501 -0.00000000000E+00  0.00000000000E+00  0.41213447729E+03  0.41213447729E+03  0.00000000000E+00 0.  1.
          1   -1    0    0  501    0  0.00000000000E+00 -0.00000000000E+00 -0.89250824341E+02  0.89250824341E+02  0.00000000000E+00 0. -1.
         25    2    1    2    0    0  0.10920055917E+03 -0.11563344644E+03  0.17562945115E+03  0.26793474215E+03  0.12508983124E+03 0.  0.
         23    2    1    2    0    0 -0.10920055917E+03  0.11563344644E+03  0.14725420179E+03  0.23345055948E+03  0.86715095105E+02 0.  0.
          5    1    3    3  502    0  0.41724454167E+02 -0.12578485801E+03  0.13036586079E+03  0.18594485914E+03  0.41800000000E+01 0.  1.
         -5    1    3    3    0  502  0.67476105000E+02  0.10151411574E+02  0.45263590362E+02  0.81989883006E+02  0.41800000000E+01 0.  1.
        -11    1    4    4    0    0 -0.67307414107E+01 -0.12802326657E+02  0.29234861530E+01  0.14756328102E+02  0.00000000000E+00 0. -1.
         11    1    4    4    0    0 -0.10246981776E+03  0.12843577310E+03  0.14433071564E+03  0.21869423138E+03  0.00000000000E+00 0.  1.
</event>
<event>
 8    1  0.7016814E-009  0.1144670E+03  0.7561462E-02  0.1252514E+00
          1   -1    0    0  501    0  0.00000000000E+00  0.00000000000E+00  0.48398685095E+03  0.48398685095E+03  0.00000000000E+00 0. -1.
         -1   -1    0    0    0  501 -0.00000000000E+00 -0.00000000000E+00 -0.27274810712E+02  0.27274810712E+02  0.00000000000E+00 0.  1.
         25    2    1    2    0    0 -0.36457395635E+02  0.10235213164E+02  0.26731514809E+03  0.29755349924E+03  0.12508715054E+03 0.  0.
         23    2    1    2    0    0  0.36457395635E+02 -0.10235213164E+02  0.18939689215E+03  0.21370816242E+03  0.91466357987E+02 0.  0.
          5    1    3    3  502    0 -0.79467507266E+02  0.26460758587E+02  0.18645737391E+03  0.20444823585E+03  0.41800000000E+01 0. -1.
         -5    1    3    3    0  502  0.43010111631E+02 -0.16225545423E+02  0.80857774171E+02  0.93105263389E+02  0.41800000000E+01 0. -1.
        -11    1    4    4    0    0  0.88216434270E+00 -0.47434044314E+02  0.86532945805E+02  0.98684940511E+02  0.00000000000E+00 0.  1.
         11    1    4    4    0    0  0.35575231293E+02  0.37198831150E+02  0.10286394634E+03  0.11502322191E+03  0.00000000000E+00 0. -1.
</event>
<event>
 8    1  0.7016814E-009  0.1859892E+03  0.7561462E-02  0.1162129E+00
         -2   -1    0    0    0  501 -0.00000000000E+00  0.00000000000E+00  0.65932143274E+02  0.65932143274E+02  0.00000000000E+00 0.  1.
          2   -1    0    0  501    0  0.00000000000E+00 -0.00000000000E+00 -0.63740544926E+03  0.63740544926E+03  0.00000000000E+00 0. -1.
         25    2    1    2    0    0  0.15246353260E+03 -0.22601929716E+02 -0.16152103937E+03  0.25591691371E+03  0.12509374310E+03 0.  0.
         23    2    1    2    0    0 -0.15246353260E+03  0.22601929716E+02 -0.40995226661E+03  0.44742067882E+03  0.91479106583E+02 0.  0.
          5    1    3    3  502    0  0.53549523517E+02 -0.65957152358E+02 -0.10099807567E+03  0.13204537518E+03  0.41800000000E+01 0. -1.
         -5    1    3    3    0  502  0.98914009082E+02  0.43355222643E+02 -0.60522963702E+02  0.12387153853E+03  0.41800000000E+01 0. -1.
        -11    1    4    4    0    0 -0.12233521048E+03  0.55406725083E+02 -0.29455512132E+03  0.32372600823E+03  0.00000000000E+00 0. -1.
         11    1    4    4    0    0 -0.30128322123E+02 -0.32804795368E+02 -0.11539714529E+03  0.12369467060E+03  0.00000000000E+00 0.  1.
</event>
<event>
 8    1  0.7016814E-009  0.9696823E+02  0.7561462E-02  0.1286804E+00
         -2   -1    0    0    0  501 -0.00000000000E+00  0.00000000000E+00  0.21841712088E+02  0.21841712088E+02  0.00000000000E+00 0.  1.
          2   -1    0    0  501    0  0.00000000000E+00 -0.00000000000E+00 -0.61639210098E+03  0.61639210098E+03  0.00000000000E+00 0. -1.
         25    2    1    2    0    0  0.21307483573E+02  0.14517026888E+02 -0.29574197737E+03  0.32214300532E+03  0.12509214912E+03 0.  0.
         23    2    1    2    0    0 -0.21307483573E+02 -0.14517026888E+02 -0.29880841152E+03  0.31609080775E+03  0.99810715962E+02 0.  0.
          5    1    3    3  502    0  0.54323417923E+02  0.18763534922E+02 -0.27854468367E+03  0.28444281882E+03  0.41800000000E+01 0.  1.
         -5    1    3    3    0  502 -0.33015934350E+02 -0.42465080339E+01 -0.17197293700E+02  0.37700186500E+02  0.41800000000E+01 0.  1.
        -11    1    4    4    0    0  0.36678887226E+02 -0.24242581756E+02 -0.11558241240E+03  0.12366219145E+03  0.00000000000E+00 0.  1.
         11    1    4    4    0    0 -0.57986370798E+02  0.97255548676E+01 -0.18322599912E+03  0.19242861630E+03  0.00000000000E+00 0. -1.
</event>
<event>
 8    1  0.7016814E-009  0.2038706E+03  0.7561462E-02  0.1146514E+00
         -1   -1    0    0    0  501 -0.00000000000E+00  0.00000000000E+00  0.45212687596E+02  0.45212687596E+02  0.00000000000E+00 0.  1.
          1   -1    0    0  501    0  0.00000000000E+00 -0.00000000000E+00 -0.10781682290E+04  0.10781682290E+04  0.00000000000E+00 0. -1.
         25    2    1    2    0    0 -0.14940768019E+03 -0.11800174026E+03 -0.57767621847E+03  0.62096894306E+03  0.12508216996E+03 0.  0.
         23    2    1    2    0    0  0.14940768019E+03  0.11800174026E+03 -0.45527932293E+03  0.50241197354E+03  0.94294557977E+02 0.  0.
          5    1    3    3  502    0 -0.12538920602E+03 -0.12176951381E+03 -0.34289935213E+03  0.38489960453E+03  0.41800000000E+01 0.  1.
         -5    1    3    3    0  502 -0.24018474173E+02  0.37677735438E+01 -0.23477686635E+03  0.23606933853E+03  0.41800000000E+01 0.  1.
        -11    1    4    4    0    0  0.51348896704E+02  0.94267694118E+02 -0.18460893613E+03  0.21354991605E+03  0.00000000000E+00 0.  1.
         11    1    4    4    0    0  0.98058783490E+02  0.23734046145E+02 -0.27067038680E+03  0.28886205749E+03  0.00000000000E+00 0. -1.
</event>
<event>
 8    1  0.7016814E-009  0.1390644E+03  0.7561462E-02  0.1214593E+00
          2   -1    0    0  501    0  0.00000000000E+00  0.00000000000E+00  0.84048005090E+02  0.84048005090E+02  0.00000000000E+00 0. -1.
         -2   -1    0    0    0  501 -0.00000000000E+00 -0.00000000000E+00 -0.24738029956E+03  0.24738029956E+03  0.00000000000E+00 0.  1.
         25    2    1    2    0    0 -0.93620207062E+02 -0.84103550420E+01 -0.10051112696E+03  0.18597394494E+03  0.12509334240E+03 0.  0.
         23    2    1    2    0    0  0.93620207062E+02  0.84103550420E+01 -0.62821167516E+02  0.14545435971E+03  0.91514995646E+02 0.  0.
          5    1    3    3  502    0  0.44348129976E+01  0.42086852705E+02 -0.46769026158E+02  0.63212221482E+02  0.41800000000E+01 0.  1.
         -5    1    3    3    0  502 -0.98055020060E+02 -0.50497207747E+02 -0.53742100800E+02  0.12276172346E+03  0.41800000000E+01 0.  1.
        -11    1    4    4    0    0  0.27458700403E+02  0.42656763758E+02 -0.46668936094E+01  0.50944672127E+02  0.00000000000E+00 0. -1.
         11    1    4    4    0    0  0.66161506659E+02 -0.34246408716E+02 -0.58154273906E+02  0.94509687582E+02  0.00000000000E+00 0.  1.
</event>
<event>
 8    1  0.7016814E-009  0.1115253E+03  0.7561462E-02  0.1257771E+00
         -3   -1    0    0    0  501 -0.00000000000E+00  0.00000000000E+00  0.46529742305E+02  0.46529742305E+02  0.00000000000E+00 0.  1.
          3   -1    0    0  501    0  0.00000000000E+00 -0.00000000000E+00 -0.50096212752E+03  0.50096212752E+03  0.00000000000E+00 0. -1.
         25    2    1    2    0    0 -0.74375931588E+02  0.76031628252E+02 -0.23626346122E+03  0.28770946130E+03  0.12507487085E+03 0.  0.
         23    2    1    2    0    0  0.74375931588E+02 -0.76031628252E+02 -0.21816892399E+03  0.25978240852E+03  0.92610111155E+02 0.  0.
          5    1    3    3  502    0 -0.34143182488E+02  0.63054104063E+02 -0.23443345891E+03  0.24518991823E+03  0.41800000000E+01 0.  1.
         -5    1    3    3    0  502 -0.40232749099E+02  0.12977524188E+02 -0.18300023178E+01  0.42519543067E+02  0.41800000000E+01 0.  1.
        -11    1    4    4    0    0  0.40746233624E+02 -0.57113125946E+02 -0.47306377563E+02  0.84617126328E+02  0.00000000000E+00 0.  1.
         11    1    4    4    0    0  0.33629697963E+02 -0.18918502306E+02 -0.17086254642E+03  0.17516528219E+03  0.00000000000E+00 0. -1.
</event>
<event>
 8    1  0.7016814E-009  0.1664637E+03  0.7561462E-02  0.1181587E+00
          2   -1    0    0  501    0  0.00000000000E+00  0.00000000000E+00  0.54872463861E+03  0.54872463861E+03  0.00000000000E+00 0. -1.
         -2   -1    0    0    0  501 -0.00000000000E+00 -0.00000000000E+00 -0.61237383911E+02  0.61237383911E+02  0.00000000000E+00 0.  1.
         25    2    1    2    0    0 -0.13502176361E+03 -0.46720447585E+02  0.20947691225E+03  0.28273487839E+03  0.12507900633E+03 0.  0.
         23    2    1    2    0    0  0.13502176361E+03  0.46720447585E+02  0.27801034245E+03  0.32722714412E+03  0.96820330897E+02 0.  0.
          5    1    3    3  502    0 -0.15800275156E+03 -0.51091773197E+02  0.18447935088E+03  0.24824452076E+03  0.41800000000E+01 0. -1.
         -5    1    3    3    0  502  0.22980987953E+02  0.43713256119E+01  0.24997561375E+02  0.34490357633E+02  0.41800000000E+01 0. -1.
        -11    1    4    4    0    0  0.38855203901E+02  0.10064780657E+02  0.18236290432E+03  0.18672775785E+03  0.00000000000E+00 0. -1.
         11    1    4    4    0    0  0.96166559705E+02  0.36655666928E+02  0.95647438127E+02  0.14049938628E+03  0.00000000000E+00 0.  1.
</event>
<event>
 8    1  0.7016814E-009  0.9626246E+02  0.7561462E-02  0.1288358E+00
         -4   -1    0    0    0  501 -0.00000000000E+00  0.00000000000E+00  0.26612080744E+03  0.26612080744E+03  0.00000000000E+00 0.  1.
          4   -1    0    0  501    0  0.00000000000E+00 -0.00000000000E+00 -0.47433615680E+02  0.47433615680E+02  0.00000000000E+00 0. -1.
         25    2    1    2    0    0 -0.39182141983E+01  0.21825921418E+01  0.83606444490E+02  0.15052633850E+03  0.12509206575E+03 0.  0.
         23    2    1    2    0    0  0.39182141983E+01 -0.21825921418E+01  0.13508074727E+03  0.16302808461E+03  0.91165958445E+02 0.  0.
          5    1    3    3  502    0 -0.56912063015E+02  0.26586187661E+02  0.25035186048E+02  0.67749843036E+02  0.41800000000E+01 0.  1.
         -5    1    3    3    0  502  0.52993848817E+02 -0.24403595519E+02  0.58571258442E+02  0.82776495469E+02  0.41800000000E+01 0.  1.
        -11    1    4    4    0    0 -0.85697060004E+01  0.32816876573E+02  0.14563547784E+02  0.36911843262E+02  0.00000000000E+00 0. -1.
         11    1    4    4    0    0  0.12487920199E+02 -0.34999468715E+02  0.12051719948E+03  0.12611624135E+03  0.00000000000E+00 0.  1.
</event>
<event>
 8    1  0.7016814E-009  0.9711797E+02  0.7561462E-02  0.1286476E+00
         -1   -1    0    0    0  501 -0.00000000000E+00  0.00000000000E+00  0.13642996345E+03  0.13642996345E+03  0.00000000000E+00 0.  1.
          1   -1    0    0  501    0  0.00000000000E+00 -0.00000000000E+00 -0.12597395626E+03  0.12597395626E+03  0.00000000000E+00 0. -1.
         25    2    1    2    0    0  0.53595360234E+01  0.72753245216E+02  0.56293638063E+01  0.14492014840E+03  0.12509356642E+03 0.  0.
         23    2    1    2    0    0 -0.53595360234E+01 -0.72753245216E+02  0.48266433894E+01  0.11748377131E+03  0.91964018609E+02 0.  0.
          5    1    3    3  502    0 -0.18248888155E+02  0.26408031848E+02  0.60863470368E+02  0.68936496068E+02  0.41800000000E+01 0. -1.
         -5    1    3    3    0  502  0.23608424179E+02  0.46345213368E+02 -0.55234106562E+02  0.75983652334E+02  0.41800000000E+01 0. -1.
        -11    1    4    4    0    0  0.32596879071E+02 -0.63648273586E+01  0.21033224131E+02  0.39312390793E+02  0.00000000000E+00 0.  1.
         11    1    4    4    0    0 -0.37956415095E+02 -0.66388417857E+02 -0.16206580741E+02  0.78171380516E+02  0.00000000000E+00 0. -1.
</event>
<event>
 8    1  0.7016814E-009  0.1226593E+03  0.7561462E-02  0.1238773E+00
          1   -1    0    0  501    0  0.00000000000E+00  0.00000000000E+00  0.96584969032E+03  0.96584969032E+03  0.00000000000E+00 0. -1.
         -1   -1    0    0    0  501 -0.00000000000E+00 -0.00000000000E+00 -0.27212810185E+02  0.27212810185E+02  0.00000000000E+00 0.  1.
         25    2    1    2    0    0  0.16284630860E+02 -0.99322481422E+02  0.70944228858E+03  0.72738277177E+03  0.12508873381E+03 0.  0.
         23    2    1    2    0    0 -0.16284630860E+02  0.99322481422E+02  0.22919459156E+03  0.26567972874E+03  0.89024788367E+02 0.  0.
          5    1    3    3  502    0 -0.39252902658E+02 -0.48127947161E+02  0.14366020849E+03  0.15656569729E+03  0.41800000000E+01 0. -1.
         -5    1    3    3    0  502  0.55537533517E+02 -0.51194534261E+02  0.56578208009E+03  0.57081707448E+03  0.41800000000E+01 0. -1.
        -11    1    4    4    0    0 -0.27486865418E+02  0.84408563358E+02  0.23047847154E+03  0.24698311517E+03  0.00000000000E+00 0. -1.
         11    1    4    4    0    0  0.11202234558E+02  0.14913918064E+02 -0.12838799734E+01  0.18696613567E+02  0.00000000000E+00 0.  1.
</event>
<event>
 8    1  0.7016814E-009  0.1034074E+03  0.7561462E-02  0.1273290E+00
          1   -1    0    0  501    0  0.00000000000E+00  0.00000000000E+00  0.19631565109E+03  0.19631565109E+03  0.00000000000E+00 0. -1.
         -1   -1    0    0    0  501 -0.00000000000E+00 -0.00000000000E+00 -0.62196964870E+02  0.62196964870E+02  0.00000000000E+00 0.  1.
         25    2    1    2    0    0 -0.15305047839E+02  0.21645379919E+01  0.56630166358E+02  0.13817901652E+03  0.12509010812E+03 0.  0.
         23    2    1    2    0    0  0.15305047839E+02 -0.21645379919E+01  0.77488519861E+02  0.12033359944E+03  0.90756678708E+02 0.  0.
          5    1    3    3  502    0 -0.29153192021E+02  0.59355236749E+02  0.22229504993E+02  0.69889741928E+02  0.41800000000E+01 0.  1.
         -5    1    3    3    0  502  0.13848144181E+02 -0.57190698758E+02  0.34400661365E+02  0.68289274590E+02  0.41800000000E+01 0.  1.
        -11    1    4    4    0    0  0.20952151170E+02  0.36716346388E+02  0.11966437756E+02  0.43934933291E+02  0.00000000000E+00 0.  1.
         11    1    4    4    0    0 -0.56471033302E+01 -0.38880884380E+02  0.65522082105E+02  0.76398666150E+02  0.00000000000E+00 0. -1.
</event>
<event>
 8    1  0.7016814E-009  0.2634348E+03  0.7561462E-02  0.1105097E+00
          2   -1    0    0  501    0  0.00000000000E+00  0.00000000000E+00  0.11196334675E+03  0.11196334675E+03  0.00000000000E+00 0. -1.
         -2   -1    0    0    0  501 -0.00000000000E+00 -0.00000000000E+00 -0.68812401754E+03  0.68812401754E+03  0.00000000000E+00 0.  1.
         25    2    1    2    0    0  0.25100725896E+03  0.19244250693E+02 -0.35495681693E+03  0.45278726591E+03  0.12508789331E+03 0.  0.
         23    2    1    2    0    0 -0.25100725896E+03 -0.19244250693E+02 -0.22120385386E+03  0.34730009838E+03  0.91165937381E+02 0.  0.
          5    1    3    3  502    0  0.13531250364E+03 -0.20100141580E+02 -0.98338027554E+02  0.16852693968E+03  0.41800000000E+01 0. -1.
         -5    1    3    3    0  502  0.11569475532E+03  0.39344392273E+02 -0.25661878937E+03  0.28426032623E+03  0.41800000000E+01 0. -1.
        -11    1    4    4    0    0 -0.17376710215E+03 -0.55492095337E+02 -0.15192229353E+03  0.23739157885E+03  0.00000000000E+00 0.  1.
         11    1    4    4    0    0 -0.77240156806E+02  0.36247844644E+02 -0.69281560329E+02  0.10990851953E+03  0.00000000000E+00 0. -1.
</event>
<event>
 8    1  0.7016814E-009  0.7536848E+02  0.7561462E-02  0.1342734E+00
         -1   -1    0    0    0  501 -0.00000000000E+00  0.00000000000E+00  0.75974683553E+03  0.75974683553E+03  0.00000000000E+00 0.  1.
          1   -1    0    0  501    0  0.00000000000E+00 -0.00000000000E+00 -0.22667110888E+02  0.22667110888E+02  0.00000000000E+00 0. -1.
         25    2    1    2    0    0 -0.21167153727E+02 -0.32664864688E+02  0.58129521680E+03  0.59587407017E+03  0.12508691632E+03 0.  0.
         23    2    1    2    0    0  0.21167153727E+02  0.32664864688E+02  0.15578450784E+03  0.18653987626E+03  0.94938247130E+02 0.  0.
          5    1    3    3  502    0 -0.22753961911E+02 -0.84669124426E+01  0.56675822295E+03  0.56729338712E+03  0.41800000000E+01 0. -1.
         -5    1    3    3    0  502  0.15868081839E+01 -0.24197952246E+02  0.14536993855E+02  0.28580683047E+02  0.41800000000E+01 0. -1.
        -11    1    4    4    0    0 -0.37463289655E+02  0.12639643212E+02  0.74431688553E+02  0.84281284477E+02  0.00000000000E+00 0.  1.
         11    1    4    4    0    0  0.58630443382E+02  0.20025221476E+02  0.81352819289E+02  0.10225859178E+03  0.00000000000E+00 0. -1.
</event>
<event>
 8    1  0.7016814E-009  0.1073216E+03  0.7561462E-02  0.1265612E+00
         -1   -1    0    0    0  501 -0.00000000000E+00  0.00000000000E+00  0.51716425090E+02  0.51716425090E+02  0.00000000000E+00 0.  1.
          1   -1    0    0  501    0  0.00000000000E+00 -0.00000000000E+00 -0.45763462558E+03  0.45763462558E+03  0.00000000000E+00 0. -1.
         25    2    1    2    0    0  0.61259457979E+02 -0.64346713917E+02 -0.32150340967E+03  0.35623565631E+03  0.12508468975E+03 0.  0.
         23    2    1    2    0    0 -0.61259457979E+02  0.64346713917E+02 -0.84414790813E+02  0.15311539436E+03  0.91789140413E+02 0.  0.
          5    1    3    3  502    0  0.42141113179E+02 -0.85171153694E+02 -0.12201016292E+03  0.15470601507E+03  0.41800000000E+01 0. -1.
         -5    1    3    3    0  502  0.19118344800E+02  0.20824439777E+02 -0.19949324675E+03  0.20152964124E+03  0.41800000000E+01 0. -1.
        -11    1    4    4    0    0 -0.35863753161E+02  0.50745515336E+02 -0.10194633482E+03  0.11939167183E+03  0.00000000000E+00 0. -1.
         11    1    4    4    0    0 -0.25395704818E+02  0.13601198581E+02  0.17531544010E+02  0.33723722533E+02  0.00000000000E+00 0.  1.
</event>
<event>
 8    1  0.7016814E-009  0.1689120E+03  0.7561462E-02  0.1178987E+00
          2   -1    0    0  501    0  0.00000000000E+00  0.00000000000E+00  0.29408725111E+03  0.29408725111E+03  0.00000000000E+00 0. -1.
         -2   -1    0    0    0  501 -0.00000000000E+00 -0.00000000000E+00 -0.98142510612E+02  0.98142510612E+02  0.00000000000E+00 0.  1.
         25    2    1    2    0    0  0.97943580265E+02 -0.85995518397E+02  0.99780200846E+02  0.20637755708E+03  0.12508970175E+03 0.  0.
         23    2    1    2    0    0 -0.97943580265E+02  0.85995518397E+02  0.96164539651E+02  0.18585220464E+03  0.91133139886E+02 0.  0.
          5    1    3    3  502    0  0.11342913209E+02  0.31434455327E+02  0.27568809170E+02  0.43523537320E+02  0.41800000000E+01 0.  1.
         -5    1    3    3    0  502  0.86600667056E+02 -0.11742997372E+03  0.72211391676E+02  0.16285401976E+03  0.41800000000E+01 0.  1.
        -11    1    4    4    0    0 -0.45077299990E+02  0.94433786330E+02  0.54295626252E+02  0.11788858301E+03  0.00000000000E+00 0. -1.
         11    1    4    4    0    0 -0.52866280275E+02 -0.84382679337E+01  0.41868913399E+02  0.67963621630E+02  0.00000000000E+00 0.  1.
</event>
<event>
 8    1  0.7016814E-009  0.1707653E+03  0.7561462E-02  0.1177052E+00
          2   -1    0    0  501    0  0.00000000000E+00  0.00000000000E+00  0.16395181209E+03  0.16395181209E+03  0.00000000000E+00 0. -1.
         -2   -1    0    0    0  501 -0.00000000000E+00 -0.00000000000E+00 -0.18836621303E+03  0.18836621303E+03  0.00000000000E+00 0.  1.
         25    2    1    2    0    0  0.11416270797E+03  0.66639502441E+02  0.27291123722E+02  0.18403107418E+03  0.12509469874E+03 0.  0.
         23    2    1    2    0    0 -0.11416270797E+03 -0.66639502441E+02 -0.51705524660E+02  0.16828695094E+03  0.90405140332E+02 0.  0.
          5    1    3    3  502    0  0.52661207610E+02 -0.34422162573E+02  0.16419146517E+02  0.65154806695E+02  0.41800000000E+01 0. -1.
         -5    1    3    3    0  502  0.61501500361E+02  0.10106166501E+03  0.10871977205E+02  0.11887626748E+03  0.41800000000E+01 0. -1.
        -11    1    4    4    0    0 -0.69740364395E+02 -0.86775918626E+02 -0.34083053212E+02  0.11642780164E+03  0.00000000000E+00 0. -1.
         11    1    4    4    0    0 -0.44422343576E+02  0.20136416184E+02 -0.17622471448E+02  0.51859149294E+02  0.00000000000E+00 0.  1.
</event>
<event>
 8    1  0.7016814E-009  0.1237306E+03  0.7561462E-02  0.1237067E+00
          2   -1    0    0  501    0  0.00000000000E+00  0.00000000000E+00  0.82870693216E+03  0.82870693216E+03  0.00000000000E+00 0.  1.
         -2   -1    0    0    0  501 -0.00000000000E+00 -0.00000000000E+00 -0.48727445665E+02  0.48727445665E+02  0.00000000000E+00 0. -1.
         25    2    1    2    0    0  0.55872373571E+02  0.10972205208E+03  0.65990701304E+03  0.68285139873E+03  0.12509243003E+03 0.  0.
         23    2    1    2    0    0 -0.55872373571E+02 -0.10972205208E+03  0.12007247346E+03  0.19458297910E+03  0.91019152002E+02 0.  0.
          5    1    3    3  502    0  0.12988161517E+02  0.41091010151E+02  0.44339116117E+02  0.61972518690E+02  0.41800000000E+01 0.  1.
         -5    1    3    3    0  502  0.42884212054E+02  0.68631041926E+02  0.61556789692E+03  0.62087888004E+03  0.41800000000E+01 0.  1.
        -11    1    4    4    0    0 -0.18899166435E+02 -0.37083334127E+02  0.10329758808E+03  0.11136760689E+03  0.00000000000E+00 0.  1.
         11    1    4    4    0    0 -0.36973207136E+02 -0.72638717951E+02  0.16774885378E+02  0.83215372203E+02  0.00000000000E+00 0. -1.
</event>
<event>
 8    1  0.7016814E-009  0.7163408E+02  0.7561462E-02  0.1354623E+00
         -2   -1    0    0    0  501 -0.00000000000E+00  0.00000000000E+00  0.10357762275E+03  0.10357762275E+03  0.00000000000E+00 0. -1.
          2   -1    0    0  501    0  0.00000000000E+00 -0.00000000000E+00 -0.15407543091E+03  0.15407543091E+03  0.00000000000E+00 0.  1.
         25    2    1    2    0    0  0.18792812798E+02 -0.50244190492E+02  0.73644028526E+01  0.13630663978E+03  0.12509043580E+03 0.  0.
         23    2    1    2    0    0 -0.18792812798E+02  0.50244190492E+02 -0.57862211018E+02  0.12134641388E+03  0.92191475776E+02 0.  0.
          5    1    3    3  502    0  0.24695939922E+02 -0.16376520348E+02 -0.56341605280E+02  0.63795993235E+02  0.41800000000E+01 0. -1.
         -5    1    3    3    0  502 -0.59031271245E+01 -0.33867670144E+02  0.63706008132E+02  0.72510646549E+02  0.41800000000E+01 0. -1.
        -11    1    4    4    0    0 -0.39655238106E+02  0.34710177899E+02  0.53701631253E+01  0.52973323579E+02  0.00000000000E+00 0. -1.
         11    1    4    4    0    0  0.20862425309E+02  0.15534012593E+02 -0.63232374143E+02  0.68373090297E+02  0.00000000000E+00 0.  1.
</event>
<event>
 8    1  0.7016814E-009  0.9631216E+02  0.7561462E-02  0.1288248E+00
          2   -1    0    0  501    0  0.00000000000E+00  0.00000000000E+00  0.14145587397E+03  0.14145587397E+03  0.00000000000E+00 0. -1.
         -2   -1    0    0    0  501 -0.00000000000E+00 -0.00000000000E+00 -0.83821496388E+02  0.83821496388E+02  0.00000000000E+00 0.  1.
         25    2    1    2    0    0 -0.50574285281E+01 -0.24957188822E+02  0.41295167730E+02  0.13416793269E+03  0.12508918589E+03 0.  0.
         23    2    1    2    0    0  0.50574285281E+01  0.24957188822E+02  0.16339209851E+02  0.91109437666E+02  0.85939053963E+02 0.  0.
          5    1    3    3  502    0 -0.44268870572E+01  0.50587160066E+02  0.82992878225E+01  0.51623721978E+02  0.41800000000E+01 0. -1.
         -5    1    3    3    0  502 -0.63054147096E+00 -0.75544348887E+02  0.32995879907E+02  0.82544210713E+02  0.41800000000E+01 0. -1.
        -11    1    4    4    0    0 -0.11440219629E+02 -0.17246522518E+02 -0.23115216572E+02  0.31026350112E+02  0.00000000000E+00 0.  1.
         11    1    4    4    0    0  0.16497648157E+02  0.42203711340E+02  0.39454426423E+02  0.60083087553E+02  0.00000000000E+00 0. -1.
</event>
<event>
 8    1  0.7016814E-009  0.1783285E+03  0.7561462E-02  0.1169431E+00
          2   -1    0    0  501    0  0.00000000000E+00  0.00000000000E+00  0.34412881315E+03  0.34412881315E+03  0.00000000000E+00 0. -1.
         -2   -1    0    0    0  501 -0.00000000000E+00 -0.00000000000E+00 -0.14158264783E+03  0.14158264783E+03  0.00000000000E+00 0.  1.
         25    2    1    2    0    0  0.14547405841E+03 -0.93035449837E+02  0.19681320893E+03  0.29017511697E+03  0.12509141738E+03 0.  0.
         23    2    1    2    0    0 -0.14547405841E+03  0.93035449837E+02  0.57329563956E+01  0.19553634402E+03  0.91560354112E+02 0.  0.
          5    1    3    3  502    0  0.56093922657E+02 -0.69833897622E+02  0.21849261915E+02  0.92293900461E+02  0.41800000000E+01 0. -1.
         -5    1    3    3    0  502  0.89380135755E+02 -0.23201552215E+02  0.17496394701E+03  0.19788121651E+03  0.41800000000E+01 0. -1.
        -11    1    4    4    0    0 -0.24003936376E+02  0.27592048489E+02 -0.36068327992E+02  0.51365692690E+02  0.00000000000E+00 0.  1.
         11    1    4    4    0    0 -0.12147012204E+03  0.65443401349E+02  0.41801284388E+02  0.14417065133E+03  0.00000000000E+00 0. -1.
</event>
<event>
 8    1  0.7016814E-009  0.9040803E+02  0.7561462E-02  0.1301867E+00
          1   -1    0    0  501    0  0.00000000000E+00  0.00000000000E+00  0.34765612921E+03  0.34765612921E+03  0.00000000000E+00 0. -1.
         -1   -1    0    0    0  501 -0.00000000000E+00 -0.00000000000E+00 -0.51013307799E+02  0.51013307799E+02  0.00000000000E+00 0.  1.
         25    2    1    2    0    0 -0.27719649204E+02 -0.53711269897E+02  0.23352675286E+03  0.27173183892E+03  0.12510063355E+03 0.  0.
         23    2    1    2    0    0  0.27719649204E+02  0.53711269897E+02  0.63116068549E+02  0.12693759809E+03  0.92066477251E+02 0.  0.
          5    1    3    3  502    0  0.25430264164E+02 -0.51018180370E+02  0.37010125696E+02  0.68093868063E+02  0.41800000000E+01 0. -1.
         -5    1    3    3    0  502 -0.53149913368E+02 -0.26930895273E+01  0.19651662716E+03  0.20363797086E+03  0.41800000000E+01 0. -1.
        -11    1    4    4    0    0 -0.14203761389E+01  0.36306040727E+02 -0.16861396463E+02  0.40055620733E+02  0.00000000000E+00 0.  1.
         11    1    4    4    0    0  0.29140025343E+02  0.17405229170E+02  0.79977465012E+02  0.86881977355E+02  0.00000000000E+00 0. -1.
</event>
<event>
 8    1  0.7016814E-009  0.1536613E+03  0.7561462E-02  0.1196045E+00
          2   -1    0    0  501    0  0.00000000000E+00  0.00000000000E+00  0.18333617351E+03  0.18333617351E+03  0.00000000000E+00 0. -1.
         -2   -1    0    0    0  501 -0.00000000000E+00 -0.00000000000E+00 -0.19136411004E+03  0.19136411004E+03  0.00000000000E+00 0.  1.
         25    2    1    2    0    0 -0.96527183897E+02  0.11438961115E+03  0.22234489696E+02  0.19632580482E+03  0.12508784409E+03 0.  0.
         23    2    1    2    0    0  0.96527183897E+02 -0.11438961115E+03 -0.30262426229E+02  0.17837447873E+03  0.92190888119E+02 0.  0.
          5    1    3    3  502    0 -0.55280582858E+02  0.81402979603E+02 -0.47015066526E+02  0.10913421466E+03  0.41800000000E+01 0. -1.
         -5    1    3    3    0  502 -0.41246601039E+02  0.32986631545E+02  0.69249556223E+02  0.87191590162E+02  0.41800000000E+01 0. -1.
        -11    1    4    4    0    0  0.33007904980E+02 -0.72793892597E+02 -0.56677592961E+02  0.97983785059E+02  0.00000000000E+00 0.  1.
         11    1    4    4    0    0  0.63519278917E+02 -0.41595718551E+02  0.26415166732E+02  0.80390693674E+02  0.00000000000E+00 0. -1.
</event>
<event>
 8    1  0.7016814E-009  0.9498084E+02  0.7561462E-02  0.1291219E+00
          1   -1    0    0  501    0  0.00000000000E+00  0.00000000000E+00  0.57614661902E+03  0.57614661902E+03  0.00000000000E+00 0. -1.
         -1   -1    0    0    0  501 -0.00000000000E+00 -0.00000000000E+00 -0.25591983118E+02  0.25591983118E+02  0.00000000000E+00 0.  1.
         25    2    1    2    0    0  0.38840222089E+02  0.77877031496E+01  0.42006650470E+03  0.44007672335E+03  0.12506975209E+03 0.  0.
         23    2    1    2    0    0 -0.38840222089E+02 -0.77877031496E+01  0.13048813120E+03  0.16166187879E+03  0.86822805168E+02 0.  0.
          5    1    3    3  502    0 -0.20626087295E+02  0.25581090796E+02  0.28798322967E+02  0.43893547238E+02  0.41800000000E+01 0.  1.
         -5    1    3    3    0  502  0.59466309383E+02 -0.17793387646E+02  0.39126818174E+03  0.39618317611E+03  0.41800000000E+01 0.  1.
        -11    1    4    4    0    0 -0.63201261614E+02  0.10624308346E+02  0.78158996913E+02  0.10107474559E+03  0.00000000000E+00 0. -1.
         11    1    4    4    0    0  0.24361039526E+02 -0.18412011496E+02  0.52329134288E+02  0.60587133200E+02  0.00000000000E+00 0.  1.
</event>
<event>
 8    1  0.7016814E-009  0.1296876E+03  0.7561462E-02  0.1227920E+00
          2   -1    0    0  501    0  0.00000000000E+00  0.00000000000E+00  0.16121707590E+03  0.16121707590E+03  0.00000000000E+00 0. -1.
         -2   -1    0    0    0  501 -0.00000000000E+00 -0.00000000000E+00 -0.13945215846E+03  0.13945215846E+03  0.00000000000E+00 0.  1.
         25    2    1    2    0    0 -0.40439837216E+02  0.72848031708E+02 -0.48657994472E+02  0.15797747183E+03  0.12508822894E+03 0.  0.
         23    2    1    2    0    0  0.40439837216E+02 -0.72848031708E+02  0.70422911912E+02  0.14269176253E+03  0.91974650930E+02 0.  0.
          5    1    3    3  502    0 -0.83068370601E+02  0.62544696773E+02 -0.21621539023E+02  0.10628808324E+03  0.41800000000E+01 0. -1.
         -5    1    3    3    0  502  0.42628533384E+02  0.10303334934E+02 -0.27036455449E+02  0.51689388587E+02  0.41800000000E+01 0. -1.
        -11    1    4    4    0    0 -0.20133140248E+02 -0.33303913291E+02 -0.37350219623E+01  0.39095324092E+02  0.00000000000E+00 0.  1.
         11    1    4    4    0    0  0.60572977465E+02 -0.39544118416E+02  0.74157933875E+02  0.10359643844E+03  0.00000000000E+00 0. -1.
</event>
<event>
 8    1  0.7016814E-009  0.1084318E+03  0.7561462E-02  0.1263502E+00
          2   -1    0    0  501    0  0.00000000000E+00  0.00000000000E+00  0.60024725673E+02  0.60024725673E+02  0.00000000000E+00 0. -1.
         -2   -1    0    0    0  501 -0.00000000000E+00 -0.00000000000E+00 -0.22120979794E+03  0.22120979794E+03  0.00000000000E+00 0.  1.
         25    2    1    2    0    0  0.36415252283E+01  0.31346875890E+02 -0.10925691936E+03  0.16905582383E+03  0.12508760853E+03 0.  0.
         23    2    1    2    0    0 -0.36415252283E+01 -0.31346875890E+02 -0.51928152905E+02  0.11217869979E+03  0.94295494524E+02 0.  0.
          5    1    3    3  502    0 -0.92890672040E+01 -0.47393841636E+02 -0.49451286125E+02  0.69248574671E+02  0.41800000000E+01 0.  1.
         -5    1    3    3    0  502  0.12930592432E+02  0.78740717526E+02 -0.59805633238E+02  0.99807249156E+02  0.41800000000E+01 0.  1.
        -11    1    4    4    0    0  0.37179812842E+02 -0.27428089140E+00  0.26490016070E+01  0.37275071060E+02  0.00000000000E+00 0. -1.
         11    1    4    4    0    0 -0.40821338070E+02 -0.31072594999E+02 -0.54577154512E+02  0.74903628727E+02  0.00000000000E+00 0.  1.
</event>
<event>
 8    1  0.7016814E-009  0.1191289E+03  0.7561462E-02  0.1244541E+00
          2   -1    0    0  501    0  0.00000000000E+00  0.00000000000E+00  0.88770119518E+03  0.88770119518E+03  0.00000000000E+00 0.  1.
         -2   -1    0    0    0  501 -0.00000000000E+00 -0.00000000000E+00 -0.25047649204E+02  0.25047649204E+02  0.00000000000E+00 0. -1.
         25    2    1    2    0    0 -0.37685405948E+02  0.84146828961E+02  0.33485882517E+03  0.36915976626E+03  0.12509045361E+03 0.  0.
         23    2    1    2    0    0  0.37685405948E+02 -0.84146828961E+02  0.52779472080E+03  0.54358907812E+03  0.91765679308E+02 0.  0.
          5    1    3    3  502    0 -0.48555342681E+02  0.33887531083E+02  0.30248138723E+03  0.30825062544E+03  0.41800000000E+01 0. -1.
         -5    1    3    3    0  502  0.10869936733E+02  0.50259297877E+02  0.32377437946E+02  0.60909140822E+02  0.41800000000E+01 0. -1.
        -11    1    4    4    0    0  0.60725071615E+02 -0.84750865299E+02  0.46876343936E+03  0.48021808126E+03  0.00000000000E+00 0. -1.
         11    1    4    4    0    0 -0.23039665666E+02  0.60403633864E+00  0.59031281448E+02  0.63370996862E+02  0.00000000000E+00 0.  1.
</event>
<event>
 8    1  0.7016814E-009  0.1008268E+03  0.7561462E-02  0.1278567E+00
          1   -1    0    0  501    0  0.00000000000E+00  0.00000000000E+00  0.32636288757E+02  0.32636288757E+02  0.00000000000E+00 0. -1.
         -1   -1    0    0    0  501 -0.00000000000E+00 -0.00000000000E+00 -0.49261905749E+03  0.49261905749E+03  0.00000000000E+00 0.  1.
         25    2    1    2    0    0 -0.11961298365E+02 -0.53068391997E+02 -0.33350713011E+03  0.36032379268E+03  0.12508758071E+03 0.  0.
         23    2    1    2    0    0  0.11961298365E+02  0.53068391997E+02 -0.12647563862E+03  0.16493155357E+03  0.90813012886E+02 0.  0.
          5    1    3    3  502    0 -0.14657354288E+02 -0.86555709667E+02 -0.30031958257E+03  0.31291540868E+03  0.41800000000E+01 0. -1.
         -5    1    3    3    0  502  0.26960559228E+01  0.33487317670E+02 -0.33187547541E+02  0.47408384006E+02  0.41800000000E+01 0. -1.
        -11    1    4    4    0    0  0.33126859088E+02  0.47701681188E+02 -0.28762327089E+02  0.64808260591E+02  0.00000000000E+00 0.  1.
         11    1    4    4    0    0 -0.21165560723E+02  0.53667108085E+01 -0.97713311534E+02  0.10012329298E+03  0.00000000000E+00 0. -1.
</event>
<event>
 8    1  0.7016814E-009  0.1276157E+03  0.7561462E-02  0.1231037E+00
          2   -1    0    0  501    0  0.00000000000E+00  0.00000000000E+00  0.64164806239E+03  0.64164806239E+03  0.00000000000E+00 0. -1.
         -2   -1    0    0    0  501 -0.00000000000E+00 -0.00000000000E+00 -0.27357303284E+02  0.27357303284E+02  0.00000000000E+00 0.  1.
         25    2    1    2    0    0 -0.23932877408E+02 -0.53888737277E+02  0.40765936009E+03  0.43047662428E+03  0.12508873474E+03 0.  0.
         23    2    1    2    0    0  0.23932877408E+02  0.53888737277E+02  0.20663139902E+03  0.23852874139E+03  0.10355021383E+03 0.  0.
          5    1    3    3  502    0 -0.36207087629E+02  0.32729829342E+02  0.11515657397E+03  0.12514273392E+03  0.41800000000E+01 0. -1.
         -5    1    3    3    0  502  0.12274210221E+02 -0.86618566619E+02  0.29250278612E+03  0.30533389037E+03  0.41800000000E+01 0. -1.
        -11    1    4    4    0    0  0.52782604298E+02 -0.50669861137E+01  0.81574011209E+02  0.97293355217E+02  0.00000000000E+00 0.  1.
         11    1    4    4    0    0 -0.28849726890E+02  0.58955723390E+02  0.12505738781E+03  0.14123538617E+03  0.00000000000E+00 0. -1.
</event>
<event>
 8    1  0.7016814E-009  0.1370091E+03  0.7561462E-02  0.1217411E+00
         -1   -1    0    0    0  501 -0.00000000000E+00  0.00000000000E+00  0.26187631937E+03  0.26187631937E+03  0.00000000000E+00 0.  1.
          1   -1    0    0  501    0  0.00000000000E+00 -0.00000000000E+00 -0.94060913499E+02  0.94060913499E+02  0.00000000000E+00 0. -1.
         25    2    1    2    0    0 -0.90923566873E+02  0.38279534636E+02  0.15229130643E+03  0.22039100380E+03  0.12508850768E+03 0.  0.
         23    2    1    2    0    0  0.90923566873E+02 -0.38279534636E+02  0.15524099437E+02  0.13554622907E+03  0.91648048352E+02 0.  0.
          5    1    3    3  502    0 -0.95113134973E+02 -0.22226998133E+02  0.10411624721E+03  0.14282231347E+03  0.41800000000E+01 0.  1.
         -5    1    3    3    0  502  0.41895681001E+01  0.60506532769E+02  0.48175059216E+02  0.77568690327E+02  0.41800000000E+01 0.  1.
        -11    1    4    4    0    0  0.36598539428E+02  0.14826387239E+02 -0.27611942552E+02  0.48183962252E+02  0.00000000000E+00 0. -1.
         11    1    4    4    0    0  0.54325027445E+02 -0.53105921874E+02  0.43136041989E+02  0.87362266818E+02  0.00000000000E+00 0.  1.
</event>
<event>
 8    1  0.7016814E-009  0.7271157E+02  0.7561462E-02  0.1351108E+00
          1   -1    0    0  501    0  0.00000000000E+00  0.00000000000E+00  0.15779481580E+03  0.15779481580E+03  0.00000000000E+00 0. -1.
         -1   -1    0    0    0  501 -0.00000000000E+00 -0.00000000000E+00 -0.83817603373E+02  0.83817603373E+02  0.00000000000E+00 0.  1.
         25    2    1    2    0    0  0.26973721435E+02 -0.29259945151E+02  0.27968790108E+02  0.13421597201E+03  0.12509175786E+03 0.  0.
         23    2    1    2    0    0 -0.26973721435E+02  0.29259945151E+02  0.46008422317E+02  0.10739644716E+03  0.88507038709E+02 0.  0.
          5    1    3    3  502    0  0.22695006616E+02 -0.36531066612E+01  0.75971232908E+02  0.79482760037E+02  0.41800000000E+01 0.  1.
         -5    1    3    3    0  502  0.42787148189E+01 -0.25606838490E+02 -0.48002442799E+02  0.54733211971E+02  0.41800000000E+01 0.  1.
        -11    1    4    4    0    0 -0.56541601508E+02  0.36725588318E+01  0.18563857479E+02  0.59624300364E+02  0.00000000000E+00 0.  1.
         11    1    4    4    0    0  0.29567880073E+02  0.25587386319E+02  0.27444564838E+02  0.47772146799E+02  0.00000000000E+00 0. -1.
</event>
<event>
 8    1  0.7016814E-009  0.1496446E+03  0.7561462E-02  0.1200910E+00
         -1   -1    0    0    0  501 -0.00000000000E+00  0.00000000000E+00  0.13824188770E+03  0.13824188770E+03  0.00000000000E+00 0.  1.
          1   -1    0    0  501    0  0.00000000000E+00 -0.00000000000E+00 -0.36786333627E+03  0.36786333627E+03  0.00000000000E+00 0. -1.
         25    2    1    2    0    0  0.24086506442E+01  0.13437358756E+03  0.43919265071E+02  0.18878293763E+03  0.12509209833E+03 0.  0.
         23    2    1    2    0    0 -0.24086506442E+01 -0.13437358756E+03 -0.27354071364E+03  0.31732228635E+03  0.88356373635E+02 0.  0.
          5    1    3    3  502    0  0.17364306678E+02  0.74799297700E+02  0.85111897022E+02  0.11470815794E+03  0.41800000000E+01 0. -1.
         -5    1    3    3    0  502 -0.14955656034E+02  0.59574289855E+02 -0.41192631952E+02  0.74074779691E+02  0.41800000000E+01 0. -1.
        -11    1    4    4    0    0  0.35176997356E+02 -0.20074576197E+02 -0.70846001516E+02  0.81606162042E+02  0.00000000000E+00 0.  1.
         11    1    4    4    0    0 -0.37585648001E+02 -0.11429901136E+03 -0.20269471213E+03  0.23571612430E+03  0.00000000000E+00 0. -1.
</event>
<event>
 8    1  0.7016814E-009  0.7800232E+02  0.7561462E-02  0.1334818E+00
          3   -1    0    0  501    0  0.00000000000E+00  0.00000000000E+00  0.78294478279E+03  0.78294478279E+03  0.00000000000E+00 0. -1.
         -3   -1    0    0    0  501 -0.00000000000E+00 -0.00000000000E+00 -0.56483047623E+02  0.56483047623E+02  0.00000000000E+00 0.  1.
         25    2    1    2    0    0 -0.35089944600E+02  0.28205455809E+01  0.73389204152E+03  0.74530806875E+03  0.12508928426E+03 0.  0.
         23    2    1    2    0    0  0.35089944600E+02 -0.28205455809E+01 -0.74303063570E+01  0.94119761668E+02  0.86971606829E+02 0.  0.
          5    1    3    3  502    0 -0.49552390708E+02  0.26814341390E+02  0.69447347662E+03  0.69676777369E+03  0.41800000000E+01 0. -1.
         -5    1    3    3    0  502  0.14462446108E+02 -0.23993795809E+02  0.39418564909E+02  0.48540295057E+02  0.41800000000E+01 0. -1.
        -11    1    4    4    0    0 -0.17995144645E+02  0.39664175037E+00 -0.31080062398E+02  0.35915913383E+02  0.00000000000E+00 0.  1.
         11    1    4    4    0    0  0.53085089245E+02 -0.32171873313E+01  0.23649756041E+02  0.58203848286E+02  0.00000000000E+00 0. -1.
</event>
<event>
 8    1  0.7016814E-009  0.1638633E+03  0.7561462E-02  0.1184403E+00
         -2   -1    0    0    0  501 -0.00000000000E+00  0.00000000000E+00  0.50412238986E+02  0.50412238986E+02  0.00000000000E+00 0.  1.
          2   -1    0    0  501    0  0.00000000000E+00 -0.00000000000E+00 -0.55790859650E+03  0.55790859650E+03  0.00000000000E+00 0. -1.
         25    2    1    2    0    0 -0.41177101559E+02  0.12037194817E+03 -0.26412157012E+03  0.31873659553E+03  0.12509138231E+03 0.  0.
         23    2    1    2    0    0  0.41177101559E+02 -0.12037194817E+03 -0.24337478739E+03  0.28958423996E+03  0.91884630349E+02 0.  0.
          5    1    3    3  502    0 -0.39898106740E+02 -0.93919305118E+01 -0.10853234963E+03  0.11608966619E+03  0.41800000000E+01 0.  1.
         -5    1    3    3    0  502 -0.12789948184E+01  0.12976387868E+03 -0.15558922049E+03  0.20264692934E+03  0.41800000000E+01 0.  1.
        -11    1    4    4    0    0  0.67091562832E+02 -0.10985188131E+03 -0.20588244122E+03  0.24280917041E+03  0.00000000000E+00 0.  1.
         11    1    4    4    0    0 -0.25914461273E+02 -0.10520066852E+02 -0.37492346169E+02  0.46775069545E+02  0.00000000000E+00 0. -1.
</event>
<event>
 8    1  0.7016814E-009  0.1024379E+03  0.7561462E-02  0.1275251E+00
         -1   -1    0    0    0  501 -0.00000000000E+00  0.00000000000E+00  0.38411692265E+02  0.38411692265E+02  0.00000000000E+00 0.  1.
          1   -1    0    0  501    0  0.00000000000E+00 -0.00000000000E+00 -0.54651152966E+03  0.54651152966E+03  0.00000000000E+00 0. -1.
         25    2    1    2    0    0  0.55871693240E+02 -0.75155446781E+02 -0.32579524351E+03  0.36133076286E+03  0.12508953677E+03 0.  0.
         23    2    1    2    0    0 -0.55871693240E+02  0.75155446781E+02 -0.18230459388E+03  0.22359245906E+03  0.89379167107E+02 0.  0.
          5    1    3    3  502    0  0.14107692071E+02 -0.28063922090E+02 -0.23310708492E+01  0.31772897097E+02  0.41800000000E+01 0.  1.
         -5    1    3    3    0  502  0.41764001169E+02 -0.47091524691E+02 -0.32346417266E+03  0.32955786577E+03  0.41800000000E+01 0.  1.
        -11    1    4    4    0    0  0.91050746608E+01  0.29025719635E+02 -0.72768553500E+01  0.31278545502E+02  0.00000000000E+00 0.  1.
         11    1    4    4    0    0 -0.64976767901E+02  0.46129727146E+02 -0.17502773853E+03  0.19231391356E+03  0.00000000000E+00 0. -1.
</event>
<event>
 8    1  0.7016814E-009  0.1635333E+03  0.7561462E-02  0.1184764E+00
         -4   -1    0    0    0  501 -0.00000000000E+00  0.00000000000E+00  0.26380847572E+03  0.26380847572E+03  0.00000000000E+00 0. -1.
          4   -1    0    0  501    0  0.00000000000E+00 -0.00000000000E+00 -0.12779075847E+03  0.12779075847E+03  0.00000000000E+00 0.  1.
         25    2    1    2    0    0  0.11558275976E+03 -0.78272586977E+02  0.12388066968E+03  0.22467788437E+03  0.12509100359E+03 0.  0.
         23    2    1    2    0    0 -0.11558275976E+03  0.78272586977E+02  0.12137047569E+02  0.16692134982E+03  0.90716353963E+02 0.  0.
          5    1    3    3  502    0  0.21667612365E+02  0.32907902944E+02  0.41555984692E+02  0.57417660746E+02  0.41800000000E+01 0. -1.
         -5    1    3    3    0  502  0.93915147397E+02 -0.11118048992E+03  0.82324684984E+02  0.16726022363E+03  0.41800000000E+01 0. -1.
        -11    1    4    4    0    0 -0.41100258624E+02  0.13855081914E+02 -0.36869941247E+02  0.56926154985E+02  0.00000000000E+00 0.  1.
         11    1    4    4    0    0 -0.74482501138E+02  0.64417505063E+02  0.49006988816E+02  0.10999519484E+03  0.00000000000E+00 0. -1.
</event>
<event>
 8    1  0.7016814E-009  0.1201415E+03  0.7561462E-02  0.1242864E+00
          2   -1    0    0  501    0  0.00000000000E+00  0.00000000000E+00  0.42707649101E+03  0.42707649101E+03  0.00000000000E+00 0. -1.
         -2   -1    0    0    0  501 -0.00000000000E+00 -0.00000000000E+00 -0.44508814529E+02  0.44508814529E+02  0.00000000000E+00 0.  1.
         25    2    1    2    0    0 -0.71551887642E+02  0.40555089168E+02  0.23728642510E+03  0.28056470430E+03  0.12508923966E+03 0.  0.
         23    2    1    2    0    0  0.71551887642E+02 -0.40555089168E+02  0.14528125138E+03  0.19102060124E+03  0.92832323103E+02 0.  0.
          5    1    3    3  502    0 -0.57450780937E+02 -0.22196567289E+02  0.19229967559E+03  0.20196513923E+03  0.41800000000E+01 0.  1.
         -5    1    3    3    0  502 -0.14101106705E+02  0.62751656457E+02  0.44986749511E+02  0.78599565075E+02  0.41800000000E+01 0.  1.
        -11    1    4    4    0    0 -0.14565987676E+02 -0.21383954696E+02  0.66804560038E+01  0.26722088388E+02  0.00000000000E+00 0.  1.
         11    1    4    4    0    0  0.86117875318E+02 -0.19171134472E+02  0.13860079537E+03  0.16429851285E+03  0.00000000000E+00 0. -1.
</event>
<event>
 8    1  0.7016814E-009  0.6131079E+02  0.7561462E-02  0.1392412E+00
          2   -1    0    0  501    0  0.00000000000E+00  0.00000000000E+00  0.33268512970E+02  0.33268512970E+02  0.00000000000E+00 0. -1.
         -2   -1    0    0    0  501 -0.00000000000E+00 -0.00000000000E+00 -0.41532843886E+03  0.41532843886E+03  0.00000000000E+00 0.  1.
         25    2    1    2    0    0 -0.74481346841E+01  0.33407120685E+02 -0.26865487797E+03  0.29831847451E+03  0.12508780258E+03 0.  0.
         23    2    1    2    0    0  0.74481346841E+01 -0.33407120685E+02 -0.11340504792E+03  0.15027847732E+03  0.92473809421E+02 0.  0.
          5    1    3    3  502    0 -0.14802782918E+02  0.10629467699E+02  0.81879990020E+01  0.20411361869E+02  0.41800000000E+01 0. -1.
         -5    1    3    3    0  502  0.73546482342E+01  0.22777652986E+02 -0.27684287697E+03  0.27790711264E+03  0.41800000000E+01 0. -1.
        -11    1    4    4    0    0 -0.10793235797E+02  0.20253727007E+02 -0.82686727020E+02  0.85812599436E+02  0.00000000000E+00 0.  1.
         11    1    4    4    0    0  0.18241370481E+02 -0.53660847693E+02 -0.30718320896E+02  0.64465877879E+02  0.00000000000E+00 0. -1.
</event>
<event>
 8    1  0.7016814E-009  0.1874140E+03  0.7561462E-02  0.1160815E+00
         -2   -1    0    0    0  501 -0.00000000000E+00  0.00000000000E+00  0.68546088173E+02  0.68546088173E+02  0.00000000000E+00 0.  1.
          2   -1    0    0  501    0  0.00000000000E+00 -0.00000000000E+00 -0.58625287466E+03  0.58625287466E+03  0.00000000000E+00 0. -1.
         25    2    1    2    0    0 -0.10935487147E+03 -0.12525544227E+03 -0.31187637877E+03  0.37491528606E+03  0.12508869796E+03 0.  0.
         23    2    1    2    0    0  0.10935487147E+03  0.12525544227E+03 -0.20583040772E+03  0.27988367677E+03  0.91221171044E+02 0.  0.
          5    1    3    3  502    0 -0.60531178984E+02  0.12422819719E+02 -0.93303260523E+02  0.11198803911E+03  0.41800000000E+01 0.  1.
         -5    1    3    3    0  502 -0.48823692488E+02 -0.13767826199E+03 -0.21857311824E+03  0.26292724696E+03  0.41800000000E+01 0.  1.
        -11    1    4    4    0    0  0.32497254563E+02  0.28792838142E+02 -0.43305886670E+01  0.43633164916E+02  0.00000000000E+00 0.  1.
         11    1    4    4    0    0  0.76857616909E+02  0.96462604130E+02 -0.20149981906E+03  0.23625051186E+03  0.00000000000E+00 0. -1.
</event>
<event>
 8    1  0.7016814E-009  0.1384968E+03  0.7561462E-02  0.1215366E+00
         -2   -1    0    0    0  501 -0.00000000000E+00  0.00000000000E+00  0.85163865747E+02  0.85163865747E+02  0.00000000000E+00 0.  1.
          2   -1    0    0  501    0  0.00000000000E+00 -0.00000000000E+00 -0.27638673994E+03  0.27638673994E+03  0.00000000000E+00 0. -1.
         25    2    1    2    0    0  0.27037849834E+02  0.88962526552E+02 -0.17685592852E+03  0.23573261779E+03  0.12508585525E+03 0.  0.
         23    2    1    2    0    0 -0.27037849834E+02 -0.88962526552E+02 -0.14366945675E+02  0.12581798790E+03  0.83536701491E+02 0.  0.
          5    1    3    3  502    0  0.36847186981E+02  0.11661091067E+03 -0.11878529468E+03  0.17053808463E+03  0.41800000000E+01 0. -1.
         -5    1    3    3    0  502 -0.98093371462E+01 -0.27648384122E+02 -0.58070633837E+02  0.65194533160E+02  0.41800000000E+01 0. -1.
        -11    1    4    4    0    0  0.26817998994E+02 -0.84258953320E+01 -0.32745595172E+01  0.28300592259E+02  0.00000000000E+00 0.  1.
         11    1    4    4    0    0 -0.53855848828E+02 -0.80536631220E+02 -0.11092386158E+02  0.97517395638E+02  0.00000000000E+00 0. -1.
</event>
<event>
 8    1  0.7016814E-009  0.1739684E+03  0.7561462E-02  0.1173772E+00
         -1   -1    0    0    0  501 -0.00000000000E+00  0.00000000000E+00  0.18991915244E+03  0.18991915244E+03  0.00000000000E+00 0.  1.
          1   -1    0    0  501    0  0.00000000000E+00 -0.00000000000E+00 -0.20304380628E+03  0.20304380628E+03  0.00000000000E+00 0. -1.
         25    2    1    2    0    0 -0.12544958685E+03 -0.89958730030E+02 -0.67986991979E+02  0.20999521395E+03  0.12508232031E+03 0.  0.
         23    2    1    2    0    0  0.12544958685E+03  0.89958730030E+02  0.54862338141E+02  0.18296774477E+03  0.81468690494E+02 0.  0.
          5    1    3    3  502    0 -0.10529673450E+03 -0.11834578567E+03 -0.73188092694E+02  0.17454826437E+03  0.41800000000E+01 0.  1.
         -5    1    3    3    0  502 -0.20152852351E+02  0.28387055642E+02  0.52011007151E+01  0.35446949580E+02  0.41800000000E+01 0.  1.
        -11    1    4    4    0    0  0.60510661491E+02  0.45554041464E+02 -0.15629179712E+02  0.77336809517E+02  0.00000000000E+00 0. -1.
         11    1    4    4    0    0  0.64938925362E+02  0.44404688566E+02  0.70491517853E+02  0.10563093526E+03  0.00000000000E+00 0.  1.
</event>
<event>
 8    1  0.7016814E-009  0.1123011E+03  0.7561462E-02  0.1256367E+00
          4   -1    0    0  501    0  0.00000000000E+00  0.00000000000E+00  0.57896657558E+02  0.57896657558E+02  0.00000000000E+00 0. -1.
         -4   -1    0    0    0  501 -0.00000000000E+00 -0.00000000000E+00 -0.50120519879E+03  0.50120519879E+03  0.00000000000E+00 0.  1.
         25    2    1    2    0    0 -0.44720191418E+02 -0.68050284403E+02 -0.71008836021E+02  0.16528829442E+03  0.12508888341E+03 0.  0.
         23    2    1    2    0    0  0.44720191418E+02  0.68050284403E+02 -0.37229970521E+03  0.39381356192E+03  0.99253787479E+02 0.  0.
          5    1    3    3  502    0 -0.50533740592E+02 -0.98882977280E+02 -0.33201326807E+02  0.11597975097E+03  0.41800000000E+01 0.  1.
         -5    1    3    3    0  502  0.58135491743E+01  0.30832692877E+02 -0.37807509214E+02  0.49308543449E+02  0.41800000000E+01 0.  1.
        -11    1    4    4    0    0  0.10625541372E+02  0.10542751942E+02  0.58817927970E+00  0.14979909974E+02  0.00000000000E+00 0.  1.
         11    1    4    4    0    0  0.34094650045E+02  0.57507532461E+02 -0.37288788449E+03  0.37883365195E+03  0.00000000000E+00 0. -1.
</event>
<event>
 8    1  0.7016814E-009  0.1073965E+03  0.7561462E-02  0.1265469E+00
          2   -1    0    0  501    0  0.00000000000E+00  0.00000000000E+00  0.73059450968E+03  0.73059450968E+03  0.00000000000E+00 0. -1.
         -2   -1    0    0    0  501 -0.00000000000E+00 -0.00000000000E+00 -0.18428907956E+02  0.18428907956E+02  0.00000000000E+00 0.  1.
         25    2    1    2    0    0 -0.42261581890E+02 -0.14746132945E+02  0.33887830515E+03  0.36399108005E+03  0.12509001124E+03 0.  0.
         23    2    1    2    0    0  0.42261581890E+02  0.14746132945E+02  0.37328729657E+03  0.38503233759E+03  0.83084327438E+02 0.  0.
          5    1    3    3  502    0  0.28081670019E+00  0.49225184231E+02  0.19111144810E+03  0.19739365647E+03  0.41800000000E+01 0.  1.
         -5    1    3    3    0  502 -0.42542398590E+02 -0.63971317176E+02  0.14776685706E+03  0.16659742358E+03  0.41800000000E+01 0.  1.
        -11    1    4    4    0    0  0.33309582322E+02 -0.28775494684E+02  0.25300577520E+03  0.25680630766E+03  0.00000000000E+00 0. -1.
         11    1    4    4    0    0  0.89519995673E+01  0.43521627630E+02  0.12028152137E+03  0.12822602993E+03  0.00000000000E+00 0.  1.
</event>
<event>
 8    1  0.7016814E-009  0.1617717E+03  0.7561462E-02  0.1186711E+00
         -1   -1    0    0    0  501 -0.00000000000E+00  0.00000000000E+00  0.34343826646E+03  0.34343826646E+03  0.00000000000E+00 0.  1.
          1   -1    0    0  501    0  0.00000000000E+00 -0.00000000000E+00 -0.98986823925E+02  0.98986823925E+02  0.00000000000E+00 0. -1.
         25    2    1    2    0    0  0.11445428210E+03 -0.73473502030E+02  0.58742878780E+02  0.19388995802E+03  0.12507778308E+03 0.  0.
         23    2    1    2    0    0 -0.11445428210E+03  0.73473502030E+02  0.18570856375E+03  0.24853513236E+03  0.93722479566E+02 0.  0.
          5    1    3    3  502    0 -0.20033965133E+02  0.91948366988E+01  0.22685312250E+02  0.31906121243E+02  0.41800000000E+01 0. -1.
         -5    1    3    3    0  502  0.13448824724E+03 -0.82668338729E+02  0.36057566531E+02  0.16198383678E+03  0.41800000000E+01 0. -1.
        -11    1    4    4    0    0 -0.22407381955E+02 -0.41396024278E+01 -0.46877786512E+01  0.23263755996E+02  0.00000000000E+00 0. -1.
         11    1    4    4    0    0 -0.92046900147E+02  0.77613104458E+02  0.19039634240E+03  0.22527137637E+03  0.00000000000E+00 0.  1.
</event>
<event>
 8    1  0.7016814E-009  0.1055367E+03  0.7561462E-02  0.1269066E+00
         -3   -1    0    0    0  501 -0.00000000000E+00  0.00000000000E+00  0.10456150602E+03  0.10456150602E+03  0.00000000000E+00 0.  1.
          3   -1    0    0  501    0  0.00000000000E+00 -0.00000000000E+00 -0.16554221588E+03  0.16554221588E+03  0.00000000000E+00 0. -1.
         25    2    1    2    0    0  0.41922705725E+01  0.24676502769E+02  0.37429819734E+02  0.13294907442E+03  0.12509180654E+03 0.  0.
         23    2    1    2    0    0 -0.41922705725E+01 -0.24676502769E+02 -0.98410529595E+02  0.13715464747E+03  0.92196854965E+02 0.  0.
          5    1    3    3  502    0 -0.24767694208E+02 -0.42955421167E+02 -0.11443669433E+01  0.49773375009E+02  0.41800000000E+01 0. -1.
         -5    1    3    3    0  502  0.28959964780E+02  0.67631923937E+02  0.38574186677E+02  0.83175699416E+02  0.41800000000E+01 0. -1.
        -11    1    4    4    0    0 -0.40550809350E+02  0.47773780476E+01 -0.19118315707E+02  0.45085490741E+02  0.00000000000E+00 0. -1.
         11    1    4    4    0    0  0.36358538777E+02 -0.29453880817E+02 -0.79292213888E+02  0.92069156727E+02  0.00000000000E+00 0.  1.
</event>
<event>
 8    1  0.7016814E-009  0.1134281E+03  0.7561462E-02  0.1254350E+00
          2   -1    0    0  501    0  0.00000000000E+00  0.00000000000E+00  0.27666118472E+02  0.27666118472E+02  0.00000000000E+00 0. -1.
         -2   -1    0    0    0  501 -0.00000000000E+00 -0.00000000000E+00 -0.54546562924E+03  0.54546562924E+03  0.00000000000E+00 0.  1.
         25    2    1    2    0    0  0.57041447334E+02  0.11134032739E+02 -0.26640878336E+03  0.29999793040E+03  0.12508966781E+03 0.  0.
         23    2    1    2    0    0 -0.57041447334E+02 -0.11134032739E+02 -0.25139072740E+03  0.27313381731E+03  0.89594034030E+02 0.  0.
          5    1    3    3  502    0  0.70310941097E+02 -0.32171582185E+02 -0.22690076207E+03  0.23975001015E+03  0.41800000000E+01 0.  1.
         -5    1    3    3    0  502 -0.13269493762E+02  0.43305614924E+02 -0.39508021296E+02  0.60247920258E+02  0.41800000000E+01 0.  1.
        -11    1    4    4    0    0  0.20262912797E+02  0.11612751632E+02 -0.33649339467E+02  0.40959976587E+02  0.00000000000E+00 0.  1.
         11    1    4    4    0    0 -0.77304360131E+02 -0.22746784371E+02 -0.21774138794E+03  0.23217384072E+03  0.00000000000E+00 0. -1.
</event>
<event>
 8    1  0.7016814E-009  0.4697316E+03  0.7561462E-02  0.1021996E+00
          1   -1    0    0  501    0  0.00000000000E+00  0.00000000000E+00  0.74963971507E+03  0.74963971507E+03  0.00000000000E+00 0. -1.
         -1   -1    0    0    0  501 -0.00000000000E+00 -0.00000000000E+00 -0.45063375724E+03  0.45063375724E+03  0.00000000000E+00 0.  1.
         25    2    1    2    0    0  0.25404723339E+03 -0.38979464033E+03  0.49192125557E+03  0.68856026731E+03  0.12509541005E+03 0.  0.
         23    2    1    2    0    0 -0.25404723339E+03  0.38979464033E+03 -0.19291529774E+03  0.51171320499E+03  0.90300795325E+02 0.  0.
          5    1    3    3  502    0  0.44415210760E+02 -0.89515429664E+02  0.42139717850E+02  0.10853087724E+03  0.41800000000E+01 0.  1.
         -5    1    3    3    0  502  0.20963202263E+03 -0.30027921067E+03  0.44978153772E+03  0.58002939007E+03  0.41800000000E+01 0.  1.
        -11    1    4    4    0    0 -0.22317832011E+03  0.38023466856E+03 -0.18675643243E+03  0.47881617642E+03  0.00000000000E+00 0.  1.
         11    1    4    4    0    0 -0.30868913278E+02  0.95599717696E+01 -0.61588653135E+01  0.32897028576E+02  0.00000000000E+00 0. -1.
</event>
<event>
 8    1  0.7016814E-009  0.2906777E+03  0.7561462E-02  0.1089996E+00
          1   -1    0    0  501    0  0.00000000000E+00  0.00000000000E+00  0.18147566972E+04  0.18147566972E+04  0.00000000000E+00 0. -1.
         -1   -1    0    0    0  501 -0.00000000000E+00 -0.00000000000E+00 -0.58855610311E+02  0.58855610311E+02  0.00000000000E+00 0.  1.
         25    2    1    2    0    0  0.22546399376E+03 -0.15679352918E+03  0.12920806811E+04  0.13268526831E+04  0.12508929899E+03 0.  0.
         23    2    1    2    0    0 -0.22546399376E+03  0.15679352918E+03  0.46382040580E+03  0.54675962449E+03  0.91643302341E+02 0.  0.
          5    1    3    3  502    0  0.18614541978E+03 -0.58060856901E+02  0.80384065317E+03  0.82716289115E+03  0.41800000000E+01 0.  1.
         -5    1    3    3    0  502  0.39318573974E+02 -0.98732672277E+02  0.48824002796E+03  0.49968979191E+03  0.41800000000E+01 0.  1.
        -11    1    4    4    0    0 -0.98873327933E+02  0.10190045059E+03  0.16539418916E+03  0.21797906921E+03  0.00000000000E+00 0. -1.
         11    1    4    4    0    0 -0.12659066582E+03  0.54893078585E+02  0.29842621664E+03  0.32878055527E+03  0.00000000000E+00 0.  1.
</event>
<event>
 8    1  0.7016814E-009  0.1073406E+03  0.7561462E-02  0.1265576E+00
         -2   -1    0    0    0  501 -0.00000000000E+00  0.00000000000E+00  0.11722084826E+03  0.11722084826E+03  0.00000000000E+00 0. -1.
          2   -1    0    0  501    0  0.00000000000E+00 -0.00000000000E+00 -0.21148895245E+03  0.21148895245E+03  0.00000000000E+00 0.  1.
         25    2    1    2    0    0 -0.27111822028E+02 -0.48828929079E+02 -0.15436602176E+03  0.20638798206E+03  0.12509122773E+03 0.  0.
         23    2    1    2    0    0  0.27111822028E+02  0.48828929079E+02  0.60097917568E+02  0.12232181864E+03  0.90727903158E+02 0.  0.
          5    1    3    3  502    0 -0.61421412650E+02 -0.35788531861E+02 -0.15375144227E+03  0.16944139797E+03  0.41800000000E+01 0. -1.
         -5    1    3    3    0  502  0.34309590622E+02 -0.13040397219E+02 -0.61457949097E+00  0.36946584094E+02  0.41800000000E+01 0. -1.
        -11    1    4    4    0    0 -0.86151715435E+01 -0.23951049149E+02  0.13615541477E+02  0.28866189665E+02  0.00000000000E+00 0.  1.
         11    1    4    4    0    0  0.35726993572E+02  0.72779978228E+02  0.46482376091E+02  0.93455628978E+02  0.00000000000E+00 0. -1.
</event>
<event>
 8    1  0.7016814E-009  0.1041166E+03  0.7561462E-02  0.1271870E+00
          2   -1    0    0  501    0  0.00000000000E+00  0.00000000000E+00  0.93539105874E+03  0.93539105874E+03  0.00000000000E+00 0. -1.
         -2   -1    0    0    0  501 -0.00000000000E+00 -0.00000000000E+00 -0.30737932336E+02  0.30737932336E+02  0.00000000000E+00 0.  1.
         25    2    1    2    0    0  0.15142695185E+02  0.59531969586E+02  0.80871914173E+03  0.82063996520E+03  0.12509974283E+03 0.  0.
         23    2    1    2    0    0 -0.15142695185E+02 -0.59531969586E+02  0.95933984670E+02  0.14548902588E+03  0.90500666382E+02 0.  0.
          5    1    3    3  502    0  0.68311474215E+01  0.98739582945E+02  0.57868867346E+03  0.58710665386E+03  0.41800000000E+01 0.  1.
         -5    1    3    3    0  502  0.83115477632E+01 -0.39207613359E+02  0.23003046828E+03  0.23353331134E+03  0.41800000000E+01 0.  1.
        -11    1    4    4    0    0  0.84112568812E+01 -0.29673366832E+02  0.10237216250E+03  0.10691734002E+03  0.00000000000E+00 0. -1.
         11    1    4    4    0    0 -0.23553952066E+02 -0.29858602754E+02 -0.64381778288E+01  0.38571685860E+02  0.00000000000E+00 0.  1.
</event>
<event>
 8    1  0.7016814E-009  0.1032194E+03  0.7561462E-02  0.1273668E+00
         -2   -1    0    0    0  501 -0.00000000000E+00  0.00000000000E+00  0.39434214616E+03  0.39434214616E+03  0.00000000000E+00 0.  1.
          2   -1    0    0  501    0  0.00000000000E+00 -0.00000000000E+00 -0.32585955706E+02  0.32585955706E+02  0.00000000000E+00 0. -1.
         25    2    1    2    0    0 -0.30322104567E+02 -0.52520073573E+01  0.21231528034E+03  0.24833800437E+03  0.12508785930E+03 0.  0.
         23    2    1    2    0    0  0.30322104567E+02  0.52520073573E+01  0.14944091012E+03  0.17859009750E+03  0.92816074577E+02 0.  0.
          5    1    3    3  502    0 -0.12275063106E+02  0.50448894164E+02  0.16474061291E+03  0.17277936809E+03  0.41800000000E+01 0.  1.
         -5    1    3    3    0  502 -0.18047041461E+02 -0.55700901521E+02  0.47574667432E+02  0.75558636283E+02  0.41800000000E+01 0.  1.
        -11    1    4    4    0    0  0.62569101199E+02  0.88916969535E+01  0.80084427947E+02  0.10201700985E+03  0.00000000000E+00 0. -1.
         11    1    4    4    0    0 -0.32246996632E+02 -0.36396895963E+01  0.69356482172E+02  0.76573087645E+02  0.00000000000E+00 0.  1.
</event>
<event>
 8    1  0.7016814E-009  0.1080063E+03  0.7561462E-02  0.1264307E+00
         -2   -1    0    0    0  501 -0.00000000000E+00  0.00000000000E+00  0.28831335123E+02  0.28831335123E+02  0.00000000000E+00 0.  1.
          2   -1    0    0  501    0  0.00000000000E+00 -0.00000000000E+00 -0.81211697137E+03  0.81211697137E+03  0.00000000000E+00 0. -1.
         25    2    1    2    0    0 -0.11218566927E+02 -0.87180200813E+02 -0.59505991953E+03  0.61438628173E+03  0.12509177306E+03 0.  0.
         23    2    1    2    0    0  0.11218566927E+02  0.87180200813E+02 -0.18822571671E+03  0.22656202476E+03  0.90416740562E+02 0.  0.
          5    1    3    3  502    0 -0.22959314213E+02 -0.16714367092E+01 -0.40419301942E+03  0.40486960019E+03  0.41800000000E+01 0.  1.
         -5    1    3    3    0  502  0.11740747285E+02 -0.85508764104E+02 -0.19086690011E+03  0.20951668154E+03  0.41800000000E+01 0.  1.
        -11    1    4    4    0    0 -0.24717456689E+02  0.35733938608E+02 -0.21623766486E+02  0.48533022888E+02  0.00000000000E+00 0.  1.
         11    1    4    4    0    0  0.35936023617E+02  0.51446262204E+02 -0.16660195023E+03  0.17802900187E+03  0.00000000000E+00 0. -1.
</event>
<event>
 8    1  0.7016814E-009  0.1938246E+03  0.7561462E-02  0.1155056E+00
         -2   -1    0    0    0  501 -0.00000000000E+00  0.00000000000E+00  0.54076072511E+02  0.54076072511E+02  0.00000000000E+00 0.  1.
          2   -1    0    0  501    0  0.00000000000E+00 -0.00000000000E+00 -0.12784431581E+04  0.12784431581E+04  0.00000000000E+00 0. -1.
         25    2    1    2    0    0  0.85139498567E+02 -0.14863455379E+03 -0.10572261563E+04  0.10782908409E+04  0.12507208835E+03 0.  0.
         23    2    1    2    0    0 -0.85139498567E+02  0.14863455379E+03 -0.16714092927E+03  0.25422838965E+03  0.85761407836E+02 0.  0.
          5    1    3    3  502    0  0.10033842600E+03 -0.52418188878E+02 -0.50798273238E+03  0.52046075265E+03  0.41800000000E+01 0. -1.
         -5    1    3    3    0  502 -0.15198927432E+02 -0.96216364912E+02 -0.54924342392E+03  0.55783008828E+03  0.41800000000E+01 0. -1.
        -11    1    4    4    0    0 -0.32603630175E+02  0.20838176791E+02 -0.85225558338E+02  0.93598194996E+02  0.00000000000E+00 0. -1.
         11    1    4    4    0    0 -0.52535868392E+02  0.12779637700E+03 -0.81915370929E+02  0.16063019466E+03  0.00000000000E+00 0.  1.
</event>
<event>
 8    1  0.7016814E-009  0.8485061E+02  0.7561462E-02  0.1315824E+00
          2   -1    0    0  501    0  0.00000000000E+00  0.00000000000E+00  0.32591151641E+03  0.32591151641E+03  0.00000000000E+00 0. -1.
         -2   -1    0    0    0  501 -0.00000000000E+00 -0.00000000000E+00 -0.65177050327E+02  0.65177050327E+02  0.00000000000E+00 0.  1.
         25    2    1    2    0    0  0.42566866827E+02  0.32852184872E+02  0.33474807114E+02  0.14021073656E+03  0.12508910317E+03 0.  0.
         23    2    1    2    0    0 -0.42566866827E+02 -0.32852184872E+02  0.22725965897E+03  0.25087783018E+03  0.91659854243E+02 0.  0.
          5    1    3    3  502    0 -0.61993457831E+01  0.10834973668E+02 -0.44019903845E+02  0.45946195458E+02  0.41800000000E+01 0.  1.
         -5    1    3    3    0  502  0.48766212610E+02  0.22017211204E+02  0.77494710960E+02  0.94264541097E+02  0.41800000000E+01 0.  1.
        -11    1    4    4    0    0 -0.32721348392E+02  0.26869597489E+02  0.63793906564E+02  0.76565817598E+02  0.00000000000E+00 0.  1.
         11    1    4    4    0    0 -0.98455184352E+01 -0.59721782361E+02  0.16346575240E+03  0.17431201258E+03  0.00000000000E+00 0. -1.
</event>
<event>
 8    1  0.7016814E-009  0.2582812E+03  0.7561462E-02  0.1108180E+00
         -2   -1    0    0    0  501 -0.00000000000E+00  0.00000000000E+00  0.63904169315E+03  0.63904169315E+03  0.00000000000E+00 0.  1.
          2   -1    0    0  501    0  0.00000000000E+00 -0.00000000000E+00 -0.11395777353E+03  0.11395777353E+03  0.00000000000E+00 0. -1.
         25    2    1    2    0    0  0.21789880318E+03 -0.11434215513E+03  0.24731959091E+03  0.37063212571E+03  0.12508867132E+03 0.  0.
         23    2    1    2    0    0 -0.21789880318E+03  0.11434215513E+03  0.27776432871E+03  0.38236734097E+03  0.92183210373E+02 0.  0.
          5    1    3    3  502    0  0.10050297699E+03  0.70499160881E+01  0.13195796198E+03  0.16607506083E+03  0.41800000000E+01 0. -1.
         -5    1    3    3    0  502  0.11739582618E+03 -0.12139207122E+03  0.11536162894E+03  0.20455706488E+03  0.41800000000E+01 0. -1.
        -11    1    4    4    0    0 -0.36677862792E+02  0.11527770716E+02  0.10461749694E+03  0.11145840382E+03  0.00000000000E+00 0.  1.
         11    1    4    4    0    0 -0.18122094039E+03  0.10281438441E+03  0.17314683176E+03  0.27090893715E+03  0.00000000000E+00 0. -1.
</event>
<event>
 8    1  0.7016814E-009  0.1232306E+03  0.7561462E-02  0.1237861E+00
         -2   -1    0    0    0  501 -0.00000000000E+00  0.00000000000E+00  0.16683491726E+04  0.16683491726E+04  0.00000000000E+00 0.  1.
          2   -1    0    0  501    0  0.00000000000E+00 -0.00000000000E+00 -0.14813623624E+02  0.14813623624E+02  0.00000000000E+00 0. -1.
         25    2    1    2    0    0  0.69218541261E+02 -0.49327651751E+02  0.13185910274E+04  0.13272351984E+04  0.12508617305E+03 0.  0.
         23    2    1    2    0    0 -0.69218541261E+02  0.49327651751E+02  0.33494452162E+03  0.35592759786E+03  0.85277187273E+02 0.  0.
          5    1    3    3  502    0  0.45762458447E+02 -0.88393367950E+02  0.10558308679E+04  0.10605205722E+04  0.41800000000E+01 0. -1.
         -5    1    3    3    0  502  0.23456082814E+02  0.39065716198E+02  0.26276015945E+03  0.26671462614E+03  0.41800000000E+01 0. -1.
        -11    1    4    4    0    0 -0.35221692788E+02  0.56265970270E+02  0.29775695006E+03  0.30506659660E+03  0.00000000000E+00 0.  1.
         11    1    4    4    0    0 -0.33996848473E+02 -0.69383185183E+01  0.37187571567E+02  0.50861001258E+02  0.00000000000E+00 0. -1.
</event>
<event>
 8    1  0.7016814E-009  0.8482553E+02  0.7561462E-02  0.1315889E+00
         -1   -1    0    0    0  501 -0.00000000000E+00  0.00000000000E+00  0.17366748074E+03  0.17366748074E+03  0.00000000000E+00 0.  1.
          1   -1    0    0  501    0  0.00000000000E+00 -0.00000000000E+00 -0.11307339732E+03  0.11307339732E+03  0.00000000000E+00 0. -1.
         25    2    1    2    0    0  0.22865500113E+02  0.42156261094E+02 -0.42672788721E+02  0.14059858718E+03  0.12508802650E+03 0.  0.
         23    2    1    2    0    0 -0.22865500113E+02 -0.42156261094E+02  0.10326687214E+03  0.14614229088E+03  0.91616269615E+02 0.  0.
          5    1    3    3  502    0  0.25472174169E+02 -0.26021120008E+02 -0.59792398599E+02  0.70132258437E+02  0.41800000000E+01 0.  1.
         -5    1    3    3    0  502 -0.26066740555E+01  0.68177381102E+02  0.17119609878E+02  0.70466328739E+02  0.41800000000E+01 0.  1.
        -11    1    4    4    0    0 -0.25723014775E+02 -0.35909546316E+01 -0.89325487708E+01  0.27465594329E+02  0.00000000000E+00 0. -1.
         11    1    4    4    0    0  0.28575146619E+01 -0.38565306462E+02  0.11219942091E+03  0.11867669655E+03  0.00000000000E+00 0.  1.
</event>
<event>
 8    1  0.7016814E-009  0.1690659E+03  0.7561462E-02  0.1178825E+00
          1   -1    0    0  501    0  0.00000000000E+00  0.00000000000E+00  0.22872715972E+04  0.22872715972E+04  0.00000000000E+00 0. -1.
         -1   -1    0    0    0  501 -0.00000000000E+00 -0.00000000000E+00 -0.30703016951E+02  0.30703016951E+02  0.00000000000E+00 0.  1.
         25    2    1    2    0    0  0.81744344098E+02  0.10179485673E+03  0.20455165950E+04  0.20534921921E+04  0.12509081495E+03 0.  0.
         23    2    1    2    0    0 -0.81744344098E+02 -0.10179485673E+03  0.21105198528E+03  0.26448242207E+03  0.91453159842E+02 0.  0.
          5    1    3    3  502    0  0.76897426295E+02 -0.11110697378E+01  0.78736351514E+03  0.79112149890E+03  0.41800000000E+01 0. -1.
         -5    1    3    3    0  502  0.48469178039E+01  0.10290592647E+03  0.12581530799E+04  0.12623706932E+04  0.41800000000E+01 0. -1.
        -11    1    4    4    0    0 -0.10125666829E+03 -0.83191840676E+02  0.18703584896E+03  0.22837732818E+03  0.00000000000E+00 0.  1.
         11    1    4    4    0    0  0.19512324188E+02 -0.18603016059E+02  0.24016136319E+02  0.36105093898E+02  0.00000000000E+00 0. -1.
</event>
<event>
 8    1  0.7016814E-009  0.9995683E+02  0.7561462E-02  0.1280387E+00
         -2   -1    0    0    0  501 -0.00000000000E+00  0.00000000000E+00  0.19444707084E+02  0.19444707084E+02  0.00000000000E+00 0.  1.
          2   -1    0    0  501    0  0.00000000000E+00 -0.00000000000E+00 -0.10125934657E+04  0.10125934657E+04  0.00000000000E+00 0. -1.
         25    2    1    2    0    0  0.61069036128E+00 -0.62733136327E+02 -0.77260656758E+03  0.78517768976E+03  0.12508907585E+03 0.  0.
         23    2    1    2    0    0 -0.61069036128E+00  0.62733136327E+02 -0.22054219102E+03  0.24686048300E+03  0.91462673879E+02 0.  0.
          5    1    3    3  502    0 -0.16185610447E+02  0.71525150634E+01 -0.56768845250E+03  0.56797956298E+03  0.41800000000E+01 0.  1.
         -5    1    3    3    0  502  0.16796300808E+02 -0.69885651391E+02 -0.20491811507E+03  0.21719812678E+03  0.41800000000E+01 0.  1.
        -11    1    4    4    0    0 -0.22159980096E+02  0.79436200026E+02 -0.14901973855E+03  0.17031751839E+03  0.00000000000E+00 0.  1.
         11    1    4    4    0    0  0.21549289734E+02 -0.16703063698E+02 -0.71522452467E+02  0.76542964614E+02  0.00000000000E+00 0. -1.
</event>
<event>
 8    1  0.7016814E-009  0.1312483E+03  0.7561462E-02  0.1225615E+00
         -1   -1    0    0    0  501 -0.00000000000E+00  0.00000000000E+00  0.54217146175E+03  0.54217146175E+03  0.00000000000E+00 0.  1.
          1   -1    0    0  501    0  0.00000000000E+00 -0.00000000000E+00 -0.36069776723E+02  0.36069776723E+02  0.00000000000E+00 0. -1.
         25    2    1    2    0    0 -0.12101404704E+02  0.86872033078E+02  0.26240168714E+03  0.30363933898E+03  0.12509599768E+03 0.  0.
         23    2    1    2    0    0  0.12101404704E+02 -0.86872033078E+02  0.24369999789E+03  0.27460189949E+03  0.91232231732E+02 0.  0.
          5    1    3    3  502    0  0.41410263099E+02  0.79725978151E+01  0.28632559151E+02  0.51143602233E+02  0.41800000000E+01 0.  1.
         -5    1    3    3    0  502 -0.53511667803E+02  0.78899435263E+02  0.23376912799E+03  0.25249573675E+03  0.41800000000E+01 0.  1.
        -11    1    4    4    0    0  0.12600317045E+02 -0.10540407581E+03  0.18802795887E+03  0.21592429346E+03  0.00000000000E+00 0. -1.
         11    1    4    4    0    0 -0.49891234099E+00  0.18532042737E+02  0.55672039017E+02  0.58677606034E+02  0.00000000000E+00 0.  1.
</event>
<event>
 8    1  0.7016814E-009  0.1014197E+03  0.7561462E-02  0.1277339E+00
         -2   -1    0    0    0  501 -0.00000000000E+00  0.00000000000E+00  0.30732505338E+02  0.30732505338E+02  0.00000000000E+00 0.  1.
          2   -1    0    0  501    0  0.00000000000E+00 -0.00000000000E+00 -0.56998771314E+03  0.56998771314E+03  0.00000000000E+00 0. -1.
         25    2    1    2    0    0 -0.23479261793E+02  0.36248866167E+02 -0.40754125367E+03  0.42848818634E+03  0.12508795449E+03 0.  0.
         23    2    1    2    0    0  0.23479261793E+02 -0.36248866167E+02 -0.13171395413E+03  0.17223203214E+03  0.10222549167E+03 0.  0.
          5    1    3    3  502    0 -0.32042093081E+02  0.79096567190E+02 -0.30934273940E+03  0.32092579437E+03  0.41800000000E+01 0. -1.
         -5    1    3    3    0  502  0.85628312881E+01 -0.42847701023E+02 -0.98198514272E+02  0.10756239198E+03  0.41800000000E+01 0. -1.
        -11    1    4    4    0    0  0.43114136826E+02 -0.31228853431E+02 -0.17210413413E+02  0.55948801691E+02  0.00000000000E+00 0.  1.
         11    1    4    4    0    0 -0.19634875033E+02 -0.50200127357E+01 -0.11450354072E+03  0.11628323045E+03  0.00000000000E+00 0. -1.
</event>
<event>
 8    1  0.7016814E-009  0.1144259E+03  0.7561462E-02  0.1252587E+00
         -1   -1    0    0    0  501 -0.00000000000E+00  0.00000000000E+00  0.23971716388E+02  0.23971716388E+02  0.00000000000E+00 0.  1.
          1   -1    0    0  501    0  0.00000000000E+00 -0.00000000000E+00 -0.56031090393E+03  0.56031090393E+03  0.00000000000E+00 0. -1.
         25    2    1    2    0    0  0.38965296377E+02 -0.25322772837E+02 -0.28947252426E+03  0.31875544760E+03  0.12510457995E+03 0.  0.
         23    2    1    2    0    0 -0.38965296377E+02  0.25322772837E+02 -0.24686666328E+03  0.26552717272E+03  0.86034835198E+02 0.  0.
          5    1    3    3  502    0  0.84277608259E+02 -0.17021448351E+02 -0.16789777578E+03  0.18867851089E+03  0.41800000000E+01 0.  1.
         -5    1    3    3    0  502 -0.45312311881E+02 -0.83013244862E+01 -0.12157474848E+03  0.13007693671E+03  0.41800000000E+01 0.  1.
        -11    1    4    4    0    0  0.12688505127E+02 -0.22687744880E+02 -0.86929223200E+02  0.90732694087E+02  0.00000000000E+00 0.  1.
         11    1    4    4    0    0 -0.51653801504E+02  0.48010517717E+02 -0.15993744008E+03  0.17479447864E+03  0.00000000000E+00 0. -1.
</event>
<event>
 8    1  0.7016814E-009  0.1114531E+03  0.7561462E-02  0.1257902E+00
          2   -1    0    0  501    0  0.00000000000E+00  0.00000000000E+00  0.12680236775E+04  0.12680236775E+04  0.00000000000E+00 0. -1.
         -2   -1    0    0    0  501 -0.00000000000E+00 -0.00000000000E+00 -0.17355299475E+02  0.17355299475E+02  0.00000000000E+00 0.  1.
         25    2    1    2    0    0  0.40451410894E+02  0.84402124377E+02  0.82676746297E+03  0.84139794352E+03  0.12508407688E+03 0.  0.
         23    2    1    2    0    0 -0.40451410894E+02 -0.84402124377E+02  0.42390091509E+03  0.44398103349E+03  0.93097459920E+02 0.  0.
          5    1    3    3  502    0  0.36794439720E+02  0.10314148332E+03  0.80381639165E+03  0.81125227905E+03  0.41800000000E+01 0. -1.
         -5    1    3    3    0  502  0.36569711743E+01 -0.18739358941E+02  0.22951071322E+02  0.30145664472E+02  0.41800000000E+01 0. -1.
        -11    1    4    4    0    0 -0.27193637184E+02 -0.62685203719E+02  0.40863574391E+03  0.41430918391E+03  0.00000000000E+00 0. -1.
         11    1    4    4    0    0 -0.13257773710E+02 -0.21716920658E+02  0.15265171179E+02  0.29671849584E+02  0.00000000000E+00 0.  1.
</event>
<event>
 8    1  0.7016814E-009  0.1376257E+03  0.7561462E-02  0.1216560E+00
          2   -1    0    0  501    0  0.00000000000E+00  0.00000000000E+00  0.69268389863E+02  0.69268389863E+02  0.00000000000E+00 0. -1.
         -2   -1    0    0    0  501 -0.00000000000E+00 -0.00000000000E+00 -0.42837978407E+03  0.42837978407E+03  0.00000000000E+00 0.  1.
         25    2    1    2    0    0 -0.61859087005E+02 -0.10141802403E+03 -0.10119623909E+03  0.20000073423E+03  0.12508977833E+03 0.  0.
         23    2    1    2    0    0  0.61859087005E+02  0.10141802403E+03 -0.25791515512E+03  0.29764743970E+03  0.89227848105E+02 0.  0.
          5    1    3    3  502    0 -0.60021141168E+02 -0.29068068757E+02 -0.10819927814E+03  0.12716936029E+03  0.41800000000E+01 0. -1.
         -5    1    3    3    0  502 -0.18379458371E+01 -0.72349955277E+02  0.70030390490E+01  0.72831373936E+02  0.41800000000E+01 0. -1.
        -11    1    4    4    0    0  0.50337120923E+01  0.71575230070E+02 -0.19494789947E+03  0.20773308673E+03  0.00000000000E+00 0. -1.
         11    1    4    4    0    0  0.56825374912E+02  0.29842793964E+02 -0.62967255650E+02  0.89914352968E+02  0.00000000000E+00 0.  1.
</event>
<event>
 8    1  0.7016814E-009  0.1139180E+03  0.7561462E-02  0.1253482E+00
         -2   -1    0    0    0  501 -0.00000000000E+00  0.00000000000E+00  0.10903911300E+03  0.10903911300E+03  0.00000000000E+00 0.  1.
          2   -1    0    0  501    0  0.00000000000E+00 -0.00000000000E+00 -0.22060868960E+03  0.22060868960E+03  0.00000000000E+00 0. -1.
         25    2    1    2    0    0  0.20568017231E+02  0.10402374551E+03 -0.23376334635E+02  0.16563884821E+03  0.12508314056E+03 0.  0.
         23    2    1    2    0    0 -0.20568017231E+02 -0.10402374551E+03 -0.88193241972E+02  0.16400895439E+03  0.88751936462E+02 0.  0.
          5    1    3    3  502    0  0.28273251476E+01  0.39942422872E+02  0.51529065406E+02  0.65391955881E+02  0.41800000000E+01 0.  1.
         -5    1    3    3    0  502  0.17740692083E+02  0.64081322641E+02 -0.74905400041E+02  0.10024689233E+03  0.41800000000E+01 0.  1.
        -11    1    4    4    0    0 -0.30173643276E+02 -0.19591037843E+02 -0.67592374887E+02  0.76570142061E+02  0.00000000000E+00 0. -1.
         11    1    4    4    0    0  0.96056260456E+01 -0.84432707669E+02 -0.20600867085E+02  0.87438812325E+02  0.00000000000E+00 0.  1.
</event>
<event>
 8    1  0.7016814E-009  0.1101698E+03  0.7561462E-02  0.1260256E+00
          3   -1    0    0  501    0  0.00000000000E+00  0.00000000000E+00  0.13700367888E+02  0.13700367888E+02  0.00000000000E+00 0. -1.
         -3   -1    0    0    0  501 -0.00000000000E+00 -0.00000000000E+00 -0.91146268930E+03  0.91146268930E+03  0.00000000000E+00 0.  1.
         25    2    1    2    0    0 -0.90488721181E+01 -0.24965964702E+02 -0.56463500434E+03  0.57893544233E+03  0.12509347215E+03 0.  0.
         23    2    1    2    0    0  0.90488721181E+01  0.24965964702E+02 -0.33312731707E+03  0.34622761486E+03  0.90523866652E+02 0.  0.
          5    1    3    3  502    0 -0.30548431449E+00 -0.74972910522E+02 -0.28664093516E+03  0.29631322742E+03  0.41800000000E+01 0. -1.
         -5    1    3    3    0  502 -0.87433878036E+01  0.50006945820E+02 -0.27799406918E+03  0.28262221491E+03  0.41800000000E+01 0. -1.
        -11    1    4    4    0    0  0.47457490655E+02  0.29120686389E+02 -0.19264627264E+03  0.20053132962E+03  0.00000000000E+00 0. -1.
         11    1    4    4    0    0 -0.38408618537E+02 -0.41547216863E+01 -0.14048104443E+03  0.14569628524E+03  0.00000000000E+00 0.  1.
</event>
<event>
 8    1  0.7016814E-009  0.1281670E+03  0.7561462E-02  0.1230201E+00
         -1   -1    0    0    0  501 -0.00000000000E+00  0.00000000000E+00  0.46130637003E+02  0.46130637003E+02  0.00000000000E+00 0.  1.
          1   -1    0    0  501    0  0.00000000000E+00 -0.00000000000E+00 -0.49029329512E+03  0.49029329512E+03  0.00000000000E+00 0. -1.
         25    2    1    2    0    0  0.18810123269E+02 -0.10030748995E+03 -0.20812856981E+03  0.26340253535E+03  0.12509188936E+03 0.  0.
         23    2    1    2    0    0 -0.18810123269E+02  0.10030748995E+03 -0.23603408832E+03  0.27302139677E+03  0.91723382904E+02 0.  0.
          5    1    3    3  502    0 -0.45608309563E+02 -0.20361560934E+02 -0.31922164909E+02  0.59423968879E+02  0.41800000000E+01 0. -1.
         -5    1    3    3    0  502  0.64418432832E+02 -0.79945929016E+02 -0.17620640490E+03  0.20397856648E+03  0.41800000000E+01 0. -1.
        -11    1    4    4    0    0  0.26884538664E+01  0.24918060460E+02 -0.80799023092E+00  0.25075692802E+02  0.00000000000E+00 0.  1.
         11    1    4    4    0    0 -0.21498577136E+02  0.75389429490E+02 -0.23522609808E+03  0.24794570397E+03  0.00000000000E+00 0. -1.
</event>
<event>
 8    1  0.7016814E-009  0.7985538E+02  0.7561462E-02  0.1329462E+00
         -1   -1    0    0    0  501 -0.00000000000E+00  0.00000000000E+00  0.43619537206E+02  0.43619537206E+02  0.00000000000E+00 0.  1.
          1   -1    0    0  501    0  0.00000000000E+00 -0.00000000000E+00 -0.28687925552E+03  0.28687925552E+03  0.00000000000E+00 0. -1.
         25    2    1    2    0    0 -0.29482253021E+02  0.19419282636E+02 -0.13399512760E+03  0.18667459537E+03  0.12508556493E+03 0.  0.
         23    2    1    2    0    0  0.29482253021E+02 -0.19419282636E+02 -0.10926459071E+03  0.14382419735E+03  0.86604487068E+02 0.  0.
          5    1    3    3  502    0  0.40151643172E+02 -0.79923987213E+01 -0.10925548775E+02  0.42577845211E+02  0.41800000000E+01 0.  1.
         -5    1    3    3    0  502 -0.69633896193E+02  0.27411681357E+02 -0.12306957883E+03  0.14409675016E+03  0.41800000000E+01 0.  1.
        -11    1    4    4    0    0  0.14861884067E+02  0.45392993769E+01  0.11823182451E+02  0.19526097411E+02  0.00000000000E+00 0.  1.
         11    1    4    4    0    0  0.14620368953E+02 -0.23958582013E+02 -0.12108777316E+03  0.12429809994E+03  0.00000000000E+00 0. -1.
</event>
<event>
 8    1  0.7016814E-009  0.9959462E+02  0.7561462E-02  0.1281151E+00
         -2   -1    0    0    0  501 -0.00000000000E+00  0.00000000000E+00  0.13967386740E+03  0.13967386740E+03  0.00000000000E+00 0.  1.
          2   -1    0    0  501    0  0.00000000000E+00 -0.00000000000E+00 -0.13048208664E+03  0.13048208664E+03  0.00000000000E+00 0. -1.
         25    2    1    2    0    0  0.32061718281E+02 -0.35214569369E+02 -0.57187270333E+02  0.14555160479E+03  0.12508743380E+03 0.  0.
         23    2    1    2    0    0 -0.32061718281E+02  0.35214569369E+02  0.66379051100E+02  0.12460434925E+03  0.94085311029E+02 0.  0.
          5    1    3    3  502    0  0.26774294052E+02 -0.67590410389E+02 -0.77816450105E+02  0.10657485025E+03  0.41800000000E+01 0.  1.
         -5    1    3    3    0  502  0.52874242297E+01  0.32375841020E+02  0.20629179772E+02  0.38976754545E+02  0.41800000000E+01 0.  1.
        -11    1    4    4    0    0 -0.80701774293E+01  0.58979830909E+02  0.12206069317E+02  0.60767889103E+02  0.00000000000E+00 0. -1.
         11    1    4    4    0    0 -0.23991540852E+02 -0.23765261541E+02  0.54172981782E+02  0.63836460144E+02  0.00000000000E+00 0.  1.
</event>
<event>
 8    1  0.7016814E-009  0.8984450E+02  0.7561462E-02  0.1303229E+00
          2   -1    0    0  501    0  0.00000000000E+00  0.00000000000E+00  0.14009188671E+03  0.14009188671E+03  0.00000000000E+00 0. -1.
         -2   -1    0    0    0  501 -0.00000000000E+00 -0.00000000000E+00 -0.13181591533E+03  0.13181591533E+03  0.00000000000E+00 0.  1.
         25    2    1    2    0    0  0.33764204688E+02  0.20706265915E+02 -0.67346431540E+02  0.14749635449E+03  0.12510340435E+03 0.  0.
         23    2    1    2    0    0 -0.33764204688E+02 -0.20706265915E+02  0.75622402914E+02  0.12441144755E+03  0.90502428103E+02 0.  0.
          5    1    3    3  502    0  0.66394312659E+02 -0.25298615725E+02 -0.54122293021E+02  0.89414314921E+02  0.41800000000E+01 0.  1.
         -5    1    3    3    0  502 -0.32630107970E+02  0.46004881640E+02 -0.13224138519E+02  0.58082039569E+02  0.41800000000E+01 0.  1.
        -11    1    4    4    0    0 -0.58497746303E+01  0.92930938804E+01 -0.18636228110E+02  0.21630775651E+02  0.00000000000E+00 0.  1.
         11    1    4    4    0    0 -0.27914430058E+02 -0.29999359796E+02  0.94258631024E+02  0.10278067190E+03  0.00000000000E+00 0. -1.
</event>
<event>
 8    1  0.7016814E-009  0.1106920E+03  0.7561462E-02  0.1259294E+00
         -1   -1    0    0    0  501 -0.00000000000E+00  0.00000000000E+00  0.77136954676E+02  0.77136954676E+02  0.00000000000E+00 0.  1.
          1   -1    0    0  501    0  0.00000000000E+00 -0.00000000000E+00 -0.19215947232E+03  0.19215947232E+03  0.00000000000E+00 0. -1.
         25    2    1    2    0    0 -0.34909438033E+01 -0.55235200786E+02 -0.71959852786E+02  0.15455936270E+03  0.12508901667E+03 0.  0.
         23    2    1    2    0    0  0.34909438033E+01  0.55235200786E+02 -0.43062664856E+02  0.11473706429E+03  0.90813472145E+02 0.  0.
          5    1    3    3  502    0  0.37162013763E+02 -0.78413394848E+02 -0.31033107666E+02  0.92250755715E+02  0.41800000000E+01 0. -1.
         -5    1    3    3    0  502 -0.40652957566E+02  0.23178194063E+02 -0.40926745120E+02  0.62308606989E+02  0.41800000000E+01 0. -1.
        -11    1    4    4    0    0 -0.29087917877E+02  0.80388886981E+01  0.14501107207E+02  0.33481529358E+02  0.00000000000E+00 0.  1.
         11    1    4    4    0    0  0.32578861680E+02  0.47196312087E+02 -0.57563772063E+02  0.81255534932E+02  0.00000000000E+00 0. -1.
</event>
<event>
 8    1  0.7016814E-009  0.1419729E+03  0.7561462E-02  0.1210699E+00
          3   -1    0    0  501    0  0.00000000000E+00  0.00000000000E+00  0.54107061561E+02  0.54107061561E+02  0.00000000000E+00 0. -1.
         -3   -1    0    0    0  501 -0.00000000000E+00 -0.00000000000E+00 -0.39627748603E+03  0.39627748603E+03  0.00000000000E+00 0.  1.
         25    2    1    2    0    0  0.84630163396E+02  0.38553792628E+02 -0.13548259187E+03  0.20652996960E+03  0.12510170327E+03 0.  0.
         23    2    1    2    0    0 -0.84630163396E+02 -0.38553792628E+02 -0.20668783260E+03  0.24385457799E+03  0.89980751171E+02 0.  0.
          5    1    3    3  502    0  0.70286266557E+02  0.83073133261E+02 -0.96323172975E+02  0.14538545590E+03  0.41800000000E+01 0.  1.
         -5    1    3    3    0  502  0.14343896839E+02 -0.44519340633E+02 -0.39159418896E+02  0.61144513696E+02  0.41800000000E+01 0.  1.
        -11    1    4    4    0    0 -0.40228919774E+02  0.27333648767E+02 -0.62145694164E+02  0.78915028000E+02  0.00000000000E+00 0. -1.
         11    1    4    4    0    0 -0.44401243622E+02 -0.65887441394E+02 -0.14454213844E+03  0.16493954999E+03  0.00000000000E+00 0.  1.
</event>
<event>
 8    1  0.7016814E-009  0.1166938E+03  0.7561462E-02  0.1248653E+00
          2   -1    0    0  501    0  0.00000000000E+00  0.00000000000E+00  0.16642641753E+03  0.16642641753E+03  0.00000000000E+00 0.  1.
         -2   -1    0    0    0  501 -0.00000000000E+00 -0.00000000000E+00 -0.10981488922E+03  0.10981488922E+03  0.00000000000E+00 0. -1.
         25    2    1    2    0    0  0.21263235839E+02 -0.61351396858E+02  0.78723336682E+02  0.16143449874E+03  0.12509042550E+03 0.  0.
         23    2    1    2    0    0 -0.21263235839E+02  0.61351396858E+02 -0.22111808370E+02  0.11480680801E+03  0.92062761211E+02 0.  0.
          5    1    3    3  502    0 -0.27182911604E+02 -0.66386612325E+02  0.85934663713E+02  0.11201933675E+03  0.41800000000E+01 0.  1.
         -5    1    3    3    0  502  0.48446147443E+02  0.50352154668E+01 -0.72113270307E+01  0.49415161989E+02  0.41800000000E+01 0.  1.
        -11    1    4    4    0    0  0.19013480921E+02 -0.16380557981E+02 -0.41791253884E+01  0.25442095541E+02  0.00000000000E+00 0. -1.
         11    1    4    4    0    0 -0.40276716761E+02  0.77731954839E+02 -0.17932682981E+02  0.89364712471E+02  0.00000000000E+00 0.  1.
</event>
<event>
 8    1  0.7016814E-009  0.1659764E+03  0.7561462E-02  0.1182110E+00
          2   -1    0    0  501    0  0.00000000000E+00  0.00000000000E+00  0.40147871501E+03  0.40147871501E+03  0.00000000000E+00 0. -1.
         -2   -1    0    0    0  501 -0.00000000000E+00 -0.00000000000E+00 -0.72095252187E+02  0.72095252187E+02  0.00000000000E+00 0.  1.
         25    2    1    2    0    0  0.88209118452E+02 -0.94217157009E+02  0.20802677201E+03  0.27491918613E+03  0.12509076616E+03 0.  0.
         23    2    1    2    0    0 -0.88209118452E+02  0.94217157009E+02  0.12135669082E+03  0.19865478107E+03  0.89880778710E+02 0.  0.
          5    1    3    3  502    0 -0.21838010235E+02 -0.59853758430E+02  0.64244467533E+02  0.90577011972E+02  0.41800000000E+01 0. -1.
         -5    1    3    3    0  502  0.11004712869E+03 -0.34363398580E+02  0.14378230448E+03  0.18434217416E+03  0.41800000000E+01 0. -1.
        -11    1    4    4    0    0 -0.51477473803E+02 -0.14772231220E+00  0.19555138758E+02  0.55066828335E+02  0.00000000000E+00 0.  1.
         11    1    4    4    0    0 -0.36731644649E+02  0.94364879321E+02  0.10180155206E+03  0.14358795273E+03  0.00000000000E+00 0. -1.
</event>
<event>
 8    1  0.7016814E-009  0.1409084E+03  0.7561462E-02  0.1212112E+00
         -2   -1    0    0    0  501 -0.00000000000E+00  0.00000000000E+00  0.52941535461E+02  0.52941535461E+02  0.00000000000E+00 0.  1.
          2   -1    0    0  501    0  0.00000000000E+00 -0.00000000000E+00 -0.85785903080E+03  0.85785903080E+03  0.00000000000E+00 0. -1.
         25    2    1    2    0    0  0.50939921118E+02  0.11504389183E+03 -0.70166633365E+03  0.72374918460E+03  0.12508903155E+03 0.  0.
         23    2    1    2    0    0 -0.50939921118E+02 -0.11504389183E+03 -0.10325116169E+03  0.18705138167E+03  0.92181583743E+02 0.  0.
          5    1    3    3  502    0  0.38832068897E+02  0.85155380677E+02 -0.19811761553E+03  0.21915161513E+03  0.41800000000E+01 0. -1.
         -5    1    3    3    0  502  0.12107852221E+02  0.29888511156E+02 -0.50354871812E+03  0.50459756946E+03  0.41800000000E+01 0. -1.
        -11    1    4    4    0    0  0.79443382975E+01 -0.92062042921E+02 -0.67489010262E+02  0.11442595319E+03  0.00000000000E+00 0.  1.
         11    1    4    4    0    0 -0.58884259415E+02 -0.22981848912E+02 -0.35762151427E+02  0.72625428474E+02  0.00000000000E+00 0. -1.
</event>
<event>
 8    1  0.7016814E-009  0.1096595E+03  0.7561462E-02  0.1261202E+00
         -2   -1    0    0    0  501 -0.00000000000E+00  0.00000000000E+00  0.30419114889E+02  0.30419114889E+02  0.00000000000E+00 0.  1.
          2   -1    0    0  501    0  0.00000000000E+00 -0.00000000000E+00 -0.49625678168E+03  0.49625678168E+03  0.00000000000E+00 0. -1.
         25    2    1    2    0    0  0.49072625234E+02  0.11925362631E+02 -0.20151130668E+03  0.24249749816E+03  0.12509153877E+03 0.  0.
         23    2    1    2    0    0 -0.49072625234E+02 -0.11925362631E+02 -0.26432636011E+03  0.28417839841E+03  0.91315938659E+02 0.  0.
          5    1    3    3  502    0  0.84106515375E+02 -0.18702336081E+02 -0.11039418230E+03  0.14010007562E+03  0.41800000000E+01 0.  1.
         -5    1    3    3    0  502 -0.35033890141E+02  0.30627698712E+02 -0.91117124386E+02  0.10239742254E+03  0.41800000000E+01 0.  1.
        -11    1    4    4    0    0 -0.29452872222E+02 -0.41472925383E+02 -0.22723265479E+03  0.23285651081E+03  0.00000000000E+00 0. -1.
         11    1    4    4    0    0 -0.19619753012E+02  0.29547562752E+02 -0.37093705316E+02  0.51321887601E+02  0.00000000000E+00 0.  1.
</event>
<event>
 8    1  0.7016814E-009  0.1123254E+03  0.7561462E-02  0.1256323E+00
         -1   -1    0    0    0  501 -0.00000000000E+00  0.00000000000E+00  0.26706075905E+02  0.26706075905E+02  0.00000000000E+00 0.  1.
          1   -1    0    0  501    0  0.00000000000E+00 -0.00000000000E+00 -0.48756167627E+03  0.48756167627E+03  0.00000000000E+00 0. -1.
         25    2    1    2    0    0 -0.11120741313E+02 -0.30390724028E+02 -0.30093183630E+03  0.32749833841E+03  0.12509166466E+03 0.  0.
         23    2    1    2    0    0  0.11120741313E+02  0.30390724028E+02 -0.15992376406E+03  0.18676941376E+03  0.90884193405E+02 0.  0.
          5    1    3    3  502    0  0.12616652317E+02 -0.76219170232E+02 -0.18515788615E+03  0.20067251189E+03  0.41800000000E+01 0.  1.
         -5    1    3    3    0  502 -0.23737393630E+02  0.45828446204E+02 -0.11577395016E+03  0.12682582652E+03  0.41800000000E+01 0.  1.
        -11    1    4    4    0    0 -0.32971988909E+02 -0.11265282114E+02 -0.71525190473E+02  0.79560740984E+02  0.00000000000E+00 0.  1.
         11    1    4    4    0    0  0.44092730223E+02  0.41656006142E+02 -0.88398573589E+02  0.10720867278E+03  0.00000000000E+00 0. -1.
</event>
<event>
 8    1  0.7016814E-009  0.9190833E+02  0.7561462E-02  0.1298295E+00
         -1   -1    0    0    0  501 -0.00000000000E+00  0.00000000000E+00  0.16174597693E+03  0.16174597693E+03  0.00000000000E+00 0.  1.
          1   -1    0    0  501    0  0.00000000000E+00 -0.00000000000E+00 -0.81787040658E+02  0.81787040658E+02  0.00000000000E+00 0. -1.
         25    2    1    2    0    0 -0.25049218375E+02 -0.45161618645E+01  0.13870794420E+02  0.12840343659E+03  0.12508870665E+03 0.  0.
         23    2    1    2    0    0  0.25049218375E+02  0.45161618645E+01  0.66088141849E+02  0.11512958099E+03  0.90770693879E+02 0.  0.
          5    1    3    3  502    0 -0.71265802040E+02 -0.16984242737E+02  0.27647590325E+02  0.78416456771E+02  0.41800000000E+01 0. -1.
         -5    1    3    3    0  502  0.46216583665E+02  0.12468080873E+02 -0.13776795906E+02  0.49986979822E+02  0.41800000000E+01 0. -1.
        -11    1    4    4    0    0  0.43244673261E+02  0.76654971239E+01 -0.26066893409E+01  0.43996095746E+02  0.00000000000E+00 0. -1.
         11    1    4    4    0    0 -0.18195454886E+02 -0.31493352595E+01  0.68694831190E+02  0.71133485247E+02  0.00000000000E+00 0.  1.
</event>
<event>
 8    1  0.7016814E-009  0.8739880E+02  0.7561462E-02  0.1309276E+00
         -2   -1    0    0    0  501 -0.00000000000E+00  0.00000000000E+00  0.13296260006E+03  0.13296260006E+03  0.00000000000E+00 0. -1.
          2   -1    0    0  501    0  0.00000000000E+00 -0.00000000000E+00 -0.11184896771E+03  0.11184896771E+03  0.00000000000E+00 0.  1.
         25    2    1    2    0    0 -0.32286670164E+02 -0.29862304926E+02 -0.22617521669E+02  0.13451049704E+03  0.12508930891E+03 0.  0.
         23    2    1    2    0    0  0.32286670164E+02  0.29862304926E+02  0.43731154019E+02  0.11030107073E+03  0.91212532292E+02 0.  0.
          5    1    3    3  502    0  0.17424506614E+02 -0.21268547553E+02  0.43261054471E+02  0.51429133570E+02  0.41800000000E+01 0. -1.
         -5    1    3    3    0  502 -0.49711176778E+02 -0.85937573727E+01 -0.65878576141E+02  0.83081363475E+02  0.41800000000E+01 0. -1.
        -11    1    4    4    0    0  0.55629195056E+02 -0.33964085775E+01  0.82163195882E+01  0.56335165229E+02  0.00000000000E+00 0.  1.
         11    1    4    4    0    0 -0.23342524892E+02  0.33258713503E+02  0.35514834430E+02  0.53965905504E+02  0.00000000000E+00 0. -1.
</event>
<event>
 8    1  0.7016814E-009  0.1038439E+03  0.7561462E-02  0.1272414E+00
         -2   -1    0    0    0  501 -0.00000000000E+00  0.00000000000E+00  0.11521331911E+02  0.11521331911E+02  0.00000000000E+00 0.  1.
          2   -1    0    0  501    0  0.00000000000E+00 -0.00000000000E+00 -0.10935407620E+04  0.10935407620E+04  0.00000000000E+00 0. -1.
         25    2    1    2    0    0  0.29544775102E+02 -0.89231031320E+01 -0.72269176295E+03  0.73408673149E+03  0.12508968629E+03 0.  0.
         23    2    1    2    0    0 -0.29544775102E+02  0.89231031320E+01 -0.35932766719E+03  0.37097536246E+03  0.86912781820E+02 0.  0.
          5    1    3    3  502    0 -0.91072621356E+01 -0.54942125867E+02 -0.19113749257E+03  0.19912958817E+03  0.41800000000E+01 0. -1.
         -5    1    3    3    0  502  0.38652037238E+02  0.46019022735E+02 -0.53155427038E+03  0.53495714333E+03  0.41800000000E+01 0. -1.
        -11    1    4    4    0    0 -0.45028139973E+01  0.46348032058E+02 -0.16093800885E+03  0.16753942253E+03  0.00000000000E+00 0.  1.
         11    1    4    4    0    0 -0.25041961105E+02 -0.37424928926E+02 -0.19838965834E+03  0.20343593994E+03  0.00000000000E+00 0. -1.
</event>
<event>
 8    1  0.7016814E-009  0.1978070E+03  0.7561462E-02  0.1151603E+00
          2   -1    0    0  501    0  0.00000000000E+00  0.00000000000E+00  0.78443380425E+03  0.78443380425E+03  0.00000000000E+00 0. -1.
         -2   -1    0    0    0  501 -0.00000000000E+00 -0.00000000000E+00 -0.54285858197E+02  0.54285858197E+02  0.00000000000E+00 0.  1.
         25    2    1    2    0    0 -0.15159343384E+03 -0.70548329758E+02  0.48927626561E+03  0.53197319507E+03  0.12508629089E+03 0.  0.
         23    2    1    2    0    0  0.15159343384E+03  0.70548329758E+02  0.24087168045E+03  0.30674646738E+03  0.90092135028E+02 0.  0.
          5    1    3    3  502    0 -0.26666959474E+02 -0.78985178754E+02  0.18915181187E+03  0.20675024915E+03  0.41800000000E+01 0. -1.
         -5    1    3    3    0  502 -0.12492647437E+03  0.84368489955E+01  0.30012445374E+03  0.32522294592E+03  0.41800000000E+01 0. -1.
        -11    1    4    4    0    0  0.13992246744E+03  0.27939386137E+02  0.20536781760E+03  0.25006968368E+03  0.00000000000E+00 0. -1.
         11    1    4    4    0    0  0.11670966403E+02  0.42608943622E+02  0.35503862850E+02  0.56676783700E+02  0.00000000000E+00 0.  1.
</event>
<event>
 8    1  0.7016814E-009  0.1081285E+03  0.7561462E-02  0.1264075E+00
         -1   -1    0    0    0  501 -0.00000000000E+00  0.00000000000E+00  0.19371527573E+03  0.19371527573E+03  0.00000000000E+00 0.  1.
          1   -1    0    0  501    0  0.00000000000E+00 -0.00000000000E+00 -0.75190061340E+02  0.75190061340E+02  0.00000000000E+00 0. -1.
         25    2    1    2    0    0  0.80681043366E+01 -0.35685532740E+02  0.26316914172E+02  0.13296384902E+03  0.12509297990E+03 0.  0.
         23    2    1    2    0    0 -0.80681043366E+01  0.35685532740E+02  0.92208300220E+02  0.13594148805E+03  0.92947113942E+02 0.  0.
          5    1    3    3  502    0  0.50402402448E+02  0.24705159636E+02  0.79536465722E+01  0.56846107861E+02  0.41800000000E+01 0. -1.
         -5    1    3    3    0  502 -0.42334298111E+02 -0.60390692376E+02  0.18363267600E+02  0.76117741159E+02  0.41800000000E+01 0. -1.
        -11    1    4    4    0    0 -0.46588911971E+01 -0.24943954476E+02  0.64269132027E+02  0.69097231953E+02  0.00000000000E+00 0.  1.
         11    1    4    4    0    0 -0.34092131395E+01  0.60629487216E+02  0.27939168193E+02  0.66844256101E+02  0.00000000000E+00 0. -1.
</event>
<event>
 8    1  0.7016814E-009  0.1128917E+03  0.7561462E-02  0.1255307E+00
          3   -1    0    0  501    0  0.00000000000E+00  0.00000000000E+00  0.72801534549E+03  0.72801534549E+03  0.00000000000E+00 0. -1.
         -3   -1    0    0    0  501 -0.00000000000E+00 -0.00000000000E+00 -0.22368273815E+02  0.22368273815E+02  0.00000000000E+00 0.  1.
         25    2    1    2    0    0  0.46995909620E+02 -0.38578110307E+02  0.45173065030E+03  0.47265740380E+03  0.12509018679E+03 0.  0.
         23    2    1    2    0    0 -0.46995909620E+02  0.38578110307E+02  0.25391642138E+03  0.27772621550E+03  0.94664753834E+02 0.  0.
          5    1    3    3  502    0 -0.38929908608E+02 -0.14188496980E+02  0.22704320852E+03  0.23083098181E+03  0.41800000000E+01 0.  1.
         -5    1    3    3    0  502  0.85925818228E+02 -0.24389613327E+02  0.22468744178E+03  0.24182642198E+03  0.41800000000E+01 0.  1.
        -11    1    4    4    0    0 -0.18011917224E+01 -0.20365105721E+02  0.10014846570E+02  0.22765741246E+02  0.00000000000E+00 0.  1.
         11    1    4    4    0    0 -0.45194717897E+02  0.58943216028E+02  0.24390157481E+03  0.25496047426E+03  0.00000000000E+00 0. -1.
</event>
<event>
 8    1  0.7016814E-009  0.1317500E+03  0.7561462E-02  0.1224882E+00
         -1   -1    0    0    0  501 -0.00000000000E+00  0.00000000000E+00  0.99437965496E+03  0.99437965496E+03  0.00000000000E+00 0.  1.
          1   -1    0    0  501    0  0.00000000000E+00 -0.00000000000E+00 -0.27340811438E+02  0.27340811438E+02  0.00000000000E+00 0. -1.
         25    2    1    2    0    0 -0.52174558436E+02 -0.87316724612E+02  0.29831386560E+03  0.33909372784E+03  0.12508796467E+03 0.  0.
         23    2    1    2    0    0  0.52174558436E+02  0.87316724612E+02  0.66872497793E+03  0.68262673857E+03  0.91868238008E+02 0.  0.
          5    1    3    3  502    0  0.13621003207E+02  0.57801599172E+01  0.15574817791E+03  0.15650530119E+03  0.41800000000E+01 0.  1.
         -5    1    3    3    0  502 -0.65795561642E+02 -0.93096884529E+02  0.14256568768E+03  0.18258842665E+03  0.41800000000E+01 0.  1.
        -11    1    4    4    0    0  0.46691559180E+02  0.13339707099E+00  0.16935260091E+03  0.17567134920E+03  0.00000000000E+00 0. -1.
         11    1    4    4    0    0  0.54829992559E+01  0.87183327541E+02  0.49937237702E+03  0.50695538937E+03  0.00000000000E+00 0.  1.
</event>
<event>
 8    1  0.7016814E-009  0.1130665E+03  0.7561462E-02  0.1254994E+00
          2   -1    0    0  501    0  0.00000000000E+00  0.00000000000E+00  0.42136874680E+03  0.42136874680E+03  0.00000000000E+00 0. -1.
         -2   -1    0    0    0  501 -0.00000000000E+00 -0.00000000000E+00 -0.44294074971E+02  0.44294074971E+02  0.00000000000E+00 0.  1.
         25    2    1    2    0    0  0.53240301909E+02  0.25498917521E+02  0.10943111361E+03  0.17636714627E+03  0.12508188164E+03 0.  0.
         23    2    1    2    0    0 -0.53240301909E+02 -0.25498917521E+02  0.26764355822E+03  0.28929567550E+03  0.92596917155E+02 0.  0.
          5    1    3    3  502    0 -0.95110556727E+01 -0.43430731551E+02  0.41363338951E+02  0.60869424445E+02  0.41800000000E+01 0.  1.
         -5    1    3    3    0  502  0.62751357581E+02  0.68929649072E+02  0.68067774662E+02  0.11549772183E+03  0.41800000000E+01 0.  1.
        -11    1    4    4    0    0 -0.44815189243E+02  0.14646969272E+02  0.53724127524E+02  0.71478785482E+02  0.00000000000E+00 0.  1.
         11    1    4    4    0    0 -0.84251126653E+01 -0.40145886792E+02  0.21391943069E+03  0.21781689002E+03  0.00000000000E+00 0. -1.
</event>
<event>
 8    1  0.7016814E-009  0.1608552E+03  0.7561462E-02  0.1187735E+00
         -1   -1    0    0    0  501 -0.00000000000E+00  0.00000000000E+00  0.37612358223E+02  0.37612358223E+02  0.00000000000E+00 0.  1.
          1   -1    0    0  501    0  0.00000000000E+00 -0.00000000000E+00 -0.92894230847E+03  0.92894230847E+03  0.00000000000E+00 0. -1.
         25    2    1    2    0    0 -0.73983663492E+01  0.15097793313E+03 -0.44113551779E+03  0.48280129572E+03  0.12508986361E+03 0.  0.
         23    2    1    2    0    0  0.73983663492E+01 -0.15097793313E+03 -0.45019443246E+03  0.48375337097E+03  0.92158693522E+02 0.  0.
          5    1    3    3  502    0  0.34735442356E+01  0.12470537093E+02  0.57721384650E+01  0.14777340336E+02  0.41800000000E+01 0.  1.
         -5    1    3    3    0  502 -0.10871910585E+02  0.13850739604E+03 -0.44690765625E+03  0.46802395539E+03  0.41800000000E+01 0.  1.
        -11    1    4    4    0    0 -0.16762045265E+02 -0.56693244786E+00 -0.14418930401E+02  0.22117710726E+02  0.00000000000E+00 0.  1.
         11    1    4    4    0    0  0.24160411614E+02 -0.15041100068E+03 -0.43577550205E+03  0.46163566024E+03  0.00000000000E+00 0. -1.
</event>
<event>
 8    1  0.7016814E-009  0.1253924E+03  0.7561462E-02  0.1234457E+00
         -1   -1    0    0    0  501 -0.00000000000E+00  0.00000000000E+00  0.11083558334E+03  0.11083558334E+03  0.00000000000E+00 0.  1.
          1   -1    0    0  501    0  0.00000000000E+00 -0.00000000000E+00 -0.19434149749E+03  0.19434149749E+03  0.00000000000E+00 0. -1.
         25    2    1    2    0    0  0.80805664927E+02 -0.49493082579E+02 -0.18082517370E+02  0.15796823881E+03  0.12509143188E+03 0.  0.
         23    2    1    2    0    0 -0.80805664927E+02  0.49493082579E+02 -0.65423396781E+02  0.14720884203E+03  0.91712058192E+02 0.  0.
          5    1    3    3  502    0 -0.27929791867E+02 -0.22651858015E+02 -0.27547547501E+02  0.45491974222E+02  0.41800000000E+01 0.  1.
         -5    1    3    3    0  502  0.10873545679E+03 -0.26841224564E+02  0.94650301315E+01  0.11247626459E+03  0.41800000000E+01 0.  1.
        -11    1    4    4    0    0 -0.35345412171E+02  0.44413513869E+02  0.11308327870E+02  0.57876909514E+02  0.00000000000E+00 0.  1.
         11    1    4    4    0    0 -0.45460252756E+02  0.50795687100E+01 -0.76731724651E+02  0.89331932515E+02  0.00000000000E+00 0. -1.
</event>
<event>
 8    1  0.7016814E-009  0.1245536E+03  0.7561462E-02  0.1235769E+00
          1   -1    0    0  501    0  0.00000000000E+00  0.00000000000E+00  0.95371397994E+03  0.95371397994E+03  0.00000000000E+00 0. -1.
         -1   -1    0    0    0  501 -0.00000000000E+00 -0.00000000000E+00 -0.16583437848E+02  0.16583437848E+02  0.00000000000E+00 0.  1.
         25    2    1    2    0    0  0.64387954247E+02 -0.12167986099E+02  0.52209149795E+03  0.54085184460E+03  0.12508923633E+03 0.  0.
         23    2    1    2    0    0 -0.64387954247E+02  0.12167986099E+02  0.41503904415E+03  0.42944557318E+03  0.88725552266E+02 0.  0.
          5    1    3    3  502    0  0.22527419189E+02 -0.66676993827E+02  0.30773359917E+03  0.31570674142E+03  0.41800000000E+01 0. -1.
         -5    1    3    3    0  502  0.41860535059E+02  0.54509007728E+02  0.21435789878E+03  0.22514510318E+03  0.41800000000E+01 0. -1.
        -11    1    4    4    0    0  0.20578435202E+02  0.13781198366E+02  0.11276525923E+03  0.11545300825E+03  0.00000000000E+00 0. -1.
         11    1    4    4    0    0 -0.84966389449E+02 -0.16132122669E+01  0.30227378491E+03  0.31399256494E+03  0.00000000000E+00 0.  1.
</event>
<event>
 8    1  0.7016814E-009  0.1171951E+03  0.7561462E-02  0.1247797E+00
         -1   -1    0    0    0  501 -0.00000000000E+00  0.00000000000E+00  0.81803517847E+02  0.81803517847E+02  0.00000000000E+00 0.  1.
          1   -1    0    0  501    0  0.00000000000E+00 -0.00000000000E+00 -0.22934923585E+03  0.22934923585E+03  0.00000000000E+00 0. -1.
         25    2    1    2    0    0 -0.83163300972E+02  0.49108014983E+01 -0.84894871816E+02  0.17261105021E+03  0.12508870769E+03 0.  0.
         23    2    1    2    0    0  0.83163300972E+02 -0.49108014983E+01 -0.62650846190E+02  0.13854170349E+03  0.91260202054E+02 0.  0.
          5    1    3    3  502    0 -0.30761524442E+02  0.63501642495E+02 -0.30823092350E+02  0.77112031536E+02  0.41800000000E+01 0.  1.
         -5    1    3    3    0  502 -0.52401776530E+02 -0.58590840997E+02 -0.54071779467E+02  0.95499018670E+02  0.41800000000E+01 0.  1.
        -11    1    4    4    0    0  0.39145786409E+02  0.60945133615E+01  0.19906812924E+02  0.44337533620E+02  0.00000000000E+00 0.  1.
         11    1    4    4    0    0  0.44017514562E+02 -0.11005314860E+02 -0.82557659114E+02  0.94204169875E+02  0.00000000000E+00 0. -1.
</event>
<event>
 8    1  0.7016814E-009  0.1491565E+03  0.7561462E-02  0.1201513E+00
          1   -1    0    0  501    0  0.00000000000E+00  0.00000000000E+00  0.12326482229E+03  0.12326482229E+03  0.00000000000E+00 0. -1.
         -1   -1    0    0    0  501 -0.00000000000E+00 -0.00000000000E+00 -0.22962321206E+03  0.22962321206E+03  0.00000000000E+00 0.  1.
         25    2    1    2    0    0  0.67636115702E+02  0.89707061240E+02  0.84235148196E+01  0.16834545593E+03  0.12508891217E+03 0.  0.
         23    2    1    2    0    0 -0.67636115702E+02 -0.89707061240E+02 -0.11478190459E+03  0.18454257842E+03  0.90879462169E+02 0.  0.
          5    1    3    3  502    0  0.92615512003E+01 -0.26122935405E+02 -0.21306417690E+02  0.35208236530E+02  0.41800000000E+01 0.  1.
         -5    1    3    3    0  502  0.58374564502E+02  0.11582999664E+03  0.29729932509E+02  0.13313721940E+03  0.41800000000E+01 0.  1.
        -11    1    4    4    0    0 -0.66252664501E+02 -0.17819572322E+02 -0.77659604593E+02  0.10362416174E+03  0.00000000000E+00 0.  1.
         11    1    4    4    0    0 -0.13834512010E+01 -0.71887488918E+02 -0.37122299996E+02  0.80918416674E+02  0.00000000000E+00 0. -1.
</event>
<event>
 8    1  0.7016814E-009  0.1362731E+03  0.7561462E-02  0.1218434E+00
          1   -1    0    0  501    0  0.00000000000E+00  0.00000000000E+00  0.24395465102E+03  0.24395465102E+03  0.00000000000E+00 0. -1.
         -1   -1    0    0    0  501 -0.00000000000E+00 -0.00000000000E+00 -0.12411903928E+03  0.12411903928E+03  0.00000000000E+00 0.  1.
         25    2    1    2    0    0 -0.68052830375E+02 -0.53494508459E+02  0.17425406507E+03  0.23131229172E+03  0.12509215383E+03 0.  0.
         23    2    1    2    0    0  0.68052830375E+02  0.53494508459E+02 -0.54418453322E+02  0.13676139858E+03  0.90826548552E+02 0.  0.
          5    1    3    3  502    0  0.37832992309E+01  0.33835364007E+02  0.19047455252E+02  0.39235483457E+02  0.41800000000E+01 0. -1.
         -5    1    3    3    0  502 -0.71836129606E+02 -0.87329872466E+02  0.15520660982E+03  0.19207680826E+03  0.41800000000E+01 0. -1.
        -11    1    4    4    0    0  0.27185065678E+02  0.74380140983E+02 -0.29276630147E+02  0.84430765964E+02  0.00000000000E+00 0.  1.
         11    1    4    4    0    0  0.40867764697E+02 -0.20885632523E+02 -0.25141823175E+02  0.52330632614E+02  0.00000000000E+00 0. -1.
</event>
<event>
 8    1  0.7016814E-009  0.1527128E+03  0.7561462E-02  0.1197179E+00
         -1   -1    0    0    0  501 -0.00000000000E+00  0.00000000000E+00  0.37975380252E+02  0.37975380252E+02  0.00000000000E+00 0.  1.
          1   -1    0    0  501    0  0.00000000000E+00 -0.00000000000E+00 -0.63195367241E+03  0.63195367241E+03  0.00000000000E+00 0. -1.
         25    2    1    2    0    0 -0.42301526541E+02  0.10154410789E+03 -0.35351922500E+03  0.39079909347E+03  0.12508982377E+03 0.  0.
         23    2    1    2    0    0  0.42301526541E+02 -0.10154410789E+03 -0.24045906716E+03  0.27912995920E+03  0.89399922536E+02 0.  0.
          5    1    3    3  502    0 -0.10479980917E+02  0.12478454620E+03 -0.29034543078E+03  0.31622611300E+03  0.41800000000E+01 0.  1.
         -5    1    3    3    0  502 -0.31821545624E+02 -0.23240438306E+02 -0.63173794223E+02  0.74572980463E+02  0.41800000000E+01 0.  1.
        -11    1    4    4    0    0  0.69530186322E+02 -0.78197661551E+02 -0.19417812108E+03  0.22057756865E+03  0.00000000000E+00 0. -1.
         11    1    4    4    0    0 -0.27228659780E+02 -0.23346446340E+02 -0.46280946076E+02  0.58552390556E+02  0.00000000000E+00 0.  1.
</event>
<event>
 8    1  0.7016814E-009  0.1161538E+03  0.7561462E-02  0.1249580E+00
          2   -1    0    0  501    0  0.00000000000E+00  0.00000000000E+00  0.30302717225E+03  0.30302717225E+03  0.00000000000E+00 0. -1.
         -2   -1    0    0    0  501 -0.00000000000E+00 -0.00000000000E+00 -0.59447378747E+02  0.59447378747E+02  0.00000000000E+00 0.  1.
         25    2    1    2    0    0  0.55182089497E+02 -0.55172991570E+02  0.13208255930E+03  0.19794596110E+03  0.12509068328E+03 0.  0.
         23    2    1    2    0    0 -0.55182089497E+02  0.55172991570E+02  0.11149723420E+03  0.16452858990E+03  0.92460270710E+02 0.  0.
          5    1    3    3  502    0  0.76811674302E+02  0.56011923662E+00  0.10967612389E+03  0.13396518800E+03  0.41800000000E+01 0. -1.
         -5    1    3    3    0  502 -0.21629584805E+02 -0.55733110806E+02  0.22406435407E+02  0.63980773101E+02  0.41800000000E+01 0. -1.
        -11    1    4    4    0    0 -0.48250655490E+02  0.66506629910E+02  0.39230806728E+02  0.91051160200E+02  0.00000000000E+00 0.  1.
         11    1    4    4    0    0 -0.69314340071E+01 -0.11333638340E+02  0.72266427476E+02  0.73477429702E+02  0.00000000000E+00 0. -1.
</event>
<event>
 8    1  0.7016814E-009  0.9844282E+02  0.7561462E-02  0.1283605E+00
         -1   -1    0    0    0  501 -0.00000000000E+00  0.00000000000E+00  0.34270547222E+02  0.34270547222E+02  0.00000000000E+00 0.  1.
          1   -1    0    0  501    0  0.00000000000E+00 -0.00000000000E+00 -0.51852513763E+03  0.51852513763E+03  0.00000000000E+00 0. -1.
         25    2    1    2    0    0  0.64551511110E+02  0.34834257444E+02 -0.32150263230E+03  0.35269008733E+03  0.12508409991E+03 0.  0.
         23    2    1    2    0    0 -0.64551511110E+02 -0.34834257444E+02 -0.16275195811E+03  0.20010559752E+03  0.90408667792E+02 0.  0.
          5    1    3    3  502    0  0.46705559321E+01  0.32378367923E+02 -0.27433266415E+03  0.27630790039E+03  0.41800000000E+01 0.  1.
         -5    1    3    3    0  502  0.59880955178E+02  0.24558895217E+01 -0.47169968151E+02  0.76382186940E+02  0.41800000000E+01 0.  1.
        -11    1    4    4    0    0  0.83473110094E+01 -0.29586889295E+02 -0.12819313990E+02  0.33307603192E+02  0.00000000000E+00 0.  1.
         11    1    4    4    0    0 -0.72898822119E+02 -0.52473681494E+01 -0.14993264412E+03  0.16679799433E+03  0.00000000000E+00 0. -1.
</event>
<event>
 8    1  0.7016814E-009  0.9683062E+02  0.7561462E-02  0.1287105E+00
         -1   -1    0    0    0  501 -0.00000000000E+00  0.00000000000E+00  0.76913965805E+02  0.76913965805E+02  0.00000000000E+00 0.  1.
          1   -1    0    0  501    0  0.00000000000E+00 -0.00000000000E+00 -0.25971596632E+03  0.25971596632E+03  0.00000000000E+00 0. -1.
         25    2    1    2    0    0 -0.57293661943E+00 -0.35779253971E+02 -0.19836600977E+03  0.23722833848E+03  0.12509087687E+03 0.  0.
         23    2    1    2    0    0  0.57293661943E+00  0.35779253971E+02  0.15564009258E+02  0.99401593641E+02  0.91421852765E+02 0.  0.
          5    1    3    3  502    0 -0.43529857423E+02 -0.64566120098E+02 -0.11187466228E+03  0.13637098229E+03  0.41800000000E+01 0.  1.
         -5    1    3    3    0  502  0.42956920803E+02  0.28786866126E+02 -0.86491347496E+02  0.10085735619E+03  0.41800000000E+01 0.  1.
        -11    1    4    4    0    0  0.19912702407E+02 -0.33126099078E+01 -0.30108679642E+02  0.36249437117E+02  0.00000000000E+00 0. -1.
         11    1    4    4    0    0 -0.19339765788E+02  0.39091863879E+02  0.45672688900E+02  0.63152156524E+02  0.00000000000E+00 0.  1.
</event>
<event>
 8    1  0.7016814E-009  0.1644041E+03  0.7561462E-02  0.1183812E+00
         -3   -1    0    0    0  501 -0.00000000000E+00  0.00000000000E+00  0.10895456420E+03  0.10895456420E+03  0.00000000000E+00 0.  1.
          3   -1    0    0  501    0  0.00000000000E+00 -0.00000000000E+00 -0.26787598022E+03  0.26787598022E+03  0.00000000000E+00 0. -1.
         25    2    1    2    0    0 -0.10207037054E+03  0.81193530067E+02 -0.70529780349E+02  0.19399229674E+03  0.12509121237E+03 0.  0.
         23    2    1    2    0    0  0.10207037054E+03 -0.81193530067E+02 -0.88391635676E+02  0.18283824768E+03  0.92768495130E+02 0.  0.
          5    1    3    3  502    0 -0.36262240184E+02 -0.30486870560E+02 -0.27111373513E+01  0.47636351722E+02  0.41800000000E+01 0.  1.
         -5    1    3    3    0  502 -0.65808130358E+02  0.11168040063E+03 -0.67818642997E+02  0.14635594502E+03  0.41800000000E+01 0.  1.
        -11    1    4    4    0    0 -0.12366356974E+02 -0.23530420675E+01  0.68842022387E+01  0.14347676893E+02  0.00000000000E+00 0.  1.
         11    1    4    4    0    0  0.11443672752E+03 -0.78840488000E+02 -0.95275837915E+02  0.16849057078E+03  0.00000000000E+00 0. -1.
</event>
<event>
 8    1  0.7016814E-009  0.1082451E+03  0.7561462E-02  0.1263855E+00
          2   -1    0    0  501    0  0.00000000000E+00  0.00000000000E+00  0.15026133975E+03  0.15026133975E+03  0.00000000000E+00 0. -1.
         -2   -1    0    0    0  501 -0.00000000000E+00 -0.00000000000E+00 -0.97705475201E+02  0.97705475201E+02  0.00000000000E+00 0.  1.
         25    2    1    2    0    0  0.35515291531E+02  0.38007916728E+02  0.25819185000E+02  0.13791293748E+03  0.12508960925E+03 0.  0.
         23    2    1    2    0    0 -0.35515291531E+02 -0.38007916728E+02  0.26736679545E+02  0.11005387747E+03  0.93225899013E+02 0.  0.
          5    1    3    3  502    0  0.68135944341E+02  0.41704357259E+02 -0.18979454808E+02  0.82215889160E+02  0.41800000000E+01 0. -1.
         -5    1    3    3    0  502 -0.32620652810E+02 -0.36964405310E+01  0.44798639809E+02  0.55697048316E+02  0.41800000000E+01 0. -1.
        -11    1    4    4    0    0 -0.56487044379E+02 -0.53128513957E+02  0.31615127053E+02  0.83743306816E+02  0.00000000000E+00 0. -1.
         11    1    4    4    0    0  0.20971752848E+02  0.15120597229E+02 -0.48784475081E+01  0.26310570655E+02  0.00000000000E+00 0.  1.
</event>
<event>
 8    1  0.7016814E-009  0.7354480E+02  0.7561462E-02  0.1348437E+00
          2   -1    0    0  501    0  0.00000000000E+00  0.00000000000E+00  0.35386822147E+02  0.35386822147E+02  0.00000000000E+00 0.  1.
         -2   -1    0    0    0  501 -0.00000000000E+00 -0.00000000000E+00 -0.38157003625E+03  0.38157003625E+03  0.00000000000E+00 0. -1.
         25    2    1    2    0    0  0.99583720822E+01  0.40622494695E+02 -0.19067918510E+03  0.23185099306E+03  0.12508786953E+03 0.  0.
         23    2    1    2    0    0 -0.99583720822E+01 -0.40622494695E+02 -0.15550402901E+03  0.18510586534E+03  0.91287031364E+02 0.  0.
          5    1    3    3  502    0  0.11362478124E+02  0.35037182263E+01 -0.19392169501E+03  0.19433084713E+03  0.41800000000E+01 0. -1.
         -5    1    3    3    0  502 -0.14041060421E+01  0.37118776468E+02  0.32425099116E+01  0.37520145933E+02  0.41800000000E+01 0. -1.
        -11    1    4    4    0    0  0.37949377876E+02 -0.70314285380E+01 -0.85926055920E+02  0.94195983749E+02  0.00000000000E+00 0.  1.
         11    1    4    4    0    0 -0.47907749958E+02 -0.33591066157E+02 -0.69577973086E+02  0.90909881588E+02  0.00000000000E+00 0. -1.
</event>
<event>
 8    1  0.7016814E-009  0.1264913E+03  0.7561462E-02  0.1232757E+00
         -1   -1    0    0    0  501 -0.00000000000E+00  0.00000000000E+00  0.18001702561E+02  0.18001702561E+02  0.00000000000E+00 0.  1.
          1   -1    0    0  501    0  0.00000000000E+00 -0.00000000000E+00 -0.95837536429E+03  0.95837536429E+03  0.00000000000E+00 0. -1.
         25    2    1    2    0    0  0.48973035410E+02 -0.45211425405E+02 -0.39436494072E+03  0.41906141957E+03  0.12508531375E+03 0.  0.
         23    2    1    2    0    0 -0.48973035410E+02  0.45211425405E+02 -0.54600872101E+03  0.55731564729E+03  0.89625755809E+02 0.  0.
          5    1    3    3  502    0 -0.32514934048E+02  0.19007315000E+02 -0.10702868456E+03  0.11353902711E+03  0.41800000000E+01 0. -1.
         -5    1    3    3    0  502  0.81487969458E+02 -0.64218740405E+02 -0.28733625616E+03  0.30552239245E+03  0.41800000000E+01 0. -1.
        -11    1    4    4    0    0  0.25861332141E+02  0.18488053039E+02 -0.13460420578E+03  0.13830729850E+03  0.00000000000E+00 0.  1.
         11    1    4    4    0    0 -0.74834367551E+02  0.26723372366E+02 -0.41140451524E+03  0.41900834879E+03  0.00000000000E+00 0. -1.
</event>
<event>
 8    1  0.7016814E-009  0.1990812E+03  0.7561462E-02  0.1150517E+00
         -1   -1    0    0    0  501 -0.00000000000E+00  0.00000000000E+00  0.52265739700E+02  0.52265739700E+02  0.00000000000E+00 0.  1.
          1   -1    0    0  501    0  0.00000000000E+00 -0.00000000000E+00 -0.87944532315E+03  0.87944532315E+03  0.00000000000E+00 0. -1.
         25    2    1    2    0    0  0.45863936480E+02  0.17563657936E+03 -0.51056943267E+03  0.55612941672E+03  0.12508826441E+03 0.  0.
         23    2    1    2    0    0 -0.45863936480E+02 -0.17563657936E+03 -0.31661015078E+03  0.37558164613E+03  0.88701052141E+02 0.  0.
          5    1    3    3  502    0 -0.96777758744E+01  0.14409951432E+03 -0.25931589632E+03  0.29685103311E+03  0.41800000000E+01 0.  1.
         -5    1    3    3    0  502  0.55541712354E+02  0.31537065035E+02 -0.25125353635E+03  0.25927838362E+03  0.41800000000E+01 0.  1.
        -11    1    4    4    0    0 -0.54343329949E+02 -0.10223550497E+03 -0.25240914133E+03  0.27769708427E+03  0.00000000000E+00 0. -1.
         11    1    4    4    0    0  0.84793934698E+01 -0.73401074388E+02 -0.64201009456E+02  0.97884561858E+02  0.00000000000E+00 0.  1.
</event>
<event>
 8    1  0.7016814E-009  0.1295185E+03  0.7561462E-02  0.1228172E+00
         -2   -1    0    0    0  501 -0.00000000000E+00  0.00000000000E+00  0.52845317054E+02  0.52845317054E+02  0.00000000000E+00 0.  1.
          2   -1    0    0  501    0  0.00000000000E+00 -0.00000000000E+00 -0.34286955191E+03  0.34286955191E+03  0.00000000000E+00 0. -1.
         25    2    1    2    0    0  0.57928481522E+02 -0.53565302419E+02 -0.15121348682E+03  0.21151337414E+03  0.12508972080E+03 0.  0.
         23    2    1    2    0    0 -0.57928481522E+02  0.53565302419E+02 -0.13881074804E+03  0.18420149482E+03  0.91852143847E+02 0.  0.
          5    1    3    3  502    0  0.79271343853E+02 -0.80632750204E+02 -0.11718067119E+03  0.16289373365E+03  0.41800000000E+01 0.  1.
         -5    1    3    3    0  502 -0.21342862331E+02  0.27067447785E+02 -0.34032815626E+02  0.48619640491E+02  0.41800000000E+01 0.  1.
        -11    1    4    4    0    0 -0.19874540466E+02  0.67709798054E+02 -0.12055219926E+03  0.13968696023E+03  0.00000000000E+00 0. -1.
         11    1    4    4    0    0 -0.38053941056E+02 -0.14144495636E+02 -0.18258548779E+02  0.44514534595E+02  0.00000000000E+00 0.  1.
</event>
<event>
 8    1  0.7016814E-009  0.2052183E+03  0.7561462E-02  0.1145410E+00
         -1   -1    0    0    0  501 -0.00000000000E+00  0.00000000000E+00  0.25283940875E+03  0.25283940875E+03  0.00000000000E+00 0.  1.
          1   -1    0    0  501    0  0.00000000000E+00 -0.00000000000E+00 -0.18418827929E+03  0.18418827929E+03  0.00000000000E+00 0. -1.
         25    2    1    2    0    0  0.49936764440E+02 -0.17933098909E+03  0.45742573273E+02  0.22889423879E+03  0.12508759112E+03 0.  0.
         23    2    1    2    0    0 -0.49936764440E+02  0.17933098909E+03  0.22908556187E+02  0.20813344925E+03  0.90229965413E+02 0.  0.
          5    1    3    3  502    0 -0.41433015226E+02 -0.61064292272E+02  0.24595981935E+02  0.77897222471E+02  0.41800000000E+01 0. -1.
         -5    1    3    3    0  502  0.91369779666E+02 -0.11826669682E+03  0.21146591338E+02  0.15099701632E+03  0.41800000000E+01 0. -1.
        -11    1    4    4    0    0 -0.38400190187E+02  0.10514386142E+03  0.57073039510E+02  0.12564687835E+03  0.00000000000E+00 0.  1.
         11    1    4    4    0    0 -0.11536574254E+02  0.74187127668E+02 -0.34164483323E+02  0.82486570894E+02  0.00000000000E+00 0. -1.
</event>
<event>
 8    1  0.7016814E-009  0.2294420E+03  0.7561462E-02  0.1127033E+00
          2   -1    0    0  501    0  0.00000000000E+00  0.00000000000E+00  0.24596606492E+03  0.24596606492E+03  0.00000000000E+00 0. -1.
         -2   -1    0    0    0  501 -0.00000000000E+00 -0.00000000000E+00 -0.28279568622E+03  0.28279568622E+03  0.00000000000E+00 0.  1.
         25    2    1    2    0    0 -0.85970219531E+02  0.20815581092E+03 -0.10200641606E+03  0.27707940257E+03  0.12509183085E+03 0.  0.
         23    2    1    2    0    0  0.85970219531E+02 -0.20815581092E+03  0.65176794761E+02  0.25168234857E+03  0.91521963166E+02 0.  0.
          5    1    3    3  502    0  0.45416469904E+01  0.54101001049E+02  0.22859713381E+02  0.59055768285E+02  0.41800000000E+01 0. -1.
         -5    1    3    3    0  502 -0.90511866522E+02  0.15405480987E+03 -0.12486612944E+03  0.21802363428E+03  0.41800000000E+01 0. -1.
        -11    1    4    4    0    0  0.21273154928E+02 -0.69834115527E+02 -0.21488225351E+02  0.76099242051E+02  0.00000000000E+00 0. -1.
         11    1    4    4    0    0  0.64697064604E+02 -0.13832169539E+03  0.86665020112E+02  0.17558310652E+03  0.00000000000E+00 0.  1.
</event>
<event>
 8    1  0.7016814E-009  0.8470088E+02  0.7561462E-02  0.1316217E+00
          1   -1    0    0  501    0  0.00000000000E+00  0.00000000000E+00  0.43559720053E+03  0.43559720053E+03  0.00000000000E+00 0. -1.
         -1   -1    0    0    0  501 -0.00000000000E+00 -0.00000000000E+00 -0.35910240055E+02  0.35910240055E+02  0.00000000000E+00 0.  1.
         25    2    1    2    0    0  0.35235643781E+02 -0.44449258702E+02  0.17811148720E+03  0.22491686938E+03  0.12508640639E+03 0.  0.
         23    2    1    2    0    0 -0.35235643781E+02  0.44449258702E+02  0.22157547327E+03  0.24659057120E+03  0.92162531766E+02 0.  0.
          5    1    3    3  502    0  0.24957967112E+02  0.82008868589E+01  0.16809394024E+03  0.17018578029E+03  0.41800000000E+01 0. -1.
         -5    1    3    3    0  502  0.10277676669E+02 -0.52650145561E+02  0.10017546963E+02  0.54731089085E+02  0.41800000000E+01 0. -1.
        -11    1    4    4    0    0 -0.56167109294E+02  0.32412365229E+02  0.21005524201E+03  0.21983746332E+03  0.00000000000E+00 0. -1.
         11    1    4    4    0    0  0.20931465513E+02  0.12036893473E+02  0.11520231262E+02  0.26753107881E+02  0.00000000000E+00 0.  1.
</event>
<event>
 8    1  0.7016814E-009  0.8943433E+02  0.7561462E-02  0.1304227E+00
          2   -1    0    0  501    0  0.00000000000E+00  0.00000000000E+00  0.78898503352E+02  0.78898503352E+02  0.00000000000E+00 0. -1.
         -2   -1    0    0    0  501 -0.00000000000E+00 -0.00000000000E+00 -0.15841237638E+03  0.15841237638E+03  0.00000000000E+00 0.  1.
         25    2    1    2    0    0  0.15097747584E+02 -0.11457601025E+02 -0.24889353151E+02  0.12894307985E+03  0.12509044463E+03 0.  0.
         23    2    1    2    0    0 -0.15097747584E+02  0.11457601025E+02 -0.54624519879E+02  0.10836779988E+03  0.91654368560E+02 0.  0.
          5    1    3    3  502    0  0.50336939009E+00  0.56421293717E+02 -0.61782479808E+01  0.56914487730E+02  0.41800000000E+01 0.  1.
         -5    1    3    3    0  502  0.14594378193E+02 -0.67878894742E+02 -0.18711105170E+02  0.72028592121E+02  0.41800000000E+01 0.  1.
        -11    1    4    4    0    0 -0.14875056902E+01  0.29831750509E+02 -0.73102486028E+02  0.78969104561E+02  0.00000000000E+00 0.  1.
         11    1    4    4    0    0 -0.13610241893E+02 -0.18374149484E+02  0.18477966149E+02  0.29398695322E+02  0.00000000000E+00 0. -1.
</event>
<event>
 8    1  0.7016814E-009  0.1619822E+03  0.7561462E-02  0.1186477E+00
          1   -1    0    0  501    0  0.00000000000E+00  0.00000000000E+00  0.44657052070E+03  0.44657052070E+03  0.00000000000E+00 0. -1.
         -1   -1    0    0    0  501 -0.00000000000E+00 -0.00000000000E+00 -0.17024726647E+03  0.17024726647E+03  0.00000000000E+00 0.  1.
         25    2    1    2    0    0 -0.60055233308E+02  0.11795188362E+03 -0.99730537877E+02  0.20763646728E+03  0.12508974563E+03 0.  0.
         23    2    1    2    0    0  0.60055233308E+02 -0.11795188362E+03  0.37605379211E+03  0.40918131989E+03  0.92160838161E+02 0.  0.
          5    1    3    3  502    0 -0.73022360445E+02  0.13833018597E+03 -0.77825476723E+02  0.17476207455E+03  0.41800000000E+01 0. -1.
         -5    1    3    3    0  502  0.12967127136E+02 -0.20378302349E+02 -0.21905061153E+02  0.32874392724E+02  0.41800000000E+01 0. -1.
        -11    1    4    4    0    0  0.20049809523E+02 -0.94496185229E+02  0.14995825478E+03  0.17837881618E+03  0.00000000000E+00 0.  1.
         11    1    4    4    0    0  0.40005423785E+02 -0.23455698391E+02  0.22609553733E+03  0.23080250372E+03  0.00000000000E+00 0. -1.
</event>
<event>
 8    1  0.7016814E-009  0.1133210E+03  0.7561462E-02  0.1254541E+00
          1   -1    0    0  501    0  0.00000000000E+00  0.00000000000E+00  0.12506677696E+03  0.12506677696E+03  0.00000000000E+00 0. -1.
         -1   -1    0    0    0  501 -0.00000000000E+00 -0.00000000000E+00 -0.12714408020E+03  0.12714408020E+03  0.00000000000E+00 0.  1.
         25    2    1    2    0    0 -0.19333194543E+02  0.37159530835E+02  0.47222428877E+02  0.14011707906E+03  0.12509290513E+03 0.  0.
         23    2    1    2    0    0  0.19333194543E+02 -0.37159530835E+02 -0.49299732120E+02  0.11209377810E+03  0.91542057870E+02 0.  0.
          5    1    3    3  502    0  0.28915410625E+02 -0.32416350634E+02  0.11942214984E+01  0.43655690637E+02  0.41800000000E+01 0.  1.
         -5    1    3    3    0  502 -0.48248605168E+02  0.69575881469E+02  0.46028207379E+02  0.96461388428E+02  0.41800000000E+01 0.  1.
        -11    1    4    4    0    0 -0.17249243944E+01  0.28871765803E+02 -0.26234457649E+02  0.39048700271E+02  0.00000000000E+00 0.  1.
         11    1    4    4    0    0  0.21058118937E+02 -0.66031296638E+02 -0.23065274471E+02  0.73045077831E+02  0.00000000000E+00 0. -1.
</event>
<event>
 8    1  0.7016814E-009  0.1192421E+03  0.7561462E-02  0.1244353E+00
          1   -1    0    0  501    0  0.00000000000E+00  0.00000000000E+00  0.11694405380E+03  0.11694405380E+03  0.00000000000E+00 0. -1.
         -1   -1    0    0    0  501 -0.00000000000E+00 -0.00000000000E+00 -0.16320287937E+03  0.16320287937E+03  0.00000000000E+00 0.  1.
         25    2    1    2    0    0  0.54205548534E+02 -0.12992799917E+01  0.44108462221E+02  0.14329271017E+03  0.12508922706E+03 0.  0.
         23    2    1    2    0    0 -0.54205548534E+02  0.12992799917E+01 -0.90367287795E+02  0.13685422301E+03  0.87309232222E+02 0.  0.
          5    1    3    3  502    0  0.47970662901E+02  0.58667854286E+02  0.24223746784E+02  0.79670345386E+02  0.41800000000E+01 0. -1.
         -5    1    3    3    0  502  0.62348856329E+01 -0.59967134278E+02  0.19884715437E+02  0.63622364781E+02  0.41800000000E+01 0. -1.
        -11    1    4    4    0    0 -0.45060634335E+02  0.41296222359E+02 -0.61353062406E+02  0.86602754080E+02  0.00000000000E+00 0.  1.
         11    1    4    4    0    0 -0.91449141996E+01 -0.39996942367E+02 -0.29014225390E+02  0.50251468928E+02  0.00000000000E+00 0. -1.
</event>
<event>
 8    1  0.7016814E-009  0.1056305E+03  0.7561462E-02  0.1268882E+00
         -2   -1    0    0    0  501 -0.00000000000E+00  0.00000000000E+00  0.16261628977E+03  0.16261628977E+03  0.00000000000E+00 0.  1.
          2   -1    0    0  501    0  0.00000000000E+00 -0.00000000000E+00 -0.11911608003E+03  0.11911608003E+03  0.00000000000E+00 0. -1.
         25    2    1    2    0    0 -0.40358872437E+02  0.68033434159E+02 -0.12326255338E+02  0.14851965097E+03  0.12509501751E+03 0.  0.
         23    2    1    2    0    0  0.40358872437E+02 -0.68033434159E+02  0.55826465075E+02  0.13321271882E+03  0.91496707621E+02 0.  0.
          5    1    3    3  502    0 -0.27582704863E+02 -0.23806981431E+02  0.29156673827E+02  0.46852555972E+02  0.41800000000E+01 0. -1.
         -5    1    3    3    0  502 -0.12776167573E+02  0.91840415591E+02 -0.41482929165E+02  0.10166709500E+03  0.41800000000E+01 0. -1.
        -11    1    4    4    0    0  0.18372668382E+02 -0.50204066042E+02  0.79844546331E+02  0.96089306218E+02  0.00000000000E+00 0.  1.
         11    1    4    4    0    0  0.21986204055E+02 -0.17829368117E+02 -0.24018081256E+02  0.37123412605E+02  0.00000000000E+00 0. -1.
</event>
<event>
 8    1  0.7016814E-009  0.9571767E+02  0.7561462E-02  0.1289568E+00
          2   -1    0    0  501    0  0.00000000000E+00  0.00000000000E+00  0.17067351711E+02  0.17067351711E+02  0.00000000000E+00 0. -1.
         -2   -1    0    0    0  501 -0.00000000000E+00 -0.00000000000E+00 -0.89931675465E+03  0.89931675465E+03  0.00000000000E+00 0.  1.
         25    2    1    2    0    0 -0.21685141606E+02 -0.85288057431E+01 -0.71359692693E+03  0.72485242605E+03  0.12508988581E+03 0.  0.
         23    2    1    2    0    0  0.21685141606E+02  0.85288057431E+01 -0.16865247601E+03  0.19153168031E+03  0.87736771113E+02 0.  0.
          5    1    3    3  502    0 -0.51904440176E+02  0.42791699378E+02 -0.39527276605E+03  0.40097784531E+03  0.41800000000E+01 0. -1.
         -5    1    3    3    0  502  0.30219298570E+02 -0.51320505121E+02 -0.31832416088E+03  0.32387458074E+03  0.41800000000E+01 0. -1.
        -11    1    4    4    0    0  0.42308013779E+02  0.81916582690E+00 -0.16354420386E+03  0.16893000231E+03  0.00000000000E+00 0.  1.
         11    1    4    4    0    0 -0.20622872173E+02  0.77096399162E+01 -0.51082721463E+01  0.22601678004E+02  0.00000000000E+00 0. -1.
</event>
<event>
 8    1  0.7016814E-009  0.1360260E+03  0.7561462E-02  0.1218779E+00
         -1   -1    0    0    0  501 -0.00000000000E+00  0.00000000000E+00  0.86874061247E+02  0.86874061247E+02  0.00000000000E+00 0.  1.
          1   -1    0    0  501    0  0.00000000000E+00 -0.00000000000E+00 -0.21692440875E+03  0.21692440875E+03  0.00000000000E+00 0. -1.
         25    2    1    2    0    0 -0.69640848034E+02 -0.47734849609E+02 -0.56769051756E+02  0.16123889032E+03  0.12508713336E+03 0.  0.
         23    2    1    2    0    0  0.69640848034E+02  0.47734849609E+02 -0.73281295752E+02  0.14255957968E+03  0.88456892725E+02 0.  0.
          5    1    3    3  502    0 -0.49687682835E+02 -0.90556901727E+02 -0.36039162573E+02  0.10947927619E+03  0.41800000000E+01 0. -1.
         -5    1    3    3    0  502 -0.19953165199E+02  0.42822052118E+02 -0.20729889183E+02  0.51759614127E+02  0.41800000000E+01 0. -1.
        -11    1    4    4    0    0  0.39634861644E+01 -0.23804468335E+02 -0.22383621026E+02  0.32914866330E+02  0.00000000000E+00 0.  1.
         11    1    4    4    0    0  0.65677361870E+02  0.71539317944E+02 -0.50897674726E+02  0.10964471335E+03  0.00000000000E+00 0. -1.
</event>
<event>
 8    1  0.7016814E-009  0.1421663E+03  0.7561462E-02  0.1210443E+00
          2   -1    0    0  501    0  0.00000000000E+00  0.00000000000E+00  0.10460441011E+04  0.10460441011E+04  0.00000000000E+00 0. -1.
         -2   -1    0    0    0  501 -0.00000000000E+00 -0.00000000000E+00 -0.28301385478E+02  0.28301385478E+02  0.00000000000E+00 0.  1.
         25    2    1    2    0    0  0.50256622656E+02  0.99184953367E+02  0.76809907061E+03  0.78612124726E+03  0.12508816902E+03 0.  0.
         23    2    1    2    0    0 -0.50256622656E+02 -0.99184953367E+02  0.24964364498E+03  0.28822423928E+03  0.91585367477E+02 0.  0.
          5    1    3    3  502    0 -0.23572623636E+02  0.59625655007E+02  0.52596707614E+03  0.52987708471E+03  0.41800000000E+01 0. -1.
         -5    1    3    3    0  502  0.73829246292E+02  0.39559298360E+02  0.24213199447E+03  0.25624416255E+03  0.41800000000E+01 0. -1.
        -11    1    4    4    0    0  0.10667915603E+02  0.77209230428E+01  0.44722377704E+01  0.13907479521E+02  0.00000000000E+00 0.  1.
         11    1    4    4    0    0 -0.60924538259E+02 -0.10690587641E+03  0.24517140721E+03  0.27431675976E+03  0.00000000000E+00 0. -1.
</event>
<event>
 8    1  0.7016814E-009  0.7112597E+02  0.7561462E-02  0.1356305E+00
          2   -1    0    0  501    0  0.00000000000E+00  0.00000000000E+00  0.17320181349E+03  0.17320181349E+03  0.00000000000E+00 0.  1.
         -2   -1    0    0    0  501 -0.00000000000E+00 -0.00000000000E+00 -0.14222858982E+03  0.14222858982E+03  0.00000000000E+00 0. -1.
         25    2    1    2    0    0  0.11968169643E+02  0.37923062431E+02  0.12264227741E+03  0.17963971051E+03  0.12509157300E+03 0.  0.
         23    2    1    2    0    0 -0.11968169643E+02 -0.37923062431E+02 -0.91669053747E+02  0.13579069280E+03  0.91948360986E+02 0.  0.
          5    1    3    3  502    0  0.77791816057E-02 -0.30310077932E+02  0.10309554452E+03  0.10754006037E+03  0.41800000000E+01 0.  1.
         -5    1    3    3    0  502  0.11960390461E+02  0.68233140363E+02  0.19546732894E+02  0.72099650142E+02  0.41800000000E+01 0.  1.
        -11    1    4    4    0    0  0.18591304337E+01 -0.17460318453E+02  0.16946438882E+02  0.24402886658E+02  0.00000000000E+00 0.  1.
         11    1    4    4    0    0 -0.13827300077E+02 -0.20462743979E+02 -0.10861549263E+03  0.11138780614E+03  0.00000000000E+00 0. -1.
</event>
<event>
 8    1  0.7016814E-009  0.9821624E+02  0.7561462E-02  0.1284092E+00
          1   -1    0    0  501    0  0.00000000000E+00  0.00000000000E+00  0.45743598472E+03  0.45743598472E+03  0.00000000000E+00 0. -1.
         -1   -1    0    0    0  501 -0.00000000000E+00 -0.00000000000E+00 -0.62786379563E+02  0.62786379563E+02  0.00000000000E+00 0.  1.
         25    2    1    2    0    0 -0.41517286267E+02 -0.50966339056E+02  0.39853301739E+02  0.14683067976E+03  0.12509880128E+03 0.  0.
         23    2    1    2    0    0  0.41517286267E+02  0.50966339056E+02  0.35479630342E+03  0.37339168453E+03  0.96019166728E+02 0.  0.
          5    1    3    3  502    0  0.52033439202E+01  0.12863433866E+02 -0.34978226253E+02  0.37861476868E+02  0.41800000000E+01 0. -1.
         -5    1    3    3    0  502 -0.46720630187E+02 -0.63829772922E+02  0.74831527993E+02  0.10896920289E+03  0.41800000000E+01 0. -1.
        -11    1    4    4    0    0  0.56703593068E+02  0.81342492247E+01  0.10609058717E+03  0.12056813909E+03  0.00000000000E+00 0.  1.
         11    1    4    4    0    0 -0.15186306801E+02  0.42832089831E+02  0.24870571625E+03  0.25282354544E+03  0.00000000000E+00 0. -1.
</event>
<event>
 8    1  0.7016814E-009  0.1138284E+03  0.7561462E-02  0.1253640E+00
         -2   -1    0    0    0  501 -0.00000000000E+00  0.00000000000E+00  0.30801801623E+02  0.30801801623E+02  0.00000000000E+00 0.  1.
          2   -1    0    0  501    0  0.00000000000E+00 -0.00000000000E+00 -0.46743308659E+03  0.46743308659E+03  0.00000000000E+00 0. -1.
         25    2    1    2    0    0 -0.44668945323E+01  0.49054533121E+02 -0.23168734365E+03  0.26786645934E+03  0.12508842659E+03 0.  0.
         23    2    1    2    0    0  0.44668945323E+01 -0.49054533121E+02 -0.20494394131E+03  0.23036842886E+03  0.92958558353E+02 0.  0.
          5    1    3    3  502    0 -0.22535424806E+02 -0.36538237584E+02 -0.49050579294E+02  0.65317072087E+02  0.41800000000E+01 0.  1.
         -5    1    3    3    0  502  0.18068530274E+02  0.85592770705E+02 -0.18263676436E+03  0.20254938726E+03  0.41800000000E+01 0.  1.
        -11    1    4    4    0    0 -0.25129540119E+02  0.12927884879E+02 -0.10748183766E+03  0.11113491540E+03  0.00000000000E+00 0. -1.
         11    1    4    4    0    0  0.29596434651E+02 -0.61982418000E+02 -0.97462103649E+02  0.11923351346E+03  0.00000000000E+00 0.  1.
</event>
<event>
 8    1  0.7016814E-009  0.2061271E+03  0.7561462E-02  0.1144670E+00
          2   -1    0    0  501    0  0.00000000000E+00  0.00000000000E+00  0.44960806709E+02  0.44960806709E+02  0.00000000000E+00 0. -1.
         -2   -1    0    0    0  501 -0.00000000000E+00 -0.00000000000E+00 -0.10889183152E+04  0.10889183152E+04  0.00000000000E+00 0.  1.
         25    2    1    2    0    0 -0.16489516368E+02 -0.19198456771E+03 -0.55810943889E+03  0.60354258698E+03  0.12509008806E+03 0.  0.
         23    2    1    2    0    0  0.16489516368E+02  0.19198456771E+03 -0.48584806955E+03  0.53033653488E+03  0.89880560472E+02 0.  0.
          5    1    3    3  502    0  0.44093872790E+02 -0.80190368042E+02 -0.14710294119E+03  0.17329602550E+03  0.41800000000E+01 0.  1.
         -5    1    3    3    0  502 -0.60583389159E+02 -0.11179419967E+03 -0.41100649770E+03  0.43024656149E+03  0.41800000000E+01 0.  1.
        -11    1    4    4    0    0  0.17947813012E+02  0.11240608753E+03 -0.16982708690E+03  0.20444679491E+03  0.00000000000E+00 0. -1.
         11    1    4    4    0    0 -0.14582966437E+01  0.79578480178E+02 -0.31602098265E+03  0.32588973996E+03  0.00000000000E+00 0.  1.
</event>
<event>
 8    1  0.7016814E-009  0.1891650E+03  0.7561462E-02  0.1159217E+00
         -1   -1    0    0    0  501 -0.00000000000E+00  0.00000000000E+00  0.59567659031E+02  0.59567659031E+02  0.00000000000E+00 0.  1.
          1   -1    0    0  501    0  0.00000000000E+00 -0.00000000000E+00 -0.68000802492E+03  0.68000802492E+03  0.00000000000E+00 0. -1.
         25    2    1    2    0    0 -0.16355578655E+03  0.38189479210E+02 -0.28137275834E+03  0.35075313784E+03  0.12509277732E+03 0.  0.
         23    2    1    2    0    0  0.16355578655E+03 -0.38189479210E+02 -0.33906760755E+03  0.38882254611E+03  0.89482949419E+02 0.  0.
          5    1    3    3  502    0 -0.14647777019E+03  0.61319014170E+00 -0.13724333106E+03  0.20077180450E+03  0.41800000000E+01 0.  1.
         -5    1    3    3    0  502 -0.17078016351E+02  0.37576289069E+02 -0.14412942728E+03  0.14998133334E+03  0.41800000000E+01 0.  1.
        -11    1    4    4    0    0  0.37146424999E+02 -0.51169487127E+02 -0.11237681005E+03  0.12894464215E+03  0.00000000000E+00 0.  1.
         11    1    4    4    0    0  0.12640936155E+03  0.12980007917E+02 -0.22669079750E+03  0.25987790395E+03  0.00000000000E+00 0. -1.
</event>
<event>
 8    1  0.7016814E-009  0.7474728E+02  0.7561462E-02  0.1344655E+00
         -1   -1    0    0    0  501 -0.00000000000E+00  0.00000000000E+00  0.38305530011E+02  0.38305530011E+02  0.00000000000E+00 0.  1.
          1   -1    0    0  501    0  0.00000000000E+00 -0.00000000000E+00 -0.40640584877E+03  0.40640584877E+03  0.00000000000E+00 0. -1.
         25    2    1    2    0    0 -0.32957716014E+02 -0.43180010235E+02 -0.15287803877E+03  0.20486287696E+03  0.12508548792E+03 0.  0.
         23    2    1    2    0    0  0.32957716014E+02  0.43180010235E+02 -0.21522227999E+03  0.23984850182E+03  0.90862256709E+02 0.  0.
          5    1    3    3  502    0 -0.96109733705E+01 -0.38218070733E+02  0.94467219679E+01  0.40739473433E+02  0.41800000000E+01 0. -1.
         -5    1    3    3    0  502 -0.23346742644E+02 -0.49619395018E+01 -0.16232476074E+03  0.16412340353E+03  0.41800000000E+01 0. -1.
        -11    1    4    4    0    0  0.91669811307E+01 -0.17885457661E+02 -0.65675300848E+01  0.21143689134E+02  0.00000000000E+00 0.  1.
         11    1    4    4    0    0  0.23790734884E+02  0.61065467896E+02 -0.20865474990E+03  0.21870481269E+03  0.00000000000E+00 0. -1.
</event>
<event>
 8    1  0.7016814E-009  0.1558276E+03  0.7561462E-02  0.1193490E+00
          2   -1    0    0  501    0  0.00000000000E+00  0.00000000000E+00  0.14279083248E+04  0.14279083248E+04  0.00000000000E+00 0. -1.
         -2   -1    0    0    0  501 -0.00000000000E+00 -0.00000000000E+00 -0.27735747851E+02  0.27735747851E+02  0.00000000000E+00 0.  1.
         25    2    1    2    0    0 -0.70664096073E+02  0.10598434395E+03  0.11232794766E+04  0.11373793159E+04  0.12509528409E+03 0.  0.
         23    2    1    2    0    0  0.70664096073E+02 -0.10598434395E+03  0.27689310029E+03  0.31826475667E+03  0.91632803704E+02 0.  0.
          5    1    3    3  502    0 -0.39515788900E+02 -0.19733642236E+02  0.18794209346E+03  0.19310778623E+03  0.41800000000E+01 0.  1.
         -5    1    3    3    0  502 -0.31148307173E+02  0.12571798618E+03  0.93533738315E+03  0.94427152971E+03  0.41800000000E+01 0.  1.
        -11    1    4    4    0    0  0.19510836822E+02 -0.75879024357E+02  0.22889181440E+03  0.24192924955E+03  0.00000000000E+00 0. -1.
         11    1    4    4    0    0  0.51153259251E+02 -0.30105319590E+02  0.48001285892E+02  0.76335507117E+02  0.00000000000E+00 0.  1.
</event>
<event>
 8    1  0.7016814E-009  0.2981391E+03  0.7561462E-02  0.1086175E+00
         -2   -1    0    0    0  501 -0.00000000000E+00  0.00000000000E+00  0.15362912301E+03  0.15362912301E+03  0.00000000000E+00 0.  1.
          2   -1    0    0  501    0  0.00000000000E+00 -0.00000000000E+00 -0.71692922437E+03  0.71692922437E+03  0.00000000000E+00 0. -1.
         25    2    1    2    0    0 -0.70534060726E+02 -0.28474166718E+03 -0.43036277769E+03  0.53564229693E+03  0.12509068347E+03 0.  0.
         23    2    1    2    0    0  0.70534060726E+02  0.28474166718E+03 -0.13293732368E+03  0.33491605045E+03  0.91888835388E+02 0.  0.
          5    1    3    3  502    0 -0.62340624070E+02 -0.10464208347E+03 -0.93732260400E+02  0.15375151408E+03  0.41800000000E+01 0.  1.
         -5    1    3    3    0  502 -0.81934366555E+01 -0.18009958372E+03 -0.33663051729E+03  0.38189078285E+03  0.41800000000E+01 0.  1.
        -11    1    4    4    0    0  0.37323316596E+02  0.10892676381E+03 -0.10100084635E+03  0.15316409762E+03  0.00000000000E+00 0. -1.
         11    1    4    4    0    0  0.33210744130E+02  0.17581490337E+03 -0.31936477326E+02  0.18175195283E+03  0.00000000000E+00 0.  1.
</event>
<event>
 8    1  0.7016814E-009  0.5581910E+02  0.7561462E-02  0.1416265E+00
          1   -1    0    0  501    0  0.00000000000E+00  0.00000000000E+00  0.46367940309E+02  0.46367940309E+02  0.00000000000E+00 0. -1.
         -1   -1    0    0    0  501 -0.00000000000E+00 -0.00000000000E+00 -0.25933766025E+03  0.25933766025E+03  0.00000000000E+00 0.  1.
         25    2    1    2    0    0  0.15370853868E+02  0.22143221911E+01 -0.12919545988E+03  0.18050520902E+03  0.12509795066E+03 0.  0.
         23    2    1    2    0    0 -0.15370853868E+02 -0.22143221911E+01 -0.83774260065E+02  0.12520039154E+03  0.91737914850E+02 0.  0.
          5    1    3    3  502    0  0.20306761186E+01 -0.13640426722E+01  0.25086560775E+02  0.25549798226E+02  0.41800000000E+01 0. -1.
         -5    1    3    3    0  502  0.13340177749E+02  0.35783648633E+01 -0.15428202065E+03  0.15495541079E+03  0.41800000000E+01 0. -1.
        -11    1    4    4    0    0  0.18302788862E+02  0.36635030522E+02 -0.29714338539E+02  0.50597030113E+02  0.00000000000E+00 0.  1.
         11    1    4    4    0    0 -0.33673642730E+02 -0.38849352713E+02 -0.54059921526E+02  0.74603361427E+02  0.00000000000E+00 0. -1.
</event>
<event>
 8    1  0.7016814E-009  0.9486839E+02  0.7561462E-02  0.1291473E+00
         -2   -1    0    0    0  501 -0.00000000000E+00  0.00000000000E+00  0.12923093599E+03  0.12923093599E+03  0.00000000000E+00 0.  1.
          2   -1    0    0  501    0  0.00000000000E+00 -0.00000000000E+00 -0.14813929181E+03  0.14813929181E+03  0.00000000000E+00 0. -1.
         25    2    1    2    0    0  0.52150504684E+02 -0.63441061125E+01 -0.76215487174E+02  0.15561516410E+03  0.12508939200E+03 0.  0.
         23    2    1    2    0    0 -0.52150504684E+02  0.63441061125E+01  0.57307131353E+02  0.12175506370E+03  0.93703070446E+02 0.  0.
          5    1    3    3  502    0  0.37408847782E+02  0.29496210779E+02  0.19976062629E+02  0.51826285039E+02  0.41800000000E+01 0. -1.
         -5    1    3    3    0  502  0.14741656901E+02 -0.35840316892E+02 -0.96191549803E+02  0.10378887906E+03  0.41800000000E+01 0. -1.
        -11    1    4    4    0    0  0.23453125005E+02  0.13388387745E+02  0.31651811120E+02  0.41606912240E+02  0.00000000000E+00 0.  1.
         11    1    4    4    0    0 -0.75603629689E+02 -0.70442816325E+01  0.25655320233E+02  0.80148151458E+02  0.00000000000E+00 0. -1.
</event>
<event>
 8    1  0.7016814E-009  0.1064742E+03  0.7561462E-02  0.1267242E+00
          2   -1    0    0  501    0  0.00000000000E+00  0.00000000000E+00  0.11387853992E+04  0.11387853992E+04  0.00000000000E+00 0. -1.
         -2   -1    0    0    0  501 -0.00000000000E+00 -0.00000000000E+00 -0.26821033034E+02  0.26821033034E+02  0.00000000000E+00 0.  1.
         25    2    1    2    0    0 -0.38013736306E+02 -0.85341310563E+02  0.92289836924E+03  0.93601057927E+03  0.12508485565E+03 0.  0.
         23    2    1    2    0    0  0.38013736306E+02  0.85341310563E+02  0.18906599689E+03  0.22959585293E+03  0.90775112596E+02 0.  0.
          5    1    3    3  502    0 -0.50701181239E+02 -0.85344949156E+02  0.37469273638E+03  0.38764221806E+03  0.41800000000E+01 0. -1.
         -5    1    3    3    0  502  0.12687444933E+02  0.36385931014E-02  0.54820563287E+03  0.54836836121E+03  0.41800000000E+01 0. -1.
        -11    1    4    4    0    0  0.96248256294E+01  0.63993262152E+02  0.39380211665E+02  0.75753388967E+02  0.00000000000E+00 0.  1.
         11    1    4    4    0    0  0.28388910677E+02  0.21348048411E+02  0.14968578522E+03  0.15384246396E+03  0.00000000000E+00 0. -1.
</event>
<event>
 8    1  0.7016814E-009  0.2243533E+03  0.7561462E-02  0.1130679E+00
         -2   -1    0    0    0  501 -0.00000000000E+00  0.00000000000E+00  0.10513371366E+03  0.10513371366E+03  0.00000000000E+00 0.  1.
          2   -1    0    0  501    0  0.00000000000E+00 -0.00000000000E+00 -0.57897417899E+03  0.57897417899E+03  0.00000000000E+00 0. -1.
         25    2    1    2    0    0  0.18623280276E+03 -0.90163887855E+02 -0.35405539632E+03  0.42873633790E+03  0.12508972887E+03 0.  0.
         23    2    1    2    0    0 -0.18623280276E+03  0.90163887855E+02 -0.11978506901E+03  0.25537155476E+03  0.89743995499E+02 0.  0.
          5    1    3    3  502    0  0.19223230785E+03 -0.10914657524E+03 -0.31742128238E+03  0.38683326896E+03  0.41800000000E+01 0.  1.
         -5    1    3    3    0  502 -0.59995050947E+01  0.18982687381E+02 -0.36634113946E+02  0.41903068935E+02  0.41800000000E+01 0.  1.
        -11    1    4    4    0    0 -0.84212717287E+02  0.47507058669E+02 -0.10674724098E+03  0.14402664974E+03  0.00000000000E+00 0. -1.
         11    1    4    4    0    0 -0.10202008547E+03  0.42656829185E+02 -0.13037828022E+02  0.11134490502E+03  0.00000000000E+00 0.  1.
</event>
<event>
 8    1  0.7016814E-009  0.1124714E+03  0.7561462E-02  0.1256061E+00
         -2   -1    0    0    0  501 -0.00000000000E+00  0.00000000000E+00  0.33476719926E+02  0.33476719926E+02  0.00000000000E+00 0. -1.
          2   -1    0    0  501    0  0.00000000000E+00 -0.00000000000E+00 -0.39962641876E+03  0.39962641876E+03  0.00000000000E+00 0.  1.
         25    2    1    2    0    0  0.31861849465E+02  0.21708815620E+02 -0.19648168586E+03  0.23609198290E+03  0.12509165194E+03 0.  0.
         23    2    1    2    0    0 -0.31861849465E+02 -0.21708815620E+02 -0.16966801297E+03  0.19701115578E+03  0.92410555396E+02 0.  0.
          5    1    3    3  502    0 -0.46678037319E+02  0.22211642347E+02 -0.87033285701E+02  0.10131367846E+03  0.41800000000E+01 0. -1.
         -5    1    3    3    0  502  0.78539886783E+02 -0.50282672749E+00 -0.10944840016E+03  0.13477830444E+03  0.41800000000E+01 0. -1.
        -11    1    4    4    0    0  0.15298962295E+02 -0.40781394981E+02 -0.11167052576E+03  0.11986445155E+03  0.00000000000E+00 0. -1.
         11    1    4    4    0    0 -0.47160811760E+02  0.19072579361E+02 -0.57997487214E+02  0.77146704222E+02  0.00000000000E+00 0.  1.
</event>
<event>
 8    1  0.7016814E-009  0.1012991E+03  0.7561462E-02  0.1277588E+00
         -1   -1    0    0    0  501 -0.00000000000E+00  0.00000000000E+00  0.16584496224E+03  0.16584496224E+03  0.00000000000E+00 0.  1.
          1   -1    0    0  501    0  0.00000000000E+00 -0.00000000000E+00 -0.89616480338E+02  0.89616480338E+02  0.00000000000E+00 0. -1.
         25    2    1    2    0    0 -0.41314990241E+02 -0.38343443399E+02  0.76472462841E+02  0.15707673285E+03  0.12509162386E+03 0.  0.
         23    2    1    2    0    0  0.41314990241E+02  0.38343443399E+02 -0.24398094262E+00  0.98384709722E+02  0.80637110006E+02 0.  0.
          5    1    3    3  502    0 -0.63563322286E+02 -0.64761555741E+02  0.81355999073E+02  0.12194517632E+03  0.41800000000E+01 0.  1.
         -5    1    3    3    0  502  0.22248332045E+02  0.26418112342E+02 -0.48835362314E+01  0.35131556535E+02  0.41800000000E+01 0.  1.
        -11    1    4    4    0    0  0.33399017254E+02 -0.42292430651E+01 -0.30606068334E+02  0.45498486451E+02  0.00000000000E+00 0. -1.
         11    1    4    4    0    0  0.79159729870E+01  0.42572686464E+02  0.30362087391E+02  0.52886223271E+02  0.00000000000E+00 0.  1.
</event>
<event>
 8    1  0.7016814E-009  0.1127511E+03  0.7561462E-02  0.1255558E+00
          1   -1    0    0  501    0  0.00000000000E+00  0.00000000000E+00  0.85986297867E+02  0.85986297867E+02  0.00000000000E+00 0. -1.
         -1   -1    0    0    0  501 -0.00000000000E+00 -0.00000000000E+00 -0.23529532417E+03  0.23529532417E+03  0.00000000000E+00 0.  1.
         25    2    1    2    0    0 -0.78738388325E+01 -0.64311926930E+02 -0.17654202325E+02  0.14197660046E+03  0.12509061889E+03 0.  0.
         23    2    1    2    0    0  0.78738388325E+01  0.64311926930E+02 -0.13165482398E+03  0.17930502158E+03  0.10304987532E+03 0.  0.
          5    1    3    3  502    0 -0.57404798356E+02 -0.58594290301E+02 -0.34635618997E+02  0.89138657346E+02  0.41800000000E+01 0.  1.
         -5    1    3    3    0  502  0.49530959523E+02 -0.57176366290E+01  0.16981416671E+02  0.52837943110E+02  0.41800000000E+01 0.  1.
        -11    1    4    4    0    0  0.20742595846E+02 -0.62054258856E+01 -0.97549284785E+02  0.99923098205E+02  0.00000000000E+00 0.  1.
         11    1    4    4    0    0 -0.12868757013E+02  0.70517352816E+02 -0.34105539192E+02  0.79381923376E+02  0.00000000000E+00 0. -1.
</event>
<event>
 8    1  0.7016814E-009  0.9533599E+02  0.7561462E-02  0.1290421E+00
          2   -1    0    0  501    0  0.00000000000E+00  0.00000000000E+00  0.45270681701E+03  0.45270681701E+03  0.00000000000E+00 0. -1.
         -2   -1    0    0    0  501 -0.00000000000E+00 -0.00000000000E+00 -0.35368834447E+02  0.35368834447E+02  0.00000000000E+00 0.  1.
         25    2    1    2    0    0 -0.26919685903E+02  0.56198299066E+02  0.19255199694E+03  0.23792062759E+03  0.12508810976E+03 0.  0.
         23    2    1    2    0    0  0.26919685903E+02 -0.56198299066E+02  0.22478598563E+03  0.25015502386E+03  0.90365249537E+02 0.  0.
          5    1    3    3  502    0 -0.30698729657E+02  0.74248213487E+01  0.18562177283E+03  0.18833601600E+03  0.41800000000E+01 0. -1.
         -5    1    3    3    0  502  0.37790437540E+01  0.48773477717E+02  0.69302241064E+01  0.49584611590E+02  0.41800000000E+01 0. -1.
        -11    1    4    4    0    0 -0.33526272525E+02 -0.23971168579E+02  0.80731005895E+02  0.90642833061E+02  0.00000000000E+00 0. -1.
         11    1    4    4    0    0  0.60445958429E+02 -0.32227130487E+02  0.14405497973E+03  0.15951219080E+03  0.00000000000E+00 0.  1.
</event>
<event>
 8    1  0.7016814E-009  0.6799155E+02  0.7561462E-02  0.1367059E+00
          4   -1    0    0  501    0  0.00000000000E+00  0.00000000000E+00  0.65539254080E+02  0.65539254080E+02  0.00000000000E+00 0. -1.
         -4   -1    0    0    0  501 -0.00000000000E+00 -0.00000000000E+00 -0.23109331055E+03  0.23109331055E+03  0.00000000000E+00 0.  1.
         25    2    1    2    0    0  0.38541712556E+02 -0.98434352718E+01 -0.14136940925E+03  0.19291391936E+03  0.12509242017E+03 0.  0.
         23    2    1    2    0    0 -0.38541712556E+02  0.98434352718E+01 -0.24184647224E+02  0.10371864528E+03  0.92683889604E+02 0.  0.
          5    1    3    3  502    0  0.26192001840E+02 -0.55427857416E+01  0.18273120616E+02  0.32682147592E+02  0.41800000000E+01 0. -1.
         -5    1    3    3    0  502  0.12349710716E+02 -0.43006495303E+01 -0.15964252987E+03  0.16023177176E+03  0.41800000000E+01 0. -1.
        -11    1    4    4    0    0  0.74398749008E+01 -0.32081151039E+02  0.76697417179E+01  0.33813857049E+02  0.00000000000E+00 0. -1.
         11    1    4    4    0    0 -0.45981587457E+02  0.41924586311E+02 -0.31854388942E+02  0.69904788228E+02  0.00000000000E+00 0.  1.
</event>
<event>
 8    1  0.7016814E-009  0.5690354E+02  0.7561462E-02  0.1411305E+00
         -2   -1    0    0    0  501 -0.00000000000E+00  0.00000000000E+00  0.15686745985E+03  0.15686745985E+03  0.00000000000E+00 0.  1.
          2   -1    0    0  501    0  0.00000000000E+00 -0.00000000000E+00 -0.97497400439E+02  0.97497400439E+02  0.00000000000E+00 0. -1.
         25    2    1    2    0    0 -0.47704747512E+02 -0.44886150711E+01 -0.32959958134E+01  0.13399384372E+03  0.12509035121E+03 0.  0.
         23    2    1    2    0    0  0.47704747512E+02  0.44886150711E+01  0.62666055226E+02  0.12037101658E+03  0.90918955962E+02 0.  0.
          5    1    3    3  502    0  0.38837505013E+01 -0.73418670505E+01 -0.57936185302E+02  0.58677597915E+02  0.41800000000E+01 0.  1.
         -5    1    3    3    0  502 -0.51588498013E+02  0.28532519794E+01  0.54640189488E+02  0.75316245800E+02  0.41800000000E+01 0.  1.
        -11    1    4    4    0    0  0.20801694205E+02  0.12910097103E+02  0.82399867667E+02  0.85959986508E+02  0.00000000000E+00 0.  1.
         11    1    4    4    0    0  0.26903053308E+02 -0.84214820316E+01 -0.19733812440E+02  0.34411030067E+02  0.00000000000E+00 0. -1.
</event>
<event>
 8    1  0.7016814E-009  0.2982680E+03  0.7561462E-02  0.1086110E+00
         -1   -1    0    0    0  501 -0.00000000000E+00  0.00000000000E+00  0.64344515598E+02  0.64344515598E+02  0.00000000000E+00 0.  1.
          1   -1    0    0  501    0  0.00000000000E+00 -0.00000000000E+00 -0.15208726507E+04  0.15208726507E+04  0.00000000000E+00 0. -1.
         25    2    1    2    0    0 -0.56871868654E+02 -0.27622126506E+03 -0.94411629257E+03  0.99324470371E+03  0.12508745276E+03 0.  0.
         23    2    1    2    0    0  0.56871868654E+02  0.27622126506E+03 -0.51241184253E+03  0.59197246259E+03  0.91284737942E+02 0.  0.
          5    1    3    3  502    0 -0.91863310184E+02 -0.17376766699E+03 -0.67768952458E+03  0.70563066399E+03  0.41800000000E+01 0.  1.
         -5    1    3    3    0  502  0.34991441530E+02 -0.10245359807E+03 -0.26642676799E+03  0.28761403971E+03  0.41800000000E+01 0.  1.
        -11    1    4    4    0    0  0.77721892832E+01  0.20464674758E+03 -0.40534948689E+03  0.45414634727E+03  0.00000000000E+00 0. -1.
         11    1    4    4    0    0  0.49099679371E+02  0.71574517481E+02 -0.10706235564E+03  0.13782611531E+03  0.00000000000E+00 0.  1.
</event>
<event>
 8    1  0.7016814E-009  0.8879820E+02  0.7561462E-02  0.1305788E+00
          1   -1    0    0  501    0  0.00000000000E+00  0.00000000000E+00  0.25627083077E+03  0.25627083077E+03  0.00000000000E+00 0. -1.
         -1   -1    0    0    0  501 -0.00000000000E+00 -0.00000000000E+00 -0.53674785901E+02  0.53674785901E+02  0.00000000000E+00 0.  1.
         25    2    1    2    0    0 -0.74731826324E+00 -0.44673007547E+02  0.10721602595E+03  0.17070053860E+03  0.12508861488E+03 0.  0.
         23    2    1    2    0    0  0.74731826324E+00  0.44673007547E+02  0.95380018921E+02  0.13924507807E+03  0.91080226552E+02 0.  0.
          5    1    3    3  502    0 -0.49526102420E+02  0.12328057040E+02  0.70323913317E+02  0.86992764041E+02  0.41800000000E+01 0.  1.
         -5    1    3    3    0  502  0.48778784157E+02 -0.57001064587E+02  0.36892112630E+02  0.83707774562E+02  0.41800000000E+01 0.  1.
        -11    1    4    4    0    0 -0.12008907419E+02  0.25937391428E+02 -0.10888458558E+02  0.30586282240E+02  0.00000000000E+00 0.  1.
         11    1    4    4    0    0  0.12756225683E+02  0.18735616119E+02  0.10626847748E+03  0.10865879583E+03  0.00000000000E+00 0. -1.
</event>
<event>
 8    1  0.7016814E-009  0.1555776E+03  0.7561462E-02  0.1193782E+00
          2   -1    0    0  501    0  0.00000000000E+00  0.00000000000E+00  0.68085263872E+03  0.68085263872E+03  0.00000000000E+00 0. -1.
         -2   -1    0    0    0  501 -0.00000000000E+00 -0.00000000000E+00 -0.40801588144E+02  0.40801588144E+02  0.00000000000E+00 0.  1.
         25    2    1    2    0    0 -0.48240701463E+01 -0.12431097958E+03  0.39350544138E+03  0.43124375682E+03  0.12509258213E+03 0.  0.
         23    2    1    2    0    0  0.48240701463E+01  0.12431097958E+03  0.24654560919E+03  0.29041047004E+03  0.89872200363E+02 0.  0.
          5    1    3    3  502    0 -0.53942347485E+02 -0.65367551825E+02  0.11878599107E+03  0.14598040197E+03  0.41800000000E+01 0.  1.
         -5    1    3    3    0  502  0.49118277339E+02 -0.58943427758E+02  0.27471945031E+03  0.28526335486E+03  0.41800000000E+01 0.  1.
        -11    1    4    4    0    0  0.43896531437E+02  0.66901576253E+02  0.16444221093E+03  0.18287691793E+03  0.00000000000E+00 0. -1.
         11    1    4    4    0    0 -0.39072461291E+02  0.57409403331E+02  0.82103398268E+02  0.10753355211E+03  0.00000000000E+00 0.  1.
</event>
<event>
 8    1  0.7016814E-009  0.1164522E+03  0.7561462E-02  0.1249067E+00
         -2   -1    0    0    0  501 -0.00000000000E+00  0.00000000000E+00  0.68569112003E+02  0.68569112003E+02  0.00000000000E+00 0. -1.
          2   -1    0    0  501    0  0.00000000000E+00 -0.00000000000E+00 -0.21104801728E+03  0.21104801728E+03  0.00000000000E+00 0.  1.
         25    2    1    2    0    0  0.50674687014E+02 -0.42958878195E+01 -0.81556170817E+02  0.15774641679E+03  0.12508454923E+03 0.  0.
         23    2    1    2    0    0 -0.50674687014E+02  0.42958878195E+01 -0.60922734461E+02  0.12187071249E+03  0.92490607267E+02 0.  0.
          5    1    3    3  502    0  0.55144385737E+02 -0.57560202985E+02 -0.60442460114E+02  0.10012414110E+03  0.41800000000E+01 0. -1.
         -5    1    3    3    0  502 -0.44696987231E+01  0.53264315165E+02 -0.21113710703E+02  0.57622275695E+02  0.41800000000E+01 0. -1.
        -11    1    4    4    0    0  0.18478782430E+01 -0.34261821443E+02 -0.25756487038E+01  0.34408153523E+02  0.00000000000E+00 0. -1.
         11    1    4    4    0    0 -0.52522565257E+02  0.38557709263E+02 -0.58347085758E+02  0.87462558968E+02  0.00000000000E+00 0.  1.
</event>
<event>
 8    1  0.7016814E-009  0.6233409E+02  0.7561462E-02  0.1388290E+00
          1   -1    0    0  501    0  0.00000000000E+00  0.00000000000E+00  0.12710692251E+03  0.12710692251E+03  0.00000000000E+00 0. -1.
         -1   -1    0    0    0  501 -0.00000000000E+00 -0.00000000000E+00 -0.96562845134E+02  0.96562845134E+02  0.00000000000E+00 0.  1.
         25    2    1    2    0    0  0.21772794625E+02  0.10151637426E+02  0.16287846797E+02  0.12841326169E+03  0.12509021343E+03 0.  0.
         23    2    1    2    0    0 -0.21772794625E+02 -0.10151637426E+02  0.14256230580E+02  0.95256505956E+02  0.91068389074E+02 0.  0.
          5    1    3    3  502    0 -0.10725069732E+02 -0.27493762093E+02  0.56791529518E+02  0.64138009790E+02  0.41800000000E+01 0.  1.
         -5    1    3    3    0  502  0.32497864357E+02  0.37645399519E+02 -0.40503682721E+02  0.64275251899E+02  0.41800000000E+01 0.  1.
        -11    1    4    4    0    0  0.16200839920E+01  0.12373896177E+02 -0.34492813079E+02  0.36680950545E+02  0.00000000000E+00 0.  1.
         11    1    4    4    0    0 -0.23392878617E+02 -0.22525533603E+02  0.48749043659E+02  0.58575555412E+02  0.00000000000E+00 0. -1.
</event>
<event>
 8    1  0.7016814E-009  0.1646292E+03  0.7561462E-02  0.1183567E+00
         -1   -1    0    0    0  501 -0.00000000000E+00  0.00000000000E+00  0.10415305506E+03  0.10415305506E+03  0.00000000000E+00 0.  1.
          1   -1    0    0  501    0  0.00000000000E+00 -0.00000000000E+00 -0.38385584217E+03  0.38385584217E+03  0.00000000000E+00 0. -1.
         25    2    1    2    0    0 -0.13381026016E+03  0.22914629999E+02 -0.25067679583E+02  0.18629905272E+03  0.12509469410E+03 0.  0.
         23    2    1    2    0    0  0.13381026016E+03 -0.22914629999E+02 -0.25463510753E+03  0.30170984452E+03  0.88088173450E+02 0.  0.
          5    1    3    3  502    0  0.20705841503E+02  0.16114283599E+02 -0.16636812707E+02  0.31347375413E+02  0.41800000000E+01 0.  1.
         -5    1    3    3    0  502 -0.15451610166E+03  0.68003464004E+01 -0.84308668755E+01  0.15495167731E+03  0.41800000000E+01 0.  1.
        -11    1    4    4    0    0  0.13385649510E+03 -0.91130888128E+01 -0.17306155201E+03  0.21897696329E+03  0.00000000000E+00 0.  1.
         11    1    4    4    0    0 -0.46234938038E-01 -0.13801541186E+02 -0.81573555512E+02  0.82732881225E+02  0.00000000000E+00 0. -1.
</event>
<event>
 8    1  0.7016814E-009  0.8047440E+02  0.7561462E-02  0.1327711E+00
         -1   -1    0    0    0  501 -0.00000000000E+00  0.00000000000E+00  0.74117546869E+02  0.74117546869E+02  0.00000000000E+00 0.  1.
          1   -1    0    0  501    0  0.00000000000E+00 -0.00000000000E+00 -0.18828557927E+03  0.18828557927E+03  0.00000000000E+00 0. -1.
         25    2    1    2    0    0  0.31160693970E+02  0.47995417517E+01 -0.10263118000E+03  0.16484804362E+03  0.12509074278E+03 0.  0.
         23    2    1    2    0    0 -0.31160693970E+02 -0.47995417517E+01 -0.11536852405E+02  0.97555082518E+02  0.91596237433E+02 0.  0.
          5    1    3    3  502    0  0.43372561384E+02 -0.14294437786E+02  0.12420564904E+02  0.47510555303E+02  0.41800000000E+01 0. -1.
         -5    1    3    3    0  502 -0.12211867414E+02  0.19093979538E+02 -0.11505174490E+03  0.11733748832E+03  0.41800000000E+01 0. -1.
        -11    1    4    4    0    0 -0.45341899695E+02  0.30065568064E+02 -0.21693577590E+02  0.58569937337E+02  0.00000000000E+00 0. -1.
         11    1    4    4    0    0  0.14181205725E+02 -0.34865109816E+02  0.10156725184E+02  0.38985145181E+02  0.00000000000E+00 0.  1.
</event>
<event>
 8    1  0.7016814E-009  0.1804561E+03  0.7561462E-02  0.1167362E+00
         -1   -1    0    0    0  501 -0.00000000000E+00  0.00000000000E+00  0.11170103346E+03  0.11170103346E+03  0.00000000000E+00 0.  1.
          1   -1    0    0  501    0  0.00000000000E+00 -0.00000000000E+00 -0.44669198025E+03  0.44669198025E+03  0.00000000000E+00 0. -1.
         25    2    1    2    0    0  0.74767581870E+02  0.13386647434E+03 -0.23307818117E+02  0.19925198487E+03  0.12509066647E+03 0.  0.
         23    2    1    2    0    0 -0.74767581870E+02 -0.13386647434E+03 -0.31168312867E+03  0.35914102884E+03  0.91244077320E+02 0.  0.
          5    1    3    3  502    0  0.85242352371E+02  0.15034043873E+03 -0.34616038321E+02  0.17630725641E+03  0.41800000000E+01 0. -1.
         -5    1    3    3    0  502 -0.10474770501E+02 -0.16473964390E+02  0.11308220204E+02  0.22944728456E+02  0.41800000000E+01 0. -1.
        -11    1    4    4    0    0 -0.60140164205E+02 -0.13987712691E+03 -0.30694305519E+03  0.34263171061E+03  0.00000000000E+00 0. -1.
         11    1    4    4    0    0 -0.14627417665E+02  0.60106525658E+01 -0.47400734742E+01  0.16509318228E+02  0.00000000000E+00 0.  1.
</event>
<event>
 8    1  0.7016814E-009  0.1464119E+03  0.7561462E-02  0.1204953E+00
         -1   -1    0    0    0  501 -0.00000000000E+00  0.00000000000E+00  0.29589411518E+02  0.29589411518E+02  0.00000000000E+00 0.  1.
          1   -1    0    0  501    0  0.00000000000E+00 -0.00000000000E+00 -0.88782725010E+03  0.88782725010E+03  0.00000000000E+00 0. -1.
         25    2    1    2    0    0 -0.65610557230E+02  0.95923803073E+02 -0.54048192276E+03  0.56681467747E+03  0.12510814745E+03 0.  0.
         23    2    1    2    0    0  0.65610557230E+02 -0.95923803073E+02 -0.31775591583E+03  0.35060198415E+03  0.91906517870E+02 0.  0.
          5    1    3    3  502    0  0.14708919136E+02  0.50653352593E+02 -0.72130253943E+02  0.89455912968E+02  0.41800000000E+01 0. -1.
         -5    1    3    3    0  502 -0.80319476366E+02  0.45270450480E+02 -0.46835166881E+03  0.47735876451E+03  0.41800000000E+01 0. -1.
        -11    1    4    4    0    0  0.30379327240E+02 -0.10656927457E+03 -0.22492136262E+03  0.25073797712E+03  0.00000000000E+00 0.  1.
         11    1    4    4    0    0  0.35231229990E+02  0.10645471501E+02 -0.92834553210E+02  0.99864007029E+02  0.00000000000E+00 0. -1.
</event>
<event>
 8    1  0.7016814E-009  0.9539386E+02  0.7561462E-02  0.1290291E+00
          1   -1    0    0  501    0  0.00000000000E+00  0.00000000000E+00  0.22075125647E+03  0.22075125647E+03  0.00000000000E+00 0. -1.
         -1   -1    0    0    0  501 -0.00000000000E+00 -0.00000000000E+00 -0.16676458205E+03  0.16676458205E+03  0.00000000000E+00 0.  1.
         25    2    1    2    0    0  0.73506764604E+01  0.94173434214E+02  0.15750310416E+03  0.22221078253E+03  0.12509091052E+03 0.  0.
         23    2    1    2    0    0 -0.73506764604E+01 -0.94173434214E+02 -0.10351642975E+03  0.16530505599E+03  0.87678059696E+02 0.  0.
          5    1    3    3  502    0  0.11513153466E+02  0.47764835487E+02 -0.82381441249E+01  0.49993715909E+02  0.41800000000E+01 0.  1.
         -5    1    3    3    0  502 -0.41624770060E+01  0.46408598727E+02  0.16574124829E+03  0.17221706662E+03  0.41800000000E+01 0.  1.
        -11    1    4    4    0    0  0.99557645721E+00 -0.25072125288E+02  0.13992072246E+02  0.28729440034E+02  0.00000000000E+00 0. -1.
         11    1    4    4    0    0 -0.83462529176E+01 -0.69101308926E+02 -0.11750850199E+03  0.13657561595E+03  0.00000000000E+00 0.  1.
</event>
<event>
 8    1  0.7016814E-009  0.1460593E+03  0.7561462E-02  0.1205401E+00
         -2   -1    0    0    0  501 -0.00000000000E+00  0.00000000000E+00  0.82837375911E+02  0.82837375911E+02  0.00000000000E+00 0. -1.
          2   -1    0    0  501    0  0.00000000000E+00 -0.00000000000E+00 -0.28147654933E+03  0.28147654933E+03  0.00000000000E+00 0.  1.
         25    2    1    2    0    0  0.87864745050E+02 -0.50880318746E+02 -0.14735514845E+03  0.21833489369E+03  0.12509023051E+03 0.  0.
         23    2    1    2    0    0 -0.87864745050E+02  0.50880318746E+02 -0.51284024966E+02  0.14597903155E+03  0.91492109917E+02 0.  0.
          5    1    3    3  502    0  0.71661577414E+01 -0.71909946459E+02 -0.96272285800E+02  0.12045007111E+03  0.41800000000E+01 0.  1.
         -5    1    3    3    0  502  0.80698587309E+02  0.21029627713E+02 -0.51082862650E+02  0.97884822582E+02  0.41800000000E+01 0.  1.
        -11    1    4    4    0    0 -0.80657451774E+02  0.75560949708E+02 -0.36908807670E+02  0.11652185087E+03  0.00000000000E+00 0.  1.
         11    1    4    4    0    0 -0.72072932764E+01 -0.24680630962E+02 -0.14375217295E+02  0.29457180675E+02  0.00000000000E+00 0. -1.
</event>
<event>
 8    1  0.7016814E-009  0.1794601E+03  0.7561462E-02  0.1168327E+00
          1   -1    0    0  501    0  0.00000000000E+00  0.00000000000E+00  0.69791180191E+02  0.69791180191E+02  0.00000000000E+00 0. -1.
         -1   -1    0    0    0  501 -0.00000000000E+00 -0.00000000000E+00 -0.53642928562E+03  0.53642928562E+03  0.00000000000E+00 0.  1.
         25    2    1    2    0    0  0.15433843712E+03  0.74029007039E+01 -0.18124555121E+03  0.26902040564E+03  0.12508746023E+03 0.  0.
         23    2    1    2    0    0 -0.15433843712E+03 -0.74029007039E+01 -0.28539255421E+03  0.33720006017E+03  0.91541326542E+02 0.  0.
          5    1    3    3  502    0  0.22463578810E+02  0.47067638143E+02 -0.17826847615E+02  0.55274260096E+02  0.41800000000E+01 0.  1.
         -5    1    3    3    0  502  0.13187485831E+03 -0.39664737439E+02 -0.16341870360E+03  0.21374614555E+03  0.41800000000E+01 0.  1.
        -11    1    4    4    0    0 -0.12669315986E+03  0.21864164551E+02 -0.25872932957E+03  0.28891186272E+03  0.00000000000E+00 0.  1.
         11    1    4    4    0    0 -0.27645277263E+02 -0.29267065255E+02 -0.26663224648E+02  0.48288197442E+02  0.00000000000E+00 0. -1.
</event>
<event>
 8    1  0.7016814E-009  0.1288170E+03  0.7561462E-02  0.1229222E+00
          1   -1    0    0  501    0  0.00000000000E+00  0.00000000000E+00  0.83508067432E+03  0.83508067432E+03  0.00000000000E+00 0. -1.
         -1   -1    0    0    0  501 -0.00000000000E+00 -0.00000000000E+00 -0.24205763771E+02  0.24205763771E+02  0.00000000000E+00 0.  1.
         25    2    1    2    0    0  0.52025286877E+02 -0.45228799923E+02  0.62068698032E+03  0.63690724720E+03  0.12508492787E+03 0.  0.
         23    2    1    2    0    0 -0.52025286877E+02  0.45228799923E+02  0.19018793023E+03  0.22237919090E+03  0.92351399126E+02 0.  0.
          5    1    3    3  502    0 -0.21888667767E+02 -0.62584395736E+02  0.31177715546E+03  0.31877639096E+03  0.41800000000E+01 0. -1.
         -5    1    3    3    0  502  0.73913954643E+02  0.17355595813E+02  0.30890982486E+03  0.31813085624E+03  0.41800000000E+01 0. -1.
        -11    1    4    4    0    0  0.15333723683E+02 -0.17395105533E+02  0.35010581333E+02  0.41993494541E+02  0.00000000000E+00 0. -1.
         11    1    4    4    0    0 -0.67359010559E+02  0.62623905456E+02  0.15517734890E+03  0.18038569636E+03  0.00000000000E+00 0.  1.
</event>
<event>
 8    1  0.7016814E-009  0.8879373E+02  0.7561462E-02  0.1305799E+00
          1   -1    0    0  501    0  0.00000000000E+00  0.00000000000E+00  0.47298969472E+03  0.47298969472E+03  0.00000000000E+00 0. -1.
         -1   -1    0    0    0  501 -0.00000000000E+00 -0.00000000000E+00 -0.29730538680E+02  0.29730538680E+02  0.00000000000E+00 0.  1.
         25    2    1    2    0    0  0.88236323830E+01  0.50875737370E+02  0.26621449890E+03  0.29862946475E+03  0.12507278142E+03 0.  0.
         23    2    1    2    0    0 -0.88236323830E+01 -0.50875737370E+02  0.17704465714E+03  0.20409076865E+03  0.87418728454E+02 0.  0.
          5    1    3    3  502    0 -0.24287515290E+02  0.19790234498E+02  0.24720600608E+03  0.24921841550E+03  0.41800000000E+01 0. -1.
         -5    1    3    3    0  502  0.33111147673E+02  0.31085502873E+02  0.19008492819E+02  0.49411049253E+02  0.41800000000E+01 0. -1.
        -11    1    4    4    0    0 -0.23661009119E+02  0.18117807572E+02  0.39308734727E+02  0.49328236636E+02  0.00000000000E+00 0.  1.
         11    1    4    4    0    0  0.14837376736E+02 -0.68993544943E+02  0.13773592241E+03  0.15476253201E+03  0.00000000000E+00 0. -1.
</event>
<event>
 8    1  0.7016814E-009  0.1031284E+03  0.7561462E-02  0.1273852E+00
         -4   -1    0    0    0  501 -0.00000000000E+00  0.00000000000E+00  0.45831616334E+02  0.45831616334E+02  0.00000000000E+00 0.  1.
          4   -1    0    0  501    0  0.00000000000E+00 -0.00000000000E+00 -0.35954137291E+03  0.35954137291E+03  0.00000000000E+00 0. -1.
         25    2    1    2    0    0  0.32537729474E+02 -0.55323329786E+02 -0.21488359361E+03  0.25679245535E+03  0.12509209272E+03 0.  0.
         23    2    1    2    0    0 -0.32537729474E+02  0.55323329786E+02 -0.98826162959E+02  0.14858053390E+03  0.90499668008E+02 0.  0.
          5    1    3    3  502    0 -0.30089375178E+02  0.24508480084E+02 -0.61220094768E+02  0.72604466102E+02  0.41800000000E+01 0. -1.
         -5    1    3    3    0  502  0.62627104652E+02 -0.79831809869E+02 -0.15366349885E+03  0.18418798924E+03  0.41800000000E+01 0. -1.
        -11    1    4    4    0    0 -0.18344852866E+02  0.43466204642E+02 -0.11481684400E+03  0.12413199522E+03  0.00000000000E+00 0. -1.
         11    1    4    4    0    0 -0.14192876608E+02  0.11857125144E+02  0.15990681039E+02  0.24448538671E+02  0.00000000000E+00 0.  1.
</event>
<event>
 8    1  0.7016814E-009  0.1066877E+03  0.7561462E-02  0.1266830E+00
          1   -1    0    0  501    0  0.00000000000E+00  0.00000000000E+00  0.19496888567E+03  0.19496888567E+03  0.00000000000E+00 0. -1.
         -1   -1    0    0    0  501 -0.00000000000E+00 -0.00000000000E+00 -0.63110442744E+02  0.63110442744E+02  0.00000000000E+00 0.  1.
         25    2    1    2    0    0  0.16996579931E+02  0.85329518645E+01  0.93449399193E+02  0.15729586975E+03  0.12508998934E+03 0.  0.
         23    2    1    2    0    0 -0.16996579931E+02 -0.85329518645E+01  0.38409043732E+02  0.10078345866E+03  0.91215984909E+02 0.  0.
          5    1    3    3  502    0 -0.36866248508E+02 -0.36399442790E+02  0.60275885733E+02  0.79590794162E+02  0.41800000000E+01 0.  1.
         -5    1    3    3    0  502  0.53862828439E+02  0.44932394654E+02  0.33173513460E+02  0.77705075588E+02  0.41800000000E+01 0.  1.
        -11    1    4    4    0    0 -0.31386763785E+02 -0.43314189933E+02  0.32749397119E+02  0.62719781585E+02  0.00000000000E+00 0. -1.
         11    1    4    4    0    0  0.14390183854E+02  0.34781238069E+02  0.56596466136E+01  0.38063677078E+02  0.00000000000E+00 0.  1.
</event>
<event>
 8    1  0.7016814E-009  0.1074789E+03  0.7561462E-02  0.1265311E+00
          2   -1    0    0  501    0  0.00000000000E+00  0.00000000000E+00  0.16689116982E+03  0.16689116982E+03  0.00000000000E+00 0. -1.
         -2   -1    0    0    0  501 -0.00000000000E+00 -0.00000000000E+00 -0.92340797357E+02  0.92340797357E+02  0.00000000000E+00 0.  1.
         25    2    1    2    0    0  0.29701920502E+02  0.49681480932E+02  0.26501730743E+02  0.14035094397E+03  0.12508234133E+03 0.  0.
         23    2    1    2    0    0 -0.29701920502E+02 -0.49681480932E+02  0.48048641720E+02  0.11888102320E+03  0.92052007463E+02 0.  0.
          5    1    3    3  502    0 -0.15046068148E+02 -0.25694616239E+02 -0.24556150408E+02  0.38821056055E+02  0.41800000000E+01 0.  1.
         -5    1    3    3    0  502  0.44747988650E+02  0.75376097171E+02  0.51057881151E+02  0.10152988792E+03  0.41800000000E+01 0.  1.
        -11    1    4    4    0    0 -0.43526880947E+02  0.20600881955E+01 -0.45528594002E+01  0.43812804716E+02  0.00000000000E+00 0.  1.
         11    1    4    4    0    0  0.13824960444E+02 -0.51741569127E+02  0.52601501120E+02  0.75068218489E+02  0.00000000000E+00 0. -1.
</event>
<event>
 8    1  0.7016814E-009  0.9076111E+02  0.7561462E-02  0.1301019E+00
          1   -1    0    0  501    0  0.00000000000E+00  0.00000000000E+00  0.24232475872E+03  0.24232475872E+03  0.00000000000E+00 0. -1.
         -1   -1    0    0    0  501 -0.00000000000E+00 -0.00000000000E+00 -0.58254982287E+02  0.58254982287E+02  0.00000000000E+00 0.  1.
         25    2    1    2    0    0  0.27183681725E+02 -0.88218631495E+01  0.12684382587E+03  0.18042812134E+03  0.12509265760E+03 0.  0.
         23    2    1    2    0    0 -0.27183681725E+02  0.88218631495E+01  0.57225950561E+02  0.12015161967E+03  0.10170951022E+03 0.  0.
          5    1    3    3  502    0  0.54039371977E+02 -0.27079159958E+02  0.12997730404E+02  0.61967314153E+02  0.41800000000E+01 0. -1.
         -5    1    3    3    0  502 -0.26855690252E+02  0.18257296809E+02  0.11384609547E+03  0.11846080719E+03  0.41800000000E+01 0. -1.
        -11    1    4    4    0    0 -0.57024937994E+02 -0.16920915676E+00  0.23870607502E+01  0.57075128068E+02  0.00000000000E+00 0.  1.
         11    1    4    4    0    0  0.29841256269E+02  0.89910723062E+01  0.54838889810E+02  0.63076491600E+02  0.00000000000E+00 0. -1.
</event>
<event>
 8    1  0.7016814E-009  0.1289338E+03  0.7561462E-02  0.1229046E+00
          2   -1    0    0  501    0  0.00000000000E+00  0.00000000000E+00  0.74004714982E+02  0.74004714982E+02  0.00000000000E+00 0. -1.
         -2   -1    0    0    0  501 -0.00000000000E+00 -0.00000000000E+00 -0.28081789298E+03  0.28081789298E+03  0.00000000000E+00 0.  1.
         25    2    1    2    0    0  0.49319238350E+02 -0.63462289306E+02 -0.17248364375E+03  0.22773005587E+03  0.12510204454E+03 0.  0.
         23    2    1    2    0    0 -0.49319238350E+02  0.63462289306E+02 -0.34329534244E+02  0.12709255209E+03  0.92272154197E+02 0.  0.
          5    1    3    3  502    0  0.65297831074E+02 -0.91297451661E+02 -0.10923281830E+03  0.15667901077E+03  0.41800000000E+01 0. -1.
         -5    1    3    3    0  502 -0.15978592724E+02  0.27835162355E+02 -0.63250825456E+02  0.71051045099E+02  0.41800000000E+01 0. -1.
        -11    1    4    4    0    0 -0.56157927764E+02  0.73341983235E+01 -0.41338166673E+02  0.70116669485E+02  0.00000000000E+00 0.  1.
         11    1    4    4    0    0  0.68386894137E+01  0.56128090982E+02  0.70086324291E+01  0.56975882606E+02  0.00000000000E+00 0. -1.
</event>
<event>
 8    1  0.7016814E-009  0.1523526E+03  0.7561462E-02  0.1197612E+00
         -1   -1    0    0    0  501 -0.00000000000E+00  0.00000000000E+00  0.38785808217E+03  0.38785808217E+03  0.00000000000E+00 0.  1.
          1   -1    0    0  501    0  0.00000000000E+00 -0.00000000000E+00 -0.18098482765E+03  0.18098482765E+03  0.00000000000E+00 0. -1.
         25    2    1    2    0    0 -0.12256749767E+03 -0.20637953362E+02  0.32801496162E+03  0.37241051343E+03  0.12508820435E+03 0.  0.
         23    2    1    2    0    0  0.12256749767E+03  0.20637953362E+02 -0.12114170710E+03  0.19643239639E+03  0.91987262979E+02 0.  0.
          5    1    3    3  502    0 -0.77120126932E+02  0.34680591512E+02  0.26051030720E+03  0.27392216041E+03  0.41800000000E+01 0.  1.
         -5    1    3    3    0  502 -0.45447370733E+02 -0.55318544874E+02  0.67504654420E+02  0.98488353027E+02  0.41800000000E+01 0.  1.
        -11    1    4    4    0    0  0.59908657175E+02 -0.30705847551E+02 -0.83072647381E+02  0.10692502523E+03  0.00000000000E+00 0.  1.
         11    1    4    4    0    0  0.62658840490E+02  0.51343800913E+02 -0.38069059718E+02  0.89507371157E+02  0.00000000000E+00 0. -1.
</event>
<event>
 8    1  0.7016814E-009  0.2292658E+03  0.7561462E-02  0.1127158E+00
         -2   -1    0    0    0  501 -0.00000000000E+00  0.00000000000E+00  0.13877027226E+03  0.13877027226E+03  0.00000000000E+00 0.  1.
          2   -1    0    0  501    0  0.00000000000E+00 -0.00000000000E+00 -0.61329700245E+03  0.61329700245E+03  0.00000000000E+00 0. -1.
         25    2    1    2    0    0  0.10264375100E+03  0.19723371476E+03 -0.44531478993E+02  0.25897206586E+03  0.12508637184E+03 0.  0.
         23    2    1    2    0    0 -0.10264375100E+03 -0.19723371476E+03 -0.42999525120E+03  0.49309520885E+03  0.93862085424E+02 0.  0.
          5    1    3    3  502    0  0.37581048874E+02  0.14738454034E+03  0.21456297632E+02  0.15366321314E+03  0.41800000000E+01 0. -1.
         -5    1    3    3    0  502  0.65062702124E+02  0.49849174422E+02 -0.65987776625E+02  0.10530885272E+03  0.41800000000E+01 0. -1.
        -11    1    4    4    0    0 -0.24834608570E+02 -0.78592410136E+02 -0.77575933536E+02  0.11318811854E+03  0.00000000000E+00 0.  1.
         11    1    4    4    0    0 -0.77809142428E+02 -0.11864130462E+03 -0.35241931766E+03  0.37990709031E+03  0.00000000000E+00 0. -1.
</event>
<event>
 8    1  0.7016814E-009  0.2451821E+03  0.7561462E-02  0.1116388E+00
          2   -1    0    0  501    0  0.00000000000E+00  0.00000000000E+00  0.15718229332E+04  0.15718229332E+04  0.00000000000E+00 0.  1.
         -2   -1    0    0    0  501 -0.00000000000E+00 -0.00000000000E+00 -0.38392647547E+02  0.38392647547E+02  0.00000000000E+00 0. -1.
         25    2    1    2    0    0 -0.19798572458E+02 -0.21887007895E+03  0.79513601664E+03  0.83437661618E+03  0.12508780011E+03 0.  0.
         23    2    1    2    0    0  0.19798572458E+02  0.21887007895E+03  0.73829426902E+03  0.77583896457E+03  0.92474733606E+02 0.  0.
          5    1    3    3  502    0 -0.34768278449E+02 -0.23052172636E+03  0.72279075879E+03  0.75946892820E+03  0.41800000000E+01 0. -1.
         -5    1    3    3    0  502  0.14969705990E+02  0.11651647411E+02  0.72345257847E+02  0.74907687975E+02  0.41800000000E+01 0. -1.
        -11    1    4    4    0    0 -0.18220852714E+02  0.28616330694E+01  0.74451116871E+02  0.76701741967E+02  0.00000000000E+00 0.  1.
         11    1    4    4    0    0  0.38019425172E+02  0.21600844588E+03  0.66384315215E+03  0.69913722261E+03  0.00000000000E+00 0. -1.
</event>
<event>
 8    1  0.7016814E-009  0.1356957E+03  0.7561462E-02  0.1219241E+00
         -4   -1    0    0    0  501 -0.00000000000E+00  0.00000000000E+00  0.63168448964E+02  0.63168448964E+02  0.00000000000E+00 0.  1.
          4   -1    0    0  501    0  0.00000000000E+00 -0.00000000000E+00 -0.44013516509E+03  0.44013516509E+03  0.00000000000E+00 0. -1.
         25    2    1    2    0    0  0.45944329652E+02  0.11276195014E+03 -0.25153420327E+03  0.30617542109E+03  0.12509114373E+03 0.  0.
         23    2    1    2    0    0 -0.45944329652E+02 -0.11276195014E+03 -0.12543251285E+03  0.19712819295E+03  0.91104721890E+02 0.  0.
          5    1    3    3  502    0  0.53936982875E+02  0.11438688809E+03 -0.12021114920E+03  0.17453295127E+03  0.41800000000E+01 0.  1.
         -5    1    3    3    0  502 -0.79926532233E+01 -0.16249379469E+01 -0.13132305408E+03  0.13164246982E+03  0.41800000000E+01 0.  1.
        -11    1    4    4    0    0  0.11649905328E+02 -0.46318363208E+02 -0.50151373215E+01  0.48023563662E+02  0.00000000000E+00 0.  1.
         11    1    4    4    0    0 -0.57594234980E+02 -0.66443586936E+02 -0.12041737553E+03  0.14910462929E+03  0.00000000000E+00 0. -1.
</event>
<event>
 8    1  0.7016814E-009  0.7323841E+02  0.7561462E-02  0.1349415E+00
          1   -1    0    0  501    0  0.00000000000E+00  0.00000000000E+00  0.11873837904E+04  0.11873837904E+04  0.00000000000E+00 0. -1.
         -1   -1    0    0    0  501 -0.00000000000E+00 -0.00000000000E+00 -0.17066659005E+02  0.17066659005E+02  0.00000000000E+00 0.  1.
         25    2    1    2    0    0 -0.52014605198E+02 -0.11846790805E+02  0.95923835382E+03  0.96883020537E+03  0.12509149365E+03 0.  0.
         23    2    1    2    0    0  0.52014605198E+02  0.11846790805E+02  0.21107877753E+03  0.23562024399E+03  0.90093193138E+02 0.  0.
          5    1    3    3  502    0  0.11541251855E+02  0.39451097905E+01  0.73683481463E+03  0.73694761065E+03  0.41800000000E+01 0. -1.
         -5    1    3    3    0  502 -0.63555857053E+02 -0.15791900596E+02  0.22240353919E+03  0.23188259472E+03  0.41800000000E+01 0. -1.
        -11    1    4    4    0    0  0.37914922445E+02  0.27542679395E+02  0.20925992201E+03  0.21444312880E+03  0.00000000000E+00 0. -1.
         11    1    4    4    0    0  0.14099682753E+02 -0.15695888589E+02  0.18188555212E+01  0.21177115190E+02  0.00000000000E+00 0.  1.
</event>
<event>
 8    1  0.7016814E-009  0.1143707E+03  0.7561462E-02  0.1252684E+00
          1   -1    0    0  501    0  0.00000000000E+00  0.00000000000E+00  0.11565401110E+04  0.11565401110E+04  0.00000000000E+00 0. -1.
         -1   -1    0    0    0  501 -0.00000000000E+00 -0.00000000000E+00 -0.20898413614E+02  0.20898413614E+02  0.00000000000E+00 0.  1.
         25    2    1    2    0    0 -0.80646951105E+02 -0.71697214022E+02  0.53056829598E+03  0.55569551433E+03  0.12510142578E+03 0.  0.
         23    2    1    2    0    0  0.80646951105E+02  0.71697214022E+02  0.60507340138E+03  0.62174301025E+03  0.93840974628E+02 0.  0.
          5    1    3    3  502    0 -0.26668460656E+02 -0.37443617178E+02  0.45184951654E+03  0.45420115506E+03  0.41800000000E+01 0.  1.
         -5    1    3    3    0  502 -0.53978490449E+02 -0.34253596844E+02  0.78718779439E+02  0.10149435927E+03  0.41800000000E+01 0.  1.
        -11    1    4    4    0    0 -0.61708994473E+01  0.10904268945E+02  0.70020045199E+01  0.14353088466E+02  0.00000000000E+00 0.  1.
         11    1    4    4    0    0  0.86817850553E+02  0.60792945077E+02  0.59807139686E+03  0.60738992179E+03  0.00000000000E+00 0. -1.
</event>
<event>
 8    1  0.7016814E-009  0.1055428E+03  0.7561462E-02  0.1269054E+00
         -2   -1    0    0    0  501 -0.00000000000E+00  0.00000000000E+00  0.22595887717E+02  0.22595887717E+02  0.00000000000E+00 0.  1.
          2   -1    0    0  501    0  0.00000000000E+00 -0.00000000000E+00 -0.96079129255E+03  0.96079129255E+03  0.00000000000E+00 0. -1.
         25    2    1    2    0    0 -0.42957079288E+02  0.57354129765E+02 -0.74258041145E+03  0.75644273891E+03  0.12508054571E+03 0.  0.
         23    2    1    2    0    0  0.42957079288E+02 -0.57354129765E+02 -0.19561499339E+03  0.22694444136E+03  0.90020814067E+02 0.  0.
          5    1    3    3  502    0 -0.66826351526E+02  0.79930119769E+02 -0.44637079487E+03  0.45838732990E+03  0.41800000000E+01 0. -1.
         -5    1    3    3    0  502  0.23869272238E+02 -0.22575990004E+02 -0.29620961658E+03  0.29805540901E+03  0.41800000000E+01 0. -1.
        -11    1    4    4    0    0  0.23736452029E+02 -0.17630471543E+02 -0.17631866558E+03  0.17878066035E+03  0.00000000000E+00 0. -1.
         11    1    4    4    0    0  0.19220627259E+02 -0.39723658223E+02 -0.19296327805E+02  0.48163781014E+02  0.00000000000E+00 0.  1.
</event>
<event>
 8    1  0.7016814E-009  0.8435640E+02  0.7561462E-02  0.1317124E+00
          2   -1    0    0  501    0  0.00000000000E+00  0.00000000000E+00  0.47289083109E+03  0.47289083109E+03  0.00000000000E+00 0. -1.
         -2   -1    0    0    0  501 -0.00000000000E+00 -0.00000000000E+00 -0.26059851897E+02  0.26059851897E+02  0.00000000000E+00 0.  1.
         25    2    1    2    0    0  0.26502127994E+01  0.29656579716E+01  0.32740676455E+03  0.35050486122E+03  0.12507057812E+03 0.  0.
         23    2    1    2    0    0 -0.26502127994E+01 -0.29656579716E+01  0.11942421464E+03  0.14844582176E+03  0.88080646012E+02 0.  0.
          5    1    3    3  502    0  0.58103492400E+02 -0.93818584833E+01  0.23200082262E+03  0.23938648499E+03  0.41800000000E+01 0.  1.
         -5    1    3    3    0  502 -0.55453279601E+02  0.12347516455E+02  0.95405941926E+02  0.11111837623E+03  0.41800000000E+01 0.  1.
        -11    1    4    4    0    0  0.16869032483E+02  0.17607510742E+02 -0.13161151241E+01  0.24419681621E+02  0.00000000000E+00 0.  1.
         11    1    4    4    0    0 -0.19519245283E+02 -0.20573168713E+02  0.12074032976E+03  0.12402614014E+03  0.00000000000E+00 0. -1.
</event>
<event>
 8    1  0.7016814E-009  0.1535820E+03  0.7561462E-02  0.1196139E+00
          2   -1    0    0  501    0  0.00000000000E+00  0.00000000000E+00  0.11747920438E+04  0.11747920438E+04  0.00000000000E+00 0. -1.
         -2   -1    0    0    0  501 -0.00000000000E+00 -0.00000000000E+00 -0.24742099130E+02  0.24742099130E+02  0.00000000000E+00 0.  1.
         25    2    1    2    0    0 -0.45676347092E+02 -0.11635344695E+03  0.75127316265E+03  0.77180473638E+03  0.12508690132E+03 0.  0.
         23    2    1    2    0    0  0.45676347092E+02  0.11635344695E+03  0.39877678198E+03  0.42772940651E+03  0.91132157032E+02 0.  0.
          5    1    3    3  502    0 -0.64354765722E+02 -0.11669750611E+03  0.73402771891E+03  0.74603887856E+03  0.41800000000E+01 0. -1.
         -5    1    3    3    0  502  0.18678418630E+02  0.34405915742E+00  0.17245443742E+02  0.25765857817E+02  0.41800000000E+01 0. -1.
        -11    1    4    4    0    0  0.72403040796E+02  0.67422024586E+02  0.25630343824E+03  0.27473511273E+03  0.00000000000E+00 0. -1.
         11    1    4    4    0    0 -0.26726693704E+02  0.48931422363E+02  0.14247334374E+03  0.15299429377E+03  0.00000000000E+00 0.  1.
</event>
<event>
 8    1  0.7016814E-009  0.1367770E+03  0.7561462E-02  0.1217733E+00
          1   -1    0    0  501    0  0.00000000000E+00  0.00000000000E+00  0.13876258134E+03  0.13876258134E+03  0.00000000000E+00 0. -1.
         -1   -1    0    0    0  501 -0.00000000000E+00 -0.00000000000E+00 -0.14461407597E+03  0.14461407597E+03  0.00000000000E+00 0.  1.
         25    2    1    2    0    0 -0.91042372802E+02  0.40169853901E+00 -0.59833182201E+01  0.15482706478E+03  0.12508694929E+03 0.  0.
         23    2    1    2    0    0  0.91042372802E+02 -0.40169853901E+00  0.13182358988E+00  0.12854959254E+03  0.90752990902E+02 0.  0.
          5    1    3    3  502    0 -0.69891196761E+02  0.56233820407E+02 -0.22814112997E+02  0.92655156867E+02  0.41800000000E+01 0.  1.
         -5    1    3    3    0  502 -0.21151176042E+02 -0.55832121868E+02  0.16830794777E+02  0.62171907910E+02  0.41800000000E+01 0.  1.
        -11    1    4    4    0    0  0.76208120388E+02 -0.36776414715E+02  0.16115980753E+02  0.86138882788E+02  0.00000000000E+00 0.  1.
         11    1    4    4    0    0  0.14834252415E+02  0.36374716176E+02 -0.15984157163E+02  0.42410709753E+02  0.00000000000E+00 0. -1.
</event>
<event>
 8    1  0.7016814E-009  0.1100967E+03  0.7561462E-02  0.1260391E+00
          2   -1    0    0  501    0  0.00000000000E+00  0.00000000000E+00  0.60617070580E+03  0.60617070580E+03  0.00000000000E+00 0. -1.
         -2   -1    0    0    0  501 -0.00000000000E+00 -0.00000000000E+00 -0.40470854954E+02  0.40470854954E+02  0.00000000000E+00 0.  1.
         25    2    1    2    0    0 -0.86378913637E+02 -0.57879889617E+02  0.39584240363E+03  0.42796019979E+03  0.12508927112E+03 0.  0.
         23    2    1    2    0    0  0.86378913637E+02  0.57879889617E+02  0.16985744721E+03  0.21868136096E+03  0.90324896433E+02 0.  0.
          5    1    3    3  502    0 -0.68076680854E+01 -0.31022979424E+02  0.10743903836E+02  0.33788658848E+02  0.41800000000E+01 0.  1.
         -5    1    3    3    0  502 -0.79571245551E+02 -0.26856910193E+02  0.38509849980E+03  0.39417154094E+03  0.41800000000E+01 0.  1.
        -11    1    4    4    0    0  0.37193249831E+02  0.27584298771E+02  0.15095900523E+03  0.15790140162E+03  0.00000000000E+00 0. -1.
         11    1    4    4    0    0  0.49185663806E+02  0.30295590846E+02  0.18898441979E+02  0.60779959345E+02  0.00000000000E+00 0.  1.
</event>
<event>
 8    1  0.7016814E-009  0.1184063E+03  0.7561462E-02  0.1245750E+00
          1   -1    0    0  501    0  0.00000000000E+00  0.00000000000E+00  0.33030661183E+03  0.33030661183E+03  0.00000000000E+00 0. -1.
         -1   -1    0    0    0  501 -0.00000000000E+00 -0.00000000000E+00 -0.82972600794E+02  0.82972600794E+02  0.00000000000E+00 0.  1.
         25    2    1    2    0    0  0.58242764670E+02 -0.41138162565E+02  0.46757986519E+01  0.14405481935E+03  0.12508141281E+03 0.  0.
         23    2    1    2    0    0 -0.58242764670E+02  0.41138162565E+02  0.24265821238E+03  0.26922439327E+03  0.92272411039E+02 0.  0.
          5    1    3    3  502    0  0.34579371446E+02 -0.76158966307E+02 -0.30275423216E+02  0.89050517850E+02  0.41800000000E+01 0. -1.
         -5    1    3    3    0  502  0.23663393225E+02  0.35020803742E+02  0.34951221868E+02  0.55004301502E+02  0.41800000000E+01 0. -1.
        -11    1    4    4    0    0  0.14668827924E+01  0.50182257812E+02  0.15380358459E+03  0.16178984324E+03  0.00000000000E+00 0. -1.
         11    1    4    4    0    0 -0.59709647463E+02 -0.90440952475E+01  0.88854627791E+02  0.10743455002E+03  0.00000000000E+00 0.  1.
</event>
<event>
 8    1  0.7016814E-009  0.1045632E+03  0.7561462E-02  0.1270983E+00
         -2   -1    0    0    0  501 -0.00000000000E+00  0.00000000000E+00  0.16632527112E+03  0.16632527112E+03  0.00000000000E+00 0.  1.
          2   -1    0    0  501    0  0.00000000000E+00 -0.00000000000E+00 -0.82833431209E+02  0.82833431209E+02  0.00000000000E+00 0. -1.
         25    2    1    2    0    0 -0.23325006314E+02  0.37499444791E+02  0.62759019263E+02  0.14675278239E+03  0.12508964930E+03 0.  0.
         23    2    1    2    0    0  0.23325006314E+02 -0.37499444791E+02  0.20732820644E+02  0.10240591993E+03  0.90038093641E+02 0.  0.
          5    1    3    3  502    0 -0.15584809716E+02 -0.34607708692E+02  0.63512307767E+02  0.74107121336E+02  0.41800000000E+01 0. -1.
         -5    1    3    3    0  502 -0.77401965979E+01  0.72107153482E+02 -0.75328850455E+00  0.72645661056E+02  0.41800000000E+01 0. -1.
        -11    1    4    4    0    0  0.18763019267E+02 -0.66421357015E+02  0.50857858401E+01  0.69207750847E+02  0.00000000000E+00 0.  1.
         11    1    4    4    0    0  0.45619870465E+01  0.28921912224E+02  0.15647034804E+02  0.33198169087E+02  0.00000000000E+00 0. -1.
</event>
<event>
 8    1  0.7016814E-009  0.1041769E+03  0.7561462E-02  0.1271750E+00
          2   -1    0    0  501    0  0.00000000000E+00  0.00000000000E+00  0.35508202495E+03  0.35508202495E+03  0.00000000000E+00 0. -1.
         -2   -1    0    0    0  501 -0.00000000000E+00 -0.00000000000E+00 -0.45335430144E+02  0.45335430144E+02  0.00000000000E+00 0.  1.
         25    2    1    2    0    0 -0.54023830325E+02 -0.22144147330E+02  0.22921239404E+03  0.26757195741E+03  0.12508994086E+03 0.  0.
         23    2    1    2    0    0  0.54023830325E+02  0.22144147330E+02  0.80534200766E+02  0.13284549769E+03  0.88052434715E+02 0.  0.
          5    1    3    3  502    0 -0.15084472421E+02 -0.53876389595E+02  0.33219647418E+02  0.65201411323E+02  0.41800000000E+01 0.  1.
         -5    1    3    3    0  502 -0.38939357904E+02  0.31732242264E+02  0.19599274663E+03  0.20237054609E+03  0.41800000000E+01 0.  1.
        -11    1    4    4    0    0 -0.16786726987E+02  0.25978362171E+02  0.41932258524E+02  0.52105506513E+02  0.00000000000E+00 0. -1.
         11    1    4    4    0    0  0.70810557312E+02 -0.38342148407E+01  0.38601942242E+02  0.80739991176E+02  0.00000000000E+00 0.  1.
</event>
<event>
 8    1  0.7016814E-009  0.1349355E+03  0.7561462E-02  0.1220311E+00
          1   -1    0    0  501    0  0.00000000000E+00  0.00000000000E+00  0.16252289323E+03  0.16252289323E+03  0.00000000000E+00 0. -1.
         -1   -1    0    0    0  501 -0.00000000000E+00 -0.00000000000E+00 -0.15207337044E+03  0.15207337044E+03  0.00000000000E+00 0.  1.
         25    2    1    2    0    0 -0.95806282187E+02 -0.45176145883E+02  0.46451883925E+02  0.17036940927E+03  0.12509288642E+03 0.  0.
         23    2    1    2    0    0  0.95806282187E+02  0.45176145883E+02 -0.36002361143E+02  0.14422685440E+03  0.91024654122E+02 0.  0.
          5    1    3    3  502    0  0.21734914693E+02  0.19649176349E+02  0.73544728162E+01  0.30496841120E+02  0.41800000000E+01 0.  1.
         -5    1    3    3    0  502 -0.11754119688E+03 -0.64825322231E+02  0.39097411109E+02  0.13987256815E+03  0.41800000000E+01 0.  1.
        -11    1    4    4    0    0  0.78828513773E+02  0.38579807224E+02  0.15926444008E+02  0.89196343691E+02  0.00000000000E+00 0. -1.
         11    1    4    4    0    0  0.16977768414E+02  0.65963386585E+01 -0.51928805152E+02  0.55030510705E+02  0.00000000000E+00 0.  1.
</event>
<event>
 8    1  0.7016814E-009  0.9171449E+02  0.7561462E-02  0.1298752E+00
         -2   -1    0    0    0  501 -0.00000000000E+00  0.00000000000E+00  0.22009950482E+02  0.22009950482E+02  0.00000000000E+00 0.  1.
          2   -1    0    0  501    0  0.00000000000E+00 -0.00000000000E+00 -0.84622879285E+03  0.84622879285E+03  0.00000000000E+00 0. -1.
         25    2    1    2    0    0 -0.39048371924E+02 -0.72760218604E+02 -0.41476324270E+03  0.44101506513E+03  0.12508763093E+03 0.  0.
         23    2    1    2    0    0  0.39048371924E+02  0.72760218604E+02 -0.40945559967E+03  0.42722367821E+03  0.89707069725E+02 0.  0.
          5    1    3    3  502    0 -0.60050312244E+01 -0.38302846363E+02 -0.37954413687E+03  0.38154212437E+03  0.41800000000E+01 0. -1.
         -5    1    3    3    0  502 -0.33043340700E+02 -0.34457372241E+02 -0.35219105833E+02  0.59472940755E+02  0.41800000000E+01 0. -1.
        -11    1    4    4    0    0  0.21764857862E+02  0.75886749385E+02 -0.39910180563E+03  0.40683505138E+03  0.00000000000E+00 0. -1.
         11    1    4    4    0    0  0.17283514063E+02 -0.31265307801E+01 -0.10353794039E+02  0.20388626831E+02  0.00000000000E+00 0.  1.
</event>
<event>
 8    1  0.7016814E-009  0.1611646E+03  0.7561462E-02  0.1187388E+00
          3   -1    0    0  501    0  0.00000000000E+00  0.00000000000E+00  0.24800103882E+03  0.24800103882E+03  0.00000000000E+00 0. -1.
         -3   -1    0    0    0  501 -0.00000000000E+00 -0.00000000000E+00 -0.10565638408E+03  0.10565638408E+03  0.00000000000E+00 0.  1.
         25    2    1    2    0    0  0.39662459495E+01 -0.11947749500E+03  0.77317931919E+02  0.18951585985E+03  0.12509034982E+03 0.  0.
         23    2    1    2    0    0 -0.39662459495E+01  0.11947749500E+03  0.65026722825E+02  0.16414156306E+03  0.91778947060E+02 0.  0.
          5    1    3    3  502    0 -0.57452583625E+02 -0.83919271768E+02  0.49348805238E+02  0.11311949663E+03  0.41800000000E+01 0. -1.
         -5    1    3    3    0  502  0.61418829574E+02 -0.35558223230E+02  0.27969126681E+02  0.76396363217E+02  0.41800000000E+01 0. -1.
        -11    1    4    4    0    0 -0.44824647042E+02  0.39967211971E+02  0.15839818746E+02  0.62108991886E+02  0.00000000000E+00 0. -1.
         11    1    4    4    0    0  0.40858401093E+02  0.79510283028E+02  0.49186904079E+02  0.10203257117E+03  0.00000000000E+00 0.  1.
</event>
<event>
 8    1  0.7016814E-009  0.8965663E+02  0.7561462E-02  0.1303685E+00
          1   -1    0    0  501    0  0.00000000000E+00  0.00000000000E+00  0.86686411957E+02  0.86686411957E+02  0.00000000000E+00 0. -1.
         -1   -1    0    0    0  501 -0.00000000000E+00 -0.00000000000E+00 -0.18816949979E+03  0.18816949979E+03  0.00000000000E+00 0.  1.
         25    2    1    2    0    0  0.72118872517E+01  0.65466447207E+02 -0.47912597839E+02  0.14926907326E+03  0.12509105552E+03 0.  0.
         23    2    1    2    0    0 -0.72118872517E+01 -0.65466447207E+02 -0.53570489989E+02  0.12558683848E+03  0.92543987245E+02 0.  0.
          5    1    3    3  502    0  0.22528627684E+02 -0.12193768138E+02  0.28932034596E+02  0.38868522902E+02  0.41800000000E+01 0.  1.
         -5    1    3    3    0  502 -0.15316740432E+02  0.77660215345E+02 -0.76844632434E+02  0.11040055036E+03  0.41800000000E+01 0.  1.
        -11    1    4    4    0    0 -0.20915729377E+02 -0.37162849778E+02 -0.75871925344E+02  0.87035017058E+02  0.00000000000E+00 0.  1.
         11    1    4    4    0    0  0.13703842125E+02 -0.28303597429E+02  0.22301435354E+02  0.38551821426E+02  0.00000000000E+00 0. -1.
</event>
<event>
 8    1  0.7016814E-009  0.9231351E+02  0.7561462E-02  0.1297344E+00
         -1   -1    0    0    0  501 -0.00000000000E+00  0.00000000000E+00  0.31064711017E+03  0.31064711017E+03  0.00000000000E+00 0.  1.
          1   -1    0    0  501    0  0.00000000000E+00 -0.00000000000E+00 -0.39663655366E+02  0.39663655366E+02  0.00000000000E+00 0. -1.
         25    2    1    2    0    0 -0.21041960229E+01  0.23390995760E+02  0.16650978769E+03  0.20957890716E+03  0.12508494157E+03 0.  0.
         23    2    1    2    0    0  0.21041960229E+01 -0.23390995760E+02  0.10447366711E+03  0.14073185837E+03  0.91318905581E+02 0.  0.
          5    1    3    3  502    0  0.57825775003E+02  0.32337140146E+02  0.91982919471E+02  0.11343650542E+03  0.41800000000E+01 0. -1.
         -5    1    3    3    0  502 -0.59929971026E+02 -0.89461443859E+01  0.74526868220E+02  0.96142401745E+02  0.41800000000E+01 0. -1.
        -11    1    4    4    0    0  0.64045119515E+01  0.16335087469E+02 -0.95029115015E+01  0.19953901447E+02  0.00000000000E+00 0. -1.
         11    1    4    4    0    0 -0.43003159286E+01 -0.39726083229E+02  0.11397657861E+03  0.12077795692E+03  0.00000000000E+00 0.  1.
</event>
<event>
 8    1  0.7016814E-009  0.1857827E+03  0.7561462E-02  0.1162321E+00
          2   -1    0    0  501    0  0.00000000000E+00  0.00000000000E+00  0.12200413759E+04  0.12200413759E+04  0.00000000000E+00 0. -1.
         -2   -1    0    0    0  501 -0.00000000000E+00 -0.00000000000E+00 -0.35143747447E+02  0.35143747447E+02  0.00000000000E+00 0.  1.
         25    2    1    2    0    0 -0.15038321992E+03 -0.83604224615E+02  0.50707230737E+03  0.54988958768E+03  0.12510577334E+03 0.  0.
         23    2    1    2    0    0  0.15038321992E+03  0.83604224615E+02  0.67782532107E+03  0.70529553566E+03  0.91596110903E+02 0.  0.
          5    1    3    3  502    0 -0.15837879190E+03 -0.66367223445E+02  0.50081276987E+03  0.52945193638E+03  0.41800000000E+01 0.  1.
         -5    1    3    3    0  502  0.79955719804E+01 -0.17237001170E+02  0.62595374986E+01  0.20437651292E+02  0.41800000000E+01 0.  1.
        -11    1    4    4    0    0  0.35448702362E+02  0.48669065743E+02  0.11516644606E+03  0.12995614167E+03  0.00000000000E+00 0.  1.
         11    1    4    4    0    0  0.11493451756E+03  0.34935158872E+02  0.56265887501E+03  0.57533939399E+03  0.00000000000E+00 0. -1.
</event>
<event>
 8    1  0.7016814E-009  0.9952781E+02  0.7561462E-02  0.1281292E+00
          1   -1    0    0  501    0  0.00000000000E+00  0.00000000000E+00  0.29805693229E+03  0.29805693229E+03  0.00000000000E+00 0. -1.
         -1   -1    0    0    0  501 -0.00000000000E+00 -0.00000000000E+00 -0.42831003145E+02  0.42831003145E+02  0.00000000000E+00 0.  1.
         25    2    1    2    0    0 -0.30444598669E+02 -0.80024252101E+01  0.14902820427E+03  0.19709670142E+03  0.12508713622E+03 0.  0.
         23    2    1    2    0    0  0.30444598669E+02  0.80024252101E+01  0.10619772488E+03  0.14379123401E+03  0.91689965709E+02 0.  0.
          5    1    3    3  502    0 -0.13944678174E+02 -0.54244265260E+02  0.21082319047E+02  0.59990257037E+02  0.41800000000E+01 0. -1.
         -5    1    3    3    0  502 -0.16499920495E+02  0.46241840050E+02  0.12794588522E+03  0.13710644439E+03  0.41800000000E+01 0. -1.
        -11    1    4    4    0    0  0.55614165524E+02 -0.16985240194E+02  0.46943838345E+02  0.74733912984E+02  0.00000000000E+00 0. -1.
         11    1    4    4    0    0 -0.25169566855E+02  0.24987665404E+02  0.59253886535E+02  0.69057321027E+02  0.00000000000E+00 0.  1.
</event>
<event>
 8    1  0.7016814E-009  0.7698441E+02  0.7561462E-02  0.1337834E+00
          2   -1    0    0  501    0  0.00000000000E+00  0.00000000000E+00  0.52181949156E+03  0.52181949156E+03  0.00000000000E+00 0. -1.
         -2   -1    0    0    0  501 -0.00000000000E+00 -0.00000000000E+00 -0.33789809010E+02  0.33789809010E+02  0.00000000000E+00 0.  1.
         25    2    1    2    0    0 -0.36254669672E+02 -0.25131263085E+02  0.39549868956E+03  0.41714683965E+03  0.12508513475E+03 0.  0.
         23    2    1    2    0    0  0.36254669672E+02  0.25131263085E+02  0.92530992992E+02  0.13846246091E+03  0.93080003013E+02 0.  0.
          5    1    3    3  502    0 -0.27376260707E+02  0.51336671844E+01  0.38124468804E+03  0.38228366267E+03  0.41800000000E+01 0.  1.
         -5    1    3    3    0  502 -0.88784089653E+01 -0.30264930269E+02  0.14254001518E+02  0.34863176981E+02  0.41800000000E+01 0.  1.
        -11    1    4    4    0    0  0.61440937751E+02  0.29937717063E+02  0.89545634014E+02  0.11264846340E+03  0.00000000000E+00 0. -1.
         11    1    4    4    0    0 -0.25186268079E+02 -0.48064539774E+01  0.29853589780E+01  0.25813997517E+02  0.00000000000E+00 0.  1.
</event>
<event>
 8    1  0.7016814E-009  0.7772887E+02  0.7561462E-02  0.1335623E+00
          1   -1    0    0  501    0  0.00000000000E+00  0.00000000000E+00  0.32879210730E+03  0.32879210730E+03  0.00000000000E+00 0. -1.
         -1   -1    0    0    0  501 -0.00000000000E+00 -0.00000000000E+00 -0.55400933574E+02  0.55400933574E+02  0.00000000000E+00 0.  1.
         25    2    1    2    0    0  0.52998324165E+02 -0.27920894930E+02  0.72307984738E+02  0.15640967973E+03  0.12508854671E+03 0.  0.
         23    2    1    2    0    0 -0.52998324165E+02  0.27920894930E+02  0.20108318899E+03  0.22778336115E+03  0.88670242934E+02 0.  0.
          5    1    3    3  502    0  0.10752686856E+02 -0.47279466490E+02  0.93313448363E+02  0.10524181807E+03  0.41800000000E+01 0. -1.
         -5    1    3    3    0  502  0.42245637309E+02  0.19358571560E+02 -0.21005463625E+02  0.51167861657E+02  0.41800000000E+01 0. -1.
        -11    1    4    4    0    0 -0.42369587659E+02  0.24623860689E+02  0.20864901339E+03  0.21432668350E+03  0.00000000000E+00 0. -1.
         11    1    4    4    0    0 -0.10628736506E+02  0.32970342417E+01 -0.75658243934E+01  0.13456677646E+02  0.00000000000E+00 0.  1.
</event>
<event>
 8    1  0.7016814E-009  0.9309380E+02  0.7561462E-02  0.1295528E+00
         -1   -1    0    0    0  501 -0.00000000000E+00  0.00000000000E+00  0.11850933671E+03  0.11850933671E+03  0.00000000000E+00 0.  1.
          1   -1    0    0  501    0  0.00000000000E+00 -0.00000000000E+00 -0.11099585314E+03  0.11099585314E+03  0.00000000000E+00 0. -1.
         25    2    1    2    0    0 -0.47403995109E+01  0.11169990656E+01 -0.35112419034E+02  0.13002194873E+03  0.12509638726E+03 0.  0.
         23    2    1    2    0    0  0.47403995109E+01 -0.11169990656E+01  0.42625902597E+02  0.99483241123E+02  0.89756496243E+02 0.  0.
          5    1    3    3  502    0 -0.52641701808E+02 -0.28384949769E+02 -0.41985509017E+02  0.73192277667E+02  0.41800000000E+01 0. -1.
         -5    1    3    3    0  502  0.47901302297E+02  0.29501948835E+02  0.68730899831E+01  0.56829671059E+02  0.41800000000E+01 0. -1.
        -11    1    4    4    0    0  0.14417274942E+02  0.32118961686E+02  0.52747713352E+02  0.63417716613E+02  0.00000000000E+00 0.  1.
         11    1    4    4    0    0 -0.96768754309E+01 -0.33235960752E+02 -0.10121810756E+02  0.36065524510E+02  0.00000000000E+00 0. -1.
</event>
<event>
 8    1  0.7016814E-009  0.6781787E+02  0.7561462E-02  0.1367675E+00
         -1   -1    0    0    0  501 -0.00000000000E+00  0.00000000000E+00  0.10034781266E+03  0.10034781266E+03  0.00000000000E+00 0.  1.
          1   -1    0    0  501    0  0.00000000000E+00 -0.00000000000E+00 -0.12825035152E+03  0.12825035152E+03  0.00000000000E+00 0. -1.
         25    2    1    2    0    0 -0.27464861160E+02  0.17574002384E+02 -0.12255425533E+02  0.12985014099E+03  0.12509076505E+03 0.  0.
         23    2    1    2    0    0  0.27464861160E+02 -0.17574002384E+02 -0.15647113331E+02  0.98748023196E+02  0.91886755146E+02 0.  0.
          5    1    3    3  502    0 -0.54317266451E+02  0.13986222079E+02  0.41237878122E+02  0.69742489450E+02  0.41800000000E+01 0.  1.
         -5    1    3    3    0  502  0.26852405290E+02  0.35877803053E+01 -0.53493303655E+02  0.60107651537E+02  0.41800000000E+01 0.  1.
        -11    1    4    4    0    0  0.37705815506E+02 -0.17888018121E+02  0.30363407585E+02  0.51610524464E+02  0.00000000000E+00 0.  1.
         11    1    4    4    0    0 -0.10240954346E+02  0.31401573708E+00 -0.46010520916E+02  0.47137498732E+02  0.00000000000E+00 0. -1.
</event>
<event>
 8    1  0.7016814E-009  0.8666737E+02  0.7561462E-02  0.1311129E+00
          2   -1    0    0  501    0  0.00000000000E+00  0.00000000000E+00  0.87442324694E+02  0.87442324694E+02  0.00000000000E+00 0. -1.
         -2   -1    0    0    0  501 -0.00000000000E+00 -0.00000000000E+00 -0.26807886701E+03  0.26807886701E+03  0.00000000000E+00 0.  1.
         25    2    1    2    0    0 -0.62323363038E+02  0.17990516082E+01 -0.19557560056E+03  0.24038493553E+03  0.12509062128E+03 0.  0.
         23    2    1    2    0    0  0.62323363038E+02 -0.17990516082E+01  0.14939058241E+02  0.11513625617E+03  0.95633382544E+02 0.  0.
          5    1    3    3  502    0 -0.42613662581E+02  0.11821653411E+02 -0.91666684028E+00  0.44429589308E+02  0.41800000000E+01 0.  1.
         -5    1    3    3    0  502 -0.19709700457E+02 -0.10022601803E+02 -0.19465893372E+03  0.19595534623E+03  0.41800000000E+01 0.  1.
        -11    1    4    4    0    0  0.82974011594E+02  0.83655264805E+01  0.28848127634E+02  0.88243317601E+02  0.00000000000E+00 0.  1.
         11    1    4    4    0    0 -0.20650648556E+02 -0.10164578089E+02 -0.13909069393E+02  0.26892938569E+02  0.00000000000E+00 0. -1.
</event>
<event>
 8    1  0.7016814E-009  0.7705895E+02  0.7561462E-02  0.1337611E+00
         -2   -1    0    0    0  501 -0.00000000000E+00  0.00000000000E+00  0.59118225147E+02  0.59118225147E+02  0.00000000000E+00 0.  1.
          2   -1    0    0  501    0  0.00000000000E+00 -0.00000000000E+00 -0.45983035596E+03  0.45983035596E+03  0.00000000000E+00 0. -1.
         25    2    1    2    0    0  0.30289033297E+02  0.38405814765E+02 -0.34754042255E+02  0.13873594660E+03  0.12508951706E+03 0.  0.
         23    2    1    2    0    0 -0.30289033297E+02 -0.38405814765E+02 -0.36595808856E+03  0.38021263451E+03  0.90795884892E+02 0.  0.
          5    1    3    3  502    0  0.24306943596E+02  0.35302984092E+02 -0.81041972149E+02  0.91773644597E+02  0.41800000000E+01 0.  1.
         -5    1    3    3    0  502  0.59820897009E+01  0.31028306726E+01  0.46287929894E+02  0.46962302001E+02  0.41800000000E+01 0.  1.
        -11    1    4    4    0    0  0.73346161520E+00 -0.63326280635E+02 -0.22728337893E+03  0.23594170917E+03  0.00000000000E+00 0.  1.
         11    1    4    4    0    0 -0.31022494912E+02  0.24920465870E+02 -0.13867470962E+03  0.14427092534E+03  0.00000000000E+00 0. -1.
</event>
<event>
 8    1  0.7016814E-009  0.1446449E+03  0.7561462E-02  0.1207212E+00
          2   -1    0    0  501    0  0.00000000000E+00  0.00000000000E+00  0.42524837489E+03  0.42524837489E+03  0.00000000000E+00 0. -1.
         -2   -1    0    0    0  501 -0.00000000000E+00 -0.00000000000E+00 -0.60889046387E+02  0.60889046387E+02  0.00000000000E+00 0.  1.
         25    2    1    2    0    0  0.96043901674E+02  0.63037802424E+02  0.15794933407E+03  0.23193391208E+03  0.12508857605E+03 0.  0.
         23    2    1    2    0    0 -0.96043901674E+02 -0.63037802424E+02  0.20640999443E+03  0.25420350919E+03  0.93894316653E+02 0.  0.
          5    1    3    3  502    0 -0.38400766801E+01 -0.31319776005E+02  0.37248300634E+02  0.48995743265E+02  0.41800000000E+01 0.  1.
         -5    1    3    3    0  502  0.99883978354E+02  0.94357578429E+02  0.12070103343E+03  0.18293816882E+03  0.41800000000E+01 0.  1.
        -11    1    4    4    0    0 -0.64676577980E+02 -0.21952588001E+02  0.18683984307E+03  0.19893240766E+03  0.00000000000E+00 0.  1.
         11    1    4    4    0    0 -0.31367323693E+02 -0.41085214423E+02  0.19570151362E+02  0.55271101529E+02  0.00000000000E+00 0. -1.
</event>
<event>
 8    1  0.7016814E-009  0.8886426E+02  0.7561462E-02  0.1305626E+00
         -2   -1    0    0    0  501 -0.00000000000E+00  0.00000000000E+00  0.17344140596E+03  0.17344140596E+03  0.00000000000E+00 0.  1.
          2   -1    0    0  501    0  0.00000000000E+00 -0.00000000000E+00 -0.82046497609E+02  0.82046497609E+02  0.00000000000E+00 0. -1.
         25    2    1    2    0    0 -0.46723573308E+02 -0.60859127383E+01  0.71674467829E+02  0.15167115683E+03  0.12508708902E+03 0.  0.
         23    2    1    2    0    0  0.46723573308E+02  0.60859127383E+01  0.19720440520E+02  0.10381674674E+03  0.90381914630E+02 0.  0.
          5    1    3    3  502    0 -0.10172187374E+01 -0.59712526381E+02  0.16555729472E+02  0.62114290780E+02  0.41800000000E+01 0.  1.
         -5    1    3    3    0  502 -0.45706354571E+02  0.53626613643E+02  0.55118738357E+02  0.89556866052E+02  0.41800000000E+01 0.  1.
        -11    1    4    4    0    0  0.34792623016E+02  0.28264973541E+01 -0.33977223058E+02  0.48713113125E+02  0.00000000000E+00 0. -1.
         11    1    4    4    0    0  0.11930950292E+02  0.32594153842E+01  0.53697663578E+02  0.55103633612E+02  0.00000000000E+00 0.  1.
</event>
<event>
 8    1  0.7016814E-009  0.9549034E+02  0.7561462E-02  0.1290076E+00
          2   -1    0    0  501    0  0.00000000000E+00  0.00000000000E+00  0.26383140483E+03  0.26383140483E+03  0.00000000000E+00 0. -1.
         -2   -1    0    0    0  501 -0.00000000000E+00 -0.00000000000E+00 -0.58574897806E+02  0.58574897806E+02  0.00000000000E+00 0.  1.
         25    2    1    2    0    0  0.64421706787E+02  0.14134254009E+02  0.10361307454E+03  0.17531268035E+03  0.12509569631E+03 0.  0.
         23    2    1    2    0    0 -0.64421706787E+02 -0.14134254009E+02  0.10164343248E+03  0.14709362228E+03  0.83397919077E+02 0.  0.
          5    1    3    3  502    0  0.69592976668E+02 -0.10929404643E+02  0.12376601073E+03  0.14247151329E+03  0.41800000000E+01 0.  1.
         -5    1    3    3    0  502 -0.51712698815E+01  0.25063658652E+02 -0.20152936189E+02  0.32841167066E+02  0.41800000000E+01 0.  1.
        -11    1    4    4    0    0  0.32809354981E+01  0.18875730108E+02 -0.16777614541E+01  0.19232072388E+02  0.00000000000E+00 0.  1.
         11    1    4    4    0    0 -0.67702642285E+02 -0.33009984117E+02  0.10332119394E+03  0.12786154989E+03  0.00000000000E+00 0. -1.
</event>
<event>
 8    1  0.7016814E-009  0.1203877E+03  0.7561462E-02  0.1242459E+00
          1   -1    0    0  501    0  0.00000000000E+00  0.00000000000E+00  0.49718491849E+03  0.49718491849E+03  0.00000000000E+00 0.  1.
         -1   -1    0    0    0  501 -0.00000000000E+00 -0.00000000000E+00 -0.41431125214E+02  0.41431125214E+02  0.00000000000E+00 0. -1.
         25    2    1    2    0    0 -0.22829185114E+02  0.73072114319E+02  0.14660096762E+03  0.20736496722E+03  0.12509068847E+03 0.  0.
         23    2    1    2    0    0  0.22829185114E+02 -0.73072114319E+02  0.30915282566E+03  0.33125107648E+03  0.91055480191E+02 0.  0.
          5    1    3    3  502    0  0.14245736607E+02 -0.31852798168E+02  0.39299907379E+02  0.52720934008E+02  0.41800000000E+01 0.  1.
         -5    1    3    3    0  502 -0.37074921721E+02  0.10492491249E+03  0.10730106024E+03  0.15464403322E+03  0.41800000000E+01 0.  1.
        -11    1    4    4    0    0  0.40867100884E+02 -0.56832544993E+02  0.29492202794E+03  0.30311558962E+03  0.00000000000E+00 0.  1.
         11    1    4    4    0    0 -0.18037915770E+02 -0.16239569326E+02  0.14230797717E+02  0.28135486861E+02  0.00000000000E+00 0. -1.
</event>
<event>
 8    1  0.7016814E-009  0.7402849E+02  0.7561462E-02  0.1346906E+00
          1   -1    0    0  501    0  0.00000000000E+00  0.00000000000E+00  0.82063024169E+02  0.82063024169E+02  0.00000000000E+00 0. -1.
         -1   -1    0    0    0  501 -0.00000000000E+00 -0.00000000000E+00 -0.14723780105E+03  0.14723780105E+03  0.00000000000E+00 0.  1.
         25    2    1    2    0    0  0.16219228809E+02  0.23119357587E+01 -0.41149897775E+02  0.13269989011E+03  0.12509012079E+03 0.  0.
         23    2    1    2    0    0 -0.16219228809E+02 -0.23119357587E+01 -0.24024879110E+02  0.96600935114E+02  0.92120233492E+02 0.  0.
          5    1    3    3  502    0  0.22131942212E+02 -0.33311175581E+02  0.31753027565E+02  0.51236553789E+02  0.41800000000E+01 0. -1.
         -5    1    3    3    0  502 -0.59127134032E+01  0.35623111339E+02 -0.72902925340E+02  0.81463336320E+02  0.41800000000E+01 0. -1.
        -11    1    4    4    0    0  0.49526040551E+01  0.31344028943E+02  0.19818318542E+02  0.37413128539E+02  0.00000000000E+00 0. -1.
         11    1    4    4    0    0 -0.21171832864E+02 -0.33655964701E+02 -0.43843197652E+02  0.59187806575E+02  0.00000000000E+00 0.  1.
</event>
<event>
 8    1  0.7016814E-009  0.8603605E+02  0.7561462E-02  0.1312745E+00
          2   -1    0    0  501    0  0.00000000000E+00  0.00000000000E+00  0.22382099933E+03  0.22382099933E+03  0.00000000000E+00 0. -1.
         -2   -1    0    0    0  501 -0.00000000000E+00 -0.00000000000E+00 -0.55614632153E+02  0.55614632153E+02  0.00000000000E+00 0.  1.
         25    2    1    2    0    0  0.65055829153E+01  0.39708320526E+02  0.10747334771E+03  0.16975564735E+03  0.12508951199E+03 0.  0.
         23    2    1    2    0    0 -0.65055829153E+01 -0.39708320526E+02  0.60733019463E+02  0.10967998413E+03  0.81988571993E+02 0.  0.
          5    1    3    3  502    0 -0.30443606649E+02 -0.11904101219E+02  0.10049640963E+03  0.10576162612E+03  0.41800000000E+01 0.  1.
         -5    1    3    3    0  502  0.36949189565E+02  0.51612421745E+02  0.69769380811E+01  0.63994021227E+02  0.41800000000E+01 0.  1.
        -11    1    4    4    0    0  0.82047809299E+01 -0.54222523670E+02  0.68372155364E+02  0.87647887210E+02  0.00000000000E+00 0. -1.
         11    1    4    4    0    0 -0.14710363845E+02  0.14514203144E+02 -0.76391359009E+01  0.22032096920E+02  0.00000000000E+00 0.  1.
</event>
<event>
 8    1  0.7016814E-009  0.1027522E+03  0.7561462E-02  0.1274613E+00
          2   -1    0    0  501    0  0.00000000000E+00  0.00000000000E+00  0.25871311501E+03  0.25871311501E+03  0.00000000000E+00 0.  1.
         -2   -1    0    0    0  501 -0.00000000000E+00 -0.00000000000E+00 -0.79320690854E+02  0.79320690854E+02  0.00000000000E+00 0. -1.
         25    2    1    2    0    0 -0.91543510716E+02  0.19678127354E+02  0.92577222109E+02  0.18161714329E+03  0.12508717614E+03 0.  0.
         23    2    1    2    0    0  0.91543510716E+02 -0.19678127354E+02  0.86815202044E+02  0.15641666257E+03  0.90342957513E+02 0.  0.
          5    1    3    3  502    0 -0.36491901976E+02  0.38735559133E+02  0.10863622032E+03  0.12104298086E+03  0.41800000000E+01 0. -1.
         -5    1    3    3    0  502 -0.55051608740E+02 -0.19057431780E+02 -0.16058998208E+02  0.60574162432E+02  0.41800000000E+01 0. -1.
        -11    1    4    4    0    0  0.54478060302E+02 -0.97439012981E+01 -0.63041333928E+01  0.55700491601E+02  0.00000000000E+00 0. -1.
         11    1    4    4    0    0  0.37065450414E+02 -0.99342260556E+01  0.93119335437E+02  0.10071617097E+03  0.00000000000E+00 0.  1.
</event>
<event>
 8    1  0.7016814E-009  0.1141307E+03  0.7561462E-02  0.1253106E+00
         -1   -1    0    0    0  501 -0.00000000000E+00  0.00000000000E+00  0.42373261352E+02  0.42373261352E+02  0.00000000000E+00 0.  1.
          1   -1    0    0  501    0  0.00000000000E+00 -0.00000000000E+00 -0.37022518196E+03  0.37022518196E+03  0.00000000000E+00 0. -1.
         25    2    1    2    0    0  0.52173699180E+02  0.43610528499E+02 -0.21959500906E+03  0.26170590092E+03  0.12507612679E+03 0.  0.
         23    2    1    2    0    0 -0.52173699180E+02 -0.43610528499E+02 -0.10825691155E+03  0.15089254239E+03  0.80156268427E+02 0.  0.
          5    1    3    3  502    0  0.13130417907E+02  0.73699738523E+02 -0.64467846417E+02  0.98881924306E+02  0.41800000000E+01 0.  1.
         -5    1    3    3    0  502  0.39043281273E+02 -0.30089210024E+02 -0.15512716264E+03  0.16282397662E+03  0.41800000000E+01 0.  1.
        -11    1    4    4    0    0 -0.15958029064E+02 -0.61418772969E+02 -0.77412170977E+02  0.10009779508E+03  0.00000000000E+00 0.  1.
         11    1    4    4    0    0 -0.36215670115E+02  0.17808244471E+02 -0.30844740574E+02  0.50794747308E+02  0.00000000000E+00 0. -1.
</event>
<event>
 8    1  0.7016814E-009  0.1176818E+03  0.7561462E-02  0.1246971E+00
         -2   -1    0    0    0  501 -0.00000000000E+00  0.00000000000E+00  0.11126997441E+02  0.11126997441E+02  0.00000000000E+00 0.  1.
          2   -1    0    0  501    0  0.00000000000E+00 -0.00000000000E+00 -0.27498576746E+04  0.27498576746E+04  0.00000000000E+00 0. -1.
         25    2    1    2    0    0  0.19616572021E+02 -0.64279003346E+02 -0.23469209900E+04  0.23512125570E+04  0.12508299045E+03 0.  0.
         23    2    1    2    0    0 -0.19616572021E+02  0.64279003346E+02 -0.39180968710E+03  0.40977211503E+03  0.99407017767E+02 0.  0.
          5    1    3    3  502    0  0.87121734801E+01  0.30985691759E+02 -0.25026776862E+03  0.25236371267E+03  0.41800000000E+01 0.  1.
         -5    1    3    3    0  502  0.10904398541E+02 -0.95264695105E+02 -0.20966532214E+04  0.20988488443E+04  0.41800000000E+01 0.  1.
        -11    1    4    4    0    0  0.12355786556E+02 -0.16174920666E+02 -0.22031880385E+02  0.29994954130E+02  0.00000000000E+00 0.  1.
         11    1    4    4    0    0 -0.31972358577E+02  0.80453924012E+02 -0.36977780671E+03  0.37977716090E+03  0.00000000000E+00 0. -1.
</event>
<event>
 8    1  0.7016814E-009  0.1032333E+03  0.7561462E-02  0.1273640E+00
          3   -1    0    0  501    0  0.00000000000E+00  0.00000000000E+00  0.16449539201E+03  0.16449539201E+03  0.00000000000E+00 0. -1.
         -3   -1    0    0    0  501 -0.00000000000E+00 -0.00000000000E+00 -0.96033592756E+02  0.96033592756E+02  0.00000000000E+00 0.  1.
         25    2    1    2    0    0  0.29006568182E+02 -0.84344341266E+01 -0.19052629699E+02  0.13008477120E+03  0.12508606766E+03 0.  0.
         23    2    1    2    0    0 -0.29006568182E+02  0.84344341266E+01  0.87514428957E+02  0.13044421357E+03  0.91893399668E+02 0.  0.
          5    1    3    3  502    0 -0.33766740900E+02  0.35337959338E+02 -0.21134816847E+02  0.53414577077E+02  0.41800000000E+01 0.  1.
         -5    1    3    3    0  502  0.62773309082E+02 -0.43772393465E+02  0.20821871484E+01  0.76670194118E+02  0.41800000000E+01 0.  1.
        -11    1    4    4    0    0  0.36789409989E+01  0.37107526004E+02  0.77235297822E+02  0.85765927516E+02  0.00000000000E+00 0. -1.
         11    1    4    4    0    0 -0.32685509181E+02 -0.28673091877E+02  0.10279131135E+02  0.44678286058E+02  0.00000000000E+00 0.  1.
</event>
<event>
 8    1  0.7016814E-009  0.1024031E+03  0.7561462E-02  0.1275322E+00
          2   -1    0    0  501    0  0.00000000000E+00  0.00000000000E+00  0.16140567638E+03  0.16140567638E+03  0.00000000000E+00 0. -1.
         -2   -1    0    0    0  501 -0.00000000000E+00 -0.00000000000E+00 -0.90444922967E+02  0.90444922967E+02  0.00000000000E+00 0.  1.
         25    2    1    2    0    0  0.67339135392E+01  0.37918440157E+02  0.52388309631E+01  0.13098969614E+03  0.12509077284E+03 0.  0.
         23    2    1    2    0    0 -0.67339135392E+01 -0.37918440157E+02  0.65721922450E+02  0.12086090321E+03  0.93834072371E+02 0.  0.
          5    1    3    3  502    0 -0.34670657334E+02  0.56428801290E+02  0.36510650035E+02  0.75741428960E+02  0.41800000000E+01 0. -1.
         -5    1    3    3    0  502  0.41404570873E+02 -0.18510361133E+02 -0.31271819072E+02  0.55248267181E+02  0.41800000000E+01 0. -1.
        -11    1    4    4    0    0  0.37494230786E+02 -0.51310792295E+01  0.51658952118E+02  0.64037431633E+02  0.00000000000E+00 0.  1.
         11    1    4    4    0    0 -0.44228144325E+02 -0.32787360928E+02  0.14062970333E+02  0.56823471573E+02  0.00000000000E+00 0. -1.
</event>
<event>
 8    1  0.7016814E-009  0.1069619E+03  0.7561462E-02  0.1266302E+00
         -1   -1    0    0    0  501 -0.00000000000E+00  0.00000000000E+00  0.72919584914E+02  0.72919584914E+02  0.00000000000E+00 0.  1.
          1   -1    0    0  501    0  0.00000000000E+00 -0.00000000000E+00 -0.16860973962E+03  0.16860973962E+03  0.00000000000E+00 0. -1.
         25    2    1    2    0    0 -0.10503249670E+02  0.18075272987E+02 -0.75284015905E+02  0.14748050326E+03  0.12508310056E+03 0.  0.
         23    2    1    2    0    0  0.10503249670E+02 -0.18075272987E+02 -0.20406138805E+02  0.94048821274E+02  0.89396512991E+02 0.  0.
          5    1    3    3  502    0  0.36509175339E+02 -0.35247137231E+02 -0.12232356309E+02  0.52367771652E+02  0.41800000000E+01 0. -1.
         -5    1    3    3    0  502 -0.47012425009E+02  0.53322410218E+02 -0.63051659596E+02  0.95112731611E+02  0.41800000000E+01 0. -1.
        -11    1    4    4    0    0 -0.22565342372E+02 -0.44216148566E+02 -0.10217414736E+02  0.50681930057E+02  0.00000000000E+00 0.  1.
         11    1    4    4    0    0  0.33068592043E+02  0.26140875579E+02 -0.10188724069E+02  0.43366891218E+02  0.00000000000E+00 0. -1.
</event>
<event>
 8    1  0.7016814E-009  0.1872101E+03  0.7561462E-02  0.1161002E+00
          1   -1    0    0  501    0  0.00000000000E+00  0.00000000000E+00  0.11551023561E+03  0.11551023561E+03  0.00000000000E+00 0. -1.
         -1   -1    0    0    0  501 -0.00000000000E+00 -0.00000000000E+00 -0.40143785670E+03  0.40143785670E+03  0.00000000000E+00 0.  1.
         25    2    1    2    0    0  0.12212245623E+02 -0.18466827769E+03 -0.16551921725E+03  0.27802056672E+03  0.12508921822E+03 0.  0.
         23    2    1    2    0    0 -0.12212245623E+02  0.18466827769E+03 -0.12040840384E+03  0.23892752559E+03  0.91305350556E+02 0.  0.
          5    1    3    3  502    0  0.24239133368E+02 -0.74698673354E+02 -0.14568053980E+03  0.16555276943E+03  0.41800000000E+01 0.  1.
         -5    1    3    3    0  502 -0.12026887745E+02 -0.10996960433E+03 -0.19838677442E+02  0.11246779730E+03  0.41800000000E+01 0.  1.
        -11    1    4    4    0    0 -0.89317553096E+01  0.13624678568E+03 -0.13103685437E+03  0.18924486800E+03  0.00000000000E+00 0.  1.
         11    1    4    4    0    0 -0.32804903129E+01  0.48421492004E+02  0.10628450522E+02  0.49682657589E+02  0.00000000000E+00 0. -1.
</event>
<event>
 8    1  0.7016814E-009  0.1120597E+03  0.7561462E-02  0.1256803E+00
          2   -1    0    0  501    0  0.00000000000E+00  0.00000000000E+00  0.35031746624E+03  0.35031746624E+03  0.00000000000E+00 0. -1.
         -2   -1    0    0    0  501 -0.00000000000E+00 -0.00000000000E+00 -0.41596836647E+02  0.41596836647E+02  0.00000000000E+00 0.  1.
         25    2    1    2    0    0  0.11640343311E+02 -0.44764341417E+02  0.13356440653E+03  0.18875071166E+03  0.12509211248E+03 0.  0.
         23    2    1    2    0    0 -0.11640343311E+02  0.44764341417E+02  0.17515622306E+03  0.20316359122E+03  0.91958678043E+02 0.  0.
          5    1    3    3  502    0  0.62707105983E+02 -0.18821018604E+02  0.34200672998E+02  0.73983581392E+02  0.41800000000E+01 0. -1.
         -5    1    3    3    0  502 -0.51066762672E+02 -0.25943322812E+02  0.99363733535E+02  0.11476713027E+03  0.41800000000E+01 0. -1.
        -11    1    4    4    0    0  0.29110583670E+02  0.52097232965E+02  0.12172075915E+03  0.13556360489E+03  0.00000000000E+00 0.  1.
         11    1    4    4    0    0 -0.40750926981E+02 -0.73328915486E+01  0.53435463910E+02  0.67599986328E+02  0.00000000000E+00 0. -1.
</event>
<event>
 8    1  0.7016814E-009  0.1510955E+03  0.7561462E-02  0.1199133E+00
         -2   -1    0    0    0  501 -0.00000000000E+00  0.00000000000E+00  0.19115591928E+03  0.19115591928E+03  0.00000000000E+00 0. -1.
          2   -1    0    0  501    0  0.00000000000E+00 -0.00000000000E+00 -0.13969723131E+03  0.13969723131E+03  0.00000000000E+00 0.  1.
         25    2    1    2    0    0 -0.64560289411E+02 -0.10052914971E+03  0.46849470924E+01  0.17304214896E+03  0.12508995035E+03 0.  0.
         23    2    1    2    0    0  0.64560289411E+02  0.10052914971E+03  0.46773740879E+02  0.15781100163E+03  0.91882471068E+02 0.  0.
          5    1    3    3  502    0 -0.41773310782E+02 -0.12768263760E+03  0.16563097912E+02  0.13542405270E+03  0.41800000000E+01 0. -1.
         -5    1    3    3    0  502 -0.22786978629E+02  0.27153487890E+02 -0.11878150820E+02  0.37618096264E+02  0.41800000000E+01 0. -1.
        -11    1    4    4    0    0  0.74783004543E+02  0.93289330906E+02  0.64696134304E+02  0.13594479329E+03  0.00000000000E+00 0. -1.
         11    1    4    4    0    0 -0.10222715132E+02  0.72398187999E+01 -0.17922393425E+02  0.21866208336E+02  0.00000000000E+00 0.  1.
</event>
<event>
 8    1  0.7016814E-009  0.2041813E+03  0.7561462E-02  0.1146258E+00
          1   -1    0    0  501    0  0.00000000000E+00  0.00000000000E+00  0.19299117102E+03  0.19299117102E+03  0.00000000000E+00 0. -1.
         -1   -1    0    0    0  501 -0.00000000000E+00 -0.00000000000E+00 -0.22978144529E+03  0.22978144529E+03  0.00000000000E+00 0.  1.
         25    2    1    2    0    0 -0.15478994625E+03  0.91970497361E+02 -0.23361132208E+02  0.22048100030E+03  0.12509048386E+03 0.  0.
         23    2    1    2    0    0  0.15478994625E+03 -0.91970497361E+02 -0.13429142062E+02  0.20229161601E+03  0.91230785411E+02 0.  0.
          5    1    3    3  502    0 -0.15608780104E+03  0.11576372432E+03 -0.26153987079E+02  0.19612787905E+03  0.41800000000E+01 0. -1.
         -5    1    3    3    0  502  0.12978547941E+01 -0.23793226959E+02  0.27928548703E+01  0.24353121248E+02  0.41800000000E+01 0. -1.
        -11    1    4    4    0    0  0.94369639719E+02 -0.88338470661E+02  0.23504298896E+02  0.13138404152E+03  0.00000000000E+00 0. -1.
         11    1    4    4    0    0  0.60420306528E+02 -0.36320267004E+01 -0.36933440958E+02  0.70907574489E+02  0.00000000000E+00 0.  1.
</event>
<event>
 8    1  0.7016814E-009  0.1432948E+03  0.7561462E-02  0.1208963E+00
          3   -1    0    0  501    0  0.00000000000E+00  0.00000000000E+00  0.62721811730E+02  0.62721811730E+02  0.00000000000E+00 0. -1.
         -3   -1    0    0    0  501 -0.00000000000E+00 -0.00000000000E+00 -0.35614342002E+03  0.35614342002E+03  0.00000000000E+00 0.  1.
         25    2    1    2    0    0 -0.58525296795E+02  0.82095940426E+02 -0.13327262788E+03  0.20874156666E+03  0.12508594849E+03 0.  0.
         23    2    1    2    0    0  0.58525296795E+02 -0.82095940426E+02 -0.16014898040E+03  0.21012366509E+03  0.91319794715E+02 0.  0.
          5    1    3    3  502    0 -0.45322725695E+02 -0.23750308839E+02 -0.61481828202E+02  0.80098153746E+02  0.41800000000E+01 0. -1.
         -5    1    3    3    0  502 -0.13202571100E+02  0.10584624926E+03 -0.71790799682E+02  0.12864341291E+03  0.41800000000E+01 0. -1.
        -11    1    4    4    0    0  0.39821849581E+02 -0.96825783971E+02 -0.15276490416E+03  0.18519753802E+03  0.00000000000E+00 0.  1.
         11    1    4    4    0    0  0.18703447214E+02  0.14729843545E+02 -0.73840762380E+01  0.24926127064E+02  0.00000000000E+00 0. -1.
</event>
<event>
 8    1  0.7016814E-009  0.1427414E+03  0.7561462E-02  0.1209687E+00
         -1   -1    0    0    0  501 -0.00000000000E+00  0.00000000000E+00  0.30656221268E+02  0.30656221268E+02  0.00000000000E+00 0.  1.
          1   -1    0    0  501    0  0.00000000000E+00 -0.00000000000E+00 -0.68639574430E+03  0.68639574430E+03  0.00000000000E+00 0. -1.
         25    2    1    2    0    0 -0.90422762701E+02 -0.26245918178E+02 -0.30968771720E+03  0.34701436292E+03  0.12508941463E+03 0.  0.
         23    2    1    2    0    0  0.90422762701E+02  0.26245918178E+02 -0.34605180584E+03  0.37003760265E+03  0.91163867940E+02 0.  0.
          5    1    3    3  502    0 -0.10924693282E+03  0.13603443151E+02 -0.19329156585E+03  0.22248381475E+03  0.41800000000E+01 0.  1.
         -5    1    3    3    0  502  0.18824170120E+02 -0.39849361329E+02 -0.11639615134E+03  0.12453054817E+03  0.41800000000E+01 0.  1.
        -11    1    4    4    0    0 -0.18886538908E+02  0.64391177002E+01 -0.54648762227E+02  0.58177751776E+02  0.00000000000E+00 0.  1.
         11    1    4    4    0    0  0.10930930161E+03  0.19806800478E+02 -0.29140304361E+03  0.31185985087E+03  0.00000000000E+00 0. -1.
</event>
<event>
 8    1  0.7016814E-009  0.1944903E+03  0.7561462E-02  0.1154473E+00
          2   -1    0    0  501    0  0.00000000000E+00  0.00000000000E+00  0.62903760185E+03  0.62903760185E+03  0.00000000000E+00 0. -1.
         -2   -1    0    0    0  501 -0.00000000000E+00 -0.00000000000E+00 -0.60648025933E+02  0.60648025933E+02  0.00000000000E+00 0.  1.
         25    2    1    2    0    0 -0.13756548541E+02  0.16166555706E+03  0.29167379774E+03  0.35643501636E+03  0.12508925466E+03 0.  0.
         23    2    1    2    0    0  0.13756548541E+02 -0.16166555706E+03  0.27671577818E+03  0.33325061142E+03  0.90329137909E+02 0.  0.
          5    1    3    3  502    0  0.42811441360E+02  0.13293710061E+03  0.17920650507E+03  0.22723894052E+03  0.41800000000E+01 0.  1.
         -5    1    3    3    0  502 -0.56567989901E+02  0.28728456451E+02  0.11246729267E+03  0.12919607584E+03  0.41800000000E+01 0.  1.
        -11    1    4    4    0    0 -0.72589996082E+01  0.10205515173E+02  0.17333415698E+02  0.21384408223E+02  0.00000000000E+00 0.  1.
         11    1    4    4    0    0  0.21015548149E+02 -0.17187107223E+03  0.25938236248E+03  0.31186620320E+03  0.00000000000E+00 0. -1.
</event>
<event>
 8    1  0.7016814E-009  0.9151221E+02  0.7561462E-02  0.1299230E+00
         -3   -1    0    0    0  501 -0.00000000000E+00  0.00000000000E+00  0.99983139759E+02  0.99983139759E+02  0.00000000000E+00 0.  1.
          3   -1    0    0  501    0  0.00000000000E+00 -0.00000000000E+00 -0.15033820650E+03  0.15033820650E+03  0.00000000000E+00 0. -1.
         25    2    1    2    0    0  0.23766885117E+02  0.49392962982E+02 -0.36066412167E+02  0.14125466165E+03  0.12509022236E+03 0.  0.
         23    2    1    2    0    0 -0.23766885117E+02 -0.49392962982E+02 -0.14288654577E+02  0.10906668461E+03  0.93203253285E+02 0.  0.
          5    1    3    3  502    0  0.42206556475E+02  0.25037219608E+02  0.37228166613E+02  0.61738679647E+02  0.41800000000E+01 0. -1.
         -5    1    3    3    0  502 -0.18439671358E+02  0.24355743374E+02 -0.73294578780E+02  0.79515982001E+02  0.41800000000E+01 0. -1.
        -11    1    4    4    0    0  0.73386193573E+01  0.23002271796E+02  0.10693089752E+02  0.26406476673E+02  0.00000000000E+00 0.  1.
         11    1    4    4    0    0 -0.31105504474E+02 -0.72395234778E+02 -0.24981744328E+02  0.82660207941E+02  0.00000000000E+00 0. -1.
</event>
<event>
 8    1  0.7016814E-009  0.1702169E+03  0.7561462E-02  0.1177622E+00
         -1   -1    0    0    0  501 -0.00000000000E+00  0.00000000000E+00  0.74242079881E+02  0.74242079881E+02  0.00000000000E+00 0.  1.
          1   -1    0    0  501    0  0.00000000000E+00 -0.00000000000E+00 -0.48586481300E+03  0.48586481300E+03  0.00000000000E+00 0. -1.
         25    2    1    2    0    0  0.56162118751E+02 -0.13332888771E+03 -0.29948953536E+03  0.35534817983E+03  0.12509025235E+03 0.  0.
         23    2    1    2    0    0 -0.56162118751E+02  0.13332888771E+03 -0.11213319775E+03  0.20475871305E+03  0.91768734607E+02 0.  0.
          5    1    3    3  502    0 -0.41694877141E+01  0.14811114115E+02 -0.91773525987E+02  0.93148302192E+02  0.41800000000E+01 0. -1.
         -5    1    3    3    0  502  0.60331606465E+02 -0.14814000183E+03 -0.20771600938E+03  0.26219987763E+03  0.41800000000E+01 0. -1.
        -11    1    4    4    0    0 -0.11912446634E+02  0.11654895001E+03 -0.10416723061E+03  0.15676854297E+03  0.00000000000E+00 0.  1.
         11    1    4    4    0    0 -0.44249672117E+02  0.16779937704E+02 -0.79659671434E+01  0.47990170080E+02  0.00000000000E+00 0. -1.
</event>
<event>
 8    1  0.7016814E-009  0.1531575E+03  0.7561462E-02  0.1196646E+00
          1   -1    0    0  501    0  0.00000000000E+00  0.00000000000E+00  0.17688882554E+03  0.17688882554E+03  0.00000000000E+00 0. -1.
         -1   -1    0    0    0  501 -0.00000000000E+00 -0.00000000000E+00 -0.19051786946E+03  0.19051786946E+03  0.00000000000E+00 0.  1.
         25    2    1    2    0    0  0.12080019550E+03 -0.11068722617E+02  0.76833119731E+02  0.19043776414E+03  0.12509200563E+03 0.  0.
         23    2    1    2    0    0 -0.12080019550E+03  0.11068722617E+02 -0.90462163644E+02  0.17696893086E+03  0.91757264481E+02 0.  0.
          5    1    3    3  502    0 -0.18546144351E+02  0.11921173277E+02 -0.10031241156E+02  0.24579911345E+02  0.41800000000E+01 0. -1.
         -5    1    3    3    0  502  0.13934633985E+03 -0.22989895894E+02  0.86864360888E+02  0.16585785280E+03  0.41800000000E+01 0. -1.
        -11    1    4    4    0    0 -0.67843920328E+02  0.43399618577E+02 -0.19806072003E+02  0.82937355313E+02  0.00000000000E+00 0.  1.
         11    1    4    4    0    0 -0.52956275170E+02 -0.32330895960E+02 -0.70656091641E+02  0.94031575544E+02  0.00000000000E+00 0. -1.
</event>
<event>
 8    1  0.7016814E-009  0.1078093E+03  0.7561462E-02  0.1264681E+00
         -3   -1    0    0    0  501 -0.00000000000E+00  0.00000000000E+00  0.24375919403E+03  0.24375919403E+03  0.00000000000E+00 0.  1.
          3   -1    0    0  501    0  0.00000000000E+00 -0.00000000000E+00 -0.74929812116E+02  0.74929812116E+02  0.00000000000E+00 0. -1.
         25    2    1    2    0    0  0.38722937320E+02 -0.85585030487E+01  0.10752978679E+02  0.13166958583E+03  0.12509412229E+03 0.  0.
         23    2    1    2    0    0 -0.38722937320E+02  0.85585030487E+01  0.15807640323E+03  0.18701942032E+03  0.91735491861E+02 0.  0.
          5    1    3    3  502    0  0.26422042157E+02  0.57391337578E+02 -0.15359929317E+01  0.63338152917E+02  0.41800000000E+01 0. -1.
         -5    1    3    3    0  502  0.12300895163E+02 -0.65949840626E+02  0.12288971611E+02  0.68331432911E+02  0.41800000000E+01 0. -1.
        -11    1    4    4    0    0 -0.49860675617E+02 -0.20539101046E+02  0.46598939554E+02  0.71269929229E+02  0.00000000000E+00 0. -1.
         11    1    4    4    0    0  0.11137738298E+02  0.29097604094E+02  0.11147746368E+03  0.11574949109E+03  0.00000000000E+00 0.  1.
</event>
<event>
 8    1  0.7016814E-009  0.1220013E+03  0.7561462E-02  0.1239832E+00
         -2   -1    0    0    0  501 -0.00000000000E+00  0.00000000000E+00  0.11766452268E+02  0.11766452268E+02  0.00000000000E+00 0.  1.
          2   -1    0    0  501    0  0.00000000000E+00 -0.00000000000E+00 -0.16020634830E+04  0.16020634830E+04  0.00000000000E+00 0. -1.
         25    2    1    2    0    0 -0.64121775320E+02  0.24658228672E+02 -0.11923477397E+04  0.12008585793E+04  0.12509422428E+03 0.  0.
         23    2    1    2    0    0  0.64121775320E+02 -0.24658228672E+02 -0.39794929107E+03  0.41297135594E+03  0.86383286901E+02 0.  0.
          5    1    3    3  502    0 -0.90404437921E+02 -0.12145783655E+02 -0.94278888113E+03  0.94720052219E+03  0.41800000000E+01 0.  1.
         -5    1    3    3    0  502  0.26282662601E+02  0.36804012327E+02 -0.24955885856E+03  0.25365805716E+03  0.41800000000E+01 0.  1.
        -11    1    4    4    0    0  0.41702889343E+02 -0.55326663929E+02 -0.30039724403E+03  0.30828343280E+03  0.00000000000E+00 0. -1.
         11    1    4    4    0    0  0.22418885977E+02  0.30668435257E+02 -0.97552047040E+02  0.10468792314E+03  0.00000000000E+00 0.  1.
</event>
<event>
 8    1  0.7016814E-009  0.1319164E+03  0.7561462E-02  0.1224640E+00
          2   -1    0    0  501    0  0.00000000000E+00  0.00000000000E+00  0.49145710071E+03  0.49145710071E+03  0.00000000000E+00 0. -1.
         -2   -1    0    0    0  501 -0.00000000000E+00 -0.00000000000E+00 -0.50787192506E+02  0.50787192506E+02  0.00000000000E+00 0.  1.
         25    2    1    2    0    0 -0.19879127413E+02  0.10090935570E+03  0.14818121799E+03  0.21950828117E+03  0.12509330263E+03 0.  0.
         23    2    1    2    0    0  0.19879127413E+02 -0.10090935570E+03  0.29248869021E+03  0.32273601204E+03  0.89615968423E+02 0.  0.
          5    1    3    3  502    0 -0.56770452550E+02  0.49027764612E+02  0.22272762494E+02  0.78359136894E+02  0.41800000000E+01 0.  1.
         -5    1    3    3    0  502  0.36891325137E+02  0.51881591084E+02  0.12590845550E+03  0.14114914427E+03  0.41800000000E+01 0.  1.
        -11    1    4    4    0    0 -0.26421825547E+02 -0.46335145005E+02  0.64065516430E+02  0.83363354799E+02  0.00000000000E+00 0.  1.
         11    1    4    4    0    0  0.46300952960E+02 -0.54574210691E+02  0.22842317378E+03  0.23937265725E+03  0.00000000000E+00 0. -1.
</event>
<event>
 8    1  0.7016814E-009  0.1199313E+03  0.7561462E-02  0.1243210E+00
         -2   -1    0    0    0  501 -0.00000000000E+00  0.00000000000E+00  0.57249165524E+02  0.57249165524E+02  0.00000000000E+00 0. -1.
          2   -1    0    0  501    0  0.00000000000E+00 -0.00000000000E+00 -0.37654495101E+03  0.37654495101E+03  0.00000000000E+00 0.  1.
         25    2    1    2    0    0 -0.64668458376E+02  0.10189987396E+02 -0.64086491728E+02  0.15504716975E+03  0.12508677417E+03 0.  0.
         23    2    1    2    0    0  0.64668458376E+02 -0.10189987396E+02 -0.25520929375E+03  0.27874694678E+03  0.91006765519E+02 0.  0.
          5    1    3    3  502    0 -0.39859386547E+02 -0.50394428028E+02 -0.15382505376E+01  0.64406581084E+02  0.41800000000E+01 0. -1.
         -5    1    3    3    0  502 -0.24809071829E+02  0.60584415424E+02 -0.62548241190E+02  0.90640588664E+02  0.41800000000E+01 0. -1.
        -11    1    4    4    0    0 -0.65812393386E+01  0.28187610447E+02 -0.94142145303E+02  0.98491611908E+02  0.00000000000E+00 0.  1.
         11    1    4    4    0    0  0.71249697714E+02 -0.38377597843E+02 -0.16106714845E+03  0.18025533487E+03  0.00000000000E+00 0. -1.
</event>
<event>
 8    1  0.7016814E-009  0.1204807E+03  0.7561462E-02  0.1242306E+00
         -1   -1    0    0    0  501 -0.00000000000E+00  0.00000000000E+00  0.39916640251E+02  0.39916640251E+02  0.00000000000E+00 0.  1.
          1   -1    0    0  501    0  0.00000000000E+00 -0.00000000000E+00 -0.58987154456E+03  0.58987154456E+03  0.00000000000E+00 0. -1.
         25    2    1    2    0    0  0.94800411995E+02 -0.29146936153E+02 -0.21624709685E+03  0.26878209193E+03  0.12507735225E+03 0.  0.
         23    2    1    2    0    0 -0.94800411995E+02  0.29146936153E+02 -0.33370780746E+03  0.36100609288E+03  0.95539710768E+02 0.  0.
          5    1    3    3  502    0  0.34424323655E+02  0.37085399040E+02 -0.23031048254E+02  0.55751793377E+02  0.41800000000E+01 0. -1.
         -5    1    3    3    0  502  0.60376088340E+02 -0.66232335193E+02 -0.19321604859E+03  0.21303029855E+03  0.41800000000E+01 0. -1.
        -11    1    4    4    0    0 -0.31385946572E+02  0.17693566584E+02 -0.20948318066E+02  0.41676995699E+02  0.00000000000E+00 0.  1.
         11    1    4    4    0    0 -0.63414465423E+02  0.11453369569E+02 -0.31275948939E+03  0.31932909718E+03  0.00000000000E+00 0. -1.
</event>
<event>
 8    1  0.7016814E-009  0.2062022E+03  0.7561462E-02  0.1144609E+00
          1   -1    0    0  501    0  0.00000000000E+00  0.00000000000E+00  0.19497537891E+04  0.19497537891E+04  0.00000000000E+00 0. -1.
         -1   -1    0    0    0  501 -0.00000000000E+00 -0.00000000000E+00 -0.22819304848E+02  0.22819304848E+02  0.00000000000E+00 0.  1.
         25    2    1    2    0    0 -0.11923556945E+03 -0.13498375597E+03  0.96852835468E+03  0.99304210966E+03  0.12509085640E+03 0.  0.
         23    2    1    2    0    0  0.11923556945E+03  0.13498375597E+03  0.95840612956E+03  0.97953098427E+03  0.92200350154E+02 0.  0.
          5    1    3    3  502    0 -0.10356226301E+03 -0.35492602427E+02  0.36270860620E+03  0.37889295660E+03  0.41800000000E+01 0.  1.
         -5    1    3    3    0  502 -0.15673306439E+02 -0.99491153538E+02  0.60581974848E+03  0.61414915307E+03  0.41800000000E+01 0.  1.
        -11    1    4    4    0    0  0.71196211019E+02  0.13653184422E+03  0.75197833810E+03  0.76758143927E+03  0.00000000000E+00 0.  1.
         11    1    4    4    0    0  0.48039358433E+02 -0.15480882534E+01  0.20642779146E+03  0.21194954500E+03  0.00000000000E+00 0. -1.
</event>
<event>
 8    1  0.7016814E-009  0.1268519E+03  0.7561462E-02  0.1232203E+00
          1   -1    0    0  501    0  0.00000000000E+00  0.00000000000E+00  0.39286589028E+03  0.39286589028E+03  0.00000000000E+00 0. -1.
         -1   -1    0    0    0  501 -0.00000000000E+00 -0.00000000000E+00 -0.62716160243E+02  0.62716160243E+02  0.00000000000E+00 0.  1.
         25    2    1    2    0    0 -0.41824473682E+02  0.80038654353E+02  0.77254714640E+02  0.17253775614E+03  0.12508202736E+03 0.  0.
         23    2    1    2    0    0  0.41824473682E+02 -0.80038654353E+02  0.25289501540E+03  0.28304429439E+03  0.89457872669E+02 0.  0.
          5    1    3    3  502    0 -0.60662547429E+02  0.90633169011E+02  0.19684074334E+02  0.11090198902E+03  0.41800000000E+01 0. -1.
         -5    1    3    3    0  502  0.18838073747E+02 -0.10594514658E+02  0.57570640306E+02  0.61635767121E+02  0.41800000000E+01 0. -1.
        -11    1    4    4    0    0  0.19384373366E+02 -0.94094585042E+02  0.22464220974E+03  0.24432287502E+03  0.00000000000E+00 0. -1.
         11    1    4    4    0    0  0.22440100315E+02  0.14055930689E+02  0.28252805664E+02  0.38721419365E+02  0.00000000000E+00 0.  1.
</event>
<event>
 8    1  0.7016814E-009  0.9875868E+02  0.7561462E-02  0.1282928E+00
         -3   -1    0    0    0  501 -0.00000000000E+00  0.00000000000E+00  0.25050507293E+03  0.25050507293E+03  0.00000000000E+00 0.  1.
          3   -1    0    0  501    0  0.00000000000E+00 -0.00000000000E+00 -0.65119648342E+02  0.65119648342E+02  0.00000000000E+00 0. -1.
         25    2    1    2    0    0 -0.58565982956E+02  0.32260577940E+02  0.11302581879E+03  0.18136577579E+03  0.12509192486E+03 0.  0.
         23    2    1    2    0    0  0.58565982956E+02 -0.32260577940E+02  0.72359605797E+02  0.13425894548E+03  0.91207634784E+02 0.  0.
          5    1    3    3  502    0 -0.63796407159E+02 -0.27037824034E+02  0.22557843134E+02  0.72988726402E+02  0.41800000000E+01 0. -1.
         -5    1    3    3    0  502  0.52304242027E+01  0.59298401974E+02  0.90467975656E+02  0.10837704938E+03  0.41800000000E+01 0. -1.
        -11    1    4    4    0    0  0.43422096160E+02 -0.30750399433E+02  0.93874750405E+02  0.10790520962E+03  0.00000000000E+00 0. -1.
         11    1    4    4    0    0  0.15143886796E+02 -0.15101785072E+01 -0.21515144607E+02  0.26353735862E+02  0.00000000000E+00 0.  1.
</event>
<event>
 8    1  0.7016814E-009  0.1060850E+03  0.7561462E-02  0.1267996E+00
         -2   -1    0    0    0  501 -0.00000000000E+00  0.00000000000E+00  0.21058403306E+02  0.21058403306E+02  0.00000000000E+00 0.  1.
          2   -1    0    0  501    0  0.00000000000E+00 -0.00000000000E+00 -0.74755633901E+03  0.74755633901E+03  0.00000000000E+00 0. -1.
         25    2    1    2    0    0  0.24468546892E+02 -0.57224948739E+02 -0.44149859964E+03  0.46307919477E+03  0.12509165679E+03 0.  0.
         23    2    1    2    0    0 -0.24468546892E+02  0.57224948739E+02 -0.28499933606E+03  0.30553554755E+03  0.90851222962E+02 0.  0.
          5    1    3    3  502    0  0.68504193669E+02 -0.54220609225E+02 -0.35811648204E+03  0.36864289784E+03  0.41800000000E+01 0. -1.
         -5    1    3    3    0  502 -0.44035646777E+02 -0.30043395135E+01 -0.83382117596E+02  0.94436296930E+02  0.41800000000E+01 0. -1.
        -11    1    4    4    0    0  0.14333172871E+02  0.47356433425E+01 -0.21445092772E+01  0.15246805648E+02  0.00000000000E+00 0.  1.
         11    1    4    4    0    0 -0.38801719763E+02  0.52489305396E+02 -0.28285482678E+03  0.29028874190E+03  0.00000000000E+00 0. -1.
</event>
<event>
 8    1  0.7016814E-009  0.8827101E+02  0.7561462E-02  0.1307094E+00
         -2   -1    0    0    0  501 -0.00000000000E+00  0.00000000000E+00  0.78449194704E+02  0.78449194704E+02  0.00000000000E+00 0.  1.
          2   -1    0    0  501    0  0.00000000000E+00 -0.00000000000E+00 -0.16668664740E+03  0.16668664740E+03  0.00000000000E+00 0. -1.
         25    2    1    2    0    0  0.71759260378E+01  0.14803729028E+02 -0.14362801182E+02  0.12698763228E+03  0.12509566095E+03 0.  0.
         23    2    1    2    0    0 -0.71759260378E+01 -0.14803729028E+02 -0.73874651518E+02  0.11814820982E+03  0.90724258279E+02 0.  0.
          5    1    3    3  502    0  0.18916404273E+02  0.56318163963E+02 -0.44371370007E+02  0.74268814580E+02  0.41800000000E+01 0. -1.
         -5    1    3    3    0  502 -0.11740478235E+02 -0.41514434935E+02  0.30008568825E+02  0.52718817704E+02  0.41800000000E+01 0. -1.
        -11    1    4    4    0    0 -0.28325166520E+02  0.18756223308E+02 -0.70596028633E+02  0.78344816229E+02  0.00000000000E+00 0.  1.
         11    1    4    4    0    0  0.21149240482E+02 -0.33559952336E+02 -0.32786228851E+01  0.39803393596E+02  0.00000000000E+00 0. -1.
</event>
<event>
 8    1  0.7016814E-009  0.1741099E+03  0.7561462E-02  0.1173628E+00
         -1   -1    0    0    0  501 -0.00000000000E+00  0.00000000000E+00  0.27661132017E+02  0.27661132017E+02  0.00000000000E+00 0.  1.
          1   -1    0    0  501    0  0.00000000000E+00 -0.00000000000E+00 -0.12965999048E+04  0.12965999048E+04  0.00000000000E+00 0. -1.
         25    2    1    2    0    0 -0.11865146771E+02 -0.15290471320E+03 -0.74861859452E+03  0.77433613568E+03  0.12508404348E+03 0.  0.
         23    2    1    2    0    0  0.11865146771E+02  0.15290471320E+03 -0.52032017827E+03  0.54992490114E+03  0.90353062793E+02 0.  0.
          5    1    3    3  502    0 -0.51415967767E+02 -0.10994900188E+03 -0.63514523526E+03  0.64665240047E+03  0.41800000000E+01 0. -1.
         -5    1    3    3    0  502  0.39550820996E+02 -0.42955711317E+02 -0.11347335925E+03  0.12768373521E+03  0.41800000000E+01 0. -1.
        -11    1    4    4    0    0 -0.25214881749E+01  0.15379588235E+03 -0.50858939858E+03  0.53134048187E+03  0.00000000000E+00 0. -1.
         11    1    4    4    0    0  0.14386634945E+02 -0.89116914646E+00 -0.11730779692E+02  0.18584419272E+02  0.00000000000E+00 0.  1.
</event>
<event>
 8    1  0.7016814E-009  0.1760559E+03  0.7561462E-02  0.1171676E+00
         -1   -1    0    0    0  501 -0.00000000000E+00  0.00000000000E+00  0.46628281895E+03  0.46628281895E+03  0.00000000000E+00 0.  1.
          1   -1    0    0  501    0  0.00000000000E+00 -0.00000000000E+00 -0.67206556805E+02  0.67206556805E+02  0.00000000000E+00 0. -1.
         25    2    1    2    0    0 -0.76033534867E+02  0.11605997028E+03  0.19592132563E+03  0.27071006426E+03  0.12509099860E+03 0.  0.
         23    2    1    2    0    0  0.76033534867E+02 -0.11605997028E+03  0.20315493651E+03  0.26277931149E+03  0.92358124661E+02 0.  0.
          5    1    3    3  502    0  0.27864055651E+02 -0.21344848936E+01  0.41388336292E+02  0.50114153730E+02  0.41800000000E+01 0. -1.
         -5    1    3    3    0  502 -0.10389759052E+03  0.11819445518E+03  0.15453298934E+03  0.22059591053E+03  0.41800000000E+01 0. -1.
        -11    1    4    4    0    0 -0.66171502637E+01 -0.72883038936E+02  0.82302727664E+02  0.11013384141E+03  0.00000000000E+00 0.  1.
         11    1    4    4    0    0  0.82650685130E+02 -0.43176931349E+02  0.12085220885E+03  0.15264547008E+03  0.00000000000E+00 0. -1.
</event>
<event>
 8    1  0.7016814E-009  0.1196314E+03  0.7561462E-02  0.1243706E+00
         -2   -1    0    0    0  501 -0.00000000000E+00  0.00000000000E+00  0.12171033979E+02  0.12171033979E+02  0.00000000000E+00 0. -1.
          2   -1    0    0  501    0  0.00000000000E+00 -0.00000000000E+00 -0.17305766733E+04  0.17305766733E+04  0.00000000000E+00 0.  1.
         25    2    1    2    0    0  0.17746631432E+02 -0.66625526843E+02 -0.13429465964E+04  0.13505208550E+04  0.12508842925E+03 0.  0.
         23    2    1    2    0    0 -0.17746631432E+02  0.66625526843E+02 -0.37545904290E+03  0.39222685230E+03  0.90102758099E+02 0.  0.
          5    1    3    3  502    0  0.52452264880E+02 -0.86219378100E+02 -0.85907281533E+03  0.86499051769E+03  0.41800000000E+01 0.  1.
         -5    1    3    3    0  502 -0.34705633448E+02  0.19593851257E+02 -0.48387378107E+03  0.48553033727E+03  0.41800000000E+01 0.  1.
        -11    1    4    4    0    0 -0.14454421235E+02  0.81589609390E+02 -0.36340464161E+03  0.37273144246E+03  0.00000000000E+00 0.  1.
         11    1    4    4    0    0 -0.32922101967E+01 -0.14964082547E+02 -0.12054401286E+02  0.19495409839E+02  0.00000000000E+00 0. -1.
</event>
<event>
 8    1  0.7016814E-009  0.1238391E+03  0.7561462E-02  0.1236895E+00
          1   -1    0    0  501    0  0.00000000000E+00  0.00000000000E+00  0.43200135595E+02  0.43200135595E+02  0.00000000000E+00 0. -1.
         -1   -1    0    0    0  501 -0.00000000000E+00 -0.00000000000E+00 -0.40027035937E+03  0.40027035937E+03  0.00000000000E+00 0.  1.
         25    2    1    2    0    0 -0.56040204821E+01 -0.70113917914E+02 -0.24119386794E+03  0.28065948070E+03  0.12509154905E+03 0.  0.
         23    2    1    2    0    0  0.56040204821E+01  0.70113917914E+02 -0.11587635584E+03  0.16281101427E+03  0.90181649989E+02 0.  0.
          5    1    3    3  502    0 -0.38004172930E+02  0.23113733042E+02 -0.71792329685E+02  0.84558694508E+02  0.41800000000E+01 0.  1.
         -5    1    3    3    0  502  0.32400152448E+02 -0.93227650956E+02 -0.16940153825E+03  0.19610078619E+03  0.41800000000E+01 0.  1.
        -11    1    4    4    0    0  0.36195627883E+02  0.11295485246E+02 -0.77319402936E+02  0.86116209480E+02  0.00000000000E+00 0.  1.
         11    1    4    4    0    0 -0.30591607401E+02  0.58818432668E+02 -0.38556952905E+02  0.76694804793E+02  0.00000000000E+00 0. -1.
</event>
<event>
 8    1  0.7016814E-009  0.1271415E+03  0.7561462E-02  0.1231760E+00
         -2   -1    0    0    0  501 -0.00000000000E+00  0.00000000000E+00  0.14599031726E+03  0.14599031726E+03  0.00000000000E+00 0.  1.
          2   -1    0    0  501    0  0.00000000000E+00 -0.00000000000E+00 -0.15121083269E+03  0.15121083269E+03  0.00000000000E+00 0. -1.
         25    2    1    2    0    0  0.28705714367E+02  0.85468114390E+02 -0.47155302360E+02  0.16124099963E+03  0.12508485443E+03 0.  0.
         23    2    1    2    0    0 -0.28705714367E+02 -0.85468114390E+02  0.41934786923E+02  0.13596015031E+03  0.92724427765E+02 0.  0.
          5    1    3    3  502    0 -0.26449972372E+02  0.20860207562E+01  0.25928154673E+02  0.37332212978E+02  0.41800000000E+01 0.  1.
         -5    1    3    3    0  502  0.55155686739E+02  0.83382093634E+02 -0.73083457033E+02  0.12390878665E+03  0.41800000000E+01 0.  1.
        -11    1    4    4    0    0 -0.54438743598E+02 -0.85816824725E+02  0.42651972045E+02  0.11021476729E+03  0.00000000000E+00 0. -1.
         11    1    4    4    0    0  0.25733029231E+02  0.34871033514E+00 -0.71718512194E+00  0.25745383020E+02  0.00000000000E+00 0.  1.
</event>
<event>
 8    1  0.7016814E-009  0.1094975E+03  0.7561462E-02  0.1261503E+00
         -2   -1    0    0    0  501 -0.00000000000E+00  0.00000000000E+00  0.23154667342E+03  0.23154667342E+03  0.00000000000E+00 0.  1.
          2   -1    0    0  501    0  0.00000000000E+00 -0.00000000000E+00 -0.75414761105E+02  0.75414761105E+02  0.00000000000E+00 0. -1.
         25    2    1    2    0    0 -0.81301440304E+01  0.65795840305E+02  0.12460095107E+03  0.18858761615E+03  0.12507877563E+03 0.  0.
         23    2    1    2    0    0  0.81301440304E+01 -0.65795840305E+02  0.31530961246E+02  0.11837381838E+03  0.92859934938E+02 0.  0.
          5    1    3    3  502    0  0.37380569328E+02  0.32751699331E+01 -0.45173052010E+01  0.38025151514E+02  0.41800000000E+01 0.  1.
         -5    1    3    3    0  502 -0.45510713358E+02  0.62520670372E+02  0.12911825627E+03  0.15056246463E+03  0.41800000000E+01 0.  1.
        -11    1    4    4    0    0 -0.26037545726E+02  0.37531793463E+01 -0.12633569309E+02  0.29182995324E+02  0.00000000000E+00 0. -1.
         11    1    4    4    0    0  0.34167689756E+02 -0.69549019651E+02  0.44164530555E+02  0.89190823053E+02  0.00000000000E+00 0.  1.
</event>
<event>
 8    1  0.7016814E-009  0.2073271E+03  0.7561462E-02  0.1143700E+00
          2   -1    0    0  501    0  0.00000000000E+00  0.00000000000E+00  0.97117091837E+03  0.97117091837E+03  0.00000000000E+00 0. -1.
         -2   -1    0    0    0  501 -0.00000000000E+00 -0.00000000000E+00 -0.58048302225E+02  0.58048302225E+02  0.00000000000E+00 0.  1.
         25    2    1    2    0    0  0.24835579381E+02  0.18986027085E+03  0.66424161398E+03  0.70251523018E+03  0.12508796278E+03 0.  0.
         23    2    1    2    0    0 -0.24835579381E+02 -0.18986027085E+03  0.24888100216E+03  0.32670399042E+03  0.90166599509E+02 0.  0.
          5    1    3    3  502    0 -0.22017894981E+02  0.17104400920E+03  0.56982609043E+03  0.59536550666E+03  0.41800000000E+01 0.  1.
         -5    1    3    3    0  502  0.46853474362E+02  0.18816261648E+02  0.94415523550E+02  0.10714972352E+03  0.41800000000E+01 0.  1.
        -11    1    4    4    0    0 -0.83303771767E+01 -0.57809109064E+02  0.19611751052E+02  0.61610949141E+02  0.00000000000E+00 0.  1.
         11    1    4    4    0    0 -0.16505202204E+02 -0.13205116179E+03  0.22926925111E+03  0.26509304128E+03  0.00000000000E+00 0. -1.
</event>
<event>
 8    1  0.7016814E-009  0.2083818E+03  0.7561462E-02  0.1142854E+00
          1   -1    0    0  501    0  0.00000000000E+00  0.00000000000E+00  0.15370244804E+03  0.15370244804E+03  0.00000000000E+00 0. -1.
         -1   -1    0    0    0  501 -0.00000000000E+00 -0.00000000000E+00 -0.61083117789E+03  0.61083117789E+03  0.00000000000E+00 0.  1.
         25    2    1    2    0    0  0.13072404535E+01 -0.17945814636E+03 -0.51091464694E+03  0.55577736747E+03  0.12509104912E+03 0.  0.
         23    2    1    2    0    0 -0.13072404535E+01  0.17945814636E+03  0.53785917089E+02  0.20875625846E+03  0.92083198238E+02 0.  0.
          5    1    3    3  502    0  0.48085690622E+02 -0.23723272537E+02 -0.94699257710E+02  0.10890568908E+03  0.41800000000E+01 0.  1.
         -5    1    3    3    0  502 -0.46778450168E+02 -0.15573487382E+03 -0.41621538923E+03  0.44687167840E+03  0.41800000000E+01 0.  1.
        -11    1    4    4    0    0  0.25666775855E+02  0.81925598884E+01  0.15913678157E+02  0.31291317850E+02  0.00000000000E+00 0. -1.
         11    1    4    4    0    0 -0.26974016308E+02  0.17126558647E+03  0.37872238932E+02  0.17746494061E+03  0.00000000000E+00 0.  1.
</event>
<event>
 8    1  0.7016814E-009  0.1083982E+03  0.7561462E-02  0.1263565E+00
         -2   -1    0    0    0  501 -0.00000000000E+00  0.00000000000E+00  0.11248239833E+03  0.11248239833E+03  0.00000000000E+00 0.  1.
          2   -1    0    0  501    0  0.00000000000E+00 -0.00000000000E+00 -0.14351473415E+03  0.14351473415E+03  0.00000000000E+00 0. -1.
         25    2    1    2    0    0 -0.14271629846E+02  0.22920600356E+02 -0.75617963806E+02  0.14863940821E+03  0.12508622579E+03 0.  0.
         23    2    1    2    0    0  0.14271629846E+02 -0.22920600356E+02  0.44585627990E+02  0.10735772428E+03  0.93855044617E+02 0.  0.
          5    1    3    3  502    0 -0.92673372748E+01 -0.48375374452E+02 -0.55396557462E+02  0.74244941728E+02  0.41800000000E+01 0. -1.
         -5    1    3    3    0  502 -0.50042925715E+01  0.71295974808E+02 -0.20221406344E+02  0.74394466477E+02  0.41800000000E+01 0. -1.
        -11    1    4    4    0    0  0.52806857546E+02 -0.22050318591E+02  0.36792190260E+02  0.68032683454E+02  0.00000000000E+00 0.  1.
         11    1    4    4    0    0 -0.38535227700E+02 -0.87028176461E+00  0.77934377299E+01  0.39325040825E+02  0.00000000000E+00 0. -1.
</event>
<event>
 8    1  0.7016814E-009  0.5865583E+02  0.7561462E-02  0.1403561E+00
          2   -1    0    0  501    0  0.00000000000E+00  0.00000000000E+00  0.20163178523E+03  0.20163178523E+03  0.00000000000E+00 0.  1.
         -2   -1    0    0    0  501 -0.00000000000E+00 -0.00000000000E+00 -0.69144029647E+02  0.69144029647E+02  0.00000000000E+00 0. -1.
         25    2    1    2    0    0 -0.32473042136E+02 -0.19624601359E+02  0.10875497489E+03  0.17004504951E+03  0.12509216944E+03 0.  0.
         23    2    1    2    0    0  0.32473042136E+02  0.19624601359E+02  0.23732780694E+02  0.10073076537E+03  0.90243109261E+02 0.  0.
          5    1    3    3  502    0 -0.19458478998E+02  0.21851450119E+02  0.12110680121E+03  0.12466133312E+03  0.41800000000E+01 0. -1.
         -5    1    3    3    0  502 -0.13014563138E+02 -0.41476051478E+02 -0.12351826313E+02  0.45383716388E+02  0.41800000000E+01 0. -1.
        -11    1    4    4    0    0  0.20587497848E+02 -0.63345602485E+00  0.56658505415E+02  0.60286255233E+02  0.00000000000E+00 0.  1.
         11    1    4    4    0    0  0.11885544288E+02  0.20258057384E+02 -0.32925724721E+02  0.40444510140E+02  0.00000000000E+00 0. -1.
</event>
<event>
 8    1  0.7016814E-009  0.9266696E+02  0.7561462E-02  0.1296519E+00
         -3   -1    0    0    0  501 -0.00000000000E+00  0.00000000000E+00  0.34835244389E+03  0.34835244389E+03  0.00000000000E+00 0.  1.
          3   -1    0    0  501    0  0.00000000000E+00 -0.00000000000E+00 -0.44902549016E+02  0.44902549016E+02  0.00000000000E+00 0. -1.
         25    2    1    2    0    0 -0.54528302684E+02  0.29494840655E+02  0.17091811670E+03  0.22068667218E+03  0.12508526389E+03 0.  0.
         23    2    1    2    0    0  0.54528302684E+02 -0.29494840655E+02  0.13253177817E+03  0.17256832072E+03  0.91497932618E+02 0.  0.
          5    1    3    3  502    0 -0.77937075673E+02  0.38469700332E+02  0.57127108465E+02  0.10409171211E+03  0.41800000000E+01 0.  1.
         -5    1    3    3    0  502  0.23408772989E+02 -0.89748596766E+01  0.11379100824E+03  0.11659496007E+03  0.41800000000E+01 0.  1.
        -11    1    4    4    0    0  0.66687910604E+01 -0.23786923007E+02  0.12034281966E+03  0.12285228824E+03  0.00000000000E+00 0.  1.
         11    1    4    4    0    0  0.47859511623E+02 -0.57079176481E+01  0.12188958507E+02  0.49716032486E+02  0.00000000000E+00 0. -1.
</event>
<event>
 8    1  0.7016814E-009  0.5810276E+02  0.7561462E-02  0.1405971E+00
         -2   -1    0    0    0  501 -0.00000000000E+00  0.00000000000E+00  0.91618564679E+02  0.91618564679E+02  0.00000000000E+00 0.  1.
          2   -1    0    0  501    0  0.00000000000E+00 -0.00000000000E+00 -0.13359635002E+03  0.13359635002E+03  0.00000000000E+00 0. -1.
         25    2    1    2    0    0  0.21527428488E+02  0.11723384378E+01 -0.26736045853E+02  0.12972016310E+03  0.12509076709E+03 0.  0.
         23    2    1    2    0    0 -0.21527428488E+02 -0.11723384378E+01 -0.15241739488E+02  0.95494751600E+02  0.91772176643E+02 0.  0.
          5    1    3    3  502    0  0.12882299571E+02 -0.29223913643E+02 -0.69372151277E+02  0.76485021695E+02  0.41800000000E+01 0.  1.
         -5    1    3    3    0  502  0.86451289175E+01  0.30396252081E+02  0.42636105424E+02  0.53235141404E+02  0.41800000000E+01 0.  1.
        -11    1    4    4    0    0 -0.30127831575E+02 -0.16642418196E+02  0.30787715047E+02  0.46179429583E+02  0.00000000000E+00 0.  1.
         11    1    4    4    0    0  0.86004030864E+01  0.15470079758E+02 -0.46029454534E+02  0.49315322018E+02  0.00000000000E+00 0. -1.
</event>
<event>
 8    1  0.7016814E-009  0.1233480E+03  0.7561462E-02  0.1237674E+00
          4   -1    0    0  501    0  0.00000000000E+00  0.00000000000E+00  0.10552192656E+03  0.10552192656E+03  0.00000000000E+00 0. -1.
         -4   -1    0    0    0  501 -0.00000000000E+00 -0.00000000000E+00 -0.22953845999E+03  0.22953845999E+03  0.00000000000E+00 0.  1.
         25    2    1    2    0    0 -0.70247593264E+02 -0.49109134236E+02 -0.14460068118E+03  0.20953045242E+03  0.12508885669E+03 0.  0.
         23    2    1    2    0    0  0.70247593264E+02  0.49109134236E+02  0.20584147755E+02  0.12552993414E+03  0.89373518455E+02 0.  0.
          5    1    3    3  502    0 -0.84183420822E+02  0.92928793210E+01 -0.53238058128E+02  0.10012476807E+03  0.41800000000E+01 0.  1.
         -5    1    3    3    0  502  0.13935827558E+02 -0.58402013557E+02 -0.91362623057E+02  0.10940568435E+03  0.41800000000E+01 0.  1.
        -11    1    4    4    0    0  0.60004851415E+02  0.94423521944E+01 -0.23699145217E+02  0.65202681634E+02  0.00000000000E+00 0.  1.
         11    1    4    4    0    0  0.10242741849E+02  0.39666782042E+02  0.44283292972E+02  0.60327252503E+02  0.00000000000E+00 0. -1.
</event>
<event>
 8    1  0.7016814E-009  0.1644507E+03  0.7561462E-02  0.1183762E+00
         -2   -1    0    0    0  501 -0.00000000000E+00  0.00000000000E+00  0.38147475381E+02  0.38147475381E+02  0.00000000000E+00 0.  1.
          2   -1    0    0  501    0  0.00000000000E+00 -0.00000000000E+00 -0.79082491788E+03  0.79082491788E+03  0.00000000000E+00 0. -1.
         25    2    1    2    0    0  0.92070414456E+02 -0.98006430348E+02 -0.35891318830E+03  0.40317295410E+03  0.12509009782E+03 0.  0.
         23    2    1    2    0    0 -0.92070414456E+02  0.98006430348E+02 -0.39376425421E+03  0.42579943917E+03  0.90402726163E+02 0.  0.
          5    1    3    3  502    0 -0.25987083350E+02 -0.16999454519E+02 -0.12517146151E+03  0.12903362791E+03  0.41800000000E+01 0. -1.
         -5    1    3    3    0  502  0.11805749781E+03 -0.81006975829E+02 -0.23374172679E+03  0.27413932619E+03  0.41800000000E+01 0. -1.
        -11    1    4    4    0    0  0.12031244479E+02  0.23212618986E+02 -0.28404179647E+02  0.38605361614E+02  0.00000000000E+00 0.  1.
         11    1    4    4    0    0 -0.10410165894E+03  0.74793811361E+02 -0.36536007456E+03  0.38719407755E+03  0.00000000000E+00 0. -1.
</event>
<event>
 8    1  0.7016814E-009  0.1214677E+03  0.7561462E-02  0.1240695E+00
         -2   -1    0    0    0  501 -0.00000000000E+00  0.00000000000E+00  0.47694184706E+02  0.47694184706E+02  0.00000000000E+00 0.  1.
          2   -1    0    0  501    0  0.00000000000E+00 -0.00000000000E+00 -0.47858528739E+03  0.47858528739E+03  0.00000000000E+00 0. -1.
         25    2    1    2    0    0  0.22994232758E+02  0.53546392100E+02 -0.80744919056E+02  0.15987854133E+03  0.12508179395E+03 0.  0.
         23    2    1    2    0    0 -0.22994232758E+02 -0.53546392100E+02 -0.35014618363E+03  0.36640093077E+03  0.90836893976E+02 0.  0.
          5    1    3    3  502    0 -0.44069725227E+02  0.55128871993E+02 -0.38747232807E+02  0.80623530430E+02  0.41800000000E+01 0. -1.
         -5    1    3    3    0  502  0.67063957985E+02 -0.15824798925E+01 -0.41997686249E+02  0.79255010905E+02  0.41800000000E+01 0. -1.
        -11    1    4    4    0    0 -0.36743706339E+02  0.11527766291E+02 -0.17162500739E+03  0.17589238901E+03  0.00000000000E+00 0.  1.
         11    1    4    4    0    0  0.13749473581E+02 -0.65074158391E+02 -0.17852117624E+03  0.19050854176E+03  0.00000000000E+00 0. -1.
</event>
<event>
 8    1  0.7016814E-009  0.9870465E+02  0.7561462E-02  0.1283044E+00
         -1   -1    0    0    0  501 -0.00000000000E+00  0.00000000000E+00  0.10401379265E+03  0.10401379265E+03  0.00000000000E+00 0.  1.
          1   -1    0    0  501    0  0.00000000000E+00 -0.00000000000E+00 -0.14001237256E+03  0.14001237256E+03  0.00000000000E+00 0. -1.
         25    2    1    2    0    0 -0.47156012356E+01  0.51367133285E+02 -0.19662100197E+02  0.13672574549E+03  0.12508601848E+03 0.  0.
         23    2    1    2    0    0  0.47156012356E+01 -0.51367133285E+02 -0.16336479711E+02  0.10730041972E+03  0.92658945737E+02 0.  0.
          5    1    3    3  502    0  0.39023173975E+02 -0.65187507708E+01 -0.44719052320E+02  0.59854559217E+02  0.41800000000E+01 0.  1.
         -5    1    3    3    0  502 -0.43738775210E+02  0.57885884056E+02  0.25056952123E+02  0.76871186276E+02  0.41800000000E+01 0.  1.
        -11    1    4    4    0    0  0.26300791793E+02 -0.56886993454E+02  0.19032691856E+02  0.65498893368E+02  0.00000000000E+00 0.  1.
         11    1    4    4    0    0 -0.21585190557E+02  0.55198601693E+01 -0.35369171567E+02  0.41801526348E+02  0.00000000000E+00 0. -1.
</event>
<event>
 8    1  0.7016814E-009  0.1528846E+03  0.7561462E-02  0.1196973E+00
         -2   -1    0    0    0  501 -0.00000000000E+00  0.00000000000E+00  0.45025370657E+02  0.45025370657E+02  0.00000000000E+00 0.  1.
          2   -1    0    0  501    0  0.00000000000E+00 -0.00000000000E+00 -0.70017316342E+03  0.70017316342E+03  0.00000000000E+00 0. -1.
         25    2    1    2    0    0 -0.63514071817E+02  0.10540400566E+03 -0.48714962186E+03  0.51778929848E+03  0.12508781643E+03 0.  0.
         23    2    1    2    0    0  0.63514071817E+02 -0.10540400566E+03 -0.16799817091E+03  0.22740923560E+03  0.91364836112E+02 0.  0.
          5    1    3    3  502    0 -0.26109963020E+02  0.11202707553E+03 -0.45001760402E+03  0.46450523371E+03  0.41800000000E+01 0.  1.
         -5    1    3    3    0  502 -0.37404108797E+02 -0.66230698706E+01 -0.37132017839E+02  0.53284064768E+02  0.41800000000E+01 0.  1.
        -11    1    4    4    0    0 -0.22487043089E+02 -0.33506443840E+02 -0.34504542577E+02  0.53093430329E+02  0.00000000000E+00 0. -1.
         11    1    4    4    0    0  0.86001114906E+02 -0.71897561824E+02 -0.13349362833E+03  0.17431580527E+03  0.00000000000E+00 0.  1.
</event>
<event>
 8    1  0.7016814E-009  0.9987402E+02  0.7561462E-02  0.1280561E+00
          2   -1    0    0  501    0  0.00000000000E+00  0.00000000000E+00  0.11395195813E+03  0.11395195813E+03  0.00000000000E+00 0.  1.
         -2   -1    0    0    0  501 -0.00000000000E+00 -0.00000000000E+00 -0.12722963739E+03  0.12722963739E+03  0.00000000000E+00 0. -1.
         25    2    1    2    0    0 -0.22038013679E+02  0.47310298875E+02  0.65699515864E+01  0.13570052908E+03  0.12509009114E+03 0.  0.
         23    2    1    2    0    0  0.22038013679E+02 -0.47310298875E+02 -0.19847630838E+02  0.10548106645E+03  0.89489599967E+02 0.  0.
          5    1    3    3  502    0 -0.70831694361E-01 -0.42133655797E+02 -0.55797518201E+01  0.42706627100E+02  0.41800000000E+01 0. -1.
         -5    1    3    3    0  502 -0.21967181984E+02  0.89443954672E+02  0.12149703407E+02  0.92993901975E+02  0.41800000000E+01 0. -1.
        -11    1    4    4    0    0 -0.94458496668E+01 -0.24713024256E+02  0.31508843857E+02  0.41143224048E+02  0.00000000000E+00 0.  1.
         11    1    4    4    0    0  0.31483863345E+02 -0.22597274619E+02 -0.51356474696E+02  0.64337842399E+02  0.00000000000E+00 0. -1.
</event>
<event>
 8    1  0.7016814E-009  0.1170169E+03  0.7561462E-02  0.1248101E+00
          2   -1    0    0  501    0  0.00000000000E+00  0.00000000000E+00  0.35678492225E+03  0.35678492225E+03  0.00000000000E+00 0. -1.
         -2   -1    0    0    0  501 -0.00000000000E+00 -0.00000000000E+00 -0.42058912448E+02  0.42058912448E+02  0.00000000000E+00 0.  1.
         25    2    1    2    0    0 -0.10478472996E+02  0.44368861609E+02  0.23132712198E+03  0.26690460541E+03  0.12508971479E+03 0.  0.
         23    2    1    2    0    0  0.10478472996E+02 -0.44368861609E+02  0.83398887821E+02  0.13193922929E+03  0.91510608450E+02 0.  0.
          5    1    3    3  502    0  0.54302692414E+02  0.23846791425E+01  0.77633543676E+02  0.94862577457E+02  0.41800000000E+01 0. -1.
         -5    1    3    3    0  502 -0.64781165411E+02  0.41984182467E+02  0.15369357830E+03  0.17204202795E+03  0.41800000000E+01 0. -1.
        -11    1    4    4    0    0 -0.13307682837E+02 -0.67637490953E+02  0.54769344918E+02  0.88043203870E+02  0.00000000000E+00 0. -1.
         11    1    4    4    0    0  0.23786155833E+02  0.23268629344E+02  0.28629542903E+02  0.43896025420E+02  0.00000000000E+00 0.  1.
</event>
<event>
 8    1  0.7016814E-009  0.9495112E+02  0.7561462E-02  0.1291286E+00
          4   -1    0    0  501    0  0.00000000000E+00  0.00000000000E+00  0.12681035722E+03  0.12681035722E+03  0.00000000000E+00 0.  1.
         -4   -1    0    0    0  501 -0.00000000000E+00 -0.00000000000E+00 -0.12039160187E+03  0.12039160187E+03  0.00000000000E+00 0. -1.
         25    2    1    2    0    0  0.97280173824E+01  0.55192321654E+02  0.20311732381E+02  0.13856452991E+03  0.12508691293E+03 0.  0.
         23    2    1    2    0    0 -0.97280173824E+01 -0.55192321654E+02 -0.13892977038E+02  0.10863742918E+03  0.92023092297E+02 0.  0.
          5    1    3    3  502    0 -0.21984923724E+02  0.54464857274E+02 -0.39380386520E+02  0.70838159148E+02  0.41800000000E+01 0.  1.
         -5    1    3    3    0  502  0.31712941107E+02  0.72746437987E+00  0.59692118902E+02  0.67726370765E+02  0.41800000000E+01 0.  1.
        -11    1    4    4    0    0  0.26668472016E+02  0.64506335418E+01 -0.23859926317E+02  0.36360887731E+02  0.00000000000E+00 0. -1.
         11    1    4    4    0    0 -0.36396489398E+02 -0.61642955195E+02  0.99669492790E+01  0.72276541448E+02  0.00000000000E+00 0.  1.
</event>
<event>
 8    1  0.7016814E-009  0.1267730E+03  0.7561462E-02  0.1232324E+00
         -1   -1    0    0    0  501 -0.00000000000E+00  0.00000000000E+00  0.41429629920E+03  0.41429629920E+03  0.00000000000E+00 0.  1.
          1   -1    0    0  501    0  0.00000000000E+00 -0.00000000000E+00 -0.58591288419E+02  0.58591288419E+02  0.00000000000E+00 0. -1.
         25    2    1    2    0    0  0.90436269039E+02 -0.62503314221E+02  0.19047594231E+03  0.25300964620E+03  0.12508962156E+03 0.  0.
         23    2    1    2    0    0 -0.90436269039E+02  0.62503314221E+02  0.16522906847E+03  0.21987794142E+03  0.94658760873E+02 0.  0.
          5    1    3    3  502    0  0.85529446002E+02 -0.60326795601E+02  0.20872471531E+03  0.23353391099E+03  0.41800000000E+01 0. -1.
         -5    1    3    3    0  502  0.49068230373E+01 -0.21765186197E+01 -0.18248773003E+02  0.19475735204E+02  0.41800000000E+01 0. -1.
        -11    1    4    4    0    0  0.16301269124E+02  0.22980244917E+02  0.53053503190E+02  0.60070768534E+02  0.00000000000E+00 0. -1.
         11    1    4    4    0    0 -0.10673753816E+03  0.39523069304E+02  0.11217556528E+03  0.15980717289E+03  0.00000000000E+00 0.  1.
</event>
<event>
 8    1  0.7016814E-009  0.1121307E+03  0.7561462E-02  0.1256674E+00
          2   -1    0    0  501    0  0.00000000000E+00  0.00000000000E+00  0.63340995666E+03  0.63340995666E+03  0.00000000000E+00 0. -1.
         -2   -1    0    0    0  501 -0.00000000000E+00 -0.00000000000E+00 -0.24413075644E+02  0.24413075644E+02  0.00000000000E+00 0.  1.
         25    2    1    2    0    0  0.57982514650E+02  0.49362326273E+01  0.40702727013E+03  0.42977307303E+03  0.12508939715E+03 0.  0.
         23    2    1    2    0    0 -0.57982514650E+02 -0.49362326273E+01  0.20196961089E+03  0.22804995928E+03  0.88480064440E+02 0.  0.
          5    1    3    3  502    0  0.28253958265E+02  0.53861835740E+02  0.31837467525E+03  0.32415935857E+03  0.41800000000E+01 0.  1.
         -5    1    3    3    0  502  0.29728556384E+02 -0.48925603113E+02  0.88652594874E+02  0.10561371446E+03  0.41800000000E+01 0.  1.
        -11    1    4    4    0    0 -0.19716604407E+02 -0.45828222767E+02  0.96528983669E+02  0.10865916979E+03  0.00000000000E+00 0.  1.
         11    1    4    4    0    0 -0.38265910243E+02  0.40891990140E+02  0.10544062723E+03  0.11939078949E+03  0.00000000000E+00 0. -1.
</event>
<event>
 8    1  0.7016814E-009  0.1480337E+03  0.7561462E-02  0.1202910E+00
         -3   -1    0    0    0  501 -0.00000000000E+00  0.00000000000E+00  0.52550774799E+02  0.52550774799E+02  0.00000000000E+00 0.  1.
          3   -1    0    0  501    0  0.00000000000E+00 -0.00000000000E+00 -0.43607604316E+03  0.43607604316E+03  0.00000000000E+00 0. -1.
         25    2    1    2    0    0 -0.89921231285E+02  0.46192345458E+02 -0.15687446795E+03  0.22466617763E+03  0.12508290076E+03 0.  0.
         23    2    1    2    0    0  0.89921231285E+02 -0.46192345458E+02 -0.22665080041E+03  0.26396064033E+03  0.89917037881E+02 0.  0.
          5    1    3    3  502    0 -0.21906172300E+01  0.69693448684E+02 -0.65282565056E+02  0.95609943487E+02  0.41800000000E+01 0. -1.
         -5    1    3    3    0  502 -0.87730614055E+02 -0.23501103226E+02 -0.91591902892E+02  0.12905623414E+03  0.41800000000E+01 0. -1.
        -11    1    4    4    0    0 -0.23300296389E+01 -0.42922048262E+02 -0.71817573770E+02  0.83698836117E+02  0.00000000000E+00 0.  1.
         11    1    4    4    0    0  0.92251260923E+02 -0.32702971966E+01 -0.15483322664E+03  0.18026180421E+03  0.00000000000E+00 0. -1.
</event>
<event>
 8    1  0.7016814E-009  0.9075787E+02  0.7561462E-02  0.1301027E+00
         -2   -1    0    0    0  501 -0.00000000000E+00  0.00000000000E+00  0.38492569219E+02  0.38492569219E+02  0.00000000000E+00 0. -1.
          2   -1    0    0  501    0  0.00000000000E+00 -0.00000000000E+00 -0.36929236812E+03  0.36929236812E+03  0.00000000000E+00 0.  1.
         25    2    1    2    0    0 -0.21415181323E+02 -0.31100470999E+02 -0.21501382577E+03  0.25160320661E+03  0.12508948405E+03 0.  0.
         23    2    1    2    0    0  0.21415181323E+02  0.31100470999E+02 -0.11578597313E+03  0.15618173073E+03  0.97777769206E+02 0.  0.
          5    1    3    3  502    0 -0.56579436418E+02  0.25778616923E+01 -0.38906141854E+02  0.68840673081E+02  0.41800000000E+01 0.  1.
         -5    1    3    3    0  502  0.35164255095E+02 -0.33678332691E+02 -0.17610768391E+03  0.18276253353E+03  0.41800000000E+01 0.  1.
        -11    1    4    4    0    0 -0.20120845626E+02  0.27620934989E+02 -0.11375166304E+01  0.34191496347E+02  0.00000000000E+00 0. -1.
         11    1    4    4    0    0  0.41536026948E+02  0.34795360093E+01 -0.11464845650E+03  0.12199023438E+03  0.00000000000E+00 0.  1.
</event>
<event>
 8    1  0.7016814E-009  0.1219096E+03  0.7561462E-02  0.1239980E+00
         -2   -1    0    0    0  501 -0.00000000000E+00  0.00000000000E+00  0.66318564750E+02  0.66318564750E+02  0.00000000000E+00 0.  1.
          2   -1    0    0  501    0  0.00000000000E+00 -0.00000000000E+00 -0.29554647097E+03  0.29554647097E+03  0.00000000000E+00 0. -1.
         25    2    1    2    0    0 -0.57395487415E+02 -0.66214816446E+02 -0.13311903950E+03  0.20259644874E+03  0.12508396568E+03 0.  0.
         23    2    1    2    0    0  0.57395487415E+02  0.66214816446E+02 -0.96108866720E+02  0.15926858698E+03  0.91928910821E+02 0.  0.
          5    1    3    3  502    0  0.34109297072E+02 -0.39515848846E+02 -0.23878152832E+02  0.57555060937E+02  0.41800000000E+01 0. -1.
         -5    1    3    3    0  502 -0.91504784487E+02 -0.26698967600E+02 -0.10924088667E+03  0.14504138780E+03  0.41800000000E+01 0. -1.
        -11    1    4    4    0    0  0.23735816819E+02  0.56064987510E+02 -0.10644297087E+03  0.12262454025E+03  0.00000000000E+00 0. -1.
         11    1    4    4    0    0  0.33659670596E+02  0.10149828936E+02  0.10334104151E+02  0.36644046729E+02  0.00000000000E+00 0.  1.
</event>
<event>
 8    1  0.7016814E-009  0.1024873E+03  0.7561462E-02  0.1275151E+00
         -1   -1    0    0    0  501 -0.00000000000E+00  0.00000000000E+00  0.11805088199E+03  0.11805088199E+03  0.00000000000E+00 0.  1.
          1   -1    0    0  501    0  0.00000000000E+00 -0.00000000000E+00 -0.14848275173E+03  0.14848275173E+03  0.00000000000E+00 0. -1.
         25    2    1    2    0    0  0.61004949478E+02 -0.26049649666E+02  0.22190465286E+02  0.14331322624E+03  0.12508427542E+03 0.  0.
         23    2    1    2    0    0 -0.61004949478E+02  0.26049649666E+02 -0.52622335025E+02  0.12322040749E+03  0.89520782891E+02 0.  0.
          5    1    3    3  502    0  0.49855422086E+02  0.15205261493E+02  0.64499171176E+02  0.83032394707E+02  0.41800000000E+01 0. -1.
         -5    1    3    3    0  502  0.11149527392E+02 -0.41254911160E+02 -0.42308705890E+02  0.60280831530E+02  0.41800000000E+01 0. -1.
        -11    1    4    4    0    0  0.22797260928E+02  0.49632520039E+01 -0.28700905187E+01  0.23507156269E+02  0.00000000000E+00 0.  1.
         11    1    4    4    0    0 -0.83802210406E+02  0.21086397663E+02 -0.49752244507E+02  0.99713251219E+02  0.00000000000E+00 0. -1.
</event>
<event>
 8    1  0.7016814E-009  0.1368291E+03  0.7561462E-02  0.1217660E+00
          2   -1    0    0  501    0  0.00000000000E+00  0.00000000000E+00  0.10376545119E+04  0.10376545119E+04  0.00000000000E+00 0. -1.
         -2   -1    0    0    0  501 -0.00000000000E+00 -0.00000000000E+00 -0.26133278926E+02  0.26133278926E+02  0.00000000000E+00 0.  1.
         25    2    1    2    0    0 -0.52460513798E+02  0.82222819402E+02  0.81498904983E+03  0.83028154786E+03  0.12509036668E+03 0.  0.
         23    2    1    2    0    0  0.52460513798E+02 -0.82222819402E+02  0.19653218319E+03  0.23350624301E+03  0.79922268220E+02 0.  0.
          5    1    3    3  502    0 -0.89669611945E+02  0.44611792560E+02  0.62628992437E+03  0.63426129719E+03  0.41800000000E+01 0. -1.
         -5    1    3    3    0  502  0.37209098147E+02  0.37611026843E+02  0.18869912546E+03  0.19602025068E+03  0.41800000000E+01 0. -1.
        -11    1    4    4    0    0  0.66266989336E+02 -0.43586716466E+02  0.93531436895E+02  0.12263460122E+03  0.00000000000E+00 0.  1.
         11    1    4    4    0    0 -0.13806475538E+02 -0.38636102937E+02  0.10300074629E+03  0.11087164179E+03  0.00000000000E+00 0. -1.
</event>
<event>
 8    1  0.7016814E-009  0.1521314E+03  0.7561462E-02  0.1197878E+00
          2   -1    0    0  501    0  0.00000000000E+00  0.00000000000E+00  0.93660553094E+02  0.93660553094E+02  0.00000000000E+00 0. -1.
         -2   -1    0    0    0  501 -0.00000000000E+00 -0.00000000000E+00 -0.36511756001E+03  0.36511756001E+03  0.00000000000E+00 0.  1.
         25    2    1    2    0    0 -0.54786135937E+01 -0.10760920161E+03 -0.26942740753E+03  0.31599153528E+03  0.12509902863E+03 0.  0.
         23    2    1    2    0    0  0.54786135937E+01  0.10760920161E+03 -0.20295993793E+01  0.14278657782E+03  0.93670337109E+02 0.  0.
          5    1    3    3  502    0  0.16452944888E+02 -0.12988578938E+03 -0.19240602407E+03  0.23276290121E+03  0.41800000000E+01 0.  1.
         -5    1    3    3    0  502 -0.21931558481E+02  0.22276587773E+02 -0.77021383461E+02  0.83228634078E+02  0.41800000000E+01 0.  1.
        -11    1    4    4    0    0 -0.17580852282E+02 -0.11108851484E+02  0.58193527652E+01  0.21595319281E+02  0.00000000000E+00 0. -1.
         11    1    4    4    0    0  0.23059465876E+02  0.11871805309E+03 -0.78489521445E+01  0.12119125854E+03  0.00000000000E+00 0.  1.
</event>
<event>
 8    1  0.7016814E-009  0.1167577E+03  0.7561462E-02  0.1248544E+00
         -1   -1    0    0    0  501 -0.00000000000E+00  0.00000000000E+00  0.75082294055E+02  0.75082294055E+02  0.00000000000E+00 0.  1.
          1   -1    0    0  501    0  0.00000000000E+00 -0.00000000000E+00 -0.28173794347E+03  0.28173794347E+03  0.00000000000E+00 0. -1.
         25    2    1    2    0    0  0.55160489218E+01 -0.52872260626E+02 -0.21494144772E+03  0.25431070132E+03  0.12509278204E+03 0.  0.
         23    2    1    2    0    0 -0.55160489218E+01  0.52872260626E+02  0.82857983131E+01  0.10250953620E+03  0.87256219368E+02 0.  0.
          5    1    3    3  502    0  0.33738757047E+01  0.39980916332E+02 -0.43800370234E+02  0.59546633328E+02  0.41800000000E+01 0. -1.
         -5    1    3    3    0  502  0.21421732171E+01 -0.92853176958E+02 -0.17114107749E+03  0.19476406799E+03  0.41800000000E+01 0. -1.
        -11    1    4    4    0    0 -0.15186954012E+02  0.74753353305E+02  0.14827699247E+02  0.77708223937E+02  0.00000000000E+00 0.  1.
         11    1    4    4    0    0  0.96709050899E+01 -0.21881092678E+02 -0.65419009334E+01  0.24801312261E+02  0.00000000000E+00 0. -1.
</event>
<event>
 8    1  0.7016814E-009  0.1006384E+03  0.7561462E-02  0.1278959E+00
         -1   -1    0    0    0  501 -0.00000000000E+00  0.00000000000E+00  0.15494971546E+02  0.15494971546E+02  0.00000000000E+00 0.  1.
          1   -1    0    0  501    0  0.00000000000E+00 -0.00000000000E+00 -0.12684508849E+04  0.12684508849E+04  0.00000000000E+00 0. -1.
         25    2    1    2    0    0 -0.10149088770E+02 -0.58589511425E+02 -0.98226359057E+03  0.99198016071E+03  0.12508854074E+03 0.  0.
         23    2    1    2    0    0  0.10149088770E+02  0.58589511425E+02 -0.27069232277E+03  0.29196569573E+03  0.91836262024E+02 0.  0.
          5    1    3    3  502    0 -0.13389236476E+02 -0.87595064246E+02 -0.43663570984E+03  0.44555626181E+03  0.41800000000E+01 0.  1.
         -5    1    3    3    0  502  0.32401477061E+01  0.29005552820E+02 -0.54562788073E+03  0.54642389890E+03  0.41800000000E+01 0.  1.
        -11    1    4    4    0    0 -0.54803264988E+01 -0.10716034161E+02  0.71284346524E-01  0.12036297111E+02  0.00000000000E+00 0.  1.
         11    1    4    4    0    0  0.15629415268E+02  0.69305545586E+02 -0.27076360712E+03  0.27992939862E+03  0.00000000000E+00 0. -1.
</event>
<event>
 8    1  0.7016814E-009  0.1982449E+03  0.7561462E-02  0.1151228E+00
          1   -1    0    0  501    0  0.00000000000E+00  0.00000000000E+00  0.73867074712E+03  0.73867074712E+03  0.00000000000E+00 0. -1.
         -1   -1    0    0    0  501 -0.00000000000E+00 -0.00000000000E+00 -0.67465833270E+02  0.67465833270E+02  0.00000000000E+00 0.  1.
         25    2    1    2    0    0 -0.17125116422E+03  0.12894666229E+00  0.51584295167E+03  0.55773603414E+03  0.12509418495E+03 0.  0.
         23    2    1    2    0    0  0.17125116422E+03 -0.12894666229E+00  0.15536196218E+03  0.24840054626E+03  0.90766261425E+02 0.  0.
          5    1    3    3  502    0  0.19637550914E+02  0.36803416069E+01  0.37768873718E+02  0.42931789413E+02  0.41800000000E+01 0. -1.
         -5    1    3    3    0  502 -0.19088871514E+03 -0.35513949446E+01  0.47807407795E+03  0.51480424472E+03  0.41800000000E+01 0. -1.
        -11    1    4    4    0    0  0.80220171561E+02  0.35017519835E+02  0.11059409497E+03  0.14104097441E+03  0.00000000000E+00 0. -1.
         11    1    4    4    0    0  0.91030992663E+02 -0.35146466497E+02  0.44767867211E+02  0.10735957185E+03  0.00000000000E+00 0.  1.
</event>
<event>
 8    1  0.7016814E-009  0.9516264E+02  0.7561462E-02  0.1290810E+00
          2   -1    0    0  501    0  0.00000000000E+00  0.00000000000E+00  0.37240460689E+03  0.37240460689E+03  0.00000000000E+00 0. -1.
         -2   -1    0    0    0  501 -0.00000000000E+00 -0.00000000000E+00 -0.41241291059E+02  0.41241291059E+02  0.00000000000E+00 0.  1.
         25    2    1    2    0    0  0.20678516968E+02  0.53582963654E+02  0.18145229887E+03  0.22775354521E+03  0.12509198827E+03 0.  0.
         23    2    1    2    0    0 -0.20678516968E+02 -0.53582963654E+02  0.14971101695E+03  0.18589235274E+03  0.94041709638E+02 0.  0.
          5    1    3    3  502    0 -0.17886757528E+02  0.19851757371E+01  0.15799368351E+03  0.15907027832E+03  0.41800000000E+01 0. -1.
         -5    1    3    3    0  502  0.38565274496E+02  0.51597787917E+02  0.23458615367E+02  0.68683266884E+02  0.41800000000E+01 0. -1.
        -11    1    4    4    0    0  0.23236232160E+02  0.13682332194E+02  0.21033514853E+02  0.34198500644E+02  0.00000000000E+00 0.  1.
         11    1    4    4    0    0 -0.43914749128E+02 -0.67265295848E+02  0.12867750210E+03  0.15169385209E+03  0.00000000000E+00 0. -1.
</event>
<event>
 8    1  0.7016814E-009  0.9109843E+02  0.7561462E-02  0.1300213E+00
          1   -1    0    0  501    0  0.00000000000E+00  0.00000000000E+00  0.15987154839E+03  0.15987154839E+03  0.00000000000E+00 0. -1.
         -1   -1    0    0    0  501 -0.00000000000E+00 -0.00000000000E+00 -0.13495546704E+03  0.13495546704E+03  0.00000000000E+00 0.  1.
         25    2    1    2    0    0  0.54141181530E+02 -0.23696332238E+02 -0.60201028605E+02  0.15087873112E+03  0.12508974362E+03 0.  0.
         23    2    1    2    0    0 -0.54141181530E+02  0.23696332238E+02  0.85117109951E+02  0.14394828431E+03  0.99916977791E+02 0.  0.
          5    1    3    3  502    0 -0.29145219621E+02 -0.97696433739E+01  0.17869222679E+02  0.35800436835E+02  0.41800000000E+01 0. -1.
         -5    1    3    3    0  502  0.83286401151E+02 -0.13926688864E+02 -0.78070251284E+02  0.11507829428E+03  0.41800000000E+01 0. -1.
        -11    1    4    4    0    0 -0.10280708057E+02  0.20154964506E+02 -0.19870345071E+02  0.30112226182E+02  0.00000000000E+00 0.  1.
         11    1    4    4    0    0 -0.43860473473E+02  0.35413677318E+01  0.10498745502E+03  0.11383605813E+03  0.00000000000E+00 0. -1.
</event>
<event>
 8    1  0.7016814E-009  0.1040933E+03  0.7561462E-02  0.1271916E+00
          1   -1    0    0  501    0  0.00000000000E+00  0.00000000000E+00  0.26404250319E+03  0.26404250319E+03  0.00000000000E+00 0.  1.
         -1   -1    0    0    0  501 -0.00000000000E+00 -0.00000000000E+00 -0.10924763281E+03  0.10924763281E+03  0.00000000000E+00 0. -1.
         25    2    1    2    0    0  0.66724525433E+01 -0.34051808176E+02 -0.53574361279E+02  0.14043187002E+03  0.12508737214E+03 0.  0.
         23    2    1    2    0    0 -0.66724525433E+01  0.34051808176E+02  0.20836923165E+03  0.23285826598E+03  0.97985652387E+02 0.  0.
          5    1    3    3  502    0 -0.25871607809E+02  0.26647463777E+02 -0.60470121733E+02  0.71088222927E+02  0.41800000000E+01 0.  1.
         -5    1    3    3    0  502  0.32544060353E+02 -0.60699271954E+02  0.68957604541E+01  0.69343647093E+02  0.41800000000E+01 0.  1.
        -11    1    4    4    0    0 -0.43398648735E+02  0.45951232072E+02  0.15115192316E+03  0.16383486295E+03  0.00000000000E+00 0. -1.
         11    1    4    4    0    0  0.36726196192E+02 -0.11899423895E+02  0.57217308485E+02  0.69023403031E+02  0.00000000000E+00 0.  1.
</event>
<event>
 8    1  0.7016814E-009  0.1037766E+03  0.7561462E-02  0.1272549E+00
         -1   -1    0    0    0  501 -0.00000000000E+00  0.00000000000E+00  0.26192898966E+02  0.26192898966E+02  0.00000000000E+00 0.  1.
          1   -1    0    0  501    0  0.00000000000E+00 -0.00000000000E+00 -0.60235588060E+03  0.60235588060E+03  0.00000000000E+00 0. -1.
         25    2    1    2    0    0 -0.39149256197E+02 -0.26444479740E+02 -0.43118205508E+03  0.45143844113E+03  0.12508687677E+03 0.  0.
         23    2    1    2    0    0  0.39149256197E+02  0.26444479740E+02 -0.14498092656E+03  0.17711033844E+03  0.90092331225E+02 0.  0.
          5    1    3    3  502    0 -0.10453364863E+02 -0.60469979203E+02 -0.10108754893E+03  0.11833028425E+03  0.41800000000E+01 0. -1.
         -5    1    3    3    0  502 -0.28695891334E+02  0.34025499464E+02 -0.33009450614E+03  0.33310815688E+03  0.41800000000E+01 0. -1.
        -11    1    4    4    0    0  0.47917106573E+02 -0.21556413077E+02 -0.82895829937E+02  0.98145028749E+02  0.00000000000E+00 0.  1.
         11    1    4    4    0    0 -0.87678503758E+01  0.48000892817E+02 -0.62085096621E+02  0.78965309687E+02  0.00000000000E+00 0. -1.
</event>
<event>
 8    1  0.7016814E-009  0.8317059E+02  0.7561462E-02  0.1320287E+00
         -1   -1    0    0    0  501 -0.00000000000E+00  0.00000000000E+00  0.43727145956E+02  0.43727145956E+02  0.00000000000E+00 0.  1.
          1   -1    0    0  501    0  0.00000000000E+00 -0.00000000000E+00 -0.49388387958E+03  0.49388387958E+03  0.00000000000E+00 0. -1.
         25    2    1    2    0    0  0.66722389293E+02 -0.89722819958E+01 -0.11130501692E+03  0.18045798634E+03  0.12507557302E+03 0.  0.
         23    2    1    2    0    0 -0.66722389293E+02  0.89722819958E+01 -0.33885171670E+03  0.35715303919E+03  0.90583819837E+02 0.  0.
          5    1    3    3  502    0  0.11788166681E+02 -0.18830510549E+01  0.27870886707E+02  0.30606624787E+02  0.41800000000E+01 0.  1.
         -5    1    3    3    0  502  0.54934222612E+02 -0.70892309409E+01 -0.13917590363E+03  0.14985136155E+03  0.41800000000E+01 0.  1.
        -11    1    4    4    0    0 -0.52697063760E+02  0.38629475772E+02 -0.29632377499E+03  0.30344191628E+03  0.00000000000E+00 0. -1.
         11    1    4    4    0    0 -0.14025325533E+02 -0.29657193777E+02 -0.42527941707E+02  0.53711122916E+02  0.00000000000E+00 0.  1.
</event>
<event>
 8    1  0.7016814E-009  0.1060083E+03  0.7561462E-02  0.1268146E+00
          1   -1    0    0  501    0  0.00000000000E+00  0.00000000000E+00  0.26356357761E+03  0.26356357761E+03  0.00000000000E+00 0. -1.
         -1   -1    0    0    0  501 -0.00000000000E+00 -0.00000000000E+00 -0.47692039209E+02  0.47692039209E+02  0.00000000000E+00 0.  1.
         25    2    1    2    0    0  0.26888559358E+02  0.70783775498E+01  0.13037009993E+03  0.18280121793E+03  0.12508726660E+03 0.  0.
         23    2    1    2    0    0 -0.26888559358E+02 -0.70783775498E+01  0.85501438469E+02  0.12845439889E+03  0.91743874789E+02 0.  0.
          5    1    3    3  502    0  0.74636617233E+02 -0.53797218056E+01  0.56461072938E+02  0.93834381737E+02  0.41800000000E+01 0.  1.
         -5    1    3    3    0  502 -0.47748057875E+02  0.12458099355E+02  0.73909026993E+02  0.88966836189E+02  0.41800000000E+01 0.  1.
        -11    1    4    4    0    0  0.20080970882E+02 -0.29351505042E+02  0.10281319134E+02  0.37019748283E+02  0.00000000000E+00 0.  1.
         11    1    4    4    0    0 -0.46969530240E+02  0.22273127492E+02  0.75220119335E+02  0.91434650609E+02  0.00000000000E+00 0. -1.
</event>
<event>
 8    1  0.7016814E-009  0.1051857E+03  0.7561462E-02  0.1269754E+00
          2   -1    0    0  501    0  0.00000000000E+00  0.00000000000E+00  0.54846177183E+02  0.54846177183E+02  0.00000000000E+00 0. -1.
         -2   -1    0    0    0  501 -0.00000000000E+00 -0.00000000000E+00 -0.23693902333E+03  0.23693902333E+03  0.00000000000E+00 0.  1.
         25    2    1    2    0    0  0.34198441144E+00 -0.29761105671E+02 -0.13003021843E+03  0.18286860953E+03  0.12508888952E+03 0.  0.
         23    2    1    2    0    0 -0.34198441144E+00  0.29761105671E+02 -0.52062627716E+02  0.10891659098E+03  0.90920109012E+02 0.  0.
          5    1    3    3  502    0  0.55839415708E+02  0.13732976109E+02 -0.64592829359E+02  0.86581412462E+02  0.41800000000E+01 0.  1.
         -5    1    3    3    0  502 -0.55497431296E+02 -0.43494081780E+02 -0.65437389071E+02  0.96287197066E+02  0.41800000000E+01 0.  1.
        -11    1    4    4    0    0  0.17278577989E+02  0.51371000752E+02 -0.52809819676E+01  0.54455649350E+02  0.00000000000E+00 0.  1.
         11    1    4    4    0    0 -0.17620562400E+02 -0.21609895081E+02 -0.46781645748E+02  0.54460941634E+02  0.00000000000E+00 0. -1.
</event>
<event>
 8    1  0.7016814E-009  0.9720165E+02  0.7561462E-02  0.1286293E+00
         -2   -1    0    0    0  501 -0.00000000000E+00  0.00000000000E+00  0.85010175991E+01  0.85010175991E+01  0.00000000000E+00 0.  1.
          2   -1    0    0  501    0  0.00000000000E+00 -0.00000000000E+00 -0.23761601447E+04  0.23761601447E+04  0.00000000000E+00 0. -1.
         25    2    1    2    0    0  0.45740865148E+02 -0.37151693093E+02 -0.18750509152E+04  0.18801426528E+04  0.12509190759E+03 0.  0.
         23    2    1    2    0    0 -0.45740865148E+02  0.37151693093E+02 -0.49260821191E+03  0.50451850948E+03  0.91671156443E+02 0.  0.
          5    1    3    3  502    0 -0.97992055855E+01  0.13386008760E+02 -0.13096463941E+04  0.13097581302E+04  0.41800000000E+01 0. -1.
         -5    1    3    3    0  502  0.55540070733E+02 -0.50537701852E+02 -0.56540452106E+03  0.57038452258E+03  0.41800000000E+01 0. -1.
        -11    1    4    4    0    0 -0.66138761919E+02  0.81618179088E+01 -0.39692786412E+03  0.40248314302E+03  0.00000000000E+00 0. -1.
         11    1    4    4    0    0  0.20397896771E+02  0.28989875184E+02 -0.95680347797E+02  0.10203536647E+03  0.00000000000E+00 0.  1.
</event>
<event>
 8    1  0.7016814E-009  0.1088002E+03  0.7561462E-02  0.1262808E+00
         -1   -1    0    0    0  501 -0.00000000000E+00  0.00000000000E+00  0.11369247333E+03  0.11369247333E+03  0.00000000000E+00 0.  1.
          1   -1    0    0  501    0  0.00000000000E+00 -0.00000000000E+00 -0.15152747489E+03  0.15152747489E+03  0.00000000000E+00 0. -1.
         25    2    1    2    0    0  0.14060354405E+02 -0.71912883647E+02 -0.35269165516E+02  0.14920166262E+03  0.12509222874E+03 0.  0.
         23    2    1    2    0    0 -0.14060354405E+02  0.71912883647E+02 -0.25658360397E+01  0.11601828560E+03  0.89913862549E+02 0.  0.
          5    1    3    3  502    0  0.64218956818E+02 -0.63905102118E+02 -0.71049884626E+01  0.90971917384E+02  0.41800000000E+01 0.  1.
         -5    1    3    3    0  502 -0.50158602413E+02 -0.80077815289E+01 -0.28164177054E+02  0.58229745235E+02  0.41800000000E+01 0.  1.
        -11    1    4    4    0    0 -0.19215842082E+02  0.58246116897E+02 -0.41753315300E+02  0.74197021901E+02  0.00000000000E+00 0. -1.
         11    1    4    4    0    0  0.51554876771E+01  0.13666766750E+02  0.39187479260E+02  0.41821263698E+02  0.00000000000E+00 0.  1.
</event>
<event>
 8    1  0.7016814E-009  0.1088295E+03  0.7561462E-02  0.1262753E+00
          2   -1    0    0  501    0  0.00000000000E+00  0.00000000000E+00  0.31705085081E+03  0.31705085081E+03  0.00000000000E+00 0.  1.
         -2   -1    0    0    0  501 -0.00000000000E+00 -0.00000000000E+00 -0.38588351023E+02  0.38588351023E+02  0.00000000000E+00 0. -1.
         25    2    1    2    0    0 -0.16989559350E+02 -0.57560189882E+01  0.17635939808E+03  0.21696286106E+03  0.12509384040E+03 0.  0.
         23    2    1    2    0    0  0.16989559350E+02  0.57560189882E+01  0.10210310170E+03  0.13867634077E+03  0.92110299264E+02 0.  0.
          5    1    3    3  502    0  0.29417606438E+02 -0.52196572315E+02  0.94079169061E+02  0.11161648705E+03  0.41800000000E+01 0.  1.
         -5    1    3    3    0  502 -0.46407165788E+02  0.46440553327E+02  0.82280229019E+02  0.10534637401E+03  0.41800000000E+01 0.  1.
        -11    1    4    4    0    0 -0.13510767777E+02  0.42187576464E+02  0.63672773289E+02  0.77566452234E+02  0.00000000000E+00 0.  1.
         11    1    4    4    0    0  0.30500327127E+02 -0.36431557476E+02  0.38430328416E+02  0.61109888537E+02  0.00000000000E+00 0. -1.
</event>
<event>
 8    1  0.7016814E-009  0.1012376E+03  0.7561462E-02  0.1277715E+00
         -2   -1    0    0    0  501 -0.00000000000E+00  0.00000000000E+00  0.76985789685E+01  0.76985789685E+01  0.00000000000E+00 0. -1.
          2   -1    0    0  501    0  0.00000000000E+00 -0.00000000000E+00 -0.23013121924E+04  0.23013121924E+04  0.00000000000E+00 0.  1.
         25    2    1    2    0    0 -0.23676736763E+02 -0.52743047728E+01 -0.18550764484E+04  0.18594476955E+04  0.12509475156E+03 0.  0.
         23    2    1    2    0    0  0.23676736763E+02  0.52743047728E+01 -0.43853716505E+03  0.44956307585E+03  0.95935957204E+02 0.  0.
          5    1    3    3  502    0 -0.50952774948E+02  0.30236740527E+02 -0.15434994917E+04  0.15446419000E+04  0.41800000000E+01 0. -1.
         -5    1    3    3    0  502  0.27276038185E+02 -0.35511045300E+02 -0.31157695662E+03  0.31480579552E+03  0.41800000000E+01 0. -1.
        -11    1    4    4    0    0  0.57754701281E+02 -0.13341723126E+02 -0.29291615327E+03  0.29885360956E+03  0.00000000000E+00 0. -1.
         11    1    4    4    0    0 -0.34077964517E+02  0.18616027899E+02 -0.14562101178E+03  0.15070946630E+03  0.00000000000E+00 0.  1.
</event>
<event>
 8    1  0.7016814E-009  0.9514120E+02  0.7561462E-02  0.1290858E+00
         -3   -1    0    0    0  501 -0.00000000000E+00  0.00000000000E+00  0.42465726624E+03  0.42465726624E+03  0.00000000000E+00 0.  1.
          3   -1    0    0  501    0  0.00000000000E+00 -0.00000000000E+00 -0.29249159177E+02  0.29249159177E+02  0.00000000000E+00 0. -1.
         25    2    1    2    0    0 -0.16829670428E+02  0.16731226211E+02  0.25588862726E+03  0.28581403550E+03  0.12508997399E+03 0.  0.
         23    2    1    2    0    0  0.16829670428E+02 -0.16731226211E+02  0.13951947981E+03  0.16809238992E+03  0.90698371350E+02 0.  0.
          5    1    3    3  502    0 -0.11128614689E+02 -0.49529035128E+02  0.58950075120E+02  0.77907349732E+02  0.41800000000E+01 0.  1.
         -5    1    3    3    0  502 -0.57010557394E+01  0.66260261339E+02  0.19693855214E+03  0.20790668577E+03  0.41800000000E+01 0.  1.
        -11    1    4    4    0    0  0.28429164103E+02  0.19627358953E+02  0.12068820882E+03  0.12553523147E+03  0.00000000000E+00 0.  1.
         11    1    4    4    0    0 -0.11599493675E+02 -0.36358585163E+02  0.18831270990E+02  0.42557158454E+02  0.00000000000E+00 0. -1.
</event>
<event>
 8    1  0.7016814E-009  0.8776526E+02  0.7561462E-02  0.1308355E+00
         -2   -1    0    0    0  501 -0.00000000000E+00  0.00000000000E+00  0.47627090648E+02  0.47627090648E+02  0.00000000000E+00 0.  1.
          2   -1    0    0  501    0  0.00000000000E+00 -0.00000000000E+00 -0.36082387477E+03  0.36082387477E+03  0.00000000000E+00 0. -1.
         25    2    1    2    0    0 -0.20645605005E+02  0.70069969769E+02 -0.15977487782E+03  0.21566537075E+03  0.12508996319E+03 0.  0.
         23    2    1    2    0    0  0.20645605005E+02 -0.70069969769E+02 -0.15342190631E+03  0.19278559467E+03  0.91060213626E+02 0.  0.
          5    1    3    3  502    0  0.15244388281E+02  0.63239614439E+01  0.17150978311E+02  0.24166346836E+02  0.41800000000E+01 0.  1.
         -5    1    3    3    0  502 -0.35889993285E+02  0.63746008325E+02 -0.17692585613E+03  0.19149902392E+03  0.41800000000E+01 0.  1.
        -11    1    4    4    0    0 -0.30575661631E+01 -0.58984641440E+02 -0.29293610529E+02  0.65929145713E+02  0.00000000000E+00 0.  1.
         11    1    4    4    0    0  0.23703171168E+02 -0.11085328329E+02 -0.12412829578E+03  0.12685644895E+03  0.00000000000E+00 0. -1.
</event>
<event>
 8    1  0.7016814E-009  0.1585505E+03  0.7561462E-02  0.1190343E+00
          2   -1    0    0  501    0  0.00000000000E+00  0.00000000000E+00  0.99567768857E+03  0.99567768857E+03  0.00000000000E+00 0. -1.
         -2   -1    0    0    0  501 -0.00000000000E+00 -0.00000000000E+00 -0.37334713614E+02  0.37334713614E+02  0.00000000000E+00 0.  1.
         25    2    1    2    0    0 -0.42103880453E+02 -0.12834169780E+03  0.72282747180E+03  0.74590296197E+03  0.12508935428E+03 0.  0.
         23    2    1    2    0    0  0.42103880453E+02  0.12834169780E+03  0.23551550316E+03  0.28710944021E+03  0.93380674053E+02 0.  0.
          5    1    3    3  502    0 -0.74727089532E+02 -0.34162178431E+02  0.27198491857E+03  0.28415569794E+03  0.41800000000E+01 0.  1.
         -5    1    3    3    0  502  0.32623209078E+02 -0.94179519366E+02  0.45084255323E+03  0.46174726403E+03  0.41800000000E+01 0.  1.
        -11    1    4    4    0    0  0.16876982502E+02  0.51783984982E+02  0.18293126980E+03  0.19086713470E+03  0.00000000000E+00 0. -1.
         11    1    4    4    0    0  0.25226897951E+02  0.76557712815E+02  0.52584233364E+02  0.96242305511E+02  0.00000000000E+00 0.  1.
</event>
<event>
 8    1  0.7016814E-009  0.1245193E+03  0.7561462E-02  0.1235822E+00
          1   -1    0    0  501    0  0.00000000000E+00  0.00000000000E+00  0.12094642375E+03  0.12094642375E+03  0.00000000000E+00 0. -1.
         -1   -1    0    0    0  501 -0.00000000000E+00 -0.00000000000E+00 -0.16020638750E+03  0.16020638750E+03  0.00000000000E+00 0.  1.
         25    2    1    2    0    0 -0.80053074209E+02 -0.36162804507E+02 -0.21113088527E+02  0.15430189983E+03  0.12508825151E+03 0.  0.
         23    2    1    2    0    0  0.80053074209E+02  0.36162804507E+02 -0.18146875220E+02  0.12685091142E+03  0.89697277146E+02 0.  0.
          5    1    3    3  502    0 -0.10940043067E+03 -0.47151421672E+01 -0.13325037431E+02  0.11038892979E+03  0.41800000000E+01 0. -1.
         -5    1    3    3    0  502  0.29347356466E+02 -0.31447662340E+02 -0.77880510960E+01  0.43912970043E+02  0.41800000000E+01 0. -1.
        -11    1    4    4    0    0  0.42520654010E+02 -0.21913042446E+01  0.32110879913E+02  0.53328383067E+02  0.00000000000E+00 0. -1.
         11    1    4    4    0    0  0.37532420199E+02  0.38354108752E+02 -0.50257755134E+02  0.73522528352E+02  0.00000000000E+00 0.  1.
</event>
<event>
 8    1  0.7016814E-009  0.1407567E+03  0.7561462E-02  0.1212314E+00
         -2   -1    0    0    0  501 -0.00000000000E+00  0.00000000000E+00  0.57912019991E+02  0.57912019991E+02  0.00000000000E+00 0.  1.
          2   -1    0    0  501    0  0.00000000000E+00 -0.00000000000E+00 -0.48161567417E+03  0.48161567417E+03  0.00000000000E+00 0. -1.
         25    2    1    2    0    0 -0.61889644092E+02  0.10947683903E+03 -0.20533471048E+03  0.27134000529E+03  0.12509016273E+03 0.  0.
         23    2    1    2    0    0  0.61889644092E+02 -0.10947683903E+03 -0.21836894370E+03  0.26818768887E+03  0.91783084286E+02 0.  0.
          5    1    3    3  502    0 -0.14143929710E+02  0.52829508254E+02 -0.19967813174E+01  0.54885947433E+02  0.41800000000E+01 0. -1.
         -5    1    3    3    0  502 -0.47745714382E+02  0.56647330773E+02 -0.20333792916E+03  0.21645405786E+03  0.41800000000E+01 0. -1.
        -11    1    4    4    0    0 -0.21456023437E+02 -0.32895750840E+02 -0.82340965107E+02  0.91227878961E+02  0.00000000000E+00 0. -1.
         11    1    4    4    0    0  0.83345667529E+02 -0.76581088187E+02 -0.13602797859E+03  0.17695980991E+03  0.00000000000E+00 0.  1.
</event>
<event>
 8    1  0.7016814E-009  0.1084293E+03  0.7561462E-02  0.1263506E+00
         -1   -1    0    0    0  501 -0.00000000000E+00  0.00000000000E+00  0.54864707974E+02  0.54864707974E+02  0.00000000000E+00 0.  1.
          1   -1    0    0  501    0  0.00000000000E+00 -0.00000000000E+00 -0.25735631690E+03  0.25735631690E+03  0.00000000000E+00 0. -1.
         25    2    1    2    0    0 -0.34740191340E+02 -0.37129398628E+02 -0.12145989369E+03  0.18162565799E+03  0.12509956326E+03 0.  0.
         23    2    1    2    0    0  0.34740191340E+02  0.37129398628E+02 -0.81031715234E+02  0.13059536688E+03  0.88901843856E+02 0.  0.
          5    1    3    3  502    0 -0.32101973843E+02 -0.81190001219E+02 -0.98524739847E+02  0.13170781975E+03  0.41800000000E+01 0. -1.
         -5    1    3    3    0  502 -0.26382174977E+01  0.44060602591E+02 -0.22935153845E+02  0.49917838236E+02  0.41800000000E+01 0. -1.
        -11    1    4    4    0    0  0.15417709981E+02  0.56014114538E+02 -0.85337069603E+02  0.10323614801E+03  0.00000000000E+00 0. -1.
         11    1    4    4    0    0  0.19322481359E+02 -0.18884715910E+02  0.43053543694E+01  0.27359218869E+02  0.00000000000E+00 0.  1.
</event>
<event>
 8    1  0.7016814E-009  0.7469779E+02  0.7561462E-02  0.1344809E+00
          2   -1    0    0  501    0  0.00000000000E+00  0.00000000000E+00  0.12152169310E+03  0.12152169310E+03  0.00000000000E+00 0. -1.
         -2   -1    0    0    0  501 -0.00000000000E+00 -0.00000000000E+00 -0.10247719310E+03  0.10247719310E+03  0.00000000000E+00 0.  1.
         25    2    1    2    0    0 -0.85861943166E+01  0.22200656710E+02  0.31312561661E+02  0.13112690440E+03  0.12508875509E+03 0.  0.
         23    2    1    2    0    0  0.85861943166E+01 -0.22200656710E+02 -0.12268061656E+02  0.92871981801E+02  0.88927542279E+02 0.  0.
          5    1    3    3  502    0 -0.30206058928E+02  0.16159140427E+02 -0.41988892857E+02  0.54351295649E+02  0.41800000000E+01 0. -1.
         -5    1    3    3    0  502  0.21619864612E+02  0.60415162835E+01  0.73301454518E+02  0.76775608752E+02  0.41800000000E+01 0. -1.
        -11    1    4    4    0    0  0.48560254048E+02 -0.18271951876E+02 -0.63326714017E+01  0.52269161326E+02  0.00000000000E+00 0.  1.
         11    1    4    4    0    0 -0.39974059732E+02 -0.39287048347E+01 -0.59353902539E+01  0.40602820476E+02  0.00000000000E+00 0. -1.
</event>
<event>
 8    1  0.7016814E-009  0.9437239E+02  0.7561462E-02  0.1292596E+00
         -1   -1    0    0    0  501 -0.00000000000E+00  0.00000000000E+00  0.90767583107E+02  0.90767583107E+02  0.00000000000E+00 0.  1.
          1   -1    0    0  501    0  0.00000000000E+00 -0.00000000000E+00 -0.31644358994E+03  0.31644358994E+03  0.00000000000E+00 0. -1.
         25    2    1    2    0    0 -0.18997310624E+02  0.24544403406E+02 -0.27219254600E+03  0.30116450110E+03  0.12509176263E+03 0.  0.
         23    2    1    2    0    0  0.18997310624E+02 -0.24544403406E+02  0.46516539166E+02  0.10604667194E+03  0.90104287716E+02 0.  0.
          5    1    3    3  502    0  0.46956100252E+02 -0.85366130378E+01 -0.61966115265E+02  0.78326374575E+02  0.41800000000E+01 0.  1.
         -5    1    3    3    0  502 -0.65953410877E+02  0.33081016444E+02 -0.21022643073E+03  0.22283812653E+03  0.41800000000E+01 0.  1.
        -11    1    4    4    0    0 -0.21292832625E+02 -0.38465505787E+01 -0.17359580982E+02  0.27740506925E+02  0.00000000000E+00 0. -1.
         11    1    4    4    0    0  0.40290143250E+02 -0.20697852827E+02  0.63876120149E+02  0.78306165019E+02  0.00000000000E+00 0.  1.
</event>
<event>
 8    1  0.7016814E-009  0.9577608E+02  0.7561462E-02  0.1289438E+00
          1   -1    0    0  501    0  0.00000000000E+00  0.00000000000E+00  0.10394365135E+03  0.10394365135E+03  0.00000000000E+00 0. -1.
         -1   -1    0    0    0  501 -0.00000000000E+00 -0.00000000000E+00 -0.12416882245E+03  0.12416882245E+03  0.00000000000E+00 0.  1.
         25    2    1    2    0    0  0.13272417048E+02 -0.31218975532E+02  0.11009537622E+01  0.12961421264E+03  0.12509136873E+03 0.  0.
         23    2    1    2    0    0 -0.13272417048E+02  0.31218975532E+02 -0.21326124866E+02  0.98498261155E+02  0.89979566354E+02 0.  0.
          5    1    3    3  502    0 -0.31274099783E+02  0.21151886979E+02 -0.35169767038E+02  0.51767330948E+02  0.41800000000E+01 0.  1.
         -5    1    3    3    0  502  0.44546516831E+02 -0.52370862511E+02  0.36270720800E+02  0.77846881692E+02  0.41800000000E+01 0.  1.
        -11    1    4    4    0    0  0.32708202486E+02  0.11790043639E+02  0.13857305688E+02  0.37428018379E+02  0.00000000000E+00 0. -1.
         11    1    4    4    0    0 -0.45980619534E+02  0.19428931893E+02 -0.35183430554E+02  0.61070242776E+02  0.00000000000E+00 0.  1.
</event>
<event>
 8    1  0.7016814E-009  0.1518477E+03  0.7561462E-02  0.1198221E+00
          1   -1    0    0  501    0  0.00000000000E+00  0.00000000000E+00  0.82770593798E+02  0.82770593798E+02  0.00000000000E+00 0. -1.
         -1   -1    0    0    0  501 -0.00000000000E+00 -0.00000000000E+00 -0.29522066047E+03  0.29522066047E+03  0.00000000000E+00 0.  1.
         25    2    1    2    0    0  0.10497292732E+03 -0.33067093319E+02 -0.79406405879E+02  0.18457744774E+03  0.12510279289E+03 0.  0.
         23    2    1    2    0    0 -0.10497292732E+03  0.33067093319E+02 -0.13304366079E+03  0.19341380653E+03  0.87152376615E+02 0.  0.
          5    1    3    3  502    0  0.93370897556E+01  0.41065844259E+02 -0.53723791513E+01  0.42660516494E+02  0.41800000000E+01 0. -1.
         -5    1    3    3    0  502  0.95635837561E+02 -0.74132937578E+02 -0.74034026727E+02  0.14191693124E+03  0.41800000000E+01 0. -1.
        -11    1    4    4    0    0 -0.10856726835E+03  0.15510454043E+01 -0.10006136256E+03  0.14765342453E+03  0.00000000000E+00 0.  1.
         11    1    4    4    0    0  0.35943410373E+01  0.31516047915E+02 -0.32982298234E+02  0.45760381996E+02  0.00000000000E+00 0. -1.
</event>
<event>
 8    1  0.7016814E-009  0.1124141E+03  0.7561462E-02  0.1256164E+00
         -4   -1    0    0    0  501 -0.00000000000E+00  0.00000000000E+00  0.16269365543E+03  0.16269365543E+03  0.00000000000E+00 0.  1.
          4   -1    0    0  501    0  0.00000000000E+00 -0.00000000000E+00 -0.83882801649E+02  0.83882801649E+02  0.00000000000E+00 0. -1.
         25    2    1    2    0    0  0.22819898622E+02  0.29636510173E+02  0.71001014714E+02  0.14861516953E+03  0.12508498717E+03 0.  0.
         23    2    1    2    0    0 -0.22819898622E+02 -0.29636510173E+02  0.78098390686E+01  0.97961287551E+02  0.90201717079E+02 0.  0.
          5    1    3    3  502    0  0.18295065958E+02  0.78568969177E+02  0.37976632403E+02  0.89260794107E+02  0.41800000000E+01 0. -1.
         -5    1    3    3    0  502  0.45248326649E+01 -0.48932459004E+02  0.33024382311E+02  0.59354375423E+02  0.41800000000E+01 0. -1.
        -11    1    4    4    0    0 -0.18156918976E+01 -0.58779216091E+02  0.16348211884E+02  0.61037341137E+02  0.00000000000E+00 0.  1.
         11    1    4    4    0    0 -0.21004206725E+02  0.29142705918E+02 -0.85383728155E+01  0.36923946413E+02  0.00000000000E+00 0. -1.
</event>
<event>
 8    1  0.7016814E-009  0.1023147E+03  0.7561462E-02  0.1275502E+00
         -2   -1    0    0    0  501 -0.00000000000E+00  0.00000000000E+00  0.14193029181E+03  0.14193029181E+03  0.00000000000E+00 0.  1.
          2   -1    0    0  501    0  0.00000000000E+00 -0.00000000000E+00 -0.83986519467E+02  0.83986519467E+02  0.00000000000E+00 0. -1.
         25    2    1    2    0    0 -0.15016530384E+02 -0.55455232448E+01  0.32574013077E+02  0.13025331166E+03  0.12509440378E+03 0.  0.
         23    2    1    2    0    0  0.15016530384E+02  0.55455232448E+01  0.25369759262E+02  0.95663499610E+02  0.90838491069E+02 0.  0.
          5    1    3    3  502    0 -0.43397480546E+02  0.43756721291E+02 -0.49644564403E+01  0.61968622734E+02  0.41800000000E+01 0. -1.
         -5    1    3    3    0  502  0.28380950162E+02 -0.49302244535E+02  0.37538469517E+02  0.68284688928E+02  0.41800000000E+01 0. -1.
        -11    1    4    4    0    0 -0.26931600626E+02  0.27484708072E+02  0.29001996498E+02  0.48185434427E+02  0.00000000000E+00 0.  1.
         11    1    4    4    0    0  0.41948131011E+02 -0.21939184827E+02 -0.36322372354E+01  0.47478065183E+02  0.00000000000E+00 0. -1.
</event>
<event>
 8    1  0.7016814E-009  0.1326648E+03  0.7561462E-02  0.1223554E+00
          2   -1    0    0  501    0  0.00000000000E+00  0.00000000000E+00  0.78860369537E+03  0.78860369537E+03  0.00000000000E+00 0. -1.
         -2   -1    0    0    0  501 -0.00000000000E+00 -0.00000000000E+00 -0.31728545498E+02  0.31728545498E+02  0.00000000000E+00 0.  1.
         25    2    1    2    0    0  0.37675599501E+02 -0.91954998237E+02  0.55868970465E+03  0.58108347889E+03  0.12509456766E+03 0.  0.
         23    2    1    2    0    0 -0.37675599501E+02  0.91954998237E+02  0.19818544522E+03  0.23924876197E+03  0.89929566395E+02 0.  0.
          5    1    3    3  502    0 -0.42429919480E+02 -0.59461362774E+02  0.26310811818E+03  0.27309211995E+03  0.41800000000E+01 0. -1.
         -5    1    3    3    0  502  0.80105518981E+02 -0.32493635463E+02  0.29558158648E+03  0.30799135894E+03  0.41800000000E+01 0. -1.
        -11    1    4    4    0    0  0.20569731763E+00  0.46264179607E+02  0.18175800467E+02  0.49706904437E+02  0.00000000000E+00 0.  1.
         11    1    4    4    0    0 -0.37881296818E+02  0.45690818630E+02  0.18000964475E+03  0.18954185754E+03  0.00000000000E+00 0. -1.
</event>
<event>
 8    1  0.7016814E-009  0.1904113E+03  0.7561462E-02  0.1158091E+00
          1   -1    0    0  501    0  0.00000000000E+00  0.00000000000E+00  0.39840513971E+03  0.39840513971E+03  0.00000000000E+00 0. -1.
         -1   -1    0    0    0  501 -0.00000000000E+00 -0.00000000000E+00 -0.11614125638E+03  0.11614125638E+03  0.00000000000E+00 0.  1.
         25    2    1    2    0    0 -0.41505361989E+02 -0.18020328063E+03  0.13693806601E+03  0.26190786535E+03  0.12509108116E+03 0.  0.
         23    2    1    2    0    0  0.41505361989E+02  0.18020328063E+03  0.14532581732E+03  0.25263853074E+03  0.92253545262E+02 0.  0.
          5    1    3    3  502    0  0.73561922931E+01 -0.10645884403E+03  0.10182550814E+02  0.10727886920E+03  0.41800000000E+01 0.  1.
         -5    1    3    3    0  502 -0.48861554282E+02 -0.73744436600E+02  0.12675551520E+03  0.15462899615E+03  0.41800000000E+01 0.  1.
        -11    1    4    4    0    0  0.25070749107E+02  0.77438763578E+02  0.10126503790E+02  0.82023476178E+02  0.00000000000E+00 0.  1.
         11    1    4    4    0    0  0.16434612882E+02  0.10276451705E+03  0.13519931353E+03  0.17061505456E+03  0.00000000000E+00 0. -1.
</event>
<event>
 8    1  0.7016814E-009  0.1454929E+03  0.7561462E-02  0.1206123E+00
          3   -1    0    0  501    0  0.00000000000E+00  0.00000000000E+00  0.46819848912E+03  0.46819848912E+03  0.00000000000E+00 0. -1.
         -3   -1    0    0    0  501 -0.00000000000E+00 -0.00000000000E+00 -0.61715535820E+02  0.61715535820E+02  0.00000000000E+00 0.  1.
         25    2    1    2    0    0 -0.12690769714E+03  0.12259216132E+02  0.16717318945E+03  0.24464221971E+03  0.12508832249E+03 0.  0.
         23    2    1    2    0    0  0.12690769714E+03 -0.12259216132E+02  0.23930976386E+03  0.28527180523E+03  0.88628369095E+02 0.  0.
          5    1    3    3  502    0 -0.14057284330E+03 -0.47942410987E+01  0.96698749114E+02  0.17073906847E+03  0.41800000000E+01 0. -1.
         -5    1    3    3    0  502  0.13665146166E+02  0.17053457231E+02  0.70474440332E+02  0.73903151242E+02  0.41800000000E+01 0. -1.
        -11    1    4    4    0    0  0.50445295244E+02  0.79294126560E+00  0.22947458227E+02  0.55425106289E+02  0.00000000000E+00 0.  1.
         11    1    4    4    0    0  0.76462401895E+02 -0.13052157397E+02  0.21636230563E+03  0.22984669894E+03  0.00000000000E+00 0. -1.
</event>
<event>
 8    1  0.7016814E-009  0.1106855E+03  0.7561462E-02  0.1259306E+00
          1   -1    0    0  501    0  0.00000000000E+00  0.00000000000E+00  0.24198409498E+03  0.24198409498E+03  0.00000000000E+00 0. -1.
         -1   -1    0    0    0  501 -0.00000000000E+00 -0.00000000000E+00 -0.17492913786E+03  0.17492913786E+03  0.00000000000E+00 0.  1.
         25    2    1    2    0    0  0.89675760308E+02 -0.38079175262E+02  0.18043163578E+03  0.24019575123E+03  0.12508660257E+03 0.  0.
         23    2    1    2    0    0 -0.89675760308E+02  0.38079175262E+02 -0.11337667867E+03  0.17671748160E+03  0.94249835347E+02 0.  0.
          5    1    3    3  502    0  0.74393378895E+02 -0.19887222146E+02  0.22361871879E+02  0.80295716835E+02  0.41800000000E+01 0.  1.
         -5    1    3    3    0  502  0.15282381413E+02 -0.18191953116E+02  0.15806976390E+03  0.15990003440E+03  0.41800000000E+01 0.  1.
        -11    1    4    4    0    0  0.37352827558E+01  0.25618548627E+02 -0.66709386575E+02  0.71557002650E+02  0.00000000000E+00 0.  1.
         11    1    4    4    0    0 -0.93411043064E+02  0.12460626634E+02 -0.46667292093E+02  0.10516047895E+03  0.00000000000E+00 0. -1.
</event>
<event>
 8    1  0.7016814E-009  0.7227230E+02  0.7561462E-02  0.1352532E+00
         -1   -1    0    0    0  501 -0.00000000000E+00  0.00000000000E+00  0.50781525982E+03  0.50781525982E+03  0.00000000000E+00 0.  1.
          1   -1    0    0  501    0  0.00000000000E+00 -0.00000000000E+00 -0.23271041836E+02  0.23271041836E+02  0.00000000000E+00 0. -1.
         25    2    1    2    0    0 -0.21262210056E+01  0.32982520000E+01  0.32159566440E+03  0.34508935593E+03  0.12508993938E+03 0.  0.
         23    2    1    2    0    0  0.21262210056E+01 -0.32982520000E+01  0.16294855359E+03  0.18599694573E+03  0.89594829211E+02 0.  0.
          5    1    3    3  502    0 -0.61027300510E+01 -0.26482604024E+02  0.31209202750E+03  0.31330093785E+03  0.41800000000E+01 0.  1.
         -5    1    3    3    0  502  0.39765090454E+01  0.29780856024E+02  0.95036368986E+01  0.31788418079E+02  0.41800000000E+01 0.  1.
        -11    1    4    4    0    0 -0.26195611495E+02 -0.35313760662E+02  0.10627059662E+03  0.11500744089E+03  0.00000000000E+00 0.  1.
         11    1    4    4    0    0  0.28321832500E+02  0.32015508663E+02  0.56677956963E+02  0.70989504834E+02  0.00000000000E+00 0. -1.
</event>
<event>
 8    1  0.7016814E-009  0.1027367E+03  0.7561462E-02  0.1274644E+00
         -3   -1    0    0    0  501 -0.00000000000E+00  0.00000000000E+00  0.18414152415E+03  0.18414152415E+03  0.00000000000E+00 0.  1.
          3   -1    0    0  501    0  0.00000000000E+00 -0.00000000000E+00 -0.80310603984E+02  0.80310603984E+02  0.00000000000E+00 0. -1.
         25    2    1    2    0    0  0.46102622643E+02  0.26342470420E+02  0.45371382880E+02  0.14326065837E+03  0.12508267781E+03 0.  0.
         23    2    1    2    0    0 -0.46102622643E+02 -0.26342470420E+02  0.58459537287E+02  0.12119146977E+03  0.91926477590E+02 0.  0.
          5    1    3    3  502    0  0.45785672518E+02  0.73784226923E+02  0.19638415407E+02  0.89126762032E+02  0.41800000000E+01 0.  1.
         -5    1    3    3    0  502  0.31695012515E+00 -0.47441756504E+02  0.25732967473E+02  0.54133896336E+02  0.41800000000E+01 0.  1.
        -11    1    4    4    0    0 -0.34857819104E+02 -0.40106269341E+02  0.78253156070E+02  0.94589306097E+02  0.00000000000E+00 0.  1.
         11    1    4    4    0    0 -0.11244803540E+02  0.13763798921E+02 -0.19793618783E+02  0.26602163670E+02  0.00000000000E+00 0. -1.
</event>
<event>
 8    1  0.7016814E-009  0.1647652E+03  0.7561462E-02  0.1183420E+00
         -1   -1    0    0    0  501 -0.00000000000E+00  0.00000000000E+00  0.56983861156E+03  0.56983861156E+03  0.00000000000E+00 0.  1.
          1   -1    0    0  501    0  0.00000000000E+00 -0.00000000000E+00 -0.55715555728E+02  0.55715555728E+02  0.00000000000E+00 0. -1.
         25    2    1    2    0    0 -0.46313690695E+02  0.12474394333E+03  0.35596254934E+03  0.40007663768E+03  0.12508385245E+03 0.  0.
         23    2    1    2    0    0  0.46313690695E+02 -0.12474394333E+03  0.15816050649E+03  0.22547752961E+03  0.90107498021E+02 0.  0.
          5    1    3    3  502    0  0.19259861464E+02  0.96515724830E+02  0.13024849333E+03  0.16330453092E+03  0.41800000000E+01 0. -1.
         -5    1    3    3    0  502 -0.65573552159E+02  0.28228218500E+02  0.22571405600E+03  0.23677210676E+03  0.41800000000E+01 0. -1.
        -11    1    4    4    0    0 -0.17258691224E+02 -0.79823416688E+02  0.94658986706E+02  0.12501985458E+03  0.00000000000E+00 0.  1.
         11    1    4    4    0    0  0.63572381920E+02 -0.44920526643E+02  0.63501519788E+02  0.10045767503E+03  0.00000000000E+00 0. -1.
</event>
<event>
 8    1  0.7016814E-009  0.1496731E+03  0.7561462E-02  0.1200875E+00
          2   -1    0    0  501    0  0.00000000000E+00  0.00000000000E+00  0.61818431520E+03  0.61818431520E+03  0.00000000000E+00 0. -1.
         -2   -1    0    0    0  501 -0.00000000000E+00 -0.00000000000E+00 -0.66049918754E+02  0.66049918754E+02  0.00000000000E+00 0.  1.
         25    2    1    2    0    0  0.12191505488E+03  0.66797584739E+02  0.12259301779E+03  0.22361026989E+03  0.12508919561E+03 0.  0.
         23    2    1    2    0    0 -0.12191505488E+03 -0.66797584739E+02  0.42954137866E+03  0.46062396406E+03  0.91342445529E+02 0.  0.
          5    1    3    3  502    0  0.76063696951E+02  0.33759895030E+02  0.14121111136E+03  0.16396178481E+03  0.41800000000E+01 0.  1.
         -5    1    3    3    0  502  0.45851357928E+02  0.33037689709E+02 -0.18618093567E+02  0.59648485087E+02  0.41800000000E+01 0.  1.
        -11    1    4    4    0    0 -0.10785610277E+03 -0.18981270973E+02  0.22693848534E+03  0.25198076053E+03  0.00000000000E+00 0.  1.
         11    1    4    4    0    0 -0.14058952113E+02 -0.47816313766E+02  0.20260289332E+03  0.20864320353E+03  0.00000000000E+00 0. -1.
</event>
<event>
 8    1  0.7016814E-009  0.8371021E+02  0.7561462E-02  0.1318840E+00
          3   -1    0    0  501    0  0.00000000000E+00  0.00000000000E+00  0.45323011713E+02  0.45323011713E+02  0.00000000000E+00 0. -1.
         -3   -1    0    0    0  501 -0.00000000000E+00 -0.00000000000E+00 -0.29747308974E+03  0.29747308974E+03  0.00000000000E+00 0.  1.
         25    2    1    2    0    0 -0.54134803312E+01 -0.31493230429E+02 -0.18383411985E+03  0.22464166907E+03  0.12509103296E+03 0.  0.
         23    2    1    2    0    0  0.54134803312E+01  0.31493230429E+02 -0.68315958177E+02  0.11815443239E+03  0.90952022621E+02 0.  0.
          5    1    3    3  502    0  0.32689200356E+02 -0.24468299513E+02 -0.46956504493E+01  0.41313472792E+02  0.41800000000E+01 0.  1.
         -5    1    3    3    0  502 -0.38102680687E+02 -0.70249309158E+01 -0.17913846941E+03  0.18332819628E+03  0.41800000000E+01 0.  1.
        -11    1    4    4    0    0  0.32348972567E+02  0.46443162086E+02 -0.66456781967E+02  0.87292194382E+02  0.00000000000E+00 0.  1.
         11    1    4    4    0    0 -0.26935492235E+02 -0.14949931656E+02 -0.18591762102E+01  0.30862238005E+02  0.00000000000E+00 0. -1.
</event>
<event>
 8    1  0.7016814E-009  0.1027723E+03  0.7561462E-02  0.1274572E+00
         -1   -1    0    0    0  501 -0.00000000000E+00  0.00000000000E+00  0.11387310885E+03  0.11387310885E+03  0.00000000000E+00 0.  1.
          1   -1    0    0  501    0  0.00000000000E+00 -0.00000000000E+00 -0.10691099597E+03  0.10691099597E+03  0.00000000000E+00 0. -1.
         25    2    1    2    0    0 -0.99492177284E+01 -0.91146514180E+01 -0.14347261712E+02  0.12663704833E+03  0.12509610021E+03 0.  0.
         23    2    1    2    0    0  0.99492177284E+01  0.91146514180E+01  0.21309374593E+02  0.94147056482E+02  0.90705650291E+02 0.  0.
          5    1    3    3  502    0  0.46575026007E+02 -0.39260891187E+02 -0.99661578302E+00  0.61066490544E+02  0.41800000000E+01 0. -1.
         -5    1    3    3    0  502 -0.56524243735E+02  0.30146239769E+02 -0.13350645929E+02  0.65570557789E+02  0.41800000000E+01 0. -1.
        -11    1    4    4    0    0 -0.34338313926E+02 -0.27252327050E+01 -0.13072738876E+02  0.36843496010E+02  0.00000000000E+00 0. -1.
         11    1    4    4    0    0  0.44287531654E+02  0.11839884123E+02  0.34382113469E+02  0.57303560471E+02  0.00000000000E+00 0.  1.
</event>
<event>
 8    1  0.7016814E-009  0.1111732E+03  0.7561462E-02  0.1258413E+00
         -2   -1    0    0    0  501 -0.00000000000E+00  0.00000000000E+00  0.19880122666E+03  0.19880122666E+03  0.00000000000E+00 0.  1.
          2   -1    0    0  501    0  0.00000000000E+00 -0.00000000000E+00 -0.12101128420E+03  0.12101128420E+03  0.00000000000E+00 0. -1.
         25    2    1    2    0    0 -0.63491647015E+02  0.69649168852E+02  0.10449651680E+03  0.18827679923E+03  0.12508571119E+03 0.  0.
         23    2    1    2    0    0  0.63491647015E+02 -0.69649168852E+02 -0.26706574339E+02  0.13153571163E+03  0.87785000763E+02 0.  0.
          5    1    3    3  502    0 -0.50974160420E+01  0.68632638074E+02  0.10961985524E+03  0.12950060896E+03  0.41800000000E+01 0.  1.
         -5    1    3    3    0  502 -0.58394230973E+02  0.10165307777E+01 -0.51233384378E+01  0.58776190269E+02  0.41800000000E+01 0.  1.
        -11    1    4    4    0    0  0.22574481922E+02 -0.32560699223E+02  0.32005223873E+02  0.50932707793E+02  0.00000000000E+00 0.  1.
         11    1    4    4    0    0  0.40917165093E+02 -0.37088469628E+02 -0.58711798211E+02  0.80603003838E+02  0.00000000000E+00 0. -1.
</event>
<event>
 8    1  0.7016814E-009  0.7943899E+02  0.7561462E-02  0.1330651E+00
         -2   -1    0    0    0  501 -0.00000000000E+00  0.00000000000E+00  0.28956230279E+03  0.28956230279E+03  0.00000000000E+00 0.  1.
          2   -1    0    0  501    0  0.00000000000E+00 -0.00000000000E+00 -0.47482835523E+02  0.47482835523E+02  0.00000000000E+00 0. -1.
         25    2    1    2    0    0  0.42536296722E+02 -0.17574086450E+02  0.14471642735E+03  0.19673802162E+03  0.12507925389E+03 0.  0.
         23    2    1    2    0    0 -0.42536296722E+02  0.17574086450E+02  0.97363039919E+02  0.14030711669E+03  0.89935201113E+02 0.  0.
          5    1    3    3  502    0  0.24925417752E+02 -0.60807374481E+02  0.13302641482E+03  0.14843285580E+03  0.41800000000E+01 0.  1.
         -5    1    3    3    0  502  0.17610878969E+02  0.43233288031E+02  0.11690012532E+02  0.48305165821E+02  0.41800000000E+01 0.  1.
        -11    1    4    4    0    0 -0.19798885841E+02  0.10083210033E+02  0.11069687115E+03  0.11290466902E+03  0.00000000000E+00 0.  1.
         11    1    4    4    0    0 -0.22737410880E+02  0.74908764165E+01 -0.13333831230E+02  0.27402447670E+02  0.00000000000E+00 0. -1.
</event>
<event>
 8    1  0.7016814E-009  0.8536049E+02  0.7561462E-02  0.1314492E+00
         -1   -1    0    0    0  501 -0.00000000000E+00  0.00000000000E+00  0.30182215004E+03  0.30182215004E+03  0.00000000000E+00 0.  1.
          1   -1    0    0  501    0  0.00000000000E+00 -0.00000000000E+00 -0.44705857582E+02  0.44705857582E+02  0.00000000000E+00 0. -1.
         25    2    1    2    0    0 -0.26135565874E+01  0.40591934833E+02  0.15704064089E+03  0.20485213943E+03  0.12509236701E+03 0.  0.
         23    2    1    2    0    0  0.26135565874E+01 -0.40591934833E+02  0.10007565157E+03  0.14167586819E+03  0.91664495529E+02 0.  0.
          5    1    3    3  502    0 -0.27395778183E+02  0.69650842750E+02  0.14720692720E+03  0.16519418989E+03  0.41800000000E+01 0. -1.
         -5    1    3    3    0  502  0.24782221595E+02 -0.29058907917E+02  0.98337136923E+01  0.39657949538E+02  0.41800000000E+01 0. -1.
        -11    1    4    4    0    0 -0.18939768217E+02 -0.18498560750E+02  0.10684571007E+03  0.11007687010E+03  0.00000000000E+00 0.  1.
         11    1    4    4    0    0  0.21553324804E+02 -0.22093374082E+02 -0.67700585056E+01  0.31598998095E+02  0.00000000000E+00 0. -1.
</event>
<event>
 8    1  0.7016814E-009  0.1240173E+03  0.7561462E-02  0.1236613E+00
          1   -1    0    0  501    0  0.00000000000E+00  0.00000000000E+00  0.13505450926E+04  0.13505450926E+04  0.00000000000E+00 0. -1.
         -1   -1    0    0    0  501 -0.00000000000E+00 -0.00000000000E+00 -0.16197394142E+02  0.16197394142E+02  0.00000000000E+00 0.  1.
         25    2    1    2    0    0  0.67452744226E+02  0.62170275800E+02  0.97864168177E+03  0.99085970934E+03  0.12509359057E+03 0.  0.
         23    2    1    2    0    0 -0.67452744226E+02 -0.62170275800E+02  0.35570601670E+03  0.37588277742E+03  0.79662262979E+02 0.  0.
          5    1    3    3  502    0 -0.35786045956E+02  0.79081523303E+01  0.18047907376E+03  0.18421006602E+03  0.41800000000E+01 0. -1.
         -5    1    3    3    0  502  0.10323879018E+03  0.54262123470E+02  0.79816260802E+03  0.80664964333E+03  0.41800000000E+01 0. -1.
        -11    1    4    4    0    0 -0.15460137628E+02 -0.31326098372E+01  0.51282096924E+01  0.16586971831E+02  0.00000000000E+00 0.  1.
         11    1    4    4    0    0 -0.51992606598E+02 -0.59037665963E+02  0.35057780701E+03  0.35929580559E+03  0.00000000000E+00 0. -1.
</event>
<event>
 8    1  0.7016814E-009  0.1038004E+03  0.7561462E-02  0.1272501E+00
          2   -1    0    0  501    0  0.00000000000E+00  0.00000000000E+00  0.31659201966E+02  0.31659201966E+02  0.00000000000E+00 0.  1.
         -2   -1    0    0    0  501 -0.00000000000E+00 -0.00000000000E+00 -0.49445848242E+03  0.49445848242E+03  0.00000000000E+00 0. -1.
         25    2    1    2    0    0  0.73341234147E+01 -0.56009134246E+02 -0.29641872176E+03  0.32665273069E+03  0.12508851016E+03 0.  0.
         23    2    1    2    0    0 -0.73341234147E+01  0.56009134246E+02 -0.16638055870E+03  0.19946495370E+03  0.94408500438E+02 0.  0.
          5    1    3    3  502    0  0.56137293512E+02 -0.65837889950E+02 -0.17207005882E+03  0.19264371523E+03  0.41800000000E+01 0. -1.
         -5    1    3    3    0  502 -0.48803170098E+02  0.98287557038E+01 -0.12434866294E+03  0.13400901546E+03  0.41800000000E+01 0. -1.
        -11    1    4    4    0    0 -0.25490531278E+02  0.33759044438E+02 -0.14234793225E+02  0.44632606964E+02  0.00000000000E+00 0.  1.
         11    1    4    4    0    0  0.18156407863E+02  0.22250089808E+02 -0.15214576548E+03  0.15483234673E+03  0.00000000000E+00 0. -1.
</event>
<event>
 8    1  0.7016814E-009  0.3466938E+03  0.7561462E-02  0.1063980E+00
          1   -1    0    0  501    0  0.00000000000E+00  0.00000000000E+00  0.44299690690E+03  0.44299690690E+03  0.00000000000E+00 0. -1.
         -1   -1    0    0    0  501 -0.00000000000E+00 -0.00000000000E+00 -0.29953989542E+03  0.29953989542E+03  0.00000000000E+00 0.  1.
         25    2    1    2    0    0 -0.32109997223E+03  0.11073743567E+03 -0.27827430089E+01  0.36196905217E+03  0.12508348911E+03 0.  0.
         23    2    1    2    0    0  0.32109997223E+03 -0.11073743567E+03  0.14623975449E+03  0.38056775014E+03  0.89876442020E+02 0.  0.
          5    1    3    3  502    0 -0.39344033397E+02  0.47352078694E+02  0.34579422188E+02  0.70734582485E+02  0.41800000000E+01 0. -1.
         -5    1    3    3    0  502 -0.28175593883E+03  0.63385356975E+02 -0.37362165196E+02  0.29123446969E+03  0.41800000000E+01 0. -1.
        -11    1    4    4    0    0  0.37726664739E+02 -0.30006905266E+02 -0.65708251918E+01  0.48650707494E+02  0.00000000000E+00 0.  1.
         11    1    4    4    0    0  0.28337330749E+03 -0.80730530402E+02  0.15281057968E+03  0.33191704265E+03  0.00000000000E+00 0. -1.
</event>
<event>
 8    1  0.7016814E-009  0.2039354E+03  0.7561462E-02  0.1146461E+00
         -2   -1    0    0    0  501 -0.00000000000E+00  0.00000000000E+00  0.51780191181E+02  0.51780191181E+02  0.00000000000E+00 0.  1.
          2   -1    0    0  501    0  0.00000000000E+00 -0.00000000000E+00 -0.11057615089E+04  0.11057615089E+04  0.00000000000E+00 0. -1.
         25    2    1    2    0    0  0.15205956883E+01  0.19363413719E+03 -0.32921832710E+03  0.40190707285E+03  0.12509235393E+03 0.  0.
         23    2    1    2    0    0 -0.15205956883E+01 -0.19363413719E+03 -0.72476299063E+03  0.75563462725E+03  0.90585904035E+02 0.  0.
          5    1    3    3  502    0  0.72428773508E+01  0.22711696964E+01  0.94670237436E+01  0.12834111682E+02  0.41800000000E+01 0. -1.
         -5    1    3    3    0  502 -0.57222816625E+01  0.19136296749E+03 -0.33868535085E+03  0.38907296117E+03  0.41800000000E+01 0. -1.
        -11    1    4    4    0    0 -0.29108708337E+02 -0.30124052992E+02 -0.23110745335E+03  0.23487322210E+03  0.00000000000E+00 0.  1.
         11    1    4    4    0    0  0.27588112649E+02 -0.16351008419E+03 -0.49365553728E+03  0.52076140514E+03  0.00000000000E+00 0. -1.
</event>
<event>
 8    1  0.7016814E-009  0.1062437E+03  0.7561462E-02  0.1267688E+00
         -2   -1    0    0    0  501 -0.00000000000E+00  0.00000000000E+00  0.32014675564E+02  0.32014675564E+02  0.00000000000E+00 0.  1.
          2   -1    0    0  501    0  0.00000000000E+00 -0.00000000000E+00 -0.43021149725E+03  0.43021149725E+03  0.00000000000E+00 0. -1.
         25    2    1    2    0    0 -0.10664511737E+02  0.91485727978E+01 -0.14146289447E+03  0.18936633944E+03  0.12510168586E+03 0.  0.
         23    2    1    2    0    0  0.10664511737E+02 -0.91485727978E+01 -0.25673392722E+03  0.27285983338E+03  0.91338661537E+02 0.  0.
          5    1    3    3  502    0 -0.54442343101E+02  0.39702447829E+02 -0.52464639183E+02  0.85500080997E+02  0.41800000000E+01 0.  1.
         -5    1    3    3    0  502  0.43777831364E+02 -0.30553875031E+02 -0.88998255285E+02  0.10386625844E+03  0.41800000000E+01 0.  1.
        -11    1    4    4    0    0 -0.37523392311E+02  0.11140741706E+02 -0.90634540765E+02  0.98725584708E+02  0.00000000000E+00 0.  1.
         11    1    4    4    0    0  0.48187904048E+02 -0.20289314503E+02 -0.16609938645E+03  0.17413424867E+03  0.00000000000E+00 0. -1.
</event>
<event>
 8    1  0.7016814E-009  0.1124661E+03  0.7561462E-02  0.1256070E+00
          2   -1    0    0  501    0  0.00000000000E+00  0.00000000000E+00  0.24703072799E+03  0.24703072799E+03  0.00000000000E+00 0. -1.
         -2   -1    0    0    0  501 -0.00000000000E+00 -0.00000000000E+00 -0.60340484614E+02  0.60340484614E+02  0.00000000000E+00 0.  1.
         25    2    1    2    0    0 -0.51271209985E+02 -0.23546964048E+02  0.12323289041E+03  0.18443436569E+03  0.12508594438E+03 0.  0.
         23    2    1    2    0    0  0.51271209985E+02  0.23546964048E+02  0.63457352974E+02  0.12293684691E+03  0.88901272170E+02 0.  0.
          5    1    3    3  502    0 -0.24878464341E+02  0.47989885948E+02  0.80119767019E+02  0.96739943190E+02  0.41800000000E+01 0.  1.
         -5    1    3    3    0  502 -0.26392745644E+02 -0.71536849996E+02  0.43113123388E+02  0.87694422504E+02  0.41800000000E+01 0.  1.
        -11    1    4    4    0    0  0.45133121102E+02 -0.20718891697E+02  0.58162591325E+01  0.50000999628E+02  0.00000000000E+00 0.  1.
         11    1    4    4    0    0  0.61380888833E+01  0.44265855746E+02  0.57641093841E+02  0.72935847285E+02  0.00000000000E+00 0. -1.
</event>
<event>
 8    1  0.7016814E-009  0.9204132E+02  0.7561462E-02  0.1297982E+00
          2   -1    0    0  501    0  0.00000000000E+00  0.00000000000E+00  0.15424064250E+04  0.15424064250E+04  0.00000000000E+00 0.  1.
         -2   -1    0    0    0  501 -0.00000000000E+00 -0.00000000000E+00 -0.13759929945E+02  0.13759929945E+02  0.00000000000E+00 0. -1.
         25    2    1    2    0    0  0.76828407436E+02 -0.34916980111E+02  0.11464419335E+04  0.11563295193E+04  0.12508817105E+03 0.  0.
         23    2    1    2    0    0 -0.76828407436E+02  0.34916980111E+02  0.38220456151E+03  0.39983683564E+03  0.81653956466E+02 0.  0.
          5    1    3    3  502    0  0.65127955470E+02 -0.47878063172E+01  0.10832845248E+04  0.10852591431E+04  0.41800000000E+01 0.  1.
         -5    1    3    3    0  502  0.11700451965E+02 -0.30129173794E+02  0.63157408694E+02  0.71070376126E+02  0.41800000000E+01 0.  1.
        -11    1    4    4    0    0 -0.51136434086E+02  0.31693108251E+02  0.36207590083E+03  0.36703997870E+03  0.00000000000E+00 0.  1.
         11    1    4    4    0    0 -0.25691973349E+02  0.32238718595E+01  0.20128660676E+02  0.32796856937E+02  0.00000000000E+00 0. -1.
</event>
<event>
 8    1  0.7016814E-009  0.1014524E+03  0.7561462E-02  0.1277271E+00
          1   -1    0    0  501    0  0.00000000000E+00  0.00000000000E+00  0.70417782622E+03  0.70417782622E+03  0.00000000000E+00 0. -1.
         -1   -1    0    0    0  501 -0.00000000000E+00 -0.00000000000E+00 -0.28917873388E+02  0.28917873388E+02  0.00000000000E+00 0.  1.
         25    2    1    2    0    0  0.47360405152E+02 -0.36672895728E+01  0.57480500441E+03  0.59017320427E+03  0.12508861240E+03 0.  0.
         23    2    1    2    0    0 -0.47360405152E+02  0.36672895728E+01  0.10045494842E+03  0.14292249534E+03  0.89884292412E+02 0.  0.
          5    1    3    3  502    0  0.56589904964E+02  0.49055093452E+02  0.41117948506E+03  0.41796514313E+03  0.41800000000E+01 0.  1.
         -5    1    3    3    0  502 -0.92294998127E+01 -0.52722383025E+02  0.16362551935E+03  0.17220806113E+03  0.41800000000E+01 0.  1.
        -11    1    4    4    0    0  0.13272950607E+02  0.28227057374E+01  0.76546852105E+02  0.77740333500E+02  0.00000000000E+00 0. -1.
         11    1    4    4    0    0 -0.60633355759E+02  0.84458383534E+00  0.23908096316E+02  0.65182161838E+02  0.00000000000E+00 0.  1.
</event>
<event>
 8    1  0.7016814E-009  0.1424981E+03  0.7561462E-02  0.1210007E+00
          2   -1    0    0  501    0  0.00000000000E+00  0.00000000000E+00  0.37108289884E+03  0.37108289884E+03  0.00000000000E+00 0. -1.
         -2   -1    0    0    0  501 -0.00000000000E+00 -0.00000000000E+00 -0.75178529476E+02  0.75178529476E+02  0.00000000000E+00 0.  1.
         25    2    1    2    0    0 -0.90438514221E+01 -0.12690522638E+03  0.15715337543E+03  0.23776245793E+03  0.12508826989E+03 0.  0.
         23    2    1    2    0    0  0.90438514221E+01  0.12690522638E+03  0.13875099394E+03  0.20849897038E+03  0.89628425190E+02 0.  0.
          5    1    3    3  502    0  0.14003875470E+02 -0.22016464878E+02  0.12178633420E+03  0.12462029069E+03  0.41800000000E+01 0. -1.
         -5    1    3    3    0  502 -0.23047726892E+02 -0.10488876150E+03  0.35367041228E+02  0.11314216724E+03  0.41800000000E+01 0. -1.
        -11    1    4    4    0    0  0.45509339609E+02  0.68230681830E+02  0.99854624344E+02  0.12921869810E+03  0.00000000000E+00 0.  1.
         11    1    4    4    0    0 -0.36465488187E+02  0.58674544545E+02  0.38896369591E+02  0.79280272286E+02  0.00000000000E+00 0. -1.
</event>
<event>
 8    1  0.7016814E-009  0.1289361E+03  0.7561462E-02  0.1229043E+00
         -2   -1    0    0    0  501 -0.00000000000E+00  0.00000000000E+00  0.83130938279E+02  0.83130938279E+02  0.00000000000E+00 0.  1.
          2   -1    0    0  501    0  0.00000000000E+00 -0.00000000000E+00 -0.28548512655E+03  0.28548512655E+03  0.00000000000E+00 0. -1.
         25    2    1    2    0    0  0.39933027195E+02  0.10285561074E+03 -0.10793817666E+03  0.19867532511E+03  0.12508921419E+03 0.  0.
         23    2    1    2    0    0 -0.39933027195E+02 -0.10285561074E+03 -0.94416011617E+02  0.16994073972E+03  0.88269748196E+02 0.  0.
          5    1    3    3  502    0  0.72651107407E+02  0.71037305259E+02 -0.11363220338E+03  0.15249338409E+03  0.41800000000E+01 0. -1.
         -5    1    3    3    0  502 -0.32718080212E+02  0.31818305477E+02  0.56940267236E+01  0.46181941021E+02  0.41800000000E+01 0. -1.
        -11    1    4    4    0    0 -0.10185109916E+02 -0.24334616636E+02  0.16281819052E+02  0.31000123588E+02  0.00000000000E+00 0.  1.
         11    1    4    4    0    0 -0.29747917279E+02 -0.78520994100E+02 -0.11069783067E+03  0.13894061613E+03  0.00000000000E+00 0. -1.
</event>
<event>
 8    1  0.7016814E-009  0.1880631E+03  0.7561462E-02  0.1160220E+00
          1   -1    0    0  501    0  0.00000000000E+00  0.00000000000E+00  0.10007568333E+03  0.10007568333E+03  0.00000000000E+00 0. -1.
         -1   -1    0    0    0  501 -0.00000000000E+00 -0.00000000000E+00 -0.55343463161E+03  0.55343463161E+03  0.00000000000E+00 0.  1.
         25    2    1    2    0    0  0.17085652339E+03 -0.62730337519E+02 -0.37505083416E+03  0.43524466720E+03  0.12509094808E+03 0.  0.
         23    2    1    2    0    0 -0.17085652339E+03  0.62730337519E+02 -0.78308114129E+02  0.21826564774E+03  0.91546083565E+02 0.  0.
          5    1    3    3  502    0  0.95085628507E+02 -0.58347909005E+02 -0.32647860601E+03  0.34503841498E+03  0.41800000000E+01 0. -1.
         -5    1    3    3    0  502  0.75770894881E+02 -0.43824285139E+01 -0.48572228147E+02  0.90206252211E+02  0.41800000000E+01 0. -1.
        -11    1    4    4    0    0 -0.15543854194E+03  0.71104010137E+02 -0.93698887133E+02  0.19492665807E+03  0.00000000000E+00 0.  1.
         11    1    4    4    0    0 -0.15417981453E+02 -0.83736726184E+01  0.15390773004E+02  0.23338989671E+02  0.00000000000E+00 0. -1.
</event>
<event>
 8    1  0.7016814E-009  0.1603354E+03  0.7561462E-02  0.1188319E+00
         -1   -1    0    0    0  501 -0.00000000000E+00  0.00000000000E+00  0.20504838661E+03  0.20504838661E+03  0.00000000000E+00 0.  1.
          1   -1    0    0  501    0  0.00000000000E+00 -0.00000000000E+00 -0.18845352719E+03  0.18845352719E+03  0.00000000000E+00 0. -1.
         25    2    1    2    0    0 -0.73408085730E+02  0.13435311770E+03 -0.48636331281E+02  0.20360085914E+03  0.12509320460E+03 0.  0.
         23    2    1    2    0    0  0.73408085730E+02 -0.13435311770E+03  0.65231190696E+02  0.18990105465E+03  0.91475652679E+02 0.  0.
          5    1    3    3  502    0 -0.28033452232E+02  0.11277179915E+02 -0.64554314109E+02  0.71398747195E+02  0.41800000000E+01 0.  1.
         -5    1    3    3    0  502 -0.45374633499E+02  0.12307593778E+03  0.15917982828E+02  0.13220211195E+03  0.41800000000E+01 0.  1.
        -11    1    4    4    0    0  0.69810993636E+02 -0.87507637438E+02  0.83329146807E+02  0.13955252828E+03  0.00000000000E+00 0.  1.
         11    1    4    4    0    0  0.35970920944E+01 -0.46845480261E+02 -0.18097956111E+02  0.50348526372E+02  0.00000000000E+00 0. -1.
</event>
<event>
 8    1  0.7016814E-009  0.1495609E+03  0.7561462E-02  0.1201014E+00
         -4   -1    0    0    0  501 -0.00000000000E+00  0.00000000000E+00  0.87560199154E+03  0.87560199154E+03  0.00000000000E+00 0. -1.
          4   -1    0    0  501    0  0.00000000000E+00 -0.00000000000E+00 -0.38484707140E+02  0.38484707140E+02  0.00000000000E+00 0.  1.
         25    2    1    2    0    0 -0.10036597758E+03  0.95432564945E+02  0.31657405926E+03  0.36748758756E+03  0.12508912064E+03 0.  0.
         23    2    1    2    0    0  0.10036597758E+03 -0.95432564945E+02  0.52054322514E+03  0.54659911113E+03  0.92868913717E+02 0.  0.
          5    1    3    3  502    0 -0.92969830263E+02  0.78064644498E+02  0.12271613782E+03  0.17266789204E+03  0.41800000000E+01 0.  1.
         -5    1    3    3    0  502 -0.73961473212E+01  0.17367920446E+02  0.19385792144E+03  0.19481969552E+03  0.41800000000E+01 0.  1.
        -11    1    4    4    0    0  0.54266933099E+01 -0.54767490526E+02  0.27091158977E+03  0.27644532279E+03  0.00000000000E+00 0.  1.
         11    1    4    4    0    0  0.94939284274E+02 -0.40665074419E+02  0.24963163537E+03  0.27015378834E+03  0.00000000000E+00 0. -1.
</event>
<event>
 8    1  0.7016814E-009  0.1587984E+03  0.7561462E-02  0.1190060E+00
         -2   -1    0    0    0  501 -0.00000000000E+00  0.00000000000E+00  0.44614897355E+03  0.44614897355E+03  0.00000000000E+00 0.  1.
          2   -1    0    0  501    0  0.00000000000E+00 -0.00000000000E+00 -0.61013921957E+02  0.61013921957E+02  0.00000000000E+00 0. -1.
         25    2    1    2    0    0 -0.94870839214E+02 -0.78425902754E+02  0.22604927867E+03  0.28617577114E+03  0.12508875746E+03 0.  0.
         23    2    1    2    0    0  0.94870839214E+02  0.78425902754E+02  0.15908577293E+03  0.22098712437E+03  0.91520094156E+02 0.  0.
          5    1    3    3  502    0 -0.78149911905E+02  0.68987360591E+01  0.15514976958E+03  0.17390780515E+03  0.41800000000E+01 0. -1.
         -5    1    3    3    0  502 -0.16720927309E+02 -0.85324638813E+02  0.70899509086E+02  0.11226796599E+03  0.41800000000E+01 0. -1.
        -11    1    4    4    0    0  0.62833539601E+02 -0.45894590633E+01  0.80879473165E+02  0.10252124664E+03  0.00000000000E+00 0. -1.
         11    1    4    4    0    0  0.32037299613E+02  0.83015361817E+02  0.78206299761E+02  0.11846587773E+03  0.00000000000E+00 0.  1.
</event>
<event>
 8    1  0.7016814E-009  0.1362892E+03  0.7561462E-02  0.1218411E+00
          2   -1    0    0  501    0  0.00000000000E+00  0.00000000000E+00  0.67012773979E+02  0.67012773979E+02  0.00000000000E+00 0. -1.
         -2   -1    0    0    0  501 -0.00000000000E+00 -0.00000000000E+00 -0.67027748192E+03  0.67027748192E+03  0.00000000000E+00 0.  1.
         25    2    1    2    0    0 -0.72805376157E+02  0.37076958970E+02 -0.59455276714E+03  0.61303821774E+03  0.12509012675E+03 0.  0.
         23    2    1    2    0    0  0.72805376157E+02 -0.37076958970E+02 -0.87119408060E+01  0.12425203817E+03  0.93205940753E+02 0.  0.
          5    1    3    3  502    0 -0.86436544134E+02 -0.21238029953E+02 -0.37309031782E+03  0.38358335174E+03  0.41800000000E+01 0.  1.
         -5    1    3    3    0  502  0.13631167977E+02  0.58314988923E+02 -0.22146244932E+03  0.22945486600E+03  0.41800000000E+01 0.  1.
        -11    1    4    4    0    0  0.69171514340E+02  0.15377306602E+02  0.55144696614E+00  0.70862289323E+02  0.00000000000E+00 0.  1.
         11    1    4    4    0    0  0.36338618175E+01 -0.52454265572E+02 -0.92633877721E+01  0.53389748842E+02  0.00000000000E+00 0. -1.
</event>
<event>
 8    1  0.7016814E-009  0.1254392E+03  0.7561462E-02  0.1234384E+00
          1   -1    0    0  501    0  0.00000000000E+00  0.00000000000E+00  0.21497420072E+03  0.21497420072E+03  0.00000000000E+00 0. -1.
         -1   -1    0    0    0  501 -0.00000000000E+00 -0.00000000000E+00 -0.10154626024E+03  0.10154626024E+03  0.00000000000E+00 0.  1.
         25    2    1    2    0    0 -0.94135848520E+02 -0.24515923589E+02  0.36319899591E+02  0.16257091461E+03  0.12509028213E+03 0.  0.
         23    2    1    2    0    0  0.94135848520E+02  0.24515923589E+02  0.77108040887E+02  0.15394954636E+03  0.91061651467E+02 0.  0.
          5    1    3    3  502    0 -0.16109787555E+02  0.24861338562E+02  0.60094911410E+02  0.67130337311E+02  0.41800000000E+01 0.  1.
         -5    1    3    3    0  502 -0.78026060965E+02 -0.49377262150E+02 -0.23775011819E+02  0.95440577294E+02  0.41800000000E+01 0.  1.
        -11    1    4    4    0    0  0.74353077252E+02 -0.22365581443E+02  0.26133023568E+02  0.81923954073E+02  0.00000000000E+00 0.  1.
         11    1    4    4    0    0  0.19782771269E+02  0.46881505032E+02  0.50975017319E+02  0.72025592284E+02  0.00000000000E+00 0. -1.
</event>
<event>
 8    1  0.7016814E-009  0.1005739E+03  0.7561462E-02  0.1279094E+00
          1   -1    0    0  501    0  0.00000000000E+00  0.00000000000E+00  0.66524038979E+02  0.66524038979E+02  0.00000000000E+00 0. -1.
         -1   -1    0    0    0  501 -0.00000000000E+00 -0.00000000000E+00 -0.24427999282E+03  0.24427999282E+03  0.00000000000E+00 0.  1.
         25    2    1    2    0    0  0.22888352108E+01  0.53859057417E+01 -0.18049625796E+03  0.21968269575E+03  0.12508933180E+03 0.  0.
         23    2    1    2    0    0 -0.22888352108E+01 -0.53859057417E+01  0.27403041107E+01  0.91121336052E+02  0.90891924119E+02 0.  0.
          5    1    3    3  502    0  0.35277619840E+02  0.45935026253E+02 -0.14544044769E+03  0.15660438475E+03  0.41800000000E+01 0.  1.
         -5    1    3    3    0  502 -0.32988784630E+02 -0.40549120511E+02 -0.35055810268E+02  0.63078311004E+02  0.41800000000E+01 0.  1.
        -11    1    4    4    0    0  0.32912532743E+02 -0.32462532694E+02 -0.30823716771E+01  0.46330895261E+02  0.00000000000E+00 0.  1.
         11    1    4    4    0    0 -0.35201367954E+02  0.27076626953E+02  0.58226757878E+01  0.44790440791E+02  0.00000000000E+00 0. -1.
</event>
<event>
 8    1  0.7016814E-009  0.1934166E+03  0.7561462E-02  0.1155415E+00
         -2   -1    0    0    0  501 -0.00000000000E+00  0.00000000000E+00  0.64316304691E+02  0.64316304691E+02  0.00000000000E+00 0.  1.
          2   -1    0    0  501    0  0.00000000000E+00 -0.00000000000E+00 -0.64216534986E+03  0.64216534986E+03  0.00000000000E+00 0. -1.
         25    2    1    2    0    0  0.61947376951E+02  0.15068804238E+03 -0.20910811230E+03  0.29312099095E+03  0.12509735840E+03 0.  0.
         23    2    1    2    0    0 -0.61947376951E+02 -0.15068804238E+03 -0.36874093287E+03  0.41336066360E+03  0.91393648647E+02 0.  0.
          5    1    3    3  502    0  0.30452490710E+02 -0.16163507144E+02 -0.26126060831E+02  0.43458677018E+02  0.41800000000E+01 0. -1.
         -5    1    3    3    0  502  0.31494886241E+02  0.16685154952E+03 -0.18298205147E+03  0.24966231393E+03  0.41800000000E+01 0. -1.
        -11    1    4    4    0    0 -0.81909052347E+02 -0.11243539745E+03 -0.23785862610E+03  0.27554951908E+03  0.00000000000E+00 0.  1.
         11    1    4    4    0    0  0.19961675396E+02 -0.38252644927E+02 -0.13088230677E+03  0.13781114452E+03  0.00000000000E+00 0. -1.
</event>
<event>
 8    1  0.7016814E-009  0.1449560E+03  0.7561462E-02  0.1206812E+00
          3   -1    0    0  501    0  0.00000000000E+00  0.00000000000E+00  0.45522295598E+03  0.45522295598E+03  0.00000000000E+00 0. -1.
         -3   -1    0    0    0  501 -0.00000000000E+00 -0.00000000000E+00 -0.59436468066E+02  0.59436468066E+02  0.00000000000E+00 0.  1.
         25    2    1    2    0    0 -0.25405746368E+02 -0.12180733452E+03  0.21264298034E+03  0.27630936559E+03  0.12508936699E+03 0.  0.
         23    2    1    2    0    0  0.25405746368E+02  0.12180733452E+03  0.18314350757E+03  0.23835005845E+03  0.88242434840E+02 0.  0.
          5    1    3    3  502    0 -0.65732763662E+02 -0.89691690502E+02  0.89700655355E+02  0.14293031706E+03  0.41800000000E+01 0. -1.
         -5    1    3    3    0  502  0.40327017294E+02 -0.32115644020E+02  0.12294232499E+03  0.13337904853E+03  0.41800000000E+01 0. -1.
        -11    1    4    4    0    0 -0.22932397367E+01  0.48369210217E+02  0.11733593806E+02  0.49824859951E+02  0.00000000000E+00 0.  1.
         11    1    4    4    0    0  0.27698986105E+02  0.73438124304E+02  0.17140991376E+03  0.18852519850E+03  0.00000000000E+00 0. -1.
</event>
<event>
 8    1  0.7016814E-009  0.1749969E+03  0.7561462E-02  0.1172735E+00
         -4   -1    0    0    0  501 -0.00000000000E+00  0.00000000000E+00  0.15571281970E+03  0.15571281970E+03  0.00000000000E+00 0. -1.
          4   -1    0    0  501    0  0.00000000000E+00 -0.00000000000E+00 -0.22681259188E+03  0.22681259188E+03  0.00000000000E+00 0.  1.
         25    2    1    2    0    0 -0.14801895248E+03 -0.34950153619E+02 -0.50097734079E+02  0.20319472338E+03  0.12508872499E+03 0.  0.
         23    2    1    2    0    0  0.14801895248E+03  0.34950153619E+02 -0.21002038102E+02  0.17933068820E+03  0.92667613512E+02 0.  0.
          5    1    3    3  502    0 -0.31109872039E+02  0.26904188164E+02  0.27630837760E+02  0.49725195569E+02  0.41800000000E+01 0.  1.
         -5    1    3    3    0  502 -0.11690908044E+03 -0.61854341783E+02 -0.77728571839E+02  0.15346952781E+03  0.41800000000E+01 0.  1.
        -11    1    4    4    0    0  0.72074438678E+02 -0.28356713282E+02 -0.21784270899E+02  0.80457332528E+02  0.00000000000E+00 0. -1.
         11    1    4    4    0    0  0.75944513801E+02  0.63306866900E+02  0.78223279764E+00  0.98873355669E+02  0.00000000000E+00 0.  1.
</event>
<event>
 8    1  0.7016814E-009  0.2563856E+03  0.7561462E-02  0.1109335E+00
          1   -1    0    0  501    0  0.00000000000E+00  0.00000000000E+00  0.29011718771E+03  0.29011718771E+03  0.00000000000E+00 0. -1.
         -1   -1    0    0    0  501 -0.00000000000E+00 -0.00000000000E+00 -0.24995121291E+03  0.24995121291E+03  0.00000000000E+00 0.  1.
         25    2    1    2    0    0 -0.23685166679E+03 -0.51388235515E+02 -0.24128094305E+02  0.27380446237E+03  0.12508899178E+03 0.  0.
         23    2    1    2    0    0  0.23685166679E+03  0.51388235515E+02  0.64294069107E+02  0.26626393825E+03  0.89572845643E+02 0.  0.
          5    1    3    3  502    0  0.55540344431E+00 -0.20812990697E+02 -0.27040505791E+02  0.34382414228E+02  0.41800000000E+01 0.  1.
         -5    1    3    3    0  502 -0.23740707024E+03 -0.30575244818E+02  0.29124114865E+01  0.23942204814E+03  0.41800000000E+01 0.  1.
        -11    1    4    4    0    0  0.82667077148E+02  0.52524484496E+02 -0.30970568301E+01  0.97991116316E+02  0.00000000000E+00 0.  1.
         11    1    4    4    0    0  0.15418458964E+03 -0.11362489815E+01  0.67391125937E+02  0.16827282193E+03  0.00000000000E+00 0. -1.
</event>
<event>
 8    1  0.7016814E-009  0.1455981E+03  0.7561462E-02  0.1205989E+00
          1   -1    0    0  501    0  0.00000000000E+00  0.00000000000E+00  0.21512825451E+03  0.21512825451E+03  0.00000000000E+00 0. -1.
         -1   -1    0    0    0  501 -0.00000000000E+00 -0.00000000000E+00 -0.11810525384E+03  0.11810525384E+03  0.00000000000E+00 0.  1.
         25    2    1    2    0    0 -0.81200178630E+02  0.81907855319E+02  0.69334651177E+02  0.18373195606E+03  0.12509105504E+03 0.  0.
         23    2    1    2    0    0  0.81200178630E+02 -0.81907855319E+02  0.27688349496E+02  0.14950155230E+03  0.91003866234E+02 0.  0.
          5    1    3    3  502    0 -0.70542613049E+02  0.11023456065E+03  0.77435376624E+02  0.15212372783E+03  0.41800000000E+01 0.  1.
         -5    1    3    3    0  502 -0.10657565582E+02 -0.28326705327E+02 -0.81007254468E+01  0.31608228226E+02  0.41800000000E+01 0.  1.
        -11    1    4    4    0    0 -0.74884544904E+00 -0.35535827003E+02  0.41160364868E+02  0.54383190476E+02  0.00000000000E+00 0. -1.
         11    1    4    4    0    0  0.81949024079E+02 -0.46372028316E+02 -0.13472015372E+02  0.95118361823E+02  0.00000000000E+00 0.  1.
</event>
<event>
 8    1  0.7016814E-009  0.1572551E+03  0.7561462E-02  0.1191831E+00
          2   -1    0    0  501    0  0.00000000000E+00  0.00000000000E+00  0.15997925119E+03  0.15997925119E+03  0.00000000000E+00 0. -1.
         -2   -1    0    0    0  501 -0.00000000000E+00 -0.00000000000E+00 -0.21941710215E+03  0.21941710215E+03  0.00000000000E+00 0.  1.
         25    2    1    2    0    0  0.12818703867E+03 -0.60935782991E+02  0.25357247268E+02  0.19088242755E+03  0.12509206460E+03 0.  0.
         23    2    1    2    0    0 -0.12818703867E+03  0.60935782991E+02 -0.84795098236E+02  0.18851392579E+03  0.90566025630E+02 0.  0.
          5    1    3    3  502    0  0.66833259185E+02  0.20913379561E+02 -0.27880210997E+02  0.75490612285E+02  0.41800000000E+01 0. -1.
         -5    1    3    3    0  502  0.61353779489E+02 -0.81849162552E+02  0.53237458265E+02  0.11539181527E+03  0.41800000000E+01 0. -1.
        -11    1    4    4    0    0 -0.53855249736E+02  0.23622738654E+02  0.12903857480E+02  0.60207401899E+02  0.00000000000E+00 0. -1.
         11    1    4    4    0    0 -0.74331788938E+02  0.37313044338E+02 -0.97698955715E+02  0.12830652389E+03  0.00000000000E+00 0.  1.
</event>
<event>
 8    1  0.7016814E-009  0.1399988E+03  0.7561462E-02  0.1213331E+00
          1   -1    0    0  501    0  0.00000000000E+00  0.00000000000E+00  0.11887555997E+03  0.11887555997E+03  0.00000000000E+00 0. -1.
         -1   -1    0    0    0  501 -0.00000000000E+00 -0.00000000000E+00 -0.22109086370E+03  0.22109086370E+03  0.00000000000E+00 0.  1.
         25    2    1    2    0    0 -0.26339051471E+02  0.10578556843E+03 -0.31392629152E+01  0.16595840226E+03  0.12509198291E+03 0.  0.
         23    2    1    2    0    0  0.26339051471E+02 -0.10578556843E+03 -0.99076040811E+02  0.17400802141E+03  0.92619639023E+02 0.  0.
          5    1    3    3  502    0 -0.51945017508E+02 -0.45842527613E+01 -0.51086202948E+01  0.52563015692E+02  0.41800000000E+01 0.  1.
         -5    1    3    3    0  502  0.25605966037E+02  0.11036982119E+03  0.19693573796E+01  0.11339538657E+03  0.41800000000E+01 0.  1.
        -11    1    4    4    0    0  0.17989338362E+02 -0.15828908675E+02 -0.77505801099E+02  0.81125334197E+02  0.00000000000E+00 0.  1.
         11    1    4    4    0    0  0.83497131092E+01 -0.89956659755E+02 -0.21570239712E+02  0.92882687216E+02  0.00000000000E+00 0. -1.
</event>
<event>
 8    1  0.7016814E-009  0.2057537E+03  0.7561462E-02  0.1144973E+00
          2   -1    0    0  501    0  0.00000000000E+00  0.00000000000E+00  0.27331705440E+03  0.27331705440E+03  0.00000000000E+00 0. -1.
         -2   -1    0    0    0  501 -0.00000000000E+00 -0.00000000000E+00 -0.18271918336E+03  0.18271918336E+03  0.00000000000E+00 0.  1.
         25    2    1    2    0    0 -0.99527627613E+02  0.14364407349E+03 -0.41171921748E+02  0.21881798805E+03  0.12508723454E+03 0.  0.
         23    2    1    2    0    0  0.99527627613E+02 -0.14364407349E+03  0.13176979279E+03  0.23721824970E+03  0.91486890823E+02 0.  0.
          5    1    3    3  502    0 -0.10567839731E+03  0.43912550587E+02 -0.28514340002E+02  0.11801176103E+03  0.41800000000E+01 0.  1.
         -5    1    3    3    0  502  0.61507696931E+01  0.99731522908E+02 -0.12657581746E+02  0.10080622701E+03  0.41800000000E+01 0.  1.
        -11    1    4    4    0    0  0.86722835931E+02 -0.45359952400E+02  0.59262523573E+02  0.11441338319E+03  0.00000000000E+00 0.  1.
         11    1    4    4    0    0  0.12804791682E+02 -0.98284121094E+02  0.72507269215E+02  0.12280486651E+03  0.00000000000E+00 0. -1.
</event>
<event>
 8    1  0.7016814E-009  0.9378216E+02  0.7561462E-02  0.1293943E+00
          1   -1    0    0  501    0  0.00000000000E+00  0.00000000000E+00  0.97610019377E+02  0.97610019377E+02  0.00000000000E+00 0. -1.
         -1   -1    0    0    0  501 -0.00000000000E+00 -0.00000000000E+00 -0.25109096668E+03  0.25109096668E+03  0.00000000000E+00 0.  1.
         25    2    1    2    0    0 -0.82581585298E+02 -0.33845351435E+02 -0.15914589317E+03  0.22122326062E+03  0.12508832752E+03 0.  0.
         23    2    1    2    0    0  0.82581585298E+02  0.33845351435E+02  0.56649458672E+01  0.12747772544E+03  0.90847415082E+02 0.  0.
          5    1    3    3  502    0 -0.13843763359E+02 -0.18918141459E+02 -0.14797565877E+03  0.14987933096E+03  0.41800000000E+01 0. -1.
         -5    1    3    3    0  502 -0.68737821940E+02 -0.14927209976E+02 -0.11170234398E+02  0.71343929659E+02  0.41800000000E+01 0. -1.
        -11    1    4    4    0    0  0.17696836192E+02  0.20433788346E+02  0.43473801090E+02  0.51192666454E+02  0.00000000000E+00 0. -1.
         11    1    4    4    0    0  0.64884749106E+02  0.13411563089E+02 -0.37808855223E+02  0.76285058985E+02  0.00000000000E+00 0.  1.
</event>
<event>
 8    1  0.7016814E-009  0.1001228E+03  0.7561462E-02  0.1280038E+00
         -1   -1    0    0    0  501 -0.00000000000E+00  0.00000000000E+00  0.23824174022E+02  0.23824174022E+02  0.00000000000E+00 0.  1.
          1   -1    0    0  501    0  0.00000000000E+00 -0.00000000000E+00 -0.65278777172E+03  0.65278777172E+03  0.00000000000E+00 0. -1.
         25    2    1    2    0    0  0.38090749426E+02 -0.12399976738E+02 -0.47773142827E+03  0.49545860606E+03  0.12508896096E+03 0.  0.
         23    2    1    2    0    0 -0.38090749426E+02  0.12399976738E+02 -0.15123216943E+03  0.18115333968E+03  0.91327426277E+02 0.  0.
          5    1    3    3  502    0 -0.30565200988E+02  0.10488869519E+02 -0.32242136351E+03  0.32406366033E+03  0.41800000000E+01 0.  1.
         -5    1    3    3    0  502  0.68655950414E+02 -0.22888846257E+02 -0.15531006475E+03  0.17139494574E+03  0.41800000000E+01 0.  1.
        -11    1    4    4    0    0 -0.38859328151E+01 -0.35831238004E+02 -0.85240135103E+02  0.92546521939E+02  0.00000000000E+00 0. -1.
         11    1    4    4    0    0 -0.34204816611E+02  0.48231214742E+02 -0.65992034332E+02  0.88606817741E+02  0.00000000000E+00 0.  1.
</event>
<event>
 8    1  0.7016814E-009  0.1152835E+03  0.7561462E-02  0.1251087E+00
         -2   -1    0    0    0  501 -0.00000000000E+00  0.00000000000E+00  0.41509305378E+03  0.41509305378E+03  0.00000000000E+00 0.  1.
          2   -1    0    0  501    0  0.00000000000E+00 -0.00000000000E+00 -0.41371276674E+02  0.41371276674E+02  0.00000000000E+00 0. -1.
         25    2    1    2    0    0  0.49730706916E+01  0.62407576227E+02  0.27279994733E+03  0.30657770076E+03  0.12510251130E+03 0.  0.
         23    2    1    2    0    0 -0.49730706916E+01 -0.62407576227E+02  0.10092182977E+03  0.14988662969E+03  0.91440412481E+02 0.  0.
          5    1    3    3  502    0 -0.50194566185E+02  0.24057075698E+02  0.19903070335E+03  0.20670977393E+03  0.41800000000E+01 0.  1.
         -5    1    3    3    0  502  0.55167636877E+02  0.38350500528E+02  0.73769243987E+02  0.99867926822E+02  0.41800000000E+01 0.  1.
        -11    1    4    4    0    0 -0.45891220036E+02 -0.39419565715E+02  0.74699863122E+02  0.96124792785E+02  0.00000000000E+00 0.  1.
         11    1    4    4    0    0  0.40918149344E+02 -0.22988010512E+02  0.26221966647E+02  0.53761836910E+02  0.00000000000E+00 0. -1.
</event>
<event>
 8    1  0.7016814E-009  0.1355839E+03  0.7561462E-02  0.1219398E+00
         -1   -1    0    0    0  501 -0.00000000000E+00  0.00000000000E+00  0.29238338070E+03  0.29238338070E+03  0.00000000000E+00 0.  1.
          1   -1    0    0  501    0  0.00000000000E+00 -0.00000000000E+00 -0.67242913055E+02  0.67242913055E+02  0.00000000000E+00 0. -1.
         25    2    1    2    0    0  0.64985606050E+02 -0.55258227410E+02  0.14835847128E+03  0.21197596385E+03  0.12508785936E+03 0.  0.
         23    2    1    2    0    0 -0.64985606050E+02  0.55258227410E+02  0.76781996366E+02  0.14765032991E+03  0.92889957834E+02 0.  0.
          5    1    3    3  502    0  0.58851287815E+02 -0.92290968782E+02  0.12995540544E+03  0.16996169215E+03  0.41800000000E+01 0.  1.
         -5    1    3    3    0  502  0.61343182349E+01  0.37032741372E+02  0.18403065842E+02  0.42014271696E+02  0.41800000000E+01 0.  1.
        -11    1    4    4    0    0  0.19087492043E+02 -0.58061987800E+01  0.23661476511E+02  0.30950117406E+02  0.00000000000E+00 0.  1.
         11    1    4    4    0    0 -0.84073098093E+02  0.61064426190E+02  0.53120519854E+02  0.11670021250E+03  0.00000000000E+00 0. -1.
</event>
<event>
 8    1  0.7016814E-009  0.1055099E+03  0.7561462E-02  0.1269118E+00
          1   -1    0    0  501    0  0.00000000000E+00  0.00000000000E+00  0.15694676222E+03  0.15694676222E+03  0.00000000000E+00 0. -1.
         -1   -1    0    0    0  501 -0.00000000000E+00 -0.00000000000E+00 -0.85285667424E+02  0.85285667424E+02  0.00000000000E+00 0.  1.
         25    2    1    2    0    0 -0.27166756906E+02  0.26487793582E+00  0.67142825166E+02  0.14454850703E+03  0.12509200243E+03 0.  0.
         23    2    1    2    0    0  0.27166756906E+02 -0.26487793582E+00  0.45182696320E+01  0.97683922616E+02  0.93721028249E+02 0.  0.
          5    1    3    3  502    0 -0.40992726468E+02  0.55584771266E+02  0.48169753753E+02  0.84308172774E+02  0.41800000000E+01 0.  1.
         -5    1    3    3    0  502  0.13825969562E+02 -0.55319893330E+02  0.18973071413E+02  0.60240334255E+02  0.41800000000E+01 0.  1.
        -11    1    4    4    0    0 -0.26984797311E+02 -0.11525700063E+02  0.25154782696E+02  0.38649503753E+02  0.00000000000E+00 0. -1.
         11    1    4    4    0    0  0.54151554217E+02  0.11260822127E+02 -0.20636513064E+02  0.59034418863E+02  0.00000000000E+00 0.  1.
</event>
<event>
 8    1  0.7016814E-009  0.8022916E+02  0.7561462E-02  0.1328402E+00
          2   -1    0    0  501    0  0.00000000000E+00  0.00000000000E+00  0.14268890425E+03  0.14268890425E+03  0.00000000000E+00 0. -1.
         -2   -1    0    0    0  501 -0.00000000000E+00 -0.00000000000E+00 -0.93498959977E+02  0.93498959977E+02  0.00000000000E+00 0.  1.
         25    2    1    2    0    0  0.54127169242E+01  0.24374163220E+02  0.69850991620E+02  0.14542854006E+03  0.12508757691E+03 0.  0.
         23    2    1    2    0    0 -0.54127169242E+01 -0.24374163220E+02 -0.20661047349E+02  0.90759324167E+02  0.84776050323E+02 0.  0.
          5    1    3    3  502    0  0.28592265096E+02  0.38096820710E+02 -0.19778824673E+02  0.51745141579E+02  0.41800000000E+01 0.  1.
         -5    1    3    3    0  502 -0.23179548172E+02 -0.13722657490E+02  0.89629816293E+02  0.93683398480E+02  0.41800000000E+01 0.  1.
        -11    1    4    4    0    0 -0.17974305725E+02  0.27033109978E+02 -0.19412724098E+02  0.37824840493E+02  0.00000000000E+00 0.  1.
         11    1    4    4    0    0  0.12561588801E+02 -0.51407273198E+02 -0.12483232510E+01  0.52934483674E+02  0.00000000000E+00 0. -1.
</event>
<event>
 8    1  0.7016814E-009  0.1023960E+03  0.7561462E-02  0.1275337E+00
          2   -1    0    0  501    0  0.00000000000E+00  0.00000000000E+00  0.31394337540E+02  0.31394337540E+02  0.00000000000E+00 0. -1.
         -2   -1    0    0    0  501 -0.00000000000E+00 -0.00000000000E+00 -0.46944969655E+03  0.46944969655E+03  0.00000000000E+00 0.  1.
         25    2    1    2    0    0 -0.20535065793E+02  0.20978357979E+02 -0.15086006385E+03  0.19816363679E+03  0.12509311592E+03 0.  0.
         23    2    1    2    0    0  0.20535065793E+02 -0.20978357979E+02 -0.28719529516E+03  0.30268039730E+03  0.90953311745E+02 0.  0.
          5    1    3    3  502    0 -0.63743131201E+02  0.51832015724E+01 -0.13479534140E+03  0.14925585019E+03  0.41800000000E+01 0.  1.
         -5    1    3    3    0  502  0.43208065408E+02  0.15795156407E+02 -0.16064722448E+02  0.48907786594E+02  0.41800000000E+01 0.  1.
        -11    1    4    4    0    0  0.48934070593E+02 -0.37501808911E+02 -0.20786931581E+03  0.21681923667E+03  0.00000000000E+00 0.  1.
         11    1    4    4    0    0 -0.28399004801E+02  0.16523450931E+02 -0.79325979348E+02  0.85861160625E+02  0.00000000000E+00 0. -1.
</event>
<event>
 8    1  0.7016814E-009  0.7774826E+02  0.7561462E-02  0.1335566E+00
         -2   -1    0    0    0  501 -0.00000000000E+00  0.00000000000E+00  0.25630737373E+02  0.25630737373E+02  0.00000000000E+00 0.  1.
          2   -1    0    0  501    0  0.00000000000E+00 -0.00000000000E+00 -0.49413492460E+03  0.49413492460E+03  0.00000000000E+00 0. -1.
         25    2    1    2    0    0 -0.87534870742E+01 -0.23337527572E+02 -0.22531630041E+03  0.25891439298E+03  0.12509182201E+03 0.  0.
         23    2    1    2    0    0  0.87534870742E+01  0.23337527572E+02 -0.24318788681E+03  0.26085126898E+03  0.91004244460E+02 0.  0.
          5    1    3    3  502    0 -0.16669090618E+01  0.19671089658E+02 -0.21226534967E+03  0.21322237553E+03  0.41800000000E+01 0.  1.
         -5    1    3    3    0  502 -0.70865780124E+01 -0.43008617230E+02 -0.13050950736E+02  0.45692017455E+02  0.41800000000E+01 0.  1.
        -11    1    4    4    0    0 -0.27997743550E+02  0.41870695643E+02 -0.10156952069E+03  0.11337282007E+03  0.00000000000E+00 0.  1.
         11    1    4    4    0    0  0.36751230624E+02 -0.18533168070E+02 -0.14161836612E+03  0.14747844891E+03  0.00000000000E+00 0. -1.
</event>
<event>
 8    1  0.7016814E-009  0.1252165E+03  0.7561462E-02  0.1234731E+00
          1   -1    0    0  501    0  0.00000000000E+00  0.00000000000E+00  0.54977117927E+02  0.54977117927E+02  0.00000000000E+00 0. -1.
         -1   -1    0    0    0  501 -0.00000000000E+00 -0.00000000000E+00 -0.32696500344E+03  0.32696500344E+03  0.00000000000E+00 0.  1.
         25    2    1    2    0    0 -0.65254816497E+02  0.16611069774E+02 -0.95546224891E+02  0.17120318773E+03  0.12508929484E+03 0.  0.
         23    2    1    2    0    0  0.65254816497E+02 -0.16611069774E+02 -0.17644166062E+03  0.21073893363E+03  0.93515345430E+02 0.  0.
          5    1    3    3  502    0  0.29036226717E+02 -0.24355540411E+02 -0.35366227332E+02  0.52005165574E+02  0.41800000000E+01 0.  1.
         -5    1    3    3    0  502 -0.94291043214E+02  0.40966610185E+02 -0.60179997559E+02  0.11919802216E+03  0.41800000000E+01 0.  1.
        -11    1    4    4    0    0  0.84762437435E+02 -0.15634234892E+01 -0.10372852077E+03  0.13396537282E+03  0.00000000000E+00 0. -1.
         11    1    4    4    0    0 -0.19507620938E+02 -0.15047646285E+02 -0.72713139850E+02  0.76773560815E+02  0.00000000000E+00 0.  1.
</event>
<event>
 8    1  0.7016814E-009  0.1006428E+03  0.7561462E-02  0.1278950E+00
          2   -1    0    0  501    0  0.00000000000E+00  0.00000000000E+00  0.41696457392E+03  0.41696457392E+03  0.00000000000E+00 0. -1.
         -2   -1    0    0    0  501 -0.00000000000E+00 -0.00000000000E+00 -0.30862752357E+02  0.30862752357E+02  0.00000000000E+00 0.  1.
         25    2    1    2    0    0 -0.27655588912E+02 -0.44281631615E+01  0.18596707431E+03  0.22586661132E+03  0.12509010016E+03 0.  0.
         23    2    1    2    0    0  0.27655588912E+02  0.44281631615E+01  0.20013474726E+03  0.22196071496E+03  0.91805237851E+02 0.  0.
          5    1    3    3  502    0  0.49624679269E+02 -0.64267014628E+01  0.63077672336E+02  0.80623671658E+02  0.41800000000E+01 0. -1.
         -5    1    3    3    0  502 -0.77280268181E+02  0.19985383013E+01  0.12288940197E+03  0.14524293966E+03  0.41800000000E+01 0. -1.
        -11    1    4    4    0    0 -0.44858763678E+01 -0.27786577289E+02  0.15616758558E+03  0.15868374759E+03  0.00000000000E+00 0. -1.
         11    1    4    4    0    0  0.32141465280E+02  0.32214740451E+02  0.43967161677E+02  0.63276967362E+02  0.00000000000E+00 0.  1.
</event>
<event>
 8    1  0.7016814E-009  0.1068694E+03  0.7561462E-02  0.1266480E+00
         -1   -1    0    0    0  501 -0.00000000000E+00  0.00000000000E+00  0.13631930805E+03  0.13631930805E+03  0.00000000000E+00 0.  1.
          1   -1    0    0  501    0  0.00000000000E+00 -0.00000000000E+00 -0.12323277916E+03  0.12323277916E+03  0.00000000000E+00 0. -1.
         25    2    1    2    0    0 -0.38179035501E+02  0.57151829582E+02  0.19809173180E+02  0.14410369631E+03  0.12509796790E+03 0.  0.
         23    2    1    2    0    0  0.38179035501E+02 -0.57151829582E+02 -0.67226442901E+01  0.11544839089E+03  0.92515764265E+02 0.  0.
          5    1    3    3  502    0 -0.40724717743E+02 -0.12144234086E+01 -0.42199098584E+02  0.58806579400E+02  0.41800000000E+01 0.  1.
         -5    1    3    3    0  502  0.25456822422E+01  0.58366252990E+02  0.62008271764E+02  0.85297116911E+02  0.41800000000E+01 0.  1.
        -11    1    4    4    0    0  0.32780283012E+02  0.18986300084E+02 -0.95491729392E+01  0.39066779353E+02  0.00000000000E+00 0. -1.
         11    1    4    4    0    0  0.53987524885E+01 -0.76138129665E+02  0.28265286491E+01  0.76381611541E+02  0.00000000000E+00 0.  1.
</event>
<event>
 8    1  0.7016814E-009  0.1045926E+03  0.7561462E-02  0.1270924E+00
          1   -1    0    0  501    0  0.00000000000E+00  0.00000000000E+00  0.13360154918E+03  0.13360154918E+03  0.00000000000E+00 0. -1.
         -1   -1    0    0    0  501 -0.00000000000E+00 -0.00000000000E+00 -0.11241002744E+03  0.11241002744E+03  0.00000000000E+00 0.  1.
         25    2    1    2    0    0 -0.22643155859E+02  0.39283656831E+02  0.45677628577E+02  0.14067440889E+03  0.12508767071E+03 0.  0.
         23    2    1    2    0    0  0.22643155859E+02 -0.39283656831E+02 -0.24486106836E+02  0.10533716773E+03  0.91871819820E+02 0.  0.
          5    1    3    3  502    0  0.20282968432E+02 -0.23817800551E+02 -0.22091032498E+02  0.38524960069E+02  0.41800000000E+01 0. -1.
         -5    1    3    3    0  502 -0.42926124291E+02  0.63101457382E+02  0.67768661076E+02  0.10214944882E+03  0.41800000000E+01 0. -1.
        -11    1    4    4    0    0 -0.30729510184E+02 -0.36545358662E+02 -0.33459429149E+01  0.47865032851E+02  0.00000000000E+00 0. -1.
         11    1    4    4    0    0  0.53372666043E+02 -0.27382981698E+01 -0.21140163921E+02  0.57472134883E+02  0.00000000000E+00 0.  1.
</event>
<event>
 8    1  0.7016814E-009  0.9187202E+02  0.7561462E-02  0.1298381E+00
         -1   -1    0    0    0  501 -0.00000000000E+00  0.00000000000E+00  0.17677306514E+02  0.17677306514E+02  0.00000000000E+00 0.  1.
          1   -1    0    0  501    0  0.00000000000E+00 -0.00000000000E+00 -0.74521967968E+03  0.74521967968E+03  0.00000000000E+00 0. -1.
         25    2    1    2    0    0  0.15528734504E+02  0.28539731432E+02 -0.48032411174E+03  0.49740786775E+03  0.12509067398E+03 0.  0.
         23    2    1    2    0    0 -0.15528734504E+02 -0.28539731432E+02 -0.24721826143E+03  0.26548911845E+03  0.91169870920E+02 0.  0.
          5    1    3    3  502    0  0.14562497678E+02  0.68626798102E+02 -0.16262780113E+03  0.17716370355E+03  0.41800000000E+01 0. -1.
         -5    1    3    3    0  502  0.96623682654E+00 -0.40087066671E+02 -0.31769631061E+03  0.32024416420E+03  0.41800000000E+01 0. -1.
        -11    1    4    4    0    0  0.49886187158E+01 -0.45962217262E+02 -0.22742960421E+03  0.23208109920E+03  0.00000000000E+00 0. -1.
         11    1    4    4    0    0 -0.20517353220E+02  0.17422485831E+02 -0.19788657217E+02  0.33408019249E+02  0.00000000000E+00 0.  1.
</event>
<event>
 8    1  0.7016814E-009  0.1002390E+03  0.7561462E-02  0.1279794E+00
         -1   -1    0    0    0  501 -0.00000000000E+00  0.00000000000E+00  0.19077544208E+03  0.19077544208E+03  0.00000000000E+00 0.  1.
          1   -1    0    0  501    0  0.00000000000E+00 -0.00000000000E+00 -0.14946641974E+03  0.14946641974E+03  0.00000000000E+00 0. -1.
         25    2    1    2    0    0 -0.88537777388E+01  0.73765309883E+02 -0.86631166720E+02  0.16932795636E+03  0.12508911797E+03 0.  0.
         23    2    1    2    0    0  0.88537777388E+01 -0.73765309883E+02  0.12794018906E+03  0.17091390545E+03  0.85575468315E+02 0.  0.
          5    1    3    3  502    0 -0.34574288847E+02  0.43509444975E+02  0.17003333908E+02  0.58266963327E+02  0.41800000000E+01 0.  1.
         -5    1    3    3    0  502  0.25720511109E+02  0.30255864908E+02 -0.10363450063E+03  0.11106099303E+03  0.41800000000E+01 0.  1.
        -11    1    4    4    0    0  0.32408587166E+02 -0.58495022397E+01  0.13123546410E+02  0.35450820426E+02  0.00000000000E+00 0. -1.
         11    1    4    4    0    0 -0.23554809427E+02 -0.67915807643E+02  0.11481664265E+03  0.13546308503E+03  0.00000000000E+00 0.  1.
</event>
<event>
 8    1  0.7016814E-009  0.1484212E+03  0.7561462E-02  0.1202427E+00
          1   -1    0    0  501    0  0.00000000000E+00  0.00000000000E+00  0.21241422000E+03  0.21241422000E+03  0.00000000000E+00 0. -1.
         -1   -1    0    0    0  501 -0.00000000000E+00 -0.00000000000E+00 -0.18576158638E+03  0.18576158638E+03  0.00000000000E+00 0.  1.
         25    2    1    2    0    0  0.38162099487E+02  0.11149196176E+03  0.13117578125E+03  0.21619703295E+03  0.12508904068E+03 0.  0.
         23    2    1    2    0    0 -0.38162099487E+02 -0.11149196176E+03 -0.10452314763E+03  0.18197877343E+03  0.91128383133E+02 0.  0.
          5    1    3    3  502    0 -0.43424089685E+02  0.53693694604E+02  0.72407288139E+02  0.10014465628E+03  0.41800000000E+01 0. -1.
         -5    1    3    3    0  502  0.81586189171E+02  0.57798267154E+02  0.58768493109E+02  0.11605237667E+03  0.41800000000E+01 0. -1.
        -11    1    4    4    0    0 -0.25453271608E+02 -0.13568856922E+02 -0.72732296255E+02  0.78243017786E+02  0.00000000000E+00 0.  1.
         11    1    4    4    0    0 -0.12708827879E+02 -0.97923104836E+02 -0.31790851379E+02  0.10373575564E+03  0.00000000000E+00 0. -1.
</event>
<event>
 8    1  0.7016814E-009  0.9941301E+02  0.7561462E-02  0.1281535E+00
          2   -1    0    0  501    0  0.00000000000E+00  0.00000000000E+00  0.15966654989E+03  0.15966654989E+03  0.00000000000E+00 0. -1.
         -2   -1    0    0    0  501 -0.00000000000E+00 -0.00000000000E+00 -0.83735464077E+02  0.83735464077E+02  0.00000000000E+00 0.  1.
         25    2    1    2    0    0  0.17128117187E+02  0.26070824604E+02  0.11575826091E+02  0.12944032855E+03  0.12509092138E+03 0.  0.
         23    2    1    2    0    0 -0.17128117187E+02 -0.26070824604E+02  0.64355259720E+02  0.11396168542E+03  0.88727707036E+02 0.  0.
          5    1    3    3  502    0 -0.46157800603E+02  0.28459157922E+01 -0.24888409324E+02  0.52683461465E+02  0.41800000000E+01 0. -1.
         -5    1    3    3    0  502  0.63285917790E+02  0.23224908812E+02  0.36464235415E+02  0.76756867082E+02  0.41800000000E+01 0. -1.
        -11    1    4    4    0    0  0.28186322706E+02  0.66454135724E+01  0.47417127432E+02  0.55560906068E+02  0.00000000000E+00 0. -1.
         11    1    4    4    0    0 -0.45314439893E+02 -0.32716238177E+02  0.16938132288E+02  0.58400779350E+02  0.00000000000E+00 0.  1.
</event>
<event>
 8    1  0.7016814E-009  0.1690249E+03  0.7561462E-02  0.1178869E+00
         -2   -1    0    0    0  501 -0.00000000000E+00  0.00000000000E+00  0.11872724842E+03  0.11872724842E+03  0.00000000000E+00 0.  1.
          2   -1    0    0  501    0  0.00000000000E+00 -0.00000000000E+00 -0.38394505669E+03  0.38394505669E+03  0.00000000000E+00 0. -1.
         25    2    1    2    0    0  0.15485365234E+03 -0.23626904227E+02 -0.25163945424E+03  0.32172592557E+03  0.12508905631E+03 0.  0.
         23    2    1    2    0    0 -0.15485365234E+03  0.23626904227E+02 -0.13578354035E+02  0.18094637954E+03  0.89550747208E+02 0.  0.
          5    1    3    3  502    0  0.13747922246E+03  0.18848851056E+01 -0.10838775397E+03  0.17512700252E+03  0.41800000000E+01 0. -1.
         -5    1    3    3    0  502  0.17374429872E+02 -0.25511789333E+02 -0.14325170027E+03  0.14659892305E+03  0.41800000000E+01 0. -1.
        -11    1    4    4    0    0 -0.10304300030E+03 -0.15790156322E+02 -0.38657095131E+02  0.11118255237E+03  0.00000000000E+00 0. -1.
         11    1    4    4    0    0 -0.51810652041E+02  0.39417060549E+02  0.25078741096E+02  0.69763827175E+02  0.00000000000E+00 0.  1.
</event>
<event>
 8    1  0.7016814E-009  0.1349383E+03  0.7561462E-02  0.1220307E+00
         -2   -1    0    0    0  501 -0.00000000000E+00  0.00000000000E+00  0.63419435814E+03  0.63419435814E+03  0.00000000000E+00 0.  1.
          2   -1    0    0  501    0  0.00000000000E+00 -0.00000000000E+00 -0.35393882203E+02  0.35393882203E+02  0.00000000000E+00 0. -1.
         25    2    1    2    0    0  0.31462699840E+02  0.82623129831E+02  0.44293390001E+03  0.46867395794E+03  0.12509338915E+03 0.  0.
         23    2    1    2    0    0 -0.31462699840E+02 -0.82623129831E+02  0.15586657593E+03  0.20091428241E+03  0.90860752355E+02 0.  0.
          5    1    3    3  502    0 -0.41877445498E+02  0.40607844394E+02  0.10380288227E+03  0.11914372932E+03  0.41800000000E+01 0. -1.
         -5    1    3    3    0  502  0.73340145338E+02  0.42015285436E+02  0.33913101774E+03  0.34953022862E+03  0.41800000000E+01 0. -1.
        -11    1    4    4    0    0  0.32078370525E+02 -0.21618943679E+02  0.48580638674E+02  0.62100555838E+02  0.00000000000E+00 0.  1.
         11    1    4    4    0    0 -0.63541070365E+02 -0.61004186152E+02  0.10728593725E+03  0.13881372657E+03  0.00000000000E+00 0. -1.
</event>
<event>
 8    1  0.7016814E-009  0.1324438E+03  0.7561462E-02  0.1223874E+00
         -1   -1    0    0    0  501 -0.00000000000E+00  0.00000000000E+00  0.24383329134E+03  0.24383329134E+03  0.00000000000E+00 0.  1.
          1   -1    0    0  501    0  0.00000000000E+00 -0.00000000000E+00 -0.10104501829E+03  0.10104501829E+03  0.00000000000E+00 0. -1.
         25    2    1    2    0    0 -0.10681827909E+03  0.31399041931E+02  0.93623895836E+02  0.19185571503E+03  0.12508851640E+03 0.  0.
         23    2    1    2    0    0  0.10681827909E+03 -0.31399041931E+02  0.49164377205E+02  0.15302259460E+03  0.92750923942E+02 0.  0.
          5    1    3    3  502    0 -0.81091497393E+02  0.43489555216E+02  0.12106636795E+03  0.15212399617E+03  0.41800000000E+01 0.  1.
         -5    1    3    3    0  502 -0.25726781694E+02 -0.12090513285E+02 -0.27442472111E+02  0.39731718858E+02  0.41800000000E+01 0.  1.
        -11    1    4    4    0    0  0.62198909925E+02  0.29263243296E+02  0.31818148991E+02  0.75745867275E+02  0.00000000000E+00 0.  1.
         11    1    4    4    0    0  0.44619369163E+02 -0.60662285227E+02  0.17346228214E+02  0.77276727329E+02  0.00000000000E+00 0. -1.
</event>
<event>
 8    1  0.7016814E-009  0.9379837E+02  0.7561462E-02  0.1293906E+00
          1   -1    0    0  501    0  0.00000000000E+00  0.00000000000E+00  0.36382224896E+03  0.36382224896E+03  0.00000000000E+00 0. -1.
         -1   -1    0    0    0  501 -0.00000000000E+00 -0.00000000000E+00 -0.13324645025E+03  0.13324645025E+03  0.00000000000E+00 0.  1.
         25    2    1    2    0    0 -0.62318078852E+02  0.17448149143E+02  0.32314243443E+03  0.35250005312E+03  0.12508906293E+03 0.  0.
         23    2    1    2    0    0  0.62318078852E+02 -0.17448149143E+02 -0.92566635723E+02  0.14456864608E+03  0.90241512184E+02 0.  0.
          5    1    3    3  502    0 -0.73356025362E+02  0.29251733265E+02  0.32609589478E+03  0.33554846944E+03  0.41800000000E+01 0.  1.
         -5    1    3    3    0  502  0.11037946510E+02 -0.11803584121E+02 -0.29534603487E+01  0.16951583681E+02  0.41800000000E+01 0.  1.
        -11    1    4    4    0    0  0.68057203479E+02  0.53920341174E+01 -0.24484165519E+02  0.72528141700E+02  0.00000000000E+00 0. -1.
         11    1    4    4    0    0 -0.57391246267E+01 -0.22840183261E+02 -0.68082470204E+02  0.72040504384E+02  0.00000000000E+00 0.  1.
</event>
<event>
 8    1  0.7016814E-009  0.1049916E+03  0.7561462E-02  0.1270136E+00
          1   -1    0    0  501    0  0.00000000000E+00  0.00000000000E+00  0.54791765325E+03  0.54791765325E+03  0.00000000000E+00 0. -1.
         -1   -1    0    0    0  501 -0.00000000000E+00 -0.00000000000E+00 -0.30504209700E+02  0.30504209700E+02  0.00000000000E+00 0.  1.
         25    2    1    2    0    0  0.20081416365E+02  0.34333793334E+02  0.41992246103E+03  0.43996007731E+03  0.12509166117E+03 0.  0.
         23    2    1    2    0    0 -0.20081416365E+02 -0.34333793334E+02  0.97490982513E+02  0.13846178564E+03  0.89917193926E+02 0.  0.
          5    1    3    3  502    0  0.12113944106E+01  0.72340160420E+02  0.14885012806E+03  0.16555482267E+03  0.41800000000E+01 0.  1.
         -5    1    3    3    0  502  0.18870021954E+02 -0.38006367086E+02  0.27107233297E+03  0.27440525463E+03  0.41800000000E+01 0.  1.
        -11    1    4    4    0    0  0.34024061981E+02 -0.17171140181E+02  0.21979848947E+02  0.43995438497E+02  0.00000000000E+00 0.  1.
         11    1    4    4    0    0 -0.54105478346E+02 -0.17162653153E+02  0.75511133566E+02  0.94466347144E+02  0.00000000000E+00 0. -1.
</event>
<event>
 8    1  0.7016814E-009  0.2101882E+03  0.7561462E-02  0.1141417E+00
         -1   -1    0    0    0  501 -0.00000000000E+00  0.00000000000E+00  0.21391355735E+03  0.21391355735E+03  0.00000000000E+00 0. -1.
          1   -1    0    0  501    0  0.00000000000E+00 -0.00000000000E+00 -0.25783137122E+03  0.25783137122E+03  0.00000000000E+00 0.  1.
         25    2    1    2    0    0  0.19264336633E+03  0.16950799215E+02  0.54337685392E+02  0.23664043391E+03  0.12508922705E+03 0.  0.
         23    2    1    2    0    0 -0.19264336633E+03 -0.16950799215E+02 -0.98255499268E+02  0.23510449466E+03  0.90670745504E+02 0.  0.
          5    1    3    3  502    0  0.57603785200E+02  0.58915445267E+02  0.47062468559E+02  0.94981967274E+02  0.41800000000E+01 0.  1.
         -5    1    3    3    0  502  0.13503958113E+03 -0.41964646052E+02  0.72752168337E+01  0.14165846664E+03  0.41800000000E+01 0.  1.
        -11    1    4    4    0    0 -0.78068656371E+02 -0.23819775672E+02 -0.87753233634E+02  0.11984459451E+03  0.00000000000E+00 0.  1.
         11    1    4    4    0    0 -0.11457470996E+03  0.68689764576E+01 -0.10502265634E+02  0.11525990015E+03  0.00000000000E+00 0. -1.
</event>
<event>
 8    1  0.7016814E-009  0.1043131E+03  0.7561462E-02  0.1271479E+00
          2   -1    0    0  501    0  0.00000000000E+00  0.00000000000E+00  0.33612859394E+03  0.33612859394E+03  0.00000000000E+00 0. -1.
         -2   -1    0    0    0  501 -0.00000000000E+00 -0.00000000000E+00 -0.80330076932E+02  0.80330076932E+02  0.00000000000E+00 0.  1.
         25    2    1    2    0    0  0.34931423859E+02  0.77659195757E+02  0.25099729455E+03  0.29308445737E+03  0.12509077591E+03 0.  0.
         23    2    1    2    0    0 -0.34931423859E+02 -0.77659195757E+02  0.48012224575E+01  0.12337421351E+03  0.89145890332E+02 0.  0.
          5    1    3    3  502    0  0.13622662637E+02  0.86246511264E+02  0.25484296952E+03  0.26941872458E+03  0.41800000000E+01 0.  1.
         -5    1    3    3    0  502  0.21308761222E+02 -0.85873155066E+01 -0.38456749631E+01  0.23665732787E+02  0.41800000000E+01 0.  1.
        -11    1    4    4    0    0 -0.17102305575E+02  0.10707878303E+01 -0.30723876824E+02  0.35179426511E+02  0.00000000000E+00 0.  1.
         11    1    4    4    0    0 -0.17829118283E+02 -0.78729983587E+02  0.35525099281E+02  0.88194786996E+02  0.00000000000E+00 0. -1.
</event>
<event>
 8    1  0.7016814E-009  0.1546259E+03  0.7561462E-02  0.1194901E+00
          1   -1    0    0  501    0  0.00000000000E+00  0.00000000000E+00  0.64620837035E+03  0.64620837035E+03  0.00000000000E+00 0. -1.
         -1   -1    0    0    0  501 -0.00000000000E+00 -0.00000000000E+00 -0.45172077842E+02  0.45172077842E+02  0.00000000000E+00 0.  1.
         25    2    1    2    0    0 -0.12410448047E+03  0.35730278868E+02  0.26492995483E+03  0.32017789132E+03  0.12508967273E+03 0.  0.
         23    2    1    2    0    0  0.12410448047E+03 -0.35730278868E+02  0.33610633768E+03  0.37120255688E+03  0.90251277551E+02 0.  0.
          5    1    3    3  502    0 -0.55815987524E+02 -0.46519074391E+02  0.10441748875E+03  0.12727895781E+03  0.41800000000E+01 0. -1.
         -5    1    3    3    0  502 -0.68288492947E+02  0.82249353259E+02  0.16051246608E+03  0.19289893350E+03  0.41800000000E+01 0. -1.
        -11    1    4    4    0    0  0.22992092380E+02 -0.10489352464E+02  0.73431674509E+01  0.26317008480E+02  0.00000000000E+00 0.  1.
         11    1    4    4    0    0  0.10111238809E+03 -0.25240926404E+02  0.32876317023E+03  0.34488554840E+03  0.00000000000E+00 0. -1.
</event>
<event>
 8    1  0.7016814E-009  0.8527582E+02  0.7561462E-02  0.1314713E+00
         -2   -1    0    0    0  501 -0.00000000000E+00  0.00000000000E+00  0.33850225928E+03  0.33850225928E+03  0.00000000000E+00 0.  1.
          2   -1    0    0  501    0  0.00000000000E+00 -0.00000000000E+00 -0.79424058469E+02  0.79424058469E+02  0.00000000000E+00 0. -1.
         25    2    1    2    0    0 -0.38818301385E+02 -0.49377965545E+02  0.27231922490E+03  0.30618194991E+03  0.12507830426E+03 0.  0.
         23    2    1    2    0    0  0.38818301385E+02  0.49377965545E+02 -0.13241024088E+02  0.11174436784E+03  0.91468218639E+02 0.  0.
          5    1    3    3  502    0  0.24207476543E+01 -0.53900188921E+02  0.25558765720E+03  0.26125392494E+03  0.41800000000E+01 0.  1.
         -5    1    3    3    0  502 -0.41239049039E+02  0.45222233756E+01  0.16731567701E+02  0.44928024969E+02  0.41800000000E+01 0.  1.
        -11    1    4    4    0    0  0.36140196115E+02  0.13220177174E+02 -0.47997286781E+02  0.61519317276E+02  0.00000000000E+00 0. -1.
         11    1    4    4    0    0  0.26781052693E+01  0.36157788371E+02  0.34756262693E+02  0.50225050563E+02  0.00000000000E+00 0.  1.
</event>
<event>
 8    1  0.7016814E-009  0.8222009E+02  0.7561462E-02  0.1322867E+00
          1   -1    0    0  501    0  0.00000000000E+00  0.00000000000E+00  0.12014331816E+03  0.12014331816E+03  0.00000000000E+00 0. -1.
         -1   -1    0    0    0  501 -0.00000000000E+00 -0.00000000000E+00 -0.10864802749E+03  0.10864802749E+03  0.00000000000E+00 0.  1.
         25    2    1    2    0    0  0.21304135010E+02  0.30228204917E+02  0.10251521722E+01  0.13044513043E+03  0.12508905058E+03 0.  0.
         23    2    1    2    0    0 -0.21304135010E+02 -0.30228204917E+02  0.10470138496E+02  0.98346215221E+02  0.90524823707E+02 0.  0.
          5    1    3    3  502    0  0.17131312594E+02  0.50672954282E+02 -0.51130505024E+02  0.74114985737E+02  0.41800000000E+01 0.  1.
         -5    1    3    3    0  502  0.41728224159E+01 -0.20444749365E+02  0.52155657196E+02  0.56330144693E+02  0.41800000000E+01 0.  1.
        -11    1    4    4    0    0 -0.40084162770E+02  0.13191289118E+02  0.24762044989E+02  0.48927590229E+02  0.00000000000E+00 0. -1.
         11    1    4    4    0    0  0.18780027760E+02 -0.43419494035E+02 -0.14291906493E+02  0.49418624992E+02  0.00000000000E+00 0.  1.
</event>
<event>
 8    1  0.7016814E-009  0.1302612E+03  0.7561462E-02  0.1227069E+00
         -2   -1    0    0    0  501 -0.00000000000E+00  0.00000000000E+00  0.96096251624E+02  0.96096251624E+02  0.00000000000E+00 0.  1.
          2   -1    0    0  501    0  0.00000000000E+00 -0.00000000000E+00 -0.19738447282E+03  0.19738447282E+03  0.00000000000E+00 0. -1.
         25    2    1    2    0    0  0.15706291963E+02 -0.68598573681E+02 -0.99588033133E+02  0.17469445809E+03  0.12509166808E+03 0.  0.
         23    2    1    2    0    0 -0.15706291963E+02  0.68598573681E+02 -0.17001880608E+01  0.11878626636E+03  0.95680899437E+02 0.  0.
          5    1    3    3  502    0 -0.23126203998E+02  0.28631315913E+02 -0.38410388996E+02  0.53361071438E+02  0.41800000000E+01 0.  1.
         -5    1    3    3    0  502  0.38832495961E+02 -0.97229889594E+02 -0.61177644137E+02  0.12133338665E+03  0.41800000000E+01 0.  1.
        -11    1    4    4    0    0  0.65937399170E+01 -0.23258412772E+02 -0.20355406763E+01  0.24260556396E+02  0.00000000000E+00 0.  1.
         11    1    4    4    0    0 -0.22300031880E+02  0.91856986454E+02  0.33535261545E+00  0.94525709961E+02  0.00000000000E+00 0. -1.
</event>
<event>
 8    1  0.7016814E-009  0.1232326E+03  0.7561462E-02  0.1237858E+00
         -1   -1    0    0    0  501 -0.00000000000E+00  0.00000000000E+00  0.18435299676E+02  0.18435299676E+02  0.00000000000E+00 0.  1.
          1   -1    0    0  501    0  0.00000000000E+00 -0.00000000000E+00 -0.85604541900E+03  0.85604541900E+03  0.00000000000E+00 0. -1.
         25    2    1    2    0    0  0.36414641473E+02  0.51368937466E+02 -0.48689564613E+03  0.50663521965E+03  0.12508829572E+03 0.  0.
         23    2    1    2    0    0 -0.36414641473E+02 -0.51368937466E+02 -0.35071447319E+03  0.36784549902E+03  0.91350290596E+02 0.  0.
          5    1    3    3  502    0 -0.42498418147E+02  0.35809024874E+02 -0.14401262852E+03  0.15441991899E+03  0.41800000000E+01 0. -1.
         -5    1    3    3    0  502  0.78913059620E+02  0.15559912592E+02 -0.34288301760E+03  0.35221530066E+03  0.41800000000E+01 0. -1.
        -11    1    4    4    0    0 -0.42090831947E+02 -0.74938653870E+02 -0.25441863943E+03  0.26854475245E+03  0.00000000000E+00 0. -1.
         11    1    4    4    0    0  0.56761904748E+01  0.23569716404E+02 -0.96295833760E+02  0.99300746569E+02  0.00000000000E+00 0.  1.
</event>
<event>
 8    1  0.7016814E-009  0.1109878E+03  0.7561462E-02  0.1258752E+00
         -1   -1    0    0    0  501 -0.00000000000E+00  0.00000000000E+00  0.51484473149E+02  0.51484473149E+02  0.00000000000E+00 0.  1.
          1   -1    0    0  501    0  0.00000000000E+00 -0.00000000000E+00 -0.34842302485E+03  0.34842302485E+03  0.00000000000E+00 0. -1.
         25    2    1    2    0    0 -0.39708973326E+02 -0.12644863083E+02 -0.64544213548E+02  0.14679673378E+03  0.12508649176E+03 0.  0.
         23    2    1    2    0    0  0.39708973326E+02  0.12644863083E+02 -0.23239433815E+03  0.25311076422E+03  0.91220805917E+02 0.  0.
          5    1    3    3  502    0 -0.62415966642E+02  0.34171574894E+02 -0.11189153665E+02  0.72153440544E+02  0.41800000000E+01 0. -1.
         -5    1    3    3    0  502  0.22706993316E+02 -0.46816437977E+02 -0.53355059883E+02  0.74643293238E+02  0.41800000000E+01 0. -1.
        -11    1    4    4    0    0  0.18103812803E+02  0.51195793963E+02 -0.10398932671E+03  0.11731384158E+03  0.00000000000E+00 0.  1.
         11    1    4    4    0    0  0.21605160522E+02 -0.38550930881E+02 -0.12840501145E+03  0.13579692264E+03  0.00000000000E+00 0. -1.
</event>
<event>
 8    1  0.7016814E-009  0.1209001E+03  0.7561462E-02  0.1241620E+00
          2   -1    0    0  501    0  0.00000000000E+00  0.00000000000E+00  0.65053697348E+03  0.65053697348E+03  0.00000000000E+00 0. -1.
         -2   -1    0    0    0  501 -0.00000000000E+00 -0.00000000000E+00 -0.28747970089E+02  0.28747970089E+02  0.00000000000E+00 0.  1.
         25    2    1    2    0    0  0.38424746154E+02  0.67161891456E+02  0.27528777158E+03  0.31211583247E+03  0.12508299213E+03 0.  0.
         23    2    1    2    0    0 -0.38424746154E+02 -0.67161891456E+02  0.34650123182E+03  0.36716911110E+03  0.93610211584E+02 0.  0.
          5    1    3    3  502    0  0.70575772268E+02  0.47116406615E+02  0.93335353397E+02  0.12621353334E+03  0.41800000000E+01 0. -1.
         -5    1    3    3    0  502 -0.32151026114E+02  0.20045484842E+02  0.18195241818E+03  0.18590229914E+03  0.41800000000E+01 0. -1.
        -11    1    4    4    0    0  0.28165420441E+02 -0.71017980963E+01  0.55177704494E+02  0.62356278899E+02  0.00000000000E+00 0.  1.
         11    1    4    4    0    0 -0.66590166595E+02 -0.60060093360E+02  0.29132352732E+03  0.30481283220E+03  0.00000000000E+00 0. -1.
</event>
<event>
 8    1  0.7016814E-009  0.9233313E+02  0.7561462E-02  0.1297298E+00
          1   -1    0    0  501    0  0.00000000000E+00  0.00000000000E+00  0.30396041036E+03  0.30396041036E+03  0.00000000000E+00 0. -1.
         -1   -1    0    0    0  501 -0.00000000000E+00 -0.00000000000E+00 -0.56944839976E+02  0.56944839976E+02  0.00000000000E+00 0.  1.
         25    2    1    2    0    0  0.76110555974E+01 -0.71937279302E+02  0.14701228245E+03  0.20613430574E+03  0.12508333417E+03 0.  0.
         23    2    1    2    0    0 -0.76110555974E+01  0.71937279302E+02  0.10000328793E+03  0.15477094460E+03  0.93383549808E+02 0.  0.
          5    1    3    3  502    0 -0.29864105078E+02 -0.65953556631E+02  0.15123345005E+03  0.16772228599E+03  0.41800000000E+01 0. -1.
         -5    1    3    3    0  502  0.37475160676E+02 -0.59837226717E+01 -0.42211675979E+01  0.38412019741E+02  0.41800000000E+01 0. -1.
        -11    1    4    4    0    0 -0.12259110630E+02  0.45440426554E+02  0.11479677559E+03  0.12407021336E+03  0.00000000000E+00 0. -1.
         11    1    4    4    0    0  0.46480550325E+01  0.26496852749E+02 -0.14793487661E+02  0.30700731235E+02  0.00000000000E+00 0.  1.
</event>
<event>
 8    1  0.7016814E-009  0.1170554E+03  0.7561462E-02  0.1248035E+00
          2   -1    0    0  501    0  0.00000000000E+00  0.00000000000E+00  0.44346044285E+03  0.44346044285E+03  0.00000000000E+00 0. -1.
         -2   -1    0    0    0  501 -0.00000000000E+00 -0.00000000000E+00 -0.36072398720E+02  0.36072398720E+02  0.00000000000E+00 0.  1.
         25    2    1    2    0    0  0.27393993947E+00 -0.63174296603E+02  0.21169583817E+03  0.25387684767E+03  0.12508900468E+03 0.  0.
         23    2    1    2    0    0 -0.27393993947E+00  0.63174296603E+02  0.19569220596E+03  0.22565599390E+03  0.92919972631E+02 0.  0.
          5    1    3    3  502    0 -0.25950517250E+02 -0.92796108221E+02  0.12022995510E+03  0.15413390786E+03  0.41800000000E+01 0.  1.
         -5    1    3    3    0  502  0.26224457190E+02  0.29621811618E+02  0.91465883062E+02  0.99742939814E+02  0.41800000000E+01 0.  1.
        -11    1    4    4    0    0  0.25061811190E+02  0.67659297368E+02  0.18351679325E+03  0.19719099448E+03  0.00000000000E+00 0. -1.
         11    1    4    4    0    0 -0.25335751129E+02 -0.44850007645E+01  0.12175412715E+02  0.28464999419E+02  0.00000000000E+00 0.  1.
</event>
<event>
 8    1  0.7016814E-009  0.1252682E+03  0.7561462E-02  0.1234651E+00
         -2   -1    0    0    0  501 -0.00000000000E+00  0.00000000000E+00  0.22128311299E+02  0.22128311299E+02  0.00000000000E+00 0. -1.
          2   -1    0    0  501    0  0.00000000000E+00 -0.00000000000E+00 -0.13340066182E+04  0.13340066182E+04  0.00000000000E+00 0.  1.
         25    2    1    2    0    0  0.71873637047E+02  0.24003799136E+02 -0.11262713447E+04  0.11357283226E+04  0.12509867631E+03 0.  0.
         23    2    1    2    0    0 -0.71873637047E+02 -0.24003799136E+02 -0.18560696222E+03  0.22040660691E+03  0.91581252820E+02 0.  0.
          5    1    3    3  502    0  0.81707708321E+02 -0.24737395004E+02 -0.89844690648E+03  0.90250340968E+03  0.41800000000E+01 0. -1.
         -5    1    3    3    0  502 -0.98340712745E+01  0.48741194140E+02 -0.22782443819E+03  0.23322491291E+03  0.41800000000E+01 0. -1.
        -11    1    4    4    0    0 -0.56543676328E+02 -0.56065127850E+02 -0.15149330947E+03  0.17114528538E+03  0.00000000000E+00 0.  1.
         11    1    4    4    0    0 -0.15329960719E+02  0.32061328714E+02 -0.34113652745E+02  0.49261321522E+02  0.00000000000E+00 0. -1.
</event>
<event>
 8    1  0.7016814E-009  0.8784499E+02  0.7561462E-02  0.1308156E+00
         -1   -1    0    0    0  501 -0.00000000000E+00  0.00000000000E+00  0.53684607110E+03  0.53684607110E+03  0.00000000000E+00 0.  1.
          1   -1    0    0  501    0  0.00000000000E+00 -0.00000000000E+00 -0.61667098126E+02  0.61667098126E+02  0.00000000000E+00 0. -1.
         25    2    1    2    0    0  0.45879687048E+02 -0.73470223056E+01  0.47134266235E+03  0.48986733612E+03  0.12508867741E+03 0.  0.
         23    2    1    2    0    0 -0.45879687048E+02  0.73470223056E+01  0.38363106205E+01  0.10864583311E+03  0.98133966358E+02 0.  0.
          5    1    3    3  502    0 -0.99267498009E+01 -0.66675858509E+00 -0.37642522893E+01  0.11429213618E+02  0.41800000000E+01 0.  1.
         -5    1    3    3    0  502  0.55806436849E+02 -0.66802637205E+01  0.47510691464E+03  0.47843812250E+03  0.41800000000E+01 0.  1.
        -11    1    4    4    0    0 -0.26826020695E+02  0.52816203310E+02  0.35564857986E+01  0.59345052950E+02  0.00000000000E+00 0.  1.
         11    1    4    4    0    0 -0.19053666353E+02 -0.45469181004E+02  0.27982482192E+00  0.49300780162E+02  0.00000000000E+00 0. -1.
</event>
<event>
 8    1  0.7016814E-009  0.9292391E+02  0.7561462E-02  0.1295922E+00
          1   -1    0    0  501    0  0.00000000000E+00  0.00000000000E+00  0.50526987172E+03  0.50526987172E+03  0.00000000000E+00 0. -1.
         -1   -1    0    0    0  501 -0.00000000000E+00 -0.00000000000E+00 -0.27345812127E+02  0.27345812127E+02  0.00000000000E+00 0.  1.
         25    2    1    2    0    0  0.30233269974E+02  0.11537810750E+01  0.31640433646E+03  0.34157493138E+03  0.12508536203E+03 0.  0.
         23    2    1    2    0    0 -0.30233269974E+02 -0.11537810750E+01  0.16151972313E+03  0.19104075247E+03  0.97429801996E+02 0.  0.
          5    1    3    3  502    0  0.17088062083E+02  0.61749549292E+02  0.12827356463E+03  0.14344541989E+03  0.41800000000E+01 0.  1.
         -5    1    3    3    0  502  0.13145207891E+02 -0.60595768217E+02  0.18813077183E+03  0.19812951149E+03  0.41800000000E+01 0.  1.
        -11    1    4    4    0    0  0.11141498244E+02  0.11713439286E+02 -0.65746196372E+01  0.17451741071E+02  0.00000000000E+00 0.  1.
         11    1    4    4    0    0 -0.41374768218E+02 -0.12867220361E+02  0.16809434277E+03  0.17358901139E+03  0.00000000000E+00 0. -1.
</event>
<event>
 8    1  0.7016814E-009  0.9139084E+02  0.7561462E-02  0.1299518E+00
         -2   -1    0    0    0  501 -0.00000000000E+00  0.00000000000E+00  0.14661246998E+03  0.14661246998E+03  0.00000000000E+00 0.  1.
          2   -1    0    0  501    0  0.00000000000E+00 -0.00000000000E+00 -0.91604275761E+02  0.91604275761E+02  0.00000000000E+00 0. -1.
         25    2    1    2    0    0 -0.38473250070E+02  0.64717464726E+01  0.22965020190E+02  0.13302160939E+03  0.12508110144E+03 0.  0.
         23    2    1    2    0    0  0.38473250070E+02 -0.64717464726E+01  0.32043174029E+02  0.10519513636E+03  0.92288554208E+02 0.  0.
          5    1    3    3  502    0  0.44744029168E+01 -0.48410172138E+02 -0.18077825068E+02  0.52036960010E+02  0.41800000000E+01 0.  1.
         -5    1    3    3    0  502 -0.42947652987E+02  0.54881918611E+02  0.41042845258E+02  0.80984649375E+02  0.41800000000E+01 0.  1.
        -11    1    4    4    0    0 -0.74142040094E+01 -0.15702709208E+02 -0.25604736313E+02  0.30937808895E+02  0.00000000000E+00 0. -1.
         11    1    4    4    0    0  0.45887454079E+02  0.92309627357E+01  0.57647910342E+02  0.74257327461E+02  0.00000000000E+00 0.  1.
</event>
<event>
 8    1  0.7016814E-009  0.1600895E+03  0.7561462E-02  0.1188596E+00
          1   -1    0    0  501    0  0.00000000000E+00  0.00000000000E+00  0.21475909729E+03  0.21475909729E+03  0.00000000000E+00 0. -1.
         -1   -1    0    0    0  501 -0.00000000000E+00 -0.00000000000E+00 -0.16341357183E+03  0.16341357183E+03  0.00000000000E+00 0.  1.
         25    2    1    2    0    0 -0.87360723821E+02 -0.79728465891E+02  0.12349980494E+03  0.21186916549E+03  0.12509123520E+03 0.  0.
         23    2    1    2    0    0  0.87360723821E+02  0.79728465891E+02 -0.72154279473E+02  0.16630350363E+03  0.91989624058E+02 0.  0.
          5    1    3    3  502    0 -0.81029308871E+02 -0.11162046090E+03  0.88606663209E+02  0.16399234541E+03  0.41800000000E+01 0. -1.
         -5    1    3    3    0  502 -0.63314149504E+01  0.31891995010E+02  0.34893141732E+02  0.47876820079E+02  0.41800000000E+01 0. -1.
        -11    1    4    4    0    0 -0.67184533109E+00  0.58946824075E+02 -0.22342676312E+02  0.63042641359E+02  0.00000000000E+00 0. -1.
         11    1    4    4    0    0  0.88032569152E+02  0.20781641816E+02 -0.49811603161E+02  0.10326086227E+03  0.00000000000E+00 0.  1.
</event>
<event>
 8    1  0.7016814E-009  0.1028616E+03  0.7561462E-02  0.1274391E+00
         -1   -1    0    0    0  501 -0.00000000000E+00  0.00000000000E+00  0.31813232615E+03  0.31813232615E+03  0.00000000000E+00 0.  1.
          1   -1    0    0  501    0  0.00000000000E+00 -0.00000000000E+00 -0.55392134875E+02  0.55392134875E+02  0.00000000000E+00 0. -1.
         25    2    1    2    0    0  0.58863362037E+02  0.45010194283E+02  0.11805424243E+03  0.18728646712E+03  0.12509437889E+03 0.  0.
         23    2    1    2    0    0 -0.58863362037E+02 -0.45010194283E+02  0.14468594884E+03  0.18623799391E+03  0.90883186577E+02 0.  0.
          5    1    3    3  502    0 -0.10173260559E+02  0.12137709191E+02  0.10894448062E+03  0.11016892245E+03  0.41800000000E+01 0.  1.
         -5    1    3    3    0  502  0.69036622596E+02  0.32872485091E+02  0.91097618077E+01  0.77117544669E+02  0.41800000000E+01 0.  1.
        -11    1    4    4    0    0 -0.77976551814E+02 -0.18598388655E+02  0.77215025918E+02  0.11130320265E+03  0.00000000000E+00 0. -1.
         11    1    4    4    0    0  0.19113189777E+02 -0.26411805628E+02  0.67470922925E+02  0.74934791255E+02  0.00000000000E+00 0.  1.
</event>
<event>
 8    1  0.7016814E-009  0.9430793E+02  0.7561462E-02  0.1292742E+00
          1   -1    0    0  501    0  0.00000000000E+00  0.00000000000E+00  0.25842303072E+03  0.25842303072E+03  0.00000000000E+00 0. -1.
         -1   -1    0    0    0  501 -0.00000000000E+00 -0.00000000000E+00 -0.47741736043E+02  0.47741736043E+02  0.00000000000E+00 0.  1.
         25    2    1    2    0    0 -0.26927781195E+00  0.33757504570E+01  0.14711016981E+03  0.19313409258E+03  0.12509159626E+03 0.  0.
         23    2    1    2    0    0  0.26927781195E+00 -0.33757504570E+01  0.63571124862E+02  0.11303067418E+03  0.93397950657E+02 0.  0.
          5    1    3    3  502    0 -0.51471199285E+02 -0.32003587280E+01  0.19288056876E+02  0.55218006030E+02  0.41800000000E+01 0. -1.
         -5    1    3    3    0  502  0.51201921473E+02  0.65761091850E+01  0.12782211293E+03  0.13791608655E+03  0.41800000000E+01 0. -1.
        -11    1    4    4    0    0 -0.51467706363E+01  0.40525292324E+02  0.73704418581E+01  0.41510383992E+02  0.00000000000E+00 0.  1.
         11    1    4    4    0    0  0.54160484483E+01 -0.43901042781E+02  0.56200683004E+02  0.71520290185E+02  0.00000000000E+00 0. -1.
</event>
<event>
 8    1  0.7016814E-009  0.1460632E+03  0.7561462E-02  0.1205396E+00
          1   -1    0    0  501    0  0.00000000000E+00  0.00000000000E+00  0.55744947471E+02  0.55744947471E+02  0.00000000000E+00 0. -1.
         -1   -1    0    0    0  501 -0.00000000000E+00 -0.00000000000E+00 -0.42660601562E+03  0.42660601562E+03  0.00000000000E+00 0.  1.
         25    2    1    2    0    0  0.50434456562E+02 -0.95908876292E+02 -0.21354740758E+03  0.27016777810E+03  0.12508391615E+03 0.  0.
         23    2    1    2    0    0 -0.50434456562E+02  0.95908876292E+02 -0.15731366057E+03  0.21218318499E+03  0.92368659356E+02 0.  0.
          5    1    3    3  502    0  0.41289269203E+02 -0.12270051876E+03 -0.20053935035E+03  0.23873358476E+03  0.41800000000E+01 0.  1.
         -5    1    3    3    0  502  0.91451873597E+01  0.26791642466E+02 -0.13008057230E+02  0.31434193338E+02  0.41800000000E+01 0.  1.
        -11    1    4    4    0    0  0.20589230340E+02  0.34075017762E+02 -0.17209379234E+02  0.43372640859E+02  0.00000000000E+00 0. -1.
         11    1    4    4    0    0 -0.71023686903E+02  0.61833858531E+02 -0.14010428134E+03  0.16881054413E+03  0.00000000000E+00 0.  1.
</event>
<event>
 8    1  0.7016814E-009  0.1657797E+03  0.7561462E-02  0.1182322E+00
         -1   -1    0    0    0  501 -0.00000000000E+00  0.00000000000E+00  0.43006648454E+02  0.43006648454E+02  0.00000000000E+00 0.  1.
          1   -1    0    0  501    0  0.00000000000E+00 -0.00000000000E+00 -0.76554164341E+03  0.76554164341E+03  0.00000000000E+00 0. -1.
         25    2    1    2    0    0  0.11947905149E+03 -0.68519635948E+02 -0.48189945211E+03  0.51656993908E+03  0.12508891142E+03 0.  0.
         23    2    1    2    0    0 -0.11947905149E+03  0.68519635948E+02 -0.24063554285E+03  0.29197835279E+03  0.91518903845E+02 0.  0.
          5    1    3    3  502    0 -0.60101908163E+01 -0.38992678209E+02 -0.23178029640E+03  0.23515129076E+03  0.41800000000E+01 0.  1.
         -5    1    3    3    0  502  0.12548924230E+03 -0.29526957739E+02 -0.25011915572E+03  0.28141864832E+03  0.41800000000E+01 0.  1.
        -11    1    4    4    0    0 -0.25590161771E+02  0.63974248353E+02 -0.12714992391E+03  0.14461903049E+03  0.00000000000E+00 0. -1.
         11    1    4    4    0    0 -0.93888889715E+02  0.45453875943E+01 -0.11348561894E+03  0.14735932229E+03  0.00000000000E+00 0.  1.
</event>
<event>
 8    1  0.7016814E-009  0.1275412E+03  0.7561462E-02  0.1231150E+00
         -1   -1    0    0    0  501 -0.00000000000E+00  0.00000000000E+00  0.12922203947E+03  0.12922203947E+03  0.00000000000E+00 0.  1.
          1   -1    0    0  501    0  0.00000000000E+00 -0.00000000000E+00 -0.16030901376E+03  0.16030901376E+03  0.00000000000E+00 0. -1.
         25    2    1    2    0    0 -0.22879807282E+02  0.85655843171E+02  0.16535074741E+02  0.15421185923E+03  0.12508988680E+03 0.  0.
         23    2    1    2    0    0  0.22879807282E+02 -0.85655843171E+02 -0.47622049031E+02  0.13531919400E+03  0.90460022444E+02 0.  0.
          5    1    3    3  502    0 -0.14175292488E+02 -0.28390554658E+02 -0.15209408529E+02  0.35436718509E+02  0.41800000000E+01 0. -1.
         -5    1    3    3    0  502 -0.87045147947E+01  0.11404639783E+03  0.31744483270E+02  0.11877514072E+03  0.41800000000E+01 0. -1.
        -11    1    4    4    0    0  0.17011198924E+02 -0.95585207597E+02 -0.63267174486E+02  0.11588204420E+03  0.00000000000E+00 0. -1.
         11    1    4    4    0    0  0.58686083579E+01  0.99293644260E+01  0.15645125455E+02  0.19437149803E+02  0.00000000000E+00 0.  1.
</event>
<event>
 8    1  0.7016814E-009  0.1021084E+03  0.7561462E-02  0.1275924E+00
         -2   -1    0    0    0  501 -0.00000000000E+00  0.00000000000E+00  0.56571525853E+02  0.56571525853E+02  0.00000000000E+00 0.  1.
          2   -1    0    0  501    0  0.00000000000E+00 -0.00000000000E+00 -0.27133445385E+03  0.27133445385E+03  0.00000000000E+00 0. -1.
         25    2    1    2    0    0 -0.46436246099E+01 -0.17350265363E+02 -0.40404527150E+02  0.13267594217E+03  0.12509110623E+03 0.  0.
         23    2    1    2    0    0  0.46436246099E+01  0.17350265363E+02 -0.17435840085E+03  0.19523003754E+03  0.85972790185E+02 0.  0.
          5    1    3    3  502    0  0.36193748593E+02  0.39592424090E+02 -0.30314165766E+02  0.61757335828E+02  0.41800000000E+01 0.  1.
         -5    1    3    3    0  502 -0.40837373203E+02 -0.56942689453E+02 -0.10090361384E+02  0.70918606339E+02  0.41800000000E+01 0.  1.
        -11    1    4    4    0    0 -0.21998004698E+02 -0.23023139981E+02 -0.33149016593E+02  0.45965579365E+02  0.00000000000E+00 0.  1.
         11    1    4    4    0    0  0.26641629308E+02  0.40373405344E+02 -0.14120938426E+03  0.14926445817E+03  0.00000000000E+00 0. -1.
</event>
<event>
 8    1  0.7016814E-009  0.1381866E+03  0.7561462E-02  0.1215790E+00
          2   -1    0    0  501    0  0.00000000000E+00  0.00000000000E+00  0.18457286438E+04  0.18457286438E+04  0.00000000000E+00 0. -1.
         -2   -1    0    0    0  501 -0.00000000000E+00 -0.00000000000E+00 -0.11721496891E+02  0.11721496891E+02  0.00000000000E+00 0.  1.
         25    2    1    2    0    0  0.88045723827E+02  0.10916273312E+01  0.12935136667E+04  0.13025274844E+04  0.12508797146E+03 0.  0.
         23    2    1    2    0    0 -0.88045723827E+02 -0.10916273312E+01  0.54049348020E+03  0.55492265625E+03  0.89736899637E+02 0.  0.
          5    1    3    3  502    0  0.11891308078E+03  0.62041467026E+01  0.92019537646E+03  0.92787704760E+03  0.41800000000E+01 0. -1.
         -5    1    3    3    0  502 -0.30867356952E+02 -0.51125193714E+01  0.37331829024E+03  0.37465043682E+03  0.41800000000E+01 0. -1.
        -11    1    4    4    0    0 -0.96907193108E+01 -0.37878334437E+02  0.16016508599E+03  0.16486822930E+03  0.00000000000E+00 0.  1.
         11    1    4    4    0    0 -0.78355004516E+02  0.36786707106E+02  0.38032839420E+03  0.39005442696E+03  0.00000000000E+00 0. -1.
</event>
<event>
 8    1  0.7016814E-009  0.1257719E+03  0.7561462E-02  0.1233868E+00
          2   -1    0    0  501    0  0.00000000000E+00  0.00000000000E+00  0.68259459659E+03  0.68259459659E+03  0.00000000000E+00 0.  1.
         -2   -1    0    0    0  501 -0.00000000000E+00 -0.00000000000E+00 -0.37301533953E+02  0.37301533953E+02  0.00000000000E+00 0. -1.
         25    2    1    2    0    0  0.58507467566E+02  0.86906941242E+02  0.47670795057E+03  0.50385942162E+03  0.12509159212E+03 0.  0.
         23    2    1    2    0    0 -0.58507467566E+02 -0.86906941242E+02  0.16858511207E+03  0.21603670893E+03  0.85293489761E+02 0.  0.
          5    1    3    3  502    0  0.78495431458E+02  0.26505211875E+02  0.15408501656E+03  0.17499635351E+03  0.41800000000E+01 0.  1.
         -5    1    3    3    0  502 -0.19987963892E+02  0.60401729367E+02  0.32262293401E+03  0.32886306810E+03  0.41800000000E+01 0.  1.
        -11    1    4    4    0    0 -0.41589609454E+02 -0.58772076928E+02  0.16846632573E+03  0.18320686544E+03  0.00000000000E+00 0.  1.
         11    1    4    4    0    0 -0.16917858112E+02 -0.28134864314E+02  0.11878634215E+00  0.32829843485E+02  0.00000000000E+00 0. -1.
</event>
<event>
 8    1  0.7016814E-009  0.1058770E+03  0.7561462E-02  0.1268401E+00
          2   -1    0    0  501    0  0.00000000000E+00  0.00000000000E+00  0.26936645584E+03  0.26936645584E+03  0.00000000000E+00 0. -1.
         -2   -1    0    0    0  501 -0.00000000000E+00 -0.00000000000E+00 -0.48655921215E+02  0.48655921215E+02  0.00000000000E+00 0.  1.
         25    2    1    2    0    0 -0.18916450031E+02  0.24602299883E+02  0.14255005829E+03  0.19217474231E+03  0.12508999649E+03 0.  0.
         23    2    1    2    0    0  0.18916450031E+02 -0.24602299883E+02  0.78160476335E+02  0.12584763474E+03  0.93624045354E+02 0.  0.
          5    1    3    3  502    0 -0.56371991455E+02 -0.15963542125E+02  0.28269473622E+02  0.65186437521E+02  0.41800000000E+01 0. -1.
         -5    1    3    3    0  502  0.37455541424E+02  0.40565842008E+02  0.11428058467E+03  0.12698830479E+03  0.41800000000E+01 0. -1.
        -11    1    4    4    0    0 -0.32859555937E+02  0.11177978264E+02  0.36522168806E+02  0.50384188281E+02  0.00000000000E+00 0. -1.
         11    1    4    4    0    0  0.51776005968E+02 -0.35780278147E+02  0.41638307529E+02  0.75463446463E+02  0.00000000000E+00 0.  1.
</event>
<event>
 8    1  0.7016814E-009  0.1166128E+03  0.7561462E-02  0.1248792E+00
          1   -1    0    0  501    0  0.00000000000E+00  0.00000000000E+00  0.18149527763E+04  0.18149527763E+04  0.00000000000E+00 0. -1.
         -1   -1    0    0    0  501 -0.00000000000E+00 -0.00000000000E+00 -0.23994640768E+02  0.23994640768E+02  0.00000000000E+00 0.  1.
         25    2    1    2    0    0 -0.10856469478E+03 -0.29555899334E+02  0.15417450149E+04  0.15508981069E+04  0.12508957976E+03 0.  0.
         23    2    1    2    0    0  0.10856469478E+03  0.29555899334E+02  0.24921312072E+03  0.28804931023E+03  0.90583560568E+02 0.  0.
          5    1    3    3  502    0 -0.74210549643E+02 -0.64115726057E+01  0.32547757992E+03  0.33391831541E+03  0.41800000000E+01 0. -1.
         -5    1    3    3    0  502 -0.34354145139E+02 -0.23144326728E+02  0.12162674349E+04  0.12169797915E+04  0.41800000000E+01 0. -1.
        -11    1    4    4    0    0  0.48103592792E+02  0.29687019635E+02  0.37408236741E+02  0.67783854644E+02  0.00000000000E+00 0.  1.
         11    1    4    4    0    0  0.60461101991E+02 -0.13112030175E+00  0.21180488398E+03  0.22026545558E+03  0.00000000000E+00 0. -1.
</event>
<event>
 8    1  0.7016814E-009  0.1566040E+03  0.7561462E-02  0.1192585E+00
         -1   -1    0    0    0  501 -0.00000000000E+00  0.00000000000E+00  0.80671056637E+03  0.80671056637E+03  0.00000000000E+00 0.  1.
          1   -1    0    0  501    0  0.00000000000E+00 -0.00000000000E+00 -0.32592874773E+02  0.32592874773E+02  0.00000000000E+00 0. -1.
         25    2    1    2    0    0 -0.10539975514E+03  0.45464780070E+02  0.51097497215E+03  0.53843787098E+03  0.12507503397E+03 0.  0.
         23    2    1    2    0    0  0.10539975514E+03 -0.45464780070E+02  0.26314271945E+03  0.30086557017E+03  0.89999143916E+02 0.  0.
          5    1    3    3  502    0 -0.66012645788E+02 -0.37391432275E+02  0.27236576408E+03  0.28276557508E+03  0.41800000000E+01 0. -1.
         -5    1    3    3    0  502 -0.39387109353E+02  0.82856212345E+02  0.23860920808E+03  0.25567229589E+03  0.41800000000E+01 0. -1.
        -11    1    4    4    0    0  0.38992247960E+02 -0.65323658668E+02  0.14975063742E+03  0.16796675026E+03  0.00000000000E+00 0.  1.
         11    1    4    4    0    0  0.66407507182E+02  0.19858878598E+02  0.11339208202E+03  0.13289881992E+03  0.00000000000E+00 0. -1.
</event>
<event>
 8    1  0.7016814E-009  0.2266768E+03  0.7561462E-02  0.1129001E+00
         -3   -1    0    0    0  501 -0.00000000000E+00  0.00000000000E+00  0.30812809746E+03  0.30812809746E+03  0.00000000000E+00 0.  1.
          3   -1    0    0  501    0  0.00000000000E+00 -0.00000000000E+00 -0.18863722987E+03  0.18863722987E+03  0.00000000000E+00 0. -1.
         25    2    1    2    0    0  0.17220622737E+03  0.98152910369E+02 -0.22535263132E+02  0.23546686625E+03  0.12509128051E+03 0.  0.
         23    2    1    2    0    0 -0.17220622737E+03 -0.98152910369E+02  0.14202613073E+03  0.26129846108E+03  0.93896141525E+02 0.  0.
          5    1    3    3  502    0  0.92204084568E+02 -0.17178152983E+02 -0.12001696388E+02  0.94647743064E+02  0.41800000000E+01 0.  1.
         -5    1    3    3    0  502  0.80002142804E+02  0.11533106335E+03 -0.10533566743E+02  0.14081912319E+03  0.41800000000E+01 0.  1.
        -11    1    4    4    0    0 -0.14217913716E+02 -0.52793408037E+02  0.41300347545E+02  0.68520155501E+02  0.00000000000E+00 0.  1.
         11    1    4    4    0    0 -0.15798831366E+03 -0.45359502332E+02  0.10072578318E+03  0.19277830558E+03  0.00000000000E+00 0. -1.
</event>
<event>
 8    1  0.7016814E-009  0.9923570E+02  0.7561462E-02  0.1281911E+00
          2   -1    0    0  501    0  0.00000000000E+00  0.00000000000E+00  0.63762111305E+02  0.63762111305E+02  0.00000000000E+00 0. -1.
         -2   -1    0    0    0  501 -0.00000000000E+00 -0.00000000000E+00 -0.26495301895E+03  0.26495301895E+03  0.00000000000E+00 0.  1.
         25    2    1    2    0    0  0.38079508006E+02 -0.22657146320E+02 -0.18195066904E+03  0.22521385226E+03  0.12510730624E+03 0.  0.
         23    2    1    2    0    0 -0.38079508006E+02  0.22657146320E+02 -0.19240238603E+02  0.10350127800E+03  0.91536509418E+02 0.  0.
          5    1    3    3  502    0 -0.82739711827E+01  0.44233558901E+02 -0.34928512687E+02  0.57118646086E+02  0.41800000000E+01 0.  1.
         -5    1    3    3    0  502  0.46353479189E+02 -0.66890705221E+02 -0.14702215636E+03  0.16809520617E+03  0.41800000000E+01 0.  1.
        -11    1    4    4    0    0 -0.52437520117E+02  0.23375673778E+02 -0.45705653540E+02  0.73383393258E+02  0.00000000000E+00 0.  1.
         11    1    4    4    0    0  0.14358012110E+02 -0.71852745833E+00  0.26465414937E+02  0.30117884741E+02  0.00000000000E+00 0. -1.
</event>
<event>
 8    1  0.7016814E-009  0.1644987E+03  0.7561462E-02  0.1183709E+00
         -1   -1    0    0    0  501 -0.00000000000E+00  0.00000000000E+00  0.24681078681E+02  0.24681078681E+02  0.00000000000E+00 0.  1.
          1   -1    0    0  501    0  0.00000000000E+00 -0.00000000000E+00 -0.11453035705E+04  0.11453035705E+04  0.00000000000E+00 0. -1.
         25    2    1    2    0    0 -0.12323313049E+03 -0.27215042906E+02 -0.66067822867E+03  0.68415644714E+03  0.12508900560E+03 0.  0.
         23    2    1    2    0    0  0.12323313049E+03  0.27215042906E+02 -0.45994426320E+03  0.48582820208E+03  0.92483802252E+02 0.  0.
          5    1    3    3  502    0 -0.80221081082E+02 -0.74034233676E+02 -0.48854322721E+03  0.50060807710E+03  0.41800000000E+01 0. -1.
         -5    1    3    3    0  502 -0.43012049411E+02  0.46819190770E+02 -0.17213500145E+03  0.18354837004E+03  0.41800000000E+01 0. -1.
        -11    1    4    4    0    0  0.11901559478E+03 -0.92102982225E+01 -0.36633328987E+03  0.38529160471E+03  0.00000000000E+00 0. -1.
         11    1    4    4    0    0  0.42175357163E+01  0.36425341128E+02 -0.93610973325E+02  0.10053659737E+03  0.00000000000E+00 0.  1.
</event>
<event>
 8    1  0.7016814E-009  0.3332197E+03  0.7561462E-02  0.1069721E+00
          1   -1    0    0  501    0  0.00000000000E+00  0.00000000000E+00  0.66559470168E+03  0.66559470168E+03  0.00000000000E+00 0. -1.
         -1   -1    0    0    0  501 -0.00000000000E+00 -0.00000000000E+00 -0.18107784968E+03  0.18107784968E+03  0.00000000000E+00 0.  1.
         25    2    1    2    0    0 -0.29360203573E+03  0.14157870421E+03  0.18476298054E+03  0.39500823816E+03  0.12508982521E+03 0.  0.
         23    2    1    2    0    0  0.29360203573E+03 -0.14157870421E+03  0.29975387146E+03  0.45166431320E+03  0.88890851560E+02 0.  0.
          5    1    3    3  502    0 -0.74609583985E+02 -0.35758426280E+01  0.86765448726E+02  0.11456479462E+03  0.41800000000E+01 0.  1.
         -5    1    3    3    0  502 -0.21899245174E+03  0.14515454683E+03  0.97997531816E+02  0.28044344355E+03  0.41800000000E+01 0.  1.
        -11    1    4    4    0    0  0.83570746669E+02 -0.19087511689E+02  0.36102348654E+02  0.93014957827E+02  0.00000000000E+00 0.  1.
         11    1    4    4    0    0  0.21003128906E+03 -0.12249119252E+03  0.26365152281E+03  0.35864935537E+03  0.00000000000E+00 0. -1.
</event>
<event>
 8    1  0.7016814E-009  0.9827007E+02  0.7561462E-02  0.1283976E+00
          2   -1    0    0  501    0  0.00000000000E+00  0.00000000000E+00  0.16526423253E+03  0.16526423253E+03  0.00000000000E+00 0. -1.
         -2   -1    0    0    0  501 -0.00000000000E+00 -0.00000000000E+00 -0.10911268983E+03  0.10911268983E+03  0.00000000000E+00 0.  1.
         25    2    1    2    0    0  0.48436236355E+02 -0.62571203441E+02  0.24560176113E+02  0.15004006334E+03  0.12509034280E+03 0.  0.
         23    2    1    2    0    0 -0.48436236355E+02  0.62571203441E+02  0.31591366583E+02  0.12433685902E+03  0.90556145993E+02 0.  0.
          5    1    3    3  502    0  0.65864049681E+02 -0.23410303380E+02  0.61578608989E+02  0.93249733671E+02  0.41800000000E+01 0.  1.
         -5    1    3    3    0  502 -0.17427813326E+02 -0.39160900061E+02 -0.37018432876E+02  0.56790329665E+02  0.41800000000E+01 0.  1.
        -11    1    4    4    0    0 -0.28354879324E+02  0.55198476566E+02 -0.22626247674E+02  0.66051631929E+02  0.00000000000E+00 0.  1.
         11    1    4    4    0    0 -0.20081357031E+02  0.73727268747E+01  0.54217614257E+02  0.58285227094E+02  0.00000000000E+00 0. -1.
</event>
<event>
 8    1  0.7016814E-009  0.1161534E+03  0.7561462E-02  0.1249581E+00
         -1   -1    0    0    0  501 -0.00000000000E+00  0.00000000000E+00  0.46693764578E+03  0.46693764578E+03  0.00000000000E+00 0.  1.
          1   -1    0    0  501    0  0.00000000000E+00 -0.00000000000E+00 -0.34268191619E+02  0.34268191619E+02  0.00000000000E+00 0. -1.
         25    2    1    2    0    0  0.36467930762E+02 -0.37522271242E+02  0.31510252146E+03  0.34303735956E+03  0.12508876931E+03 0.  0.
         23    2    1    2    0    0 -0.36467930762E+02  0.37522271242E+02  0.11756693270E+03  0.15816847784E+03  0.91964411079E+02 0.  0.
          5    1    3    3  502    0  0.49018159944E+01 -0.76661133257E+02  0.24408115454E+03  0.25591803288E+03  0.41800000000E+01 0.  1.
         -5    1    3    3    0  502  0.31566114767E+02  0.39138862015E+02  0.71021366921E+02  0.87119326677E+02  0.41800000000E+01 0.  1.
        -11    1    4    4    0    0 -0.53022712112E+02 -0.10563171560E+02  0.70769546703E+02  0.89057943687E+02  0.00000000000E+00 0.  1.
         11    1    4    4    0    0  0.16554781350E+02  0.48085442803E+02  0.46797385998E+02  0.69110534156E+02  0.00000000000E+00 0. -1.
</event>
<event>
 8    1  0.7016814E-009  0.1467415E+03  0.7561462E-02  0.1204535E+00
          1   -1    0    0  501    0  0.00000000000E+00  0.00000000000E+00  0.17168431223E+03  0.17168431223E+03  0.00000000000E+00 0. -1.
         -1   -1    0    0    0  501 -0.00000000000E+00 -0.00000000000E+00 -0.14035023484E+03  0.14035023484E+03  0.00000000000E+00 0.  1.
         25    2    1    2    0    0 -0.96899002551E+02 -0.49356132602E+02  0.33917116666E+00  0.16574970958E+03  0.12508959457E+03 0.  0.
         23    2    1    2    0    0  0.96899002551E+02  0.49356132602E+02  0.30994906224E+02  0.14628483750E+03  0.92806922957E+02 0.  0.
          5    1    3    3  502    0  0.19263367383E+02 -0.44654271267E+02  0.65634251304E+01  0.49250707759E+02  0.41800000000E+01 0. -1.
         -5    1    3    3    0  502 -0.11616236993E+03 -0.47018613354E+01 -0.62242539638E+01  0.11649900182E+03  0.41800000000E+01 0. -1.
        -11    1    4    4    0    0 -0.96606676172E+01  0.12034883180E+02 -0.17562581473E+02  0.23379717277E+02  0.00000000000E+00 0.  1.
         11    1    4    4    0    0  0.10655967017E+03  0.37321249422E+02  0.48557487696E+02  0.12290512022E+03  0.00000000000E+00 0. -1.
</event>
<event>
 8    1  0.7016814E-009  0.1443311E+03  0.7561462E-02  0.1207617E+00
         -1   -1    0    0    0  501 -0.00000000000E+00  0.00000000000E+00  0.33359279040E+02  0.33359279040E+02  0.00000000000E+00 0.  1.
          1   -1    0    0  501    0  0.00000000000E+00 -0.00000000000E+00 -0.81679303524E+03  0.81679303524E+03  0.00000000000E+00 0. -1.
         25    2    1    2    0    0  0.56246273339E+02  0.10007064836E+03 -0.54527171929E+03  0.57109222406E+03  0.12508917855E+03 0.  0.
         23    2    1    2    0    0 -0.56246273339E+02 -0.10007064836E+03 -0.23816203691E+03  0.27906009023E+03  0.89306215945E+02 0.  0.
          5    1    3    3  502    0 -0.12145175720E+02  0.79872858328E+02 -0.41215791644E+03  0.42002237949E+03  0.41800000000E+01 0.  1.
         -5    1    3    3    0  502  0.68391449058E+02  0.20197790027E+02 -0.13311380286E+03  0.15106984457E+03  0.41800000000E+01 0.  1.
        -11    1    4    4    0    0  0.16153868391E+02 -0.36757876223E+02 -0.31221363836E+02  0.50861208089E+02  0.00000000000E+00 0.  1.
         11    1    4    4    0    0 -0.72400141730E+02 -0.63312772132E+02 -0.20694067307E+03  0.22819888214E+03  0.00000000000E+00 0. -1.
</event>
<event>
 8    1  0.7016814E-009  0.1107596E+03  0.7561462E-02  0.1259170E+00
          1   -1    0    0  501    0  0.00000000000E+00  0.00000000000E+00  0.43206395514E+03  0.43206395514E+03  0.00000000000E+00 0. -1.
         -1   -1    0    0    0  501 -0.00000000000E+00 -0.00000000000E+00 -0.33075825033E+02  0.33075825033E+02  0.00000000000E+00 0.  1.
         25    2    1    2    0    0 -0.25759799066E+02  0.31671010303E+02  0.25194453980E+03  0.28423511319E+03  0.12508768242E+03 0.  0.
         23    2    1    2    0    0  0.25759799066E+02 -0.31671010303E+02  0.14704359030E+03  0.18090466698E+03  0.97149683195E+02 0.  0.
          5    1    3    3  502    0 -0.67939417644E+02  0.10865983278E+02  0.78450821427E+02  0.10443101955E+03  0.41800000000E+01 0. -1.
         -5    1    3    3    0  502  0.42179618578E+02  0.20805027024E+02  0.17349371837E+03  0.17980409364E+03  0.41800000000E+01 0. -1.
        -11    1    4    4    0    0 -0.31130096112E+02  0.12298520505E+02  0.47620575699E+02  0.58207007486E+02  0.00000000000E+00 0. -1.
         11    1    4    4    0    0  0.56889895178E+02 -0.43969530808E+02  0.99423014604E+02  0.12269765950E+03  0.00000000000E+00 0.  1.
</event>
<event>
 8    1  0.7016814E-009  0.1510460E+03  0.7561462E-02  0.1199194E+00
          2   -1    0    0  501    0  0.00000000000E+00  0.00000000000E+00  0.20206861051E+04  0.20206861051E+04  0.00000000000E+00 0. -1.
         -2   -1    0    0    0  501 -0.00000000000E+00 -0.00000000000E+00 -0.18254991960E+02  0.18254991960E+02  0.00000000000E+00 0.  1.
         25    2    1    2    0    0 -0.63330544292E+02  0.11192353479E+03  0.15419929445E+04  0.15523939521E+04  0.12508839373E+03 0.  0.
         23    2    1    2    0    0  0.63330544292E+02 -0.11192353479E+03  0.46043816864E+03  0.48654714492E+03  0.90483046015E+02 0.  0.
          5    1    3    3  502    0 -0.80771634578E+02  0.75109708906E+02  0.14070936781E+04  0.14114161742E+04  0.41800000000E+01 0. -1.
         -5    1    3    3    0  502  0.17441090286E+02  0.36813825888E+02  0.13489926637E+03  0.14097777794E+03  0.41800000000E+01 0. -1.
        -11    1    4    4    0    0  0.13274831321E+02 -0.97880862561E+02  0.36186996989E+03  0.37510899684E+03  0.00000000000E+00 0. -1.
         11    1    4    4    0    0  0.50055712971E+02 -0.14042672233E+02  0.98568198749E+02  0.11143814809E+03  0.00000000000E+00 0.  1.
</event>
<event>
 8    1  0.7016814E-009  0.1263065E+03  0.7561462E-02  0.1233041E+00
          1   -1    0    0  501    0  0.00000000000E+00  0.00000000000E+00  0.82133872029E+02  0.82133872029E+02  0.00000000000E+00 0.  1.
         -1   -1    0    0    0  501 -0.00000000000E+00 -0.00000000000E+00 -0.21705554750E+03  0.21705554750E+03  0.00000000000E+00 0. -1.
         25    2    1    2    0    0 -0.71441058596E+02 -0.97957947345E+01 -0.10207057137E+03  0.17682235202E+03  0.12509180703E+03 0.  0.
         23    2    1    2    0    0  0.71441058596E+02  0.97957947345E+01 -0.32851104092E+02  0.12236706750E+03  0.93245491694E+02 0.  0.
          5    1    3    3  502    0 -0.54948480429E+02 -0.60161438491E+02 -0.29269444606E+02  0.86677026773E+02  0.41800000000E+01 0.  1.
         -5    1    3    3    0  502 -0.16492578167E+02  0.50365643756E+02 -0.72801126768E+02  0.90145325249E+02  0.41800000000E+01 0.  1.
        -11    1    4    4    0    0  0.43919713436E+02 -0.41006733387E+02 -0.15976341244E+02  0.62175050389E+02  0.00000000000E+00 0.  1.
         11    1    4    4    0    0  0.27521345160E+02  0.50802528121E+02 -0.16874762848E+02  0.60192017113E+02  0.00000000000E+00 0. -1.
</event>
<event>
 8    1  0.7016814E-009  0.1128357E+03  0.7561462E-02  0.1255407E+00
         -2   -1    0    0    0  501 -0.00000000000E+00  0.00000000000E+00  0.29979687598E+02  0.29979687598E+02  0.00000000000E+00 0. -1.
          2   -1    0    0  501    0  0.00000000000E+00 -0.00000000000E+00 -0.63217226564E+03  0.63217226564E+03  0.00000000000E+00 0.  1.
         25    2    1    2    0    0  0.12599381062E+02 -0.61989760697E+02 -0.19538543312E+03  0.24046325905E+03  0.12508251934E+03 0.  0.
         23    2    1    2    0    0 -0.12599381062E+02  0.61989760697E+02 -0.40680714492E+03  0.42168869419E+03  0.91256927456E+02 0.  0.
          5    1    3    3  502    0 -0.17175857268E+02  0.24502412447E+02 -0.70173498053E+01  0.31017638319E+02  0.41800000000E+01 0.  1.
         -5    1    3    3    0  502  0.29775238330E+02 -0.86492173144E+02 -0.18836808331E+03  0.20944562073E+03  0.41800000000E+01 0.  1.
        -11    1    4    4    0    0 -0.45741599458E+02  0.52039858335E+02 -0.33355112597E+03  0.34067109418E+03  0.00000000000E+00 0.  1.
         11    1    4    4    0    0  0.33142218396E+02  0.99499023614E+01 -0.73256018959E+02  0.81017600008E+02  0.00000000000E+00 0. -1.
</event>
<event>
 8    1  0.7016814E-009  0.1156788E+03  0.7561462E-02  0.1250401E+00
         -2   -1    0    0    0  501 -0.00000000000E+00  0.00000000000E+00  0.15623340905E+03  0.15623340905E+03  0.00000000000E+00 0.  1.
          2   -1    0    0  501    0  0.00000000000E+00 -0.00000000000E+00 -0.93438745139E+02  0.93438745139E+02  0.00000000000E+00 0. -1.
         25    2    1    2    0    0 -0.45850829931E+02 -0.12599806790E+02  0.17436324873E+02  0.13495373935E+03  0.12508969823E+03 0.  0.
         23    2    1    2    0    0  0.45850829931E+02  0.12599806790E+02  0.45358339033E+02  0.11471841484E+03  0.94031282276E+02 0.  0.
          5    1    3    3  502    0  0.23651693540E+02 -0.43949353024E+02  0.28766648654E+02  0.57757603078E+02  0.41800000000E+01 0.  1.
         -5    1    3    3    0  502 -0.69502523471E+02  0.31349546234E+02 -0.11330323781E+02  0.77196136269E+02  0.41800000000E+01 0.  1.
        -11    1    4    4    0    0 -0.19538133166E+02  0.31304743073E+02  0.10912691473E+02  0.38481325622E+02  0.00000000000E+00 0.  1.
         11    1    4    4    0    0  0.65388963097E+02 -0.18704936283E+02  0.34445647560E+02  0.76237089215E+02  0.00000000000E+00 0. -1.
</event>
<event>
 8    1  0.7016814E-009  0.1079198E+03  0.7561462E-02  0.1264471E+00
          1   -1    0    0  501    0  0.00000000000E+00  0.00000000000E+00  0.74748868439E+02  0.74748868439E+02  0.00000000000E+00 0. -1.
         -1   -1    0    0    0  501 -0.00000000000E+00 -0.00000000000E+00 -0.18935147067E+03  0.18935147067E+03  0.00000000000E+00 0.  1.
         25    2    1    2    0    0 -0.18670387586E+02 -0.36873169896E+00 -0.11309454186E+03  0.16966640280E+03  0.12509034138E+03 0.  0.
         23    2    1    2    0    0  0.18670387586E+02  0.36873169896E+00 -0.15080603702E+01  0.94433936306E+02  0.92556873027E+02 0.  0.
          5    1    3    3  502    0 -0.33250028636E+02  0.56794407746E+02 -0.47025443325E+02  0.80994036049E+02  0.41800000000E+01 0.  1.
         -5    1    3    3    0  502  0.14579641050E+02 -0.57163139445E+02 -0.66069098537E+02  0.88672366755E+02  0.41800000000E+01 0.  1.
        -11    1    4    4    0    0  0.46601188516E+01 -0.43989755346E+02 -0.13764592200E+02  0.46327953565E+02  0.00000000000E+00 0.  1.
         11    1    4    4    0    0  0.14010268735E+02  0.44358487045E+02  0.12256531830E+02  0.48105982741E+02  0.00000000000E+00 0. -1.
</event>
<event>
 8    1  0.7016814E-009  0.1139197E+03  0.7561462E-02  0.1253479E+00
          2   -1    0    0  501    0  0.00000000000E+00  0.00000000000E+00  0.24092071724E+03  0.24092071724E+03  0.00000000000E+00 0. -1.
         -2   -1    0    0    0  501 -0.00000000000E+00 -0.00000000000E+00 -0.10300218391E+03  0.10300218391E+03  0.00000000000E+00 0.  1.
         25    2    1    2    0    0  0.53470267038E+02 -0.60824373759E+01 -0.35837662786E+02  0.14080799482E+03  0.12508592179E+03 0.  0.
         23    2    1    2    0    0 -0.53470267038E+02  0.60824373759E+01  0.17375619612E+03  0.20311490633E+03  0.90379112533E+02 0.  0.
          5    1    3    3  502    0  0.21050556913E+01 -0.54573327566E+02  0.11109400915E+02  0.55888912405E+02  0.41800000000E+01 0. -1.
         -5    1    3    3    0  502  0.51365211347E+02  0.48490890191E+02 -0.46947063702E+02  0.84919082416E+02  0.41800000000E+01 0. -1.
        -11    1    4    4    0    0 -0.55320380870E+01 -0.37265251241E+02  0.88051669141E+02  0.95772641364E+02  0.00000000000E+00 0. -1.
         11    1    4    4    0    0 -0.47938228951E+02  0.43347688617E+02  0.85704526981E+02  0.10734226497E+03  0.00000000000E+00 0.  1.
</event>
<event>
 8    1  0.7016814E-009  0.1026708E+03  0.7561462E-02  0.1274778E+00
         -3   -1    0    0    0  501 -0.00000000000E+00  0.00000000000E+00  0.92963477075E+02  0.92963477075E+02  0.00000000000E+00 0.  1.
          3   -1    0    0  501    0  0.00000000000E+00 -0.00000000000E+00 -0.15685831695E+03  0.15685831695E+03  0.00000000000E+00 0. -1.
         25    2    1    2    0    0 -0.14093633425E+01  0.50978211988E+02 -0.18775276027E+02  0.13638551741E+03  0.12509090281E+03 0.  0.
         23    2    1    2    0    0  0.14093633425E+01 -0.50978211988E+02 -0.45119563847E+02  0.11343627662E+03  0.90726233296E+02 0.  0.
          5    1    3    3  502    0 -0.23144381093E+02 -0.25589967303E+02  0.27413635247E+02  0.44266111193E+02  0.41800000000E+01 0. -1.
         -5    1    3    3    0  502  0.21735017750E+02  0.76568179291E+02 -0.46188911274E+02  0.92119406214E+02  0.41800000000E+01 0. -1.
        -11    1    4    4    0    0 -0.12720510066E+02  0.17123019677E+02 -0.37926659805E+02  0.43513684091E+02  0.00000000000E+00 0. -1.
         11    1    4    4    0    0  0.14129873408E+02 -0.68101231665E+02 -0.71929040421E+01  0.69922592525E+02  0.00000000000E+00 0.  1.
</event>
<event>
 8    1  0.7016814E-009  0.9135581E+02  0.7561462E-02  0.1299601E+00
          1   -1    0    0  501    0  0.00000000000E+00  0.00000000000E+00  0.13104182300E+03  0.13104182300E+03  0.00000000000E+00 0. -1.
         -1   -1    0    0    0  501 -0.00000000000E+00 -0.00000000000E+00 -0.13432169111E+03  0.13432169111E+03  0.00000000000E+00 0.  1.
         25    2    1    2    0    0 -0.29945943626E+02 -0.54241408067E+01  0.68377073672E+02  0.14577014333E+03  0.12508928666E+03 0.  0.
         23    2    1    2    0    0  0.29945943626E+02  0.54241408067E+01 -0.71656941778E+02  0.11959337079E+03  0.90783677982E+02 0.  0.
          5    1    3    3  502    0 -0.46413029241E+02  0.30103119576E+02  0.86227381284E+02  0.10253292532E+03  0.41800000000E+01 0. -1.
         -5    1    3    3    0  502  0.16467085615E+02 -0.35527260383E+02 -0.17850307613E+02  0.43237218005E+02  0.41800000000E+01 0. -1.
        -11    1    4    4    0    0 -0.90276772933E+01  0.36754835576E+02 -0.55240317028E+02  0.66962000574E+02  0.00000000000E+00 0. -1.
         11    1    4    4    0    0  0.38973620919E+02 -0.31330694769E+02 -0.16416624750E+02  0.52631370213E+02  0.00000000000E+00 0.  1.
</event>
<event>
 8    1  0.7016814E-009  0.9014366E+02  0.7561462E-02  0.1302504E+00
          2   -1    0    0  501    0  0.00000000000E+00  0.00000000000E+00  0.31883343755E+02  0.31883343755E+02  0.00000000000E+00 0.  1.
         -2   -1    0    0    0  501 -0.00000000000E+00 -0.00000000000E+00 -0.66572535499E+03  0.66572535499E+03  0.00000000000E+00 0. -1.
         25    2    1    2    0    0  0.57822183871E+02 -0.44267023139E+02 -0.50569353452E+03  0.52599569176E+03  0.12507015076E+03 0.  0.
         23    2    1    2    0    0 -0.57822183871E+02  0.44267023139E+02 -0.12814847671E+03  0.17161300698E+03  0.87897769003E+02 0.  0.
          5    1    3    3  502    0  0.59472822412E+02 -0.13588943431E+02 -0.88036869577E+02  0.10718973269E+03  0.41800000000E+01 0.  1.
         -5    1    3    3    0  502 -0.16506385408E+01 -0.30678079709E+02 -0.41765666495E+03  0.41880595907E+03  0.41800000000E+01 0.  1.
        -11    1    4    4    0    0 -0.16686299151E+02 -0.10442173309E+02 -0.92240035422E+02  0.94316995804E+02  0.00000000000E+00 0. -1.
         11    1    4    4    0    0 -0.41135884720E+02  0.54709196448E+02 -0.35908441286E+02  0.77296011173E+02  0.00000000000E+00 0.  1.
</event>
<event>
 8    1  0.7016814E-009  0.1293897E+03  0.7561462E-02  0.1228364E+00
         -2   -1    0    0    0  501 -0.00000000000E+00  0.00000000000E+00  0.45475682465E+02  0.45475682465E+02  0.00000000000E+00 0.  1.
          2   -1    0    0  501    0  0.00000000000E+00 -0.00000000000E+00 -0.70228299252E+03  0.70228299252E+03  0.00000000000E+00 0. -1.
         25    2    1    2    0    0 -0.11356055859E+03 -0.26112207551E+02 -0.51741523733E+03  0.54492999709E+03  0.12510925644E+03 0.  0.
         23    2    1    2    0    0  0.11356055859E+03  0.26112207551E+02 -0.13939207272E+03  0.20282867790E+03  0.90174690416E+02 0.  0.
          5    1    3    3  502    0 -0.66177537359E+02  0.15648677524E+02 -0.90138226873E+02  0.11298991062E+03  0.41800000000E+01 0. -1.
         -5    1    3    3    0  502 -0.47383021229E+02 -0.41760885075E+02 -0.42727701046E+03  0.43194008646E+03  0.41800000000E+01 0. -1.
        -11    1    4    4    0    0  0.11226563651E+03  0.11692339609E+02 -0.71960472439E+02  0.13386035089E+03  0.00000000000E+00 0.  1.
         11    1    4    4    0    0  0.12949220814E+01  0.14419867942E+02 -0.67431600282E+02  0.68968327015E+02  0.00000000000E+00 0. -1.
</event>
<event>
 8    1  0.7016814E-009  0.1019525E+03  0.7561462E-02  0.1276243E+00
          1   -1    0    0  501    0  0.00000000000E+00  0.00000000000E+00  0.35872748628E+02  0.35872748628E+02  0.00000000000E+00 0. -1.
         -1   -1    0    0    0  501 -0.00000000000E+00 -0.00000000000E+00 -0.68216228500E+03  0.68216228500E+03  0.00000000000E+00 0.  1.
         25    2    1    2    0    0 -0.65168510323E+02 -0.29932276843E+01 -0.13730425598E+03  0.19685881610E+03  0.12508013677E+03 0.  0.
         23    2    1    2    0    0  0.65168510323E+02  0.29932276843E+01 -0.50898528039E+03  0.52117621754E+03  0.91119371807E+02 0.  0.
          5    1    3    3  502    0  0.94413329370E+01 -0.15102146980E+02 -0.11708217764E+03  0.11850283681E+03  0.41800000000E+01 0. -1.
         -5    1    3    3    0  502 -0.74609843260E+02  0.12108919296E+02 -0.20222078345E+02  0.78355979289E+02  0.41800000000E+01 0. -1.
        -11    1    4    4    0    0  0.12228384486E+02  0.42261420543E+02 -0.15578274438E+03  0.16187595405E+03  0.00000000000E+00 0. -1.
         11    1    4    4    0    0  0.52940125837E+02 -0.39268192859E+02 -0.35320253601E+03  0.35930026349E+03  0.00000000000E+00 0.  1.
</event>
<event>
 8    1  0.7016814E-009  0.1001018E+03  0.7561462E-02  0.1280082E+00
          1   -1    0    0  501    0  0.00000000000E+00  0.00000000000E+00  0.38428189170E+02  0.38428189170E+02  0.00000000000E+00 0. -1.
         -1   -1    0    0    0  501 -0.00000000000E+00 -0.00000000000E+00 -0.49712449344E+03  0.49712449344E+03  0.00000000000E+00 0.  1.
         25    2    1    2    0    0  0.28272660796E+02  0.67409385407E+01 -0.40872417539E+03  0.42842384255E+03  0.12508698457E+03 0.  0.
         23    2    1    2    0    0 -0.28272660796E+02 -0.67409385407E+01 -0.49972128876E+02  0.10712884006E+03  0.90191968091E+02 0.  0.
          5    1    3    3  502    0  0.92973675402E+01  0.56518965768E+02 -0.10179862932E+03  0.11688142652E+03  0.41800000000E+01 0.  1.
         -5    1    3    3    0  502  0.18975293256E+02 -0.49778027227E+02 -0.30692554608E+03  0.31154241603E+03  0.41800000000E+01 0.  1.
        -11    1    4    4    0    0 -0.37940852695E+02 -0.39744298379E+02 -0.47530937833E+02  0.72651962176E+02  0.00000000000E+00 0. -1.
         11    1    4    4    0    0  0.96681918984E+01  0.33003359838E+02 -0.24411910433E+01  0.34476877888E+02  0.00000000000E+00 0.  1.
</event>
<event>
 8    1  0.7016814E-009  0.1307129E+03  0.7561462E-02  0.1226402E+00
         -2   -1    0    0    0  501 -0.00000000000E+00  0.00000000000E+00  0.19244291127E+03  0.19244291127E+03  0.00000000000E+00 0.  1.
          2   -1    0    0  501    0  0.00000000000E+00 -0.00000000000E+00 -0.10566224131E+03  0.10566224131E+03  0.00000000000E+00 0. -1.
         25    2    1    2    0    0 -0.50198488072E+02 -0.69307590821E+02  0.11654077043E+02  0.15202276417E+03  0.12510664636E+03 0.  0.
         23    2    1    2    0    0  0.50198488072E+02  0.69307590821E+02  0.75126592918E+02  0.14608238842E+03  0.91502070424E+02 0.  0.
          5    1    3    3  502    0 -0.51055354470E+02  0.22907707784E+02 -0.10497229342E+02  0.57088322097E+02  0.41800000000E+01 0.  1.
         -5    1    3    3    0  502  0.85686639770E+00 -0.92215298605E+02  0.22151306386E+02  0.94934442071E+02  0.41800000000E+01 0.  1.
        -11    1    4    4    0    0  0.16055455167E+02  0.76447587535E+02  0.78862400071E+02  0.11100130371E+03  0.00000000000E+00 0.  1.
         11    1    4    4    0    0  0.34143032905E+02 -0.71399967141E+01 -0.37358071530E+01  0.35081084706E+02  0.00000000000E+00 0. -1.
</event>
<event>
 8    1  0.7016814E-009  0.1644299E+03  0.7561462E-02  0.1183784E+00
         -1   -1    0    0    0  501 -0.00000000000E+00  0.00000000000E+00  0.34842165977E+03  0.34842165977E+03  0.00000000000E+00 0.  1.
          1   -1    0    0  501    0  0.00000000000E+00 -0.00000000000E+00 -0.91163216779E+02  0.91163216779E+02  0.00000000000E+00 0. -1.
         25    2    1    2    0    0 -0.52766269789E+02  0.12981685105E+03  0.14870333565E+03  0.23957547812E+03  0.12508810350E+03 0.  0.
         23    2    1    2    0    0  0.52766269789E+02 -0.12981685105E+03  0.10855510733E+03  0.20000939843E+03  0.92643694270E+02 0.  0.
          5    1    3    3  502    0 -0.73500839868E+02  0.94628908276E+02  0.15714685064E+03  0.19766033696E+03  0.41800000000E+01 0. -1.
         -5    1    3    3    0  502  0.20734570079E+02  0.35187942772E+02 -0.84435149832E+01  0.41915141156E+02  0.41800000000E+01 0. -1.
        -11    1    4    4    0    0  0.32540799232E+02 -0.14106355309E+03  0.95638432204E+02  0.17350659740E+03  0.00000000000E+00 0.  1.
         11    1    4    4    0    0  0.20225470557E+02  0.11246702044E+02  0.12916675129E+02  0.26502801032E+02  0.00000000000E+00 0. -1.
</event>
<event>
 8    1  0.7016814E-009  0.1041120E+03  0.7561462E-02  0.1271879E+00
         -1   -1    0    0    0  501 -0.00000000000E+00  0.00000000000E+00  0.82968224855E+02  0.82968224855E+02  0.00000000000E+00 0.  1.
          1   -1    0    0  501    0  0.00000000000E+00 -0.00000000000E+00 -0.27465097165E+03  0.27465097165E+03  0.00000000000E+00 0. -1.
         25    2    1    2    0    0 -0.46670374019E+02 -0.14401518880E+02 -0.21357275489E+03  0.25227550395E+03  0.12507629952E+03 0.  0.
         23    2    1    2    0    0  0.46670374019E+02  0.14401518880E+02  0.21890008094E+02  0.10534369256E+03  0.90733640679E+02 0.  0.
          5    1    3    3  502    0 -0.26101219584E+02  0.39393580196E+02 -0.17853850802E+03  0.18473386010E+03  0.41800000000E+01 0. -1.
         -5    1    3    3    0  502 -0.20569154435E+02 -0.53795099076E+02 -0.35034246877E+02  0.67541643843E+02  0.41800000000E+01 0. -1.
        -11    1    4    4    0    0  0.68281851971E+02  0.31771778748E+02  0.15511202062E+02  0.76892487428E+02  0.00000000000E+00 0.  1.
         11    1    4    4    0    0 -0.21611477952E+02 -0.17370259868E+02  0.63788060320E+01  0.28451205133E+02  0.00000000000E+00 0. -1.
</event>
<event>
 8    1  0.7016814E-009  0.1325835E+03  0.7561462E-02  0.1223672E+00
          2   -1    0    0  501    0  0.00000000000E+00  0.00000000000E+00  0.45380141153E+03  0.45380141153E+03  0.00000000000E+00 0. -1.
         -2   -1    0    0    0  501 -0.00000000000E+00 -0.00000000000E+00 -0.52646085623E+02  0.52646085623E+02  0.00000000000E+00 0.  1.
         25    2    1    2    0    0  0.32900319708E+01 -0.10896581977E+03  0.23434521392E+03  0.28713756969E+03  0.12508369377E+03 0.  0.
         23    2    1    2    0    0 -0.32900319708E+01  0.10896581977E+03  0.16681011198E+03  0.21930992747E+03  0.91579782908E+02 0.  0.
          5    1    3    3  502    0 -0.23125090061E+02 -0.10106976503E+03  0.81982063503E+02  0.13224370809E+03  0.41800000000E+01 0. -1.
         -5    1    3    3    0  502  0.26415122032E+02 -0.78960547408E+01  0.15236315042E+03  0.15489386159E+03  0.41800000000E+01 0. -1.
        -11    1    4    4    0    0 -0.37291723256E+02  0.82130799926E+02  0.14511750303E+03  0.17086611895E+03  0.00000000000E+00 0. -1.
         11    1    4    4    0    0  0.34001691285E+02  0.26835019847E+02  0.21692608951E+02  0.48443808516E+02  0.00000000000E+00 0.  1.
</event>
<event>
 8    1  0.7016814E-009  0.1616904E+03  0.7561462E-02  0.1186801E+00
         -2   -1    0    0    0  501 -0.00000000000E+00  0.00000000000E+00  0.26694857399E+03  0.26694857399E+03  0.00000000000E+00 0. -1.
          2   -1    0    0  501    0  0.00000000000E+00 -0.00000000000E+00 -0.11192463508E+03  0.11192463508E+03  0.00000000000E+00 0.  1.
         25    2    1    2    0    0  0.40549382743E+02  0.11838954387E+03  0.13405302599E+03  0.22198877229E+03  0.12509382361E+03 0.  0.
         23    2    1    2    0    0 -0.40549382743E+02 -0.11838954387E+03  0.20970912921E+02  0.15688443679E+03  0.92263810774E+02 0.  0.
          5    1    3    3  502    0  0.27092758006E+02  0.13978787311E+03  0.82999109636E+02  0.16486658729E+03  0.41800000000E+01 0.  1.
         -5    1    3    3    0  502  0.13456624737E+02 -0.21398329241E+02  0.51053916350E+02  0.57122184993E+02  0.41800000000E+01 0.  1.
        -11    1    4    4    0    0  0.26775332463E+02 -0.61834185093E+02  0.54951174329E+01  0.67606073619E+02  0.00000000000E+00 0.  1.
         11    1    4    4    0    0 -0.67324715206E+02 -0.56555358778E+02  0.15475795488E+02  0.89278363168E+02  0.00000000000E+00 0. -1.
</event>
<event>
 8    1  0.7016814E-009  0.8150644E+02  0.7561462E-02  0.1324830E+00
         -1   -1    0    0    0  501 -0.00000000000E+00  0.00000000000E+00  0.70862755145E+02  0.70862755145E+02  0.00000000000E+00 0.  1.
          1   -1    0    0  501    0  0.00000000000E+00 -0.00000000000E+00 -0.21227854374E+03  0.21227854374E+03  0.00000000000E+00 0. -1.
         25    2    1    2    0    0  0.70106058540E+01  0.46206629010E+02 -0.43641592503E+02  0.14048595703E+03  0.12509002505E+03 0.  0.
         23    2    1    2    0    0 -0.70106058540E+01 -0.46206629010E+02 -0.97774196097E+02  0.14265534186E+03  0.92771504136E+02 0.  0.
          5    1    3    3  502    0  0.22161320420E+02  0.36320910784E+02  0.37731363007E+02  0.57021582206E+02  0.41800000000E+01 0.  1.
         -5    1    3    3    0  502 -0.15150714566E+02  0.98857182251E+01 -0.81372955509E+02  0.83464374825E+02  0.41800000000E+01 0.  1.
        -11    1    4    4    0    0 -0.37329254750E+02 -0.58154865353E+02 -0.52084680718E+02  0.86534822990E+02  0.00000000000E+00 0.  1.
         11    1    4    4    0    0  0.30318648896E+02  0.11948236343E+02 -0.45689515379E+02  0.56120518869E+02  0.00000000000E+00 0. -1.
</event>
<event>
 8    1  0.7016814E-009  0.1213018E+03  0.7561462E-02  0.1240965E+00
         -2   -1    0    0    0  501 -0.00000000000E+00  0.00000000000E+00  0.24030626803E+02  0.24030626803E+02  0.00000000000E+00 0.  1.
          2   -1    0    0  501    0  0.00000000000E+00 -0.00000000000E+00 -0.64694661113E+03  0.64694661113E+03  0.00000000000E+00 0. -1.
         25    2    1    2    0    0 -0.49498194761E+02 -0.30931555124E+02 -0.40238484526E+03  0.42540357759E+03  0.12509119773E+03 0.  0.
         23    2    1    2    0    0  0.49498194761E+02  0.30931555124E+02 -0.22053113908E+03  0.24557366035E+03  0.90915383549E+02 0.  0.
          5    1    3    3  502    0  0.36606367777E+02 -0.32285624516E+02 -0.18933297741E+03  0.19556798421E+03  0.41800000000E+01 0. -1.
         -5    1    3    3    0  502 -0.86104562538E+02  0.13540693913E+01 -0.21305186785E+03  0.22983559338E+03  0.41800000000E+01 0. -1.
        -11    1    4    4    0    0  0.69896932210E+02 -0.53453431957E+00 -0.13040126855E+03  0.14795390397E+03  0.00000000000E+00 0.  1.
         11    1    4    4    0    0 -0.20398737449E+02  0.31466089444E+02 -0.90129870522E+02  0.97619756375E+02  0.00000000000E+00 0. -1.
</event>
<event>
 8    1  0.7016814E-009  0.9215864E+02  0.7561462E-02  0.1297707E+00
          2   -1    0    0  501    0  0.00000000000E+00  0.00000000000E+00  0.26786181833E+03  0.26786181833E+03  0.00000000000E+00 0. -1.
         -2   -1    0    0    0  501 -0.00000000000E+00 -0.00000000000E+00 -0.84380410329E+02  0.84380410329E+02  0.00000000000E+00 0.  1.
         25    2    1    2    0    0 -0.71751846881E+02  0.13112894520E+01  0.18741570088E+03  0.23647738900E+03  0.12508742367E+03 0.  0.
         23    2    1    2    0    0  0.71751846881E+02 -0.13112894520E+01 -0.39342928757E+01  0.11576483966E+03  0.90752258545E+02 0.  0.
          5    1    3    3  502    0 -0.56609520296E+02 -0.19685418623E+02  0.14793253315E+02  0.61874600913E+02  0.41800000000E+01 0. -1.
         -5    1    3    3    0  502 -0.15142326585E+02  0.20996708075E+02  0.17262244756E+03  0.17460278809E+03  0.41800000000E+01 0. -1.
        -11    1    4    4    0    0  0.28106082365E+02  0.32380781783E+02 -0.32372657961E+02  0.53725746883E+02  0.00000000000E+00 0.  1.
         11    1    4    4    0    0  0.43645764516E+02 -0.33692071235E+02  0.28438365085E+02  0.62039092780E+02  0.00000000000E+00 0. -1.
</event>
<event>
 8    1  0.7016814E-009  0.2841873E+03  0.7561462E-02  0.1093424E+00
          2   -1    0    0  501    0  0.00000000000E+00  0.00000000000E+00  0.17060689083E+04  0.17060689083E+04  0.00000000000E+00 0. -1.
         -2   -1    0    0    0  501 -0.00000000000E+00 -0.00000000000E+00 -0.49069039877E+02  0.49069039877E+02  0.00000000000E+00 0.  1.
         25    2    1    2    0    0  0.26062464040E+03  0.31139674975E+02  0.68710181942E+03  0.74609082155E+03  0.12509085179E+03 0.  0.
         23    2    1    2    0    0 -0.26062464040E+03 -0.31139674975E+02  0.96989804899E+03  0.10090471266E+04  0.92622868452E+02 0.  0.
          5    1    3    3  502    0  0.16259870038E+03 -0.41622617979E+02  0.37160232172E+03  0.40777020195E+03  0.41800000000E+01 0.  1.
         -5    1    3    3    0  502  0.98025940025E+02  0.72762292954E+02  0.31549949770E+03  0.33832061959E+03  0.41800000000E+01 0.  1.
        -11    1    4    4    0    0 -0.18047862951E+03 -0.64305335591E+02  0.67188068064E+03  0.69866398283E+03  0.00000000000E+00 0. -1.
         11    1    4    4    0    0 -0.80146010893E+02  0.33165660616E+02  0.29801736835E+03  0.31038314378E+03  0.00000000000E+00 0.  1.
</event>
<event>
 8    1  0.7016814E-009  0.5934912E+02  0.7561462E-02  0.1400584E+00
          1   -1    0    0  501    0  0.00000000000E+00  0.00000000000E+00  0.12757419754E+03  0.12757419754E+03  0.00000000000E+00 0.  1.
         -1   -1    0    0    0  501 -0.00000000000E+00 -0.00000000000E+00 -0.11465918560E+03  0.11465918560E+03  0.00000000000E+00 0. -1.
         25    2    1    2    0    0 -0.90579842410E+01  0.26590316539E+02 -0.39829668649E+02  0.13424511632E+03  0.12508499806E+03 0.  0.
         23    2    1    2    0    0  0.90579842410E+01 -0.26590316539E+02  0.52744680591E+02  0.10798826682E+03  0.89946497588E+02 0.  0.
          5    1    3    3  502    0  0.83245687103E+01 -0.86774979824E+01  0.41717851885E+02  0.43617072132E+02  0.41800000000E+01 0.  1.
         -5    1    3    3    0  502 -0.17382552951E+02  0.35267814521E+02 -0.81547520534E+02  0.90628044189E+02  0.41800000000E+01 0.  1.
        -11    1    4    4    0    0 -0.19215861618E+02  0.87953213871E+01  0.58621595181E+02  0.62314512255E+02  0.00000000000E+00 0.  1.
         11    1    4    4    0    0  0.28273845859E+02 -0.35385637926E+02 -0.58769145902E+01  0.45673754567E+02  0.00000000000E+00 0. -1.
</event>
<event>
 8    1  0.7016814E-009  0.9764966E+02  0.7561462E-02  0.1285317E+00
          3   -1    0    0  501    0  0.00000000000E+00  0.00000000000E+00  0.53915396517E+02  0.53915396517E+02  0.00000000000E+00 0. -1.
         -3   -1    0    0    0  501 -0.00000000000E+00 -0.00000000000E+00 -0.32602705674E+03  0.32602705674E+03  0.00000000000E+00 0.  1.
         25    2    1    2    0    0  0.11950174986E+02  0.34764538187E+02 -0.54648460477E+02  0.14136795334E+03  0.12508822567E+03 0.  0.
         23    2    1    2    0    0 -0.11950174986E+02 -0.34764538187E+02 -0.21746319975E+03  0.23857449992E+03  0.90973452013E+02 0.  0.
          5    1    3    3  502    0 -0.41237743970E+02  0.27986018947E+02  0.16062653683E+02  0.52528563921E+02  0.41800000000E+01 0. -1.
         -5    1    3    3    0  502  0.53187918956E+02  0.67785192395E+01 -0.70711114159E+02  0.88839389415E+02  0.41800000000E+01 0. -1.
        -11    1    4    4    0    0 -0.43433296488E+02  0.15290117518E+01 -0.14699974222E+03  0.15328963870E+03  0.00000000000E+00 0.  1.
         11    1    4    4    0    0  0.31483121503E+02 -0.36293549938E+02 -0.70463457534E+02  0.85284861226E+02  0.00000000000E+00 0. -1.
</event>
<event>
 8    1  0.7016814E-009  0.1143494E+03  0.7561462E-02  0.1252721E+00
         -3   -1    0    0    0  501 -0.00000000000E+00  0.00000000000E+00  0.96767907661E+02  0.96767907661E+02  0.00000000000E+00 0.  1.
          3   -1    0    0  501    0  0.00000000000E+00 -0.00000000000E+00 -0.20041964141E+03  0.20041964141E+03  0.00000000000E+00 0. -1.
         25    2    1    2    0    0  0.21728583367E+02 -0.34702141810E+02  0.26538110473E+02  0.13426984705E+03  0.12509096905E+03 0.  0.
         23    2    1    2    0    0 -0.21728583367E+02  0.34702141810E+02 -0.13018984422E+03  0.16291770202E+03  0.88974221615E+02 0.  0.
          5    1    3    3  502    0 -0.22875571246E+01  0.46402388920E+02  0.52082731021E+01  0.46936266615E+02  0.41800000000E+01 0.  1.
         -5    1    3    3    0  502  0.24016140491E+02 -0.81104530731E+02  0.21329837371E+02  0.87333580434E+02  0.41800000000E+01 0.  1.
        -11    1    4    4    0    0  0.22659998114E+02  0.46245475940E+02 -0.59987047528E+02  0.79060517521E+02  0.00000000000E+00 0. -1.
         11    1    4    4    0    0 -0.44388581481E+02 -0.11543334130E+02 -0.70202796692E+02  0.83857184499E+02  0.00000000000E+00 0.  1.
</event>
<event>
 8    1  0.7016814E-009  0.1816967E+03  0.7561462E-02  0.1166171E+00
          1   -1    0    0  501    0  0.00000000000E+00  0.00000000000E+00  0.31005817527E+03  0.31005817527E+03  0.00000000000E+00 0. -1.
         -1   -1    0    0    0  501 -0.00000000000E+00 -0.00000000000E+00 -0.14012893801E+03  0.14012893801E+03  0.00000000000E+00 0.  1.
         25    2    1    2    0    0 -0.15876343471E+03 -0.62190467609E+02  0.14166193229E+03  0.25453717494E+03  0.12509031899E+03 0.  0.
         23    2    1    2    0    0  0.15876343471E+03  0.62190467609E+02  0.28267304962E+02  0.19564993834E+03  0.91686287856E+02 0.  0.
          5    1    3    3  502    0 -0.14876361224E+03 -0.63779211213E+02  0.60824537603E+02  0.17296096925E+03  0.41800000000E+01 0. -1.
         -5    1    3    3    0  502 -0.99998224703E+01  0.15887436034E+01  0.80837394689E+02  0.81576205696E+02  0.41800000000E+01 0. -1.
        -11    1    4    4    0    0  0.34675612154E+02  0.56519492346E+02 -0.65875487376E+01  0.66635177584E+02  0.00000000000E+00 0.  1.
         11    1    4    4    0    0  0.12408782255E+03  0.56709752634E+01  0.34854853699E+02  0.12901476075E+03  0.00000000000E+00 0. -1.
</event>
<event>
 8    1  0.7016814E-009  0.1361897E+03  0.7561462E-02  0.1218550E+00
          1   -1    0    0  501    0  0.00000000000E+00  0.00000000000E+00  0.26897651131E+03  0.26897651131E+03  0.00000000000E+00 0. -1.
         -1   -1    0    0    0  501 -0.00000000000E+00 -0.00000000000E+00 -0.78953176761E+02  0.78953176761E+02  0.00000000000E+00 0.  1.
         25    2    1    2    0    0  0.23496024692E+02  0.88688824455E+02  0.14187327626E+03  0.21022475622E+03  0.12509456764E+03 0.  0.
         23    2    1    2    0    0 -0.23496024692E+02 -0.88688824455E+02  0.48150058291E+02  0.13770493184E+03  0.90699776082E+02 0.  0.
          5    1    3    3  502    0 -0.40588342382E+02  0.62568489805E+02  0.34182190080E+02  0.82146965693E+02  0.41800000000E+01 0.  1.
         -5    1    3    3    0  502  0.64084367075E+02  0.26120334650E+02  0.10769108617E+03  0.12807779053E+03  0.41800000000E+01 0.  1.
        -11    1    4    4    0    0 -0.42056534380E+02 -0.98683970599E+02  0.34902124354E+02  0.11280707612E+03  0.00000000000E+00 0. -1.
         11    1    4    4    0    0  0.18560509688E+02  0.99951461439E+01  0.13247933937E+02  0.24897855729E+02  0.00000000000E+00 0.  1.
</event>
<event>
 8    1  0.7016814E-009  0.1084421E+03  0.7561462E-02  0.1263482E+00
         -1   -1    0    0    0  501 -0.00000000000E+00  0.00000000000E+00  0.35330995520E+02  0.35330995520E+02  0.00000000000E+00 0.  1.
          1   -1    0    0  501    0  0.00000000000E+00 -0.00000000000E+00 -0.52034248713E+03  0.52034248713E+03  0.00000000000E+00 0. -1.
         25    2    1    2    0    0 -0.71639538486E+02 -0.37132815677E+02 -0.23259574898E+03  0.27615096206E+03  0.12508997534E+03 0.  0.
         23    2    1    2    0    0  0.71639538486E+02  0.37132815677E+02 -0.25241574263E+03  0.27952252059E+03  0.88927290029E+02 0.  0.
          5    1    3    3  502    0  0.38723379136E+00  0.26502893700E+02 -0.27369532298E+01  0.26972516335E+02  0.41800000000E+01 0. -1.
         -5    1    3    3    0  502 -0.72026772277E+02 -0.63635709377E+02 -0.22985879575E+03  0.24917844573E+03  0.41800000000E+01 0. -1.
        -11    1    4    4    0    0  0.12103902907E+02  0.31858286828E+02 -0.19027565724E+03  0.19330359708E+03  0.00000000000E+00 0. -1.
         11    1    4    4    0    0  0.59535635579E+02  0.52745288489E+01 -0.62140085390E+02  0.86218923507E+02  0.00000000000E+00 0.  1.
</event>
<event>
 8    1  0.7016814E-009  0.2803315E+03  0.7561462E-02  0.1095508E+00
          3   -1    0    0  501    0  0.00000000000E+00  0.00000000000E+00  0.20244593870E+03  0.20244593870E+03  0.00000000000E+00 0. -1.
         -3   -1    0    0    0  501 -0.00000000000E+00 -0.00000000000E+00 -0.41077300995E+03  0.41077300995E+03  0.00000000000E+00 0.  1.
         25    2    1    2    0    0  0.22691494729E+03 -0.13865018249E+03 -0.12860516411E+03  0.32078148932E+03  0.12508880545E+03 0.  0.
         23    2    1    2    0    0 -0.22691494729E+03  0.13865018249E+03 -0.79721907135E+02  0.29243745933E+03  0.91922895618E+02 0.  0.
          5    1    3    3  502    0  0.21319084093E+03 -0.15703471711E+03 -0.13408364692E+03  0.29682677407E+03  0.41800000000E+01 0.  1.
         -5    1    3    3    0  502  0.13724106352E+02  0.18384534627E+02  0.54784828064E+01  0.23954715245E+02  0.41800000000E+01 0.  1.
        -11    1    4    4    0    0 -0.71861776133E+02  0.13165616044E+02  0.99627387869E+01  0.73734011683E+02  0.00000000000E+00 0.  1.
         11    1    4    4    0    0 -0.15505317115E+03  0.12548456644E+03 -0.89684645922E+02  0.21870344765E+03  0.00000000000E+00 0. -1.
</event>
<event>
 8    1  0.7016814E-009  0.1527917E+03  0.7561462E-02  0.1197084E+00
         -2   -1    0    0    0  501 -0.00000000000E+00  0.00000000000E+00  0.38691508997E+03  0.38691508997E+03  0.00000000000E+00 0.  1.
          2   -1    0    0  501    0  0.00000000000E+00 -0.00000000000E+00 -0.92831225988E+02  0.92831225988E+02  0.00000000000E+00 0. -1.
         25    2    1    2    0    0 -0.89186176803E+02  0.92871170869E+02  0.45947918306E+02  0.18530574182E+03  0.12509107979E+03 0.  0.
         23    2    1    2    0    0  0.89186176803E+02 -0.92871170869E+02  0.24813594567E+03  0.29444057414E+03  0.92436873886E+02 0.  0.
          5    1    3    3  502    0 -0.19098763604E+02 -0.10606963544E+02 -0.31241864575E+02  0.38350970639E+02  0.41800000000E+01 0. -1.
         -5    1    3    3    0  502 -0.70087413199E+02  0.10347813441E+03  0.77189782881E+02  0.14695477118E+03  0.41800000000E+01 0. -1.
        -11    1    4    4    0    0  0.98209796371E+02 -0.42318873329E+02  0.16035696944E+03  0.19274441313E+03  0.00000000000E+00 0. -1.
         11    1    4    4    0    0 -0.90236195686E+01 -0.50552297540E+02  0.87778976227E+02  0.10169616101E+03  0.00000000000E+00 0.  1.
</event>
<event>
 8    1  0.7016814E-009  0.1428848E+03  0.7561462E-02  0.1209499E+00
         -2   -1    0    0    0  501 -0.00000000000E+00  0.00000000000E+00  0.40556081146E+02  0.40556081146E+02  0.00000000000E+00 0.  1.
          2   -1    0    0  501    0  0.00000000000E+00 -0.00000000000E+00 -0.69278101892E+03  0.69278101892E+03  0.00000000000E+00 0. -1.
         25    2    1    2    0    0  0.46304523240E+02 -0.11539587327E+03 -0.27509966548E+03  0.32678385913E+03  0.12509016029E+03 0.  0.
         23    2    1    2    0    0 -0.46304523240E+02  0.11539587327E+03 -0.37712527230E+03  0.40655324094E+03  0.87188016810E+02 0.  0.
          5    1    3    3  502    0  0.64149760309E+02 -0.67438701365E+02 -0.73276589260E+02  0.11853312247E+03  0.41800000000E+01 0. -1.
         -5    1    3    3    0  502 -0.17845237069E+02 -0.47957171901E+02 -0.20182307622E+03  0.20825073666E+03  0.41800000000E+01 0. -1.
        -11    1    4    4    0    0 -0.63866860687E+02  0.92397858073E+02 -0.22250470757E+03  0.24924823964E+03  0.00000000000E+00 0.  1.
         11    1    4    4    0    0  0.17562337447E+02  0.22998015193E+02 -0.15462056473E+03  0.15730500131E+03  0.00000000000E+00 0. -1.
</event>
<event>
 8    1  0.7016814E-009  0.9365646E+02  0.7561462E-02  0.1294231E+00
          1   -1    0    0  501    0  0.00000000000E+00  0.00000000000E+00  0.35326902541E+03  0.35326902541E+03  0.00000000000E+00 0. -1.
         -1   -1    0    0    0  501 -0.00000000000E+00 -0.00000000000E+00 -0.53114376226E+02  0.53114376226E+02  0.00000000000E+00 0.  1.
         25    2    1    2    0    0 -0.31429172624E+02 -0.76365643800E+02  0.18813240942E+03  0.24054236513E+03  0.12508925413E+03 0.  0.
         23    2    1    2    0    0  0.31429172624E+02  0.76365643800E+02  0.11202223976E+03  0.16584103651E+03  0.90192919593E+02 0.  0.
          5    1    3    3  502    0 -0.30027866500E+02 -0.54392244143E+02  0.20386299046E+03  0.21316139489E+03  0.41800000000E+01 0. -1.
         -5    1    3    3    0  502 -0.14013061237E+01 -0.21973399657E+02 -0.15730581040E+02  0.27380970238E+02  0.41800000000E+01 0. -1.
        -11    1    4    4    0    0  0.33327689007E+02  0.80465780406E+01 -0.38436157598E+00  0.34287461360E+02  0.00000000000E+00 0.  1.
         11    1    4    4    0    0 -0.18985163828E+01  0.68319065759E+02  0.11240660133E+03  0.13155357515E+03  0.00000000000E+00 0. -1.
</event>
<event>
 8    1  0.7016814E-009  0.1026145E+03  0.7561462E-02  0.1274892E+00
          1   -1    0    0  501    0  0.00000000000E+00  0.00000000000E+00  0.65461227800E+03  0.65461227800E+03  0.00000000000E+00 0. -1.
         -1   -1    0    0    0  501 -0.00000000000E+00 -0.00000000000E+00 -0.34081367389E+02  0.34081367389E+02  0.00000000000E+00 0.  1.
         25    2    1    2    0    0  0.85771763045E+02  0.54856692360E+02  0.36256998523E+03  0.39682815019E+03  0.12509809977E+03 0.  0.
         23    2    1    2    0    0 -0.85771763045E+02 -0.54856692360E+02  0.25796092539E+03  0.29186549520E+03  0.90970194172E+02 0.  0.
          5    1    3    3  502    0  0.31899392537E+02  0.26422150757E+02  0.31927325937E+03  0.32197606719E+03  0.41800000000E+01 0.  1.
         -5    1    3    3    0  502  0.53872370508E+02  0.28434541603E+02  0.43296725860E+02  0.74852083008E+02  0.41800000000E+01 0.  1.
        -11    1    4    4    0    0 -0.12758704416E+02 -0.13714458956E+02 -0.18971585075E+01  0.18827377226E+02  0.00000000000E+00 0.  1.
         11    1    4    4    0    0 -0.73013058630E+02 -0.41142233405E+02  0.25985808390E+03  0.27303811797E+03  0.00000000000E+00 0. -1.
</event>
<event>
 8    1  0.7016814E-009  0.1164074E+03  0.7561462E-02  0.1249144E+00
          2   -1    0    0  501    0  0.00000000000E+00  0.00000000000E+00  0.79181788481E+02  0.79181788481E+02  0.00000000000E+00 0. -1.
         -2   -1    0    0    0  501 -0.00000000000E+00 -0.00000000000E+00 -0.30907744641E+03  0.30907744641E+03  0.00000000000E+00 0.  1.
         25    2    1    2    0    0  0.10179346695E+03  0.28069346272E+02 -0.75625410707E+02  0.18032168132E+03  0.12508760089E+03 0.  0.
         23    2    1    2    0    0 -0.10179346695E+03 -0.28069346272E+02 -0.15427024723E+03  0.20793755357E+03  0.91043500006E+02 0.  0.
          5    1    3    3  502    0  0.71965470882E+02  0.25533195595E+02 -0.11036604409E+03  0.13427251828E+03  0.41800000000E+01 0.  1.
         -5    1    3    3    0  502  0.29827996065E+02  0.25361506766E+01  0.34740633382E+02  0.46049163046E+02  0.41800000000E+01 0.  1.
        -11    1    4    4    0    0 -0.65747236217E+01 -0.30163687285E+02 -0.84245572308E+02  0.89723973802E+02  0.00000000000E+00 0.  1.
         11    1    4    4    0    0 -0.95218743326E+02  0.20943410135E+01 -0.70024674918E+02  0.11821357977E+03  0.00000000000E+00 0. -1.
</event>
<event>
 8    1  0.7016814E-009  0.8062528E+02  0.7561462E-02  0.1327286E+00
         -1   -1    0    0    0  501 -0.00000000000E+00  0.00000000000E+00  0.16412073008E+02  0.16412073008E+02  0.00000000000E+00 0.  1.
          1   -1    0    0  501    0  0.00000000000E+00 -0.00000000000E+00 -0.11860046060E+04  0.11860046060E+04  0.00000000000E+00 0. -1.
         25    2    1    2    0    0 -0.11747055745E+02  0.83858998987E+01 -0.10129000325E+04  0.10206969924E+04  0.12509019917E+03 0.  0.
         23    2    1    2    0    0  0.11747055745E+02 -0.83858998987E+01 -0.15669250053E+03  0.18171968659E+03  0.90891078425E+02 0.  0.
          5    1    3    3  502    0 -0.54825280468E+02  0.21885061593E+02 -0.83557315749E+03  0.83766624691E+03  0.41800000000E+01 0. -1.
         -5    1    3    3    0  502  0.43078224723E+02 -0.13499161695E+02 -0.17732687499E+03  0.18303074552E+03  0.41800000000E+01 0. -1.
        -11    1    4    4    0    0  0.29119707937E+02  0.10609523286E+02 -0.15252613984E+03  0.15564299762E+03  0.00000000000E+00 0. -1.
         11    1    4    4    0    0 -0.17372652192E+02 -0.18995423185E+02 -0.41663606888E+01  0.26076688968E+02  0.00000000000E+00 0.  1.
</event>
<event>
 8    1  0.7016814E-009  0.1157853E+03  0.7561462E-02  0.1250217E+00
          2   -1    0    0  501    0  0.00000000000E+00  0.00000000000E+00  0.57705261367E+02  0.57705261367E+02  0.00000000000E+00 0. -1.
         -2   -1    0    0    0  501 -0.00000000000E+00 -0.00000000000E+00 -0.29985822517E+03  0.29985822517E+03  0.00000000000E+00 0.  1.
         25    2    1    2    0    0  0.39148900208E+02 -0.52643166594E+02 -0.88719365915E+02  0.16680034930E+03  0.12508913327E+03 0.  0.
         23    2    1    2    0    0 -0.39148900208E+02  0.52643166594E+02 -0.15343359789E+03  0.19076313723E+03  0.92437904510E+02 0.  0.
          5    1    3    3  502    0  0.13518610204E+02  0.38739096822E+02 -0.48425140048E+02  0.63607680614E+02  0.41800000000E+01 0. -1.
         -5    1    3    3    0  502  0.25630290004E+02 -0.91382263415E+02 -0.40294225867E+02  0.10319266869E+03  0.41800000000E+01 0. -1.
        -11    1    4    4    0    0 -0.59219629226E+02  0.36443127626E+02 -0.54004137324E+02  0.88042676498E+02  0.00000000000E+00 0. -1.
         11    1    4    4    0    0  0.20070729019E+02  0.16200038968E+02 -0.99429460562E+02  0.10272046073E+03  0.00000000000E+00 0.  1.
</event>
<event>
 8    1  0.7016814E-009  0.7527188E+02  0.7561462E-02  0.1343031E+00
         -1   -1    0    0    0  501 -0.00000000000E+00  0.00000000000E+00  0.10517718476E+03  0.10517718476E+03  0.00000000000E+00 0.  1.
          1   -1    0    0  501    0  0.00000000000E+00 -0.00000000000E+00 -0.16302428514E+03  0.16302428514E+03  0.00000000000E+00 0. -1.
         25    2    1    2    0    0 -0.29002883839E+02 -0.47036421943E+02 -0.63547003954E+02  0.15079579144E+03  0.12509019443E+03 0.  0.
         23    2    1    2    0    0  0.29002883839E+02  0.47036421943E+02  0.56999035655E+01  0.11740567846E+03  0.10343119536E+03 0.  0.
          5    1    3    3  502    0  0.49797768829E+01  0.16585375911E+02  0.28604344076E+02  0.33697978751E+02  0.41800000000E+01 0. -1.
         -5    1    3    3    0  502 -0.33982660722E+02 -0.63621797854E+02 -0.92151348030E+02  0.11709781268E+03  0.41800000000E+01 0. -1.
        -11    1    4    4    0    0  0.96874718990E+00  0.24476387322E+02 -0.47345350995E+02  0.53306793829E+02  0.00000000000E+00 0. -1.
         11    1    4    4    0    0  0.28034136649E+02  0.22560034621E+02  0.53045254561E+02  0.64098884633E+02  0.00000000000E+00 0.  1.
</event>
<event>
 8    1  0.7016814E-009  0.9223607E+02  0.7561462E-02  0.1297525E+00
         -4   -1    0    0    0  501 -0.00000000000E+00  0.00000000000E+00  0.42419010515E+02  0.42419010515E+02  0.00000000000E+00 0.  1.
          4   -1    0    0  501    0  0.00000000000E+00 -0.00000000000E+00 -0.32319156503E+03  0.32319156503E+03  0.00000000000E+00 0. -1.
         25    2    1    2    0    0  0.39078082903E+02 -0.20806790034E+02 -0.14371669007E+03  0.19560745310E+03  0.12509104536E+03 0.  0.
         23    2    1    2    0    0 -0.39078082903E+02  0.20806790034E+02 -0.13705586444E+03  0.17000312244E+03  0.90314631080E+02 0.  0.
          5    1    3    3  502    0 -0.64156370999E+01 -0.52906479505E+02 -0.12625457642E+03  0.13710560324E+03  0.41800000000E+01 0. -1.
         -5    1    3    3    0  502  0.45493720003E+02  0.32099689471E+02 -0.17462113649E+02  0.58501849859E+02  0.41800000000E+01 0. -1.
        -11    1    4    4    0    0 -0.46319375827E+02  0.35791747652E+02 -0.38524741435E+02  0.70076311829E+02  0.00000000000E+00 0.  1.
         11    1    4    4    0    0  0.72412929240E+01 -0.14984957618E+02 -0.98531123008E+02  0.99926810613E+02  0.00000000000E+00 0. -1.
</event>
<event>
 8    1  0.7016814E-009  0.2091311E+03  0.7561462E-02  0.1142256E+00
          2   -1    0    0  501    0  0.00000000000E+00  0.00000000000E+00  0.37571978277E+03  0.37571978277E+03  0.00000000000E+00 0. -1.
         -2   -1    0    0    0  501 -0.00000000000E+00 -0.00000000000E+00 -0.19413597156E+03  0.19413597156E+03  0.00000000000E+00 0.  1.
         25    2    1    2    0    0 -0.19392065013E+03  0.50243219626E+02 -0.60570735287E+02  0.24381691528E+03  0.12509306351E+03 0.  0.
         23    2    1    2    0    0  0.19392065013E+03 -0.50243219626E+02  0.24215454649E+03  0.32603883904E+03  0.86792283717E+02 0.  0.
          5    1    3    3  502    0 -0.13891811324E+03 -0.18110434111E+01 -0.86443247317E+02  0.16368087692E+03  0.41800000000E+01 0. -1.
         -5    1    3    3    0  502 -0.55002536890E+02  0.52054263037E+02  0.25872512030E+02  0.80136038356E+02  0.41800000000E+01 0. -1.
        -11    1    4    4    0    0  0.50595483272E+02 -0.29607342767E+02  0.13091409947E+03  0.14343987978E+03  0.00000000000E+00 0. -1.
         11    1    4    4    0    0  0.14332516686E+03 -0.20635876859E+02  0.11124044703E+03  0.18259895926E+03  0.00000000000E+00 0.  1.
</event>
<event>
 8    1  0.7016814E-009  0.1132485E+03  0.7561462E-02  0.1254670E+00
         -2   -1    0    0    0  501 -0.00000000000E+00  0.00000000000E+00  0.15884069316E+03  0.15884069316E+03  0.00000000000E+00 0.  1.
          2   -1    0    0  501    0  0.00000000000E+00 -0.00000000000E+00 -0.99307559378E+02  0.99307559378E+02  0.00000000000E+00 0. -1.
         25    2    1    2    0    0  0.41262708807E+02  0.45781199652E+02  0.51382985579E+02  0.14862003385E+03  0.12509665813E+03 0.  0.
         23    2    1    2    0    0 -0.41262708807E+02 -0.45781199652E+02  0.81501482073E+01  0.10952821869E+03  0.90174699300E+02 0.  0.
          5    1    3    3  502    0  0.27934884444E+02  0.88806908030E+02  0.26003293201E+02  0.96750546976E+02  0.41800000000E+01 0. -1.
         -5    1    3    3    0  502  0.13327824363E+02 -0.43025708378E+02  0.25379692378E+02  0.51869486877E+02  0.41800000000E+01 0. -1.
        -11    1    4    4    0    0 -0.34188100019E+02  0.69325192373E+01 -0.28409187397E+02  0.44988531144E+02  0.00000000000E+00 0. -1.
         11    1    4    4    0    0 -0.70746087876E+01 -0.52713718889E+02  0.36559335604E+02  0.64539687545E+02  0.00000000000E+00 0.  1.
</event>
<event>
 8    1  0.7016814E-009  0.1331952E+03  0.7561462E-02  0.1222790E+00
          2   -1    0    0  501    0  0.00000000000E+00  0.00000000000E+00  0.73894761557E+03  0.73894761557E+03  0.00000000000E+00 0. -1.
         -2   -1    0    0    0  501 -0.00000000000E+00 -0.00000000000E+00 -0.28340256990E+02  0.28340256990E+02  0.00000000000E+00 0.  1.
         25    2    1    2    0    0 -0.49911087809E+02 -0.70330390733E+02  0.27700666574E+03  0.31594278193E+03  0.12509863326E+03 0.  0.
         23    2    1    2    0    0  0.49911087809E+02  0.70330390733E+02  0.43360069285E+03  0.45134509064E+03  0.90913967337E+02 0.  0.
          5    1    3    3  502    0 -0.86206740188E+02 -0.40849505132E+02  0.12785024303E+03  0.15957268302E+03  0.41800000000E+01 0. -1.
         -5    1    3    3    0  502  0.36295652379E+02 -0.29480885601E+02  0.14915642271E+03  0.15637009891E+03  0.41800000000E+01 0. -1.
        -11    1    4    4    0    0  0.47635328524E+02 -0.56261558970E+01  0.20108516097E+03  0.20672692160E+03  0.00000000000E+00 0.  1.
         11    1    4    4    0    0  0.22757592846E+01  0.75956546630E+02  0.23251553188E+03  0.24461816904E+03  0.00000000000E+00 0. -1.
</event>
<event>
 8    1  0.7016814E-009  0.1004722E+03  0.7561462E-02  0.1279306E+00
         -1   -1    0    0    0  501 -0.00000000000E+00  0.00000000000E+00  0.31247384594E+02  0.31247384594E+02  0.00000000000E+00 0.  1.
          1   -1    0    0  501    0  0.00000000000E+00 -0.00000000000E+00 -0.61222013584E+03  0.61222013584E+03  0.00000000000E+00 0. -1.
         25    2    1    2    0    0  0.30794364256E+02  0.77277461571E+02 -0.27369052092E+03  0.31220791850E+03  0.12508870531E+03 0.  0.
         23    2    1    2    0    0 -0.30794364256E+02 -0.77277461571E+02 -0.30728223033E+03  0.33125960194E+03  0.91599431568E+02 0.  0.
          5    1    3    3  502    0  0.54322252619E+02  0.58425119812E+02 -0.26997264388E+03  0.28154413970E+03  0.41800000000E+01 0.  1.
         -5    1    3    3    0  502 -0.23527888363E+02  0.18852341758E+02 -0.37178770384E+01  0.30663778800E+02  0.41800000000E+01 0.  1.
        -11    1    4    4    0    0 -0.25776697334E+00 -0.49002987362E+02 -0.27293654029E+03  0.27730076494E+03  0.00000000000E+00 0. -1.
         11    1    4    4    0    0 -0.30536597283E+02 -0.28274474209E+02 -0.34345690041E+02  0.53958836995E+02  0.00000000000E+00 0.  1.
</event>
<event>
 8    1  0.7016814E-009  0.1266077E+03  0.7561462E-02  0.1232578E+00
         -4   -1    0    0    0  501 -0.00000000000E+00  0.00000000000E+00  0.40320867502E+03  0.40320867502E+03  0.00000000000E+00 0.  1.
          4   -1    0    0  501    0  0.00000000000E+00 -0.00000000000E+00 -0.51295531564E+02  0.51295531564E+02  0.00000000000E+00 0. -1.
         25    2    1    2    0    0  0.23873587325E+02 -0.79963025397E+02  0.12540051873E+03  0.19579718769E+03  0.12508882846E+03 0.  0.
         23    2    1    2    0    0 -0.23873587325E+02  0.79963025397E+02  0.22651262473E+03  0.25870701889E+03  0.93044714316E+02 0.  0.
          5    1    3    3  502    0  0.55463008232E+02 -0.95845661689E+02  0.11254353398E+03  0.15794320367E+03  0.41800000000E+01 0. -1.
         -5    1    3    3    0  502 -0.31589420907E+02  0.15882636292E+02  0.12856984752E+02  0.37853984014E+02  0.41800000000E+01 0. -1.
        -11    1    4    4    0    0  0.18452223845E+02  0.54180293062E+02  0.18627161791E+03  0.19486688882E+03  0.00000000000E+00 0.  1.
         11    1    4    4    0    0 -0.42325811170E+02  0.25782732335E+02  0.40241006819E+02  0.63840130073E+02  0.00000000000E+00 0. -1.
</event>
<event>
 8    1  0.7016814E-009  0.1561107E+03  0.7561462E-02  0.1193159E+00
          2   -1    0    0  501    0  0.00000000000E+00  0.00000000000E+00  0.12928227997E+03  0.12928227997E+03  0.00000000000E+00 0. -1.
         -2   -1    0    0    0  501 -0.00000000000E+00 -0.00000000000E+00 -0.27107302232E+03  0.27107302232E+03  0.00000000000E+00 0.  1.
         25    2    1    2    0    0  0.15076094976E+03  0.19775616216E+02 -0.82004573561E+02  0.21328956751E+03  0.12509096911E+03 0.  0.
         23    2    1    2    0    0 -0.15076094976E+03 -0.19775616216E+02 -0.59786168785E+02  0.18706573479E+03  0.91100297390E+02 0.  0.
          5    1    3    3  502    0  0.74032726742E+02  0.93066330639E+01 -0.10814164544E+03  0.13145168666E+03  0.41800000000E+01 0. -1.
         -5    1    3    3    0  502  0.76728223015E+02  0.10468983152E+02  0.26137071877E+02  0.81837880847E+02  0.41800000000E+01 0. -1.
        -11    1    4    4    0    0 -0.11839173335E+03 -0.35980099084E+02 -0.78275915435E+02  0.14641819898E+03  0.00000000000E+00 0.  1.
         11    1    4    4    0    0 -0.32369216404E+02  0.16204482868E+02  0.18489746650E+02  0.40647535802E+02  0.00000000000E+00 0. -1.
</event>
<event>
 8    1  0.7016814E-009  0.1520524E+03  0.7561462E-02  0.1197974E+00
          1   -1    0    0  501    0  0.00000000000E+00  0.00000000000E+00  0.63959488828E+03  0.63959488828E+03  0.00000000000E+00 0. -1.
         -1   -1    0    0    0  501 -0.00000000000E+00 -0.00000000000E+00 -0.38740832034E+02  0.38740832034E+02  0.00000000000E+00 0.  1.
         25    2    1    2    0    0  0.88803608336E+02  0.59435430338E+02  0.40088649283E+03  0.43333152858E+03  0.12509029659E+03 0.  0.
         23    2    1    2    0    0 -0.88803608336E+02 -0.59435430338E+02  0.19996756341E+03  0.24500419173E+03  0.92851366780E+02 0.  0.
          5    1    3    3  502    0  0.27749632716E+02 -0.39050612780E+02  0.10294591940E+03  0.11362362076E+03  0.41800000000E+01 0.  1.
         -5    1    3    3    0  502  0.61053975620E+02  0.98486043118E+02  0.29794057343E+03  0.31970790782E+03  0.41800000000E+01 0.  1.
        -11    1    4    4    0    0 -0.10692993322E+03 -0.41900757279E+02  0.17636934103E+03  0.21046574195E+03  0.00000000000E+00 0. -1.
         11    1    4    4    0    0  0.18126324887E+02 -0.17534673059E+02  0.23598222384E+02  0.34538449775E+02  0.00000000000E+00 0.  1.
</event>
<event>
 8    1  0.7016814E-009  0.1349002E+03  0.7561462E-02  0.1220361E+00
         -1   -1    0    0    0  501 -0.00000000000E+00  0.00000000000E+00  0.26825393300E+03  0.26825393300E+03  0.00000000000E+00 0. -1.
          1   -1    0    0  501    0  0.00000000000E+00 -0.00000000000E+00 -0.93029868371E+02  0.93029868371E+02  0.00000000000E+00 0.  1.
         25    2    1    2    0    0 -0.65490247974E+02 -0.90936143965E+02  0.68354670616E+02  0.18132093562E+03  0.12508623362E+03 0.  0.
         23    2    1    2    0    0  0.65490247974E+02  0.90936143965E+02  0.10686939401E+03  0.17996286575E+03  0.91690843672E+02 0.  0.
          5    1    3    3  502    0 -0.41709764393E+02 -0.13237775684E+02 -0.30339484870E+02  0.53412544341E+02  0.41800000000E+01 0.  1.
         -5    1    3    3    0  502 -0.23780483580E+02 -0.77698368281E+02  0.98694155486E+02  0.12790839128E+03  0.41800000000E+01 0.  1.
        -11    1    4    4    0    0  0.78894021970E+02  0.33867733860E+02  0.69311024137E+02  0.11034177888E+03  0.00000000000E+00 0.  1.
         11    1    4    4    0    0 -0.13403773996E+02  0.57068410105E+02  0.37558369877E+02  0.69621086871E+02  0.00000000000E+00 0. -1.
</event>
<event>
 8    1  0.7016814E-009  0.1194169E+03  0.7561462E-02  0.1244062E+00
          2   -1    0    0  501    0  0.00000000000E+00  0.00000000000E+00  0.94426979787E+03  0.94426979787E+03  0.00000000000E+00 0. -1.
         -2   -1    0    0    0  501 -0.00000000000E+00 -0.00000000000E+00 -0.18570284925E+02  0.18570284925E+02  0.00000000000E+00 0.  1.
         25    2    1    2    0    0 -0.41558488530E+02 -0.33675585450E+02  0.71449819600E+03  0.72733521946E+03  0.12509075246E+03 0.  0.
         23    2    1    2    0    0  0.41558488530E+02  0.33675585450E+02  0.21120131694E+03  0.23550486333E+03  0.89416952260E+02 0.  0.
          5    1    3    3  502    0 -0.72325026230E+02 -0.60299257006E+02  0.53463346090E+03  0.54287873391E+03  0.41800000000E+01 0. -1.
         -5    1    3    3    0  502  0.30766537699E+02  0.26623671556E+02  0.17986473510E+03  0.18445648555E+03  0.41800000000E+01 0. -1.
        -11    1    4    4    0    0  0.41286212722E+02 -0.22824563794E+02  0.10788311136E+03  0.11774666785E+03  0.00000000000E+00 0. -1.
         11    1    4    4    0    0  0.27227580817E+00  0.56500149244E+02  0.10331820558E+03  0.11775819548E+03  0.00000000000E+00 0.  1.
</event>
<event>
 8    1  0.7016814E-009  0.1710390E+03  0.7561462E-02  0.1176769E+00
         -1   -1    0    0    0  501 -0.00000000000E+00  0.00000000000E+00  0.84022131611E+02  0.84022131611E+02  0.00000000000E+00 0.  1.
          1   -1    0    0  501    0  0.00000000000E+00 -0.00000000000E+00 -0.41387661682E+03  0.41387661682E+03  0.00000000000E+00 0. -1.
         25    2    1    2    0    0  0.30674913837E+02  0.14737688427E+03 -0.19534594109E+03  0.27652647486E+03  0.12508380487E+03 0.  0.
         23    2    1    2    0    0 -0.30674913837E+02 -0.14737688427E+03 -0.13450854412E+03  0.22137227357E+03  0.90841833470E+02 0.  0.
          5    1    3    3  502    0 -0.37461714047E+02  0.35499524997E+02 -0.10581767000E+03  0.11780682484E+03  0.41800000000E+01 0.  1.
         -5    1    3    3    0  502  0.68136627884E+02  0.11187735928E+03 -0.89528271092E+02  0.15871965002E+03  0.41800000000E+01 0.  1.
        -11    1    4    4    0    0 -0.42317149390E+02 -0.13784051779E+03 -0.80150117434E+02  0.16496906013E+03  0.00000000000E+00 0.  1.
         11    1    4    4    0    0  0.11642235553E+02 -0.95363664860E+01 -0.54358426688E+02  0.56403213441E+02  0.00000000000E+00 0. -1.
</event>
<event>
 8    1  0.7016814E-009  0.1213350E+03  0.7561462E-02  0.1240911E+00
         -1   -1    0    0    0  501 -0.00000000000E+00  0.00000000000E+00  0.29762742059E+02  0.29762742059E+02  0.00000000000E+00 0.  1.
          1   -1    0    0  501    0  0.00000000000E+00 -0.00000000000E+00 -0.62662198412E+03  0.62662198412E+03  0.00000000000E+00 0. -1.
         25    2    1    2    0    0 -0.48357828954E+02  0.48612285354E+02 -0.44402631018E+03  0.46637908712E+03  0.12509378426E+03 0.  0.
         23    2    1    2    0    0  0.48357828954E+02 -0.48612285354E+02 -0.15283293188E+03  0.19000563906E+03  0.89680565890E+02 0.  0.
          5    1    3    3  502    0 -0.41739133158E+02  0.84393088162E+02 -0.21937954170E+03  0.23876600320E+03  0.41800000000E+01 0. -1.
         -5    1    3    3    0  502 -0.66186957961E+01 -0.35780802808E+02 -0.22464676849E+03  0.22761308393E+03  0.41800000000E+01 0. -1.
        -11    1    4    4    0    0  0.74097657986E+02 -0.29563147159E+02 -0.12036875169E+03  0.14440595200E+03  0.00000000000E+00 0.  1.
         11    1    4    4    0    0 -0.25739829032E+02 -0.19049138195E+02 -0.32464180186E+02  0.45599687057E+02  0.00000000000E+00 0. -1.
</event>
<event>
 8    1  0.7016814E-009  0.9628136E+02  0.7561462E-02  0.1288316E+00
         -2   -1    0    0    0  501 -0.00000000000E+00  0.00000000000E+00  0.50046157583E+02  0.50046157583E+02  0.00000000000E+00 0.  1.
          2   -1    0    0  501    0  0.00000000000E+00 -0.00000000000E+00 -0.24960282286E+03  0.24960282286E+03  0.00000000000E+00 0. -1.
         25    2    1    2    0    0  0.22876528214E+02 -0.62774200273E+01 -0.12947752978E+03  0.18158883163E+03  0.12508929414E+03 0.  0.
         23    2    1    2    0    0 -0.22876528214E+02  0.62774200273E+01 -0.70079135494E+02  0.11806014881E+03  0.92002021499E+02 0.  0.
          5    1    3    3  502    0 -0.36870598924E+02 -0.22993109865E+02 -0.69733724984E+01  0.44206611386E+02  0.41800000000E+01 0. -1.
         -5    1    3    3    0  502  0.59747127138E+02  0.16715689837E+02 -0.12250415728E+03  0.13738222024E+03  0.41800000000E+01 0. -1.
        -11    1    4    4    0    0  0.20563004823E+02  0.30656776683E+02 -0.54580522089E+02  0.65891642228E+02  0.00000000000E+00 0. -1.
         11    1    4    4    0    0 -0.43439533037E+02 -0.24379356656E+02 -0.15498613404E+02  0.52168506581E+02  0.00000000000E+00 0.  1.
</event>
<event>
 8    1  0.7016814E-009  0.9682939E+02  0.7561462E-02  0.1287108E+00
          4   -1    0    0  501    0  0.00000000000E+00  0.00000000000E+00  0.34123157613E+03  0.34123157613E+03  0.00000000000E+00 0.  1.
         -4   -1    0    0    0  501 -0.00000000000E+00 -0.00000000000E+00 -0.49131337401E+02  0.49131337401E+02  0.00000000000E+00 0. -1.
         25    2    1    2    0    0 -0.25416070096E+01 -0.69009312126E+02  0.13474841180E+03  0.19639968321E+03  0.12508779380E+03 0.  0.
         23    2    1    2    0    0  0.25416070096E+01  0.69009312126E+02  0.15735182693E+03  0.19396323032E+03  0.89963283351E+02 0.  0.
          5    1    3    3  502    0 -0.21865793536E+02 -0.40897322162E+02 -0.10001453717E+02  0.47625679664E+02  0.41800000000E+01 0.  1.
         -5    1    3    3    0  502  0.19324186527E+02 -0.28111989964E+02  0.14474986551E+03  0.14877400354E+03  0.41800000000E+01 0.  1.
        -11    1    4    4    0    0 -0.41897951881E+02  0.19547449930E+02  0.75174775412E+02  0.88254110549E+02  0.00000000000E+00 0.  1.
         11    1    4    4    0    0  0.44439558891E+02  0.49461862196E+02  0.82177051518E+02  0.10570911977E+03  0.00000000000E+00 0. -1.
</event>
<event>
 8    1  0.7016814E-009  0.1516758E+03  0.7561462E-02  0.1198429E+00
         -4   -1    0    0    0  501 -0.00000000000E+00  0.00000000000E+00  0.33780591819E+02  0.33780591819E+02  0.00000000000E+00 0. -1.
          4   -1    0    0  501    0  0.00000000000E+00 -0.00000000000E+00 -0.85328508273E+03  0.85328508273E+03  0.00000000000E+00 0.  1.
         25    2    1    2    0    0 -0.41436613436E+02 -0.12325517435E+03 -0.42552027612E+03  0.46219263935E+03  0.12508277078E+03 0.  0.
         23    2    1    2    0    0  0.41436613436E+02  0.12325517435E+03 -0.39398421479E+03  0.42487303519E+03  0.91568027150E+02 0.  0.
          5    1    3    3  502    0 -0.70359539013E+02 -0.83729086120E+02 -0.17140813254E+03  0.20336972463E+03  0.41800000000E+01 0.  1.
         -5    1    3    3    0  502  0.28922925578E+02 -0.39526088226E+02 -0.25411214358E+03  0.25882291473E+03  0.41800000000E+01 0.  1.
        -11    1    4    4    0    0 -0.88442469140E+00  0.92327697525E+02 -0.32718190919E+03  0.33996056777E+03  0.00000000000E+00 0.  1.
         11    1    4    4    0    0  0.42321038127E+02  0.30927476821E+02 -0.66802305597E+02  0.84912467422E+02  0.00000000000E+00 0. -1.
</event>
<event>
 8    1  0.7016814E-009  0.1020504E+03  0.7561462E-02  0.1276042E+00
          1   -1    0    0  501    0  0.00000000000E+00  0.00000000000E+00  0.18528464048E+03  0.18528464048E+03  0.00000000000E+00 0. -1.
         -1   -1    0    0    0  501 -0.00000000000E+00 -0.00000000000E+00 -0.70930928651E+02  0.70930928651E+02  0.00000000000E+00 0.  1.
         25    2    1    2    0    0  0.22482025890E+02 -0.24256526914E+02  0.60631807849E+02  0.14288977225E+03  0.12508976899E+03 0.  0.
         23    2    1    2    0    0 -0.22482025890E+02  0.24256526914E+02  0.53721903976E+02  0.11332579687E+03  0.94142831294E+02 0.  0.
          5    1    3    3  502    0  0.61568752786E+02 -0.27716456388E+02 -0.33338999560E+01  0.67731090078E+02  0.41800000000E+01 0. -1.
         -5    1    3    3    0  502 -0.39086726895E+02  0.34599294735E+01  0.63965707805E+02  0.75158682176E+02  0.41800000000E+01 0. -1.
        -11    1    4    4    0    0  0.35697838289E+02  0.10424907312E+02  0.79782360683E+01  0.38035070682E+02  0.00000000000E+00 0.  1.
         11    1    4    4    0    0 -0.58179864180E+02  0.13831619602E+02  0.45743667907E+02  0.75290726191E+02  0.00000000000E+00 0. -1.
</event>
<event>
 8    1  0.7016814E-009  0.1022430E+03  0.7561462E-02  0.1275649E+00
          2   -1    0    0  501    0  0.00000000000E+00  0.00000000000E+00  0.24442228298E+03  0.24442228298E+03  0.00000000000E+00 0. -1.
         -2   -1    0    0    0  501 -0.00000000000E+00 -0.00000000000E+00 -0.13541636475E+03  0.13541636475E+03  0.00000000000E+00 0.  1.
         25    2    1    2    0    0 -0.73756877474E+02  0.63812188447E+01  0.18884092422E+03  0.23830606537E+03  0.12509232272E+03 0.  0.
         23    2    1    2    0    0  0.73756877474E+02 -0.63812188447E+01 -0.79835005988E+02  0.14153258237E+03  0.90427024508E+02 0.  0.
          5    1    3    3  502    0 -0.51354020849E+02 -0.33383013679E+02  0.21890892657E+02  0.65179326792E+02  0.41800000000E+01 0. -1.
         -5    1    3    3    0  502 -0.22402856625E+02  0.39764232524E+02  0.16695003156E+03  0.17312673858E+03  0.41800000000E+01 0. -1.
        -11    1    4    4    0    0  0.64161609969E+02  0.21584495048E+02 -0.13668845426E+02  0.69061132018E+02  0.00000000000E+00 0. -1.
         11    1    4    4    0    0  0.95952675052E+01 -0.27965713893E+02 -0.66166160562E+02  0.72471450348E+02  0.00000000000E+00 0.  1.
</event>
<event>
 8    1  0.7016814E-009  0.1191134E+03  0.7561462E-02  0.1244567E+00
         -2   -1    0    0    0  501 -0.00000000000E+00  0.00000000000E+00  0.22985598520E+03  0.22985598520E+03  0.00000000000E+00 0. -1.
          2   -1    0    0  501    0  0.00000000000E+00 -0.00000000000E+00 -0.77380903040E+02  0.77380903040E+02  0.00000000000E+00 0.  1.
         25    2    1    2    0    0  0.10673396533E+01 -0.75038501029E+02  0.69619553829E+02  0.16164572122E+03  0.12510212254E+03 0.  0.
         23    2    1    2    0    0 -0.10673396533E+01  0.75038501029E+02  0.82855528333E+02  0.14559116702E+03  0.93272897928E+02 0.  0.
          5    1    3    3  502    0  0.20279299153E+02  0.25516072371E+02 -0.71351028046E+01  0.33625912856E+02  0.41800000000E+01 0. -1.
         -5    1    3    3    0  502 -0.19211959500E+02 -0.10055457340E+03  0.76754656634E+02  0.12801980837E+03  0.41800000000E+01 0. -1.
        -11    1    4    4    0    0 -0.22585349461E+02  0.77984404051E+02  0.91399837359E+02  0.12225218016E+03  0.00000000000E+00 0. -1.
         11    1    4    4    0    0  0.21518009808E+02 -0.29459030219E+01 -0.85443090256E+01  0.23338986855E+02  0.00000000000E+00 0.  1.
</event>
<event>
 8    1  0.7016814E-009  0.3752041E+03  0.7561462E-02  0.1052721E+00
         -1   -1    0    0    0  501 -0.00000000000E+00  0.00000000000E+00  0.12574662985E+03  0.12574662985E+03  0.00000000000E+00 0.  1.
          1   -1    0    0  501    0  0.00000000000E+00 -0.00000000000E+00 -0.13900752626E+04  0.13900752626E+04  0.00000000000E+00 0. -1.
         25    2    1    2    0    0 -0.26234235620E+02  0.36769612540E+03 -0.34116505157E+03  0.51761826629E+03  0.12508557642E+03 0.  0.
         23    2    1    2    0    0  0.26234235620E+02 -0.36769612540E+03 -0.92316358115E+03  0.99820362614E+03  0.91053862714E+02 0.  0.
          5    1    3    3  502    0 -0.51368838929E+02  0.30249340417E+03 -0.21959542537E+03  0.37733359303E+03  0.41800000000E+01 0.  1.
         -5    1    3    3    0  502  0.25134603309E+02  0.65202721232E+02 -0.12156962619E+03  0.14028467326E+03  0.41800000000E+01 0.  1.
        -11    1    4    4    0    0  0.45675660494E+02 -0.28220488809E+03 -0.62225276642E+03  0.68478052699E+03  0.00000000000E+00 0.  1.
         11    1    4    4    0    0 -0.19441424873E+02 -0.85491237309E+02 -0.30091081473E+03  0.31342309915E+03  0.00000000000E+00 0. -1.
</event>
<event>
 8    1  0.7016814E-009  0.1154196E+03  0.7561462E-02  0.1250850E+00
         -2   -1    0    0    0  501 -0.00000000000E+00  0.00000000000E+00  0.36513396800E+02  0.36513396800E+02  0.00000000000E+00 0.  1.
          2   -1    0    0  501    0  0.00000000000E+00 -0.00000000000E+00 -0.64254826360E+03  0.64254826360E+03  0.00000000000E+00 0. -1.
         25    2    1    2    0    0 -0.43143737156E+02  0.42177634911E+02 -0.13428011947E+03  0.19318335695E+03  0.12509326112E+03 0.  0.
         23    2    1    2    0    0  0.43143737156E+02 -0.42177634911E+02 -0.47175474734E+03  0.48587830345E+03  0.99422578860E+02 0.  0.
          5    1    3    3  502    0  0.26595339700E+02  0.49263935546E+02 -0.21072441381E+02  0.59964719836E+02  0.41800000000E+01 0. -1.
         -5    1    3    3    0  502 -0.69739076856E+02 -0.70863006344E+01 -0.11320767809E+03  0.13321863712E+03  0.41800000000E+01 0. -1.
        -11    1    4    4    0    0  0.28873001535E+02  0.23523947297E+02 -0.78124581676E+02  0.86547539399E+02  0.00000000000E+00 0.  1.
         11    1    4    4    0    0  0.14270735621E+02 -0.65701582208E+02 -0.39363016566E+03  0.39933076405E+03  0.00000000000E+00 0. -1.
</event>
<event>
 8    1  0.7016814E-009  0.1166299E+03  0.7561462E-02  0.1248762E+00
          2   -1    0    0  501    0  0.00000000000E+00  0.00000000000E+00  0.10933365141E+04  0.10933365141E+04  0.00000000000E+00 0.  1.
         -2   -1    0    0    0  501 -0.00000000000E+00 -0.00000000000E+00 -0.13957989793E+02  0.13957989793E+02  0.00000000000E+00 0. -1.
         25    2    1    2    0    0  0.40876048555E+02 -0.31132777276E+02  0.73414600593E+03  0.74649758522E+03  0.12509270780E+03 0.  0.
         23    2    1    2    0    0 -0.40876048555E+02  0.31132777276E+02  0.34523251836E+03  0.36079691866E+03  0.91371897286E+02 0.  0.
          5    1    3    3  502    0  0.35019638850E+02  0.42210399113E+02  0.43230797257E+03  0.43579324047E+03  0.41800000000E+01 0.  1.
         -5    1    3    3    0  502  0.58564097049E+01 -0.73343176389E+02  0.30183803336E+03  0.31070434474E+03  0.41800000000E+01 0.  1.
        -11    1    4    4    0    0 -0.63081698419E+02 -0.37671554108E+01  0.22109124333E+03  0.22994527612E+03  0.00000000000E+00 0.  1.
         11    1    4    4    0    0  0.22205649864E+02  0.34899932687E+02  0.12414127503E+03  0.13085164253E+03  0.00000000000E+00 0. -1.
</event>
<event>
 8    1  0.7016814E-009  0.1082008E+03  0.7561462E-02  0.1263939E+00
          1   -1    0    0  501    0  0.00000000000E+00  0.00000000000E+00  0.32888406255E+03  0.32888406255E+03  0.00000000000E+00 0. -1.
         -1   -1    0    0    0  501 -0.00000000000E+00 -0.00000000000E+00 -0.37908931296E+02  0.37908931296E+02  0.00000000000E+00 0.  1.
         25    2    1    2    0    0 -0.13830554734E+01  0.26337614222E+02  0.15346333487E+03  0.19973517703E+03  0.12509021955E+03 0.  0.
         23    2    1    2    0    0  0.13830554734E+01 -0.26337614222E+02  0.13751179638E+03  0.16705781682E+03  0.91122100778E+02 0.  0.
          5    1    3    3  502    0 -0.41747538859E+02  0.57491145682E+02  0.59585634416E+02  0.92822459897E+02  0.41800000000E+01 0. -1.
         -5    1    3    3    0  502  0.40364483386E+02 -0.31153531460E+02  0.93877700455E+02  0.10691271713E+03  0.41800000000E+01 0. -1.
        -11    1    4    4    0    0 -0.39612018626E+02  0.82151240885E+01  0.48624485667E+02  0.63252991153E+02  0.00000000000E+00 0.  1.
         11    1    4    4    0    0  0.40995074099E+02 -0.34552738310E+02  0.88887310713E+02  0.10380482566E+03  0.00000000000E+00 0. -1.
</event>
<event>
 8    1  0.7016814E-009  0.6320482E+02  0.7561462E-02  0.1384854E+00
         -2   -1    0    0    0  501 -0.00000000000E+00  0.00000000000E+00  0.63301736698E+02  0.63301736698E+02  0.00000000000E+00 0.  1.
          2   -1    0    0  501    0  0.00000000000E+00 -0.00000000000E+00 -0.24574775878E+03  0.24574775878E+03  0.00000000000E+00 0. -1.
         25    2    1    2    0    0 -0.20221208080E+02 -0.47475168423E+02 -0.11650319380E+03  0.17855788718E+03  0.12508851280E+03 0.  0.
         23    2    1    2    0    0  0.20221208080E+02  0.47475168423E+02 -0.65942828284E+02  0.13049160830E+03  0.10008403650E+03 0.  0.
          5    1    3    3  502    0 -0.20501767064E+02 -0.20173877335E+02  0.22550630193E+02  0.36787376933E+02  0.41800000000E+01 0. -1.
         -5    1    3    3    0  502  0.28055898417E+00 -0.27301291088E+02 -0.13905382399E+03  0.14177051025E+03  0.41800000000E+01 0. -1.
        -11    1    4    4    0    0 -0.41903205568E+01  0.44991413454E+02 -0.87079804629E+02  0.98105445543E+02  0.00000000000E+00 0. -1.
         11    1    4    4    0    0  0.24411528637E+02  0.24837549695E+01  0.21136976345E+02  0.32386162757E+02  0.00000000000E+00 0.  1.
</event>
<event>
 8    1  0.7016814E-009  0.8935632E+02  0.7561462E-02  0.1304418E+00
         -2   -1    0    0    0  501 -0.00000000000E+00  0.00000000000E+00  0.63512091113E+02  0.63512091113E+02  0.00000000000E+00 0. -1.
          2   -1    0    0  501    0  0.00000000000E+00 -0.00000000000E+00 -0.24164499127E+03  0.24164499127E+03  0.00000000000E+00 0.  1.
         25    2    1    2    0    0  0.22612386795E+02 -0.33989892977E+02 -0.15694400834E+03  0.20479956423E+03  0.12507920248E+03 0.  0.
         23    2    1    2    0    0 -0.22612386795E+02  0.33989892977E+02 -0.21188891812E+02  0.10035751815E+03  0.89196577577E+02 0.  0.
          5    1    3    3  502    0  0.30057628359E+02 -0.52657493952E+02 -0.16995558932E+03  0.18049556070E+03  0.41800000000E+01 0.  1.
         -5    1    3    3    0  502 -0.74452415636E+01  0.18667600975E+02  0.13011580977E+02  0.24304003530E+02  0.41800000000E+01 0.  1.
        -11    1    4    4    0    0 -0.50828142712E+02  0.44244399023E+02 -0.91230915975E+01  0.68002189205E+02  0.00000000000E+00 0.  1.
         11    1    4    4    0    0  0.28215755916E+02 -0.10254506046E+02 -0.12065800214E+02  0.32355328943E+02  0.00000000000E+00 0. -1.
</event>
<event>
 8    1  0.7016814E-009  0.1296763E+03  0.7561462E-02  0.1227937E+00
         -2   -1    0    0    0  501 -0.00000000000E+00  0.00000000000E+00  0.37161021642E+03  0.37161021642E+03  0.00000000000E+00 0.  1.
          2   -1    0    0  501    0  0.00000000000E+00 -0.00000000000E+00 -0.54483305821E+02  0.54483305821E+02  0.00000000000E+00 0. -1.
         25    2    1    2    0    0 -0.77403505890E+02 -0.25065928703E+02  0.11161391576E+03  0.18634590882E+03  0.12509007969E+03 0.  0.
         23    2    1    2    0    0  0.77403505890E+02  0.25065928703E+02  0.20551299484E+03  0.23974761342E+03  0.92864005869E+02 0.  0.
          5    1    3    3  502    0 -0.21853102616E+02  0.46151365273E+02  0.13624945041E+02  0.53015263254E+02  0.41800000000E+01 0.  1.
         -5    1    3    3    0  502 -0.55550403274E+02 -0.71217293976E+02  0.97988970717E+02  0.13333064557E+03  0.41800000000E+01 0.  1.
        -11    1    4    4    0    0  0.24180160132E+02  0.52516461360E+02  0.64923732604E+02  0.86935320285E+02  0.00000000000E+00 0.  1.
         11    1    4    4    0    0  0.53223345758E+02 -0.27450532656E+02  0.14058926224E+03  0.15281229314E+03  0.00000000000E+00 0. -1.
</event>
<event>
 8    1  0.7016814E-009  0.1055305E+03  0.7561462E-02  0.1269078E+00
          1   -1    0    0  501    0  0.00000000000E+00  0.00000000000E+00  0.39959738598E+03  0.39959738598E+03  0.00000000000E+00 0. -1.
         -1   -1    0    0    0  501 -0.00000000000E+00 -0.00000000000E+00 -0.51872957350E+02  0.51872957350E+02  0.00000000000E+00 0.  1.
         25    2    1    2    0    0 -0.37407257020E+02 -0.53347797937E+02  0.29752723708E+03  0.32926456332E+03  0.12508958962E+03 0.  0.
         23    2    1    2    0    0  0.37407257020E+02  0.53347797937E+02  0.50197191549E+02  0.12220578001E+03  0.90383650100E+02 0.  0.
          5    1    3    3  502    0 -0.60786328636E+02 -0.37406741422E+02  0.70384565854E+02  0.10032797000E+03  0.41800000000E+01 0. -1.
         -5    1    3    3    0  502  0.23379071616E+02 -0.15941056516E+02  0.22714267122E+03  0.22893659333E+03  0.41800000000E+01 0. -1.
        -11    1    4    4    0    0  0.13700961490E+02 -0.25325308306E+02  0.82602500002E+01  0.29955288626E+02  0.00000000000E+00 0. -1.
         11    1    4    4    0    0  0.23706295530E+02  0.78673106244E+02  0.41936941549E+02  0.92250491382E+02  0.00000000000E+00 0.  1.
</event>
<event>
 8    1  0.7016814E-009  0.8117772E+02  0.7561462E-02  0.1325742E+00
         -4   -1    0    0    0  501 -0.00000000000E+00  0.00000000000E+00  0.16033981112E+03  0.16033981112E+03  0.00000000000E+00 0.  1.
          4   -1    0    0  501    0  0.00000000000E+00 -0.00000000000E+00 -0.86313014747E+02  0.86313014747E+02  0.00000000000E+00 0. -1.
         25    2    1    2    0    0 -0.39103399689E+02 -0.22834426174E+02  0.41288092312E+02  0.13929411050E+03  0.12509059024E+03 0.  0.
         23    2    1    2    0    0  0.39103399689E+02  0.22834426174E+02  0.32738704061E+02  0.10735871537E+03  0.91671064880E+02 0.  0.
          5    1    3    3  502    0 -0.33216207677E+02  0.25306608248E+02  0.70846438604E+02  0.82343373360E+02  0.41800000000E+01 0. -1.
         -5    1    3    3    0  502 -0.58871920122E+01 -0.48141034422E+02 -0.29558346292E+02  0.56950737138E+02  0.41800000000E+01 0. -1.
        -11    1    4    4    0    0 -0.11535429192E+02  0.17266275760E+02  0.49539764002E+02  0.53715720443E+02  0.00000000000E+00 0.  1.
         11    1    4    4    0    0  0.50638828881E+02  0.55681504140E+01 -0.16801059941E+02  0.53642994926E+02  0.00000000000E+00 0. -1.
</event>
<event>
 8    1  0.7016814E-009  0.1084949E+03  0.7561462E-02  0.1263383E+00
          2   -1    0    0  501    0  0.00000000000E+00  0.00000000000E+00  0.13036564211E+04  0.13036564211E+04  0.00000000000E+00 0. -1.
         -2   -1    0    0    0  501 -0.00000000000E+00 -0.00000000000E+00 -0.93144917500E+01  0.93144917500E+01  0.00000000000E+00 0.  1.
         25    2    1    2    0    0 -0.69266725354E+01  0.19953664971E+02  0.85300170105E+03  0.86238464153E+03  0.12509692409E+03 0.  0.
         23    2    1    2    0    0  0.69266725354E+01 -0.19953664971E+02  0.44134022832E+03  0.45058627134E+03  0.88321363478E+02 0.  0.
          5    1    3    3  502    0  0.18840416080E+02  0.68464783141E+02  0.43704308208E+03  0.44279398800E+03  0.41800000000E+01 0. -1.
         -5    1    3    3    0  502 -0.25767088615E+02 -0.48511118170E+02  0.41595861896E+03  0.41959065353E+03  0.41800000000E+01 0. -1.
        -11    1    4    4    0    0 -0.39628794797E+02  0.11676458460E+01  0.19969130561E+03  0.20358885606E+03  0.00000000000E+00 0. -1.
         11    1    4    4    0    0  0.46555467333E+02 -0.21121310817E+02  0.24164892270E+03  0.24699741528E+03  0.00000000000E+00 0.  1.
</event>
<event>
 8    1  0.7016814E-009  0.9033874E+02  0.7561462E-02  0.1302033E+00
         -2   -1    0    0    0  501 -0.00000000000E+00  0.00000000000E+00  0.11865385106E+03  0.11865385106E+03  0.00000000000E+00 0.  1.
          2   -1    0    0  501    0  0.00000000000E+00 -0.00000000000E+00 -0.10615326455E+03  0.10615326455E+03  0.00000000000E+00 0. -1.
         25    2    1    2    0    0  0.24486005975E+02 -0.18250511968E+02  0.13751722421E+00  0.12876381025E+03  0.12508978473E+03 0.  0.
         23    2    1    2    0    0 -0.24486005975E+02  0.18250511968E+02  0.12363069287E+02  0.96043305363E+02  0.90215438519E+02 0.  0.
          5    1    3    3  502    0  0.36515654375E+02 -0.59344641204E+02 -0.30265418408E+02  0.76083161117E+02  0.41800000000E+01 0.  1.
         -5    1    3    3    0  502 -0.12029648399E+02  0.41094129236E+02  0.30402935632E+02  0.52680649136E+02  0.41800000000E+01 0.  1.
        -11    1    4    4    0    0 -0.44465098976E+02  0.72773551191E+01  0.39978217936E+02  0.60235893235E+02  0.00000000000E+00 0.  1.
         11    1    4    4    0    0  0.19979093001E+02  0.10973156849E+02 -0.27615148649E+02  0.35807412128E+02  0.00000000000E+00 0. -1.
</event>
<event>
 8    1  0.7016814E-009  0.6090517E+02  0.7561462E-02  0.1394072E+00
         -1   -1    0    0    0  501 -0.00000000000E+00  0.00000000000E+00  0.39531193515E+03  0.39531193515E+03  0.00000000000E+00 0.  1.
          1   -1    0    0  501    0  0.00000000000E+00 -0.00000000000E+00 -0.70978528791E+02  0.70978528791E+02  0.00000000000E+00 0. -1.
         25    2    1    2    0    0  0.32285409401E+02 -0.39166256587E+02  0.99476186945E+01  0.13536153806E+03  0.12508975799E+03 0.  0.
         23    2    1    2    0    0 -0.32285409401E+02  0.39166256587E+02  0.31438578766E+03  0.33092892587E+03  0.89995484229E+02 0.  0.
          5    1    3    3  502    0  0.15372931851E+02 -0.27055399963E+02  0.67271094542E+02  0.74237418205E+02  0.41800000000E+01 0.  1.
         -5    1    3    3    0  502  0.16912477550E+02 -0.12110856624E+02 -0.57323475848E+02  0.61124119857E+02  0.41800000000E+01 0.  1.
        -11    1    4    4    0    0  0.12305474502E+02  0.10580242464E+02  0.49127156595E+01  0.16955854696E+02  0.00000000000E+00 0. -1.
         11    1    4    4    0    0 -0.44590883904E+02  0.28586014123E+02  0.30947307200E+03  0.31397307118E+03  0.00000000000E+00 0.  1.
</event>
<event>
 8    1  0.7016814E-009  0.9904154E+02  0.7561462E-02  0.1282324E+00
         -2   -1    0    0    0  501 -0.00000000000E+00  0.00000000000E+00  0.26254411898E+02  0.26254411898E+02  0.00000000000E+00 0.  1.
          2   -1    0    0  501    0  0.00000000000E+00 -0.00000000000E+00 -0.54713902843E+03  0.54713902843E+03  0.00000000000E+00 0. -1.
         25    2    1    2    0    0 -0.32084315910E+02  0.29230759747E+02 -0.35124225281E+03  0.37536682336E+03  0.12508113880E+03 0.  0.
         23    2    1    2    0    0  0.32084315910E+02 -0.29230759747E+02 -0.16964236373E+03  0.19802661696E+03  0.92477936896E+02 0.  0.
          5    1    3    3  502    0  0.40259288749E+00 -0.47600626144E+02 -0.15175034196E+03  0.15909626135E+03  0.41800000000E+01 0. -1.
         -5    1    3    3    0  502 -0.32486908798E+02  0.76831385891E+02 -0.19949191085E+03  0.21627056201E+03  0.41800000000E+01 0. -1.
        -11    1    4    4    0    0  0.27692141862E+02  0.83619522511E+01 -0.53331986308E+01  0.29414621772E+02  0.00000000000E+00 0.  1.
         11    1    4    4    0    0  0.43921740486E+01 -0.37592711998E+02 -0.16430916510E+03  0.16861199519E+03  0.00000000000E+00 0. -1.
</event>
<event>
 8    1  0.7016814E-009  0.8466704E+02  0.7561462E-02  0.1316306E+00
         -1   -1    0    0    0  501 -0.00000000000E+00  0.00000000000E+00  0.23032337541E+03  0.23032337541E+03  0.00000000000E+00 0.  1.
          1   -1    0    0  501    0  0.00000000000E+00 -0.00000000000E+00 -0.52060825279E+02  0.52060825279E+02  0.00000000000E+00 0. -1.
         25    2    1    2    0    0 -0.18625585375E+01 -0.17562644857E+02  0.12461834103E+03  0.17745121658E+03  0.12508911914E+03 0.  0.
         23    2    1    2    0    0  0.18625585375E+01  0.17562644857E+02  0.53644209109E+02  0.10493298412E+03  0.88438195175E+02 0.  0.
          5    1    3    3  502    0 -0.44553658824E+02  0.48521165305E+01  0.12078690328E+03  0.12890120229E+03  0.41800000000E+01 0.  1.
         -5    1    3    3    0  502  0.42691100287E+02 -0.22414761388E+02  0.38314377492E+01  0.48550014284E+02  0.41800000000E+01 0.  1.
        -11    1    4    4    0    0  0.51868764264E+01 -0.28890257581E+02  0.50304512268E+02  0.58241691465E+02  0.00000000000E+00 0.  1.
         11    1    4    4    0    0 -0.33243178889E+01  0.46452902439E+02  0.33396968411E+01  0.46691292651E+02  0.00000000000E+00 0. -1.
</event>
<event>
 8    1  0.7016814E-009  0.8909137E+02  0.7561462E-02  0.1305067E+00
          4   -1    0    0  501    0  0.00000000000E+00  0.00000000000E+00  0.12489117946E+03  0.12489117946E+03  0.00000000000E+00 0.  1.
         -4   -1    0    0    0  501 -0.00000000000E+00 -0.00000000000E+00 -0.98520640384E+02  0.98520640384E+02  0.00000000000E+00 0. -1.
         25    2    1    2    0    0 -0.78497425533E+01 -0.13802812159E+01  0.29030629722E+02  0.12865970249E+03  0.12508804079E+03 0.  0.
         23    2    1    2    0    0  0.78497425533E+01  0.13802812159E+01 -0.26600906489E+01  0.94752117351E+02  0.94378832510E+02 0.  0.
          5    1    3    3  502    0 -0.71206520766E-01  0.51517275827E+02 -0.20550874458E+02  0.55622348207E+02  0.41800000000E+01 0. -1.
         -5    1    3    3    0  502 -0.77785360325E+01 -0.52897557043E+02  0.49581504180E+02  0.73037354283E+02  0.41800000000E+01 0. -1.
        -11    1    4    4    0    0  0.13657843316E+02 -0.34194275778E+02  0.28927047600E+02  0.46824771894E+02  0.00000000000E+00 0.  1.
         11    1    4    4    0    0 -0.58081007627E+01  0.35574556994E+02 -0.31587138249E+02  0.47927345457E+02  0.00000000000E+00 0. -1.
</event>
<event>
 8    1  0.7016814E-009  0.7913108E+02  0.7561462E-02  0.1331536E+00
         -1   -1    0    0    0  501 -0.00000000000E+00  0.00000000000E+00  0.12095649434E+03  0.12095649434E+03  0.00000000000E+00 0.  1.
          1   -1    0    0  501    0  0.00000000000E+00 -0.00000000000E+00 -0.10957493445E+03  0.10957493445E+03  0.00000000000E+00 0. -1.
         25    2    1    2    0    0  0.86320808705E+01 -0.34961592240E+02  0.24413307042E+02  0.13244473037E+03  0.12509504903E+03 0.  0.
         23    2    1    2    0    0 -0.86320808705E+01  0.34961592240E+02 -0.13031747143E+02  0.98086698417E+02  0.90301429782E+02 0.  0.
          5    1    3    3  502    0  0.35727496781E+02  0.16531300635E+02 -0.32293266958E+02  0.51088799338E+02  0.41800000000E+01 0.  1.
         -5    1    3    3    0  502 -0.27095415911E+02 -0.51492892876E+02  0.56706573999E+02  0.81355931036E+02  0.41800000000E+01 0.  1.
        -11    1    4    4    0    0 -0.27422523048E+02  0.10210031670E+02 -0.44888068539E+02  0.53583376286E+02  0.00000000000E+00 0. -1.
         11    1    4    4    0    0  0.18790442178E+02  0.24751560570E+02  0.31856321395E+02  0.44503322131E+02  0.00000000000E+00 0.  1.
</event>
<event>
 8    1  0.7016814E-009  0.1390966E+03  0.7561462E-02  0.1214550E+00
         -2   -1    0    0    0  501 -0.00000000000E+00  0.00000000000E+00  0.34870835841E+02  0.34870835841E+02  0.00000000000E+00 0.  1.
          2   -1    0    0  501    0  0.00000000000E+00 -0.00000000000E+00 -0.89697920668E+03  0.89697920668E+03  0.00000000000E+00 0. -1.
         25    2    1    2    0    0 -0.18257442769E+02 -0.12432251259E+03 -0.63654989269E+03  0.66078041092E+03  0.12508222983E+03 0.  0.
         23    2    1    2    0    0  0.18257442769E+02  0.12432251259E+03 -0.22555847815E+03  0.27106963161E+03  0.82539062017E+02 0.  0.
          5    1    3    3  502    0 -0.22387164830E+02 -0.73089380668E+02 -0.12459521010E+03  0.14623502144E+03  0.41800000000E+01 0. -1.
         -5    1    3    3    0  502  0.41297220611E+01 -0.51233131923E+02 -0.51195468258E+03  0.51454538947E+03  0.41800000000E+01 0. -1.
        -11    1    4    4    0    0  0.13832064304E+02 -0.91103296166E+01 -0.30323472154E+02  0.34551947443E+02  0.00000000000E+00 0.  1.
         11    1    4    4    0    0  0.44253784649E+01  0.13343284221E+03 -0.19523500600E+03  0.23651768416E+03  0.00000000000E+00 0. -1.
</event>
<event>
 8    1  0.7016814E-009  0.1030567E+03  0.7561462E-02  0.1273996E+00
         -1   -1    0    0    0  501 -0.00000000000E+00  0.00000000000E+00  0.34016486228E+03  0.34016486228E+03  0.00000000000E+00 0.  1.
          1   -1    0    0  501    0  0.00000000000E+00 -0.00000000000E+00 -0.36564654918E+02  0.36564654918E+02  0.00000000000E+00 0. -1.
         25    2    1    2    0    0  0.22503879102E+02  0.42068820690E+01  0.19664704528E+03  0.23418526485E+03  0.12509418621E+03 0.  0.
         23    2    1    2    0    0 -0.22503879102E+02 -0.42068820690E+01  0.10695316208E+03  0.14254425235E+03  0.91409860341E+02 0.  0.
          5    1    3    3  502    0  0.42956513822E+02  0.51753518480E+02  0.69321603897E+02  0.96678052947E+02  0.41800000000E+01 0.  1.
         -5    1    3    3    0  502 -0.20452634719E+02 -0.47546636411E+02  0.12732544139E+03  0.13750721190E+03  0.41800000000E+01 0.  1.
        -11    1    4    4    0    0  0.26070704769E+02 -0.22949404388E+02  0.17141236407E+02  0.38732141620E+02  0.00000000000E+00 0. -1.
         11    1    4    4    0    0 -0.48574583871E+02  0.18742522319E+02  0.89811925672E+02  0.10381211073E+03  0.00000000000E+00 0.  1.
</event>
<event>
 8    1  0.7016814E-009  0.1116357E+03  0.7561462E-02  0.1257570E+00
          1   -1    0    0  501    0  0.00000000000E+00  0.00000000000E+00  0.35399999510E+03  0.35399999510E+03  0.00000000000E+00 0. -1.
         -1   -1    0    0    0  501 -0.00000000000E+00 -0.00000000000E+00 -0.40582197996E+02  0.40582197996E+02  0.00000000000E+00 0.  1.
         25    2    1    2    0    0 -0.39312012680E+02  0.32814542007E+02  0.17899139745E+03  0.22429198718E+03  0.12508695633E+03 0.  0.
         23    2    1    2    0    0  0.39312012680E+02 -0.32814542007E+02  0.13442639966E+03  0.17029020592E+03  0.91137636565E+02 0.  0.
          5    1    3    3  502    0 -0.18668843282E+02  0.73956981937E+02  0.61614423781E+02  0.98142602903E+02  0.41800000000E+01 0.  1.
         -5    1    3    3    0  502 -0.20643169397E+02 -0.41142439929E+02  0.11737697367E+03  0.12614938428E+03  0.41800000000E+01 0.  1.
        -11    1    4    4    0    0  0.51864223221E+02  0.12741250237E+02  0.93960689925E+02  0.10807797351E+03  0.00000000000E+00 0.  1.
         11    1    4    4    0    0 -0.12552210541E+02 -0.45555792245E+02  0.40465709736E+02  0.62212232406E+02  0.00000000000E+00 0. -1.
</event>
<event>
 8    1  0.7016814E-009  0.9260500E+02  0.7561462E-02  0.1296663E+00
         -1   -1    0    0    0  501 -0.00000000000E+00  0.00000000000E+00  0.89146384619E+02  0.89146384619E+02  0.00000000000E+00 0.  1.
          1   -1    0    0  501    0  0.00000000000E+00 -0.00000000000E+00 -0.19056900343E+03  0.19056900343E+03  0.00000000000E+00 0. -1.
         25    2    1    2    0    0  0.50864333569E+02 -0.38553901323E+02 -0.10077255547E+03  0.17284939410E+03  0.12509285099E+03 0.  0.
         23    2    1    2    0    0 -0.50864333569E+02  0.38553901323E+02 -0.65006334305E+00  0.10686599395E+03  0.85710759789E+02 0.  0.
          5    1    3    3  502    0  0.53414760926E+02 -0.55189878626E+02 -0.12274702542E+03  0.14485635656E+03  0.41800000000E+01 0.  1.
         -5    1    3    3    0  502 -0.25504273579E+01  0.16635977303E+02  0.21974469956E+02  0.27993037534E+02  0.41800000000E+01 0.  1.
        -11    1    4    4    0    0  0.11878692149E+01  0.38877991650E+02  0.27550220381E+02  0.47664702989E+02  0.00000000000E+00 0.  1.
         11    1    4    4    0    0 -0.52052202783E+02 -0.32409032697E+00 -0.28200283724E+02  0.59201290959E+02  0.00000000000E+00 0. -1.
</event>
<event>
 8    1  0.7016814E-009  0.1828649E+03  0.7561462E-02  0.1165059E+00
          2   -1    0    0  501    0  0.00000000000E+00  0.00000000000E+00  0.89537013681E+03  0.89537013681E+03  0.00000000000E+00 0.  1.
         -2   -1    0    0    0  501 -0.00000000000E+00 -0.00000000000E+00 -0.48376927284E+02  0.48376927284E+02  0.00000000000E+00 0. -1.
         25    2    1    2    0    0  0.16539712241E+03 -0.59745775416E+02  0.49635874805E+03  0.54124287727E+03  0.12508429018E+03 0.  0.
         23    2    1    2    0    0 -0.16539712241E+03  0.59745775416E+02  0.35063446148E+03  0.40250418682E+03  0.90218230152E+02 0.  0.
          5    1    3    3  502    0  0.12613669418E+03 -0.61961876112E+02  0.21351364874E+03  0.25564680774E+03  0.41800000000E+01 0.  1.
         -5    1    3    3    0  502  0.39260428230E+02  0.22161006963E+01  0.28284509931E+03  0.28559606953E+03  0.41800000000E+01 0.  1.
        -11    1    4    4    0    0 -0.70589567889E+01  0.21595675737E+02  0.10739851210E+03  0.10977541839E+03  0.00000000000E+00 0.  1.
         11    1    4    4    0    0 -0.15833816562E+03  0.38150099679E+02  0.24323594938E+03  0.29272876844E+03  0.00000000000E+00 0. -1.
</event>
<event>
 8    1  0.7016814E-009  0.1061987E+03  0.7561462E-02  0.1267776E+00
          4   -1    0    0  501    0  0.00000000000E+00  0.00000000000E+00  0.37771575587E+03  0.37771575587E+03  0.00000000000E+00 0. -1.
         -4   -1    0    0    0  501 -0.00000000000E+00 -0.00000000000E+00 -0.34922737870E+02  0.34922737870E+02  0.00000000000E+00 0.  1.
         25    2    1    2    0    0  0.25525569471E+02 -0.11768015780E+01  0.21284587481E+03  0.24820205606E+03  0.12509178491E+03 0.  0.
         23    2    1    2    0    0 -0.25525569471E+02  0.11768015780E+01  0.12994714319E+03  0.16443643767E+03  0.97468674216E+02 0.  0.
          5    1    3    3  502    0  0.72790188254E+02  0.15686859831E+02  0.15128612937E+03  0.16866966063E+03  0.41800000000E+01 0. -1.
         -5    1    3    3    0  502 -0.47264618783E+02 -0.16863661409E+02  0.61559745445E+02  0.79532395438E+02  0.41800000000E+01 0. -1.
        -11    1    4    4    0    0 -0.16171789933E+02  0.42301400246E+02  0.25908892097E+02  0.52174763460E+02  0.00000000000E+00 0.  1.
         11    1    4    4    0    0 -0.93537795383E+01 -0.41124598668E+02  0.10403825109E+03  0.11226167421E+03  0.00000000000E+00 0. -1.
</event>
<event>
 8    1  0.7016814E-009  0.1465828E+03  0.7561462E-02  0.1204736E+00
          1   -1    0    0  501    0  0.00000000000E+00  0.00000000000E+00  0.40185952326E+03  0.40185952326E+03  0.00000000000E+00 0. -1.
         -1   -1    0    0    0  501 -0.00000000000E+00 -0.00000000000E+00 -0.61116307110E+02  0.61116307110E+02  0.00000000000E+00 0.  1.
         25    2    1    2    0    0  0.82018432601E+02 -0.77160361192E+02  0.17595351643E+03  0.24349167197E+03  0.12509120572E+03 0.  0.
         23    2    1    2    0    0 -0.82018432601E+02  0.77160361192E+02  0.16478969972E+03  0.21948415840E+03  0.91306659290E+02 0.  0.
          5    1    3    3  502    0 -0.22705501317E+02 -0.27841490068E+02  0.43153256973E+01  0.36425029789E+02  0.41800000000E+01 0. -1.
         -5    1    3    3    0  502  0.10472393392E+03 -0.49318871124E+02  0.17163819074E+03  0.20706664218E+03  0.41800000000E+01 0. -1.
        -11    1    4    4    0    0 -0.29742274208E+02  0.83375232981E+02  0.12646272179E+03  0.15436596890E+03  0.00000000000E+00 0. -1.
         11    1    4    4    0    0 -0.52276158393E+02 -0.62148717893E+01  0.38326977921E+02  0.65118189504E+02  0.00000000000E+00 0.  1.
</event>
<event>
 8    1  0.7016814E-009  0.8374033E+02  0.7561462E-02  0.1318760E+00
         -2   -1    0    0    0  501 -0.00000000000E+00  0.00000000000E+00  0.35681439353E+02  0.35681439353E+02  0.00000000000E+00 0.  1.
          2   -1    0    0  501    0  0.00000000000E+00 -0.00000000000E+00 -0.43715126297E+03  0.43715126297E+03  0.00000000000E+00 0. -1.
         25    2    1    2    0    0  0.15187234705E+02 -0.58544816383E+02 -0.23575700178E+03  0.27365451779E+03  0.12508910264E+03 0.  0.
         23    2    1    2    0    0 -0.15187234705E+02  0.58544816383E+02 -0.16571282184E+03  0.19917818453E+03  0.92482767298E+02 0.  0.
          5    1    3    3  502    0 -0.19865911453E+02 -0.15930806596E+02 -0.21178032502E+03  0.21334672133E+03  0.41800000000E+01 0.  1.
         -5    1    3    3    0  502  0.35053146158E+02 -0.42614009787E+02 -0.23976676754E+02  0.60307796460E+02  0.41800000000E+01 0.  1.
        -11    1    4    4    0    0 -0.37358165398E+02  0.21325936704E+02 -0.14483461071E+03  0.15108769823E+03  0.00000000000E+00 0. -1.
         11    1    4    4    0    0  0.22170930693E+02  0.37218879680E+02 -0.20878211136E+02  0.48090486301E+02  0.00000000000E+00 0.  1.
</event>
<event>
 8    1  0.7016814E-009  0.1031384E+03  0.7561462E-02  0.1273831E+00
         -1   -1    0    0    0  501 -0.00000000000E+00  0.00000000000E+00  0.20836269782E+03  0.20836269782E+03  0.00000000000E+00 0.  1.
          1   -1    0    0  501    0  0.00000000000E+00 -0.00000000000E+00 -0.75976887257E+02  0.75976887257E+02  0.00000000000E+00 0. -1.
         25    2    1    2    0    0 -0.52106580739E+02  0.16856069848E+02  0.11632706454E+03  0.17938476090E+03  0.12509070169E+03 0.  0.
         23    2    1    2    0    0  0.52106580739E+02 -0.16856069848E+02  0.16058746020E+02  0.10495482418E+03  0.88081830974E+02 0.  0.
          5    1    3    3  502    0 -0.15777615456E+02  0.64009660113E+02  0.25709267037E+02  0.70884473257E+02  0.41800000000E+01 0.  1.
         -5    1    3    3    0  502 -0.36328965282E+02 -0.47153590266E+02  0.90617797503E+02  0.10850028764E+03  0.41800000000E+01 0.  1.
        -11    1    4    4    0    0  0.18771954715E+02  0.22283063995E+02 -0.25599513039E+02  0.38784743040E+02  0.00000000000E+00 0. -1.
         11    1    4    4    0    0  0.33334626023E+02 -0.39139133843E+02  0.41658259059E+02  0.66170081139E+02  0.00000000000E+00 0.  1.
</event>
<event>
 8    1  0.7016814E-009  0.1321515E+03  0.7561462E-02  0.1224298E+00
          1   -1    0    0  501    0  0.00000000000E+00  0.00000000000E+00  0.53360190778E+03  0.53360190778E+03  0.00000000000E+00 0.  1.
         -1   -1    0    0    0  501 -0.00000000000E+00 -0.00000000000E+00 -0.38139275137E+02  0.38139275137E+02  0.00000000000E+00 0. -1.
         25    2    1    2    0    0  0.59862667309E+02  0.50933313916E+02  0.17283113711E+03  0.22736852869E+03  0.12509238378E+03 0.  0.
         23    2    1    2    0    0 -0.59862667309E+02 -0.50933313916E+02  0.32263149553E+03  0.34437265422E+03  0.91234322851E+02 0.  0.
          5    1    3    3  502    0 -0.13804295277E+02  0.66871699954E+02  0.10810146724E+03  0.12792881787E+03  0.41800000000E+01 0. -1.
         -5    1    3    3    0  502  0.73666962586E+02 -0.15938386038E+02  0.64729669873E+02  0.99439710820E+02  0.41800000000E+01 0. -1.
        -11    1    4    4    0    0  0.11881874075E+02 -0.47082405779E+02  0.12740429788E+03  0.13634436909E+03  0.00000000000E+00 0. -1.
         11    1    4    4    0    0 -0.71744541384E+02 -0.38509081368E+01  0.19522719765E+03  0.20802828513E+03  0.00000000000E+00 0.  1.
</event>
<event>
 8    1  0.7016814E-009  0.1032092E+03  0.7561462E-02  0.1273689E+00
          1   -1    0    0  501    0  0.00000000000E+00  0.00000000000E+00  0.96791069563E+03  0.96791069563E+03  0.00000000000E+00 0. -1.
         -1   -1    0    0    0  501 -0.00000000000E+00 -0.00000000000E+00 -0.30414914735E+02  0.30414914735E+02  0.00000000000E+00 0.  1.
         25    2    1    2    0    0 -0.41884409345E+02  0.50381645219E+02  0.83438018027E+03  0.84624482215E+03  0.12508956736E+03 0.  0.
         23    2    1    2    0    0  0.41884409345E+02 -0.50381645219E+02  0.10311560063E+03  0.15208078822E+03  0.90571105389E+02 0.  0.
          5    1    3    3  502    0  0.16777084613E+02 -0.18497837260E+02  0.47337321757E+03  0.47404990883E+03  0.41800000000E+01 0.  1.
         -5    1    3    3    0  502 -0.58661493958E+02  0.68879482479E+02  0.36100696271E+03  0.37219491332E+03  0.41800000000E+01 0.  1.
        -11    1    4    4    0    0 -0.14591869340E+02 -0.24243228463E+02 -0.36215803135E+01  0.28526700145E+02  0.00000000000E+00 0.  1.
         11    1    4    4    0    0  0.56476278686E+02 -0.26138416756E+02  0.10673718094E+03  0.12355408807E+03  0.00000000000E+00 0. -1.
</event>
<event>
 8    1  0.7016814E-009  0.2256048E+03  0.7561462E-02  0.1129772E+00
          2   -1    0    0  501    0  0.00000000000E+00  0.00000000000E+00  0.13443303516E+04  0.13443303516E+04  0.00000000000E+00 0. -1.
         -2   -1    0    0    0  501 -0.00000000000E+00 -0.00000000000E+00 -0.54409588500E+02  0.54409588500E+02  0.00000000000E+00 0.  1.
         25    2    1    2    0    0  0.36596950692E+02 -0.20768932038E+03  0.32710087130E+03  0.40879865111E+03  0.12508863475E+03 0.  0.
         23    2    1    2    0    0 -0.36596950692E+02  0.20768932038E+03  0.96281989176E+03  0.98994128895E+03  0.92127200150E+02 0.  0.
          5    1    3    3  502    0  0.62766685135E+02 -0.14108511063E+03  0.14015162405E+03  0.20857760026E+03  0.41800000000E+01 0.  1.
         -5    1    3    3    0  502 -0.26169734443E+02 -0.66604209742E+02  0.18694924725E+03  0.20022105085E+03  0.41800000000E+01 0.  1.
        -11    1    4    4    0    0  0.88363313996E+01  0.15593673601E+03  0.56433998175E+03  0.58555440515E+03  0.00000000000E+00 0.  1.
         11    1    4    4    0    0 -0.45433282092E+02  0.51752584368E+02  0.39847991000E+03  0.40438688380E+03  0.00000000000E+00 0. -1.
</event>
<event>
 8    1  0.7016814E-009  0.1164890E+03  0.7561462E-02  0.1249004E+00
          2   -1    0    0  501    0  0.00000000000E+00  0.00000000000E+00  0.30000172401E+03  0.30000172401E+03  0.00000000000E+00 0. -1.
         -2   -1    0    0    0  501 -0.00000000000E+00 -0.00000000000E+00 -0.64670419848E+02  0.64670419848E+02  0.00000000000E+00 0.  1.
         25    2    1    2    0    0 -0.24216776215E+01 -0.74929428597E+02  0.71433253802E+02  0.16238911250E+03  0.12508888967E+03 0.  0.
         23    2    1    2    0    0  0.24216776215E+01  0.74929428597E+02  0.16389805036E+03  0.20228303135E+03  0.91845359540E+02 0.  0.
          5    1    3    3  502    0  0.45991766208E+02 -0.56394530541E+02  0.81580160008E+02  0.10940009388E+03  0.41800000000E+01 0.  1.
         -5    1    3    3    0  502 -0.48413443829E+02 -0.18534898056E+02 -0.10146906206E+02  0.52989018625E+02  0.41800000000E+01 0.  1.
        -11    1    4    4    0    0 -0.28883611774E+02  0.22821956666E+01  0.88033602017E+02  0.92678943295E+02  0.00000000000E+00 0. -1.
         11    1    4    4    0    0  0.31305289395E+02  0.72647232930E+02  0.75864448343E+02  0.10960408806E+03  0.00000000000E+00 0.  1.
</event>
<event>
 8    1  0.7016814E-009  0.8562972E+02  0.7561462E-02  0.1313794E+00
          2   -1    0    0  501    0  0.00000000000E+00  0.00000000000E+00  0.12815858537E+03  0.12815858537E+03  0.00000000000E+00 0. -1.
         -2   -1    0    0    0  501 -0.00000000000E+00 -0.00000000000E+00 -0.11075410956E+03  0.11075410956E+03  0.00000000000E+00 0.  1.
         25    2    1    2    0    0 -0.46731190265E+02 -0.14854870259E+02  0.11424976788E+02  0.13482729692E+03  0.12507357270E+03 0.  0.
         23    2    1    2    0    0  0.46731190265E+02  0.14854870259E+02  0.59794990185E+01  0.10408539800E+03  0.91616288697E+02 0.  0.
          5    1    3    3  502    0 -0.46822928850E+02 -0.47556837815E+02  0.50431520331E+02  0.83754702148E+02  0.41800000000E+01 0.  1.
         -5    1    3    3    0  502  0.91738584508E-01  0.32701967556E+02 -0.39006543543E+02  0.51072594776E+02  0.41800000000E+01 0.  1.
        -11    1    4    4    0    0  0.58005600125E+02  0.89410746309E+01 -0.30004520825E+02  0.65915580338E+02  0.00000000000E+00 0.  1.
         11    1    4    4    0    0 -0.11274409860E+02  0.59137956278E+01  0.35984019843E+02  0.38169817664E+02  0.00000000000E+00 0. -1.
</event>
<event>
 8    1  0.7016814E-009  0.8521860E+02  0.7561462E-02  0.1314862E+00
          1   -1    0    0  501    0  0.00000000000E+00  0.00000000000E+00  0.67565032916E+02  0.67565032916E+02  0.00000000000E+00 0. -1.
         -1   -1    0    0    0  501 -0.00000000000E+00 -0.00000000000E+00 -0.23864934268E+03  0.23864934268E+03  0.00000000000E+00 0.  1.
         25    2    1    2    0    0  0.64829004245E+02  0.87073984443E+01 -0.74579057956E+02  0.15964516315E+03  0.12508366661E+03 0.  0.
         23    2    1    2    0    0 -0.64829004245E+02 -0.87073984443E+01 -0.96505251813E+02  0.14656921245E+03  0.88829341051E+02 0.  0.
          5    1    3    3  502    0  0.31600596329E+02 -0.13164718935E+02 -0.10427305441E+03  0.10982827408E+03  0.41800000000E+01 0.  1.
         -5    1    3    3    0  502  0.33228407915E+02  0.21872117380E+02  0.29693996450E+02  0.49816889068E+02  0.41800000000E+01 0.  1.
        -11    1    4    4    0    0 -0.79386979493E+02 -0.13698480700E+02 -0.10222284701E+03  0.13015164746E+03  0.00000000000E+00 0.  1.
         11    1    4    4    0    0  0.14557975249E+02  0.49910822556E+01  0.57175951919E+01  0.16417564990E+02  0.00000000000E+00 0. -1.
</event>
<event>
 8    1  0.7016814E-009  0.1639191E+03  0.7561462E-02  0.1184342E+00
          2   -1    0    0  501    0  0.00000000000E+00  0.00000000000E+00  0.24365438412E+03  0.24365438412E+03  0.00000000000E+00 0. -1.
         -2   -1    0    0    0  501 -0.00000000000E+00 -0.00000000000E+00 -0.12634522466E+03  0.12634522466E+03  0.00000000000E+00 0.  1.
         25    2    1    2    0    0 -0.70842906214E+02 -0.11754264774E+03  0.76426877090E+02  0.20080788334E+03  0.12509095519E+03 0.  0.
         23    2    1    2    0    0  0.70842906214E+02  0.11754264774E+03  0.40882282372E+02  0.16919172544E+03  0.90108199116E+02 0.  0.
          5    1    3    3  502    0 -0.11436105772E+02 -0.10220660474E+03  0.28029511693E+00  0.10292971161E+03  0.41800000000E+01 0.  1.
         -5    1    3    3    0  502 -0.59406800441E+02 -0.15336043000E+02  0.76146581973E+02  0.97878171723E+02  0.41800000000E+01 0.  1.
        -11    1    4    4    0    0 -0.12226685099E+02  0.62678942782E+02  0.80512088765E+01  0.64365857884E+02  0.00000000000E+00 0. -1.
         11    1    4    4    0    0  0.83069591313E+02  0.54863704958E+02  0.32831073495E+02  0.10482586756E+03  0.00000000000E+00 0.  1.
</event>
<event>
 8    1  0.7016814E-009  0.1304090E+03  0.7561462E-02  0.1226850E+00
          1   -1    0    0  501    0  0.00000000000E+00  0.00000000000E+00  0.37297150995E+02  0.37297150995E+02  0.00000000000E+00 0. -1.
         -1   -1    0    0    0  501 -0.00000000000E+00 -0.00000000000E+00 -0.54230788662E+03  0.54230788662E+03  0.00000000000E+00 0.  1.
         25    2    1    2    0    0 -0.29901714144E+02 -0.77779899550E+02 -0.19351124350E+03  0.24502383266E+03  0.12508497884E+03 0.  0.
         23    2    1    2    0    0  0.29901714144E+02  0.77779899550E+02 -0.31149949212E+03  0.33458120495E+03  0.89268268874E+02 0.  0.
          5    1    3    3  502    0 -0.17640629766E+02  0.31930719680E+02 -0.28659114924E+02  0.46578749941E+02  0.41800000000E+01 0.  1.
         -5    1    3    3    0  502 -0.12261084378E+02 -0.10971061923E+03 -0.16485212857E+03  0.19844508272E+03  0.41800000000E+01 0.  1.
        -11    1    4    4    0    0  0.25284697127E+02 -0.89140809367E+01 -0.31158570009E+02  0.41105148494E+02  0.00000000000E+00 0. -1.
         11    1    4    4    0    0  0.46170170165E+01  0.86693980487E+02 -0.28034092211E+03  0.29347605645E+03  0.00000000000E+00 0.  1.
</event>
<event>
 8    1  0.7016814E-009  0.7910848E+02  0.7561462E-02  0.1331601E+00
         -3   -1    0    0    0  501 -0.00000000000E+00  0.00000000000E+00  0.26047527956E+02  0.26047527956E+02  0.00000000000E+00 0.  1.
          3   -1    0    0  501    0  0.00000000000E+00 -0.00000000000E+00 -0.60575373333E+03  0.60575373333E+03  0.00000000000E+00 0. -1.
         25    2    1    2    0    0 -0.45459440109E+02 -0.23861528115E+02 -0.22414453308E+03  0.26177148194E+03  0.12509038265E+03 0.  0.
         23    2    1    2    0    0  0.45459440109E+02  0.23861528115E+02 -0.35556167230E+03  0.37002977934E+03  0.88667928669E+02 0.  0.
          5    1    3    3  502    0 -0.12102269364E+01  0.53377637398E+01 -0.20520419880E+03  0.20531973110E+03  0.41800000000E+01 0.  1.
         -5    1    3    3    0  502 -0.44249213172E+02 -0.29199291854E+02 -0.18940334271E+02  0.56451750845E+02  0.41800000000E+01 0.  1.
        -11    1    4    4    0    0  0.60270588550E+02 -0.10089698792E+02 -0.26939026988E+03  0.27623443553E+03  0.00000000000E+00 0. -1.
         11    1    4    4    0    0 -0.14811148441E+02  0.33951226907E+02 -0.86171402421E+02  0.93795343818E+02  0.00000000000E+00 0.  1.
</event>
<event>
 8    1  0.7016814E-009  0.9489398E+02  0.7561462E-02  0.1291415E+00
          3   -1    0    0  501    0  0.00000000000E+00  0.00000000000E+00  0.14213917376E+03  0.14213917376E+03  0.00000000000E+00 0. -1.
         -3   -1    0    0    0  501 -0.00000000000E+00 -0.00000000000E+00 -0.99794430430E+02  0.99794430430E+02  0.00000000000E+00 0.  1.
         25    2    1    2    0    0 -0.34996237911E+02  0.16134520957E+02 -0.83246664387E+01  0.13114898328E+03  0.12508275784E+03 0.  0.
         23    2    1    2    0    0  0.34996237911E+02 -0.16134520957E+02  0.50669409768E+02  0.11078462091E+03  0.90668537593E+02 0.  0.
          5    1    3    3  502    0  0.26530247417E+02  0.14042172583E+02 -0.48735181873E+02  0.57390129735E+02  0.41800000000E+01 0.  1.
         -5    1    3    3    0  502 -0.61526485328E+02  0.20923483741E+01  0.40410515434E+02  0.73758853544E+02  0.41800000000E+01 0.  1.
        -11    1    4    4    0    0 -0.39407433706E+01 -0.47570948032E+02  0.31524413404E+02  0.57204136174E+02  0.00000000000E+00 0. -1.
         11    1    4    4    0    0  0.38936981282E+02  0.31436427075E+02  0.19144996364E+02  0.53580484734E+02  0.00000000000E+00 0.  1.
</event>
<event>
 8    1  0.7016814E-009  0.9632780E+02  0.7561462E-02  0.1288213E+00
         -3   -1    0    0    0  501 -0.00000000000E+00  0.00000000000E+00  0.99098995935E+02  0.99098995935E+02  0.00000000000E+00 0.  1.
          3   -1    0    0  501    0  0.00000000000E+00 -0.00000000000E+00 -0.16729631066E+03  0.16729631066E+03  0.00000000000E+00 0. -1.
         25    2    1    2    0    0 -0.22173741585E+02  0.52064357188E+02  0.36820639500E+01  0.13734518621E+03  0.12509104874E+03 0.  0.
         23    2    1    2    0    0  0.22173741585E+02 -0.52064357188E+02 -0.71879378678E+02  0.12905012039E+03  0.91021516071E+02 0.  0.
          5    1    3    3  502    0  0.41895991891E+02  0.16939532296E+02 -0.32386019297E+02  0.55754358905E+02  0.41800000000E+01 0. -1.
         -5    1    3    3    0  502 -0.64069733475E+02  0.35124824892E+02  0.36068083247E+02  0.81590827306E+02  0.41800000000E+01 0. -1.
        -11    1    4    4    0    0 -0.15251975397E+02 -0.13965071536E+02 -0.72754701624E+02  0.75636582320E+02  0.00000000000E+00 0. -1.
         11    1    4    4    0    0  0.37425716982E+02 -0.38099285652E+02  0.87532294598E+00  0.53413538069E+02  0.00000000000E+00 0.  1.
</event>
<event>
 8    1  0.7016814E-009  0.1275104E+03  0.7561462E-02  0.1231197E+00
          2   -1    0    0  501    0  0.00000000000E+00  0.00000000000E+00  0.48181577105E+03  0.48181577105E+03  0.00000000000E+00 0. -1.
         -2   -1    0    0    0  501 -0.00000000000E+00 -0.00000000000E+00 -0.42790351832E+02  0.42790351832E+02  0.00000000000E+00 0.  1.
         25    2    1    2    0    0  0.25018275253E+02  0.87384772465E+02  0.27471073708E+03  0.31523933070E+03  0.12509130265E+03 0.  0.
         23    2    1    2    0    0 -0.25018275253E+02 -0.87384772465E+02  0.16431468214E+03  0.20936679218E+03  0.92591178561E+02 0.  0.
          5    1    3    3  502    0  0.40266633697E+02  0.15709878858E+00  0.19235722996E+02  0.44820886967E+02  0.41800000000E+01 0. -1.
         -5    1    3    3    0  502 -0.15248358444E+02  0.87227673676E+02  0.25547501409E+03  0.27041844374E+03  0.41800000000E+01 0. -1.
        -11    1    4    4    0    0  0.26175420082E+02 -0.64890083468E+02  0.65589360640E+02  0.95905368870E+02  0.00000000000E+00 0. -1.
         11    1    4    4    0    0 -0.51193695335E+02 -0.22494688997E+02  0.98725321500E+02  0.11346142331E+03  0.00000000000E+00 0.  1.
</event>
<event>
 8    1  0.7016814E-009  0.8814885E+02  0.7561462E-02  0.1307397E+00
         -2   -1    0    0    0  501 -0.00000000000E+00  0.00000000000E+00  0.38602451204E+02  0.38602451204E+02  0.00000000000E+00 0.  1.
          2   -1    0    0  501    0  0.00000000000E+00 -0.00000000000E+00 -0.44319312314E+03  0.44319312314E+03  0.00000000000E+00 0. -1.
         25    2    1    2    0    0  0.33553867145E+02  0.15026945842E+02 -0.34457875655E+03  0.36842132420E+03  0.12509229214E+03 0.  0.
         23    2    1    2    0    0 -0.33553867145E+02 -0.15026945842E+02 -0.60011915383E+02  0.11337425015E+03  0.88885429106E+02 0.  0.
          5    1    3    3  502    0  0.78225802784E+02  0.68915029976E+01 -0.15983353321E+03  0.17813197291E+03  0.41800000000E+01 0.  1.
         -5    1    3    3    0  502 -0.44671935638E+02  0.81354428446E+01 -0.18474522335E+03  0.19028935129E+03  0.41800000000E+01 0.  1.
        -11    1    4    4    0    0 -0.38545147598E+01  0.11567526129E+02  0.20318095630E+02  0.23695779262E+02  0.00000000000E+00 0.  1.
         11    1    4    4    0    0 -0.29699352386E+02 -0.26594471971E+02 -0.80330011013E+02  0.89678470889E+02  0.00000000000E+00 0. -1.
</event>
<event>
 8    1  0.7016814E-009  0.9869893E+02  0.7561462E-02  0.1283056E+00
         -2   -1    0    0    0  501 -0.00000000000E+00  0.00000000000E+00  0.64809592108E+02  0.64809592108E+02  0.00000000000E+00 0.  1.
          2   -1    0    0  501    0  0.00000000000E+00 -0.00000000000E+00 -0.19920698196E+03  0.19920698196E+03  0.00000000000E+00 0. -1.
         25    2    1    2    0    0  0.77126700799E+01 -0.33008497382E+02 -0.65081831017E+02  0.14501945763E+03  0.12508378066E+03 0.  0.
         23    2    1    2    0    0 -0.77126700799E+01  0.33008497382E+02 -0.69315558832E+02  0.11899711643E+03  0.90590401499E+02 0.  0.
          5    1    3    3  502    0 -0.30229283531E+02 -0.63246401733E+02 -0.90835025198E+01  0.70808893036E+02  0.41800000000E+01 0. -1.
         -5    1    3    3    0  502  0.37941953611E+02  0.30237904351E+02 -0.55998328497E+02  0.74210564597E+02  0.41800000000E+01 0. -1.
        -11    1    4    4    0    0  0.21822416143E+02 -0.11801397890E+02 -0.59464881664E+02  0.64432623645E+02  0.00000000000E+00 0. -1.
         11    1    4    4    0    0 -0.29535086223E+02  0.44809895271E+02 -0.98506771679E+01  0.54564492787E+02  0.00000000000E+00 0.  1.
</event>
<event>
 8    1  0.7016814E-009  0.7819940E+02  0.7561462E-02  0.1334240E+00
          1   -1    0    0  501    0  0.00000000000E+00  0.00000000000E+00  0.29383827180E+03  0.29383827180E+03  0.00000000000E+00 0. -1.
         -1   -1    0    0    0  501 -0.00000000000E+00 -0.00000000000E+00 -0.44517983007E+02  0.44517983007E+02  0.00000000000E+00 0.  1.
         25    2    1    2    0    0  0.33191055376E+02  0.16809746574E+02  0.13545335171E+03  0.18809102589E+03  0.12508560986E+03 0.  0.
         23    2    1    2    0    0 -0.33191055376E+02 -0.16809746574E+02  0.11386693709E+03  0.15026522893E+03  0.90717947094E+02 0.  0.
          5    1    3    3  502    0  0.50924006319E+02  0.10847569918E+02  0.15326634153E+03  0.16192272243E+03  0.41800000000E+01 0.  1.
         -5    1    3    3    0  502 -0.17732950943E+02  0.59621766559E+01 -0.17812989821E+02  0.26168303460E+02  0.41800000000E+01 0.  1.
        -11    1    4    4    0    0  0.15685434632E+02  0.18828048398E+02  0.73667000290E+02  0.77636043162E+02  0.00000000000E+00 0. -1.
         11    1    4    4    0    0 -0.48876490009E+02 -0.35637794972E+02  0.40199936800E+02  0.72629185764E+02  0.00000000000E+00 0.  1.
</event>
<event>
 8    1  0.7016814E-009  0.9624596E+02  0.7561462E-02  0.1288394E+00
         -1   -1    0    0    0  501 -0.00000000000E+00  0.00000000000E+00  0.15784853333E+02  0.15784853333E+02  0.00000000000E+00 0.  1.
          1   -1    0    0  501    0  0.00000000000E+00 -0.00000000000E+00 -0.13424771830E+04  0.13424771830E+04  0.00000000000E+00 0. -1.
         25    2    1    2    0    0 -0.37063447216E+02 -0.31724366483E+02 -0.11101620421E+04  0.11182520230E+04  0.12509073774E+03 0.  0.
         23    2    1    2    0    0  0.37063447216E+02  0.31724366483E+02 -0.21653028759E+03  0.24001001336E+03  0.91319803550E+02 0.  0.
          5    1    3    3  502    0  0.36911653868E+02 -0.26974300770E+02 -0.20632407488E+03  0.21136976929E+03  0.41800000000E+01 0.  1.
         -5    1    3    3    0  502 -0.73975101084E+02 -0.47500657134E+01 -0.90383796724E+03  0.90688225373E+03  0.41800000000E+01 0.  1.
        -11    1    4    4    0    0  0.89080834685E+01  0.41568208487E+02 -0.20274101898E+03  0.20715016458E+03  0.00000000000E+00 0. -1.
         11    1    4    4    0    0  0.28155363748E+02 -0.98438420033E+01 -0.13789268612E+02  0.32859848782E+02  0.00000000000E+00 0.  1.
</event>
<event>
 8    1  0.7016814E-009  0.1753404E+03  0.7561462E-02  0.1172390E+00
         -2   -1    0    0    0  501 -0.00000000000E+00  0.00000000000E+00  0.24980324172E+02  0.24980324172E+02  0.00000000000E+00 0.  1.
          2   -1    0    0  501    0  0.00000000000E+00 -0.00000000000E+00 -0.16005372113E+04  0.16005372113E+04  0.00000000000E+00 0. -1.
         25    2    1    2    0    0 -0.13780000312E+03  0.93708391645E+02 -0.75063491398E+03  0.77901882975E+03  0.12508980574E+03 0.  0.
         23    2    1    2    0    0  0.13780000312E+03 -0.93708391645E+02 -0.82492197317E+03  0.84649870574E+03  0.91069717670E+02 0.  0.
          5    1    3    3  502    0 -0.10152754553E+02  0.13223891731E+02 -0.45020417443E+01  0.17767681824E+02  0.41800000000E+01 0. -1.
         -5    1    3    3    0  502 -0.12764724857E+03  0.80484499914E+02 -0.74613287223E+03  0.76125114793E+03  0.41800000000E+01 0. -1.
        -11    1    4    4    0    0  0.31640917606E+02 -0.65418707950E+02 -0.22029002444E+03  0.23196648440E+03  0.00000000000E+00 0.  1.
         11    1    4    4    0    0  0.10615908551E+03 -0.28289683694E+02 -0.60463194874E+03  0.61453222135E+03  0.00000000000E+00 0. -1.
</event>
<event>
 8    1  0.7016814E-009  0.5422550E+02  0.7561462E-02  0.1423797E+00
         -1   -1    0    0    0  501 -0.00000000000E+00  0.00000000000E+00  0.30819367412E+02  0.30819367412E+02  0.00000000000E+00 0.  1.
          1   -1    0    0  501    0  0.00000000000E+00 -0.00000000000E+00 -0.43420824993E+03  0.43420824993E+03  0.00000000000E+00 0. -1.
         25    2    1    2    0    0 -0.85957799496E+01  0.27227388335E+02 -0.26910035312E+03  0.29812240882E+03  0.12508697969E+03 0.  0.
         23    2    1    2    0    0  0.85957799496E+01 -0.27227388335E+02 -0.13428852940E+03  0.16690520852E+03  0.94914284453E+02 0.  0.
          5    1    3    3  502    0  0.29360527952E+01  0.16407998662E+02  0.90974307815E+01  0.19444240097E+02  0.41800000000E+01 0.  1.
         -5    1    3    3    0  502 -0.11531832745E+02  0.10819389673E+02 -0.27819778390E+03  0.27867816873E+03  0.41800000000E+01 0.  1.
        -11    1    4    4    0    0  0.35339561770E+02 -0.32081650650E+02 -0.24206210368E+02  0.53516890370E+02  0.00000000000E+00 0.  1.
         11    1    4    4    0    0 -0.26743781820E+02  0.48542623151E+01 -0.11008231903E+03  0.11338831815E+03  0.00000000000E+00 0. -1.
</event>
<event>
 8    1  0.7016814E-009  0.1417605E+03  0.7561462E-02  0.1210980E+00
         -1   -1    0    0    0  501 -0.00000000000E+00  0.00000000000E+00  0.15245274648E+03  0.15245274648E+03  0.00000000000E+00 0.  1.
          1   -1    0    0  501    0  0.00000000000E+00 -0.00000000000E+00 -0.15751846830E+03  0.15751846830E+03  0.00000000000E+00 0. -1.
         25    2    1    2    0    0  0.73875818227E+01  0.11000479756E+03 -0.14348280407E+02  0.16735651264E+03  0.12508675917E+03 0.  0.
         23    2    1    2    0    0 -0.73875818227E+01 -0.11000479756E+03  0.92825585870E+01  0.14261470215E+03  0.89984195972E+02 0.  0.
          5    1    3    3  502    0  0.45090398421E+02  0.20741560869E+02  0.32675117978E+02  0.59569221179E+02  0.41800000000E+01 0. -1.
         -5    1    3    3    0  502 -0.37702816598E+02  0.89263236691E+02 -0.47023398385E+02  0.10778729146E+03  0.41800000000E+01 0. -1.
        -11    1    4    4    0    0 -0.37569586696E+02 -0.21661357498E+02 -0.15450585706E+02  0.46037037826E+02  0.00000000000E+00 0. -1.
         11    1    4    4    0    0  0.30182004873E+02 -0.88343440061E+02  0.24733144293E+02  0.96577664326E+02  0.00000000000E+00 0.  1.
</event>
<event>
 8    1  0.7016814E-009  0.1084004E+03  0.7561462E-02  0.1263561E+00
         -2   -1    0    0    0  501 -0.00000000000E+00  0.00000000000E+00  0.11012078311E+02  0.11012078311E+02  0.00000000000E+00 0.  1.
          2   -1    0    0  501    0  0.00000000000E+00 -0.00000000000E+00 -0.11434230392E+04  0.11434230392E+04  0.00000000000E+00 0. -1.
         25    2    1    2    0    0  0.11443336303E+02  0.12629421557E+02 -0.76470157387E+03  0.77505233572E+03  0.12508866373E+03 0.  0.
         23    2    1    2    0    0 -0.11443336303E+02 -0.12629421557E+02 -0.36770938701E+03  0.37938278178E+03  0.91818568824E+02 0.  0.
          5    1    3    3  502    0 -0.24848310948E+02  0.60260822449E+02 -0.44440644018E+03  0.44918076734E+03  0.41800000000E+01 0.  1.
         -5    1    3    3    0  502  0.36291647252E+02 -0.47631400892E+02 -0.32029513370E+03  0.32587156838E+03  0.41800000000E+01 0.  1.
        -11    1    4    4    0    0 -0.38487977711E+02  0.24423729536E+02 -0.14492750010E+03  0.15192703274E+03  0.00000000000E+00 0.  1.
         11    1    4    4    0    0  0.27044641408E+02 -0.37053151093E+02 -0.22278188691E+03  0.22745574904E+03  0.00000000000E+00 0. -1.
</event>
<event>
 8    1  0.7016814E-009  0.1523483E+03  0.7561462E-02  0.1197617E+00
          1   -1    0    0  501    0  0.00000000000E+00  0.00000000000E+00  0.14934108060E+04  0.14934108060E+04  0.00000000000E+00 0. -1.
         -1   -1    0    0    0  501 -0.00000000000E+00 -0.00000000000E+00 -0.28155267755E+02  0.28155267755E+02  0.00000000000E+00 0.  1.
         25    2    1    2    0    0  0.51902848733E+02 -0.99996699314E+02  0.12502815678E+04  0.12615642114E+04  0.12508802988E+03 0.  0.
         23    2    1    2    0    0 -0.51902848733E+02  0.99996699314E+02  0.21497397045E+03  0.26000186233E+03  0.93241165052E+02 0.  0.
          5    1    3    3  502    0  0.16047777723E+02 -0.12237591076E+03  0.10143871386E+04  0.10218767705E+04  0.41800000000E+01 0. -1.
         -5    1    3    3    0  502  0.35855071010E+02  0.22379211443E+02  0.23589442918E+03  0.23968744093E+03  0.41800000000E+01 0. -1.
        -11    1    4    4    0    0 -0.49880501911E+01  0.90781921866E+02  0.17684830870E+03  0.19885060290E+03  0.00000000000E+00 0. -1.
         11    1    4    4    0    0 -0.46914798542E+02  0.92147774476E+01  0.38125661754E+02  0.61151259430E+02  0.00000000000E+00 0.  1.
</event>
<event>
 8    1  0.7016814E-009  0.2126042E+03  0.7561462E-02  0.1139520E+00
         -2   -1    0    0    0  501 -0.00000000000E+00  0.00000000000E+00  0.72250169900E+02  0.72250169900E+02  0.00000000000E+00 0.  1.
          2   -1    0    0  501    0  0.00000000000E+00 -0.00000000000E+00 -0.74620439149E+03  0.74620439149E+03  0.00000000000E+00 0. -1.
         25    2    1    2    0    0 -0.50756045099E+01  0.20460173057E+03 -0.33166869480E+03  0.40931601787E+03  0.12509136444E+03 0.  0.
         23    2    1    2    0    0  0.50756045099E+01 -0.20460173057E+03 -0.34228552679E+03  0.40913854352E+03  0.91363756680E+02 0.  0.
          5    1    3    3  502    0  0.16640841393E+02  0.15560921172E+02  0.39381101735E+01  0.23495552381E+02  0.41800000000E+01 0. -1.
         -5    1    3    3    0  502 -0.21716445902E+02  0.18904080940E+03 -0.33560680498E+03  0.38582046549E+03  0.41800000000E+01 0. -1.
        -11    1    4    4    0    0 -0.12001152664E+02 -0.18629137323E+03 -0.24121747149E+03  0.30501536348E+03  0.00000000000E+00 0.  1.
         11    1    4    4    0    0  0.17076757174E+02 -0.18310357341E+02 -0.10106805529E+03  0.10412318004E+03  0.00000000000E+00 0. -1.
</event>
<event>
 8    1  0.7016814E-009  0.8749327E+02  0.7561462E-02  0.1309038E+00
          2   -1    0    0  501    0  0.00000000000E+00  0.00000000000E+00  0.28233708340E+03  0.28233708340E+03  0.00000000000E+00 0.  1.
         -2   -1    0    0    0  501 -0.00000000000E+00 -0.00000000000E+00 -0.92696273942E+02  0.92696273942E+02  0.00000000000E+00 0. -1.
         25    2    1    2    0    0 -0.24894953967E+02  0.53996833594E+02  0.22293679784E+03  0.26245646312E+03  0.12508861831E+03 0.  0.
         23    2    1    2    0    0  0.24894953967E+02 -0.53996833594E+02 -0.33295988386E+02  0.11257689422E+03  0.89607575002E+02 0.  0.
          5    1    3    3  502    0  0.17099092525E+02  0.51188581129E+02  0.21195660782E+03  0.21875951591E+03  0.41800000000E+01 0.  1.
         -5    1    3    3    0  502 -0.41994046492E+02  0.28082524656E+01  0.10980190020E+02  0.43696947211E+02  0.41800000000E+01 0.  1.
        -11    1    4    4    0    0  0.38506288815E+02 -0.52149079650E+02 -0.56249656382E+02  0.85827062339E+02  0.00000000000E+00 0. -1.
         11    1    4    4    0    0 -0.13611334848E+02 -0.18477539442E+01  0.22953667997E+02  0.26749831878E+02  0.00000000000E+00 0.  1.
</event>
<event>
 8    1  0.7016814E-009  0.1597547E+03  0.7561462E-02  0.1188974E+00
         -2   -1    0    0    0  501 -0.00000000000E+00  0.00000000000E+00  0.41569044646E+02  0.41569044646E+02  0.00000000000E+00 0.  1.
          2   -1    0    0  501    0  0.00000000000E+00 -0.00000000000E+00 -0.77151775236E+03  0.77151775236E+03  0.00000000000E+00 0. -1.
         25    2    1    2    0    0 -0.11600625052E+02  0.12269304559E+03 -0.23941873223E+03  0.29691271019E+03  0.12509064790E+03 0.  0.
         23    2    1    2    0    0  0.11600625052E+02 -0.12269304559E+03 -0.49052997548E+03  0.51617408682E+03  0.10309157637E+03 0.  0.
          5    1    3    3  502    0 -0.57501431050E+02  0.56888115388E+02 -0.61506410344E+02  0.10170144128E+03  0.41800000000E+01 0. -1.
         -5    1    3    3    0  502  0.45900805998E+02  0.65804930197E+02 -0.17791232189E+03  0.19521126891E+03  0.41800000000E+01 0. -1.
        -11    1    4    4    0    0 -0.99828925972E+00  0.17443521010E+02 -0.30983594178E+02  0.35570438778E+02  0.00000000000E+00 0. -1.
         11    1    4    4    0    0  0.12598914312E+02 -0.14013656660E+03 -0.45954638130E+03  0.48060364804E+03  0.00000000000E+00 0.  1.
</event>
<event>
 8    1  0.7016814E-009  0.1188588E+03  0.7561462E-02  0.1244992E+00
         -1   -1    0    0    0  501 -0.00000000000E+00  0.00000000000E+00  0.18085370308E+02  0.18085370308E+02  0.00000000000E+00 0.  1.
          1   -1    0    0  501    0  0.00000000000E+00 -0.00000000000E+00 -0.80968944376E+03  0.80968944376E+03  0.00000000000E+00 0. -1.
         25    2    1    2    0    0 -0.45338979350E+02  0.27488935032E+02 -0.47811265420E+03  0.49704234230E+03  0.12509242715E+03 0.  0.
         23    2    1    2    0    0  0.45338979350E+02 -0.27488935032E+02 -0.31349141925E+03  0.33073247177E+03  0.91081465412E+02 0.  0.
          5    1    3    3  502    0 -0.31275858715E+02 -0.46905375543E+02 -0.15044840487E+03  0.16071866264E+03  0.41800000000E+01 0. -1.
         -5    1    3    3    0  502 -0.14063120635E+02  0.74394310575E+02 -0.32766424933E+03  0.33632367966E+03  0.41800000000E+01 0. -1.
        -11    1    4    4    0    0  0.56430026114E+02 -0.53077960601E+02 -0.22693345960E+03  0.23979243698E+03  0.00000000000E+00 0.  1.
         11    1    4    4    0    0 -0.11091046764E+02  0.25589025569E+02 -0.86557959651E+02  0.90940034786E+02  0.00000000000E+00 0. -1.
</event>
<event>
 8    1  0.7016814E-009  0.1228705E+03  0.7561462E-02  0.1238435E+00
         -1   -1    0    0    0  501 -0.00000000000E+00  0.00000000000E+00  0.66088787961E+02  0.66088787961E+02  0.00000000000E+00 0.  1.
          1   -1    0    0  501    0  0.00000000000E+00 -0.00000000000E+00 -0.28305952309E+03  0.28305952309E+03  0.00000000000E+00 0. -1.
         25    2    1    2    0    0  0.16121464708E+01  0.79785092088E+02 -0.87798780212E+02  0.17240688806E+03  0.12508896558E+03 0.  0.
         23    2    1    2    0    0 -0.16121464708E+01 -0.79785092088E+02 -0.12917195491E+03  0.17674142298E+03  0.90464781692E+02 0.  0.
          5    1    3    3  502    0 -0.42226691898E+01  0.11189688579E+03 -0.82336977053E+02  0.13905248712E+03  0.41800000000E+01 0. -1.
         -5    1    3    3    0  502  0.58348156605E+01 -0.32111793701E+02 -0.54618031585E+01  0.33354400942E+02  0.41800000000E+01 0. -1.
        -11    1    4    4    0    0  0.29279334889E+02 -0.28177122471E+02 -0.79325302479E+01  0.41402351605E+02  0.00000000000E+00 0.  1.
         11    1    4    4    0    0 -0.30891481360E+02 -0.51607969617E+02 -0.12123942467E+03  0.13533907138E+03  0.00000000000E+00 0. -1.
</event>
<event>
 8    1  0.7016814E-009  0.8993800E+02  0.7561462E-02  0.1303002E+00
          1   -1    0    0  501    0  0.00000000000E+00  0.00000000000E+00  0.51045969081E+02  0.51045969081E+02  0.00000000000E+00 0. -1.
         -1   -1    0    0    0  501 -0.00000000000E+00 -0.00000000000E+00 -0.23927388566E+03  0.23927388566E+03  0.00000000000E+00 0.  1.
         25    2    1    2    0    0 -0.74837434991E+00 -0.13080020378E+02 -0.87682357288E+02  0.15332188411E+03  0.12509099637E+03 0.  0.
         23    2    1    2    0    0  0.74837434991E+00  0.13080020378E+02 -0.10054555929E+03  0.13699797063E+03  0.92127018106E+02 0.  0.
          5    1    3    3  502    0  0.43301927061E+01 -0.50340141030E+02  0.71685668292E+01  0.51202940523E+02  0.41800000000E+01 0. -1.
         -5    1    3    3    0  502 -0.50785670560E+01  0.37260120653E+02 -0.94850924117E+02  0.10211894359E+03  0.41800000000E+01 0. -1.
        -11    1    4    4    0    0 -0.44489791525E+02  0.12043462301E+02 -0.63800444385E+02  0.78707580562E+02  0.00000000000E+00 0. -1.
         11    1    4    4    0    0  0.45238165875E+02  0.10365580771E+01 -0.36745114906E+02  0.58290390064E+02  0.00000000000E+00 0.  1.
</event>
<event>
 8    1  0.7016814E-009  0.1093876E+03  0.7561462E-02  0.1261708E+00
          1   -1    0    0  501    0  0.00000000000E+00  0.00000000000E+00  0.10014969632E+04  0.10014969632E+04  0.00000000000E+00 0.  1.
         -1   -1    0    0    0  501 -0.00000000000E+00 -0.00000000000E+00 -0.19530756405E+02  0.19530756405E+02  0.00000000000E+00 0. -1.
         25    2    1    2    0    0 -0.84579307926E+02  0.65580068790E+00  0.62109119832E+03  0.63918403373E+03  0.12509141831E+03 0.  0.
         23    2    1    2    0    0  0.84579307926E+02 -0.65580068790E+00  0.36087500845E+03  0.38184368585E+03  0.91759137420E+02 0.  0.
          5    1    3    3  502    0  0.33315428387E+01 -0.21290594071E+02  0.15583930087E+02  0.26920621289E+02  0.41800000000E+01 0.  1.
         -5    1    3    3    0  502 -0.87910850764E+02  0.21946394759E+02  0.60550726823E+03  0.61226341244E+03  0.41800000000E+01 0.  1.
        -11    1    4    4    0    0  0.43827137627E+01 -0.22562171744E+02  0.18455020832E+02  0.29476220376E+02  0.00000000000E+00 0. -1.
         11    1    4    4    0    0  0.80196594163E+02  0.21906371056E+02  0.34241998761E+03  0.35236746547E+03  0.00000000000E+00 0.  1.
</event>
<event>
 8    1  0.7016814E-009  0.9563604E+02  0.7561462E-02  0.1289750E+00
         -1   -1    0    0    0  501 -0.00000000000E+00  0.00000000000E+00  0.32114314436E+02  0.32114314436E+02  0.00000000000E+00 0.  1.
          1   -1    0    0  501    0  0.00000000000E+00 -0.00000000000E+00 -0.52473108670E+03  0.52473108670E+03  0.00000000000E+00 0. -1.
         25    2    1    2    0    0 -0.15101500162E+01 -0.67023261841E+02 -0.21934382095E+03  0.26125480112E+03  0.12509181084E+03 0.  0.
         23    2    1    2    0    0  0.15101500162E+01  0.67023261841E+02 -0.27327295131E+03  0.29559060001E+03  0.90561022052E+02 0.  0.
          5    1    3    3  502    0  0.16916007989E+02  0.17026100595E+02 -0.14628452246E+03  0.14829926951E+03  0.41800000000E+01 0.  1.
         -5    1    3    3    0  502 -0.18426158005E+02 -0.84049362436E+02 -0.73059298491E+02  0.11295553161E+03  0.41800000000E+01 0.  1.
        -11    1    4    4    0    0 -0.20810768444E+02  0.20751701667E+02 -0.16450004754E+02  0.33679724786E+02  0.00000000000E+00 0.  1.
         11    1    4    4    0    0  0.22320918460E+02  0.46271560173E+02 -0.25682294656E+03  0.26191087523E+03  0.00000000000E+00 0. -1.
</event>
<event>
 8    1  0.7016814E-009  0.9410869E+02  0.7561462E-02  0.1293196E+00
          2   -1    0    0  501    0  0.00000000000E+00  0.00000000000E+00  0.51398625253E+03  0.51398625253E+03  0.00000000000E+00 0. -1.
         -2   -1    0    0    0  501 -0.00000000000E+00 -0.00000000000E+00 -0.22444224145E+02  0.22444224145E+02  0.00000000000E+00 0.  1.
         25    2    1    2    0    0 -0.58628640475E+01 -0.10725314226E+01  0.34491722357E+03  0.36694723905E+03  0.12508741595E+03 0.  0.
         23    2    1    2    0    0  0.58628640475E+01  0.10725314226E+01  0.14662480481E+03  0.16948323763E+03  0.84795111606E+02 0.  0.
          5    1    3    3  502    0 -0.39880725492E+02  0.39174744619E+02  0.85783455417E+02  0.10247637047E+03  0.41800000000E+01 0.  1.
         -5    1    3    3    0  502  0.34017861444E+02 -0.40247276042E+02  0.25913376815E+03  0.26447086857E+03  0.41800000000E+01 0.  1.
        -11    1    4    4    0    0  0.10494092088E+02 -0.38269087698E+02  0.42835147246E+02  0.58390914375E+02  0.00000000000E+00 0.  1.
         11    1    4    4    0    0 -0.46312280400E+01  0.39341619120E+02  0.10378965756E+03  0.11109232325E+03  0.00000000000E+00 0. -1.
</event>
<event>
 8    1  0.7016814E-009  0.7951025E+02  0.7561462E-02  0.1330447E+00
          2   -1    0    0  501    0  0.00000000000E+00  0.00000000000E+00  0.20402706157E+03  0.20402706157E+03  0.00000000000E+00 0. -1.
         -2   -1    0    0    0  501 -0.00000000000E+00 -0.00000000000E+00 -0.97399099730E+02  0.97399099730E+02  0.00000000000E+00 0.  1.
         25    2    1    2    0    0 -0.90869908399E+01  0.30789419395E+02  0.14930024994E+03  0.19740690936E+03  0.12509341102E+03 0.  0.
         23    2    1    2    0    0  0.90869908399E+01 -0.30789419395E+02 -0.42672288105E+02  0.10401925194E+03  0.89266560663E+02 0.  0.
          5    1    3    3  502    0 -0.17675578586E+02  0.63848066600E+02  0.29281594321E+02  0.72552641943E+02  0.41800000000E+01 0. -1.
         -5    1    3    3    0  502  0.85885877462E+01 -0.33058647206E+02  0.12001865562E+03  0.12485426742E+03  0.41800000000E+01 0. -1.
        -11    1    4    4    0    0 -0.17574866799E+02 -0.10025890806E+00 -0.57975706687E+02  0.60581090785E+02  0.00000000000E+00 0.  1.
         11    1    4    4    0    0  0.26661857639E+02 -0.30689160487E+02  0.15303418581E+02  0.43438161154E+02  0.00000000000E+00 0. -1.
</event>
<event>
 8    1  0.7016814E-009  0.1167047E+03  0.7561462E-02  0.1248634E+00
          1   -1    0    0  501    0  0.00000000000E+00  0.00000000000E+00  0.88814345137E+02  0.88814345137E+02  0.00000000000E+00 0. -1.
         -1   -1    0    0    0  501 -0.00000000000E+00 -0.00000000000E+00 -0.22502237158E+03  0.22502237158E+03  0.00000000000E+00 0.  1.
         25    2    1    2    0    0  0.56761544902E+02  0.66453548209E+02 -0.50816044134E+02  0.16083567091E+03  0.12509154906E+03 0.  0.
         23    2    1    2    0    0 -0.56761544902E+02 -0.66453548209E+02 -0.85391982309E+02  0.15300104581E+03  0.92084647619E+02 0.  0.
          5    1    3    3  502    0  0.13141271432E+02  0.68974744732E+02  0.23808465246E+02  0.74259840042E+02  0.41800000000E+01 0. -1.
         -5    1    3    3    0  502  0.43620273470E+02 -0.25211965231E+01 -0.74624509380E+02  0.86575830864E+02  0.41800000000E+01 0. -1.
        -11    1    4    4    0    0 -0.47602616621E+02  0.43339847708E+01 -0.61158467772E+02  0.77621844306E+02  0.00000000000E+00 0. -1.
         11    1    4    4    0    0 -0.91589282807E+01 -0.70787532980E+02 -0.24233514536E+02  0.75379201504E+02  0.00000000000E+00 0.  1.
</event>
<event>
 8    1  0.7016814E-009  0.1092861E+03  0.7561462E-02  0.1261898E+00
          1   -1    0    0  501    0  0.00000000000E+00  0.00000000000E+00  0.55285240468E+03  0.55285240468E+03  0.00000000000E+00 0. -1.
         -1   -1    0    0    0  501 -0.00000000000E+00 -0.00000000000E+00 -0.24721685759E+02  0.24721685759E+02  0.00000000000E+00 0.  1.
         25    2    1    2    0    0  0.34826405609E+02 -0.23614265056E+02  0.28060392785E+03  0.31009216691E+03  0.12509226839E+03 0.  0.
         23    2    1    2    0    0 -0.34826405609E+02  0.23614265056E+02  0.24752679107E+03  0.26748192353E+03  0.92230987611E+02 0.  0.
          5    1    3    3  502    0 -0.30125997907E+02 -0.39911580555E+02  0.19485557566E+03  0.20121301593E+03  0.41800000000E+01 0. -1.
         -5    1    3    3    0  502  0.64952403517E+02  0.16297315499E+02  0.85748352184E+02  0.10887915098E+03  0.41800000000E+01 0. -1.
        -11    1    4    4    0    0 -0.30157449278E+02 -0.32876457913E+02  0.10378528190E+03  0.11296777403E+03  0.00000000000E+00 0.  1.
         11    1    4    4    0    0 -0.46689563314E+01  0.56490722969E+02  0.14374150918E+03  0.15451414950E+03  0.00000000000E+00 0. -1.
</event>
<event>
 8    1  0.7016814E-009  0.8306420E+02  0.7561462E-02  0.1320574E+00
          2   -1    0    0  501    0  0.00000000000E+00  0.00000000000E+00  0.49613220473E+02  0.49613220473E+02  0.00000000000E+00 0.  1.
         -2   -1    0    0    0  501 -0.00000000000E+00 -0.00000000000E+00 -0.27172271919E+03  0.27172271919E+03  0.00000000000E+00 0. -1.
         25    2    1    2    0    0  0.30113774636E+02  0.21221434715E+02 -0.15807393998E+03  0.20492400873E+03  0.12509712283E+03 0.  0.
         23    2    1    2    0    0 -0.30113774636E+02 -0.21221434715E+02 -0.64035558732E+02  0.11641193093E+03  0.89966639184E+02 0.  0.
          5    1    3    3  502    0 -0.96597772745E+00  0.43869212351E+02 -0.19957185960E+01  0.44123646699E+02  0.41800000000E+01 0. -1.
         -5    1    3    3    0  502  0.31079752363E+02 -0.22647777637E+02 -0.15607822139E+03  0.16080036204E+03  0.41800000000E+01 0. -1.
        -11    1    4    4    0    0 -0.55314113920E+02 -0.12580943314E+02 -0.12042314538E+02  0.57990936127E+02  0.00000000000E+00 0.  1.
         11    1    4    4    0    0  0.25200339285E+02 -0.86404914004E+01 -0.51993244194E+02  0.58420994800E+02  0.00000000000E+00 0. -1.
</event>
<event>
 8    1  0.7016814E-009  0.7793589E+02  0.7561462E-02  0.1335013E+00
          4   -1    0    0  501    0  0.00000000000E+00  0.00000000000E+00  0.20908229980E+03  0.20908229980E+03  0.00000000000E+00 0. -1.
         -4   -1    0    0    0  501 -0.00000000000E+00 -0.00000000000E+00 -0.58276661661E+02  0.58276661661E+02  0.00000000000E+00 0.  1.
         25    2    1    2    0    0 -0.95736628667E+01 -0.13521974603E+01  0.10789562554E+03  0.16547648735E+03  0.12509004115E+03 0.  0.
         23    2    1    2    0    0  0.95736628667E+01  0.13521974603E+01  0.42910012597E+02  0.10188247411E+03  0.91898236607E+02 0.  0.
          5    1    3    3  502    0 -0.24518074024E+02 -0.28432595538E+02  0.12451280407E+03  0.13011709811E+03  0.41800000000E+01 0.  1.
         -5    1    3    3    0  502  0.14944411157E+02  0.27080398078E+02 -0.16617178530E+02  0.35359389237E+02  0.41800000000E+01 0.  1.
        -11    1    4    4    0    0  0.14409781289E+02  0.42797309606E+02  0.39536718923E+02  0.60020027070E+02  0.00000000000E+00 0.  1.
         11    1    4    4    0    0 -0.48361184225E+01 -0.41445112145E+02  0.33732936743E+01  0.41862447042E+02  0.00000000000E+00 0. -1.
</event>
<event>
 8    1  0.7016814E-009  0.1604456E+03  0.7561462E-02  0.1188195E+00
         -1   -1    0    0    0  501 -0.00000000000E+00  0.00000000000E+00  0.43119515347E+02  0.43119515347E+02  0.00000000000E+00 0.  1.
          1   -1    0    0  501    0  0.00000000000E+00 -0.00000000000E+00 -0.71569412298E+03  0.71569412298E+03  0.00000000000E+00 0. -1.
         25    2    1    2    0    0 -0.94362005951E+02 -0.82963831367E+02 -0.48042908891E+03  0.51210188277E+03  0.12509613656E+03 0.  0.
         23    2    1    2    0    0  0.94362005951E+02  0.82963831367E+02 -0.19214551872E+03  0.24671175556E+03  0.90330529076E+02 0.  0.
          5    1    3    3  502    0 -0.16750857571E+02 -0.95059437917E+02 -0.22583542025E+03  0.24563386860E+03  0.41800000000E+01 0.  1.
         -5    1    3    3    0  502 -0.77611148380E+02  0.12095606550E+02 -0.25459366866E+03  0.26646801417E+03  0.41800000000E+01 0.  1.
        -11    1    4    4    0    0  0.63603514508E+02  0.73990449603E+01 -0.44343575547E+02  0.77887775783E+02  0.00000000000E+00 0.  1.
         11    1    4    4    0    0  0.30758491443E+02  0.75564786407E+02 -0.14780194318E+03  0.16882397978E+03  0.00000000000E+00 0. -1.
</event>
<event>
 8    1  0.7016814E-009  0.1356431E+03  0.7561462E-02  0.1219315E+00
         -2   -1    0    0    0  501 -0.00000000000E+00  0.00000000000E+00  0.13399837318E+03  0.13399837318E+03  0.00000000000E+00 0. -1.
          2   -1    0    0  501    0  0.00000000000E+00 -0.00000000000E+00 -0.27658518321E+03  0.27658518321E+03  0.00000000000E+00 0.  1.
         25    2    1    2    0    0  0.47724395435E+02 -0.11447566944E+03  0.29052399800E+02  0.17853208163E+03  0.12508942970E+03 0.  0.
         23    2    1    2    0    0 -0.47724395435E+02  0.11447566944E+03 -0.17163920983E+03  0.23205147476E+03  0.94897691098E+02 0.  0.
          5    1    3    3  502    0  0.22817648407E+02 -0.10362309721E+02 -0.42632232242E+02  0.49628642612E+02  0.41800000000E+01 0.  1.
         -5    1    3    3    0  502  0.24906747028E+02 -0.10411335972E+03  0.71684632042E+02  0.12890343902E+03  0.41800000000E+01 0.  1.
        -11    1    4    4    0    0 -0.39304451958E+02  0.20377683415E+02 -0.10884450566E+02  0.45591240268E+02  0.00000000000E+00 0. -1.
         11    1    4    4    0    0 -0.84199434767E+01  0.94097986027E+02 -0.16075475926E+03  0.18646023450E+03  0.00000000000E+00 0.  1.
</event>
<event>
 8    1  0.7016814E-009  0.2371057E+03  0.7561462E-02  0.1121736E+00
         -4   -1    0    0    0  501 -0.00000000000E+00  0.00000000000E+00  0.29889144072E+03  0.29889144072E+03  0.00000000000E+00 0.  1.
          4   -1    0    0  501    0  0.00000000000E+00 -0.00000000000E+00 -0.24191246446E+03  0.24191246446E+03  0.00000000000E+00 0. -1.
         25    2    1    2    0    0 -0.19760230912E+03 -0.98154816681E+02  0.13733352045E+03  0.28842405246E+03  0.12508755969E+03 0.  0.
         23    2    1    2    0    0  0.19760230912E+03  0.98154816681E+02 -0.80354544197E+02  0.25237985272E+03  0.92507819550E+02 0.  0.
          5    1    3    3  502    0 -0.16372562656E+03 -0.12828793410E+03  0.11031853856E+03  0.23548147948E+03  0.41800000000E+01 0.  1.
         -5    1    3    3    0  502 -0.33876682563E+02  0.30133117421E+02  0.27014981889E+02  0.52942572977E+02  0.41800000000E+01 0.  1.
        -11    1    4    4    0    0  0.16039715109E+03  0.79483701915E+02 -0.21508085964E+02  0.18029837134E+03  0.00000000000E+00 0.  1.
         11    1    4    4    0    0  0.37205158034E+02  0.18671114766E+02 -0.58846458232E+02  0.72081481376E+02  0.00000000000E+00 0. -1.
</event>
<event>
 8    1  0.7016814E-009  0.1282903E+03  0.7561462E-02  0.1230015E+00
          2   -1    0    0  501    0  0.00000000000E+00  0.00000000000E+00  0.12100096197E+03  0.12100096197E+03  0.00000000000E+00 0. -1.
         -2   -1    0    0    0  501 -0.00000000000E+00 -0.00000000000E+00 -0.13992010448E+03  0.13992010448E+03  0.00000000000E+00 0.  1.
         25    2    1    2    0    0  0.36897380136E+02 -0.57315777783E+02  0.82986971229E+01  0.14269656338E+03  0.12508767238E+03 0.  0.
         23    2    1    2    0    0 -0.36897380136E+02  0.57315777783E+02 -0.27217839635E+02  0.11822450307E+03  0.92680673753E+02 0.  0.
          5    1    3    3  502    0 -0.38623130397E+02 -0.53424079888E+02 -0.29921863748E+01  0.66123400494E+02  0.41800000000E+01 0.  1.
         -5    1    3    3    0  502  0.75520510533E+02 -0.38916978952E+01  0.11290883498E+02  0.76573162883E+02  0.41800000000E+01 0.  1.
        -11    1    4    4    0    0 -0.68086352406E+02  0.42476809099E+02 -0.22648052230E+02  0.83384440785E+02  0.00000000000E+00 0.  1.
         11    1    4    4    0    0  0.31188972270E+02  0.14838968685E+02 -0.45697874055E+01  0.34840062282E+02  0.00000000000E+00 0. -1.
</event>
<event>
 8    1  0.7016814E-009  0.1126263E+03  0.7561462E-02  0.1255782E+00
         -1   -1    0    0    0  501 -0.00000000000E+00  0.00000000000E+00  0.70656059304E+02  0.70656059304E+02  0.00000000000E+00 0.  1.
          1   -1    0    0  501    0  0.00000000000E+00 -0.00000000000E+00 -0.23330852454E+03  0.23330852454E+03  0.00000000000E+00 0. -1.
         25    2    1    2    0    0 -0.17126371643E+02  0.67330784352E+02 -0.82260273733E+02  0.16504597048E+03  0.12508666040E+03 0.  0.
         23    2    1    2    0    0  0.17126371643E+02 -0.67330784352E+02 -0.80392191505E+02  0.13891861336E+03  0.89491505502E+02 0.  0.
          5    1    3    3  502    0 -0.41164315868E+02  0.30771784452E+00  0.15367465833E+02  0.44138724464E+02  0.41800000000E+01 0.  1.
         -5    1    3    3    0  502  0.24037944225E+02  0.67023066508E+02 -0.97627739567E+02  0.12090724602E+03  0.41800000000E+01 0.  1.
        -11    1    4    4    0    0  0.34343658616E+02  0.80108727244E+01 -0.18004269244E+02  0.39595639658E+02  0.00000000000E+00 0.  1.
         11    1    4    4    0    0 -0.17217286973E+02 -0.75341657077E+02 -0.62387922261E+02  0.99322973706E+02  0.00000000000E+00 0. -1.
</event>
<event>
 8    1  0.7016814E-009  0.2334803E+03  0.7561462E-02  0.1124214E+00
         -1   -1    0    0    0  501 -0.00000000000E+00  0.00000000000E+00  0.74922678310E+02  0.74922678310E+02  0.00000000000E+00 0.  1.
          1   -1    0    0  501    0  0.00000000000E+00 -0.00000000000E+00 -0.91269441910E+03  0.91269441910E+03  0.00000000000E+00 0. -1.
         25    2    1    2    0    0  0.19906599490E+03  0.95601450842E+02 -0.26536966307E+03  0.36719937301E+03  0.12508962281E+03 0.  0.
         23    2    1    2    0    0 -0.19906599490E+03 -0.95601450842E+02 -0.57240207772E+03  0.62041772440E+03  0.92233976581E+02 0.  0.
          5    1    3    3  502    0  0.11575931213E+03  0.10808550127E+03 -0.11853222186E+03  0.19786372570E+03  0.41800000000E+01 0.  1.
         -5    1    3    3    0  502  0.83306682773E+02 -0.12484050428E+02 -0.14683744121E+03  0.16933564731E+03  0.41800000000E+01 0.  1.
        -11    1    4    4    0    0 -0.15299537577E+03 -0.54387520104E+02 -0.49735823067E+03  0.52319288696E+03  0.00000000000E+00 0. -1.
         11    1    4    4    0    0 -0.46070619136E+02 -0.41213930737E+02 -0.75043847048E+02  0.97224837434E+02  0.00000000000E+00 0.  1.
</event>
<event>
 8    1  0.7016814E-009  0.1278143E+03  0.7561462E-02  0.1230735E+00
         -2   -1    0    0    0  501 -0.00000000000E+00  0.00000000000E+00  0.26960389259E+03  0.26960389259E+03  0.00000000000E+00 0. -1.
          2   -1    0    0  501    0  0.00000000000E+00 -0.00000000000E+00 -0.63238765252E+02  0.63238765252E+02  0.00000000000E+00 0.  1.
         25    2    1    2    0    0  0.27315517034E+02  0.71374012455E+02  0.12242892284E+03  0.19099063198E+03  0.12509273852E+03 0.  0.
         23    2    1    2    0    0 -0.27315517034E+02 -0.71374012455E+02  0.83936204501E+02  0.14185202587E+03  0.85066583873E+02 0.  0.
          5    1    3    3  502    0  0.47387236710E+02  0.99045359927E+02  0.77863363382E+02  0.13466888758E+03  0.41800000000E+01 0.  1.
         -5    1    3    3    0  502 -0.20071719677E+02 -0.27671347472E+02  0.44565559457E+02  0.56321744392E+02  0.41800000000E+01 0.  1.
        -11    1    4    4    0    0  0.25177494744E+02 -0.47254170455E+02  0.56695499787E+02  0.77982322119E+02  0.00000000000E+00 0. -1.
         11    1    4    4    0    0 -0.52493011777E+02 -0.24119842000E+02  0.27240704714E+02  0.63869703748E+02  0.00000000000E+00 0.  1.
</event>
<event>
 8    1  0.7016814E-009  0.1057318E+03  0.7561462E-02  0.1268684E+00
         -2   -1    0    0    0  501 -0.00000000000E+00  0.00000000000E+00  0.61602358842E+02  0.61602358842E+02  0.00000000000E+00 0.  1.
          2   -1    0    0  501    0  0.00000000000E+00 -0.00000000000E+00 -0.26165916627E+03  0.26165916627E+03  0.00000000000E+00 0. -1.
         25    2    1    2    0    0 -0.25599775931E+02  0.25599248775E+01 -0.19041019272E+03  0.22926710862E+03  0.12508182866E+03 0.  0.
         23    2    1    2    0    0  0.25599775931E+02 -0.25599248775E+01 -0.96466147074E+01  0.93994416492E+02  0.89888772453E+02 0.  0.
          5    1    3    3  502    0 -0.66222519215E+02  0.27135893239E+02 -0.71903730048E+02  0.10153520349E+03  0.41800000000E+01 0.  1.
         -5    1    3    3    0  502  0.40622743284E+02 -0.24575968362E+02 -0.11850646268E+03  0.12773190513E+03  0.41800000000E+01 0.  1.
        -11    1    4    4    0    0  0.33818611941E+02 -0.40803494809E+02 -0.13498400465E+02  0.54688486150E+02  0.00000000000E+00 0.  1.
         11    1    4    4    0    0 -0.82188360100E+01  0.38243569932E+02  0.38517857579E+01  0.39305930341E+02  0.00000000000E+00 0. -1.
</event>
<event>
 8    1  0.7016814E-009  0.1271907E+03  0.7561462E-02  0.1231685E+00
          3   -1    0    0  501    0  0.00000000000E+00  0.00000000000E+00  0.61353805070E+02  0.61353805070E+02  0.00000000000E+00 0. -1.
         -3   -1    0    0    0  501 -0.00000000000E+00 -0.00000000000E+00 -0.26479669079E+03  0.26479669079E+03  0.00000000000E+00 0.  1.
         25    2    1    2    0    0  0.67355961045E+02  0.57258590914E+01 -0.11606685214E+03  0.18354566735E+03  0.12509151405E+03 0.  0.
         23    2    1    2    0    0 -0.67355961045E+02 -0.57258590914E+01 -0.87376033584E+02  0.14260482851E+03  0.90177352582E+02 0.  0.
          5    1    3    3  502    0 -0.30360489502E+02  0.28403866569E+02 -0.34596479612E+02  0.54248758147E+02  0.41800000000E+01 0. -1.
         -5    1    3    3    0  502  0.97716450547E+02 -0.22678007478E+02 -0.81470372528E+02  0.12929690921E+03  0.41800000000E+01 0. -1.
        -11    1    4    4    0    0 -0.60746663507E+02  0.35556407479E+02 -0.61243050394E+02  0.93301267203E+02  0.00000000000E+00 0.  1.
         11    1    4    4    0    0 -0.66092975379E+01 -0.41282266570E+02 -0.26132983190E+02  0.49303561307E+02  0.00000000000E+00 0. -1.
</event>
<event>
 8    1  0.7016814E-009  0.1498943E+03  0.7561462E-02  0.1200603E+00
          2   -1    0    0  501    0  0.00000000000E+00  0.00000000000E+00  0.18692840726E+03  0.18692840726E+03  0.00000000000E+00 0. -1.
         -2   -1    0    0    0  501 -0.00000000000E+00 -0.00000000000E+00 -0.14460923927E+03  0.14460923927E+03  0.00000000000E+00 0.  1.
         25    2    1    2    0    0  0.70894720995E+02  0.98159242499E+02  0.11326913880E+01  0.17409998272E+03  0.12509285607E+03 0.  0.
         23    2    1    2    0    0 -0.70894720995E+02 -0.98159242499E+02  0.41186476605E+02  0.15743766382E+03  0.91809551682E+02 0.  0.
          5    1    3    3  502    0 -0.17181630243E+02  0.10225738047E+01  0.34458903787E+02  0.38744580591E+02  0.41800000000E+01 0.  1.
         -5    1    3    3    0  502  0.88076351238E+02  0.97136668694E+02 -0.33326212399E+02  0.13535540213E+03  0.41800000000E+01 0.  1.
        -11    1    4    4    0    0 -0.91825965737E+02 -0.89527476348E+02  0.28108333452E+02  0.13129072859E+03  0.00000000000E+00 0. -1.
         11    1    4    4    0    0  0.20931244742E+02 -0.86317661512E+01  0.13078143154E+02  0.26146935225E+02  0.00000000000E+00 0.  1.
</event>
<event>
 8    1  0.7016814E-009  0.1567048E+03  0.7561462E-02  0.1192468E+00
          2   -1    0    0  501    0  0.00000000000E+00  0.00000000000E+00  0.21515320874E+03  0.21515320874E+03  0.00000000000E+00 0. -1.
         -2   -1    0    0    0  501 -0.00000000000E+00 -0.00000000000E+00 -0.15361158166E+03  0.15361158166E+03  0.00000000000E+00 0.  1.
         25    2    1    2    0    0  0.12715904446E+03  0.29443640166E+02 -0.36782019599E+02  0.18448926047E+03  0.12508804791E+03 0.  0.
         23    2    1    2    0    0 -0.12715904446E+03 -0.29443640166E+02  0.98323646680E+02  0.18427552993E+03  0.85167957008E+02 0.  0.
          5    1    3    3  502    0  0.12830971868E+03  0.52319884043E+02  0.26966426708E+01  0.13865604370E+03  0.41800000000E+01 0.  1.
         -5    1    3    3    0  502 -0.11506742141E+01 -0.22876243877E+02 -0.39478662270E+02  0.45833216773E+02  0.41800000000E+01 0. -1.
        -11    1    4    4    0    0 -0.47138054037E+01 -0.28663632464E+02  0.37840161083E+02  0.47704314042E+02  0.00000000000E+00 0. -1.
         11    1    4    4    0    0 -0.12244523906E+03 -0.78000770182E+00  0.60483485597E+02  0.13657121589E+03  0.00000000000E+00 0.  1.
</event>
<event>
 8    1  0.7016814E-009  0.1063842E+03  0.7561462E-02  0.1267416E+00
         -1   -1    0    0    0  501 -0.00000000000E+00  0.00000000000E+00  0.38725288744E+03  0.38725288744E+03  0.00000000000E+00 0.  1.
          1   -1    0    0  501    0  0.00000000000E+00 -0.00000000000E+00 -0.50705973141E+02  0.50705973141E+02  0.00000000000E+00 0. -1.
         25    2    1    2    0    0 -0.16245204406E+02  0.31806340924E+02  0.58020367076E+02  0.14244540407E+03  0.12509508446E+03 0.  0.
         23    2    1    2    0    0  0.16245204406E+02 -0.31806340924E+02  0.27852654722E+03  0.29551345651E+03  0.92063105960E+02 0.  0.
          5    1    3    3  502    0  0.32449026734E+02 -0.26930583013E+02  0.50111256615E+02  0.65626260574E+02  0.41800000000E+01 0.  1.
         -5    1    3    3    0  502 -0.48694231140E+02  0.58736923937E+02  0.79091104607E+01  0.76819143501E+02  0.41800000000E+01 0.  1.
        -11    1    4    4    0    0  0.14417164011E+02  0.29402068234E+02  0.57604506665E+02  0.66261719135E+02  0.00000000000E+00 0. -1.
         11    1    4    4    0    0  0.18280403949E+01 -0.61208409159E+02  0.22092204056E+03  0.22925173737E+03  0.00000000000E+00 0.  1.
</event>
<event>
 8    1  0.7016814E-009  0.8989795E+02  0.7561462E-02  0.1303099E+00
          1   -1    0    0  501    0  0.00000000000E+00  0.00000000000E+00  0.31536878597E+03  0.31536878597E+03  0.00000000000E+00 0. -1.
         -1   -1    0    0    0  501 -0.00000000000E+00 -0.00000000000E+00 -0.44326759509E+02  0.44326759509E+02  0.00000000000E+00 0.  1.
         25    2    1    2    0    0  0.38094844413E+02 -0.26007951802E+02  0.13355414846E+03  0.18871291118E+03  0.12509285170E+03 0.  0.
         23    2    1    2    0    0 -0.38094844413E+02  0.26007951802E+02  0.13748787800E+03  0.17098263431E+03  0.90578771843E+02 0.  0.
          5    1    3    3  502    0  0.46275981860E+02 -0.50435554512E+02  0.14485937585E+03  0.16027140365E+03  0.41800000000E+01 0.  1.
         -5    1    3    3    0  502 -0.81811374472E+01  0.24427602710E+02 -0.11305227389E+02  0.28441507527E+02  0.41800000000E+01 0.  1.
        -11    1    4    4    0    0 -0.26851507121E+02 -0.22682682001E+02  0.10657572655E+03  0.11222251551E+03  0.00000000000E+00 0. -1.
         11    1    4    4    0    0 -0.11243337291E+02  0.48690633803E+02  0.30912151455E+02  0.58760118798E+02  0.00000000000E+00 0.  1.
</event>
<event>
 8    1  0.7016814E-009  0.1674928E+03  0.7561462E-02  0.1180488E+00
         -2   -1    0    0    0  501 -0.00000000000E+00  0.00000000000E+00  0.95237979301E+02  0.95237979301E+02  0.00000000000E+00 0.  1.
          2   -1    0    0  501    0  0.00000000000E+00 -0.00000000000E+00 -0.39086326143E+03  0.39086326143E+03  0.00000000000E+00 0. -1.
         25    2    1    2    0    0 -0.12071605291E+03 -0.53336895720E+02 -0.44747187155E+02  0.18726431156E+03  0.12509365192E+03 0.  0.
         23    2    1    2    0    0  0.12071605291E+03  0.53336895720E+02 -0.25087809497E+03  0.29883692917E+03  0.94585949384E+02 0.  0.
          5    1    3    3  502    0 -0.61541143023E+02  0.37419353884E+02 -0.28763806615E+02  0.77668200060E+02  0.41800000000E+01 0.  1.
         -5    1    3    3    0  502 -0.59174909892E+02 -0.90756249603E+02 -0.15983380540E+02  0.10959611150E+03  0.41800000000E+01 0.  1.
        -11    1    4    4    0    0  0.22082425260E+02 -0.21334242877E+02 -0.19243809357E+02  0.36236826890E+02  0.00000000000E+00 0.  1.
         11    1    4    4    0    0  0.98633627655E+02  0.74671138596E+02 -0.23163428562E+03  0.26260010228E+03  0.00000000000E+00 0. -1.
</event>
<event>
 8    1  0.7016814E-009  0.1101482E+03  0.7561462E-02  0.1260296E+00
         -3   -1    0    0    0  501 -0.00000000000E+00  0.00000000000E+00  0.43703631653E+03  0.43703631653E+03  0.00000000000E+00 0.  1.
          3   -1    0    0  501    0  0.00000000000E+00 -0.00000000000E+00 -0.65270720697E+02  0.65270720697E+02  0.00000000000E+00 0. -1.
         25    2    1    2    0    0  0.65446582452E+02  0.23468381373E+02  0.36763037543E+03  0.39450414967E+03  0.12508961224E+03 0.  0.
         23    2    1    2    0    0 -0.65446582452E+02 -0.23468381373E+02  0.41352204056E+01  0.10780288756E+03  0.82282090635E+02 0.  0.
          5    1    3    3  502    0  0.75612535010E+02  0.57419120139E+02  0.32650385842E+03  0.34005360279E+03  0.41800000000E+01 0. -1.
         -5    1    3    3    0  502 -0.10165952558E+02 -0.33950738767E+02  0.41126517013E+02  0.54450546882E+02  0.41800000000E+01 0. -1.
        -11    1    4    4    0    0 -0.62232043874E+02  0.35818168664E+01  0.30935290428E+02  0.69589143483E+02  0.00000000000E+00 0.  1.
         11    1    4    4    0    0 -0.32145385782E+01 -0.27050198239E+02 -0.26800070023E+02  0.38213744076E+02  0.00000000000E+00 0. -1.
</event>
<event>
 8    1  0.7016814E-009  0.1723278E+03  0.7561462E-02  0.1175442E+00
         -2   -1    0    0    0  501 -0.00000000000E+00  0.00000000000E+00  0.30543145435E+02  0.30543145435E+02  0.00000000000E+00 0.  1.
          2   -1    0    0  501    0  0.00000000000E+00 -0.00000000000E+00 -0.10326699164E+04  0.10326699164E+04  0.00000000000E+00 0. -1.
         25    2    1    2    0    0  0.10886815927E+03  0.78144898497E+02 -0.40412795247E+03  0.44376364611E+03  0.12509144808E+03 0.  0.
         23    2    1    2    0    0 -0.10886815927E+03 -0.78144898497E+02 -0.59799881847E+03  0.61944941569E+03  0.90311075995E+02 0.  0.
          5    1    3    3  502    0  0.77892605280E+02  0.11239090524E+03 -0.30942858077E+03  0.33832305942E+03  0.41800000000E+01 0. -1.
         -5    1    3    3    0  502  0.30975553989E+02 -0.34246006740E+02 -0.94699371699E+02  0.10544058670E+03  0.41800000000E+01 0. -1.
        -11    1    4    4    0    0  0.35496435715E+01  0.15046997721E+02 -0.64613095486E+02  0.66436919090E+02  0.00000000000E+00 0.  1.
         11    1    4    4    0    0 -0.11241780284E+03 -0.93191896218E+02 -0.53338572298E+03  0.55301249660E+03  0.00000000000E+00 0. -1.
</event>
<event>
 8    1  0.7016814E-009  0.1209425E+03  0.7561462E-02  0.1241550E+00
          3   -1    0    0  501    0  0.00000000000E+00  0.00000000000E+00  0.26311768240E+03  0.26311768240E+03  0.00000000000E+00 0. -1.
         -3   -1    0    0    0  501 -0.00000000000E+00 -0.00000000000E+00 -0.11869143823E+03  0.11869143823E+03  0.00000000000E+00 0.  1.
         25    2    1    2    0    0  0.50576563216E+02 -0.73184612615E+02  0.19160465320E+03  0.24550707136E+03  0.12508957867E+03 0.  0.
         23    2    1    2    0    0 -0.50576563216E+02  0.73184612615E+02 -0.47178409026E+02  0.13630204927E+03  0.91861145692E+02 0.  0.
          5    1    3    3  502    0 -0.90740730316E+01  0.23996986166E+02  0.86680736103E+02  0.90494290194E+02  0.41800000000E+01 0. -1.
         -5    1    3    3    0  502  0.59650636248E+02 -0.97181598781E+02  0.10492391709E+03  0.15501278116E+03  0.41800000000E+01 0. -1.
        -11    1    4    4    0    0 -0.57188586456E+01  0.51760216364E+02 -0.65183140738E+02  0.83430612959E+02  0.00000000000E+00 0.  1.
         11    1    4    4    0    0 -0.44857704571E+02  0.21424396251E+02  0.18004731712E+02  0.52871436316E+02  0.00000000000E+00 0. -1.
</event>
<event>
 8    1  0.7016814E-009  0.1487509E+03  0.7561462E-02  0.1202016E+00
          1   -1    0    0  501    0  0.00000000000E+00  0.00000000000E+00  0.22462811151E+02  0.22462811151E+02  0.00000000000E+00 0. -1.
         -1   -1    0    0    0  501 -0.00000000000E+00 -0.00000000000E+00 -0.10347329031E+04  0.10347329031E+04  0.00000000000E+00 0.  1.
         25    2    1    2    0    0 -0.99159832711E+02  0.37623706927E+02 -0.61425712483E+03  0.63577146705E+03  0.12508128223E+03 0.  0.
         23    2    1    2    0    0  0.99159832711E+02 -0.37623706927E+02 -0.39801296711E+03  0.42142424719E+03  0.89083434979E+02 0.  0.
          5    1    3    3  502    0  0.61030777184E+01  0.52299627150E+02 -0.13756197198E+03  0.14735422319E+03  0.41800000000E+01 0. -1.
         -5    1    3    3    0  502 -0.10526291043E+03 -0.14675920224E+02 -0.47669515285E+03  0.48841724385E+03  0.41800000000E+01 0. -1.
        -11    1    4    4    0    0  0.27006520444E+02  0.29341590918E+02 -0.10502912696E+03  0.11234499817E+03  0.00000000000E+00 0. -1.
         11    1    4    4    0    0  0.72153312268E+02 -0.66965297844E+02 -0.29298384015E+03  0.30907924902E+03  0.00000000000E+00 0.  1.
</event>
<event>
 8    1  0.7016814E-009  0.6098140E+02  0.7561462E-02  0.1393759E+00
          2   -1    0    0  501    0  0.00000000000E+00  0.00000000000E+00  0.97357403256E+03  0.97357403256E+03  0.00000000000E+00 0. -1.
         -2   -1    0    0    0  501 -0.00000000000E+00 -0.00000000000E+00 -0.13568676531E+02  0.13568676531E+02  0.00000000000E+00 0.  1.
         25    2    1    2    0    0 -0.12188838069E+02 -0.13279949853E+02  0.70172094426E+03  0.71301100469E+03  0.12508990508E+03 0.  0.
         23    2    1    2    0    0  0.12188838069E+02  0.13279949853E+02  0.25828441177E+03  0.27413170440E+03  0.90069024384E+02 0.  0.
          5    1    3    3  502    0 -0.26383022715E+02 -0.11747344664E+01  0.26929620151E+02  0.37948922647E+02  0.41800000000E+01 0.  1.
         -5    1    3    3    0  502  0.14194184645E+02 -0.12105215386E+02  0.67479132411E+03  0.67506208204E+03  0.41800000000E+01 0.  1.
        -11    1    4    4    0    0  0.25202172370E+02 -0.25107287176E+02  0.46734001113E+02  0.58733229279E+02  0.00000000000E+00 0.  1.
         11    1    4    4    0    0 -0.13013334301E+02  0.38387237029E+02  0.21155041065E+03  0.21539847512E+03  0.00000000000E+00 0. -1.
</event>
<event>
 8    1  0.7016814E-009  0.2852884E+03  0.7561462E-02  0.1092835E+00
         -2   -1    0    0    0  501 -0.00000000000E+00  0.00000000000E+00  0.15063893437E+04  0.15063893437E+04  0.00000000000E+00 0.  1.
          2   -1    0    0  501    0  0.00000000000E+00 -0.00000000000E+00 -0.74647698129E+02  0.74647698129E+02  0.00000000000E+00 0. -1.
         25    2    1    2    0    0  0.22659133400E+03 -0.16955009520E+03  0.39207496092E+03  0.49946186366E+03  0.12509400803E+03 0.  0.
         23    2    1    2    0    0 -0.22659133400E+03  0.16955009520E+03  0.10396666846E+04  0.10815751782E+04  0.93846595164E+02 0.  0.
          5    1    3    3  502    0  0.18757189425E+03 -0.11597997566E+03  0.36758318265E+03  0.42868337830E+03  0.41800000000E+01 0. -1.
         -5    1    3    3    0  502  0.39019439754E+02 -0.53570119547E+02  0.24491778269E+02  0.70778485360E+02  0.41800000000E+01 0. -1.
        -11    1    4    4    0    0 -0.17872914976E+03  0.12404756187E+03  0.91486697996E+03  0.94037944341E+03  0.00000000000E+00 0. -1.
         11    1    4    4    0    0 -0.47862184248E+02  0.45502533334E+02  0.12479970469E+03  0.14119573475E+03  0.00000000000E+00 0.  1.
</event>
<event>
 8    1  0.7016814E-009  0.1013219E+03  0.7561462E-02  0.1277540E+00
          2   -1    0    0  501    0  0.00000000000E+00  0.00000000000E+00  0.30302457560E+03  0.30302457560E+03  0.00000000000E+00 0. -1.
         -2   -1    0    0    0  501 -0.00000000000E+00 -0.00000000000E+00 -0.42371392269E+02  0.42371392269E+02  0.00000000000E+00 0.  1.
         25    2    1    2    0    0 -0.30666430704E+02 -0.57223668669E+01  0.16557711908E+03  0.20984460704E+03  0.12508317748E+03 0.  0.
         23    2    1    2    0    0  0.30666430704E+02  0.57223668669E+01  0.95076064254E+02  0.13555136083E+03  0.91441445602E+02 0.  0.
          5    1    3    3  502    0  0.34381407106E+02  0.17510872417E+02  0.10771355549E+02  0.40276622348E+02  0.41800000000E+01 0. -1.
         -5    1    3    3    0  502 -0.65047837810E+02 -0.23233239284E+02  0.15480576353E+03  0.16956798469E+03  0.41800000000E+01 0. -1.
        -11    1    4    4    0    0  0.28010466676E+02  0.46223094328E+02  0.40504426268E+02  0.67540870885E+02  0.00000000000E+00 0.  1.
         11    1    4    4    0    0  0.26559640289E+01 -0.40500727461E+02  0.54571637987E+02  0.68010489944E+02  0.00000000000E+00 0. -1.
</event>
<event>
 8    1  0.7016814E-009  0.1780294E+03  0.7561462E-02  0.1169724E+00
         -2   -1    0    0    0  501 -0.00000000000E+00  0.00000000000E+00  0.71009171353E+02  0.71009171353E+02  0.00000000000E+00 0. -1.
          2   -1    0    0  501    0  0.00000000000E+00 -0.00000000000E+00 -0.59759025487E+03  0.59759025487E+03  0.00000000000E+00 0.  1.
         25    2    1    2    0    0 -0.13562124563E+03 -0.67110490022E+02 -0.13302043354E+03  0.23714593803E+03  0.12508724974E+03 0.  0.
         23    2    1    2    0    0  0.13562124563E+03  0.67110490022E+02 -0.39356064998E+03  0.43145348819E+03  0.91461396910E+02 0.  0.
          5    1    3    3  502    0  0.20828695309E+02 -0.16187127397E+02 -0.39995488250E+02  0.48093337605E+02  0.41800000000E+01 0. -1.
         -5    1    3    3    0  502 -0.15644994094E+03 -0.50923362625E+02 -0.93024945290E+02  0.18905260043E+03  0.41800000000E+01 0. -1.
        -11    1    4    4    0    0  0.12127271335E+03  0.29924341811E+02 -0.35359519939E+03  0.37500946957E+03  0.00000000000E+00 0.  1.
         11    1    4    4    0    0  0.14348532280E+02  0.37186148211E+02 -0.39965450587E+02  0.56444018620E+02  0.00000000000E+00 0. -1.
</event>
<event>
 8    1  0.7016814E-009  0.9776237E+02  0.7561462E-02  0.1285073E+00
          1   -1    0    0  501    0  0.00000000000E+00  0.00000000000E+00  0.73104606718E+02  0.73104606718E+02  0.00000000000E+00 0. -1.
         -1   -1    0    0    0  501 -0.00000000000E+00 -0.00000000000E+00 -0.18174931296E+03  0.18174931296E+03  0.00000000000E+00 0.  1.
         25    2    1    2    0    0  0.14464309476E+02  0.20317692898E+01 -0.45086396212E+02  0.13377568741E+03  0.12509918898E+03 0.  0.
         23    2    1    2    0    0 -0.14464309476E+02 -0.20317692898E+01 -0.63558310028E+02  0.12107823227E+03  0.10201438732E+03 0.  0.
          5    1    3    3  502    0 -0.39135728132E+02 -0.41032260104E+02 -0.16565724990E+02  0.59221172144E+02  0.41800000000E+01 0. -1.
         -5    1    3    3    0  502  0.53600037608E+02  0.43064029394E+02 -0.28520671222E+02  0.74554515264E+02  0.41800000000E+01 0. -1.
        -11    1    4    4    0    0  0.23218201755E+02  0.15811326091E+02 -0.73095964594E+02  0.78307745246E+02  0.00000000000E+00 0.  1.
         11    1    4    4    0    0 -0.37682511231E+02 -0.17843095381E+02  0.95376545667E+01  0.42770487022E+02  0.00000000000E+00 0. -1.
</event>
<event>
 8    1  0.7016814E-009  0.1574151E+03  0.7561462E-02  0.1191646E+00
         -2   -1    0    0    0  501 -0.00000000000E+00  0.00000000000E+00  0.46922646662E+02  0.46922646662E+02  0.00000000000E+00 0.  1.
          2   -1    0    0  501    0  0.00000000000E+00 -0.00000000000E+00 -0.72020811688E+03  0.72020811688E+03  0.00000000000E+00 0. -1.
         25    2    1    2    0    0 -0.11875243788E+03 -0.72790180548E+02 -0.45829956565E+03  0.49506205393E+03  0.12508954182E+03 0.  0.
         23    2    1    2    0    0  0.11875243788E+03  0.72790180548E+02 -0.21498590457E+03  0.27206870962E+03  0.91661833408E+02 0.  0.
          5    1    3    3  502    0 -0.66952436852E+02  0.18485599884E+02 -0.27631917108E+03  0.28494578942E+03  0.41800000000E+01 0. -1.
         -5    1    3    3    0  502 -0.51800001027E+02 -0.91275780432E+02 -0.18198039457E+03  0.21011626450E+03  0.41800000000E+01 0. -1.
        -11    1    4    4    0    0  0.51666492195E+02  0.41097109209E+02 -0.17658997657E+03  0.18852697055E+03  0.00000000000E+00 0. -1.
         11    1    4    4    0    0  0.67085945684E+02  0.31693071340E+02 -0.38395928000E+02  0.83541739067E+02  0.00000000000E+00 0.  1.
</event>
<event>
 8    1  0.7016814E-009  0.1121816E+03  0.7561462E-02  0.1256582E+00
         -2   -1    0    0    0  501 -0.00000000000E+00  0.00000000000E+00  0.10519788785E+03  0.10519788785E+03  0.00000000000E+00 0.  1.
          2   -1    0    0  501    0  0.00000000000E+00 -0.00000000000E+00 -0.19254314525E+03  0.19254314525E+03  0.00000000000E+00 0. -1.
         25    2    1    2    0    0 -0.78567985160E+02  0.69273867714E+01  0.21752678793E+01  0.14790250823E+03  0.12509797429E+03 0.  0.
         23    2    1    2    0    0  0.78567985160E+02 -0.69273867714E+01 -0.89520525285E+02  0.14983852487E+03  0.90646247075E+02 0.  0.
          5    1    3    3  502    0  0.17590807330E+02  0.18187783188E+01  0.40334172749E+02  0.44238697409E+02  0.41800000000E+01 0. -1.
         -5    1    3    3    0  502 -0.96158792490E+02  0.51086084526E+01 -0.38158904870E+02  0.10366381082E+03  0.41800000000E+01 0. -1.
        -11    1    4    4    0    0  0.45574514268E+02  0.34272878084E+02 -0.15803018297E+02  0.59172644948E+02  0.00000000000E+00 0.  1.
         11    1    4    4    0    0  0.32993470892E+02 -0.41200264855E+02 -0.73717506988E+02  0.90665879923E+02  0.00000000000E+00 0. -1.
</event>
<event>
 8    1  0.7016814E-009  0.1247013E+03  0.7561462E-02  0.1235537E+00
         -2   -1    0    0    0  501 -0.00000000000E+00  0.00000000000E+00  0.34009922824E+02  0.34009922824E+02  0.00000000000E+00 0. -1.
          2   -1    0    0  501    0  0.00000000000E+00 -0.00000000000E+00 -0.63912054572E+03  0.63912054572E+03  0.00000000000E+00 0.  1.
         25    2    1    2    0    0  0.91135057767E+02 -0.39178179572E+02 -0.27084204162E+03  0.31439386130E+03  0.12509020746E+03 0.  0.
         23    2    1    2    0    0 -0.91135057767E+02  0.39178179572E+02 -0.33426858127E+03  0.35873660724E+03  0.84356033831E+02 0.  0.
          5    1    3    3  502    0  0.36430493625E+02 -0.59810255437E+02 -0.50638948265E+02  0.86522962285E+02  0.41800000000E+01 0.  1.
         -5    1    3    3    0  502  0.54704564142E+02  0.20632075865E+02 -0.22020309336E+03  0.22787089901E+03  0.41800000000E+01 0.  1.
        -11    1    4    4    0    0 -0.89869872930E+00  0.29906031777E+02 -0.35117788763E+02  0.46134991965E+02  0.00000000000E+00 0. -1.
         11    1    4    4    0    0 -0.90236359038E+02  0.92721477952E+01 -0.29915079251E+03  0.31260161528E+03  0.00000000000E+00 0.  1.
</event>
<event>
 8    1  0.7016814E-009  0.8625051E+02  0.7561462E-02  0.1312194E+00
         -2   -1    0    0    0  501 -0.00000000000E+00  0.00000000000E+00  0.12224088465E+03  0.12224088465E+03  0.00000000000E+00 0.  1.
          2   -1    0    0  501    0  0.00000000000E+00 -0.00000000000E+00 -0.13739862047E+03  0.13739862047E+03  0.00000000000E+00 0. -1.
         25    2    1    2    0    0  0.68129591262E+02  0.14685268772E+02  0.66116367016E+00  0.14320002524E+03  0.12509401172E+03 0.  0.
         23    2    1    2    0    0 -0.68129591262E+02 -0.14685268772E+02 -0.15818899495E+02  0.11643947988E+03  0.91927235182E+02 0.  0.
          5    1    3    3  502    0  0.11751537427E+02 -0.45679098368E+01  0.58543501172E+02  0.60031478090E+02  0.41800000000E+01 0.  1.
         -5    1    3    3    0  502  0.56378053836E+02  0.19253178609E+02 -0.57882337502E+02  0.83168547153E+02  0.41800000000E+01 0.  1.
        -11    1    4    4    0    0  0.81119373848E+01 -0.21472460608E+02 -0.30831974188E+02  0.38438011460E+02  0.00000000000E+00 0. -1.
         11    1    4    4    0    0 -0.76241528647E+02  0.67871918358E+01  0.15013074692E+02  0.78001468417E+02  0.00000000000E+00 0.  1.
</event>
<event>
 8    1  0.7016814E-009  0.1125900E+03  0.7561462E-02  0.1255847E+00
         -2   -1    0    0    0  501 -0.00000000000E+00  0.00000000000E+00  0.95817209236E+02  0.95817209236E+02  0.00000000000E+00 0.  1.
          2   -1    0    0  501    0  0.00000000000E+00 -0.00000000000E+00 -0.17615503182E+03  0.17615503182E+03  0.00000000000E+00 0. -1.
         25    2    1    2    0    0 -0.26606753486E+02  0.22120751161E+02  0.17568421327E+02  0.13097707396E+03  0.12509635291E+03 0.  0.
         23    2    1    2    0    0  0.26606753486E+02 -0.22120751161E+02 -0.97906243909E+02  0.14099516710E+03  0.95376923756E+02 0.  0.
          5    1    3    3  502    0 -0.74513512857E+02  0.32204756266E+01 -0.44035229085E+01  0.74829796709E+02  0.41800000000E+01 0.  1.
         -5    1    3    3    0  502  0.47906759371E+02  0.18900275535E+02  0.21971944236E+02  0.56147277247E+02  0.41800000000E+01 0.  1.
        -11    1    4    4    0    0  0.58870919172E+02 -0.29296716776E+02 -0.49171050281E+02  0.82108921097E+02  0.00000000000E+00 0.  1.
         11    1    4    4    0    0 -0.32264165686E+02  0.71759656146E+01 -0.48735193628E+02  0.58886245999E+02  0.00000000000E+00 0. -1.
</event>
<event>
 8    1  0.7016814E-009  0.2105129E+03  0.7561462E-02  0.1141160E+00
          2   -1    0    0  501    0  0.00000000000E+00  0.00000000000E+00  0.13556426417E+04  0.13556426417E+04  0.00000000000E+00 0. -1.
         -2   -1    0    0    0  501 -0.00000000000E+00 -0.00000000000E+00 -0.42678408315E+02  0.42678408315E+02  0.00000000000E+00 0.  1.
         25    2    1    2    0    0 -0.11095309515E+03  0.16222439605E+03  0.92473358029E+03  0.95362844418E+03  0.12509065125E+03 0.  0.
         23    2    1    2    0    0  0.11095309515E+03 -0.16222439605E+03  0.38823065313E+03  0.44469260587E+03  0.91657676660E+02 0.  0.
          5    1    3    3  502    0 -0.86064834997E+02  0.76980309351E+02  0.28165789750E+03  0.30443680375E+03  0.41800000000E+01 0.  1.
         -5    1    3    3    0  502 -0.24888260157E+02  0.85244086697E+02  0.64307568279E+03  0.64919164043E+03  0.41800000000E+01 0.  1.
        -11    1    4    4    0    0  0.98337266825E+02 -0.17364881950E+03  0.35119183709E+03  0.40393048536E+03  0.00000000000E+00 0.  1.
         11    1    4    4    0    0  0.12615828329E+02  0.11424423449E+02  0.37038816035E+02  0.40762120514E+02  0.00000000000E+00 0. -1.
</event>
<event>
 8    1  0.7016814E-009  0.2329407E+03  0.7561462E-02  0.1124587E+00
         -1   -1    0    0    0  501 -0.00000000000E+00  0.00000000000E+00  0.77535476936E+02  0.77535476936E+02  0.00000000000E+00 0.  1.
          1   -1    0    0  501    0  0.00000000000E+00 -0.00000000000E+00 -0.95345627784E+03  0.95345627784E+03  0.00000000000E+00 0. -1.
         25    2    1    2    0    0  0.22931368245E+03 -0.17637315293E+02 -0.26876850109E+03  0.37520770837E+03  0.12509387432E+03 0.  0.
         23    2    1    2    0    0 -0.22931368245E+03  0.17637315293E+02 -0.60715229981E+03  0.65578404640E+03  0.92319881384E+02 0.  0.
          5    1    3    3  502    0  0.32695529605E+02 -0.44515908939E+01 -0.12991558228E+03  0.13410572410E+03  0.41800000000E+01 0. -1.
         -5    1    3    3    0  502  0.19661815285E+03 -0.13185724399E+02 -0.13885291881E+03  0.24110198427E+03  0.41800000000E+01 0. -1.
        -11    1    4    4    0    0 -0.10220275643E+03 -0.17380621831E+02 -0.16937507558E+03  0.19858349797E+03  0.00000000000E+00 0.  1.
         11    1    4    4    0    0 -0.12711092603E+03  0.35017937124E+02 -0.43777722423E+03  0.45720054843E+03  0.00000000000E+00 0. -1.
</event>
<event>
 8    1  0.7016814E-009  0.9953240E+02  0.7561462E-02  0.1281282E+00
          1   -1    0    0  501    0  0.00000000000E+00  0.00000000000E+00  0.23651641663E+02  0.23651641663E+02  0.00000000000E+00 0. -1.
         -1   -1    0    0    0  501 -0.00000000000E+00 -0.00000000000E+00 -0.60590654649E+03  0.60590654649E+03  0.00000000000E+00 0.  1.
         25    2    1    2    0    0 -0.33108613218E+02  0.26563052908E+02 -0.40423188746E+03  0.42526789548E+03  0.12509031953E+03 0.  0.
         23    2    1    2    0    0  0.33108613218E+02 -0.26563052908E+02 -0.17802301737E+03  0.20429029267E+03  0.90777491249E+02 0.  0.
          5    1    3    3  502    0  0.22063403043E+02 -0.39192930443E+02 -0.16489857409E+03  0.17097336543E+03  0.41800000000E+01 0.  1.
         -5    1    3    3    0  502 -0.55172016262E+02  0.65755983351E+02 -0.23933331337E+03  0.25429453005E+03  0.41800000000E+01 0.  1.
        -11    1    4    4    0    0  0.39923369250E+02  0.62456145392E+00 -0.17071824230E+03  0.17532536538E+03  0.00000000000E+00 0.  1.
         11    1    4    4    0    0 -0.68147560322E+01 -0.27187614362E+02 -0.73047750674E+01  0.28964927296E+02  0.00000000000E+00 0. -1.
</event>
<event>
 8    1  0.7016814E-009  0.1438106E+03  0.7561462E-02  0.1208292E+00
         -1   -1    0    0    0  501 -0.00000000000E+00  0.00000000000E+00  0.13457451309E+03  0.13457451309E+03  0.00000000000E+00 0.  1.
          1   -1    0    0  501    0  0.00000000000E+00 -0.00000000000E+00 -0.22961759241E+03  0.22961759241E+03  0.00000000000E+00 0. -1.
         25    2    1    2    0    0 -0.93502197913E+02  0.66534046786E+02 -0.11985996204E+03  0.20780510148E+03  0.12508840595E+03 0.  0.
         23    2    1    2    0    0  0.93502197913E+02 -0.66534046786E+02  0.24816882722E+02  0.15638700402E+03  0.10330332503E+03 0.  0.
          5    1    3    3  502    0 -0.17422420690E+02 -0.37048445072E+02 -0.27972578080E+02  0.49760079878E+02  0.41800000000E+01 0. -1.
         -5    1    3    3    0  502 -0.76079777223E+02  0.10358249186E+03 -0.91887383960E+02  0.15804502160E+03  0.41800000000E+01 0. -1.
        -11    1    4    4    0    0  0.60582501853E+02 -0.26705982802E+02  0.63579328992E+02  0.91792048257E+02  0.00000000000E+00 0.  1.
         11    1    4    4    0    0  0.32919696060E+02 -0.39828063984E+02 -0.38762446270E+02  0.64594955765E+02  0.00000000000E+00 0. -1.
</event>
<event>
 8    1  0.7016814E-009  0.1191575E+03  0.7561462E-02  0.1244493E+00
         -2   -1    0    0    0  501 -0.00000000000E+00  0.00000000000E+00  0.98845644373E+02  0.98845644373E+02  0.00000000000E+00 0.  1.
          2   -1    0    0  501    0  0.00000000000E+00 -0.00000000000E+00 -0.21584601288E+03  0.21584601288E+03  0.00000000000E+00 0. -1.
         25    2    1    2    0    0 -0.62110402955E+02 -0.89436678513E+01 -0.15024639803E+03  0.20532581237E+03  0.12508804002E+03 0.  0.
         23    2    1    2    0    0  0.62110402955E+02  0.89436678513E+01  0.33246029530E+02  0.10936584488E+03  0.83173903335E+02 0.  0.
          5    1    3    3  502    0 -0.87569319825E+02 -0.38364141882E+02 -0.12954256926E+03  0.16105571336E+03  0.41800000000E+01 0. -1.
         -5    1    3    3    0  502  0.25458916870E+02  0.29420474031E+02 -0.20703828773E+02  0.44270099009E+02  0.41800000000E+01 0. -1.
        -11    1    4    4    0    0  0.64955803866E+02 -0.24871191540E+02  0.16315642895E+02  0.71442514146E+02  0.00000000000E+00 0. -1.
         11    1    4    4    0    0 -0.28454009105E+01  0.33814859391E+02  0.16930386636E+02  0.37923330730E+02  0.00000000000E+00 0.  1.
</event>
<event>
 8    1  0.7016814E-009  0.1365634E+03  0.7561462E-02  0.1218029E+00
          2   -1    0    0  501    0  0.00000000000E+00  0.00000000000E+00  0.23364409692E+03  0.23364409692E+03  0.00000000000E+00 0. -1.
         -2   -1    0    0    0  501 -0.00000000000E+00 -0.00000000000E+00 -0.12466430992E+03  0.12466430992E+03  0.00000000000E+00 0.  1.
         25    2    1    2    0    0 -0.12327582967E+03  0.17189633096E+02  0.14311734992E+02  0.17703971083E+03  0.12508325142E+03 0.  0.
         23    2    1    2    0    0  0.12327582967E+03 -0.17189633096E+02  0.94668052003E+02  0.18126869601E+03  0.91672713595E+02 0.  0.
          5    1    3    3  502    0 -0.95023215683E+02  0.21064605323E+02 -0.47838509814E+02  0.10853167527E+03  0.41800000000E+01 0.  1.
         -5    1    3    3    0  502 -0.28252613984E+02 -0.38749722268E+01  0.62150244807E+02  0.68508035559E+02  0.41800000000E+01 0.  1.
        -11    1    4    4    0    0  0.37419544728E+01 -0.26711910543E+02  0.42864315577E+02  0.50644623979E+02  0.00000000000E+00 0.  1.
         11    1    4    4    0    0  0.11953387519E+03  0.95222774474E+01  0.51803736426E+02  0.13062407203E+03  0.00000000000E+00 0. -1.
</event>
<event>
 8    1  0.7016814E-009  0.1954593E+03  0.7561462E-02  0.1153628E+00
         -2   -1    0    0    0  501 -0.00000000000E+00  0.00000000000E+00  0.27488099160E+03  0.27488099160E+03  0.00000000000E+00 0. -1.
          2   -1    0    0  501    0  0.00000000000E+00 -0.00000000000E+00 -0.33610127869E+03  0.33610127869E+03  0.00000000000E+00 0.  1.
         25    2    1    2    0    0  0.31883373031E+02  0.17593977814E+03  0.18922831022E+03  0.28883662771E+03  0.12509152293E+03 0.  0.
         23    2    1    2    0    0 -0.31883373031E+02 -0.17593977814E+03 -0.25044859731E+03  0.32214564259E+03  0.95299318636E+02 0.  0.
          5    1    3    3  502    0  0.60133375496E+02  0.58089153397E+02  0.30514712144E+02  0.89101024956E+02  0.41800000000E+01 0.  1.
         -5    1    3    3    0  502 -0.28250002465E+02  0.11785062474E+03  0.15871359808E+03  0.19973560275E+03  0.41800000000E+01 0.  1.
        -11    1    4    4    0    0  0.90541895097E+01 -0.93123137006E+02 -0.18987586018E+03  0.21167602432E+03  0.00000000000E+00 0. -1.
         11    1    4    4    0    0 -0.40937562541E+02 -0.82816641136E+02 -0.60572737135E+02  0.11046961827E+03  0.00000000000E+00 0.  1.
</event>
<event>
 8    1  0.7016814E-009  0.1092817E+03  0.7561462E-02  0.1261906E+00
         -1   -1    0    0    0  501 -0.00000000000E+00  0.00000000000E+00  0.32908284100E+03  0.32908284100E+03  0.00000000000E+00 0.  1.
          1   -1    0    0  501    0  0.00000000000E+00 -0.00000000000E+00 -0.52505394075E+02  0.52505394075E+02  0.00000000000E+00 0. -1.
         25    2    1    2    0    0  0.65072506564E+02 -0.31542535601E+02  0.12706003406E+03  0.19241016778E+03  0.12509219698E+03 0.  0.
         23    2    1    2    0    0 -0.65072506564E+02  0.31542535601E+02  0.14951741286E+03  0.18917806729E+03  0.90573294817E+02 0.  0.
          5    1    3    3  502    0 -0.30242782182E+02 -0.17087948727E+02  0.75017554603E+02  0.82775176016E+02  0.41800000000E+01 0. -1.
         -5    1    3    3    0  502  0.95315288746E+02 -0.14454586874E+02  0.52042479459E+02  0.10963499176E+03  0.41800000000E+01 0. -1.
        -11    1    4    4    0    0 -0.21745484067E+02 -0.12678418926E+02 -0.22474382404E+01  0.25271710714E+02  0.00000000000E+00 0. -1.
         11    1    4    4    0    0 -0.43327022497E+02  0.44220954527E+02  0.15176485110E+03  0.16390635658E+03  0.00000000000E+00 0.  1.
</event>
<event>
 8    1  0.7016814E-009  0.1564636E+03  0.7561462E-02  0.1192748E+00
         -2   -1    0    0    0  501 -0.00000000000E+00  0.00000000000E+00  0.38871061753E+02  0.38871061753E+02  0.00000000000E+00 0.  1.
          2   -1    0    0  501    0  0.00000000000E+00 -0.00000000000E+00 -0.97955401336E+03  0.97955401336E+03  0.00000000000E+00 0. -1.
         25    2    1    2    0    0 -0.14769779126E+03 -0.22035170213E+02 -0.33020321499E+03  0.38337819641E+03  0.12507794380E+03 0.  0.
         23    2    1    2    0    0  0.14769779126E+03  0.22035170213E+02 -0.61047973662E+03  0.63504687870E+03  0.91097986010E+02 0.  0.
          5    1    3    3  502    0 -0.15120908595E+03 -0.16328366144E+02 -0.33898777467E+03  0.37156558908E+03  0.41800000000E+01 0.  1.
         -5    1    3    3    0  502  0.35112946878E+01 -0.57068040686E+01  0.87845596835E+01  0.11812607328E+02  0.41800000000E+01 0.  1.
        -11    1    4    4    0    0  0.47973038424E+02 -0.82173902248E+01 -0.74223303555E+02  0.88758305010E+02  0.00000000000E+00 0.  1.
         11    1    4    4    0    0  0.99724752837E+02  0.30252560438E+02 -0.53625643306E+03  0.54628857369E+03  0.00000000000E+00 0. -1.
</event>
<event>
 8    1  0.7016814E-009  0.9000430E+02  0.7561462E-02  0.1302841E+00
          1   -1    0    0  501    0  0.00000000000E+00  0.00000000000E+00  0.46659878266E+03  0.46659878266E+03  0.00000000000E+00 0. -1.
         -1   -1    0    0    0  501 -0.00000000000E+00 -0.00000000000E+00 -0.31627168372E+02  0.31627168372E+02  0.00000000000E+00 0.  1.
         25    2    1    2    0    0  0.11615872604E+02 -0.97479619117E+01  0.35355345244E+03  0.37533211742E+03  0.12507678992E+03 0.  0.
         23    2    1    2    0    0 -0.11615872604E+02  0.97479619117E+01  0.81418161847E+02  0.12289383361E+03  0.90796618899E+02 0.  0.
          5    1    3    3  502    0 -0.16611188673E+02  0.34056557564E+02  0.32632894821E+02  0.50181260712E+02  0.41800000000E+01 0.  1.
         -5    1    3    3    0  502  0.28227061277E+02 -0.43804519476E+02  0.32092055762E+03  0.32515085671E+03  0.41800000000E+01 0.  1.
        -11    1    4    4    0    0 -0.48875467629E+02  0.16809628412E+02  0.32720962041E+02  0.61172185675E+02  0.00000000000E+00 0.  1.
         11    1    4    4    0    0  0.37259595025E+02 -0.70616665003E+01  0.48697199806E+02  0.61721647938E+02  0.00000000000E+00 0. -1.
</event>
<event>
 8    1  0.7016814E-009  0.1055821E+03  0.7561462E-02  0.1268977E+00
         -2   -1    0    0    0  501 -0.00000000000E+00  0.00000000000E+00  0.18929878896E+02  0.18929878896E+02  0.00000000000E+00 0.  1.
          2   -1    0    0  501    0  0.00000000000E+00 -0.00000000000E+00 -0.67453412291E+03  0.67453412291E+03  0.00000000000E+00 0. -1.
         25    2    1    2    0    0  0.44285584770E+01 -0.25116051933E+02 -0.39973611224E+03  0.41962771945E+03  0.12509210732E+03 0.  0.
         23    2    1    2    0    0 -0.44285584770E+01  0.25116051933E+02 -0.25586813178E+03  0.27383628235E+03  0.94166769499E+02 0.  0.
          5    1    3    3  502    0 -0.52358158341E+02  0.14359549120E+02 -0.22865110028E+03  0.23504546678E+03  0.41800000000E+01 0.  1.
         -5    1    3    3    0  502  0.56786716818E+02 -0.39475601053E+02 -0.17108501195E+03  0.18458225267E+03  0.41800000000E+01 0.  1.
        -11    1    4    4    0    0 -0.57892453214E+01 -0.30877737028E+02 -0.15783171559E+03  0.16092793558E+03  0.00000000000E+00 0. -1.
         11    1    4    4    0    0  0.13606868444E+01  0.55993788960E+02 -0.98036416190E+02  0.11290834677E+03  0.00000000000E+00 0.  1.
</event>
<event>
 8    1  0.7016814E-009  0.1262049E+03  0.7561462E-02  0.1233198E+00
          1   -1    0    0  501    0  0.00000000000E+00  0.00000000000E+00  0.35296881976E+03  0.35296881976E+03  0.00000000000E+00 0. -1.
         -1   -1    0    0    0  501 -0.00000000000E+00 -0.00000000000E+00 -0.71173979587E+02  0.71173979587E+02  0.00000000000E+00 0.  1.
         25    2    1    2    0    0  0.69879953211E+02 -0.19206113191E+02  0.36298454201E+02  0.14905501236E+03  0.12509091209E+03 0.  0.
         23    2    1    2    0    0 -0.69879953211E+02  0.19206113191E+02  0.24549638597E+03  0.27508778699E+03  0.10076076807E+03 0.  0.
          5    1    3    3  502    0 -0.31900566341E+02 -0.11266115314E+02 -0.11868166235E+02  0.36095668119E+02  0.41800000000E+01 0. -1.
         -5    1    3    3    0  502  0.10178051955E+03 -0.79399978773E+01  0.48166620436E+02  0.11295934424E+03  0.41800000000E+01 0. -1.
        -11    1    4    4    0    0 -0.58435021262E+02  0.53970765764E+02  0.20799241821E+03  0.22268439842E+03  0.00000000000E+00 0. -1.
         11    1    4    4    0    0 -0.11444931950E+02 -0.34764652572E+02  0.37503967766E+02  0.52403388573E+02  0.00000000000E+00 0.  1.
</event>
<event>
 8    1  0.7016814E-009  0.1015736E+03  0.7561462E-02  0.1277021E+00
         -2   -1    0    0    0  501 -0.00000000000E+00  0.00000000000E+00  0.69969041441E+02  0.69969041441E+02  0.00000000000E+00 0.  1.
          2   -1    0    0  501    0  0.00000000000E+00 -0.00000000000E+00 -0.24366468210E+03  0.24366468210E+03  0.00000000000E+00 0. -1.
         25    2    1    2    0    0 -0.44258973775E+02  0.55702786501E+02 -0.68164931788E+02  0.15923473291E+03  0.12509030760E+03 0.  0.
         23    2    1    2    0    0  0.44258973775E+02 -0.55702786501E+02 -0.10553070887E+03  0.15439899063E+03  0.87410872375E+02 0.  0.
          5    1    3    3  502    0 -0.38929148328E+02  0.30267244442E+01  0.28785816121E+02  0.48690196756E+02  0.41800000000E+01 0.  1.
         -5    1    3    3    0  502 -0.53298254461E+01  0.52676062057E+02 -0.96950747909E+02  0.11054453615E+03  0.41800000000E+01 0.  1.
        -11    1    4    4    0    0  0.16020083931E+02  0.22501179481E+02 -0.39618039697E+02  0.48296327362E+02  0.00000000000E+00 0. -1.
         11    1    4    4    0    0  0.28238889843E+02 -0.78203965983E+02 -0.65912669170E+02  0.10610266327E+03  0.00000000000E+00 0.  1.
</event>
<event>
 8    1  0.7016814E-009  0.2406642E+03  0.7561462E-02  0.1119351E+00
          2   -1    0    0  501    0  0.00000000000E+00  0.00000000000E+00  0.13814751394E+04  0.13814751394E+04  0.00000000000E+00 0. -1.
         -2   -1    0    0    0  501 -0.00000000000E+00 -0.00000000000E+00 -0.45616352691E+02  0.45616352691E+02  0.00000000000E+00 0.  1.
         25    2    1    2    0    0  0.16802011565E+03  0.13509327856E+03  0.49365986160E+03  0.55301717058E+03  0.12508788444E+03 0.  0.
         23    2    1    2    0    0 -0.16802011565E+03 -0.13509327856E+03  0.84219892507E+03  0.87407432147E+03  0.90696950761E+02 0.  0.
          5    1    3    3  502    0  0.63541832271E+02 -0.14213312611E+02  0.10302920239E+03  0.12195110352E+03  0.41800000000E+01 0. -1.
         -5    1    3    3    0  502  0.10447828338E+03  0.14930659117E+03  0.39063065920E+03  0.43106606707E+03  0.41800000000E+01 0. -1.
        -11    1    4    4    0    0 -0.14508409718E+03 -0.63040615698E+02  0.58115217665E+03  0.60229674323E+03  0.00000000000E+00 0.  1.
         11    1    4    4    0    0 -0.22936018469E+02 -0.72052662864E+02  0.26104674842E+03  0.27177757824E+03  0.00000000000E+00 0. -1.
</event>
<event>
 8    1  0.7016814E-009  0.1416040E+03  0.7561462E-02  0.1211187E+00
          1   -1    0    0  501    0  0.00000000000E+00  0.00000000000E+00  0.39819746881E+03  0.39819746881E+03  0.00000000000E+00 0. -1.
         -1   -1    0    0    0  501 -0.00000000000E+00 -0.00000000000E+00 -0.74083601189E+02  0.74083601189E+02  0.00000000000E+00 0.  1.
         25    2    1    2    0    0 -0.30239257377E+02 -0.12349321875E+03  0.23258611130E+03  0.29310141259E+03  0.12508857315E+03 0.  0.
         23    2    1    2    0    0  0.30239257377E+02  0.12349321875E+03  0.91527756319E+02  0.17917965740E+03  0.86965692581E+02 0.  0.
          5    1    3    3  502    0 -0.31374135559E+02 -0.85590374954E+02  0.23769590967E+03  0.25461120662E+03  0.41800000000E+01 0. -1.
         -5    1    3    3    0  502  0.11348781818E+01 -0.37902843794E+02 -0.51097983689E+01  0.38490205969E+02  0.41800000000E+01 0. -1.
        -11    1    4    4    0    0  0.41121399570E+02  0.13308752682E+03  0.79875603066E+02  0.16057201270E+03  0.00000000000E+00 0.  1.
         11    1    4    4    0    0 -0.10882142193E+02 -0.95943080674E+01  0.11652153253E+02  0.18607644704E+02  0.00000000000E+00 0. -1.
</event>
<event>
 8    1  0.7016814E-009  0.1114776E+03  0.7561462E-02  0.1257858E+00
         -1   -1    0    0    0  501 -0.00000000000E+00  0.00000000000E+00  0.30424082630E+03  0.30424082630E+03  0.00000000000E+00 0.  1.
          1   -1    0    0  501    0  0.00000000000E+00 -0.00000000000E+00 -0.61616312990E+02  0.61616312990E+02  0.00000000000E+00 0. -1.
         25    2    1    2    0    0 -0.82664346640E+02 -0.81832451155E+01  0.14228799634E+03  0.20686735516E+03  0.12509144264E+03 0.  0.
         23    2    1    2    0    0  0.82664346640E+02  0.81832451155E+01  0.10033651697E+03  0.15898978413E+03  0.91159064903E+02 0.  0.
          5    1    3    3  502    0  0.10212091773E+02 -0.94848425807E+01  0.10610105419E+03  0.10709414157E+03  0.41800000000E+01 0. -1.
         -5    1    3    3    0  502 -0.92876438413E+02  0.13015974652E+01  0.36186942143E+02  0.99773213589E+02  0.41800000000E+01 0. -1.
        -11    1    4    4    0    0  0.92901943678E+02 -0.11129904533E+02  0.10025079069E+03  0.13713083879E+03  0.00000000000E+00 0.  1.
         11    1    4    4    0    0 -0.10237597038E+02  0.19313149648E+02  0.85726285506E-01  0.21858945341E+02  0.00000000000E+00 0. -1.
</event>
<event>
 8    1  0.7016814E-009  0.1702107E+03  0.7561462E-02  0.1177628E+00
         -2   -1    0    0    0  501 -0.00000000000E+00  0.00000000000E+00  0.58468546096E+02  0.58468546096E+02  0.00000000000E+00 0.  1.
          2   -1    0    0  501    0  0.00000000000E+00 -0.00000000000E+00 -0.64033198758E+03  0.64033198758E+03  0.00000000000E+00 0. -1.
         25    2    1    2    0    0 -0.92436178319E+02 -0.12987944687E+03 -0.29991135593E+03  0.36194810599E+03  0.12508593941E+03 0.  0.
         23    2    1    2    0    0  0.92436178319E+02  0.12987944687E+03 -0.28195208556E+03  0.33685242769E+03  0.92517358949E+02 0.  0.
          5    1    3    3  502    0  0.81003118360E+01 -0.42728973833E+02 -0.12877762557E+02  0.45548758766E+02  0.41800000000E+01 0. -1.
         -5    1    3    3    0  502 -0.10053649016E+03 -0.87150473033E+02 -0.28703359337E+03  0.31639934723E+03  0.41800000000E+01 0. -1.
        -11    1    4    4    0    0  0.28375662628E+02  0.15040077676E+02 -0.81851989699E+01  0.33141811179E+02  0.00000000000E+00 0.  1.
         11    1    4    4    0    0  0.64060515692E+02  0.11483936919E+03 -0.27376688659E+03  0.30371061651E+03  0.00000000000E+00 0. -1.
</event>
<event>
 8    1  0.7016814E-009  0.3555672E+03  0.7561462E-02  0.1060353E+00
         -1   -1    0    0    0  501 -0.00000000000E+00  0.00000000000E+00  0.19209859780E+03  0.19209859780E+03  0.00000000000E+00 0.  1.
          1   -1    0    0  501    0  0.00000000000E+00 -0.00000000000E+00 -0.70692990888E+03  0.70692990888E+03  0.00000000000E+00 0. -1.
         25    2    1    2    0    0  0.12730473791E+03 -0.32194991497E+03 -0.33727430226E+03  0.49925805357E+03  0.12508559088E+03 0.  0.
         23    2    1    2    0    0 -0.12730473791E+03  0.32194991497E+03 -0.17755700883E+03  0.39977045311E+03  0.91824178480E+02 0.  0.
          5    1    3    3  502    0  0.88197505148E+02 -0.31203589507E+03 -0.27634212928E+03  0.42606061135E+03  0.41800000000E+01 0.  1.
         -5    1    3    3    0  502  0.39107232759E+02 -0.99140199079E+01 -0.60932172972E+02  0.73197442222E+02  0.41800000000E+01 0.  1.
        -11    1    4    4    0    0 -0.45058538757E+02  0.10440720433E+03 -0.12116666702E+02  0.11435886430E+03  0.00000000000E+00 0.  1.
         11    1    4    4    0    0 -0.82246199150E+02  0.21754271064E+03 -0.16544034213E+03  0.28541158882E+03  0.00000000000E+00 0. -1.
</event>
<event>
 8    1  0.7016814E-009  0.5843401E+02  0.7561462E-02  0.1404524E+00
          1   -1    0    0  501    0  0.00000000000E+00  0.00000000000E+00  0.55880639013E+02  0.55880639013E+02  0.00000000000E+00 0. -1.
         -1   -1    0    0    0  501 -0.00000000000E+00 -0.00000000000E+00 -0.26686841340E+03  0.26686841340E+03  0.00000000000E+00 0.  1.
         25    2    1    2    0    0 -0.22902057100E+02 -0.23483268521E+02 -0.17770093211E+03  0.21977709616E+03  0.12509349546E+03 0.  0.
         23    2    1    2    0    0  0.22902057100E+02  0.23483268521E+02 -0.33286842274E+02  0.10297195625E+03  0.91756426395E+02 0.  0.
          5    1    3    3  502    0 -0.23971157048E+02 -0.76237553413E+01 -0.19456481362E+03  0.19622863480E+03  0.41800000000E+01 0. -1.
         -5    1    3    3    0  502  0.10690999477E+01 -0.15859513180E+02  0.16863881511E+02  0.23548461364E+02  0.41800000000E+01 0. -1.
        -11    1    4    4    0    0 -0.59665606988E+00 -0.22915312906E+02 -0.44235590291E+02  0.49822234118E+02  0.00000000000E+00 0.  1.
         11    1    4    4    0    0  0.23498713170E+02  0.46398581427E+02  0.10948748018E+02  0.53149722128E+02  0.00000000000E+00 0. -1.
</event>
<event>
 8    1  0.7016814E-009  0.1453877E+03  0.7561462E-02  0.1206258E+00
          1   -1    0    0  501    0  0.00000000000E+00  0.00000000000E+00  0.42125932139E+03  0.42125932139E+03  0.00000000000E+00 0. -1.
         -1   -1    0    0    0  501 -0.00000000000E+00 -0.00000000000E+00 -0.59614947654E+02  0.59614947654E+02  0.00000000000E+00 0.  1.
         25    2    1    2    0    0 -0.83839753918E+01  0.10906756705E+03  0.24588002749E+03  0.29676786122E+03  0.12509256695E+03 0.  0.
         23    2    1    2    0    0  0.83839753918E+01 -0.10906756705E+03  0.11576434625E+03  0.18410640783E+03  0.92345873296E+02 0.  0.
          5    1    3    3  502    0  0.38835630046E+02  0.87633580610E+02  0.21700087656E+03  0.23726504892E+03  0.41800000000E+01 0.  1.
         -5    1    3    3    0  502 -0.47219605438E+02  0.21433986444E+02  0.28879150925E+02  0.59502812293E+02  0.41800000000E+01 0.  1.
        -11    1    4    4    0    0 -0.39192269878E+02 -0.25852507490E+02  0.32108663308E+02  0.56880158413E+02  0.00000000000E+00 0.  1.
         11    1    4    4    0    0  0.47576245269E+02 -0.83215059564E+02  0.83655682942E+02  0.12722624942E+03  0.00000000000E+00 0. -1.
</event>
<event>
 8    1  0.7016814E-009  0.6899460E+02  0.7561462E-02  0.1363546E+00
         -2   -1    0    0    0  501 -0.00000000000E+00  0.00000000000E+00  0.11258634607E+02  0.11258634607E+02  0.00000000000E+00 0.  1.
          2   -1    0    0  501    0  0.00000000000E+00 -0.00000000000E+00 -0.11727470038E+04  0.11727470038E+04  0.00000000000E+00 0. -1.
         25    2    1    2    0    0 -0.20610120800E+02 -0.18620874197E+02 -0.79299339693E+03  0.80328151122E+03  0.12510453491E+03 0.  0.
         23    2    1    2    0    0  0.20610120800E+02  0.18620874197E+02 -0.36849497224E+03  0.38072412716E+03  0.91601323161E+02 0.  0.
          5    1    3    3  502    0 -0.20633790076E+02 -0.29132988445E+02 -0.58224284446E+02  0.68425317009E+02  0.41800000000E+01 0. -1.
         -5    1    3    3    0  502  0.23669275353E-01  0.10512114247E+02 -0.73476911248E+03  0.73485619421E+03  0.41800000000E+01 0. -1.
        -11    1    4    4    0    0  0.28754774815E+02 -0.29929226120E+02 -0.23060106075E+03  0.23430630566E+03  0.00000000000E+00 0.  1.
         11    1    4    4    0    0 -0.81446540149E+01  0.48550100318E+02 -0.13789391149E+03  0.14641782151E+03  0.00000000000E+00 0. -1.
</event>
<event>
 8    1  0.7016814E-009  0.1211997E+03  0.7561462E-02  0.1241131E+00
         -3   -1    0    0    0  501 -0.00000000000E+00  0.00000000000E+00  0.14919288487E+02  0.14919288487E+02  0.00000000000E+00 0.  1.
          3   -1    0    0  501    0  0.00000000000E+00 -0.00000000000E+00 -0.15370648517E+04  0.15370648517E+04  0.00000000000E+00 0. -1.
         25    2    1    2    0    0  0.71797920280E+02  0.77769895729E+02 -0.86351034321E+03  0.87892248617E+03  0.12510605828E+03 0.  0.
         23    2    1    2    0    0 -0.71797920280E+02 -0.77769895729E+02 -0.65863522000E+03  0.67306165402E+03  0.89490441102E+02 0.  0.
          5    1    3    3  502    0  0.33093553451E+02  0.67121792047E+02 -0.19067667337E+03  0.20487943873E+03  0.41800000000E+01 0. -1.
         -5    1    3    3    0  502  0.38704366829E+02  0.10648103683E+02 -0.67283366984E+03  0.67404304743E+03  0.41800000000E+01 0. -1.
        -11    1    4    4    0    0 -0.73262849475E+02 -0.89275461828E+02 -0.64455449364E+03  0.65481909598E+03  0.00000000000E+00 0. -1.
         11    1    4    4    0    0  0.14649291947E+01  0.11505566098E+02 -0.14080726366E+02  0.18242558039E+02  0.00000000000E+00 0.  1.
</event>
<event>
 8    1  0.7016814E-009  0.1413942E+03  0.7561462E-02  0.1211465E+00
         -4   -1    0    0    0  501 -0.00000000000E+00  0.00000000000E+00  0.70181129931E+02  0.70181129931E+02  0.00000000000E+00 0.  1.
          4   -1    0    0  501    0  0.00000000000E+00 -0.00000000000E+00 -0.35083049024E+03  0.35083049024E+03  0.00000000000E+00 0. -1.
         25    2    1    2    0    0  0.16230929804E+02 -0.97498114928E+02 -0.22141981146E+03  0.27284298758E+03  0.12508891825E+03 0.  0.
         23    2    1    2    0    0 -0.16230929804E+02  0.97498114928E+02 -0.59229548846E+02  0.14816863259E+03  0.93147617945E+02 0.  0.
          5    1    3    3  502    0 -0.22902738461E+01  0.23870730377E+02 -0.88773931218E+02  0.92050748975E+02  0.41800000000E+01 0.  1.
         -5    1    3    3    0  502  0.18521203650E+02 -0.12136884531E+03 -0.13264588025E+03  0.18079223861E+03  0.41800000000E+01 0.  1.
        -11    1    4    4    0    0 -0.21146206426E+01  0.11392372844E+03 -0.46656447763E+02  0.12312559295E+03  0.00000000000E+00 0.  1.
         11    1    4    4    0    0 -0.14116309161E+02 -0.16425613507E+02 -0.12573101083E+02  0.25043039637E+02  0.00000000000E+00 0. -1.
</event>
<event>
 8    1  0.7016814E-009  0.1741022E+03  0.7561462E-02  0.1173636E+00
          1   -1    0    0  501    0  0.00000000000E+00  0.00000000000E+00  0.75130817898E+03  0.75130817898E+03  0.00000000000E+00 0. -1.
         -1   -1    0    0    0  501 -0.00000000000E+00 -0.00000000000E+00 -0.50909929507E+02  0.50909929507E+02  0.00000000000E+00 0.  1.
         25    2    1    2    0    0  0.14215484335E+03 -0.75887557605E+02  0.40678513259E+03  0.45507012467E+03  0.12509098043E+03 0.  0.
         23    2    1    2    0    0 -0.14215484335E+03  0.75887557605E+02  0.29361311688E+03  0.34714798382E+03  0.91302460949E+02 0.  0.
          5    1    3    3  502    0  0.12434689035E+03 -0.75792164282E+02  0.41120671518E+03  0.43625111612E+03  0.41800000000E+01 0.  1.
         -5    1    3    3    0  502  0.17807953003E+02 -0.95393323792E-01 -0.44215825949E+01  0.18819008547E+02  0.41800000000E+01 0.  1.
        -11    1    4    4    0    0 -0.32727833958E+02 -0.20318909380E+02  0.76868509597E+02  0.85981026753E+02  0.00000000000E+00 0.  1.
         11    1    4    4    0    0 -0.10942700939E+03  0.96206466985E+02  0.21674460729E+03  0.26116695706E+03  0.00000000000E+00 0. -1.
</event>
<event>
 8    1  0.7016814E-009  0.2582027E+03  0.7561462E-02  0.1108228E+00
         -1   -1    0    0    0  501 -0.00000000000E+00  0.00000000000E+00  0.33165999700E+03  0.33165999700E+03  0.00000000000E+00 0.  1.
          1   -1    0    0  501    0  0.00000000000E+00 -0.00000000000E+00 -0.21149730241E+03  0.21149730241E+03  0.00000000000E+00 0. -1.
         25    2    1    2    0    0 -0.16047217519E+03  0.17869684666E+03  0.84552269683E+02  0.28369144254E+03  0.12509143155E+03 0.  0.
         23    2    1    2    0    0  0.16047217519E+03 -0.17869684666E+03  0.35610424905E+02  0.25946585686E+03  0.91490690774E+02 0.  0.
          5    1    3    3  502    0 -0.10007055403E+03  0.18107808088E+03  0.83347212169E+02  0.22308656915E+03  0.41800000000E+01 0. -1.
         -5    1    3    3    0  502 -0.60401621164E+02 -0.23812342167E+01  0.12050575145E+01  0.60604873396E+02  0.41800000000E+01 0. -1.
        -11    1    4    4    0    0  0.95221223432E+02 -0.57501863957E+02 -0.16167269954E+02  0.11240518835E+03  0.00000000000E+00 0. -1.
         11    1    4    4    0    0  0.65250951759E+02 -0.12119498271E+03  0.51777694859E+02  0.14706066851E+03  0.00000000000E+00 0.  1.
</event>
<event>
 8    1  0.7016814E-009  0.6315342E+02  0.7561462E-02  0.1385055E+00
         -1   -1    0    0    0  501 -0.00000000000E+00  0.00000000000E+00  0.34261058265E+02  0.34261058265E+02  0.00000000000E+00 0.  1.
          1   -1    0    0  501    0  0.00000000000E+00 -0.00000000000E+00 -0.51292218160E+03  0.51292218160E+03  0.00000000000E+00 0. -1.
         25    2    1    2    0    0 -0.32238328841E+02 -0.39960261059E+02 -0.39605762025E+03  0.41850390709E+03  0.12509096443E+03 0.  0.
         23    2    1    2    0    0  0.32238328841E+02  0.39960261059E+02 -0.82603503084E+02  0.12867933277E+03  0.84254968108E+02 0.  0.
          5    1    3    3  502    0 -0.24165930770E+02 -0.31319558273E+02 -0.40246090774E+03  0.40442200929E+03  0.41800000000E+01 0.  1.
         -5    1    3    3    0  502 -0.80723980707E+01 -0.86407027862E+01  0.64032874830E+01  0.14081897807E+02  0.41800000000E+01 0.  1.
        -11    1    4    4    0    0 -0.13988208441E+02  0.18033267789E+02 -0.73178914481E+02  0.76655216699E+02  0.00000000000E+00 0. -1.
         11    1    4    4    0    0  0.46226537282E+02  0.21926993270E+02 -0.94245886029E+01  0.52024116074E+02  0.00000000000E+00 0.  1.
</event>
<event>
 8    1  0.7016814E-009  0.1322891E+03  0.7561462E-02  0.1224098E+00
          2   -1    0    0  501    0  0.00000000000E+00  0.00000000000E+00  0.10409821989E+03  0.10409821989E+03  0.00000000000E+00 0. -1.
         -2   -1    0    0    0  501 -0.00000000000E+00 -0.00000000000E+00 -0.20125146160E+03  0.20125146160E+03  0.00000000000E+00 0.  1.
         25    2    1    2    0    0  0.32643503768E+02  0.92452573450E+02 -0.74774220347E+02  0.17564741367E+03  0.12509097979E+03 0.  0.
         23    2    1    2    0    0 -0.32643503768E+02 -0.92452573450E+02 -0.22379021366E+02  0.12970226783E+03  0.81907148688E+02 0.  0.
          5    1    3    3  502    0  0.66493696727E+00 -0.21034447673E+02  0.16018418739E+02  0.26775964389E+02  0.41800000000E+01 0.  1.
         -5    1    3    3    0  502  0.31978566800E+02  0.11348702112E+03 -0.90792639086E+02  0.14887144928E+03  0.41800000000E+01 0.  1.
        -11    1    4    4    0    0 -0.10762389147E+02 -0.10105775098E+03 -0.75610374922E+01  0.10191009440E+03  0.00000000000E+00 0.  1.
         11    1    4    4    0    0 -0.21881114621E+02  0.86051775316E+01 -0.14817983874E+02  0.27792173422E+02  0.00000000000E+00 0. -1.
</event>
<event>
 8    1  0.7016814E-009  0.1101382E+03  0.7561462E-02  0.1260314E+00
          2   -1    0    0  501    0  0.00000000000E+00  0.00000000000E+00  0.17890571766E+02  0.17890571766E+02  0.00000000000E+00 0. -1.
         -2   -1    0    0    0  501 -0.00000000000E+00 -0.00000000000E+00 -0.97136264651E+03  0.97136264651E+03  0.00000000000E+00 0.  1.
         25    2    1    2    0    0  0.60681497405E+01 -0.65248281317E+02 -0.65653678198E+03  0.67155228134E+03  0.12509100615E+03 0.  0.
         23    2    1    2    0    0 -0.60681497405E+01  0.65248281317E+02 -0.29693529276E+03  0.31770093694E+03  0.92028020662E+02 0.  0.
          5    1    3    3  502    0  0.26988001901E+02 -0.86700528852E+02 -0.60500664332E+03  0.61179722524E+03  0.41800000000E+01 0.  1.
         -5    1    3    3    0  502 -0.20919852161E+02  0.21452247535E+02 -0.51530138658E+02  0.59755056094E+02  0.41800000000E+01 0.  1.
        -11    1    4    4    0    0 -0.38039099099E+02  0.18023038539E+02 -0.55699511937E+02  0.69815747568E+02  0.00000000000E+00 0. -1.
         11    1    4    4    0    0  0.31970949359E+02  0.47225242778E+02 -0.24123578083E+03  0.24788518937E+03  0.00000000000E+00 0.  1.
</event>
<event>
 8    1  0.7016814E-009  0.1647333E+03  0.7561462E-02  0.1183454E+00
          3   -1    0    0  501    0  0.00000000000E+00  0.00000000000E+00  0.33192346552E+03  0.33192346552E+03  0.00000000000E+00 0. -1.
         -3   -1    0    0    0  501 -0.00000000000E+00 -0.00000000000E+00 -0.98811657280E+02  0.98811657280E+02  0.00000000000E+00 0.  1.
         25    2    1    2    0    0  0.74668648372E+02 -0.11519285977E+03  0.68877785611E+02  0.19808311527E+03  0.12509184311E+03 0.  0.
         23    2    1    2    0    0 -0.74668648372E+02  0.11519285977E+03  0.16423402263E+03  0.23265200753E+03  0.91155583634E+02 0.  0.
          5    1    3    3  502    0 -0.29352290046E+02 -0.61830304992E+02  0.21421947859E+02  0.71839514171E+02  0.41800000000E+01 0.  1.
         -5    1    3    3    0  502  0.10402093842E+03 -0.53362554776E+02  0.47455837752E+02  0.12624360110E+03  0.41800000000E+01 0.  1.
        -11    1    4    4    0    0 -0.34506167334E+02  0.90278301710E+02  0.49547173254E+02  0.10860833173E+03  0.00000000000E+00 0.  1.
         11    1    4    4    0    0 -0.40162481039E+02  0.24914558058E+02  0.11468684937E+03  0.12404367580E+03  0.00000000000E+00 0. -1.
</event>
<event>
 8    1  0.7016814E-009  0.8019881E+02  0.7561462E-02  0.1328488E+00
         -2   -1    0    0    0  501 -0.00000000000E+00  0.00000000000E+00  0.38291994579E+02  0.38291994579E+02  0.00000000000E+00 0.  1.
          2   -1    0    0  501    0  0.00000000000E+00 -0.00000000000E+00 -0.49390065767E+03  0.49390065767E+03  0.00000000000E+00 0. -1.
         25    2    1    2    0    0  0.56117355355E+02 -0.56422452445E+02 -0.21508724311E+03  0.26123292882E+03  0.12508984866E+03 0.  0.
         23    2    1    2    0    0 -0.56117355355E+02  0.56422452445E+02 -0.24052141998E+03  0.27095972343E+03  0.96103941336E+02 0.  0.
          5    1    3    3  502    0  0.28455882362E+02 -0.32621525839E+02 -0.46709086507E+00  0.43492433399E+02  0.41800000000E+01 0.  1.
         -5    1    3    3    0  502  0.27661472993E+02 -0.23800926606E+02 -0.21462015225E+03  0.21774049542E+03  0.41800000000E+01 0.  1.
        -11    1    4    4    0    0 -0.34670392642E+02  0.27963864259E+02 -0.22931959370E+03  0.23360541494E+03  0.00000000000E+00 0. -1.
         11    1    4    4    0    0 -0.21446962713E+02  0.28458588186E+02 -0.11201826273E+02  0.37354308493E+02  0.00000000000E+00 0.  1.
</event>
<event>
 8    1  0.7016814E-009  0.9632911E+02  0.7561462E-02  0.1288210E+00
         -2   -1    0    0    0  501 -0.00000000000E+00  0.00000000000E+00  0.48326309404E+02  0.48326309404E+02  0.00000000000E+00 0.  1.
          2   -1    0    0  501    0  0.00000000000E+00 -0.00000000000E+00 -0.29281105456E+03  0.29281105456E+03  0.00000000000E+00 0. -1.
         25    2    1    2    0    0 -0.43890849704E+01 -0.36870671728E+02 -0.18496011370E+03  0.22635540530E+03  0.12509122811E+03 0.  0.
         23    2    1    2    0    0  0.43890849704E+01  0.36870671728E+02 -0.59524631462E+02  0.11478195866E+03  0.90846055410E+02 0.  0.
          5    1    3    3  502    0 -0.24725228957E+02 -0.59311099923E+02 -0.18489124437E+03  0.19578403450E+03  0.41800000000E+01 0.  1.
         -5    1    3    3    0  502  0.20336143987E+02  0.22440428195E+02 -0.68869329957E-01  0.30571370804E+02  0.41800000000E+01 0.  1.
        -11    1    4    4    0    0 -0.57037454549E+01  0.66318491798E+02 -0.35347557241E+02  0.75366603144E+02  0.00000000000E+00 0. -1.
         11    1    4    4    0    0  0.10092830425E+02 -0.29447820070E+02 -0.24177074222E+02  0.39415355520E+02  0.00000000000E+00 0.  1.
</event>
<event>
 8    1  0.7016814E-009  0.1833547E+03  0.7561462E-02  0.1164595E+00
          3   -1    0    0  501    0  0.00000000000E+00  0.00000000000E+00  0.34104609122E+03  0.34104609122E+03  0.00000000000E+00 0. -1.
         -3   -1    0    0    0  501 -0.00000000000E+00 -0.00000000000E+00 -0.17883879779E+03  0.17883879779E+03  0.00000000000E+00 0.  1.
         25    2    1    2    0    0  0.14246175051E+03 -0.90816243207E+02  0.23336928493E+03  0.31408828373E+03  0.12508911400E+03 0.  0.
         23    2    1    2    0    0 -0.14246175051E+03  0.90816243207E+02 -0.71161991495E+02  0.20579660527E+03  0.93516166089E+02 0.  0.
          5    1    3    3  502    0  0.99169543587E+02 -0.10445081858E+03  0.10620406908E+03  0.17900097364E+03  0.41800000000E+01 0.  1.
         -5    1    3    3    0  502  0.43292206925E+02  0.13634575369E+02  0.12716521585E+03  0.13508731009E+03  0.41800000000E+01 0.  1.
        -11    1    4    4    0    0 -0.13119090752E+02  0.32711089148E+02  0.16686114821E+02  0.38994260132E+02  0.00000000000E+00 0. -1.
         11    1    4    4    0    0 -0.12934265976E+03  0.58105154058E+02 -0.87848106316E+02  0.16680234514E+03  0.00000000000E+00 0.  1.
</event>
<event>
 8    1  0.7016814E-009  0.6411960E+02  0.7561462E-02  0.1381314E+00
         -4   -1    0    0    0  501 -0.00000000000E+00  0.00000000000E+00  0.10266726286E+03  0.10266726286E+03  0.00000000000E+00 0.  1.
          4   -1    0    0  501    0  0.00000000000E+00 -0.00000000000E+00 -0.13356820078E+03  0.13356820078E+03  0.00000000000E+00 0. -1.
         25    2    1    2    0    0  0.87000831610E+01  0.15627997788E+02  0.15992345825E+02  0.12736715272E+03  0.12508681268E+03 0.  0.
         23    2    1    2    0    0 -0.87000831610E+01 -0.15627997788E+02 -0.46893283751E+02  0.10886831092E+03  0.96609540416E+02 0.  0.
          5    1    3    3  502    0  0.40705673358E+02  0.61617195266E+01 -0.42862418287E+02  0.59578334422E+02  0.41800000000E+01 0. -1.
         -5    1    3    3    0  502 -0.32005590197E+02  0.94662782617E+01  0.58854764113E+02  0.67788818301E+02  0.41800000000E+01 0. -1.
        -11    1    4    4    0    0 -0.58050881418E+01  0.18285280293E+02 -0.66757329371E+02  0.69459279787E+02  0.00000000000E+00 0. -1.
         11    1    4    4    0    0 -0.28949950192E+01 -0.33913278082E+02  0.19864045619E+02  0.39409031132E+02  0.00000000000E+00 0.  1.
</event>
<event>
 8    1  0.7016814E-009  0.1000787E+03  0.7561462E-02  0.1280130E+00
          3   -1    0    0  501    0  0.00000000000E+00  0.00000000000E+00  0.18367196447E+03  0.18367196447E+03  0.00000000000E+00 0. -1.
         -3   -1    0    0    0  501 -0.00000000000E+00 -0.00000000000E+00 -0.89625298938E+02  0.89625298938E+02  0.00000000000E+00 0.  1.
         25    2    1    2    0    0  0.55861166118E+02 -0.11939319902E+02  0.99309846619E+02  0.16962615414E+03  0.12509024460E+03 0.  0.
         23    2    1    2    0    0 -0.55861166118E+02  0.11939319902E+02 -0.52631810886E+01  0.10367110927E+03  0.86353810463E+02 0.  0.
          5    1    3    3  502    0 -0.16241930474E+01 -0.37272275181E+02 -0.13945600685E+02  0.40047630126E+02  0.41800000000E+01 0.  1.
         -5    1    3    3    0  502  0.57485359165E+02  0.25332955279E+02  0.11325544730E+03  0.12957852401E+03  0.41800000000E+01 0.  1.
        -11    1    4    4    0    0 -0.44800321190E+02  0.45780910229E+02 -0.16843390942E+02  0.66231867998E+02  0.00000000000E+00 0.  1.
         11    1    4    4    0    0 -0.11060844929E+02 -0.33841590328E+02  0.11580209854E+02  0.37439241268E+02  0.00000000000E+00 0. -1.
</event>
<event>
 8    1  0.7016814E-009  0.1560391E+03  0.7561462E-02  0.1193243E+00
          1   -1    0    0  501    0  0.00000000000E+00  0.00000000000E+00  0.30935506231E+03  0.30935506231E+03  0.00000000000E+00 0. -1.
         -1   -1    0    0    0  501 -0.00000000000E+00 -0.00000000000E+00 -0.89336078159E+02  0.89336078159E+02  0.00000000000E+00 0.  1.
         25    2    1    2    0    0  0.11163553280E+03 -0.59452760980E+02  0.12567744934E+03  0.21780580158E+03  0.12508965967E+03 0.  0.
         23    2    1    2    0    0 -0.11163553280E+03  0.59452760980E+02  0.94341534811E+02  0.18088533889E+03  0.88442397434E+02 0.  0.
          5    1    3    3  502    0  0.53728149876E+02 -0.95356194427E+02  0.73934727878E+02  0.13214890953E+03  0.41800000000E+01 0.  1.
         -5    1    3    3    0  502  0.57907382924E+02  0.35903433446E+02  0.51742721465E+02  0.85656892046E+02  0.41800000000E+01 0.  1.
        -11    1    4    4    0    0 -0.74456488433E+02  0.14338274305E+02  0.96084309773E+02  0.12239913956E+03  0.00000000000E+00 0.  1.
         11    1    4    4    0    0 -0.37179044367E+02  0.45114486675E+02 -0.17427749625E+01  0.58486199334E+02  0.00000000000E+00 0. -1.
</event>
<event>
 8    1  0.7016814E-009  0.1167783E+03  0.7561462E-02  0.1248508E+00
          2   -1    0    0  501    0  0.00000000000E+00  0.00000000000E+00  0.89407730853E+03  0.89407730853E+03  0.00000000000E+00 0. -1.
         -2   -1    0    0    0  501 -0.00000000000E+00 -0.00000000000E+00 -0.20575750510E+02  0.20575750510E+02  0.00000000000E+00 0.  1.
         25    2    1    2    0    0 -0.61397851924E+02 -0.51800058964E+02  0.43450709466E+03  0.45923504943E+03  0.12508985964E+03 0.  0.
         23    2    1    2    0    0  0.61397851924E+02  0.51800058964E+02  0.43899446337E+03  0.45541800962E+03  0.90755067558E+02 0.  0.
          5    1    3    3  502    0  0.17940463494E+02  0.39389968688E+00  0.46640202291E+01  0.19006337681E+02  0.41800000000E+01 0.  1.
         -5    1    3    3    0  502 -0.79338315417E+02 -0.52193958650E+02  0.42984307443E+03  0.44022871175E+03  0.41800000000E+01 0.  1.
        -11    1    4    4    0    0  0.78873155219E+01  0.64577425226E+02  0.20663081690E+03  0.21663044128E+03  0.00000000000E+00 0.  1.
         11    1    4    4    0    0  0.53510536402E+02 -0.12777366262E+02  0.23236364647E+03  0.23878756834E+03  0.00000000000E+00 0. -1.
</event>
<event>
 8    1  0.7016814E-009  0.1390328E+03  0.7561462E-02  0.1214636E+00
          1   -1    0    0  501    0  0.00000000000E+00  0.00000000000E+00  0.25106641746E+03  0.25106641746E+03  0.00000000000E+00 0. -1.
         -1   -1    0    0    0  501 -0.00000000000E+00 -0.00000000000E+00 -0.85240454754E+02  0.85240454754E+02  0.00000000000E+00 0.  1.
         25    2    1    2    0    0 -0.37769029856E+02  0.80060844568E+02  0.13537240091E+03  0.20446171325E+03  0.12507064727E+03 0.  0.
         23    2    1    2    0    0  0.37769029856E+02 -0.80060844568E+02  0.30453561799E+02  0.13184515896E+03  0.92841198110E+02 0.  0.
          5    1    3    3  502    0  0.26144121389E+02 -0.20844846202E+02  0.30930415942E+02  0.45740416775E+02  0.41800000000E+01 0. -1.
         -5    1    3    3    0  502 -0.63913151245E+02  0.10090569077E+03  0.10444198497E+03  0.15872129648E+03  0.41800000000E+01 0. -1.
        -11    1    4    4    0    0  0.66655388418E+02 -0.51538543687E+02  0.34506080056E+02  0.91048513724E+02  0.00000000000E+00 0.  1.
         11    1    4    4    0    0 -0.28886358562E+02 -0.28522300881E+02 -0.40525182570E+01  0.40796645239E+02  0.00000000000E+00 0. -1.
</event>
<event>
 8    1  0.7016814E-009  0.1112762E+03  0.7561462E-02  0.1258225E+00
          1   -1    0    0  501    0  0.00000000000E+00  0.00000000000E+00  0.56275352796E+02  0.56275352796E+02  0.00000000000E+00 0. -1.
         -1   -1    0    0    0  501 -0.00000000000E+00 -0.00000000000E+00 -0.23004020195E+03  0.23004020195E+03  0.00000000000E+00 0.  1.
         25    2    1    2    0    0 -0.21666204061E+02 -0.35752300992E+02 -0.10777146697E+03  0.17032448989E+03  0.12509233125E+03 0.  0.
         23    2    1    2    0    0  0.21666204061E+02  0.35752300992E+02 -0.65993382184E+02  0.11599106486E+03  0.85738843073E+02 0.  0.
          5    1    3    3  502    0  0.27507846447E+02 -0.64424386929E+02 -0.81331818583E+02  0.10742215954E+03  0.41800000000E+01 0. -1.
         -5    1    3    3    0  502 -0.49174050508E+02  0.28672085937E+02 -0.26439648392E+02  0.62902330342E+02  0.41800000000E+01 0. -1.
        -11    1    4    4    0    0 -0.23696542641E+02  0.43256046646E+02 -0.36625869540E+02  0.61433427579E+02  0.00000000000E+00 0.  1.
         11    1    4    4    0    0  0.45362746702E+02 -0.75037456537E+01 -0.29367512644E+02  0.54557637284E+02  0.00000000000E+00 0. -1.
</event>
<event>
 8    1  0.7016814E-009  0.7340250E+02  0.7561462E-02  0.1348891E+00
          1   -1    0    0  501    0  0.00000000000E+00  0.00000000000E+00  0.32562279775E+02  0.32562279775E+02  0.00000000000E+00 0. -1.
         -1   -1    0    0    0  501 -0.00000000000E+00 -0.00000000000E+00 -0.44581120321E+03  0.44581120321E+03  0.00000000000E+00 0.  1.
         25    2    1    2    0    0 -0.27326767320E+02 -0.16867717682E+02 -0.15740163631E+03  0.20360401108E+03  0.12509215044E+03 0.  0.
         23    2    1    2    0    0  0.27326767320E+02  0.16867717682E+02 -0.25584728712E+03  0.27476947190E+03  0.94916575216E+02 0.  0.
          5    1    3    3  502    0 -0.18995669171E+02  0.27254052290E+02 -0.15485839950E+03  0.15843678585E+03  0.41800000000E+01 0. -1.
         -5    1    3    3    0  502 -0.83310981492E+01 -0.44121769972E+02 -0.25432368118E+01  0.45167225233E+02  0.41800000000E+01 0. -1.
        -11    1    4    4    0    0  0.60339648941E+01 -0.22594568151E+02 -0.10989434347E+02  0.25839715740E+02  0.00000000000E+00 0. -1.
         11    1    4    4    0    0  0.21292802426E+02  0.39462285832E+02 -0.24485785278E+03  0.24892975616E+03  0.00000000000E+00 0.  1.
</event>
<event>
 8    1  0.7016814E-009  0.7846827E+02  0.7561462E-02  0.1333455E+00
         -1   -1    0    0    0  501 -0.00000000000E+00  0.00000000000E+00  0.13874301764E+03  0.13874301764E+03  0.00000000000E+00 0.  1.
          1   -1    0    0  501    0  0.00000000000E+00 -0.00000000000E+00 -0.12976889504E+03  0.12976889504E+03  0.00000000000E+00 0. -1.
         25    2    1    2    0    0 -0.10369250314E+02 -0.38459684330E+02  0.73197800501E+02  0.15030613521E+03  0.12508935852E+03 0.  0.
         23    2    1    2    0    0  0.10369250314E+02  0.38459684330E+02 -0.64223677904E+02  0.11820577747E+03  0.90891453686E+02 0.  0.
          5    1    3    3  502    0  0.23735550748E+01 -0.51018357554E+02 -0.20226990186E+02  0.55091833362E+02  0.41800000000E+01 0. -1.
         -5    1    3    3    0  502 -0.12742805389E+02  0.12558673223E+02  0.93424790687E+02  0.95214301852E+02  0.41800000000E+01 0. -1.
        -11    1    4    4    0    0  0.44372889114E+02  0.20883124853E+02 -0.72597631887E+01  0.49575824285E+02  0.00000000000E+00 0.  1.
         11    1    4    4    0    0 -0.34003638800E+02  0.17576559477E+02 -0.56963914715E+02  0.68629953186E+02  0.00000000000E+00 0. -1.
</event>
<event>
 8    1  0.7016814E-009  0.8859142E+02  0.7561462E-02  0.1306299E+00
          1   -1    0    0  501    0  0.00000000000E+00  0.00000000000E+00  0.38016918185E+03  0.38016918185E+03  0.00000000000E+00 0. -1.
         -1   -1    0    0    0  501 -0.00000000000E+00 -0.00000000000E+00 -0.36511035983E+02  0.36511035983E+02  0.00000000000E+00 0.  1.
         25    2    1    2    0    0 -0.22900458371E+02 -0.37718324168E+02  0.17693335629E+03  0.22112645862E+03  0.12507755659E+03 0.  0.
         23    2    1    2    0    0  0.22900458371E+02  0.37718324168E+02  0.16672478958E+03  0.19555375921E+03  0.92179250981E+02 0.  0.
          5    1    3    3  502    0  0.31316913044E+02 -0.35038510999E+02  0.13813030972E+02  0.49160131410E+02  0.41800000000E+01 0. -1.
         -5    1    3    3    0  502 -0.54217371415E+02 -0.26798131688E+01  0.16312032532E+03  0.17196632721E+03  0.41800000000E+01 0. -1.
        -11    1    4    4    0    0  0.12517002320E+02 -0.16300102580E+02  0.60175449570E+00  0.20560418276E+02  0.00000000000E+00 0.  1.
         11    1    4    4    0    0  0.10383456051E+02  0.54018426748E+02  0.16612303508E+03  0.17499334094E+03  0.00000000000E+00 0. -1.
</event>
<event>
 8    1  0.7016814E-009  0.3933793E+03  0.7561462E-02  0.1046097E+00
          2   -1    0    0  501    0  0.00000000000E+00  0.00000000000E+00  0.12970897748E+04  0.12970897748E+04  0.00000000000E+00 0. -1.
         -2   -1    0    0    0  501 -0.00000000000E+00 -0.00000000000E+00 -0.12721370844E+03  0.12721370844E+03  0.00000000000E+00 0.  1.
         25    2    1    2    0    0 -0.70594695078E+02  0.38429175661E+03  0.60103320747E+03  0.72770239868E+03  0.12508436910E+03 0.  0.
         23    2    1    2    0    0  0.70594695078E+02 -0.38429175661E+03  0.56884285891E+03  0.69660108458E+03  0.94905783505E+02 0.  0.
          5    1    3    3  502    0 -0.66619739092E+02  0.30960194821E+03  0.38203303886E+03  0.49624416485E+03  0.41800000000E+01 0.  1.
         -5    1    3    3    0  502 -0.39749559854E+01  0.74689808397E+02  0.21900016861E+03  0.23145823383E+03  0.41800000000E+01 0.  1.
        -11    1    4    4    0    0  0.75608006771E+01 -0.20394991587E+03  0.35795022786E+03  0.41204502123E+03  0.00000000000E+00 0.  1.
         11    1    4    4    0    0  0.63033894401E+02 -0.18034184074E+03  0.21089263104E+03  0.28455606336E+03  0.00000000000E+00 0. -1.
</event>
<event>
 8    1  0.7016814E-009  0.1255895E+03  0.7561462E-02  0.1234151E+00
         -2   -1    0    0    0  501 -0.00000000000E+00  0.00000000000E+00  0.17292576881E+03  0.17292576881E+03  0.00000000000E+00 0.  1.
          2   -1    0    0  501    0  0.00000000000E+00 -0.00000000000E+00 -0.13697943965E+03  0.13697943965E+03  0.00000000000E+00 0. -1.
         25    2    1    2    0    0  0.79118260908E+02 -0.72495021030E+02  0.18592118509E+02  0.16585780710E+03  0.12509163850E+03 0.  0.
         23    2    1    2    0    0 -0.79118260908E+02  0.72495021030E+02  0.17354210649E+02  0.14404740136E+03  0.94515913624E+02 0.  0.
          5    1    3    3  502    0  0.42445070637E+01 -0.50177300652E+01 -0.45616949063E+02  0.46277120665E+02  0.41800000000E+01 0. -1.
         -5    1    3    3    0  502  0.74873753845E+02 -0.67477290965E+02  0.64209067572E+02  0.11958068644E+03  0.41800000000E+01 0. -1.
        -11    1    4    4    0    0 -0.10086932589E+03  0.57728138726E+02  0.94940927890E+01  0.11660744703E+03  0.00000000000E+00 0.  1.
         11    1    4    4    0    0  0.21751064979E+02  0.14766882304E+02  0.78601178603E+01  0.27439954327E+02  0.00000000000E+00 0. -1.
</event>
<event>
 8    1  0.7016814E-009  0.1096527E+03  0.7561462E-02  0.1261214E+00
         -1   -1    0    0    0  501 -0.00000000000E+00  0.00000000000E+00  0.13869247868E+02  0.13869247868E+02  0.00000000000E+00 0.  1.
          1   -1    0    0  501    0  0.00000000000E+00 -0.00000000000E+00 -0.10006307574E+04  0.10006307574E+04  0.00000000000E+00 0. -1.
         25    2    1    2    0    0 -0.37946980192E+02 -0.22932806796E+02 -0.59729380297E+03  0.61186040170E+03  0.12508947666E+03 0.  0.
         23    2    1    2    0    0  0.37946980192E+02  0.22932806796E+02 -0.38946770652E+03  0.40263960353E+03  0.92019937897E+02 0.  0.
          5    1    3    3  502    0 -0.65249638377E+02  0.18915927039E+02 -0.19675850871E+03  0.20819872899E+03  0.41800000000E+01 0. -1.
         -5    1    3    3    0  502  0.27302658185E+02 -0.41848733836E+02 -0.40053529426E+03  0.40366167271E+03  0.41800000000E+01 0. -1.
        -11    1    4    4    0    0  0.54956928126E+02 -0.17137809419E+02 -0.19275071742E+03  0.20116363371E+03  0.00000000000E+00 0.  1.
         11    1    4    4    0    0 -0.17009947935E+02  0.40070616215E+02 -0.19671698910E+03  0.20147596982E+03  0.00000000000E+00 0. -1.
</event>
<event>
 8    1  0.7016814E-009  0.1088403E+03  0.7561462E-02  0.1262733E+00
         -2   -1    0    0    0  501 -0.00000000000E+00  0.00000000000E+00  0.10767123231E+02  0.10767123231E+02  0.00000000000E+00 0.  1.
          2   -1    0    0  501    0  0.00000000000E+00 -0.00000000000E+00 -0.18266174564E+04  0.18266174564E+04  0.00000000000E+00 0. -1.
         25    2    1    2    0    0 -0.17621849304E+02 -0.30605459894E+02 -0.15169303064E+04  0.15224886238E+04  0.12508729567E+03 0.  0.
         23    2    1    2    0    0  0.17621849304E+02  0.30605459894E+02 -0.29892002679E+03  0.31489595580E+03  0.92515170725E+02 0.  0.
          5    1    3    3  502    0 -0.63690643023E+02 -0.42434966191E+02 -0.11350656308E+04  0.11376505100E+04  0.41800000000E+01 0. -1.
         -5    1    3    3    0  502  0.46068793719E+02  0.11829506297E+02 -0.38186467560E+03  0.38483811382E+03  0.41800000000E+01 0. -1.
        -11    1    4    4    0    0  0.24718147451E+02 -0.26211933778E+02 -0.17086895763E+03  0.17462603749E+03  0.00000000000E+00 0. -1.
         11    1    4    4    0    0 -0.70962981469E+01  0.56817393672E+02 -0.12805106915E+03  0.14026991831E+03  0.00000000000E+00 0.  1.
</event>
<event>
 8    1  0.7016814E-009  0.9734863E+02  0.7561462E-02  0.1285972E+00
         -2   -1    0    0    0  501 -0.00000000000E+00  0.00000000000E+00  0.13716334466E+02  0.13716334466E+02  0.00000000000E+00 0. -1.
          2   -1    0    0  501    0  0.00000000000E+00 -0.00000000000E+00 -0.91852109526E+03  0.91852109526E+03  0.00000000000E+00 0.  1.
         25    2    1    2    0    0  0.77648372559E+01  0.24415595832E+02 -0.53209365618E+03  0.54719998383E+03  0.12509096423E+03 0.  0.
         23    2    1    2    0    0 -0.77648372559E+01 -0.24415595832E+02 -0.37271110462E+03  0.38503744591E+03  0.93187194544E+02 0.  0.
          5    1    3    3  502    0  0.51015182436E+02  0.17297417006E+02 -0.45674369594E+03  0.45992828316E+03  0.41800000000E+01 0.  1.
         -5    1    3    3    0  502 -0.43250345180E+02  0.71181788266E+01 -0.75349960244E+02  0.87271700664E+02  0.41800000000E+01 0.  1.
        -11    1    4    4    0    0  0.40679393143E+02  0.33193724596E+01 -0.15487248391E+03  0.16016028700E+03  0.00000000000E+00 0.  1.
         11    1    4    4    0    0 -0.48444230398E+02 -0.27734968292E+02 -0.21783862071E+03  0.22487715891E+03  0.00000000000E+00 0. -1.
</event>
<event>
 8    1  0.7016814E-009  0.9197943E+02  0.7561462E-02  0.1298128E+00
          1   -1    0    0  501    0  0.00000000000E+00  0.00000000000E+00  0.67562671672E+02  0.67562671672E+02  0.00000000000E+00 0. -1.
         -1   -1    0    0    0  501 -0.00000000000E+00 -0.00000000000E+00 -0.20725412089E+03  0.20725412089E+03  0.00000000000E+00 0.  1.
         25    2    1    2    0    0  0.28953615698E+02 -0.15577216719E+02 -0.11754291559E+03  0.17476902095E+03  0.12508761784E+03 0.  0.
         23    2    1    2    0    0 -0.28953615698E+02  0.15577216719E+02 -0.22148533635E+02  0.10004777161E+03  0.91858791196E+02 0.  0.
          5    1    3    3  502    0  0.29300706575E+02 -0.65850093229E+02 -0.95493800597E+02  0.11971342672E+03  0.41800000000E+01 0. -1.
         -5    1    3    3    0  502 -0.34709087727E+00  0.50272876511E+02 -0.22049114990E+02  0.55055594235E+02  0.41800000000E+01 0. -1.
        -11    1    4    4    0    0 -0.37487440774E+01 -0.18530180235E+02  0.28367230375E+02  0.34089887370E+02  0.00000000000E+00 0. -1.
         11    1    4    4    0    0 -0.25204871621E+02  0.34107396954E+02 -0.50515764011E+02  0.65957884244E+02  0.00000000000E+00 0.  1.
</event>
<event>
 8    1  0.7016814E-009  0.2492244E+03  0.7561462E-02  0.1113796E+00
         -2   -1    0    0    0  501 -0.00000000000E+00  0.00000000000E+00  0.34810901373E+02  0.34810901373E+02  0.00000000000E+00 0.  1.
          2   -1    0    0  501    0  0.00000000000E+00 -0.00000000000E+00 -0.25569597916E+04  0.25569597916E+04  0.00000000000E+00 0. -1.
         25    2    1    2    0    0  0.20217400635E+03  0.13021114718E+03 -0.18873217016E+04  0.19066884606E+04  0.12509359996E+03 0.  0.
         23    2    1    2    0    0 -0.20217400635E+03 -0.13021114718E+03 -0.63482718865E+03  0.68508223239E+03  0.92210812837E+02 0.  0.
          5    1    3    3  502    0  0.36446391053E+01 -0.57643077331E+01 -0.59076732515E+01  0.99440253970E+01  0.41800000000E+01 0.  1.
         -5    1    3    3    0  502  0.19852936725E+03  0.13597545491E+03 -0.18814140284E+04  0.18967444352E+04  0.41800000000E+01 0.  1.
        -11    1    4    4    0    0 -0.12889919862E+03 -0.11942268446E+03 -0.36220345465E+03  0.40257685419E+03  0.00000000000E+00 0.  1.
         11    1    4    4    0    0 -0.73274807736E+02 -0.10788462712E+02 -0.27262373400E+03  0.28250537821E+03  0.00000000000E+00 0. -1.
</event>
<event>
 8    1  0.7016814E-009  0.1067550E+03  0.7561462E-02  0.1266700E+00
          1   -1    0    0  501    0  0.00000000000E+00  0.00000000000E+00  0.16550696027E+03  0.16550696027E+03  0.00000000000E+00 0. -1.
         -1   -1    0    0    0  501 -0.00000000000E+00 -0.00000000000E+00 -0.81695846499E+02  0.81695846499E+02  0.00000000000E+00 0.  1.
         25    2    1    2    0    0 -0.22672908882E+02  0.68178264949E+01  0.85821814018E+02  0.15354059259E+03  0.12509510884E+03 0.  0.
         23    2    1    2    0    0  0.22672908882E+02 -0.68178264949E+01 -0.20107002462E+01  0.93662214180E+02  0.90598145093E+02 0.  0.
          5    1    3    3  502    0 -0.23461731831E+02  0.64631917566E+02  0.53072637676E+02  0.86959271493E+02  0.41800000000E+01 0. -1.
         -5    1    3    3    0  502  0.78882294919E+00 -0.57814091071E+02  0.32749176342E+02  0.66581321098E+02  0.41800000000E+01 0. -1.
        -11    1    4    4    0    0 -0.18869491301E+01  0.36665670452E+02 -0.18445687206E+02  0.41087411007E+02  0.00000000000E+00 0.  1.
         11    1    4    4    0    0  0.24559858012E+02 -0.43483496947E+02  0.16434986960E+02  0.52574803173E+02  0.00000000000E+00 0. -1.
</event>
<event>
 8    1  0.7016814E-009  0.2058262E+03  0.7561462E-02  0.1144914E+00
         -2   -1    0    0    0  501 -0.00000000000E+00  0.00000000000E+00  0.18663713563E+02  0.18663713563E+02  0.00000000000E+00 0.  1.
          2   -1    0    0  501    0  0.00000000000E+00 -0.00000000000E+00 -0.24148415492E+04  0.24148415492E+04  0.00000000000E+00 0. -1.
         25    2    1    2    0    0 -0.17796229127E+03 -0.22158618717E+02 -0.14405865805E+04  0.14570858776E+04  0.12509187501E+03 0.  0.
         23    2    1    2    0    0  0.17796229127E+03  0.22158618717E+02 -0.95559125513E+03  0.97641938519E+03  0.89880962373E+02 0.  0.
          5    1    3    3  502    0 -0.48140332074E+02  0.49767332010E+02 -0.51918435341E+03  0.52379780844E+03  0.41800000000E+01 0. -1.
         -5    1    3    3    0  502 -0.12982195919E+03 -0.71925950727E+02 -0.92140222710E+03  0.93328806913E+03  0.41800000000E+01 0. -1.
        -11    1    4    4    0    0  0.37831388820E+02  0.36974971290E+02 -0.16209792553E+03  0.17051128978E+03  0.00000000000E+00 0. -1.
         11    1    4    4    0    0  0.14013090245E+03 -0.14816352574E+02 -0.79349332960E+03  0.80590809541E+03  0.00000000000E+00 0.  1.
</event>
<event>
 8    1  0.7016814E-009  0.1295254E+03  0.7561462E-02  0.1228162E+00
         -2   -1    0    0    0  501 -0.00000000000E+00  0.00000000000E+00  0.88509010807E+02  0.88509010807E+02  0.00000000000E+00 0.  1.
          2   -1    0    0  501    0  0.00000000000E+00 -0.00000000000E+00 -0.24485072640E+03  0.24485072640E+03  0.00000000000E+00 0. -1.
         25    2    1    2    0    0 -0.87930739081E+02 -0.37825816808E+01 -0.33044511173E+02  0.15648125135E+03  0.12509324325E+03 0.  0.
         23    2    1    2    0    0  0.87930739081E+02  0.37825816808E+01 -0.12329720442E+03  0.17687848585E+03  0.91310871973E+02 0.  0.
          5    1    3    3  502    0 -0.59110227819E+02  0.50091013169E+02 -0.50770224766E+02  0.92726569848E+02  0.41800000000E+01 0. -1.
         -5    1    3    3    0  502 -0.28820511263E+02 -0.53873594850E+02  0.17725713592E+02  0.63754681505E+02  0.41800000000E+01 0. -1.
        -11    1    4    4    0    0  0.16574746406E+01  0.30002046677E+02 -0.91434592429E+01  0.31408165720E+02  0.00000000000E+00 0.  1.
         11    1    4    4    0    0  0.86273264441E+02 -0.26219464996E+02 -0.11415374517E+03  0.14547032013E+03  0.00000000000E+00 0. -1.
</event>
<event>
 8    1  0.7016814E-009  0.1583506E+03  0.7561462E-02  0.1190572E+00
         -1   -1    0    0    0  501 -0.00000000000E+00  0.00000000000E+00  0.15170061850E+03  0.15170061850E+03  0.00000000000E+00 0.  1.
          1   -1    0    0  501    0  0.00000000000E+00 -0.00000000000E+00 -0.25001120808E+03  0.25001120808E+03  0.00000000000E+00 0. -1.
         25    2    1    2    0    0 -0.11739163040E+03 -0.77921179383E+02 -0.13309736580E+03  0.23068331326E+03  0.12508947657E+03 0.  0.
         23    2    1    2    0    0  0.11739163040E+03  0.77921179383E+02  0.34786776224E+02  0.17102851332E+03  0.90488272619E+02 0.  0.
          5    1    3    3  502    0  0.11127201347E+02 -0.20839565713E+02 -0.74523189249E+02  0.78289719917E+02  0.41800000000E+01 0.  1.
         -5    1    3    3    0  502 -0.12851883175E+03 -0.57081613670E+02 -0.58574176556E+02  0.15239359335E+03  0.41800000000E+01 0.  1.
        -11    1    4    4    0    0  0.95569028076E+02  0.31328491261E+02  0.56303399654E+02  0.11526051494E+03  0.00000000000E+00 0. -1.
         11    1    4    4    0    0  0.21822602327E+02  0.46592688121E+02 -0.21516623430E+02  0.55767998373E+02  0.00000000000E+00 0.  1.
</event>
<event>
 8    1  0.7016814E-009  0.1396254E+03  0.7561462E-02  0.1213834E+00
          2   -1    0    0  501    0  0.00000000000E+00  0.00000000000E+00  0.63984221415E+03  0.63984221415E+03  0.00000000000E+00 0. -1.
         -2   -1    0    0    0  501 -0.00000000000E+00 -0.00000000000E+00 -0.48272775961E+02  0.48272775961E+02  0.00000000000E+00 0.  1.
         25    2    1    2    0    0  0.10792638190E+03 -0.51630653644E+02  0.44252691224E+03  0.47517497489E+03  0.12508940963E+03 0.  0.
         23    2    1    2    0    0 -0.10792638190E+03  0.51630653644E+02  0.14904252595E+03  0.21294001522E+03  0.93893275775E+02 0.  0.
          5    1    3    3  502    0  0.19096590122E+02  0.23898672503E+02  0.23565836237E+03  0.23767238472E+03  0.41800000000E+01 0.  1.
         -5    1    3    3    0  502  0.88829791773E+02 -0.75529326146E+02  0.20686854986E+03  0.23750259017E+03  0.41800000000E+01 0.  1.
        -11    1    4    4    0    0 -0.76289436834E+02  0.62108043364E+02  0.15025166521E+03  0.17959134200E+03  0.00000000000E+00 0. -1.
         11    1    4    4    0    0 -0.31636945061E+02 -0.10477389720E+02 -0.12091392538E+01  0.33348673225E+02  0.00000000000E+00 0.  1.
</event>
<event>
 8    1  0.7016814E-009  0.8693204E+02  0.7561462E-02  0.1310456E+00
         -2   -1    0    0    0  501 -0.00000000000E+00  0.00000000000E+00  0.10944455568E+03  0.10944455568E+03  0.00000000000E+00 0. -1.
          2   -1    0    0  501    0  0.00000000000E+00 -0.00000000000E+00 -0.15227242318E+03  0.15227242318E+03  0.00000000000E+00 0.  1.
         25    2    1    2    0    0 -0.18509350513E+02  0.20440576739E+02 -0.91483962594E+02  0.15740424234E+03  0.12508543824E+03 0.  0.
         23    2    1    2    0    0  0.18509350513E+02 -0.20440576739E+02  0.48656095092E+02  0.10431273653E+03  0.88052928278E+02 0.  0.
          5    1    3    3  502    0 -0.64434223992E+00  0.52988576909E+02  0.55301223940E+01  0.53443981078E+02  0.41800000000E+01 0. -1.
         -5    1    3    3    0  502 -0.17865008273E+02 -0.32548000170E+02 -0.97014084988E+02  0.10396026126E+03  0.41800000000E+01 0. -1.
        -11    1    4    4    0    0  0.32209256961E+02  0.21829128263E+02  0.67264942446E+00  0.38915286610E+02  0.00000000000E+00 0.  1.
         11    1    4    4    0    0 -0.13699906448E+02 -0.42269705002E+02  0.47983445668E+02  0.65397449918E+02  0.00000000000E+00 0. -1.
</event>
<event>
 8    1  0.7016814E-009  0.9625012E+02  0.7561462E-02  0.1288385E+00
          1   -1    0    0  501    0  0.00000000000E+00  0.00000000000E+00  0.12455862999E+04  0.12455862999E+04  0.00000000000E+00 0. -1.
         -1   -1    0    0    0  501 -0.00000000000E+00 -0.00000000000E+00 -0.22662396269E+02  0.22662396269E+02  0.00000000000E+00 0.  1.
         25    2    1    2    0    0 -0.32356071973E+02 -0.17782163765E+02  0.11146235417E+04  0.11222278496E+04  0.12508631365E+03 0.  0.
         23    2    1    2    0    0  0.32356071973E+02  0.17782163765E+02  0.10830036190E+03  0.14602084658E+03  0.90719339215E+02 0.  0.
          5    1    3    3  502    0  0.24646088291E+02  0.24779578388E+02  0.74301438028E+03  0.74384763149E+03  0.41800000000E+01 0. -1.
         -5    1    3    3    0  502 -0.57002160264E+02 -0.42561742153E+02  0.37160916142E+03  0.37838021806E+03  0.41800000000E+01 0. -1.
        -11    1    4    4    0    0 -0.25286975533E+02  0.12350204678E+02  0.64615298200E+01  0.28874037729E+02  0.00000000000E+00 0.  1.
         11    1    4    4    0    0  0.57643047505E+02  0.54319590871E+01  0.10183883208E+03  0.11714680886E+03  0.00000000000E+00 0. -1.
</event>
<event>
 8    1  0.7016814E-009  0.1374915E+03  0.7561462E-02  0.1216745E+00
         -2   -1    0    0    0  501 -0.00000000000E+00  0.00000000000E+00  0.30179833658E+02  0.30179833658E+02  0.00000000000E+00 0. -1.
          2   -1    0    0  501    0  0.00000000000E+00 -0.00000000000E+00 -0.84874103727E+03  0.84874103727E+03  0.00000000000E+00 0.  1.
         25    2    1    2    0    0  0.11152933195E+03  0.86760391547E+01 -0.52748595930E+03  0.55353328955E+03  0.12507437721E+03 0.  0.
         23    2    1    2    0    0 -0.11152933195E+03 -0.86760391547E+01 -0.29107524430E+03  0.32538758137E+03  0.92941996567E+02 0.  0.
          5    1    3    3  502    0  0.13585353493E+03  0.77660901070E+01 -0.37263373257E+03  0.39672391680E+03  0.41800000000E+01 0. -1.
         -5    1    3    3    0  502 -0.24324202985E+02  0.90994904771E+00 -0.15485222673E+03  0.15680937275E+03  0.41800000000E+01 0. -1.
        -11    1    4    4    0    0 -0.43553834903E+02  0.76913713466E+01 -0.22459623120E+03  0.22890950351E+03  0.00000000000E+00 0.  1.
         11    1    4    4    0    0 -0.67975497047E+02 -0.16367410501E+02 -0.66479013105E+02  0.96478077866E+02  0.00000000000E+00 0. -1.
</event>
<event>
 8    1  0.7016814E-009  0.1386834E+03  0.7561462E-02  0.1215112E+00
          1   -1    0    0  501    0  0.00000000000E+00  0.00000000000E+00  0.93507531653E+03  0.93507531653E+03  0.00000000000E+00 0. -1.
         -1   -1    0    0    0  501 -0.00000000000E+00 -0.00000000000E+00 -0.31794509584E+02  0.31794509584E+02  0.00000000000E+00 0.  1.
         25    2    1    2    0    0  0.68325454936E+01 -0.11911881833E+03  0.65236476865E+03  0.67488051855E+03  0.12509175181E+03 0.  0.
         23    2    1    2    0    0 -0.68325454936E+01  0.11911881833E+03  0.25091603829E+03  0.29198930757E+03  0.89793768735E+02 0.  0.
          5    1    3    3  502    0 -0.47751579550E+02 -0.59424683273E+02  0.45791813454E+03  0.46423915892E+03  0.41800000000E+01 0.  1.
         -5    1    3    3    0  502  0.54584125044E+02 -0.59694135060E+02  0.19444663411E+03  0.21064135963E+03  0.41800000000E+01 0.  1.
        -11    1    4    4    0    0  0.38040708204E+01  0.42482923467E+02  0.17533378314E+02  0.46116039467E+02  0.00000000000E+00 0.  1.
         11    1    4    4    0    0 -0.10636616314E+02  0.76635894867E+02  0.23338265997E+03  0.24587326810E+03  0.00000000000E+00 0. -1.
</event>
<event>
 8    1  0.7016814E-009  0.1665833E+03  0.7561462E-02  0.1181458E+00
          1   -1    0    0  501    0  0.00000000000E+00  0.00000000000E+00  0.20547944279E+03  0.20547944279E+03  0.00000000000E+00 0. -1.
         -1   -1    0    0    0  501 -0.00000000000E+00 -0.00000000000E+00 -0.19177727499E+03  0.19177727499E+03  0.00000000000E+00 0.  1.
         25    2    1    2    0    0  0.81653150290E+02  0.13029184946E+03  0.69935181928E+02  0.21019355192E+03  0.12508875492E+03 0.  0.
         23    2    1    2    0    0 -0.81653150290E+02 -0.13029184946E+03 -0.56233014132E+02  0.18706316587E+03  0.90483551862E+02 0.  0.
          5    1    3    3  502    0  0.99162765842E+01  0.20883192054E+01 -0.30350431517E+02  0.32269408294E+02  0.41800000000E+01 0.  1.
         -5    1    3    3    0  502  0.71736873705E+02  0.12820353026E+03  0.10028561344E+03  0.17792414362E+03  0.41800000000E+01 0.  1.
        -11    1    4    4    0    0 -0.35562331748E+02  0.15233221550E+01  0.22591140548E+01  0.35666560615E+02  0.00000000000E+00 0.  1.
         11    1    4    4    0    0 -0.46090818541E+02 -0.13181517162E+03 -0.58492128186E+02  0.15139660525E+03  0.00000000000E+00 0. -1.
</event>
<event>
 8    1  0.7016814E-009  0.7651296E+02  0.7561462E-02  0.1339249E+00
         -1   -1    0    0    0  501 -0.00000000000E+00  0.00000000000E+00  0.17465773857E+02  0.17465773857E+02  0.00000000000E+00 0.  1.
          1   -1    0    0  501    0  0.00000000000E+00 -0.00000000000E+00 -0.89644287682E+03  0.89644287682E+03  0.00000000000E+00 0. -1.
         25    2    1    2    0    0  0.47876779308E+02  0.14304493096E+01 -0.61424998311E+03  0.62868423519E+03  0.12508634474E+03 0.  0.
         23    2    1    2    0    0 -0.47876779308E+02 -0.14304493096E+01 -0.26472711986E+03  0.28522441550E+03  0.94753823270E+02 0.  0.
          5    1    3    3  502    0  0.62672507323E+02 -0.71385706890E+01 -0.60592412990E+03  0.60921287409E+03  0.41800000000E+01 0.  1.
         -5    1    3    3    0  502 -0.14795728015E+02  0.85690199986E+01 -0.83258532127E+01  0.19471361097E+02  0.41800000000E+01 0.  1.
        -11    1    4    4    0    0  0.11753044764E+02  0.37934916124E+01  0.14178221842E+01  0.12431205074E+02  0.00000000000E+00 0.  1.
         11    1    4    4    0    0 -0.59629824072E+02 -0.52239409220E+01 -0.26614494204E+03  0.27279321042E+03  0.00000000000E+00 0. -1.
</event>
<event>
 8    1  0.7016814E-009  0.7666612E+02  0.7561462E-02  0.1338788E+00
         -2   -1    0    0    0  501 -0.00000000000E+00  0.00000000000E+00  0.41824020805E+03  0.41824020805E+03  0.00000000000E+00 0.  1.
          2   -1    0    0  501    0  0.00000000000E+00 -0.00000000000E+00 -0.29426495202E+02  0.29426495202E+02  0.00000000000E+00 0. -1.
         25    2    1    2    0    0 -0.30988983328E+02  0.39714705204E+01  0.21614926745E+03  0.25167261001E+03  0.12507000897E+03 0.  0.
         23    2    1    2    0    0  0.30988983328E+02 -0.39714705204E+01  0.17266444540E+03  0.19599409324E+03  0.87318865173E+02 0.  0.
          5    1    3    3  502    0 -0.35520762530E+02 -0.30169976483E+02  0.21156481056E+03  0.21667739503E+03  0.41800000000E+01 0. -1.
         -5    1    3    3    0  502  0.45317792020E+01  0.34141447003E+02  0.45844568890E+01  0.34995214975E+02  0.41800000000E+01 0. -1.
        -11    1    4    4    0    0  0.55967235922E+01 -0.32890090696E+02  0.14450806162E+03  0.14830934311E+03  0.00000000000E+00 0.  1.
         11    1    4    4    0    0  0.25392259736E+02  0.28918620176E+02  0.28156383776E+02  0.47684750127E+02  0.00000000000E+00 0. -1.
</event>
<event>
 8    1  0.7016814E-009  0.7766433E+02  0.7561462E-02  0.1335813E+00
         -2   -1    0    0    0  501 -0.00000000000E+00  0.00000000000E+00  0.19667330179E+03  0.19667330179E+03  0.00000000000E+00 0.  1.
          2   -1    0    0  501    0  0.00000000000E+00 -0.00000000000E+00 -0.13296151172E+03  0.13296151172E+03  0.00000000000E+00 0. -1.
         25    2    1    2    0    0 -0.46113569203E+02 -0.54635000981E+02  0.13154694290E+03  0.19509030041E+03  0.12507670659E+03 0.  0.
         23    2    1    2    0    0  0.46113569203E+02  0.54635000981E+02 -0.67835152823E+02  0.13454451310E+03  0.91592431179E+02 0.  0.
          5    1    3    3  502    0 -0.25794594059E+01  0.38251369335E+01  0.12119091964E+03  0.12135071770E+03  0.41800000000E+01 0. -1.
         -5    1    3    3    0  502 -0.43534109797E+02 -0.58460137914E+02  0.10356023258E+02  0.73739582712E+02  0.41800000000E+01 0. -1.
        -11    1    4    4    0    0  0.39120622508E+02  0.26863612876E+02  0.12652490435E+02  0.49113769112E+02  0.00000000000E+00 0.  1.
         11    1    4    4    0    0  0.69929466945E+01  0.27771388104E+02 -0.80487643257E+02  0.85430743985E+02  0.00000000000E+00 0. -1.
</event>
<event>
 8    1  0.7016814E-009  0.1597717E+03  0.7561462E-02  0.1188955E+00
         -1   -1    0    0    0  501 -0.00000000000E+00  0.00000000000E+00  0.77048494744E+02  0.77048494744E+02  0.00000000000E+00 0.  1.
          1   -1    0    0  501    0  0.00000000000E+00 -0.00000000000E+00 -0.41547591100E+03  0.41547591100E+03  0.00000000000E+00 0. -1.
         25    2    1    2    0    0 -0.83356751245E+02  0.11499169308E+03 -0.17240358743E+03  0.25601108536E+03  0.12508893403E+03 0.  0.
         23    2    1    2    0    0  0.83356751245E+02 -0.11499169308E+03 -0.16602382883E+03  0.23651332038E+03  0.90571527112E+02 0.  0.
          5    1    3    3  502    0 -0.12420403304E+02  0.76565982000E+02 -0.15499796668E+03  0.17337375261E+03  0.41800000000E+01 0.  1.
         -5    1    3    3    0  502 -0.70936347941E+02  0.38425711078E+02 -0.17405620741E+02  0.82637332753E+02  0.41800000000E+01 0.  1.
        -11    1    4    4    0    0  0.96258548866E+01 -0.77997500083E+02 -0.46591746840E+02  0.91362234951E+02  0.00000000000E+00 0.  1.
         11    1    4    4    0    0  0.73730896359E+02 -0.36994192994E+02 -0.11943208199E+03  0.14515108543E+03  0.00000000000E+00 0. -1.
</event>
<event>
 8    1  0.7016814E-009  0.1999983E+03  0.7561462E-02  0.1149740E+00
          3   -1    0    0  501    0  0.00000000000E+00  0.00000000000E+00  0.40107700063E+03  0.40107700063E+03  0.00000000000E+00 0. -1.
         -3   -1    0    0    0  501 -0.00000000000E+00 -0.00000000000E+00 -0.11488813097E+03  0.11488813097E+03  0.00000000000E+00 0.  1.
         25    2    1    2    0    0 -0.16917875146E+03 -0.40150410507E+02  0.22347087177E+03  0.30954881941E+03  0.12509090958E+03 0.  0.
         23    2    1    2    0    0  0.16917875146E+03  0.40150410507E+02  0.62717997893E+02  0.20641631219E+03  0.91872962653E+02 0.  0.
          5    1    3    3  502    0 -0.40591887986E+02 -0.69455246464E+02  0.10399365697E+03  0.13154423485E+03  0.41800000000E+01 0. -1.
         -5    1    3    3    0  502 -0.12858686348E+03  0.29304835957E+02  0.11947721480E+03  0.17800458457E+03  0.41800000000E+01 0. -1.
        -11    1    4    4    0    0  0.78834181665E+02 -0.16921137839E+02 -0.34933200211E+01  0.80705367785E+02  0.00000000000E+00 0. -1.
         11    1    4    4    0    0  0.90344569799E+02  0.57071548346E+02  0.66211317914E+02  0.12571094440E+03  0.00000000000E+00 0.  1.
</event>
<event>
 8    1  0.7016814E-009  0.6143045E+02  0.7561462E-02  0.1391925E+00
          3   -1    0    0  501    0  0.00000000000E+00  0.00000000000E+00  0.17833978694E+02  0.17833978694E+02  0.00000000000E+00 0. -1.
         -3   -1    0    0    0  501 -0.00000000000E+00 -0.00000000000E+00 -0.73315646885E+03  0.73315646885E+03  0.00000000000E+00 0.  1.
         25    2    1    2    0    0 -0.15010549918E+02  0.25119224448E+02 -0.51563456463E+03  0.53140033825E+03  0.12510404952E+03 0.  0.
         23    2    1    2    0    0  0.15010549918E+02 -0.25119224448E+02 -0.19968792552E+03  0.21959010929E+03  0.86534712412E+02 0.  0.
          5    1    3    3  502    0 -0.18483038962E+02  0.19205173049E+02 -0.52102784704E+03  0.52172593495E+03  0.41800000000E+01 0. -1.
         -5    1    3    3    0  502  0.34724890440E+01  0.59140513987E+01  0.53932824140E+01  0.96744033049E+01  0.41800000000E+01 0. -1.
        -11    1    4    4    0    0  0.12138373475E+02  0.30151823553E+02 -0.10497634911E+03  0.10989315923E+03  0.00000000000E+00 0.  1.
         11    1    4    4    0    0  0.28721764434E+01 -0.55271048001E+02 -0.94711576418E+02  0.10969695006E+03  0.00000000000E+00 0. -1.
</event>
<event>
 8    1  0.7016814E-009  0.1179630E+03  0.7561462E-02  0.1246496E+00
         -1   -1    0    0    0  501 -0.00000000000E+00  0.00000000000E+00  0.22427649494E+02  0.22427649494E+02  0.00000000000E+00 0.  1.
          1   -1    0    0  501    0  0.00000000000E+00 -0.00000000000E+00 -0.98275465648E+03  0.98275465648E+03  0.00000000000E+00 0. -1.
         25    2    1    2    0    0 -0.60888143033E+02  0.45019517571E+01 -0.79590762920E+03  0.80798744645E+03  0.12508847215E+03 0.  0.
         23    2    1    2    0    0  0.60888143033E+02 -0.45019517571E+01 -0.16441937779E+03  0.19719485953E+03  0.90135716012E+02 0.  0.
          5    1    3    3  502    0 -0.38848991711E+02 -0.54334084855E+02 -0.26336823267E+03  0.27173835819E+03  0.41800000000E+01 0. -1.
         -5    1    3    3    0  502 -0.22039151322E+02  0.58836036613E+02 -0.53253939653E+03  0.53624908825E+03  0.41800000000E+01 0. -1.
        -11    1    4    4    0    0 -0.10537630617E+01 -0.36362996539E+02 -0.36456700002E+02  0.51502125286E+02  0.00000000000E+00 0.  1.
         11    1    4    4    0    0  0.61941906095E+02  0.31861044782E+02 -0.12796267779E+03  0.14569273424E+03  0.00000000000E+00 0. -1.
</event>
<event>
 8    1  0.7016814E-009  0.7859776E+02  0.7561462E-02  0.1333079E+00
         -4   -1    0    0    0  501 -0.00000000000E+00  0.00000000000E+00  0.37624681755E+02  0.37624681755E+02  0.00000000000E+00 0.  1.
          4   -1    0    0  501    0  0.00000000000E+00 -0.00000000000E+00 -0.37121727216E+03  0.37121727216E+03  0.00000000000E+00 0. -1.
         25    2    1    2    0    0  0.13431352402E+02 -0.35059485407E+02 -0.14150309967E+03  0.19256517401E+03  0.12509456536E+03 0.  0.
         23    2    1    2    0    0 -0.13431352402E+02  0.35059485407E+02 -0.19208949074E+03  0.21627677991E+03  0.92020130028E+02 0.  0.
          5    1    3    3  502    0  0.34277127896E+02 -0.46975098132E+01 -0.15045129969E+03  0.15443462718E+03  0.41800000000E+01 0.  1.
         -5    1    3    3    0  502 -0.20845775494E+02 -0.30361975593E+02  0.89482000189E+01  0.38130546829E+02  0.41800000000E+01 0.  1.
        -11    1    4    4    0    0 -0.44927447607E+02  0.12808455879E+02 -0.15814890181E+03  0.16490484296E+03  0.00000000000E+00 0. -1.
         11    1    4    4    0    0  0.31496095204E+02  0.22251029528E+02 -0.33940588930E+02  0.51371936941E+02  0.00000000000E+00 0.  1.
</event>
<event>
 8    1  0.7016814E-009  0.1019046E+03  0.7561462E-02  0.1276341E+00
         -1   -1    0    0    0  501 -0.00000000000E+00  0.00000000000E+00  0.26894579728E+03  0.26894579728E+03  0.00000000000E+00 0.  1.
          1   -1    0    0  501    0  0.00000000000E+00 -0.00000000000E+00 -0.60787500056E+02  0.60787500056E+02  0.00000000000E+00 0. -1.
         25    2    1    2    0    0 -0.39962640717E+02 -0.29549939427E+02  0.57352995347E+02  0.14631684607E+03  0.12509613021E+03 0.  0.
         23    2    1    2    0    0  0.39962640717E+02  0.29549939427E+02  0.15080530187E+03  0.18341645127E+03  0.91810369506E+02 0.  0.
          5    1    3    3  502    0 -0.29767415779E+02  0.31562806798E+02  0.70458929492E+02  0.82850726975E+02  0.41800000000E+01 0.  1.
         -5    1    3    3    0  502 -0.10195224937E+02 -0.61112746225E+02 -0.13105934144E+02  0.63466119091E+02  0.41800000000E+01 0.  1.
        -11    1    4    4    0    0  0.61740183576E+02  0.40436663796E+00  0.62238538985E+02  0.87667836265E+02  0.00000000000E+00 0. -1.
         11    1    4    4    0    0 -0.21777542859E+02  0.29145572789E+02  0.88566762887E+02  0.95748615000E+02  0.00000000000E+00 0.  1.
</event>
<event>
 8    1  0.7016814E-009  0.1302409E+03  0.7561462E-02  0.1227099E+00
          1   -1    0    0  501    0  0.00000000000E+00  0.00000000000E+00  0.21273070281E+03  0.21273070281E+03  0.00000000000E+00 0. -1.
         -1   -1    0    0    0  501 -0.00000000000E+00 -0.00000000000E+00 -0.96256291695E+02  0.96256291695E+02  0.00000000000E+00 0.  1.
         25    2    1    2    0    0  0.35195565367E+02 -0.86096148398E+02  0.72012059501E+02  0.17171016162E+03  0.12508944120E+03 0.  0.
         23    2    1    2    0    0 -0.35195565367E+02  0.86096148398E+02  0.44462351616E+02  0.13727683288E+03  0.90646310156E+02 0.  0.
          5    1    3    3  502    0 -0.71230800316E+01 -0.10044615640E+03  0.19538838784E+02  0.10266161515E+03  0.41800000000E+01 0. -1.
         -5    1    3    3    0  502  0.42318645398E+02  0.14350007998E+02  0.52473220717E+02  0.69048546475E+02  0.41800000000E+01 0. -1.
        -11    1    4    4    0    0 -0.54208311483E+02  0.48731544564E+02 -0.42398583428E+01  0.73015620714E+02  0.00000000000E+00 0.  1.
         11    1    4    4    0    0  0.19012746117E+02  0.37364603835E+02  0.48702209959E+02  0.64261212170E+02  0.00000000000E+00 0. -1.
</event>
<event>
 8    1  0.7016814E-009  0.1359483E+03  0.7561462E-02  0.1218887E+00
         -1   -1    0    0    0  501 -0.00000000000E+00  0.00000000000E+00  0.33832033821E+02  0.33832033821E+02  0.00000000000E+00 0.  1.
          1   -1    0    0  501    0  0.00000000000E+00 -0.00000000000E+00 -0.72200164497E+03  0.72200164497E+03  0.00000000000E+00 0. -1.
         25    2    1    2    0    0  0.91029508004E+02  0.61709466830E+02 -0.31559784547E+03  0.35685261393E+03  0.12508940155E+03 0.  0.
         23    2    1    2    0    0 -0.91029508004E+02 -0.61709466830E+02 -0.37257176568E+03  0.39898106486E+03  0.91004065351E+02 0.  0.
          5    1    3    3  502    0  0.98284039994E+02  0.89134419864E+02 -0.28768510671E+03  0.31683574664E+03  0.41800000000E+01 0.  1.
         -5    1    3    3    0  502 -0.72545319893E+01 -0.27424953033E+02 -0.27912738756E+02  0.40016867295E+02  0.41800000000E+01 0.  1.
        -11    1    4    4    0    0 -0.48993297814E+02 -0.39485687790E+02 -0.32741294942E+03  0.33340471236E+03  0.00000000000E+00 0. -1.
         11    1    4    4    0    0 -0.42036210190E+02 -0.22223779040E+02 -0.45158816257E+02  0.65576352504E+02  0.00000000000E+00 0.  1.
</event>
<event>
 8    1  0.7016814E-009  0.1464389E+03  0.7561462E-02  0.1204918E+00
          1   -1    0    0  501    0  0.00000000000E+00  0.00000000000E+00  0.32948414878E+03  0.32948414878E+03  0.00000000000E+00 0. -1.
         -1   -1    0    0    0  501 -0.00000000000E+00 -0.00000000000E+00 -0.79721168650E+02  0.79721168650E+02  0.00000000000E+00 0.  1.
         25    2    1    2    0    0 -0.10913823467E+03  0.12229913478E+02  0.72452940605E+02  0.18153814999E+03  0.12508375694E+03 0.  0.
         23    2    1    2    0    0  0.10913823467E+03 -0.12229913478E+02  0.17731003952E+03  0.22766716743E+03  0.91283974287E+02 0.  0.
          5    1    3    3  502    0 -0.13260144004E+03 -0.99311073583E+01  0.50591504725E+02  0.14233320605E+03  0.41800000000E+01 0. -1.
         -5    1    3    3    0  502  0.23463205372E+02  0.22161020837E+02  0.21861435880E+02  0.39204943943E+02  0.41800000000E+01 0. -1.
        -11    1    4    4    0    0  0.59510515999E+02  0.25709970982E+02  0.14154669762E+03  0.15568548978E+03  0.00000000000E+00 0. -1.
         11    1    4    4    0    0  0.49627718670E+02 -0.37939884460E+02  0.35763341904E+02  0.71981677651E+02  0.00000000000E+00 0.  1.
</event>
<event>
 8    1  0.7016814E-009  0.1405163E+03  0.7561462E-02  0.1212636E+00
         -2   -1    0    0    0  501 -0.00000000000E+00  0.00000000000E+00  0.48646330430E+02  0.48646330430E+02  0.00000000000E+00 0.  1.
          2   -1    0    0  501    0  0.00000000000E+00 -0.00000000000E+00 -0.47945193660E+03  0.47945193660E+03  0.00000000000E+00 0. -1.
         25    2    1    2    0    0 -0.99274456882E+02 -0.89889956073E+01 -0.16666403763E+03  0.23099506886E+03  0.12508237513E+03 0.  0.
         23    2    1    2    0    0  0.99274456882E+02  0.89889956073E+01 -0.26414156854E+03  0.29710319817E+03  0.92538220757E+02 0.  0.
          5    1    3    3  502    0 -0.72666269160E+02 -0.62691707845E+02 -0.77245101709E+02  0.12326765612E+03  0.41800000000E+01 0.  1.
         -5    1    3    3    0  502 -0.26608187722E+02  0.53702712237E+02 -0.89418935925E+02  0.10772741275E+03  0.41800000000E+01 0.  1.
        -11    1    4    4    0    0  0.64442534428E+02  0.41984122218E+02 -0.21535629284E+03  0.22867846341E+03  0.00000000000E+00 0.  1.
         11    1    4    4    0    0  0.34831922454E+02 -0.32995126611E+02 -0.48785275702E+02  0.68424734762E+02  0.00000000000E+00 0. -1.
</event>
<event>
 8    1  0.7016814E-009  0.2169509E+03  0.7561462E-02  0.1136177E+00
          1   -1    0    0  501    0  0.00000000000E+00  0.00000000000E+00  0.52490743060E+02  0.52490743060E+02  0.00000000000E+00 0. -1.
         -1   -1    0    0    0  501 -0.00000000000E+00 -0.00000000000E+00 -0.97400168819E+03  0.97400168819E+03  0.00000000000E+00 0.  1.
         25    2    1    2    0    0 -0.11058397784E+03  0.15769740690E+03 -0.37955685454E+03  0.44363163997E+03  0.12509331658E+03 0.  0.
         23    2    1    2    0    0  0.11058397784E+03 -0.15769740690E+03 -0.54195409058E+03  0.58286079128E+03  0.94420217168E+02 0.  0.
          5    1    3    3  502    0 -0.79617178130E+02  0.16994998015E+03 -0.26850981937E+03  0.32762308573E+03  0.41800000000E+01 0.  1.
         -5    1    3    3    0  502 -0.30966799711E+02 -0.12252573249E+02 -0.11104703517E+03  0.11600855424E+03  0.41800000000E+01 0.  1.
        -11    1    4    4    0    0  0.39956295304E+02 -0.14391472454E+00 -0.74494717592E+02  0.84533952912E+02  0.00000000000E+00 0.  1.
         11    1    4    4    0    0  0.70627682538E+02 -0.15755349218E+03 -0.46745937299E+03  0.49832683836E+03  0.00000000000E+00 0. -1.
</event>
<event>
 8    1  0.7016814E-009  0.1152774E+03  0.7561462E-02  0.1251098E+00
         -2   -1    0    0    0  501 -0.00000000000E+00  0.00000000000E+00  0.60276982485E+02  0.60276982485E+02  0.00000000000E+00 0.  1.
          2   -1    0    0  501    0  0.00000000000E+00 -0.00000000000E+00 -0.26506050171E+03  0.26506050171E+03  0.00000000000E+00 0. -1.
         25    2    1    2    0    0  0.59725923486E+02  0.19431366587E+02 -0.13726429611E+03  0.19604460499E+03  0.12508891324E+03 0.  0.
         23    2    1    2    0    0 -0.59725923486E+02 -0.19431366587E+02 -0.67519223124E+02  0.12929287921E+03  0.90625819609E+02 0.  0.
          5    1    3    3  502    0 -0.28002226399E+02 -0.59537921718E+01  0.24952221204E+01  0.29039126329E+02  0.41800000000E+01 0. -1.
         -5    1    3    3    0  502  0.87728149885E+02  0.25385158759E+02 -0.13975951823E+03  0.16700547866E+03  0.41800000000E+01 0. -1.
        -11    1    4    4    0    0 -0.38382526307E+02 -0.55980827541E+02 -0.39468820131E+02  0.78516616970E+02  0.00000000000E+00 0.  1.
         11    1    4    4    0    0 -0.21343397179E+02  0.36549460954E+02 -0.28050402994E+02  0.50776262242E+02  0.00000000000E+00 0. -1.
</event>
<event>
 8    1  0.7016814E-009  0.1493767E+03  0.7561462E-02  0.1201241E+00
          1   -1    0    0  501    0  0.00000000000E+00  0.00000000000E+00  0.88782241139E+02  0.88782241139E+02  0.00000000000E+00 0. -1.
         -1   -1    0    0    0  501 -0.00000000000E+00 -0.00000000000E+00 -0.36609575957E+03  0.36609575957E+03  0.00000000000E+00 0.  1.
         25    2    1    2    0    0 -0.13935937377E+03 -0.11175475259E+01 -0.18354273862E+03  0.26221030296E+03  0.12507606530E+03 0.  0.
         23    2    1    2    0    0  0.13935937377E+03  0.11175475259E+01 -0.93770779813E+02  0.19266769775E+03  0.94369479378E+02 0.  0.
          5    1    3    3  502    0 -0.11329622495E+03  0.27696641339E+02 -0.18962596984E+03  0.22266256840E+03  0.41800000000E+01 0. -1.
         -5    1    3    3    0  502 -0.26063148823E+02 -0.28814188865E+02  0.60832312282E+01  0.39547734558E+02  0.41800000000E+01 0. -1.
        -11    1    4    4    0    0  0.55818726138E+02  0.16102612931E+02 -0.90734560678E+02  0.10773943026E+03  0.00000000000E+00 0.  1.
         11    1    4    4    0    0  0.83540647632E+02 -0.14985065406E+02 -0.30362191352E+01  0.84928267488E+02  0.00000000000E+00 0. -1.
</event>
<event>
 8    1  0.7016814E-009  0.1899833E+03  0.7561462E-02  0.1158476E+00
          1   -1    0    0  501    0  0.00000000000E+00  0.00000000000E+00  0.37106857122E+03  0.37106857122E+03  0.00000000000E+00 0. -1.
         -1   -1    0    0    0  501 -0.00000000000E+00 -0.00000000000E+00 -0.10194095057E+03  0.10194095057E+03  0.00000000000E+00 0.  1.
         25    2    1    2    0    0  0.15322459391E+03  0.45153101192E+02  0.12066763786E+03  0.23607049244E+03  0.12510803270E+03 0.  0.
         23    2    1    2    0    0 -0.15322459391E+03 -0.45153101192E+02  0.14845998279E+03  0.23693902935E+03  0.92645336702E+02 0.  0.
          5    1    3    3  502    0  0.11068055104E+03 -0.30552285437E+02  0.80555513401E+02  0.14032209257E+03  0.41800000000E+01 0.  1.
         -5    1    3    3    0  502  0.42544042868E+02  0.75705386629E+02  0.40112124460E+02  0.95748399866E+02  0.41800000000E+01 0.  1.
        -11    1    4    4    0    0 -0.10739628226E+03 -0.67803675102E+02  0.75185524144E+02  0.14759458947E+03  0.00000000000E+00 0.  1.
         11    1    4    4    0    0 -0.45828311652E+02  0.22650573910E+02  0.73274458642E+02  0.89344439875E+02  0.00000000000E+00 0. -1.
</event>
<event>
 8    1  0.7016814E-009  0.7587686E+02  0.7561462E-02  0.1341177E+00
          2   -1    0    0  501    0  0.00000000000E+00  0.00000000000E+00  0.25073470581E+03  0.25073470581E+03  0.00000000000E+00 0. -1.
         -2   -1    0    0    0  501 -0.00000000000E+00 -0.00000000000E+00 -0.66541170493E+02  0.66541170493E+02  0.00000000000E+00 0.  1.
         25    2    1    2    0    0 -0.35652576007E+01 -0.25723668276E+02  0.18281807159E+03  0.22303643669E+03  0.12509351150E+03 0.  0.
         23    2    1    2    0    0  0.35652576007E+01  0.25723668276E+02  0.13754637302E+01  0.94239439617E+02  0.90580140801E+02 0.  0.
          5    1    3    3  502    0  0.11975702974E+02 -0.48407986421E+02  0.14029436780E+02  0.51971608667E+02  0.41800000000E+01 0. -1.
         -5    1    3    3    0  502 -0.15540960575E+02  0.22684318145E+02  0.16878863481E+03  0.17106482802E+03  0.41800000000E+01 0. -1.
        -11    1    4    4    0    0 -0.14224401249E+02 -0.20167815249E+02 -0.27679805715E+02  0.37084309448E+02  0.00000000000E+00 0.  1.
         11    1    4    4    0    0  0.17789658849E+02  0.45891483525E+02  0.29055269445E+02  0.57155130169E+02  0.00000000000E+00 0. -1.
</event>
<event>
 8    1  0.7016814E-009  0.1073326E+03  0.7561462E-02  0.1265591E+00
          2   -1    0    0  501    0  0.00000000000E+00  0.00000000000E+00  0.17460476740E+03  0.17460476740E+03  0.00000000000E+00 0. -1.
         -2   -1    0    0    0  501 -0.00000000000E+00 -0.00000000000E+00 -0.10396213888E+03  0.10396213888E+03  0.00000000000E+00 0.  1.
         25    2    1    2    0    0 -0.28306114407E+02 -0.31448740077E+02 -0.30469982128E+02  0.13552280840E+03  0.12509097657E+03 0.  0.
         23    2    1    2    0    0  0.28306114407E+02  0.31448740077E+02  0.10111261065E+03  0.14304409788E+03  0.91910796647E+02 0.  0.
          5    1    3    3  502    0 -0.73434258285E+02 -0.39869879899E+02 -0.74432150446E+01  0.83994472814E+02  0.41800000000E+01 0. -1.
         -5    1    3    3    0  502  0.45128143879E+02  0.84211398221E+01 -0.23026767083E+02  0.51528335585E+02  0.41800000000E+01 0. -1.
        -11    1    4    4    0    0 -0.49068663614E+01 -0.21690830048E+02 -0.20573510758E+01  0.22333878729E+02  0.00000000000E+00 0.  1.
         11    1    4    4    0    0  0.33212980768E+02  0.53139570125E+02  0.10316996173E+03  0.12071021915E+03  0.00000000000E+00 0. -1.
</event>
<event>
 8    1  0.7016814E-009  0.1395836E+03  0.7561462E-02  0.1213890E+00
         -2   -1    0    0    0  501 -0.00000000000E+00  0.00000000000E+00  0.15760102226E+03  0.15760102226E+03  0.00000000000E+00 0.  1.
          2   -1    0    0  501    0  0.00000000000E+00 -0.00000000000E+00 -0.12613718029E+03  0.12613718029E+03  0.00000000000E+00 0. -1.
         25    2    1    2    0    0  0.62724102520E+02  0.61704364893E+02  0.26532670595E+02  0.15520529100E+03  0.12507181162E+03 0.  0.
         23    2    1    2    0    0 -0.62724102520E+02 -0.61704364893E+02  0.49311713794E+01  0.12853291155E+03  0.93566293163E+02 0.  0.
          5    1    3    3  502    0  0.39689716747E+02  0.98974588387E+02  0.30563547236E+02  0.11100831312E+03  0.41800000000E+01 0.  1.
         -5    1    3    3    0  502  0.23034385773E+02 -0.37270223494E+02 -0.40308766409E+01  0.44196977880E+02  0.41800000000E+01 0.  1.
        -11    1    4    4    0    0  0.16004956772E+02 -0.45262436591E+02  0.15098560042E+01  0.48032556382E+02  0.00000000000E+00 0.  1.
         11    1    4    4    0    0 -0.78729059291E+02 -0.16441928302E+02  0.34213153752E+01  0.80500355167E+02  0.00000000000E+00 0. -1.
</event>
<event>
 8    1  0.7016814E-009  0.1377652E+03  0.7561462E-02  0.1216368E+00
         -1   -1    0    0    0  501 -0.00000000000E+00  0.00000000000E+00  0.91170131760E+02  0.91170131760E+02  0.00000000000E+00 0.  1.
          1   -1    0    0  501    0  0.00000000000E+00 -0.00000000000E+00 -0.25586202404E+03  0.25586202404E+03  0.00000000000E+00 0. -1.
         25    2    1    2    0    0  0.63343520301E+02 -0.81521783711E+02 -0.11916358552E+03  0.20125751461E+03  0.12508566781E+03 0.  0.
         23    2    1    2    0    0 -0.63343520301E+02  0.81521783711E+02 -0.45528306759E+02  0.14577464118E+03  0.92299601904E+02 0.  0.
          5    1    3    3  502    0 -0.30331162322E+02 -0.35753488900E+02 -0.61996131368E+01  0.47478405401E+02  0.41800000000E+01 0. -1.
         -5    1    3    3    0  502  0.93674682624E+02 -0.45768294811E+02 -0.11296397238E+03  0.15377910921E+03  0.41800000000E+01 0. -1.
        -11    1    4    4    0    0 -0.93339078058E+01  0.67735657227E+02  0.75665077659E+01  0.68793118367E+02  0.00000000000E+00 0.  1.
         11    1    4    4    0    0 -0.54009612495E+02  0.13786126484E+02 -0.53094814525E+02  0.76981522814E+02  0.00000000000E+00 0. -1.
</event>
<event>
 8    1  0.7016814E-009  0.1553115E+03  0.7561462E-02  0.1194094E+00
         -1   -1    0    0    0  501 -0.00000000000E+00  0.00000000000E+00  0.15655405496E+03  0.15655405496E+03  0.00000000000E+00 0.  1.
          1   -1    0    0  501    0  0.00000000000E+00 -0.00000000000E+00 -0.19804588139E+03  0.19804588139E+03  0.00000000000E+00 0. -1.
         25    2    1    2    0    0  0.13152760064E+03  0.40833795632E+02 -0.39171342426E+02  0.19012657596E+03  0.12508721847E+03 0.  0.
         23    2    1    2    0    0 -0.13152760064E+03 -0.40833795632E+02 -0.23204840022E+01  0.16447336039E+03  0.89884331427E+02 0.  0.
          5    1    3    3  502    0  0.82037010641E+02 -0.40514411123E+01  0.35729868284E+02  0.89669287817E+02  0.41800000000E+01 0.  1.
         -5    1    3    3    0  502  0.49490589998E+02  0.44885236744E+02 -0.74901210710E+02  0.10045728815E+03  0.41800000000E+01 0.  1.
        -11    1    4    4    0    0 -0.10420000654E+02 -0.38943601111E+02 -0.14266204729E+02  0.42763361403E+02  0.00000000000E+00 0. -1.
         11    1    4    4    0    0 -0.12110759998E+03 -0.18901945203E+01  0.11945720727E+02  0.12170999899E+03  0.00000000000E+00 0.  1.
</event>
<event>
 8    1  0.7016814E-009  0.7434228E+02  0.7561462E-02  0.1345920E+00
          2   -1    0    0  501    0  0.00000000000E+00  0.00000000000E+00  0.85788314756E+03  0.85788314756E+03  0.00000000000E+00 0.  1.
         -2   -1    0    0    0  501 -0.00000000000E+00 -0.00000000000E+00 -0.14960361421E+02  0.14960361421E+02  0.00000000000E+00 0. -1.
         25    2    1    2    0    0  0.98776379468E+00 -0.25255058706E+02  0.59939088708E+03  0.61282615007E+03  0.12509061124E+03 0.  0.
         23    2    1    2    0    0 -0.98776379468E+00  0.25255058706E+02  0.24353189906E+03  0.26001735891E+03  0.87535406610E+02 0.  0.
          5    1    3    3  502    0 -0.24008156846E+02 -0.20796200008E+02  0.33508816796E+02  0.46359321964E+02  0.41800000000E+01 0. -1.
         -5    1    3    3    0  502  0.24995920641E+02 -0.44588586983E+01  0.56588207029E+03  0.56646682810E+03  0.41800000000E+01 0. -1.
        -11    1    4    4    0    0 -0.43293615996E+02  0.21790513430E+02  0.13828865547E+03  0.14653639784E+03  0.00000000000E+00 0.  1.
         11    1    4    4    0    0  0.42305852201E+02  0.34645452759E+01  0.10524324359E+03  0.11348096107E+03  0.00000000000E+00 0. -1.
</event>
<event>
 8    1  0.7016814E-009  0.1580321E+03  0.7561462E-02  0.1190937E+00
          2   -1    0    0  501    0  0.00000000000E+00  0.00000000000E+00  0.28177543144E+03  0.28177543144E+03  0.00000000000E+00 0.  1.
         -2   -1    0    0    0  501 -0.00000000000E+00 -0.00000000000E+00 -0.94094587059E+02  0.94094587059E+02  0.00000000000E+00 0. -1.
         25    2    1    2    0    0  0.45467583969E+02  0.11064405414E+03  0.11795013346E+03  0.20945195094E+03  0.12509387620E+03 0.  0.
         23    2    1    2    0    0 -0.45467583969E+02 -0.11064405414E+03  0.69730710920E+02  0.16641806756E+03  0.92321141976E+02 0.  0.
          5    1    3    3  502    0  0.39675919234E+02  0.13763966102E+03  0.86472851845E+02  0.16737347866E+03  0.41800000000E+01 0.  1.
         -5    1    3    3    0  502  0.57916647349E+01 -0.26995606885E+02  0.31477281612E+02  0.42078472277E+02  0.41800000000E+01 0.  1.
        -11    1    4    4    0    0 -0.52590308772E+02 -0.23844494902E+02  0.51058871277E+01  0.57968703601E+02  0.00000000000E+00 0.  1.
         11    1    4    4    0    0  0.71227248026E+01 -0.86799559235E+02  0.64624823793E+02  0.10844936395E+03  0.00000000000E+00 0. -1.
</event>
<event>
 8    1  0.7016814E-009  0.1026615E+03  0.7561462E-02  0.1274797E+00
          1   -1    0    0  501    0  0.00000000000E+00  0.00000000000E+00  0.25021323129E+03  0.25021323129E+03  0.00000000000E+00 0. -1.
         -1   -1    0    0    0  501 -0.00000000000E+00 -0.00000000000E+00 -0.61887843328E+02  0.61887843328E+02  0.00000000000E+00 0.  1.
         25    2    1    2    0    0  0.52488033699E+02 -0.25391924821E+02  0.79627673155E+02  0.15933700668E+03  0.12509185361E+03 0.  0.
         23    2    1    2    0    0 -0.52488033699E+02  0.25391924821E+02  0.10869771480E+03  0.15276406793E+03  0.90121716137E+02 0.  0.
          5    1    3    3  502    0  0.90826035397E+02 -0.24103753925E+02  0.35055964510E+02  0.10038302997E+03  0.41800000000E+01 0.  1.
         -5    1    3    3    0  502 -0.38338001697E+02 -0.12881708959E+01  0.44571708645E+02  0.58953976710E+02  0.41800000000E+01 0.  1.
        -11    1    4    4    0    0 -0.22422671661E+02 -0.11404222878E+02 -0.82961068111E+01  0.26488825797E+02  0.00000000000E+00 0.  1.
         11    1    4    4    0    0 -0.30065362038E+02  0.36796147699E+02  0.11699382162E+03  0.12627524213E+03  0.00000000000E+00 0. -1.
</event>
<event>
 8    1  0.7016814E-009  0.5691454E+02  0.7561462E-02  0.1411256E+00
         -1   -1    0    0    0  501 -0.00000000000E+00  0.00000000000E+00  0.24764955434E+03  0.24764955434E+03  0.00000000000E+00 0.  1.
          1   -1    0    0  501    0  0.00000000000E+00 -0.00000000000E+00 -0.85854493240E+02  0.85854493240E+02  0.00000000000E+00 0. -1.
         25    2    1    2    0    0  0.47665592676E+01  0.46974091477E+01  0.19967167239E+03  0.23570948657E+03  0.12508157165E+03 0.  0.
         23    2    1    2    0    0 -0.47665592676E+01 -0.46974091477E+01 -0.37876611283E+02  0.97794561011E+02  0.89913028762E+02 0.  0.
          5    1    3    3  502    0  0.12458690973E+02 -0.24262849785E+01  0.21569585489E+03  0.21610941686E+03  0.41800000000E+01 0. -1.
         -5    1    3    3    0  502 -0.76921317059E+01  0.71236941262E+01 -0.16024182497E+02  0.19600069716E+02  0.41800000000E+01 0. -1.
        -11    1    4    4    0    0  0.40093872252E+02  0.11127401146E+02 -0.10516346091E+02  0.42917725749E+02  0.00000000000E+00 0.  1.
         11    1    4    4    0    0 -0.44860431519E+02 -0.15824810293E+02 -0.27360265193E+02  0.54876835262E+02  0.00000000000E+00 0. -1.
</event>
<event>
 8    1  0.7016814E-009  0.1368824E+03  0.7561462E-02  0.1217587E+00
          2   -1    0    0  501    0  0.00000000000E+00  0.00000000000E+00  0.21497944858E+03  0.21497944858E+03  0.00000000000E+00 0. -1.
         -2   -1    0    0    0  501 -0.00000000000E+00 -0.00000000000E+00 -0.90066452021E+02  0.90066452021E+02  0.00000000000E+00 0.  1.
         25    2    1    2    0    0  0.70607147876E+02  0.50801248454E+02  0.72131659522E+02  0.16857264710E+03  0.12509046674E+03 0.  0.
         23    2    1    2    0    0 -0.70607147876E+02 -0.50801248454E+02  0.52781337034E+02  0.13647325350E+03  0.90955721127E+02 0.  0.
          5    1    3    3  502    0 -0.32999971980E+02  0.37153970816E+00  0.32873804375E+02  0.46768532226E+02  0.41800000000E+01 0. -1.
         -5    1    3    3    0  502  0.10360711986E+03  0.50429708746E+02  0.39257855147E+02  0.12180411487E+03  0.41800000000E+01 0. -1.
        -11    1    4    4    0    0  0.69726684180E+01 -0.47007982903E+02  0.13332647958E+02  0.49357148044E+02  0.00000000000E+00 0.  1.
         11    1    4    4    0    0 -0.77579816294E+02 -0.37932655513E+01  0.39448689076E+02  0.87116105455E+02  0.00000000000E+00 0. -1.
</event>
<event>
 8    1  0.7016814E-009  0.7011531E+02  0.7561462E-02  0.1359701E+00
         -3   -1    0    0    0  501 -0.00000000000E+00  0.00000000000E+00  0.32230488228E+02  0.32230488228E+02  0.00000000000E+00 0.  1.
          3   -1    0    0  501    0  0.00000000000E+00 -0.00000000000E+00 -0.43004815001E+03  0.43004815001E+03  0.00000000000E+00 0. -1.
         25    2    1    2    0    0 -0.36916568636E+02 -0.69620623436E+01 -0.29233095048E+03  0.32018174912E+03  0.12509062518E+03 0.  0.
         23    2    1    2    0    0  0.36916568636E+02  0.69620623436E+01 -0.10548671130E+03  0.14209688912E+03  0.87480147944E+02 0.  0.
          5    1    3    3  502    0  0.82927230823E+01  0.26198342289E+02 -0.60683587307E+01  0.28450303558E+02  0.41800000000E+01 0. -1.
         -5    1    3    3    0  502 -0.45209291718E+02 -0.33160404633E+02 -0.28626259175E+03  0.29173144556E+03  0.41800000000E+01 0. -1.
        -11    1    4    4    0    0  0.36064746318E+02 -0.11405489242E+02 -0.29671580496E+01  0.37941469908E+02  0.00000000000E+00 0.  1.
         11    1    4    4    0    0  0.85182231710E+00  0.18367551585E+02 -0.10251955325E+03  0.10415541921E+03  0.00000000000E+00 0. -1.
</event>
<event>
 8    1  0.7016814E-009  0.1061463E+03  0.7561462E-02  0.1267877E+00
          2   -1    0    0  501    0  0.00000000000E+00  0.00000000000E+00  0.49643687344E+03  0.49643687344E+03  0.00000000000E+00 0. -1.
         -2   -1    0    0    0  501 -0.00000000000E+00 -0.00000000000E+00 -0.84489300066E+02  0.84489300066E+02  0.00000000000E+00 0.  1.
         25    2    1    2    0    0  0.18771842363E+02 -0.81432233876E+02  0.43246039789E+03  0.45787850608E+03  0.12508852788E+03 0.  0.
         23    2    1    2    0    0 -0.18771842363E+02  0.81432233876E+02 -0.20512824509E+02  0.12304766743E+03  0.87956589926E+02 0.  0.
          5    1    3    3  502    0  0.52969141074E+02 -0.17733071347E+02  0.31459421500E+03  0.31954214782E+03  0.41800000000E+01 0.  1.
         -5    1    3    3    0  502 -0.34197298711E+02 -0.63699162529E+02  0.11786618289E+03  0.13833635825E+03  0.41800000000E+01 0.  1.
        -11    1    4    4    0    0 -0.85587088387E+01  0.52123848031E+02 -0.55268526583E+02  0.76451010858E+02  0.00000000000E+00 0. -1.
         11    1    4    4    0    0 -0.10213133525E+02  0.29308385845E+02  0.34755702074E+02  0.46596656574E+02  0.00000000000E+00 0.  1.
</event>
<event>
 8    1  0.7016814E-009  0.7677509E+02  0.7561462E-02  0.1338461E+00
          2   -1    0    0  501    0  0.00000000000E+00  0.00000000000E+00  0.51495467422E+03  0.51495467422E+03  0.00000000000E+00 0. -1.
         -2   -1    0    0    0  501 -0.00000000000E+00 -0.00000000000E+00 -0.31805434448E+02  0.31805434448E+02  0.00000000000E+00 0.  1.
         25    2    1    2    0    0  0.20655177269E+02 -0.13156052084E+02  0.40344937395E+03  0.42310591002E+03  0.12508995042E+03 0.  0.
         23    2    1    2    0    0 -0.20655177269E+02  0.13156052084E+02  0.79699865824E+02  0.12365419866E+03  0.91315793696E+02 0.  0.
          5    1    3    3  502    0 -0.30651672701E+01  0.19298849652E+02  0.25159597536E+01  0.20140588417E+02  0.41800000000E+01 0.  1.
         -5    1    3    3    0  502  0.23720344539E+02 -0.32454901736E+02  0.40093341420E+03  0.40296532160E+03  0.41800000000E+01 0.  1.
        -11    1    4    4    0    0  0.35699591820E+02  0.78079102392E+01  0.21190699464E+02  0.42242988319E+02  0.00000000000E+00 0. -1.
         11    1    4    4    0    0 -0.56354769088E+02  0.53481418444E+01  0.58509166360E+02  0.81411210336E+02  0.00000000000E+00 0.  1.
</event>
<event>
 8    1  0.7016814E-009  0.1021747E+03  0.7561462E-02  0.1275788E+00
          2   -1    0    0  501    0  0.00000000000E+00  0.00000000000E+00  0.12458981072E+04  0.12458981072E+04  0.00000000000E+00 0. -1.
         -2   -1    0    0    0  501 -0.00000000000E+00 -0.00000000000E+00 -0.15355941576E+02  0.15355941576E+02  0.00000000000E+00 0.  1.
         25    2    1    2    0    0  0.32876905491E+01 -0.49107650276E+02  0.98723448708E+03  0.99634423581E+03  0.12509010162E+03 0.  0.
         23    2    1    2    0    0 -0.32876905491E+01  0.49107650276E+02  0.24330767850E+03  0.26490981292E+03  0.92499796438E+02 0.  0.
          5    1    3    3  502    0  0.28968017315E+02 -0.69227764590E+02  0.33705706450E+03  0.34533544061E+03  0.41800000000E+01 0. -1.
         -5    1    3    3    0  502 -0.25680326766E+02  0.20120114314E+02  0.65017742259E+03  0.65100879520E+03  0.41800000000E+01 0. -1.
        -11    1    4    4    0    0 -0.34705249963E+02 -0.36479807213E+01  0.14387314518E+03  0.14804473663E+03  0.00000000000E+00 0.  1.
         11    1    4    4    0    0  0.31417559414E+02  0.52755630997E+02  0.99434533317E+02  0.11686507629E+03  0.00000000000E+00 0. -1.
</event>
<event>
 8    1  0.7016814E-009  0.1151904E+03  0.7561462E-02  0.1251249E+00
          2   -1    0    0  501    0  0.00000000000E+00  0.00000000000E+00  0.58880349584E+03  0.58880349584E+03  0.00000000000E+00 0. -1.
         -2   -1    0    0    0  501 -0.00000000000E+00 -0.00000000000E+00 -0.35882504876E+02  0.35882504876E+02  0.00000000000E+00 0.  1.
         25    2    1    2    0    0 -0.20729128162E+02 -0.81012089974E+02  0.41403915746E+03  0.44053205669E+03  0.12508962221E+03 0.  0.
         23    2    1    2    0    0  0.20729128162E+02  0.81012089974E+02  0.13888183351E+03  0.18415394403E+03  0.87360494203E+02 0.  0.
          5    1    3    3  502    0 -0.27833556031E+02 -0.10853926651E+03  0.37888184882E+03  0.39512581158E+03  0.41800000000E+01 0.  1.
         -5    1    3    3    0  502  0.71044278695E+01  0.27527176538E+02  0.35157308642E+02  0.45406245104E+02  0.41800000000E+01 0.  1.
        -11    1    4    4    0    0 -0.78752418878E+01  0.86070768275E+01 -0.10504945931E+02  0.15698888346E+02  0.00000000000E+00 0.  1.
         11    1    4    4    0    0  0.28604370050E+02  0.72405013147E+02  0.14938677944E+03  0.16845505568E+03  0.00000000000E+00 0. -1.
</event>
<event>
 8    1  0.7016814E-009  0.9234708E+02  0.7561462E-02  0.1297265E+00
         -2   -1    0    0    0  501 -0.00000000000E+00  0.00000000000E+00  0.38151671482E+02  0.38151671482E+02  0.00000000000E+00 0.  1.
          2   -1    0    0  501    0  0.00000000000E+00 -0.00000000000E+00 -0.37473901551E+03  0.37473901551E+03  0.00000000000E+00 0. -1.
         25    2    1    2    0    0 -0.76207335207E+01  0.61920976045E+01 -0.10635397782E+03  0.16448451176E+03  0.12509024087E+03 0.  0.
         23    2    1    2    0    0  0.76207335207E+01 -0.61920976045E+01 -0.23023336621E+03  0.24840617523E+03  0.92745928876E+02 0.  0.
          5    1    3    3  502    0  0.35108292388E+02  0.26276839568E+02 -0.10843370297E+03  0.11704018469E+03  0.41800000000E+01 0.  1.
         -5    1    3    3    0  502 -0.42729025909E+02 -0.20084741963E+02  0.20797251532E+01  0.47444327074E+02  0.41800000000E+01 0.  1.
        -11    1    4    4    0    0  0.26295338299E+02  0.37458363126E+02 -0.11041069577E+03  0.11952027244E+03  0.00000000000E+00 0.  1.
         11    1    4    4    0    0 -0.18674604778E+02 -0.43650460730E+02 -0.11982267044E+03  0.12888590279E+03  0.00000000000E+00 0. -1.
</event>
<event>
 8    1  0.7016814E-009  0.7333741E+02  0.7561462E-02  0.1349098E+00
         -2   -1    0    0    0  501 -0.00000000000E+00  0.00000000000E+00  0.46454921541E+02  0.46454921541E+02  0.00000000000E+00 0. -1.
          2   -1    0    0  501    0  0.00000000000E+00 -0.00000000000E+00 -0.25537770455E+03  0.25537770455E+03  0.00000000000E+00 0.  1.
         25    2    1    2    0    0  0.37871992256E+00  0.12822113836E+00 -0.11247505665E+03  0.16822123688E+03  0.12509031257E+03 0.  0.
         23    2    1    2    0    0 -0.37871992256E+00 -0.12822113836E+00 -0.96447726356E+02  0.13361138921E+03  0.92464477164E+02 0.  0.
          5    1    3    3  502    0  0.30104184810E+02 -0.27167991309E+02 -0.12019543146E+03  0.12692035234E+03  0.41800000000E+01 0. -1.
         -5    1    3    3    0  502 -0.29725464887E+02  0.27296212447E+02  0.77203748071E+01  0.41300884541E+02  0.41800000000E+01 0. -1.
        -11    1    4    4    0    0 -0.30917795402E+02 -0.11153397337E+02 -0.10992630035E+01  0.32886421572E+02  0.00000000000E+00 0. -1.
         11    1    4    4    0    0  0.30539075480E+02  0.11025176199E+02 -0.95348463352E+02  0.10072496763E+03  0.00000000000E+00 0.  1.
</event>
<event>
 8    1  0.7016814E-009  0.1182659E+03  0.7561462E-02  0.1245986E+00
         -1   -1    0    0    0  501 -0.00000000000E+00  0.00000000000E+00  0.22653109926E+02  0.22653109926E+02  0.00000000000E+00 0.  1.
          1   -1    0    0  501    0  0.00000000000E+00 -0.00000000000E+00 -0.90281798039E+03  0.90281798039E+03  0.00000000000E+00 0. -1.
         25    2    1    2    0    0 -0.36428576438E+01  0.64850605232E+02 -0.26577410093E+03  0.30083396457E+03  0.12508529132E+03 0.  0.
         23    2    1    2    0    0  0.36428576438E+01 -0.64850605232E+02 -0.61439076953E+03  0.62463712574E+03  0.92068723014E+02 0.  0.
          5    1    3    3  502    0 -0.53660407059E+02  0.19352753836E+02 -0.19349087787E+03  0.20176759052E+03  0.41800000000E+01 0. -1.
         -5    1    3    3    0  502  0.50017549415E+02  0.45497851395E+02 -0.72283223060E+02  0.99066374048E+02  0.41800000000E+01 0. -1.
        -11    1    4    4    0    0  0.40133335471E+02 -0.63445569541E+02 -0.45190199993E+03  0.45809545125E+03  0.00000000000E+00 0.  1.
         11    1    4    4    0    0 -0.36490477827E+02 -0.14050356909E+01 -0.16248876960E+03  0.16654167450E+03  0.00000000000E+00 0. -1.
</event>
<event>
 8    1  0.7016814E-009  0.1248705E+03  0.7561462E-02  0.1235272E+00
          2   -1    0    0  501    0  0.00000000000E+00  0.00000000000E+00  0.12758479938E+03  0.12758479938E+03  0.00000000000E+00 0. -1.
         -2   -1    0    0    0  501 -0.00000000000E+00 -0.00000000000E+00 -0.14730783438E+03  0.14730783438E+03  0.00000000000E+00 0.  1.
         25    2    1    2    0    0  0.27279419334E+02  0.65519184463E+02 -0.58087814546E+02  0.15510217481E+03  0.12508221369E+03 0.  0.
         23    2    1    2    0    0 -0.27279419334E+02 -0.65519184463E+02  0.38364779548E+02  0.11979045895E+03  0.88549237684E+02 0.  0.
          5    1    3    3  502    0  0.69742009830E+02  0.16878420379E+02 -0.61635784798E+01  0.72140772863E+02  0.41800000000E+01 0.  1.
         -5    1    3    3    0  502 -0.42462590496E+02  0.48640764084E+02 -0.51924236066E+02  0.82961401949E+02  0.41800000000E+01 0.  1.
        -11    1    4    4    0    0 -0.41117852228E+02  0.48875830842E+01  0.97383670678E+01  0.42537066582E+02  0.00000000000E+00 0.  1.
         11    1    4    4    0    0  0.13838432894E+02 -0.70406767547E+02  0.28626412480E+02  0.77253392371E+02  0.00000000000E+00 0. -1.
</event>
<event>
 8    1  0.7016814E-009  0.1491141E+03  0.7561462E-02  0.1201566E+00
          1   -1    0    0  501    0  0.00000000000E+00  0.00000000000E+00  0.85314215415E+03  0.85314215415E+03  0.00000000000E+00 0. -1.
         -1   -1    0    0    0  501 -0.00000000000E+00 -0.00000000000E+00 -0.40263515677E+02  0.40263515677E+02  0.00000000000E+00 0.  1.
         25    2    1    2    0    0 -0.12111230209E+03  0.19903587056E+02  0.63429573113E+03  0.65806048212E+03  0.12509269009E+03 0.  0.
         23    2    1    2    0    0  0.12111230209E+03 -0.19903587056E+02  0.17858290735E+03  0.23534518771E+03  0.91821348746E+02 0.  0.
          5    1    3    3  502    0  0.35335476971E+01  0.33323847739E+02  0.28366513304E+03  0.28566824270E+03  0.41800000000E+01 0.  1.
         -5    1    3    3    0  502 -0.12464584978E+03 -0.13420260683E+02  0.35063059809E+03  0.37239223942E+03  0.41800000000E+01 0.  1.
        -11    1    4    4    0    0  0.52208163140E+02 -0.41629731805E+02  0.36866503908E+02  0.76274936768E+02  0.00000000000E+00 0.  1.
         11    1    4    4    0    0  0.68904138946E+02  0.21726144749E+02  0.14171640344E+03  0.15907025094E+03  0.00000000000E+00 0. -1.
</event>
<event>
 8    1  0.7016814E-009  0.1127473E+03  0.7561462E-02  0.1255565E+00
          1   -1    0    0  501    0  0.00000000000E+00  0.00000000000E+00  0.26335381752E+02  0.26335381752E+02  0.00000000000E+00 0. -1.
         -1   -1    0    0    0  501 -0.00000000000E+00 -0.00000000000E+00 -0.77343170990E+03  0.77343170990E+03  0.00000000000E+00 0.  1.
         25    2    1    2    0    0 -0.33391763995E+02 -0.63022181118E+02 -0.23794763624E+03  0.27812410290E+03  0.12508850390E+03 0.  0.
         23    2    1    2    0    0  0.33391763995E+02  0.63022181118E+02 -0.50914869191E+03  0.52164298876E+03  0.88273506930E+02 0.  0.
          5    1    3    3  502    0  0.29668849647E+02 -0.19944525564E+02 -0.17616328961E+03  0.17980267446E+03  0.41800000000E+01 0.  1.
         -5    1    3    3    0  502 -0.63060613642E+02 -0.43077655554E+02 -0.61784346632E+02  0.98321428436E+02  0.41800000000E+01 0.  1.
        -11    1    4    4    0    0  0.49672887261E+02  0.18408525569E+01 -0.20068757752E+03  0.20675175510E+03  0.00000000000E+00 0.  1.
         11    1    4    4    0    0 -0.16281123266E+02  0.61181328561E+02 -0.30846111439E+03  0.31489123365E+03  0.00000000000E+00 0. -1.
</event>
<event>
 8    1  0.7016814E-009  0.4760466E+03  0.7561462E-02  0.1020227E+00
          2   -1    0    0  501    0  0.00000000000E+00  0.00000000000E+00  0.14186195052E+04  0.14186195052E+04  0.00000000000E+00 0. -1.
         -2   -1    0    0    0  501 -0.00000000000E+00 -0.00000000000E+00 -0.17701869332E+03  0.17701869332E+03  0.00000000000E+00 0.  1.
         25    2    1    2    0    0  0.15362141420E+03  0.43740088871E+03  0.37743186506E+03  0.61075359626E+03  0.12508423657E+03 0.  0.
         23    2    1    2    0    0 -0.15362141420E+03 -0.43740088871E+03  0.86416894687E+03  0.98488460231E+03  0.91052923005E+02 0.  0.
          5    1    3    3  502    0 -0.20518992177E+02  0.75963193418E+02  0.56329189612E+02  0.96860135229E+02  0.41800000000E+01 0. -1.
         -5    1    3    3    0  502  0.17414040638E+03  0.36143769529E+03  0.32110267544E+03  0.51389346103E+03  0.41800000000E+01 0. -1.
        -11    1    4    4    0    0  0.19411913642E+01 -0.10557929677E+03  0.21007728907E+03  0.23512384718E+03  0.00000000000E+00 0. -1.
         11    1    4    4    0    0 -0.15556260557E+03 -0.33182159194E+03  0.65409165780E+03  0.74976075513E+03  0.00000000000E+00 0.  1.
</event>
<event>
 8    1  0.7016814E-009  0.1570014E+03  0.7561462E-02  0.1192124E+00
         -2   -1    0    0    0  501 -0.00000000000E+00  0.00000000000E+00  0.48230995139E+02  0.48230995139E+02  0.00000000000E+00 0.  1.
          2   -1    0    0  501    0  0.00000000000E+00 -0.00000000000E+00 -0.58538378014E+03  0.58538378014E+03  0.00000000000E+00 0. -1.
         25    2    1    2    0    0  0.34700482644E+02 -0.11899622876E+03 -0.34722315683E+03  0.38932694536E+03  0.12508926330E+03 0.  0.
         23    2    1    2    0    0 -0.34700482644E+02  0.11899622876E+03 -0.18992962817E+03  0.24428782992E+03  0.90769236152E+02 0.  0.
          5    1    3    3  502    0 -0.46552965134E+02 -0.36342142871E+02 -0.99173448764E+02  0.11550227379E+03  0.41800000000E+01 0. -1.
         -5    1    3    3    0  502  0.81253447778E+02 -0.82654085891E+02 -0.24804970806E+03  0.27382467157E+03  0.41800000000E+01 0. -1.
        -11    1    4    4    0    0  0.18299034738E+02  0.26322535648E+02 -0.75119327271E+01  0.32926580275E+02  0.00000000000E+00 0.  1.
         11    1    4    4    0    0 -0.52999517382E+02  0.92673693115E+02 -0.18241769545E+03  0.21136124964E+03  0.00000000000E+00 0. -1.
</event>
<event>
 8    1  0.7016814E-009  0.1187876E+03  0.7561462E-02  0.1245111E+00
          3   -1    0    0  501    0  0.00000000000E+00  0.00000000000E+00  0.75289126800E+03  0.75289126800E+03  0.00000000000E+00 0. -1.
         -3   -1    0    0    0  501 -0.00000000000E+00 -0.00000000000E+00 -0.21728768461E+02  0.21728768461E+02  0.00000000000E+00 0.  1.
         25    2    1    2    0    0  0.29113958277E+02  0.55926163410E+02  0.31759078906E+03  0.34711208204E+03  0.12509008707E+03 0.  0.
         23    2    1    2    0    0 -0.29113958277E+02 -0.55926163410E+02  0.41357171048E+03  0.42750795442E+03  0.88012118834E+02 0.  0.
          5    1    3    3  502    0  0.71682776464E+02  0.54524870237E+02  0.15832716061E+03  0.18219863914E+03  0.41800000000E+01 0. -1.
         -5    1    3    3    0  502 -0.42568818187E+02  0.14012931731E+01  0.15926362845E+03  0.16491344291E+03  0.41800000000E+01 0. -1.
        -11    1    4    4    0    0  0.29458702047E+02 -0.23393778370E+02  0.99604371624E+02  0.10647119253E+03  0.00000000000E+00 0.  1.
         11    1    4    4    0    0 -0.58572660325E+02 -0.32532385040E+02  0.31396733885E+03  0.32103676188E+03  0.00000000000E+00 0. -1.
</event>
<event>
 8    1  0.7016814E-009  0.1738855E+03  0.7561462E-02  0.1173855E+00
          2   -1    0    0  501    0  0.00000000000E+00  0.00000000000E+00  0.73177877197E+03  0.73177877197E+03  0.00000000000E+00 0. -1.
         -2   -1    0    0    0  501 -0.00000000000E+00 -0.00000000000E+00 -0.43113218526E+02  0.43113218526E+02  0.00000000000E+00 0.  1.
         25    2    1    2    0    0 -0.52360587017E+02 -0.12887139450E+03  0.41320320609E+03  0.45357820608E+03  0.12508729798E+03 0.  0.
         23    2    1    2    0    0  0.52360587017E+02  0.12887139450E+03  0.27546234736E+03  0.32131378442E+03  0.89518578244E+02 0.  0.
          5    1    3    3  502    0  0.30458337989E+02  0.33999993491E+01  0.71168970614E+02  0.77600033034E+02  0.41800000000E+01 0.  1.
         -5    1    3    3    0  502 -0.82818925006E+02 -0.13227139385E+03  0.34203423547E+03  0.37597817305E+03  0.41800000000E+01 0.  1.
        -11    1    4    4    0    0  0.31845686937E+02  0.16813208961E+01  0.28513230549E+02  0.42778253035E+02  0.00000000000E+00 0.  1.
         11    1    4    4    0    0  0.20514900080E+02  0.12719007361E+03  0.24694911681E+03  0.27853553138E+03  0.00000000000E+00 0. -1.
</event>
<event>
 8    1  0.7016814E-009  0.2453176E+03  0.7561462E-02  0.1116300E+00
         -2   -1    0    0    0  501 -0.00000000000E+00  0.00000000000E+00  0.26879559777E+03  0.26879559777E+03  0.00000000000E+00 0.  1.
          2   -1    0    0  501    0  0.00000000000E+00 -0.00000000000E+00 -0.27159756689E+03  0.27159756689E+03  0.00000000000E+00 0. -1.
         25    2    1    2    0    0  0.88584890391E+02 -0.21502762972E+03  0.82005034419E+02  0.27650709540E+03  0.12508870369E+03 0.  0.
         23    2    1    2    0    0 -0.88584890391E+02  0.21502762972E+03 -0.84807003539E+02  0.26388606925E+03  0.91430111821E+02 0.  0.
          5    1    3    3  502    0  0.77108834824E+02 -0.10603025204E+03  0.10054403312E+03  0.16527178148E+03  0.41800000000E+01 0.  1.
         -5    1    3    3    0  502  0.11476055567E+02 -0.10899737767E+03 -0.18538998706E+02  0.11123531393E+03  0.41800000000E+01 0.  1.
        -11    1    4    4    0    0 -0.21777774465E+02  0.16472386691E+03 -0.52845831417E+02  0.17435855496E+03  0.00000000000E+00 0. -1.
         11    1    4    4    0    0 -0.66807115926E+02  0.50303762804E+02 -0.31961172121E+02  0.89527514284E+02  0.00000000000E+00 0.  1.
</event>
<event>
 8    1  0.7016814E-009  0.2449363E+03  0.7561462E-02  0.1116547E+00
         -3   -1    0    0    0  501 -0.00000000000E+00  0.00000000000E+00  0.11098304473E+03  0.11098304473E+03  0.00000000000E+00 0.  1.
          3   -1    0    0  501    0  0.00000000000E+00 -0.00000000000E+00 -0.59305206920E+03  0.59305206920E+03  0.00000000000E+00 0. -1.
         25    2    1    2    0    0  0.16605407704E+03  0.15618424257E+03 -0.30828148788E+03  0.40330140826E+03  0.12508827285E+03 0.  0.
         23    2    1    2    0    0 -0.16605407704E+03 -0.15618424257E+03 -0.17378753660E+03  0.30073370568E+03  0.90946026440E+02 0.  0.
          5    1    3    3  502    0 -0.12841795132E+02 -0.69262365415E+01 -0.35219459197E+02  0.38350582277E+02  0.41800000000E+01 0.  1.
         -5    1    3    3    0  502  0.17889587217E+03  0.16311047911E+03 -0.27306202868E+03  0.36495082598E+03  0.41800000000E+01 0.  1.
        -11    1    4    4    0    0 -0.11603515333E+03 -0.13562042622E+03 -0.17004947784E+03  0.24652359264E+03  0.00000000000E+00 0. -1.
         11    1    4    4    0    0 -0.50018923712E+02 -0.20563816352E+02 -0.37380587604E+01  0.54210113038E+02  0.00000000000E+00 0.  1.
</event>
<event>
 8    1  0.7016814E-009  0.1060657E+03  0.7561462E-02  0.1268034E+00
         -2   -1    0    0    0  501 -0.00000000000E+00  0.00000000000E+00  0.16241131530E+02  0.16241131530E+02  0.00000000000E+00 0.  1.
          2   -1    0    0  501    0  0.00000000000E+00 -0.00000000000E+00 -0.10546916711E+04  0.10546916711E+04  0.00000000000E+00 0. -1.
         25    2    1    2    0    0  0.46333589135E+02  0.98675515741E+01 -0.79882479953E+03  0.80994456279E+03  0.12507983211E+03 0.  0.
         23    2    1    2    0    0 -0.46333589135E+02 -0.98675515741E+01 -0.23962574001E+03  0.26098823980E+03  0.91924947567E+02 0.  0.
          5    1    3    3  502    0  0.48949732368E+02 -0.48568117846E+02 -0.30937840268E+03  0.31699748708E+03  0.41800000000E+01 0.  1.
         -5    1    3    3    0  502 -0.26161432324E+01  0.58435669420E+02 -0.48944639685E+03  0.49294707572E+03  0.41800000000E+01 0.  1.
        -11    1    4    4    0    0 -0.42788218179E+02  0.24867651327E+02 -0.58950034813E+02  0.76969723281E+02  0.00000000000E+00 0.  1.
         11    1    4    4    0    0 -0.35453709565E+01 -0.34735202901E+02 -0.18067570519E+03  0.18401851652E+03  0.00000000000E+00 0. -1.
</event>
<event>
 8    1  0.7016814E-009  0.2771383E+03  0.7561462E-02  0.1097262E+00
          3   -1    0    0  501    0  0.00000000000E+00  0.00000000000E+00  0.15002210076E+03  0.15002210076E+03  0.00000000000E+00 0. -1.
         -3   -1    0    0    0  501 -0.00000000000E+00 -0.00000000000E+00 -0.86561105642E+03  0.86561105642E+03  0.00000000000E+00 0.  1.
         25    2    1    2    0    0 -0.25285161363E+03 -0.70116878136E+02 -0.67527520504E+03  0.73518288277E+03  0.12508778303E+03 0.  0.
         23    2    1    2    0    0  0.25285161363E+03  0.70116878136E+02 -0.40313750614E+02  0.28045027441E+03  0.90425896810E+02 0.  0.
          5    1    3    3  502    0 -0.22291570084E+03 -0.10239441239E+03 -0.54707415246E+03  0.59956953396E+03  0.41800000000E+01 0. -1.
         -5    1    3    3    0  502 -0.29935912791E+02  0.32277534252E+02 -0.12820105258E+03  0.13561334881E+03  0.41800000000E+01 0. -1.
        -11    1    4    4    0    0  0.19876004260E+03  0.69676215080E+02 -0.65793886955E+02  0.22065621460E+03  0.00000000000E+00 0.  1.
         11    1    4    4    0    0  0.54091571033E+02  0.44066305590E+00  0.25480136341E+02  0.59794059811E+02  0.00000000000E+00 0. -1.
</event>
<event>
 8    1  0.7016814E-009  0.7197547E+02  0.7561462E-02  0.1353501E+00
         -2   -1    0    0    0  501 -0.00000000000E+00  0.00000000000E+00  0.45060713386E+02  0.45060713386E+02  0.00000000000E+00 0.  1.
          2   -1    0    0  501    0  0.00000000000E+00 -0.00000000000E+00 -0.28178792314E+03  0.28178792314E+03  0.00000000000E+00 0. -1.
         25    2    1    2    0    0 -0.10097452816E+02  0.33365743430E+02 -0.13575914516E+03  0.18786486983E+03  0.12508969754E+03 0.  0.
         23    2    1    2    0    0  0.10097452816E+02 -0.33365743430E+02 -0.10096806459E+03  0.13898376670E+03  0.88919660095E+02 0.  0.
          5    1    3    3  502    0  0.15628965829E+02  0.55409652493E+02 -0.11312329904E+02  0.58821215307E+02  0.41800000000E+01 0.  1.
         -5    1    3    3    0  502 -0.25726418646E+02 -0.22043909063E+02 -0.12444681526E+03  0.12904365452E+03  0.41800000000E+01 0.  1.
        -11    1    4    4    0    0  0.65874268810E+01  0.81210885918E+01  0.13559359108E+02  0.17123156609E+02  0.00000000000E+00 0.  1.
         11    1    4    4    0    0  0.35100259354E+01 -0.41486832022E+02 -0.11452742370E+03  0.12186061009E+03  0.00000000000E+00 0. -1.
</event>
<event>
 8    1  0.7016814E-009  0.9572784E+02  0.7561462E-02  0.1289545E+00
         -1   -1    0    0    0  501 -0.00000000000E+00  0.00000000000E+00  0.10303374596E+03  0.10303374596E+03  0.00000000000E+00 0.  1.
          1   -1    0    0  501    0  0.00000000000E+00 -0.00000000000E+00 -0.12544266339E+03  0.12544266339E+03  0.00000000000E+00 0. -1.
         25    2    1    2    0    0 -0.49261936999E+01  0.77917174887E+00 -0.41348134203E+02  0.13182245999E+03  0.12507045320E+03 0.  0.
         23    2    1    2    0    0  0.49261936999E+01 -0.77917174887E+00  0.18939216775E+02  0.96653949355E+02  0.94648917062E+02 0.  0.
          5    1    3    3  502    0 -0.52413390233E+02  0.71785793786E+01  0.17444948486E+02  0.55861382952E+02  0.41800000000E+01 0.  1.
         -5    1    3    3    0  502  0.47487196533E+02 -0.63994076297E+01 -0.58793082689E+02  0.75961077037E+02  0.41800000000E+01 0.  1.
        -11    1    4    4    0    0  0.39031399316E+02  0.26024808921E+02  0.24494841661E+02  0.52921999962E+02  0.00000000000E+00 0.  1.
         11    1    4    4    0    0 -0.34105205616E+02 -0.26803980670E+02 -0.55556248856E+01  0.43731949394E+02  0.00000000000E+00 0. -1.
</event>
<event>
 8    1  0.7016814E-009  0.9745827E+02  0.7561462E-02  0.1285733E+00
         -1   -1    0    0    0  501 -0.00000000000E+00  0.00000000000E+00  0.98908078644E+02  0.98908078644E+02  0.00000000000E+00 0.  1.
          1   -1    0    0  501    0  0.00000000000E+00 -0.00000000000E+00 -0.12401015382E+03  0.12401015382E+03  0.00000000000E+00 0. -1.
         25    2    1    2    0    0 -0.10978881475E+02 -0.20933914470E+02 -0.48533587264E+01  0.12737909728E+03  0.12507243788E+03 0.  0.
         23    2    1    2    0    0  0.10978881475E+02  0.20933914470E+02 -0.20248716445E+02  0.95539135184E+02  0.90326913047E+02 0.  0.
          5    1    3    3  502    0 -0.33794419611E+02  0.45047178188E+02  0.52535022243E+01  0.56713162010E+02  0.41800000000E+01 0.  1.
         -5    1    3    3    0  502  0.22815538136E+02 -0.65981092658E+02 -0.10106860951E+02  0.70665935266E+02  0.41800000000E+01 0.  1.
        -11    1    4    4    0    0  0.11714731778E+02  0.43947690452E+02  0.19592602767E+02  0.49522767692E+02  0.00000000000E+00 0.  1.
         11    1    4    4    0    0 -0.73585030260E+00 -0.23013775982E+02 -0.39841319212E+02  0.46016367492E+02  0.00000000000E+00 0. -1.
</event>
<event>
 8    1  0.7016814E-009  0.1065783E+03  0.7561462E-02  0.1267041E+00
         -1   -1    0    0    0  501 -0.00000000000E+00  0.00000000000E+00  0.34203610458E+02  0.34203610458E+02  0.00000000000E+00 0.  1.
          1   -1    0    0  501    0  0.00000000000E+00 -0.00000000000E+00 -0.40741676162E+03  0.40741676162E+03  0.00000000000E+00 0. -1.
         25    2    1    2    0    0  0.44770474567E+02 -0.16621781081E+02 -0.20732035580E+03  0.24679924837E+03  0.12508980802E+03 0.  0.
         23    2    1    2    0    0 -0.44770474567E+02  0.16621781081E+02 -0.16589279537E+03  0.19482112371E+03  0.90300452314E+02 0.  0.
          5    1    3    3  502    0  0.47562198270E+02 -0.58333089061E+02 -0.18378373203E+03  0.19864250437E+03  0.41800000000E+01 0.  1.
         -5    1    3    3    0  502 -0.27917237037E+01  0.41711307980E+02 -0.23536623768E+02  0.48156744004E+02  0.41800000000E+01 0.  1.
        -11    1    4    4    0    0 -0.66174671674E+00  0.43896540103E+02 -0.43081332757E+02  0.61508904834E+02  0.00000000000E+00 0.  1.
         11    1    4    4    0    0 -0.44108727850E+02 -0.27274759022E+02 -0.12281146261E+03  0.13331221887E+03  0.00000000000E+00 0. -1.
</event>
<event>
 8    1  0.7016814E-009  0.2275479E+03  0.7561462E-02  0.1128378E+00
          1   -1    0    0  501    0  0.00000000000E+00  0.00000000000E+00  0.71095589256E+03  0.71095589256E+03  0.00000000000E+00 0. -1.
         -1   -1    0    0    0  501 -0.00000000000E+00 -0.00000000000E+00 -0.14815824154E+03  0.14815824154E+03  0.00000000000E+00 0.  1.
         25    2    1    2    0    0 -0.19845108809E+03 -0.73093124255E+02  0.57562537664E+03  0.62587580980E+03  0.12510202191E+03 0.  0.
         23    2    1    2    0    0  0.19845108809E+03  0.73093124255E+02 -0.12827725620E+02  0.23323832429E+03  0.97519875898E+02 0.  0.
          5    1    3    3  502    0 -0.20739568895E+03 -0.44377381528E+02  0.53189938355E+03  0.57264015788E+03  0.41800000000E+01 0.  1.
         -5    1    3    3    0  502  0.89446008557E+01 -0.28715742728E+02  0.43725993085E+02  0.53235651928E+02  0.41800000000E+01 0.  1.
        -11    1    4    4    0    0  0.95432280436E+02  0.46734465399E+02 -0.54016622635E+02  0.11920245772E+03  0.00000000000E+00 0.  1.
         11    1    4    4    0    0  0.10301880766E+03  0.26358658856E+02  0.41188897014E+02  0.11403586657E+03  0.00000000000E+00 0. -1.
</event>
<event>
 8    1  0.7016814E-009  0.1256416E+03  0.7561462E-02  0.1234070E+00
         -2   -1    0    0    0  501 -0.00000000000E+00  0.00000000000E+00  0.32378954181E+02  0.32378954181E+02  0.00000000000E+00 0.  1.
          2   -1    0    0  501    0  0.00000000000E+00 -0.00000000000E+00 -0.57717845049E+03  0.57717845049E+03  0.00000000000E+00 0. -1.
         25    2    1    2    0    0  0.71173016999E+00  0.84668233115E+02 -0.29110809185E+03  0.32796375090E+03  0.12508830684E+03 0.  0.
         23    2    1    2    0    0 -0.71173016999E+00 -0.84668233115E+02 -0.25369140446E+03  0.28159365377E+03  0.88127412806E+02 0.  0.
          5    1    3    3  502    0 -0.54568555108E+02  0.94834801693E+01 -0.83233900484E+02  0.10006506979E+03  0.41800000000E+01 0. -1.
         -5    1    3    3    0  502  0.55280285278E+02  0.75184752945E+02 -0.20787419136E+03  0.22789868111E+03  0.41800000000E+01 0. -1.
        -11    1    4    4    0    0  0.27095603550E+02 -0.56927545404E+02 -0.71987325644E+02  0.95692696747E+02  0.00000000000E+00 0.  1.
         11    1    4    4    0    0 -0.27807333720E+02 -0.27740687711E+02 -0.18170407882E+03  0.18590095702E+03  0.00000000000E+00 0. -1.
</event>
<event>
 8    1  0.7016814E-009  0.8273439E+02  0.7561462E-02  0.1321466E+00
         -4   -1    0    0    0  501 -0.00000000000E+00  0.00000000000E+00  0.12378904172E+02  0.12378904172E+02  0.00000000000E+00 0.  1.
          4   -1    0    0  501    0  0.00000000000E+00 -0.00000000000E+00 -0.98540235452E+03  0.98540235452E+03  0.00000000000E+00 0. -1.
         25    2    1    2    0    0  0.15091041450E+02 -0.10644321684E+02 -0.48461092937E+03  0.50083655163E+03  0.12509379467E+03 0.  0.
         23    2    1    2    0    0 -0.15091041450E+02  0.10644321684E+02 -0.48841252098E+03  0.49694470706E+03  0.89812082244E+02 0.  0.
          5    1    3    3  502    0 -0.24038041846E+02  0.13240004288E+02 -0.20650955586E+02  0.34598548177E+02  0.41800000000E+01 0. -1.
         -5    1    3    3    0  502  0.39129083297E+02 -0.23884325972E+02 -0.46395997379E+03  0.46623800345E+03  0.41800000000E+01 0. -1.
        -11    1    4    4    0    0  0.20099658517E+02  0.40703198053E+02 -0.23739642052E+03  0.24169775978E+03  0.00000000000E+00 0.  1.
         11    1    4    4    0    0 -0.35190699968E+02 -0.30058876369E+02 -0.25101610045E+03  0.25524694729E+03  0.00000000000E+00 0. -1.
</event>
<event>
 8    1  0.7016814E-009  0.1543744E+03  0.7561462E-02  0.1195199E+00
          2   -1    0    0  501    0  0.00000000000E+00  0.00000000000E+00  0.10405984697E+04  0.10405984697E+04  0.00000000000E+00 0.  1.
         -2   -1    0    0    0  501 -0.00000000000E+00 -0.00000000000E+00 -0.27183076399E+02  0.27183076399E+02  0.00000000000E+00 0. -1.
         25    2    1    2    0    0 -0.76268444194E+02  0.91681934379E+02  0.38903706257E+03  0.42569945993E+03  0.12509093274E+03 0.  0.
         23    2    1    2    0    0  0.76268444194E+02 -0.91681934379E+02  0.62437833072E+03  0.64208208616E+03  0.90546412579E+02 0.  0.
          5    1    3    3  502    0 -0.58013148191E+02 -0.12522482565E+02  0.20416406608E+03  0.21265647465E+03  0.41800000000E+01 0.  1.
         -5    1    3    3    0  502 -0.18255296003E+02  0.10420441694E+03  0.18487299650E+03  0.21304298528E+03  0.41800000000E+01 0.  1.
        -11    1    4    4    0    0 -0.28117905128E+01 -0.56929723558E+02  0.16277449660E+03  0.17246575409E+03  0.00000000000E+00 0.  1.
         11    1    4    4    0    0  0.79080234707E+02 -0.34752210820E+02  0.46160383412E+03  0.46961633208E+03  0.00000000000E+00 0. -1.
</event>
<event>
 8    1  0.7016814E-009  0.8930130E+02  0.7561462E-02  0.1304553E+00
         -1   -1    0    0    0  501 -0.00000000000E+00  0.00000000000E+00  0.36735972008E+02  0.36735972008E+02  0.00000000000E+00 0.  1.
          1   -1    0    0  501    0  0.00000000000E+00 -0.00000000000E+00 -0.47267243988E+03  0.47267243988E+03  0.00000000000E+00 0. -1.
         25    2    1    2    0    0  0.16010518406E+02 -0.59158178011E+02 -0.32819732386E+03  0.35654103744E+03  0.12510795841E+03 0.  0.
         23    2    1    2    0    0 -0.16010518406E+02  0.59158178011E+02 -0.10773914401E+03  0.15286737445E+03  0.89468901273E+02 0.  0.
          5    1    3    3  502    0  0.45688467578E+02 -0.33825117337E+02 -0.30638763477E+03  0.31164471723E+03  0.41800000000E+01 0. -1.
         -5    1    3    3    0  502 -0.29677949172E+02 -0.25333060674E+02 -0.21809689092E+02  0.44896320211E+02  0.41800000000E+01 0. -1.
        -11    1    4    4    0    0  0.50842029811E+01  0.60974749816E+02 -0.22747217152E+02  0.65277906853E+02  0.00000000000E+00 0.  1.
         11    1    4    4    0    0 -0.21094721387E+02 -0.18165718045E+01 -0.84991926854E+02  0.87589467597E+02  0.00000000000E+00 0. -1.
</event>
<event>
 8    1  0.7016814E-009  0.1104292E+03  0.7561462E-02  0.1259777E+00
          3   -1    0    0  501    0  0.00000000000E+00  0.00000000000E+00  0.91914652283E+02  0.91914652283E+02  0.00000000000E+00 0. -1.
         -3   -1    0    0    0  501 -0.00000000000E+00 -0.00000000000E+00 -0.24966736569E+03  0.24966736569E+03  0.00000000000E+00 0.  1.
         25    2    1    2    0    0  0.62748922912E+02 -0.68606504471E+01  0.10341166326E+02  0.14049532077E+03  0.12508996597E+03 0.  0.
         23    2    1    2    0    0 -0.62748922912E+02  0.68606504471E+01 -0.16809387973E+03  0.20108669720E+03  0.90530721514E+02 0.  0.
          5    1    3    3  502    0  0.79332954860E+02  0.39325897486E+02 -0.53492166812E+01  0.88805013704E+02  0.41800000000E+01 0.  1.
         -5    1    3    3    0  502 -0.16584031947E+02 -0.46186547933E+02  0.15690383007E+02  0.51690307065E+02  0.41800000000E+01 0.  1.
        -11    1    4    4    0    0 -0.42026492027E+02  0.30199965669E+02 -0.30657794338E+02  0.60151178809E+02  0.00000000000E+00 0. -1.
         11    1    4    4    0    0 -0.20722430886E+02 -0.23339315222E+02 -0.13743608539E+03  0.14093551839E+03  0.00000000000E+00 0.  1.
</event>
<event>
 8    1  0.7016814E-009  0.8293654E+02  0.7561462E-02  0.1320919E+00
         -2   -1    0    0    0  501 -0.00000000000E+00  0.00000000000E+00  0.23237986081E+03  0.23237986081E+03  0.00000000000E+00 0.  1.
          2   -1    0    0  501    0  0.00000000000E+00 -0.00000000000E+00 -0.68514011865E+02  0.68514011865E+02  0.00000000000E+00 0. -1.
         25    2    1    2    0    0  0.31690939071E+02 -0.52878992157E+02  0.65283751790E+02  0.15398242109E+03  0.12509242314E+03 0.  0.
         23    2    1    2    0    0 -0.31690939071E+02  0.52878992157E+02  0.98582097157E+02  0.14691145159E+03  0.89800007221E+02 0.  0.
          5    1    3    3  502    0  0.12715902964E+02 -0.61544021282E+01 -0.37022085579E+02  0.39845678240E+02  0.41800000000E+01 0.  1.
         -5    1    3    3    0  502  0.18975036107E+02 -0.46724590029E+02  0.10230583737E+03  0.11413674285E+03  0.41800000000E+01 0.  1.
        -11    1    4    4    0    0  0.26834191425E+02  0.19405616689E+02  0.61789599337E+02  0.70104253614E+02  0.00000000000E+00 0.  1.
         11    1    4    4    0    0 -0.58525130496E+02  0.33473375468E+02  0.36792497820E+02  0.76807197974E+02  0.00000000000E+00 0. -1.
</event>
<event>
 8    1  0.7016814E-009  0.1300273E+03  0.7561462E-02  0.1227415E+00
          2   -1    0    0  501    0  0.00000000000E+00  0.00000000000E+00  0.10925681977E+04  0.10925681977E+04  0.00000000000E+00 0. -1.
         -2   -1    0    0    0  501 -0.00000000000E+00 -0.00000000000E+00 -0.17807451580E+02  0.17807451580E+02  0.00000000000E+00 0.  1.
         25    2    1    2    0    0 -0.54842182157E+02 -0.64696264307E+02  0.49192362981E+03  0.51461498403E+03  0.12508578121E+03 0.  0.
         23    2    1    2    0    0  0.54842182157E+02  0.64696264307E+02  0.58283711630E+03  0.59576066524E+03  0.89657094274E+02 0.  0.
          5    1    3    3  502    0  0.91837529842E+01  0.24843248838E+02  0.32319996768E+02  0.41995034502E+02  0.41800000000E+01 0. -1.
         -5    1    3    3    0  502 -0.64025935141E+02 -0.89539513145E+02  0.45960363304E+03  0.47261994952E+03  0.41800000000E+01 0. -1.
        -11    1    4    4    0    0 -0.18361814294E+01  0.66357428851E+02  0.33595264280E+03  0.34244832914E+03  0.00000000000E+00 0.  1.
         11    1    4    4    0    0  0.56678363586E+02 -0.16611645441E+01  0.24688447350E+03  0.25331233611E+03  0.00000000000E+00 0. -1.
</event>
<event>
 8    1  0.7016814E-009  0.1569903E+03  0.7561462E-02  0.1192137E+00
          1   -1    0    0  501    0  0.00000000000E+00  0.00000000000E+00  0.16283212234E+02  0.16283212234E+02  0.00000000000E+00 0. -1.
         -1   -1    0    0    0  501 -0.00000000000E+00 -0.00000000000E+00 -0.18952132701E+04  0.18952132701E+04  0.00000000000E+00 0.  1.
         25    2    1    2    0    0 -0.50460047219E+02  0.10833635426E+03 -0.13665493693E+04  0.13774570206E+04  0.12509069801E+03 0.  0.
         23    2    1    2    0    0  0.50460047219E+02 -0.10833635426E+03 -0.51238068851E+03  0.53403946172E+03  0.91548865071E+02 0.  0.
          5    1    3    3  502    0 -0.17598106960E+02  0.12855606867E+03 -0.11644916854E+04  0.11717058991E+04  0.41800000000E+01 0.  1.
         -5    1    3    3    0  502 -0.32861940259E+02 -0.20219714411E+02 -0.20205768390E+03  0.20575112149E+03  0.41800000000E+01 0.  1.
        -11    1    4    4    0    0 -0.22819643408E+02 -0.18240404489E+02 -0.17017650731E+03  0.17266583947E+03  0.00000000000E+00 0.  1.
         11    1    4    4    0    0  0.73279690627E+02 -0.90095949772E+02 -0.34220418120E+03  0.36137362225E+03  0.00000000000E+00 0. -1.
</event>
<event>
 8    1  0.7016814E-009  0.1145500E+03  0.7561462E-02  0.1252369E+00
          2   -1    0    0  501    0  0.00000000000E+00  0.00000000000E+00  0.80656142028E+03  0.80656142028E+03  0.00000000000E+00 0.  1.
         -2   -1    0    0    0  501 -0.00000000000E+00 -0.00000000000E+00 -0.17936697104E+02  0.17936697104E+02  0.00000000000E+00 0. -1.
         25    2    1    2    0    0  0.45704684813E+02  0.12777478566E+02  0.40791442819E+03  0.42929424503E+03  0.12508871220E+03 0.  0.
         23    2    1    2    0    0 -0.45704684813E+02 -0.12777478566E+02  0.38071029499E+03  0.39520387236E+03  0.94834539288E+02 0.  0.
          5    1    3    3  502    0  0.68377099413E+02  0.47047186627E+02  0.33822203245E+03  0.34828218606E+03  0.41800000000E+01 0.  1.
         -5    1    3    3    0  502 -0.22672414600E+02 -0.34269708060E+02  0.69692395736E+02  0.81012058965E+02  0.41800000000E+01 0.  1.
        -11    1    4    4    0    0  0.23344067101E+02  0.17621754433E+02  0.13681615416E+03  0.13990758284E+03  0.00000000000E+00 0.  1.
         11    1    4    4    0    0 -0.69048751914E+02 -0.30399232999E+02  0.24389414083E+03  0.25529628951E+03  0.00000000000E+00 0. -1.
</event>
<event>
 8    1  0.7016814E-009  0.1291247E+03  0.7561462E-02  0.1228760E+00
         -2   -1    0    0    0  501 -0.00000000000E+00  0.00000000000E+00  0.33873796101E+02  0.33873796101E+02  0.00000000000E+00 0. -1.
          2   -1    0    0  501    0  0.00000000000E+00 -0.00000000000E+00 -0.70652540245E+03  0.70652540245E+03  0.00000000000E+00 0.  1.
         25    2    1    2    0    0 -0.71979599252E+01  0.10602734458E+03 -0.29612192842E+03  0.33856968733E+03  0.12509048032E+03 0.  0.
         23    2    1    2    0    0  0.71979599252E+01 -0.10602734458E+03 -0.37652967793E+03  0.40182951122E+03  0.91644690484E+02 0.  0.
          5    1    3    3  502    0 -0.27428627380E+02  0.12014624043E+03 -0.17012906916E+03  0.21011620895E+03  0.41800000000E+01 0.  1.
         -5    1    3    3    0  502  0.20230667455E+02 -0.14118895850E+02 -0.12599285926E+03  0.12845347839E+03  0.41800000000E+01 0.  1.
        -11    1    4    4    0    0 -0.10757764730E+02 -0.32636299962E+02 -0.25580953846E+02  0.42839733623E+02  0.00000000000E+00 0. -1.
         11    1    4    4    0    0  0.17955724656E+02 -0.73391044619E+02 -0.35094872409E+03  0.35898977759E+03  0.00000000000E+00 0.  1.
</event>
<event>
 8    1  0.7016814E-009  0.1724646E+03  0.7561462E-02  0.1175302E+00
          2   -1    0    0  501    0  0.00000000000E+00  0.00000000000E+00  0.94545058306E+03  0.94545058306E+03  0.00000000000E+00 0. -1.
         -2   -1    0    0    0  501 -0.00000000000E+00 -0.00000000000E+00 -0.33968288926E+02  0.33968288926E+02  0.00000000000E+00 0.  1.
         25    2    1    2    0    0  0.52385020161E+02  0.12939074141E+03  0.40600312740E+03  0.44718325588E+03  0.12509264797E+03 0.  0.
         23    2    1    2    0    0 -0.52385020161E+02 -0.12939074141E+03  0.50547916674E+03  0.53223561611E+03  0.90991256473E+02 0.  0.
          5    1    3    3  502    0  0.31263882221E+02  0.15247352098E+03  0.33010106554E+03  0.36497916489E+03  0.41800000000E+01 0. -1.
         -5    1    3    3    0  502  0.21121137940E+02 -0.23082779568E+02  0.75902061858E+02  0.82204090985E+02  0.41800000000E+01 0. -1.
        -11    1    4    4    0    0 -0.83831372100E+01  0.90857040263E+01  0.10028099636E+02  0.15918221931E+02  0.00000000000E+00 0.  1.
         11    1    4    4    0    0 -0.44001882951E+02 -0.13847644544E+03  0.49545106710E+03  0.51631739418E+03  0.00000000000E+00 0. -1.
</event>
<event>
 8    1  0.7016814E-009  0.8373679E+02  0.7561462E-02  0.1318769E+00
          2   -1    0    0  501    0  0.00000000000E+00  0.00000000000E+00  0.11203777650E+03  0.11203777650E+03  0.00000000000E+00 0. -1.
         -2   -1    0    0    0  501 -0.00000000000E+00 -0.00000000000E+00 -0.11734903475E+03  0.11734903475E+03  0.00000000000E+00 0.  1.
         25    2    1    2    0    0  0.16026401865E+01  0.13459720257E+02 -0.39429283482E+02  0.13185346538E+03  0.12508771087E+03 0.  0.
         23    2    1    2    0    0 -0.16026401865E+01 -0.13459720257E+02  0.34118025235E+02  0.97533345877E+02  0.90360286560E+02 0.  0.
          5    1    3    3  502    0 -0.12648103235E+02 -0.30161638322E+02  0.32585917912E+02  0.46357452345E+02  0.41800000000E+01 0.  1.
         -5    1    3    3    0  502  0.14250743421E+02  0.43621358580E+02 -0.72015201394E+02  0.85496013031E+02  0.41800000000E+01 0.  1.
        -11    1    4    4    0    0  0.42880058870E+02 -0.77245052529E+01  0.45369082828E+01  0.43805832566E+02  0.00000000000E+00 0. -1.
         11    1    4    4    0    0 -0.44482699056E+02 -0.57352150045E+01  0.29581116952E+02  0.53727513311E+02  0.00000000000E+00 0.  1.
</event>
<event>
 8    1  0.7016814E-009  0.1055731E+03  0.7561462E-02  0.1268995E+00
          2   -1    0    0  501    0  0.00000000000E+00  0.00000000000E+00  0.65686073540E+03  0.65686073540E+03  0.00000000000E+00 0.  1.
         -2   -1    0    0    0  501 -0.00000000000E+00 -0.00000000000E+00 -0.23148895368E+02  0.23148895368E+02  0.00000000000E+00 0. -1.
         25    2    1    2    0    0 -0.46369296856E+01  0.49743616186E+02  0.43707760380E+03  0.45736212034E+03  0.12508936370E+03 0.  0.
         23    2    1    2    0    0  0.46369296856E+01 -0.49743616186E+02  0.19663423623E+03  0.22264751043E+03  0.91711300137E+02 0.  0.
          5    1    3    3  502    0  0.42483630851E+02 -0.59493541811E+01  0.28943226491E+03  0.29262392602E+03  0.41800000000E+01 0.  1.
         -5    1    3    3    0  502 -0.47120560536E+02  0.55692970367E+02  0.14764533888E+03  0.16473819432E+03  0.41800000000E+01 0.  1.
        -11    1    4    4    0    0  0.42542181492E+02 -0.21261805989E+02  0.52136959594E+02  0.70570278133E+02  0.00000000000E+00 0. -1.
         11    1    4    4    0    0 -0.37905251806E+02 -0.28481810196E+02  0.14449727664E+03  0.15207723230E+03  0.00000000000E+00 0.  1.
</event>
<event>
 8    1  0.7016814E-009  0.8689318E+02  0.7561462E-02  0.1310555E+00
          2   -1    0    0  501    0  0.00000000000E+00  0.00000000000E+00  0.18954623168E+04  0.18954623168E+04  0.00000000000E+00 0. -1.
         -2   -1    0    0    0  501 -0.00000000000E+00 -0.00000000000E+00 -0.13643634828E+02  0.13643634828E+02  0.00000000000E+00 0.  1.
         25    2    1    2    0    0 -0.30405290709E+02  0.67365185896E+02  0.15575177345E+04  0.15642798891E+04  0.12509007958E+03 0.  0.
         23    2    1    2    0    0  0.30405290709E+02 -0.67365185896E+02  0.32430094748E+03  0.34482606259E+03  0.90947011681E+02 0.  0.
          5    1    3    3  502    0 -0.23657355003E+02  0.29599838152E+02  0.14416648451E+04  0.14421687900E+04  0.41800000000E+01 0. -1.
         -5    1    3    3    0  502 -0.67479357060E+01  0.37765347744E+02  0.11585288943E+03  0.12211109907E+03  0.41800000000E+01 0. -1.
        -11    1    4    4    0    0 -0.17228232172E+02 -0.38014524399E+01  0.92584162507E+01  0.19924389474E+02  0.00000000000E+00 0.  1.
         11    1    4    4    0    0  0.47633522881E+02 -0.63563733456E+02  0.31504253123E+03  0.32490167312E+03  0.00000000000E+00 0. -1.
</event>
<event>
 8    1  0.7016814E-009  0.1346160E+03  0.7561462E-02  0.1220763E+00
          1   -1    0    0  501    0  0.00000000000E+00  0.00000000000E+00  0.37435308717E+04  0.37435308717E+04  0.00000000000E+00 0. -1.
         -1   -1    0    0    0  501 -0.00000000000E+00 -0.00000000000E+00 -0.15970499122E+02  0.15970499122E+02  0.00000000000E+00 0.  1.
         25    2    1    2    0    0  0.13625393965E+02  0.91010805291E+02  0.34474613408E+04  0.34509572882E+04  0.12509152817E+03 0.  0.
         23    2    1    2    0    0 -0.13625393965E+02 -0.91010805291E+02  0.28009903175E+03  0.30854408262E+03  0.90969034814E+02 0.  0.
          5    1    3    3  502    0  0.33981350151E+02  0.11367735413E+03  0.30492877865E+04  0.30515980650E+04  0.41800000000E+01 0.  1.
         -5    1    3    3    0  502 -0.20355956187E+02 -0.22666548839E+02  0.39817355432E+03  0.39935922319E+03  0.41800000000E+01 0.  1.
        -11    1    4    4    0    0 -0.95606284899E+01  0.12740622558E+02  0.94874214511E+02  0.96202108394E+02  0.00000000000E+00 0.  1.
         11    1    4    4    0    0 -0.40647654747E+01 -0.10375142785E+03  0.18522481724E+03  0.21234197423E+03  0.00000000000E+00 0. -1.
</event>
<event>
 8    1  0.7016814E-009  0.1248516E+03  0.7561462E-02  0.1235301E+00
          2   -1    0    0  501    0  0.00000000000E+00  0.00000000000E+00  0.13195541142E+03  0.13195541142E+03  0.00000000000E+00 0. -1.
         -2   -1    0    0    0  501 -0.00000000000E+00 -0.00000000000E+00 -0.22628763033E+03  0.22628763033E+03  0.00000000000E+00 0.  1.
         25    2    1    2    0    0 -0.46919389159E+02  0.68221207609E+02  0.59548757424E+02  0.16139368420E+03  0.12508518914E+03 0.  0.
         23    2    1    2    0    0  0.46919389159E+02 -0.68221207609E+02 -0.15388097633E+03  0.19684935755E+03  0.90635271528E+02 0.  0.
          5    1    3    3  502    0 -0.39881792337E+01  0.82248935310E+02  0.76980105348E+02  0.11280160439E+03  0.41800000000E+01 0. -1.
         -5    1    3    3    0  502 -0.42931209925E+02 -0.14027727700E+02 -0.17431347924E+02  0.48592079813E+02  0.41800000000E+01 0. -1.
        -11    1    4    4    0    0 -0.27038931298E+02 -0.17273259412E+02 -0.51327441251E+02  0.60530781606E+02  0.00000000000E+00 0.  1.
         11    1    4    4    0    0  0.73958320457E+02 -0.50947948198E+02 -0.10255353508E+03  0.13631857594E+03  0.00000000000E+00 0. -1.
</event>
<event>
 8    1  0.7016814E-009  0.1161839E+03  0.7561462E-02  0.1249529E+00
          1   -1    0    0  501    0  0.00000000000E+00  0.00000000000E+00  0.25130951456E+03  0.25130951456E+03  0.00000000000E+00 0. -1.
         -1   -1    0    0    0  501 -0.00000000000E+00 -0.00000000000E+00 -0.79407558839E+02  0.79407558839E+02  0.00000000000E+00 0.  1.
         25    2    1    2    0    0 -0.89935724666E+00  0.82471351904E+02  0.10234986737E+03  0.18145395990E+03  0.12509081294E+03 0.  0.
         23    2    1    2    0    0  0.89935724666E+00 -0.82471351904E+02  0.69552088349E+02  0.14926311351E+03  0.10314868555E+03 0.  0.
          5    1    3    3  502    0 -0.56725184819E+02  0.44351815159E+02  0.85118582840E+02  0.11156825555E+03  0.41800000000E+01 0.  1.
         -5    1    3    3    0  502  0.55825827573E+02  0.38119536745E+02  0.17231284534E+02  0.69885704350E+02  0.41800000000E+01 0.  1.
        -11    1    4    4    0    0  0.13077400264E+02 -0.78678055933E+02  0.93033035374E+02  0.12254142383E+03  0.00000000000E+00 0. -1.
         11    1    4    4    0    0 -0.12178043017E+02 -0.37932959714E+01 -0.23480947024E+02  0.26721689677E+02  0.00000000000E+00 0.  1.
</event>
<event>
 8    1  0.7016814E-009  0.1562363E+03  0.7561462E-02  0.1193013E+00
         -4   -1    0    0    0  501 -0.00000000000E+00  0.00000000000E+00  0.19716837385E+03  0.19716837385E+03  0.00000000000E+00 0.  1.
          4   -1    0    0  501    0  0.00000000000E+00 -0.00000000000E+00 -0.12958887490E+03  0.12958887490E+03  0.00000000000E+00 0. -1.
         25    2    1    2    0    0  0.37668257307E+02  0.11334783117E+03  0.35074229745E+02  0.17647249043E+03  0.12508281195E+03 0.  0.
         23    2    1    2    0    0 -0.37668257307E+02 -0.11334783117E+03  0.32505269205E+02  0.15028475832E+03  0.85219056656E+02 0.  0.
          5    1    3    3  502    0 -0.39530024042E+02  0.10975327469E+02  0.23991897927E+02  0.47709162431E+02  0.41800000000E+01 0. -1.
         -5    1    3    3    0  502  0.77198281348E+02  0.10237250370E+03  0.11082331818E+02  0.12876332799E+03  0.41800000000E+01 0. -1.
        -11    1    4    4    0    0 -0.51139227912E+02 -0.31633956113E+02  0.30542743856E+02  0.67444695960E+02  0.00000000000E+00 0. -1.
         11    1    4    4    0    0  0.13470970605E+02 -0.81713875059E+02  0.19625253494E+01  0.82840062361E+02  0.00000000000E+00 0.  1.
</event>
<event>
 8    1  0.7016814E-009  0.7977841E+02  0.7561462E-02  0.1329681E+00
          1   -1    0    0  501    0  0.00000000000E+00  0.00000000000E+00  0.10926062583E+03  0.10926062583E+03  0.00000000000E+00 0. -1.
         -1   -1    0    0    0  501 -0.00000000000E+00 -0.00000000000E+00 -0.15530796058E+03  0.15530796058E+03  0.00000000000E+00 0.  1.
         25    2    1    2    0    0 -0.45152363987E+02 -0.44365625741E+02 -0.57176602974E+02  0.15140690452E+03  0.12509133498E+03 0.  0.
         23    2    1    2    0    0  0.45152363987E+02  0.44365625741E+02  0.11129268219E+02  0.11316168190E+03  0.93137859742E+02 0.  0.
          5    1    3    3  502    0 -0.45178273134E+02 -0.29673824501E+02 -0.95687061635E+02  0.10997771769E+03  0.41800000000E+01 0. -1.
         -5    1    3    3    0  502  0.25909147011E-01 -0.14691801240E+02  0.38510458662E+02  0.41429186829E+02  0.41800000000E+01 0. -1.
        -11    1    4    4    0    0  0.45879462131E+02  0.18282266236E+00  0.39590775372E+02  0.60600230727E+02  0.00000000000E+00 0. -1.
         11    1    4    4    0    0 -0.72709814416E+00  0.44182803079E+02 -0.28461507153E+02  0.52561451169E+02  0.00000000000E+00 0.  1.
</event>
<event>
 8    1  0.7016814E-009  0.9862472E+02  0.7561462E-02  0.1283215E+00
          1   -1    0    0  501    0  0.00000000000E+00  0.00000000000E+00  0.63271232423E+03  0.63271232423E+03  0.00000000000E+00 0. -1.
         -1   -1    0    0    0  501 -0.00000000000E+00 -0.00000000000E+00 -0.21045954570E+02  0.21045954570E+02  0.00000000000E+00 0.  1.
         25    2    1    2    0    0 -0.25891561217E+02 -0.27889505861E+02  0.35731473003E+03  0.38048628856E+03  0.12509117479E+03 0.  0.
         23    2    1    2    0    0  0.25891561217E+02  0.27889505861E+02  0.25435163963E+03  0.27327199024E+03  0.92383042737E+02 0.  0.
          5    1    3    3  502    0  0.30020569854E+02  0.20095243891E+02  0.23374405188E+03  0.23655614055E+03  0.41800000000E+01 0. -1.
         -5    1    3    3    0  502 -0.55912131071E+02 -0.47984749752E+02  0.12357067815E+03  0.14393014801E+03  0.41800000000E+01 0. -1.
        -11    1    4    4    0    0  0.41416983600E+02 -0.12949457883E+02  0.59864929737E+02  0.73938249928E+02  0.00000000000E+00 0.  1.
         11    1    4    4    0    0 -0.15525422383E+02  0.40838963744E+02  0.19448670990E+03  0.19933374031E+03  0.00000000000E+00 0. -1.
</event>
<event>
 8    1  0.7016814E-009  0.1250368E+03  0.7561462E-02  0.1235012E+00
         -2   -1    0    0    0  501 -0.00000000000E+00  0.00000000000E+00  0.19066838437E+02  0.19066838437E+02  0.00000000000E+00 0. -1.
          2   -1    0    0  501    0  0.00000000000E+00 -0.00000000000E+00 -0.86868935595E+03  0.86868935595E+03  0.00000000000E+00 0.  1.
         25    2    1    2    0    0 -0.49279753892E+02  0.42895054401E+02 -0.38759228340E+03  0.41248488173E+03  0.12509004624E+03 0.  0.
         23    2    1    2    0    0  0.49279753892E+02 -0.42895054401E+02 -0.46203023411E+03  0.47527131266E+03  0.90235267849E+02 0.  0.
          5    1    3    3  502    0 -0.68588784609E+02  0.75897144329E+02 -0.29292486247E+03  0.31030186165E+03  0.41800000000E+01 0.  1.
         -5    1    3    3    0  502  0.19309030717E+02 -0.33002089928E+02 -0.94667420932E+02  0.10218302008E+03  0.41800000000E+01 0.  1.
        -11    1    4    4    0    0  0.30589425062E+02  0.24560955198E+02 -0.12352666769E+03  0.12960629258E+03  0.00000000000E+00 0.  1.
         11    1    4    4    0    0  0.18690328830E+02 -0.67456009600E+02 -0.33850356642E+03  0.34566502008E+03  0.00000000000E+00 0. -1.
</event>
<event>
 8    1  0.7016814E-009  0.2416132E+03  0.7561462E-02  0.1118723E+00
          2   -1    0    0  501    0  0.00000000000E+00  0.00000000000E+00  0.62709886227E+03  0.62709886227E+03  0.00000000000E+00 0. -1.
         -2   -1    0    0    0  501 -0.00000000000E+00 -0.00000000000E+00 -0.13591162588E+03  0.13591162588E+03  0.00000000000E+00 0.  1.
         25    2    1    2    0    0 -0.99073906013E+02  0.22011668250E+03  0.90586848515E+02  0.28656441947E+03  0.12508475772E+03 0.  0.
         23    2    1    2    0    0  0.99073906013E+02 -0.22011668250E+03  0.40060038788E+03  0.47644606869E+03  0.90847084882E+02 0.  0.
          5    1    3    3  502    0 -0.10759714608E+02  0.30925927616E+02 -0.30690434310E+02  0.45072825688E+02  0.41800000000E+01 0.  1.
         -5    1    3    3    0  502 -0.88314191405E+02  0.18919075488E+03  0.12127728283E+03  0.24149159378E+03  0.41800000000E+01 0.  1.
        -11    1    4    4    0    0  0.13104126221E+02 -0.28600389739E+02  0.13115906834E+03  0.13487921125E+03  0.00000000000E+00 0. -1.
         11    1    4    4    0    0  0.85969779792E+02 -0.19151629276E+03  0.26944131953E+03  0.34156685744E+03  0.00000000000E+00 0.  1.
</event>
<event>
 8    1  0.7016814E-009  0.1032902E+03  0.7561462E-02  0.1273525E+00
         -2   -1    0    0    0  501 -0.00000000000E+00  0.00000000000E+00  0.39852112011E+02  0.39852112011E+02  0.00000000000E+00 0.  1.
          2   -1    0    0  501    0  0.00000000000E+00 -0.00000000000E+00 -0.32423783136E+03  0.32423783136E+03  0.00000000000E+00 0. -1.
         25    2    1    2    0    0  0.14515726170E+02  0.71386825116E+01 -0.21243245292E+03  0.24705664010E+03  0.12509104392E+03 0.  0.
         23    2    1    2    0    0 -0.14515726170E+02 -0.71386825116E+01 -0.71953266429E+02  0.11703330327E+03  0.90872737557E+02 0.  0.
          5    1    3    3  502    0  0.64954483908E+02  0.25470781126E+02 -0.95659516974E+02  0.11847388429E+03  0.41800000000E+01 0.  1.
         -5    1    3    3    0  502 -0.50438757738E+02 -0.18332098615E+02 -0.11677293595E+03  0.12858275581E+03  0.41800000000E+01 0.  1.
        -11    1    4    4    0    0  0.48209525805E+01 -0.42382555876E+02 -0.11058313698E+02  0.44065961106E+02  0.00000000000E+00 0.  1.
         11    1    4    4    0    0 -0.19336678750E+02  0.35243873365E+02 -0.60894952732E+02  0.72967342168E+02  0.00000000000E+00 0. -1.
</event>
<event>
 8    1  0.7016814E-009  0.2498693E+03  0.7561462E-02  0.1113387E+00
          1   -1    0    0  501    0  0.00000000000E+00  0.00000000000E+00  0.12721675865E+04  0.12721675865E+04  0.00000000000E+00 0. -1.
         -1   -1    0    0    0  501 -0.00000000000E+00 -0.00000000000E+00 -0.57255376062E+02  0.57255376062E+02  0.00000000000E+00 0.  1.
         25    2    1    2    0    0 -0.20065898704E+02  0.24012155029E+03  0.75399523643E+03  0.80138487983E+03  0.12509160586E+03 0.  0.
         23    2    1    2    0    0  0.20065898704E+02 -0.24012155029E+03  0.46091697404E+03  0.52803808276E+03  0.91207240302E+02 0.  0.
          5    1    3    3  502    0 -0.40147436674E+02  0.18085860913E+03  0.38709776631E+03  0.42916640858E+03  0.41800000000E+01 0.  1.
         -5    1    3    3    0  502  0.20081537970E+02  0.59262941160E+02  0.36689747011E+03  0.37221847125E+03  0.41800000000E+01 0.  1.
        -11    1    4    4    0    0 -0.11546703648E+00 -0.22835887427E+03  0.44371043994E+03  0.49902579423E+03  0.00000000000E+00 0.  1.
         11    1    4    4    0    0  0.20181365740E+02 -0.11762676019E+02  0.17206534096E+02  0.29012288532E+02  0.00000000000E+00 0. -1.
</event>
<event>
 8    1  0.7016814E-009  0.1170760E+03  0.7561462E-02  0.1248000E+00
          1   -1    0    0  501    0  0.00000000000E+00  0.00000000000E+00  0.15826860065E+03  0.15826860065E+03  0.00000000000E+00 0. -1.
         -1   -1    0    0    0  501 -0.00000000000E+00 -0.00000000000E+00 -0.10454055547E+03  0.10454055547E+03  0.00000000000E+00 0.  1.
         25    2    1    2    0    0 -0.40258849849E+02  0.54180862833E+02  0.14484688313E+02  0.14287815277E+03  0.12509204393E+03 0.  0.
         23    2    1    2    0    0  0.40258849849E+02 -0.54180862833E+02  0.39243356874E+02  0.11993100336E+03  0.91033310489E+02 0.  0.
          5    1    3    3  502    0 -0.82761348326E+02  0.52804892004E+02  0.16966159802E+01  0.98275878536E+02  0.41800000000E+01 0. -1.
         -5    1    3    3    0  502  0.42502498477E+02  0.13759708291E+01  0.12788072333E+02  0.44602274230E+02  0.41800000000E+01 0. -1.
        -11    1    4    4    0    0  0.15970720903E+02 -0.64737203900E+02 -0.65834442630E+01  0.67002322596E+02  0.00000000000E+00 0.  1.
         11    1    4    4    0    0  0.24288128946E+02  0.10556341067E+02  0.45826801137E+02  0.52928680759E+02  0.00000000000E+00 0. -1.
</event>
<event>
 8    1  0.7016814E-009  0.1322866E+03  0.7561462E-02  0.1224102E+00
         -1   -1    0    0    0  501 -0.00000000000E+00  0.00000000000E+00  0.63934467931E+02  0.63934467931E+02  0.00000000000E+00 0.  1.
          1   -1    0    0  501    0  0.00000000000E+00 -0.00000000000E+00 -0.41997175588E+03  0.41997175588E+03  0.00000000000E+00 0. -1.
         25    2    1    2    0    0  0.10390405452E+03  0.22963341229E+02 -0.27918639868E+03  0.32391176665E+03  0.12510163780E+03 0.  0.
         23    2    1    2    0    0 -0.10390405452E+03 -0.22963341229E+02 -0.76850889271E+02  0.15999445716E+03  0.91481143163E+02 0.  0.
          5    1    3    3  502    0  0.12836351673E+03  0.16841293635E+02 -0.18178580054E+03  0.22321373451E+03  0.41800000000E+01 0. -1.
         -5    1    3    3    0  502 -0.24459462203E+02  0.61220475937E+01 -0.97400598140E+02  0.10069803214E+03  0.41800000000E+01 0. -1.
        -11    1    4    4    0    0 -0.20577097212E+02 -0.15620044018E+02 -0.71670383940E+02  0.76184293912E+02  0.00000000000E+00 0.  1.
         11    1    4    4    0    0 -0.83326957311E+02 -0.73432972108E+01 -0.51805053316E+01  0.83810163251E+02  0.00000000000E+00 0. -1.
</event>
<event>
 8    1  0.7016814E-009  0.1152014E+03  0.7561462E-02  0.1251230E+00
          2   -1    0    0  501    0  0.00000000000E+00  0.00000000000E+00  0.11800050000E+04  0.11800050000E+04  0.00000000000E+00 0. -1.
         -2   -1    0    0    0  501 -0.00000000000E+00 -0.00000000000E+00 -0.13618290668E+02  0.13618290668E+02  0.00000000000E+00 0.  1.
         25    2    1    2    0    0  0.62992126236E+02  0.10713734790E+02  0.68341144871E+03  0.69769611838E+03  0.12508346532E+03 0.  0.
         23    2    1    2    0    0 -0.62992126236E+02 -0.10713734790E+02  0.48297526062E+03  0.49592717229E+03  0.92713891933E+02 0.  0.
          5    1    3    3  502    0  0.60380166555E+02  0.50017453380E+02  0.23996557601E+03  0.25248457423E+03  0.41800000000E+01 0. -1.
         -5    1    3    3    0  502  0.26119596808E+01 -0.39303718590E+02  0.44344587271E+03  0.44521154415E+03  0.41800000000E+01 0. -1.
        -11    1    4    4    0    0 -0.57527595156E+02  0.34268548164E+02  0.30627528773E+03  0.31350966408E+03  0.00000000000E+00 0. -1.
         11    1    4    4    0    0 -0.54645310801E+01 -0.44982282955E+02  0.17669997289E+03  0.18241750820E+03  0.00000000000E+00 0.  1.
</event>
<event>
 8    1  0.7016814E-009  0.1697355E+03  0.7561462E-02  0.1178124E+00
         -2   -1    0    0    0  501 -0.00000000000E+00  0.00000000000E+00  0.13315406515E+03  0.13315406515E+03  0.00000000000E+00 0.  1.
          2   -1    0    0  501    0  0.00000000000E+00 -0.00000000000E+00 -0.42182259643E+03  0.42182259643E+03  0.00000000000E+00 0. -1.
         25    2    1    2    0    0 -0.15480494497E+03 -0.21083617879E+02 -0.31246196983E+03  0.37106566303E+03  0.12509258074E+03 0.  0.
         23    2    1    2    0    0  0.15480494497E+03  0.21083617879E+02  0.23793438551E+02  0.18391099855E+03  0.94064008746E+02 0.  0.
          5    1    3    3  502    0 -0.27781853782E+02 -0.30431476829E+02 -0.96430167841E+01  0.42524890996E+02  0.41800000000E+01 0.  1.
         -5    1    3    3    0  502 -0.12702309119E+03  0.93478589505E+01 -0.30281895305E+03  0.32854077203E+03  0.41800000000E+01 0.  1.
        -11    1    4    4    0    0  0.45094723525E+01 -0.15326252258E+02 -0.17654582965E+02  0.23809948526E+02  0.00000000000E+00 0. -1.
         11    1    4    4    0    0  0.15029547262E+03  0.36409870136E+02  0.41448021516E+02  0.16010105003E+03  0.00000000000E+00 0.  1.
</event>
<event>
 8    1  0.7016814E-009  0.6637576E+02  0.7561462E-02  0.1372870E+00
          3   -1    0    0  501    0  0.00000000000E+00  0.00000000000E+00  0.29120466535E+03  0.29120466535E+03  0.00000000000E+00 0. -1.
         -3   -1    0    0    0  501 -0.00000000000E+00 -0.00000000000E+00 -0.49462120906E+02  0.49462120906E+02  0.00000000000E+00 0.  1.
         25    2    1    2    0    0 -0.15519126880E+02 -0.31091633322E+02  0.77591540785E+02  0.15125333914E+03  0.12509833108E+03 0.  0.
         23    2    1    2    0    0  0.15519126880E+02  0.31091633322E+02  0.16415100365E+03  0.18941344711E+03  0.87888389359E+02 0.  0.
          5    1    3    3  502    0 -0.66034395664E+01 -0.39937824745E+02 -0.25033274067E+02  0.47778368223E+02  0.41800000000E+01 0.  1.
         -5    1    3    3    0  502 -0.89156873134E+01  0.88461914231E+01  0.10262481485E+03  0.10347497092E+03  0.41800000000E+01 0.  1.
        -11    1    4    4    0    0  0.43031286691E+02  0.10066545159E+02  0.37015587968E+02  0.57647035642E+02  0.00000000000E+00 0.  1.
         11    1    4    4    0    0 -0.27512159811E+02  0.21025088163E+02  0.12713541569E+03  0.13176641147E+03  0.00000000000E+00 0. -1.
</event>
<event>
 8    1  0.7016814E-009  0.1244629E+03  0.7561462E-02  0.1235911E+00
          2   -1    0    0  501    0  0.00000000000E+00  0.00000000000E+00  0.58896918901E+03  0.58896918901E+03  0.00000000000E+00 0. -1.
         -2   -1    0    0    0  501 -0.00000000000E+00 -0.00000000000E+00 -0.27181032966E+02  0.27181032966E+02  0.00000000000E+00 0.  1.
         25    2    1    2    0    0 -0.56454431849E+02  0.33767466991E+02  0.33179874992E+03  0.36064590168E+03  0.12509081200E+03 0.  0.
         23    2    1    2    0    0  0.56454431849E+02 -0.33767466991E+02  0.22998940612E+03  0.25550432030E+03  0.89777425108E+02 0.  0.
          5    1    3    3  502    0 -0.84332863096E+02  0.57906625068E+02  0.21583151988E+03  0.23888475547E+03  0.41800000000E+01 0.  1.
         -5    1    3    3    0  502  0.27878431247E+02 -0.24139158077E+02  0.11596723005E+03  0.12176114621E+03  0.41800000000E+01 0.  1.
        -11    1    4    4    0    0  0.51056192234E+02 -0.62209290897E+02  0.18801349596E+03  0.20451358220E+03  0.00000000000E+00 0. -1.
         11    1    4    4    0    0  0.53982396152E+01  0.28441823906E+02  0.41975910159E+02  0.50990738097E+02  0.00000000000E+00 0.  1.
</event>
<event>
 8    1  0.7016814E-009  0.1487371E+03  0.7561462E-02  0.1202033E+00
         -2   -1    0    0    0  501 -0.00000000000E+00  0.00000000000E+00  0.17317379330E+03  0.17317379330E+03  0.00000000000E+00 0. -1.
          2   -1    0    0  501    0  0.00000000000E+00 -0.00000000000E+00 -0.13468596863E+03  0.13468596863E+03  0.00000000000E+00 0.  1.
         25    2    1    2    0    0 -0.80156453217E+02 -0.70935602879E+02  0.35363259731E+02  0.16839812272E+03  0.12510176198E+03 0.  0.
         23    2    1    2    0    0  0.80156453217E+02  0.70935602879E+02  0.31245649408E+01  0.13946163921E+03  0.89346903450E+02 0.  0.
          5    1    3    3  502    0 -0.14404129857E+02 -0.88665944579E+02 -0.32807133336E+01  0.89985355281E+02  0.41800000000E+01 0.  1.
         -5    1    3    3    0  502 -0.65752323360E+02  0.17730341699E+02  0.38643973065E+02  0.78412767444E+02  0.41800000000E+01 0.  1.
        -11    1    4    4    0    0  0.16460115145E+02 -0.21491056225E+02 -0.15539244901E+01  0.27114858834E+02  0.00000000000E+00 0. -1.
         11    1    4    4    0    0  0.63696338072E+02  0.92426659104E+02  0.46784894309E+01  0.11234678037E+03  0.00000000000E+00 0.  1.
</event>
<event>
 8    1  0.7016814E-009  0.1095927E+03  0.7561462E-02  0.1261326E+00
          2   -1    0    0  501    0  0.00000000000E+00  0.00000000000E+00  0.10352313419E+04  0.10352313419E+04  0.00000000000E+00 0. -1.
         -2   -1    0    0    0  501 -0.00000000000E+00 -0.00000000000E+00 -0.18633975016E+02  0.18633975016E+02  0.00000000000E+00 0.  1.
         25    2    1    2    0    0 -0.15365961008E+02  0.95141521635E+01  0.87404705065E+03  0.88313799826E+03  0.12509134809E+03 0.  0.
         23    2    1    2    0    0  0.15365961008E+02 -0.95141521635E+01  0.14255031622E+03  0.17072731865E+03  0.92198659580E+02 0.  0.
          5    1    3    3  502    0 -0.24669953691E+02  0.65169431585E+02  0.48338559739E+03  0.48840021457E+03  0.41800000000E+01 0.  1.
         -5    1    3    3    0  502  0.93039926825E+01 -0.55655279422E+02  0.39066145326E+03  0.39473778369E+03  0.41800000000E+01 0.  1.
        -11    1    4    4    0    0 -0.38467346906E+02 -0.44763703109E+01  0.46599005989E+02  0.60590775110E+02  0.00000000000E+00 0.  1.
         11    1    4    4    0    0  0.53833307915E+02 -0.50377818526E+01  0.95951310232E+02  0.11013654354E+03  0.00000000000E+00 0. -1.
</event>
<event>
 8    1  0.7016814E-009  0.1403863E+03  0.7561462E-02  0.1212810E+00
         -1   -1    0    0    0  501 -0.00000000000E+00  0.00000000000E+00  0.42957216053E+03  0.42957216053E+03  0.00000000000E+00 0.  1.
          1   -1    0    0  501    0  0.00000000000E+00 -0.00000000000E+00 -0.47657626955E+02  0.47657626955E+02  0.00000000000E+00 0. -1.
         25    2    1    2    0    0  0.90477701640E+02  0.11778576752E+02  0.17269077302E+03  0.23193364971E+03  0.12508463302E+03 0.  0.
         23    2    1    2    0    0 -0.90477701640E+02 -0.11778576752E+02  0.20922376055E+03  0.24529613777E+03  0.89836873619E+02 0.  0.
          5    1    3    3  502    0  0.10242371774E+03 -0.31819732548E+02  0.10299863771E+03  0.14875921856E+03  0.41800000000E+01 0.  1.
         -5    1    3    3    0  502 -0.11946016097E+02  0.43598309300E+02  0.69692135312E+02  0.83174431160E+02  0.41800000000E+01 0.  1.
        -11    1    4    4    0    0 -0.63945791529E+02 -0.50236130210E+02  0.13184804671E+03  0.15490849058E+03  0.00000000000E+00 0.  1.
         11    1    4    4    0    0 -0.26531910111E+02  0.38457553458E+02  0.77375713840E+02  0.90387647189E+02  0.00000000000E+00 0. -1.
</event>
<event>
 8    1  0.7016814E-009  0.1921890E+03  0.7561462E-02  0.1156502E+00
         -1   -1    0    0    0  501 -0.00000000000E+00  0.00000000000E+00  0.10743993249E+04  0.10743993249E+04  0.00000000000E+00 0.  1.
          1   -1    0    0  501    0  0.00000000000E+00 -0.00000000000E+00 -0.45804371093E+02  0.45804371093E+02  0.00000000000E+00 0. -1.
         25    2    1    2    0    0  0.10833386048E+03 -0.14920120359E+03  0.38616925540E+03  0.44583779878E+03  0.12508966592E+03 0.  0.
         23    2    1    2    0    0 -0.10833386048E+03  0.14920120359E+03  0.64242569837E+03  0.67436589718E+03  0.89785081580E+02 0.  0.
          5    1    3    3  502    0  0.52659525925E+02 -0.24052882312E+02  0.32444556439E+02  0.66495777766E+02  0.41800000000E+01 0.  1.
         -5    1    3    3    0  502  0.55674334557E+02 -0.12514832128E+03  0.35372469896E+03  0.37934202101E+03  0.41800000000E+01 0.  1.
        -11    1    4    4    0    0 -0.60645560138E+02  0.11691361166E+03  0.30740988267E+03  0.33443611127E+03  0.00000000000E+00 0. -1.
         11    1    4    4    0    0 -0.47688300344E+02  0.32287591930E+02  0.33501581570E+03  0.33992978591E+03  0.00000000000E+00 0.  1.
</event>
<event>
 8    1  0.7016814E-009  0.1061048E+03  0.7561462E-02  0.1267958E+00
          4   -1    0    0  501    0  0.00000000000E+00  0.00000000000E+00  0.64615885635E+02  0.64615885635E+02  0.00000000000E+00 0.  1.
         -4   -1    0    0    0  501 -0.00000000000E+00 -0.00000000000E+00 -0.22237164504E+03  0.22237164504E+03  0.00000000000E+00 0. -1.
         25    2    1    2    0    0  0.37223644524E+02 -0.23072262071E+02 -0.61143254178E+02  0.14595723257E+03  0.12508831768E+03 0.  0.
         23    2    1    2    0    0 -0.37223644524E+02  0.23072262071E+02 -0.96612505226E+02  0.14103029811E+03  0.92938903744E+02 0.  0.
          5    1    3    3  502    0  0.80294640328E+01 -0.67953146160E+02 -0.57330488259E+01  0.68792751177E+02  0.41800000000E+01 0. -1.
         -5    1    3    3    0  502  0.29194180491E+02  0.44880884089E+02 -0.55410205353E+02  0.77164481391E+02  0.41800000000E+01 0. -1.
        -11    1    4    4    0    0 -0.62022841229E+02  0.18614118561E+02 -0.33147892721E+02  0.72746828355E+02  0.00000000000E+00 0.  1.
         11    1    4    4    0    0  0.24799196705E+02  0.44581435105E+01 -0.63464612505E+02  0.68283469751E+02  0.00000000000E+00 0. -1.
</event>
<event>
 8    1  0.7016814E-009  0.7050188E+02  0.7561462E-02  0.1358395E+00
         -1   -1    0    0    0  501 -0.00000000000E+00  0.00000000000E+00  0.35763881289E+03  0.35763881289E+03  0.00000000000E+00 0.  1.
          1   -1    0    0  501    0  0.00000000000E+00 -0.00000000000E+00 -0.43380462735E+02  0.43380462735E+02  0.00000000000E+00 0. -1.
         25    2    1    2    0    0 -0.40458748488E+02 -0.18396701611E+01  0.24906050085E+03  0.28163597730E+03  0.12508955155E+03 0.  0.
         23    2    1    2    0    0  0.40458748488E+02  0.18396701611E+01  0.65197849302E+02  0.11938329833E+03  0.91440240874E+02 0.  0.
          5    1    3    3  502    0 -0.24953972629E+02 -0.11184656466E+01  0.26061302517E+03  0.26184073977E+03  0.41800000000E+01 0.  1.
         -5    1    3    3    0  502 -0.15504775859E+02 -0.72120451446E+00 -0.11552524319E+02  0.19795237521E+02  0.41800000000E+01 0.  1.
        -11    1    4    4    0    0  0.66595625337E+02 -0.15321788119E+02  0.39647336114E+02  0.79004087022E+02  0.00000000000E+00 0. -1.
         11    1    4    4    0    0 -0.26136876850E+02  0.17161458280E+02  0.25550513189E+02  0.40379211309E+02  0.00000000000E+00 0.  1.
</event>
<event>
 8    1  0.7016814E-009  0.9519027E+02  0.7561462E-02  0.1290748E+00
          1   -1    0    0  501    0  0.00000000000E+00  0.00000000000E+00  0.26173300553E+03  0.26173300553E+03  0.00000000000E+00 0. -1.
         -1   -1    0    0    0  501 -0.00000000000E+00 -0.00000000000E+00 -0.50019258021E+02  0.50019258021E+02  0.00000000000E+00 0.  1.
         25    2    1    2    0    0  0.27339165659E+02  0.20734657976E+02  0.14785730685E+03  0.19668980808E+03  0.12509093250E+03 0.  0.
         23    2    1    2    0    0 -0.27339165659E+02 -0.20734657976E+02  0.63856440663E+02  0.11506245548E+03  0.89355288740E+02 0.  0.
          5    1    3    3  502    0  0.58480850608E+02  0.57313209991E+00  0.17643609446E+02  0.61229957721E+02  0.41800000000E+01 0. -1.
         -5    1    3    3    0  502 -0.31141684949E+02  0.20161525876E+02  0.13021369740E+03  0.13545985036E+03  0.41800000000E+01 0. -1.
        -11    1    4    4    0    0  0.24348642760E+02  0.17616081627E+02  0.29469328289E+02  0.42090664594E+02  0.00000000000E+00 0. -1.
         11    1    4    4    0    0 -0.51687808419E+02 -0.38350739603E+02  0.34387112374E+02  0.72971790883E+02  0.00000000000E+00 0.  1.
</event>
<event>
 8    1  0.7016814E-009  0.1603513E+03  0.7561462E-02  0.1188301E+00
         -4   -1    0    0    0  501 -0.00000000000E+00  0.00000000000E+00  0.38630431367E+03  0.38630431367E+03  0.00000000000E+00 0.  1.
          4   -1    0    0  501    0  0.00000000000E+00 -0.00000000000E+00 -0.80826499167E+02  0.80826499167E+02  0.00000000000E+00 0. -1.
         25    2    1    2    0    0  0.42723621180E+02 -0.12949920358E+03  0.18682227373E+03  0.26295409954E+03  0.12508774907E+03 0.  0.
         23    2    1    2    0    0 -0.42723621180E+02  0.12949920358E+03  0.11865554077E+03  0.20417671330E+03  0.94940198886E+02 0.  0.
          5    1    3    3  502    0  0.58087055220E+02 -0.12701345217E+03  0.19871705762E+03  0.24292481225E+03  0.41800000000E+01 0. -1.
         -5    1    3    3    0  502 -0.15363434040E+02 -0.24857514060E+01 -0.11894783888E+02  0.20029287289E+02  0.41800000000E+01 0. -1.
        -11    1    4    4    0    0  0.27864392334E+02  0.58212799572E+02  0.59097091347E+02  0.87507831648E+02  0.00000000000E+00 0.  1.
         11    1    4    4    0    0 -0.70588013514E+02  0.71286404004E+02  0.59558449419E+02  0.11666888165E+03  0.00000000000E+00 0. -1.
</event>
<event>
 8    1  0.7016814E-009  0.1525221E+03  0.7561462E-02  0.1197408E+00
          2   -1    0    0  501    0  0.00000000000E+00  0.00000000000E+00  0.21459332658E+03  0.21459332658E+03  0.00000000000E+00 0.  1.
         -2   -1    0    0    0  501 -0.00000000000E+00 -0.00000000000E+00 -0.11103149554E+03  0.11103149554E+03  0.00000000000E+00 0. -1.
         25    2    1    2    0    0 -0.36629864023E+01 -0.10871570224E+03  0.45295732850E+02  0.17183410594E+03  0.12507092054E+03 0.  0.
         23    2    1    2    0    0  0.36629864023E+01  0.10871570224E+03  0.58266098189E+02  0.15379071618E+03  0.91783031118E+02 0.  0.
          5    1    3    3  502    0  0.58488288036E+02 -0.48492027456E+02  0.37530105691E+02  0.84843018554E+02  0.41800000000E+01 0. -1.
         -5    1    3    3    0  502 -0.62151274439E+02 -0.60223674788E+02  0.77656271595E+01  0.86991087386E+02  0.41800000000E+01 0. -1.
        -11    1    4    4    0    0 -0.32219292683E+02  0.10044558988E+03  0.42164975649E+02  0.11360142833E+03  0.00000000000E+00 0.  1.
         11    1    4    4    0    0  0.35882279085E+02  0.82701123647E+01  0.16101122539E+02  0.40189287850E+02  0.00000000000E+00 0. -1.
</event>
<event>
 8    1  0.7016814E-009  0.1091760E+03  0.7561462E-02  0.1262104E+00
         -2   -1    0    0    0  501 -0.00000000000E+00  0.00000000000E+00  0.16507179545E+02  0.16507179545E+02  0.00000000000E+00 0. -1.
          2   -1    0    0  501    0  0.00000000000E+00 -0.00000000000E+00 -0.13922047909E+04  0.13922047909E+04  0.00000000000E+00 0.  1.
         25    2    1    2    0    0 -0.55938737563E+02  0.56520874843E+02 -0.10810078568E+04  0.10911217536E+04  0.12507974731E+03 0.  0.
         23    2    1    2    0    0  0.55938737563E+02 -0.56520874843E+02 -0.29468975458E+03  0.31759021681E+03  0.87736780812E+02 0.  0.
          5    1    3    3  502    0  0.97215345309E+01  0.29106388700E+02 -0.59027492350E+02  0.66658888004E+02  0.41800000000E+01 0. -1.
         -5    1    3    3    0  502 -0.65660272093E+02  0.27414486143E+02 -0.10219803644E+04  0.10244628656E+04  0.41800000000E+01 0. -1.
        -11    1    4    4    0    0  0.59140970973E+02  0.35237535105E+00 -0.11881548357E+03  0.13272112776E+03  0.00000000000E+00 0.  1.
         11    1    4    4    0    0 -0.32022334104E+01 -0.56873250194E+02 -0.17587427100E+03  0.18486908905E+03  0.00000000000E+00 0. -1.
</event>
<event>
 8    1  0.7016814E-009  0.2264767E+03  0.7561462E-02  0.1129144E+00
          2   -1    0    0  501    0  0.00000000000E+00  0.00000000000E+00  0.89093181590E+03  0.89093181590E+03  0.00000000000E+00 0. -1.
         -2   -1    0    0    0  501 -0.00000000000E+00 -0.00000000000E+00 -0.78782785232E+02  0.78782785232E+02  0.00000000000E+00 0.  1.
         25    2    1    2    0    0  0.19375800138E+03 -0.99729176319E+02  0.60623319084E+03  0.65624243229E+03  0.12508947418E+03 0.  0.
         23    2    1    2    0    0 -0.19375800138E+03  0.99729176319E+02  0.20591583983E+03  0.31347216885E+03  0.91517188778E+02 0.  0.
          5    1    3    3  502    0 -0.61258103264E+01 -0.87322938604E+01  0.17498792943E-01  0.11456492239E+02  0.41800000000E+01 0.  1.
         -5    1    3    3    0  502  0.19988381171E+03 -0.90996882459E+02  0.60621569205E+03  0.64478594005E+03  0.41800000000E+01 0.  1.
        -11    1    4    4    0    0 -0.18955540624E+03  0.87258480762E+02  0.21328577138E+03  0.29838920016E+03  0.00000000000E+00 0. -1.
         11    1    4    4    0    0 -0.42025951381E+01  0.12470695557E+02 -0.73699315435E+01  0.15082968691E+02  0.00000000000E+00 0.  1.
</event>
<event>
 8    1  0.7016814E-009  0.9734815E+02  0.7561462E-02  0.1285973E+00
         -2   -1    0    0    0  501 -0.00000000000E+00  0.00000000000E+00  0.77056296103E+02  0.77056296103E+02  0.00000000000E+00 0.  1.
          2   -1    0    0  501    0  0.00000000000E+00 -0.00000000000E+00 -0.35769450946E+03  0.35769450946E+03  0.00000000000E+00 0. -1.
         25    2    1    2    0    0  0.49632079323E+02 -0.32040027765E+02 -0.51748845462E+01  0.13843493271E+03  0.12509014544E+03 0.  0.
         23    2    1    2    0    0 -0.49632079323E+02  0.32040027765E+02 -0.27546332881E+03  0.29631587286E+03  0.91832152924E+02 0.  0.
          5    1    3    3  502    0 -0.82632428451E+00 -0.71050588663E+02 -0.17599580719E+02  0.73321801687E+02  0.41800000000E+01 0. -1.
         -5    1    3    3    0  502  0.50458403607E+02  0.39010560898E+02  0.12424696173E+02  0.65113131019E+02  0.41800000000E+01 0. -1.
        -11    1    4    4    0    0 -0.40746048244E+02  0.22426563353E+02 -0.27892383695E+03  0.28277499538E+03  0.00000000000E+00 0. -1.
         11    1    4    4    0    0 -0.88860310786E+01  0.96134644123E+01  0.34605081403E+01  0.13540877480E+02  0.00000000000E+00 0.  1.
</event>
<event>
 8    1  0.7016814E-009  0.1128570E+03  0.7561462E-02  0.1255369E+00
          2   -1    0    0  501    0  0.00000000000E+00  0.00000000000E+00  0.15444563981E+03  0.15444563981E+03  0.00000000000E+00 0. -1.
         -2   -1    0    0    0  501 -0.00000000000E+00 -0.00000000000E+00 -0.10178150118E+03  0.10178150118E+03  0.00000000000E+00 0.  1.
         25    2    1    2    0    0 -0.54691249560E+02 -0.14292470585E+02  0.50555609704E+02  0.14628266870E+03  0.12508933606E+03 0.  0.
         23    2    1    2    0    0  0.54691249560E+02  0.14292470585E+02  0.21085289180E+01  0.10994447229E+03  0.94275837832E+02 0.  0.
          5    1    3    3  502    0 -0.56588358551E+02 -0.55463468090E+02  0.64832481781E+02  0.10246541714E+03  0.41800000000E+01 0. -1.
         -5    1    3    3    0  502  0.18971089901E+01  0.41170997504E+02 -0.14276872077E+02  0.43817251561E+02  0.41800000000E+01 0. -1.
        -11    1    4    4    0    0  0.22918380796E+02  0.51287280351E+02 -0.15204450798E+02  0.58196328305E+02  0.00000000000E+00 0.  1.
         11    1    4    4    0    0  0.31772868764E+02 -0.36994809766E+02  0.17312979716E+02  0.51748143984E+02  0.00000000000E+00 0. -1.
</event>
<event>
 8    1  0.7016814E-009  0.1346393E+03  0.7561462E-02  0.1220730E+00
          2   -1    0    0  501    0  0.00000000000E+00  0.00000000000E+00  0.72457254078E+03  0.72457254078E+03  0.00000000000E+00 0.  1.
         -2   -1    0    0    0  501 -0.00000000000E+00 -0.00000000000E+00 -0.37466762526E+02  0.37466762526E+02  0.00000000000E+00 0. -1.
         25    2    1    2    0    0  0.92503615016E+02  0.59239049172E+02  0.23560832242E+03  0.28848793963E+03  0.12509127060E+03 0.  0.
         23    2    1    2    0    0 -0.92503615016E+02 -0.59239049172E+02  0.45149745583E+03  0.47355136367E+03  0.91294894035E+02 0.  0.
          5    1    3    3  502    0 -0.19851432548E+00 -0.15270779624E+02 -0.77204387784E+01  0.17615722897E+02  0.41800000000E+01 0.  1.
         -5    1    3    3    0  502  0.92702129341E+02  0.74509828796E+02  0.24332876120E+03  0.27087221674E+03  0.41800000000E+01 0.  1.
        -11    1    4    4    0    0 -0.42653817712E+02  0.14827227466E+02  0.23617855124E+03  0.24045686287E+03  0.00000000000E+00 0.  1.
         11    1    4    4    0    0 -0.49849797304E+02 -0.74066276638E+02  0.21531890459E+03  0.23309450080E+03  0.00000000000E+00 0. -1.
</event>
<event>
 8    1  0.7016814E-009  0.2376377E+03  0.7561462E-02  0.1121377E+00
          3   -1    0    0  501    0  0.00000000000E+00  0.00000000000E+00  0.32544706237E+03  0.32544706237E+03  0.00000000000E+00 0. -1.
         -3   -1    0    0    0  501 -0.00000000000E+00 -0.00000000000E+00 -0.22445597439E+03  0.22445597439E+03  0.00000000000E+00 0.  1.
         25    2    1    2    0    0  0.71295621624E+02  0.21287146501E+03  0.15698283979E+03  0.30114237315E+03  0.12508313491E+03 0.  0.
         23    2    1    2    0    0 -0.71295621624E+02 -0.21287146501E+03 -0.55991751809E+02  0.24876066361E+03  0.91375408111E+02 0.  0.
          5    1    3    3  502    0  0.74726458937E+02  0.21650855236E+03  0.11073927714E+03  0.25444185350E+03  0.41800000000E+01 0. -1.
         -5    1    3    3    0  502 -0.34308373126E+01 -0.36370873478E+01  0.46243562653E+02  0.46700519654E+02  0.41800000000E+01 0. -1.
        -11    1    4    4    0    0 -0.90227836291E+02 -0.16253323054E+03 -0.58603356419E+02  0.19491656383E+03  0.00000000000E+00 0.  1.
         11    1    4    4    0    0  0.18932214667E+02 -0.50338234477E+02  0.26116046101E+01  0.53844099780E+02  0.00000000000E+00 0. -1.
</event>
<event>
 8    1  0.7016814E-009  0.1073534E+03  0.7561462E-02  0.1265551E+00
          2   -1    0    0  501    0  0.00000000000E+00  0.00000000000E+00  0.40589023154E+02  0.40589023154E+02  0.00000000000E+00 0. -1.
         -2   -1    0    0    0  501 -0.00000000000E+00 -0.00000000000E+00 -0.61518139315E+03  0.61518139315E+03  0.00000000000E+00 0.  1.
         25    2    1    2    0    0  0.50262262229E+02  0.61157283879E+02 -0.13568520712E+03  0.20080123083E+03  0.12507657852E+03 0.  0.
         23    2    1    2    0    0 -0.50262262229E+02 -0.61157283879E+02 -0.43890716287E+03  0.45496918548E+03  0.89949728924E+02 0.  0.
          5    1    3    3  502    0  0.69923690024E+02  0.17826113496E+02 -0.19028313092E+02  0.74743841540E+02  0.41800000000E+01 0. -1.
         -5    1    3    3    0  502 -0.19661427796E+02  0.43331170383E+02 -0.11665689403E+03  0.12605738929E+03  0.41800000000E+01 0. -1.
        -11    1    4    4    0    0  0.10356924384E+02 -0.33234198374E+01 -0.32834642769E+01  0.11361872195E+02  0.00000000000E+00 0. -1.
         11    1    4    4    0    0 -0.60619186613E+02 -0.57833864042E+02 -0.43562369860E+03  0.44360731328E+03  0.00000000000E+00 0.  1.
</event>
<event>
 8    1  0.7016814E-009  0.1236567E+03  0.7561462E-02  0.1237184E+00
          1   -1    0    0  501    0  0.00000000000E+00  0.00000000000E+00  0.18367000765E+04  0.18367000765E+04  0.00000000000E+00 0. -1.
         -1   -1    0    0    0  501 -0.00000000000E+00 -0.00000000000E+00 -0.10099900542E+02  0.10099900542E+02  0.00000000000E+00 0.  1.
         25    2    1    2    0    0  0.29761441241E+02 -0.70917790782E+02  0.11799972615E+04  0.11890989276E+04  0.12509055079E+03 0.  0.
         23    2    1    2    0    0 -0.29761441241E+02  0.70917790782E+02  0.64660291441E+03  0.65770104946E+03  0.92521700673E+02 0.  0.
          5    1    3    3  502    0  0.66773868757E+02 -0.33771421882E+02  0.95912985733E+03  0.96205343620E+03  0.41800000000E+01 0. -1.
         -5    1    3    3    0  502 -0.37012427516E+02 -0.37146368899E+02  0.22086740420E+03  0.22704549137E+03  0.41800000000E+01 0. -1.
        -11    1    4    4    0    0  0.19913697703E+02 -0.11894304308E+02  0.10215474665E+03  0.10475505761E+03  0.00000000000E+00 0. -1.
         11    1    4    4    0    0 -0.49675138944E+02  0.82812095089E+02  0.54444816776E+03  0.55294599185E+03  0.00000000000E+00 0.  1.
</event>
<event>
 8    1  0.7016814E-009  0.1082601E+03  0.7561462E-02  0.1263826E+00
          4   -1    0    0  501    0  0.00000000000E+00  0.00000000000E+00  0.42171773031E+02  0.42171773031E+02  0.00000000000E+00 0. -1.
         -4   -1    0    0    0  501 -0.00000000000E+00 -0.00000000000E+00 -0.29348305097E+03  0.29348305097E+03  0.00000000000E+00 0.  1.
         25    2    1    2    0    0  0.27333301604E+01 -0.23616616100E+02 -0.13118324609E+03  0.18281082583E+03  0.12508212636E+03 0.  0.
         23    2    1    2    0    0 -0.27333301604E+01  0.23616616100E+02 -0.12012803184E+03  0.15284399817E+03  0.91462167547E+02 0.  0.
          5    1    3    3  502    0  0.28767830188E+02 -0.66091924402E+02 -0.10185041989E+03  0.12484674988E+03  0.41800000000E+01 0. -1.
         -5    1    3    3    0  502 -0.26034500028E+02  0.42475308303E+02 -0.29332826208E+02  0.57964075948E+02  0.41800000000E+01 0. -1.
        -11    1    4    4    0    0  0.20979556473E+02 -0.29473839019E+02 -0.41567501078E+02  0.55106316536E+02  0.00000000000E+00 0. -1.
         11    1    4    4    0    0 -0.23712886633E+02  0.53090455118E+02 -0.78560530762E+02  0.97737681632E+02  0.00000000000E+00 0.  1.
</event>
<event>
 8    1  0.7016814E-009  0.1359721E+03  0.7561462E-02  0.1218854E+00
          1   -1    0    0  501    0  0.00000000000E+00  0.00000000000E+00  0.10751292903E+04  0.10751292903E+04  0.00000000000E+00 0. -1.
         -1   -1    0    0    0  501 -0.00000000000E+00 -0.00000000000E+00 -0.22023268116E+02  0.22023268116E+02  0.00000000000E+00 0.  1.
         25    2    1    2    0    0 -0.20697712080E+02  0.91826485469E+02  0.75906969718E+03  0.77504507897E+03  0.12509024958E+03 0.  0.
         23    2    1    2    0    0  0.20697712080E+02 -0.91826485469E+02  0.29403632503E+03  0.32210747948E+03  0.91844265888E+02 0.  0.
          5    1    3    3  502    0  0.50372831388E+02  0.23691227393E+02  0.33946344058E+03  0.34402266828E+03  0.41800000000E+01 0.  1.
         -5    1    3    3    0  502 -0.71070543469E+02  0.68135258076E+02  0.41960625660E+03  0.43102241069E+03  0.41800000000E+01 0.  1.
        -11    1    4    4    0    0 -0.14564099457E+02 -0.78566467801E+02  0.12089547633E+03  0.14491555835E+03  0.00000000000E+00 0.  1.
         11    1    4    4    0    0  0.35261811537E+02 -0.13260017668E+02  0.17314084871E+03  0.17719192113E+03  0.00000000000E+00 0. -1.
</event>
<event>
 8    1  0.7016814E-009  0.1016061E+03  0.7561462E-02  0.1276954E+00
         -2   -1    0    0    0  501 -0.00000000000E+00  0.00000000000E+00  0.34893465702E+02  0.34893465702E+02  0.00000000000E+00 0.  1.
          2   -1    0    0  501    0  0.00000000000E+00 -0.00000000000E+00 -0.53381582664E+03  0.53381582664E+03  0.00000000000E+00 0. -1.
         25    2    1    2    0    0 -0.16122530472E+02 -0.42809572315E+02 -0.39301887474E+03  0.41497445070E+03  0.12508942147E+03 0.  0.
         23    2    1    2    0    0  0.16122530472E+02  0.42809572315E+02 -0.10590348620E+03  0.15373484164E+03  0.10161819559E+03 0.  0.
          5    1    3    3  502    0 -0.35008508268E+02 -0.72313797551E+02 -0.15780241585E+03  0.17712694830E+03  0.41800000000E+01 0.  1.
         -5    1    3    3    0  502  0.18885977795E+02  0.29504225236E+02 -0.23521645889E+03  0.23784750240E+03  0.41800000000E+01 0.  1.
        -11    1    4    4    0    0  0.36863389199E+01 -0.21584842491E+02 -0.80462598866E+02  0.83388994096E+02  0.00000000000E+00 0. -1.
         11    1    4    4    0    0  0.12436191553E+02  0.64394414806E+02 -0.25440887334E+02  0.70345847545E+02  0.00000000000E+00 0.  1.
</event>
<event>
 8    1  0.7016814E-009  0.1268734E+03  0.7561462E-02  0.1232170E+00
          2   -1    0    0  501    0  0.00000000000E+00  0.00000000000E+00  0.40854116655E+03  0.40854116655E+03  0.00000000000E+00 0. -1.
         -2   -1    0    0    0  501 -0.00000000000E+00 -0.00000000000E+00 -0.41817032900E+02  0.41817032900E+02  0.00000000000E+00 0.  1.
         25    2    1    2    0    0 -0.11204651985E+02 -0.72006845213E+02  0.21330189059E+03  0.25778993262E+03  0.12508965923E+03 0.  0.
         23    2    1    2    0    0  0.11204651985E+02  0.72006845213E+02  0.15342224306E+03  0.19256826683E+03  0.90739311991E+02 0.  0.
          5    1    3    3  502    0 -0.23004987467E+02  0.31995614887E+02  0.67212217205E+02  0.78025017539E+02  0.41800000000E+01 0.  1.
         -5    1    3    3    0  502  0.11800335481E+02 -0.10400246010E+03  0.14608967338E+03  0.17976491508E+03  0.41800000000E+01 0.  1.
        -11    1    4    4    0    0  0.42728970455E+02  0.63805611898E+02  0.73647840165E+02  0.10639983734E+03  0.00000000000E+00 0.  1.
         11    1    4    4    0    0 -0.31524318470E+02  0.82012333147E+01  0.79774402890E+02  0.86168429482E+02  0.00000000000E+00 0. -1.
</event>
<event>
 8    1  0.7016814E-009  0.1134702E+03  0.7561462E-02  0.1254275E+00
         -1   -1    0    0    0  501 -0.00000000000E+00  0.00000000000E+00  0.20911000372E+03  0.20911000372E+03  0.00000000000E+00 0.  1.
          1   -1    0    0  501    0  0.00000000000E+00 -0.00000000000E+00 -0.85595562867E+02  0.85595562867E+02  0.00000000000E+00 0. -1.
         25    2    1    2    0    0  0.71050816764E+00 -0.44257692837E+02  0.13908873214E+03  0.19222834682E+03  0.12508722443E+03 0.  0.
         23    2    1    2    0    0 -0.71050816764E+00  0.44257692837E+02 -0.15574291283E+02  0.10247721977E+03  0.91103094494E+02 0.  0.
          5    1    3    3  502    0 -0.28183540045E+02 -0.77711960376E+02  0.11507007105E+03  0.14174644393E+03  0.41800000000E+01 0. -1.
         -5    1    3    3    0  502  0.28894048213E+02  0.33454267539E+02  0.24018661086E+02  0.50481902886E+02  0.41800000000E+01 0. -1.
        -11    1    4    4    0    0  0.22682547977E+02 -0.20711500433E+02 -0.13065704881E+02  0.33379288143E+02  0.00000000000E+00 0. -1.
         11    1    4    4    0    0 -0.23393056144E+02  0.64969193270E+02 -0.25085864017E+01  0.69097931631E+02  0.00000000000E+00 0.  1.
</event>
<event>
 8    1  0.7016814E-009  0.2313559E+03  0.7561462E-02  0.1125689E+00
          1   -1    0    0  501    0  0.00000000000E+00  0.00000000000E+00  0.10581775596E+04  0.10581775596E+04  0.00000000000E+00 0. -1.
         -1   -1    0    0    0  501 -0.00000000000E+00 -0.00000000000E+00 -0.53047094114E+02  0.53047094114E+02  0.00000000000E+00 0.  1.
         25    2    1    2    0    0  0.16122536826E+03  0.12539354120E+03  0.63686762935E+03  0.68041498630E+03  0.12508803589E+03 0.  0.
         23    2    1    2    0    0 -0.16122536826E+03 -0.12539354120E+03  0.36826283616E+03  0.43080966744E+03  0.90897158990E+02 0.  0.
          5    1    3    3  502    0  0.90595179009E+01  0.80049066429E+02  0.21216913649E+03  0.22698709827E+03  0.41800000000E+01 0.  1.
         -5    1    3    3    0  502  0.15216585036E+03  0.45344474774E+02  0.42469849285E+03  0.45342788803E+03  0.41800000000E+01 0.  1.
        -11    1    4    4    0    0 -0.97385008702E+02 -0.19133170164E+02  0.17579742213E+03  0.20187781391E+03  0.00000000000E+00 0. -1.
         11    1    4    4    0    0 -0.63840359562E+02 -0.10626037104E+03  0.19246541403E+03  0.22893185353E+03  0.00000000000E+00 0.  1.
</event>
<event>
 8    1  0.7016814E-009  0.1156680E+03  0.7561462E-02  0.1250420E+00
          1   -1    0    0  501    0  0.00000000000E+00  0.00000000000E+00  0.12918779709E+04  0.12918779709E+04  0.00000000000E+00 0. -1.
         -1   -1    0    0    0  501 -0.00000000000E+00 -0.00000000000E+00 -0.15257081366E+02  0.15257081366E+02  0.00000000000E+00 0.  1.
         25    2    1    2    0    0  0.19179208098E+02  0.57511654863E+02  0.99893040395E+03  0.10085558587E+04  0.12509011072E+03 0.  0.
         23    2    1    2    0    0 -0.19179208098E+02 -0.57511654863E+02  0.27769048558E+03  0.29857919352E+03  0.91444499852E+02 0.  0.
          5    1    3    3  502    0  0.54778527730E+02  0.12980233746E+01  0.70595685509E+03  0.70809245556E+03  0.41800000000E+01 0.  1.
         -5    1    3    3    0  502 -0.35599319632E+02  0.56213631488E+02  0.29297354885E+03  0.30046340318E+03  0.41800000000E+01 0.  1.
        -11    1    4    4    0    0 -0.54644890686E+02 -0.48636638047E+02  0.18433639853E+03  0.19832169438E+03  0.00000000000E+00 0.  1.
         11    1    4    4    0    0  0.35465682589E+02 -0.88750168160E+01  0.93354087051E+02  0.10025749914E+03  0.00000000000E+00 0. -1.
</event>
<event>
 8    1  0.7016814E-009  0.1259437E+03  0.7561462E-02  0.1233602E+00
         -1   -1    0    0    0  501 -0.00000000000E+00  0.00000000000E+00  0.38801450466E+03  0.38801450466E+03  0.00000000000E+00 0.  1.
          1   -1    0    0  501    0  0.00000000000E+00 -0.00000000000E+00 -0.43061397661E+02  0.43061397661E+02  0.00000000000E+00 0. -1.
         25    2    1    2    0    0 -0.53424094567E+02  0.51037642300E+02  0.19314277402E+03  0.24168400560E+03  0.12509217639E+03 0.  0.
         23    2    1    2    0    0  0.53424094567E+02 -0.51037642300E+02  0.15181033298E+03  0.18939189673E+03  0.85813393677E+02 0.  0.
          5    1    3    3  502    0 -0.79469578889E+02  0.72558802697E+02  0.12145819619E+03  0.16232609044E+03  0.41800000000E+01 0. -1.
         -5    1    3    3    0  502  0.26045484321E+02 -0.21521160398E+02  0.71684577833E+02  0.79357915154E+02  0.41800000000E+01 0. -1.
        -11    1    4    4    0    0  0.20041983701E+02 -0.69272160377E+02  0.11906762566E+03  0.13920277581E+03  0.00000000000E+00 0.  1.
         11    1    4    4    0    0  0.33382110866E+02  0.18234518077E+02  0.32742707320E+02  0.50189120913E+02  0.00000000000E+00 0. -1.
</event>
<event>
 8    1  0.7016814E-009  0.9383507E+02  0.7561462E-02  0.1293822E+00
         -2   -1    0    0    0  501 -0.00000000000E+00  0.00000000000E+00  0.92361885448E+02  0.92361885448E+02  0.00000000000E+00 0.  1.
          2   -1    0    0  501    0  0.00000000000E+00 -0.00000000000E+00 -0.19759071068E+03  0.19759071068E+03  0.00000000000E+00 0. -1.
         25    2    1    2    0    0  0.52414521083E+02  0.56732406786E+02 -0.39315850600E+02  0.15218416305E+03  0.12509370637E+03 0.  0.
         23    2    1    2    0    0 -0.52414521083E+02 -0.56732406786E+02 -0.65912974637E+02  0.13776843308E+03  0.93111615435E+02 0.  0.
          5    1    3    3  502    0 -0.14983126894E+01  0.13243613710E+02 -0.73509125483E+02  0.74824475771E+02  0.41800000000E+01 0.  1.
         -5    1    3    3    0  502  0.53912833772E+02  0.43488793076E+02  0.34193274884E+02  0.77359687278E+02  0.41800000000E+01 0.  1.
        -11    1    4    4    0    0 -0.53743337197E+02 -0.71520036550E+02 -0.23016865777E+02  0.92375527232E+02  0.00000000000E+00 0.  1.
         11    1    4    4    0    0  0.13288161143E+01  0.14787629765E+02 -0.42896108860E+02  0.45392905852E+02  0.00000000000E+00 0. -1.
</event>
<event>
 8    1  0.7016814E-009  0.9767486E+02  0.7561462E-02  0.1285263E+00
         -2   -1    0    0    0  501 -0.00000000000E+00  0.00000000000E+00  0.22807854007E+02  0.22807854007E+02  0.00000000000E+00 0.  1.
          2   -1    0    0  501    0  0.00000000000E+00 -0.00000000000E+00 -0.70732815506E+03  0.70732815506E+03  0.00000000000E+00 0. -1.
         25    2    1    2    0    0  0.50696301599E+02  0.30803155637E+02 -0.41374738378E+03  0.43629525284E+03  0.12509076975E+03 0.  0.
         23    2    1    2    0    0 -0.50696301599E+02 -0.30803155637E+02 -0.27077291727E+03  0.29384075622E+03  0.97495989129E+02 0.  0.
          5    1    3    3  502    0 -0.73991002727E+01 -0.17855928098E+02 -0.47793695237E+01  0.20344424940E+02  0.41800000000E+01 0. -1.
         -5    1    3    3    0  502  0.58095401872E+02  0.48659083735E+02 -0.40896801426E+03  0.41595082790E+03  0.41800000000E+01 0. -1.
        -11    1    4    4    0    0  0.16421264108E+02 -0.28051305896E+02 -0.16762899626E+03  0.17075132230E+03  0.00000000000E+00 0. -1.
         11    1    4    4    0    0 -0.67117565707E+02 -0.27518497408E+01 -0.10314392101E+03  0.12308943393E+03  0.00000000000E+00 0.  1.
</event>
<event>
 8    1  0.7016814E-009  0.9292900E+02  0.7561462E-02  0.1295910E+00
         -2   -1    0    0    0  501 -0.00000000000E+00  0.00000000000E+00  0.66590760711E+03  0.66590760711E+03  0.00000000000E+00 0.  1.
          2   -1    0    0  501    0  0.00000000000E+00 -0.00000000000E+00 -0.25703485714E+02  0.25703485714E+02  0.00000000000E+00 0. -1.
         25    2    1    2    0    0 -0.26104205382E+01 -0.51190742748E+01  0.54389839820E+03  0.55812752544E+03  0.12509135809E+03 0.  0.
         23    2    1    2    0    0  0.26104205382E+01  0.51190742748E+01  0.96305723197E+02  0.13348356739E+03  0.92249938889E+02 0.  0.
          5    1    3    3  502    0  0.32164792865E+02 -0.46000629599E+02  0.14379351085E+03  0.15441722049E+03  0.41800000000E+01 0. -1.
         -5    1    3    3    0  502 -0.34775213404E+02  0.40881555324E+02  0.40010488735E+03  0.40371030494E+03  0.41800000000E+01 0. -1.
        -11    1    4    4    0    0  0.39082592060E+02  0.20255028321E+01  0.87475095954E+02  0.95830287885E+02  0.00000000000E+00 0.  1.
         11    1    4    4    0    0 -0.36472171522E+02  0.30935714427E+01  0.88306272429E+01  0.37653279503E+02  0.00000000000E+00 0. -1.
</event>
<event>
 8    1  0.7016814E-009  0.1636622E+03  0.7561462E-02  0.1184623E+00
         -2   -1    0    0    0  501 -0.00000000000E+00  0.00000000000E+00  0.12300429785E+03  0.12300429785E+03  0.00000000000E+00 0.  1.
          2   -1    0    0  501    0  0.00000000000E+00 -0.00000000000E+00 -0.22299334751E+03  0.22299334751E+03  0.00000000000E+00 0. -1.
         25    2    1    2    0    0 -0.12042833287E+03  0.30965216732E+02 -0.51191593161E+02  0.18365687650E+03  0.12508973207E+03 0.  0.
         23    2    1    2    0    0  0.12042833287E+03 -0.30965216732E+02 -0.48797456505E+02  0.16234076886E+03  0.92257820633E+02 0.  0.
          5    1    3    3  502    0 -0.26630054353E+02  0.69689463388E+02 -0.18748233222E+02  0.77037326999E+02  0.41800000000E+01 0.  1.
         -5    1    3    3    0  502 -0.93798278517E+02 -0.38724246656E+02 -0.32443359939E+02  0.10661954950E+03  0.41800000000E+01 0.  1.
        -11    1    4    4    0    0  0.12923531831E+03 -0.11586522129E+02 -0.28328984789E+02  0.13281018926E+03  0.00000000000E+00 0. -1.
         11    1    4    4    0    0 -0.88069854370E+01 -0.19378694603E+02 -0.20468471715E+02  0.29530579598E+02  0.00000000000E+00 0.  1.
</event>
<event>
 8    1  0.7016814E-009  0.4267193E+03  0.7561462E-02  0.1034901E+00
         -1   -1    0    0    0  501 -0.00000000000E+00  0.00000000000E+00  0.36783195307E+03  0.36783195307E+03  0.00000000000E+00 0.  1.
          1   -1    0    0  501    0  0.00000000000E+00 -0.00000000000E+00 -0.55186894667E+03  0.55186894667E+03  0.00000000000E+00 0. -1.
         25    2    1    2    0    0 -0.41278128596E+03  0.37228370765E+02  0.49549468896E+02  0.43574951878E+03  0.12509257221E+03 0.  0.
         23    2    1    2    0    0  0.41278128596E+03 -0.37228370765E+02 -0.23358646250E+03  0.48395138095E+03  0.88724078113E+02 0.  0.
          5    1    3    3  502    0 -0.58240648816E+02 -0.37949300889E+02  0.18022864703E+02  0.71933432176E+02  0.41800000000E+01 0.  1.
         -5    1    3    3    0  502 -0.35454063714E+03  0.75177671654E+02  0.31526604193E+02  0.36381608660E+03  0.41800000000E+01 0.  1.
        -11    1    4    4    0    0  0.31595412674E+03  0.43283961956E+01 -0.19723872277E+03  0.37249007904E+03  0.00000000000E+00 0. -1.
         11    1    4    4    0    0  0.96827159216E+02 -0.41556766960E+02 -0.36347739727E+02  0.11146130192E+03  0.00000000000E+00 0.  1.
</event>
<event>
 8    1  0.7016814E-009  0.8452339E+02  0.7561462E-02  0.1316684E+00
          1   -1    0    0  501    0  0.00000000000E+00  0.00000000000E+00  0.91976283249E+02  0.91976283249E+02  0.00000000000E+00 0. -1.
         -1   -1    0    0    0  501 -0.00000000000E+00 -0.00000000000E+00 -0.13469586378E+03  0.13469586378E+03  0.00000000000E+00 0.  1.
         25    2    1    2    0    0  0.23378481107E+02 -0.34309052256E+01 -0.82749895671E+01  0.12756877303E+03  0.12508793671E+03 0.  0.
         23    2    1    2    0    0 -0.23378481107E+02  0.34309052256E+01 -0.34444590965E+02  0.99103374003E+02  0.89870598097E+02 0.  0.
          5    1    3    3  502    0  0.29520350098E+02  0.58094406232E+02 -0.56168496701E+01  0.65539549171E+02  0.41800000000E+01 0.  1.
         -5    1    3    3    0  502 -0.61418689907E+01 -0.61525311457E+02 -0.26581398969E+01  0.62029223857E+02  0.41800000000E+01 0.  1.
        -11    1    4    4    0    0 -0.14665839605E-01 -0.13135184335E+02 -0.59571635729E+02  0.61002566061E+02  0.00000000000E+00 0.  1.
         11    1    4    4    0    0 -0.23363815268E+02  0.16566089561E+02  0.25127044764E+02  0.38100807941E+02  0.00000000000E+00 0. -1.
</event>
<event>
 8    1  0.7016814E-009  0.1133164E+03  0.7561462E-02  0.1254549E+00
         -2   -1    0    0    0  501 -0.00000000000E+00  0.00000000000E+00  0.14435073316E+03  0.14435073316E+03  0.00000000000E+00 0.  1.
          2   -1    0    0  501    0  0.00000000000E+00 -0.00000000000E+00 -0.10891136783E+03  0.10891136783E+03  0.00000000000E+00 0. -1.
         25    2    1    2    0    0  0.39923891103E+02 -0.48548855110E+02  0.21975797040E+02  0.14170814023E+03  0.12508937980E+03 0.  0.
         23    2    1    2    0    0 -0.39923891103E+02  0.48548855110E+02  0.13463568288E+02  0.11155396076E+03  0.91170774251E+02 0.  0.
          5    1    3    3  502    0  0.63468081198E+02 -0.64157663383E+02 -0.18455986291E+02  0.92208995936E+02  0.41800000000E+01 0.  1.
         -5    1    3    3    0  502 -0.23544190095E+02  0.15608808272E+02  0.40431783330E+02  0.49499144297E+02  0.41800000000E+01 0.  1.
        -11    1    4    4    0    0 -0.67718479098E+02  0.40020870472E+02 -0.18743157746E+01  0.78682752521E+02  0.00000000000E+00 0. -1.
         11    1    4    4    0    0  0.27794587995E+02  0.85279846385E+01  0.15337884062E+02  0.32871208242E+02  0.00000000000E+00 0.  1.
</event>
<event>
 8    1  0.7016814E-009  0.1177702E+03  0.7561462E-02  0.1246822E+00
         -2   -1    0    0    0  501 -0.00000000000E+00  0.00000000000E+00  0.27473692861E+02  0.27473692861E+02  0.00000000000E+00 0.  1.
          2   -1    0    0  501    0  0.00000000000E+00 -0.00000000000E+00 -0.68340673376E+03  0.68340673376E+03  0.00000000000E+00 0. -1.
         25    2    1    2    0    0 -0.26135763006E+02 -0.72349034229E+02 -0.44110329977E+03  0.46490714587E+03  0.12509625234E+03 0.  0.
         23    2    1    2    0    0  0.26135763006E+02  0.72349034229E+02 -0.21482974113E+03  0.24597328076E+03  0.91834505004E+02 0.  0.
          5    1    3    3  502    0  0.40323415367E+02 -0.54588800411E+02 -0.13518757328E+03  0.15132437783E+03  0.41800000000E+01 0.  1.
         -5    1    3    3    0  502 -0.66459178372E+02 -0.17760233818E+02 -0.30591572649E+03  0.31358276803E+03  0.41800000000E+01 0.  1.
        -11    1    4    4    0    0  0.40648117698E+02  0.21983304752E+02 -0.33119648119E+02  0.56854606249E+02  0.00000000000E+00 0.  1.
         11    1    4    4    0    0 -0.14512354692E+02  0.50365729477E+02 -0.18171009302E+03  0.18911867451E+03  0.00000000000E+00 0. -1.
</event>
<event>
 8    1  0.7016814E-009  0.1262320E+03  0.7561462E-02  0.1233156E+00
          2   -1    0    0  501    0  0.00000000000E+00  0.00000000000E+00  0.11505637135E+03  0.11505637135E+03  0.00000000000E+00 0. -1.
         -2   -1    0    0    0  501 -0.00000000000E+00 -0.00000000000E+00 -0.15018944064E+03  0.15018944064E+03  0.00000000000E+00 0.  1.
         25    2    1    2    0    0  0.15539608829E+01  0.73560120758E+02 -0.14230867487E+02  0.14582289415E+03  0.12509313614E+03 0.  0.
         23    2    1    2    0    0 -0.15539608829E+01 -0.73560120758E+02 -0.20902201801E+02  0.11942291784E+03  0.91713821782E+02 0.  0.
          5    1    3    3  502    0  0.30991326579E+02  0.94013518907E+02 -0.33906565850E+02  0.10471929941E+03  0.41800000000E+01 0. -1.
         -5    1    3    3    0  502 -0.29437365696E+02 -0.20453398149E+02  0.19675698363E+02  0.41103594746E+02  0.41800000000E+01 0. -1.
        -11    1    4    4    0    0  0.44695285869E+02 -0.41778039771E+02 -0.15029513446E+02  0.62999678257E+02  0.00000000000E+00 0. -1.
         11    1    4    4    0    0 -0.46249246752E+02 -0.31782080987E+02 -0.58726883550E+01  0.56423239587E+02  0.00000000000E+00 0.  1.
</event>
<event>
 8    1  0.7016814E-009  0.1854127E+03  0.7561462E-02  0.1162665E+00
         -2   -1    0    0    0  501 -0.00000000000E+00  0.00000000000E+00  0.45699595316E+02  0.45699595316E+02  0.00000000000E+00 0. -1.
          2   -1    0    0  501    0  0.00000000000E+00 -0.00000000000E+00 -0.88175645545E+03  0.88175645545E+03  0.00000000000E+00 0.  1.
         25    2    1    2    0    0 -0.14412074637E+03  0.77137039908E+02 -0.34118158835E+03  0.39846380203E+03  0.12509041865E+03 0.  0.
         23    2    1    2    0    0  0.14412074637E+03 -0.77137039908E+02 -0.49487527178E+03  0.52899224873E+03  0.90610993492E+02 0.  0.
          5    1    3    3  502    0 -0.15609747157E+03  0.32796817712E+02 -0.27102098779E+03  0.31450262337E+03  0.41800000000E+01 0. -1.
         -5    1    3    3    0  502  0.11976725202E+02  0.44340222196E+02 -0.70160600557E+02  0.83961178657E+02  0.41800000000E+01 0. -1.
        -11    1    4    4    0    0  0.26378494991E+02 -0.43852731762E+01 -0.17500088534E+02  0.31957921045E+02  0.00000000000E+00 0. -1.
         11    1    4    4    0    0  0.11774225138E+03 -0.72751766732E+02 -0.47737518325E+03  0.49703432769E+03  0.00000000000E+00 0.  1.
</event>
<event>
 8    1  0.7016814E-009  0.3068680E+03  0.7561462E-02  0.1081857E+00
         -2   -1    0    0    0  501 -0.00000000000E+00  0.00000000000E+00  0.60607582871E+02  0.60607582871E+02  0.00000000000E+00 0.  1.
          2   -1    0    0  501    0  0.00000000000E+00 -0.00000000000E+00 -0.17418323803E+04  0.17418323803E+04  0.00000000000E+00 0. -1.
         25    2    1    2    0    0  0.28921559204E+03 -0.33645565879E+02 -0.11133179645E+04  0.11575405385E+04  0.12508207450E+03 0.  0.
         23    2    1    2    0    0 -0.28921559204E+03  0.33645565879E+02 -0.56790683290E+03  0.64489942466E+03  0.92733026998E+02 0.  0.
          5    1    3    3  502    0  0.21367110034E+03 -0.79645885580E+02 -0.82333209404E+03  0.85433717916E+03  0.41800000000E+01 0.  1.
         -5    1    3    3    0  502  0.75544491699E+02  0.46000319701E+02 -0.28998587050E+03  0.30320335936E+03  0.41800000000E+01 0.  1.
        -11    1    4    4    0    0 -0.16408503037E+03  0.48517244230E+02 -0.39921298683E+03  0.43433722962E+03  0.00000000000E+00 0. -1.
         11    1    4    4    0    0 -0.12513056167E+03 -0.14871678351E+02 -0.16869384606E+03  0.21056219504E+03  0.00000000000E+00 0.  1.
</event>
<event>
 8    1  0.7016814E-009  0.1022565E+03  0.7561462E-02  0.1275621E+00
         -2   -1    0    0    0  501 -0.00000000000E+00  0.00000000000E+00  0.11043760523E+04  0.11043760523E+04  0.00000000000E+00 0.  1.
          2   -1    0    0  501    0  0.00000000000E+00 -0.00000000000E+00 -0.26010981082E+02  0.26010981082E+02  0.00000000000E+00 0. -1.
         25    2    1    2    0    0  0.29086831900E+02  0.50084605459E+02  0.96169469353E+03  0.97152399223E+03  0.12509065682E+03 0.  0.
         23    2    1    2    0    0 -0.29086831900E+02 -0.50084605459E+02  0.11667037770E+03  0.15886304116E+03  0.90944913658E+02 0.  0.
          5    1    3    3  502    0  0.53438548381E+02  0.14288486460E+02  0.84770086701E+03  0.84951402085E+03  0.41800000000E+01 0.  1.
         -5    1    3    3    0  502 -0.24351716482E+02  0.35796119000E+02  0.11399382653E+03  0.12200997138E+03  0.41800000000E+01 0.  1.
        -11    1    4    4    0    0 -0.35822000053E+01 -0.71895900569E+02  0.93858553930E+02  0.11828474467E+03  0.00000000000E+00 0.  1.
         11    1    4    4    0    0 -0.25504631894E+02  0.21811295110E+02  0.22811823767E+02  0.40578296490E+02  0.00000000000E+00 0. -1.
</event>
<event>
 8    1  0.7016814E-009  0.7795515E+02  0.7561462E-02  0.1334957E+00
          1   -1    0    0  501    0  0.00000000000E+00  0.00000000000E+00  0.92996799302E+02  0.92996799302E+02  0.00000000000E+00 0. -1.
         -1   -1    0    0    0  501 -0.00000000000E+00 -0.00000000000E+00 -0.20930830721E+03  0.20930830721E+03  0.00000000000E+00 0.  1.
         25    2    1    2    0    0 -0.66426817971E+02 -0.18007241964E+02 -0.11742786366E+03  0.18485854569E+03  0.12508635355E+03 0.  0.
         23    2    1    2    0    0  0.66426817971E+02  0.18007241964E+02  0.11163557481E+01  0.11744656082E+03  0.95161260446E+02 0.  0.
          5    1    3    3  502    0 -0.61079783548E+01 -0.21454442898E+02  0.22764171867E+02  0.32144679815E+02  0.41800000000E+01 0. -1.
         -5    1    3    3    0  502 -0.60318839616E+02  0.34472009343E+01 -0.14019203552E+03  0.15271386588E+03  0.41800000000E+01 0. -1.
        -11    1    4    4    0    0  0.42633039401E+02  0.22852022644E+02 -0.44527548332E+02  0.65745673226E+02  0.00000000000E+00 0.  1.
         11    1    4    4    0    0  0.23793778569E+02 -0.48447806798E+01  0.45643904080E+02  0.51700887595E+02  0.00000000000E+00 0. -1.
</event>
<event>
 8    1  0.7016814E-009  0.1458537E+03  0.7561462E-02  0.1205663E+00
          2   -1    0    0  501    0  0.00000000000E+00  0.00000000000E+00  0.10998354860E+04  0.10998354860E+04  0.00000000000E+00 0. -1.
         -2   -1    0    0    0  501 -0.00000000000E+00 -0.00000000000E+00 -0.25614177380E+02  0.25614177380E+02  0.00000000000E+00 0.  1.
         25    2    1    2    0    0  0.98724105557E+02 -0.77043632829E+02  0.65709742033E+03  0.68051941474E+03  0.12508990229E+03 0.  0.
         23    2    1    2    0    0 -0.98724105557E+02  0.77043632829E+02  0.41712388833E+03  0.44493024869E+03  0.91040746914E+02 0.  0.
          5    1    3    3  502    0  0.48007342806E+02  0.25571569005E+00  0.46285402807E+03  0.46535587893E+03  0.41800000000E+01 0.  1.
         -5    1    3    3    0  502  0.50716762751E+02 -0.77299348519E+02  0.19424339226E+03  0.21516353581E+03  0.41800000000E+01 0.  1.
        -11    1    4    4    0    0  0.10185508179E+02  0.31174913621E+02  0.55267569556E+02  0.64266041272E+02  0.00000000000E+00 0.  1.
         11    1    4    4    0    0 -0.10890961374E+03  0.45868719208E+02  0.36185631878E+03  0.38066420741E+03  0.00000000000E+00 0. -1.
</event>
<event>
 8    1  0.7016814E-009  0.1014876E+03  0.7561462E-02  0.1277198E+00
         -2   -1    0    0    0  501 -0.00000000000E+00  0.00000000000E+00  0.68693368302E+02  0.68693368302E+02  0.00000000000E+00 0.  1.
          2   -1    0    0  501    0  0.00000000000E+00 -0.00000000000E+00 -0.30862950141E+03  0.30862950141E+03  0.00000000000E+00 0. -1.
         25    2    1    2    0    0 -0.47836392560E+01  0.22227289716E+02 -0.25149645422E+03  0.28180157433E+03  0.12507887589E+03 0.  0.
         23    2    1    2    0    0  0.47836392560E+01 -0.22227289716E+02  0.11560321111E+02  0.95521295389E+02  0.92052926275E+02 0.  0.
          5    1    3    3  502    0  0.60825592819E+00  0.67625868174E+02 -0.82906649050E+02  0.10707293252E+03  0.41800000000E+01 0. -1.
         -5    1    3    3    0  502 -0.53918951842E+01 -0.45398578459E+02 -0.16858980517E+03  0.17472864181E+03  0.41800000000E+01 0. -1.
        -11    1    4    4    0    0 -0.40004796227E+02 -0.17001496027E+01 -0.10717342471E+02  0.41450399992E+02  0.00000000000E+00 0.  1.
         11    1    4    4    0    0  0.44788435483E+02 -0.20527140113E+02  0.22277663582E+02  0.54070895396E+02  0.00000000000E+00 0. -1.
</event>
<event>
 8    1  0.7016814E-009  0.1063838E+03  0.7561462E-02  0.1267417E+00
          1   -1    0    0  501    0  0.00000000000E+00  0.00000000000E+00  0.73377880734E+02  0.73377880734E+02  0.00000000000E+00 0. -1.
         -1   -1    0    0    0  501 -0.00000000000E+00 -0.00000000000E+00 -0.18252301478E+03  0.18252301478E+03  0.00000000000E+00 0.  1.
         25    2    1    2    0    0 -0.28796583597E+02 -0.22455352461E+02 -0.74372704053E+02  0.15004050047E+03  0.12508943437E+03 0.  0.
         23    2    1    2    0    0  0.28796583597E+02  0.22455352461E+02 -0.34772429996E+02  0.10586039505E+03  0.93079617913E+02 0.  0.
          5    1    3    3  502    0 -0.32550094497E+02 -0.68996803300E+02 -0.68828789976E+02  0.10283453820E+03  0.41800000000E+01 0. -1.
         -5    1    3    3    0  502  0.37535109000E+01  0.46541450839E+02 -0.55439140767E+01  0.47205962268E+02  0.41800000000E+01 0. -1.
        -11    1    4    4    0    0  0.55344032063E+02  0.10035138914E+01 -0.43764801670E+02  0.70564345036E+02  0.00000000000E+00 0.  1.
         11    1    4    4    0    0 -0.26547448466E+02  0.21451838570E+02  0.89923716745E+01  0.35296050011E+02  0.00000000000E+00 0. -1.
</event>
<event>
 8    1  0.7016814E-009  0.6889282E+02  0.7561462E-02  0.1363899E+00
          1   -1    0    0  501    0  0.00000000000E+00  0.00000000000E+00  0.17283219334E+03  0.17283219334E+03  0.00000000000E+00 0. -1.
         -1   -1    0    0    0  501 -0.00000000000E+00 -0.00000000000E+00 -0.78430726392E+02  0.78430726392E+02  0.00000000000E+00 0.  1.
         25    2    1    2    0    0  0.80350692284E+01  0.22236792098E+02  0.17460721897E+02  0.12849732001E+03  0.12509055592E+03 0.  0.
         23    2    1    2    0    0 -0.80350692284E+01 -0.22236792098E+02  0.76940745051E+02  0.12276559972E+03  0.92695614595E+02 0.  0.
          5    1    3    3  502    0  0.42350028349E+02  0.28509556895E+02  0.56307018899E+02  0.76120118976E+02  0.41800000000E+01 0.  1.
         -5    1    3    3    0  502 -0.34314959121E+02 -0.62727647974E+01 -0.38846297002E+02  0.52377201037E+02  0.41800000000E+01 0.  1.
        -11    1    4    4    0    0 -0.21747444215E+02 -0.28912511207E+02 -0.75091933723E+01  0.36949595658E+02  0.00000000000E+00 0.  1.
         11    1    4    4    0    0  0.13712374986E+02  0.66757191093E+01  0.84449938424E+02  0.85816004062E+02  0.00000000000E+00 0. -1.
</event>
<event>
 8    1  0.7016814E-009  0.1620982E+03  0.7561462E-02  0.1186348E+00
          2   -1    0    0  501    0  0.00000000000E+00  0.00000000000E+00  0.18853468954E+03  0.18853468954E+03  0.00000000000E+00 0. -1.
         -2   -1    0    0    0  501 -0.00000000000E+00 -0.00000000000E+00 -0.15375455780E+03  0.15375455780E+03  0.00000000000E+00 0.  1.
         25    2    1    2    0    0  0.12841392851E+03  0.20294486267E+02  0.48505914147E+02  0.18681786540E+03  0.12508432323E+03 0.  0.
         23    2    1    2    0    0 -0.12841392851E+03 -0.20294486267E+02 -0.13725782407E+02  0.15547138193E+03  0.84148382570E+02 0.  0.
          5    1    3    3  502    0  0.15144378011E+03  0.27195639072E+02  0.51321943421E+02  0.16225361505E+03  0.41800000000E+01 0.  1.
         -5    1    3    3    0  502 -0.23029851600E+02 -0.69011528052E+01 -0.28160292742E+01  0.24564250358E+02  0.41800000000E+01 0.  1.
        -11    1    4    4    0    0 -0.84059151795E+02  0.19488650821E+02 -0.33691417131E+02  0.92632932048E+02  0.00000000000E+00 0.  1.
         11    1    4    4    0    0 -0.44354776715E+02 -0.39783137089E+02  0.19965634724E+02  0.62838449885E+02  0.00000000000E+00 0. -1.
</event>
<event>
 8    1  0.7016814E-009  0.8060175E+02  0.7561462E-02  0.1327352E+00
          1   -1    0    0  501    0  0.00000000000E+00  0.00000000000E+00  0.24536108024E+02  0.24536108024E+02  0.00000000000E+00 0. -1.
         -1   -1    0    0    0  501 -0.00000000000E+00 -0.00000000000E+00 -0.67504619733E+03  0.67504619733E+03  0.00000000000E+00 0.  1.
         25    2    1    2    0    0 -0.52562728695E+01  0.30414104987E+02 -0.53166783422E+03  0.54705729705E+03  0.12509338164E+03 0.  0.
         23    2    1    2    0    0  0.52562728695E+01 -0.30414104987E+02 -0.11884225509E+03  0.15252500830E+03  0.90486188869E+02 0.  0.
          5    1    3    3  502    0 -0.31294133727E+02  0.23537453837E+02 -0.45702906035E+02  0.60328787150E+02  0.41800000000E+01 0. -1.
         -5    1    3    3    0  502  0.26037860858E+02  0.68766511497E+01 -0.48596492818E+03  0.48672850990E+03  0.41800000000E+01 0. -1.
        -11    1    4    4    0    0 -0.15550331647E+02  0.28293112937E+02 -0.30349603957E+02  0.44310399619E+02  0.00000000000E+00 0. -1.
         11    1    4    4    0    0  0.20806604517E+02 -0.58707217924E+02 -0.88492651134E+02  0.10821460868E+03  0.00000000000E+00 0.  1.
</event>
<event>
 8    1  0.7016814E-009  0.1047214E+03  0.7561462E-02  0.1270669E+00
         -4   -1    0    0    0  501 -0.00000000000E+00  0.00000000000E+00  0.37894725401E+03  0.37894725401E+03  0.00000000000E+00 0.  1.
          4   -1    0    0  501    0  0.00000000000E+00 -0.00000000000E+00 -0.47301250745E+02  0.47301250745E+02  0.00000000000E+00 0. -1.
         25    2    1    2    0    0  0.59712590010E+02 -0.20203775180E+02  0.25415247525E+03  0.29019775135E+03  0.12508984083E+03 0.  0.
         23    2    1    2    0    0 -0.59712590010E+02  0.20203775180E+02  0.77493528017E+02  0.13605075340E+03  0.92362192913E+02 0.  0.
          5    1    3    3  502    0  0.22946605655E+02  0.35223184747E+02  0.19989990908E+02  0.46736405417E+02  0.41800000000E+01 0.  1.
         -5    1    3    3    0  502  0.36765984355E+02 -0.55426959927E+02  0.23416248434E+03  0.24346134593E+03  0.41800000000E+01 0.  1.
        -11    1    4    4    0    0 -0.41967491576E+02 -0.27150244723E+02  0.88032532553E+01  0.50753358564E+02  0.00000000000E+00 0. -1.
         11    1    4    4    0    0 -0.17745098434E+02  0.47354019902E+02  0.68690274762E+02  0.85297394838E+02  0.00000000000E+00 0.  1.
</event>
<event>
 8    1  0.7016814E-009  0.1233444E+03  0.7561462E-02  0.1237680E+00
          1   -1    0    0  501    0  0.00000000000E+00  0.00000000000E+00  0.38084005709E+02  0.38084005709E+02  0.00000000000E+00 0. -1.
         -1   -1    0    0    0  501 -0.00000000000E+00 -0.00000000000E+00 -0.58758104883E+03  0.58758104883E+03  0.00000000000E+00 0.  1.
         25    2    1    2    0    0 -0.64180292619E+02  0.62440690028E+02 -0.19191824553E+03  0.24596267458E+03  0.12508826719E+03 0.  0.
         23    2    1    2    0    0  0.64180292619E+02 -0.62440690028E+02 -0.35757879759E+03  0.37970237995E+03  0.91067838031E+02 0.  0.
          5    1    3    3  502    0 -0.16676670248E+01  0.57681927384E+02 -0.16974168597E+03  0.17933125276E+03  0.41800000000E+01 0. -1.
         -5    1    3    3    0  502 -0.62512625595E+02  0.47587626449E+01 -0.22176559559E+02  0.66631421826E+02  0.41800000000E+01 0. -1.
        -11    1    4    4    0    0  0.33504253505E+00 -0.62152135719E+02 -0.20747262177E+03  0.21658229154E+03  0.00000000000E+00 0. -1.
         11    1    4    4    0    0  0.63845250084E+02 -0.28855430953E+00 -0.15010617582E+03  0.16312008841E+03  0.00000000000E+00 0.  1.
</event>
<event>
 8    1  0.7016814E-009  0.1786196E+03  0.7561462E-02  0.1169146E+00
          2   -1    0    0  501    0  0.00000000000E+00  0.00000000000E+00  0.23441033820E+03  0.23441033820E+03  0.00000000000E+00 0. -1.
         -2   -1    0    0    0  501 -0.00000000000E+00 -0.00000000000E+00 -0.16789034764E+03  0.16789034764E+03  0.00000000000E+00 0.  1.
         25    2    1    2    0    0  0.14308382100E+03 -0.35199808834E+01 -0.50119979552E+02  0.19658382423E+03  0.12509123671E+03 0.  0.
         23    2    1    2    0    0 -0.14308382100E+03  0.35199808834E+01  0.11663997010E+03  0.20571686161E+03  0.90714797190E+02 0.  0.
          5    1    3    3  502    0 -0.83365884191E+01 -0.33499630972E+02 -0.19478993566E+01  0.34828015930E+02  0.41800000000E+01 0.  1.
         -5    1    3    3    0  502  0.15142040942E+03  0.29979650089E+02 -0.48172080195E+02  0.16175580830E+03  0.41800000000E+01 0. -1.
        -11    1    4    4    0    0 -0.51207630296E+02  0.44129062412E+02  0.34143521342E+02  0.75732262606E+02  0.00000000000E+00 0.  1.
         11    1    4    4    0    0 -0.91876190702E+02 -0.40609081529E+02  0.82496448762E+02  0.12998459901E+03  0.00000000000E+00 0. -1.
</event>
<event>
 8    1  0.7016814E-009  0.9776589E+02  0.7561462E-02  0.1285065E+00
         -2   -1    0    0    0  501 -0.00000000000E+00  0.00000000000E+00  0.18906900672E+03  0.18906900672E+03  0.00000000000E+00 0.  1.
          2   -1    0    0  501    0  0.00000000000E+00 -0.00000000000E+00 -0.82751054740E+02  0.82751054740E+02  0.00000000000E+00 0. -1.
         25    2    1    2    0    0  0.47108138427E+02  0.40623017351E+02  0.40812613578E+02  0.14554449957E+03  0.12509246854E+03 0.  0.
         23    2    1    2    0    0 -0.47108138427E+02 -0.40623017351E+02  0.65505338400E+02  0.12627556188E+03  0.88233564619E+02 0.  0.
          5    1    3    3  502    0  0.48319464699E+02 -0.27076824054E+02 -0.15178747479E+02  0.57582912784E+02  0.41800000000E+01 0. -1.
         -5    1    3    3    0  502 -0.12113262721E+01  0.67699841405E+02  0.55991361057E+02  0.87961586790E+02  0.41800000000E+01 0. -1.
        -11    1    4    4    0    0 -0.52617332629E+02 -0.31035926104E+02  0.12765053062E+01  0.61101897417E+02  0.00000000000E+00 0. -1.
         11    1    4    4    0    0  0.55091942026E+01 -0.95870912472E+01  0.64228833094E+02  0.65173664467E+02  0.00000000000E+00 0.  1.
</event>
<event>
 8    1  0.7016814E-009  0.9044706E+02  0.7561462E-02  0.1301773E+00
         -2   -1    0    0    0  501 -0.00000000000E+00  0.00000000000E+00  0.56250549494E+02  0.56250549494E+02  0.00000000000E+00 0.  1.
          2   -1    0    0  501    0  0.00000000000E+00 -0.00000000000E+00 -0.33503816945E+03  0.33503816945E+03  0.00000000000E+00 0. -1.
         25    2    1    2    0    0 -0.40000016123E+02  0.35423926304E+02 -0.59695167451E+02  0.14854523564E+03  0.12508924083E+03 0.  0.
         23    2    1    2    0    0  0.40000016123E+02 -0.35423926304E+02 -0.21909245251E+03  0.24274348330E+03  0.89822269483E+02 0.  0.
          5    1    3    3  502    0 -0.51017174228E+02  0.48189666939E+02 -0.89643409763E+02  0.11392282203E+03  0.41800000000E+01 0. -1.
         -5    1    3    3    0  502  0.11017158105E+02 -0.12765740634E+02  0.29948242313E+02  0.34622413611E+02  0.41800000000E+01 0. -1.
        -11    1    4    4    0    0  0.61033026442E+02 -0.38201994789E+02 -0.20499116009E+03  0.21726895415E+03  0.00000000000E+00 0. -1.
         11    1    4    4    0    0 -0.21033010319E+02  0.27780684851E+01 -0.14101292414E+02  0.25474529148E+02  0.00000000000E+00 0.  1.
</event>
<event>
 8    1  0.7016814E-009  0.2074893E+03  0.7561462E-02  0.1143570E+00
         -1   -1    0    0    0  501 -0.00000000000E+00  0.00000000000E+00  0.78681839170E+02  0.78681839170E+02  0.00000000000E+00 0.  1.
          1   -1    0    0  501    0  0.00000000000E+00 -0.00000000000E+00 -0.67020446410E+03  0.67020446410E+03  0.00000000000E+00 0. -1.
         25    2    1    2    0    0 -0.29805896357E+02  0.19687279575E+03 -0.35694191664E+03  0.42743732601E+03  0.12509135321E+03 0.  0.
         23    2    1    2    0    0  0.29805896357E+02 -0.19687279575E+03 -0.23458070829E+03  0.32144897726E+03  0.93027131062E+02 0.  0.
          5    1    3    3  502    0 -0.21624947081E+02  0.11587870306E+03 -0.31374610311E+03  0.33518592121E+03  0.41800000000E+01 0. -1.
         -5    1    3    3    0  502 -0.81809492757E+01  0.80994092690E+02 -0.43195813535E+02  0.92251404805E+02  0.41800000000E+01 0. -1.
        -11    1    4    4    0    0  0.40955445427E+02 -0.36826208773E+02 -0.89803490830E+02  0.10534792417E+03  0.00000000000E+00 0.  1.
         11    1    4    4    0    0 -0.11149549070E+02 -0.16004658698E+03 -0.14477721746E+03  0.21610105309E+03  0.00000000000E+00 0. -1.
</event>
<event>
 8    1  0.7016814E-009  0.8453030E+02  0.7561462E-02  0.1316665E+00
         -2   -1    0    0    0  501 -0.00000000000E+00  0.00000000000E+00  0.21104477371E+02  0.21104477371E+02  0.00000000000E+00 0.  1.
          2   -1    0    0  501    0  0.00000000000E+00 -0.00000000000E+00 -0.10473022466E+04  0.10473022466E+04  0.00000000000E+00 0. -1.
         25    2    1    2    0    0  0.24351502861E+02  0.37485749970E+02 -0.88038943820E+03  0.89035457947E+03  0.12509011614E+03 0.  0.
         23    2    1    2    0    0 -0.24351502861E+02 -0.37485749970E+02 -0.14580833106E+03  0.17805214453E+03  0.91892979176E+02 0.  0.
          5    1    3    3  502    0  0.30297649646E+02  0.15558113479E+01 -0.81352151945E+03  0.81409772333E+03  0.41800000000E+01 0.  1.
         -5    1    3    3    0  502 -0.59461467859E+01  0.35929938622E+02 -0.66867918746E+02  0.76256856140E+02  0.41800000000E+01 0.  1.
        -11    1    4    4    0    0  0.16799756565E+02 -0.54662952884E+02 -0.73948222182E+02  0.93480531676E+02  0.00000000000E+00 0.  1.
         11    1    4    4    0    0 -0.41151259425E+02  0.17177202913E+02 -0.71860108878E+02  0.84571612851E+02  0.00000000000E+00 0. -1.
</event>
<event>
 8    1  0.7016814E-009  0.1131997E+03  0.7561462E-02  0.1254757E+00
         -4   -1    0    0    0  501 -0.00000000000E+00  0.00000000000E+00  0.39730834000E+02  0.39730834000E+02  0.00000000000E+00 0.  1.
          4   -1    0    0  501    0  0.00000000000E+00 -0.00000000000E+00 -0.78390043914E+03  0.78390043914E+03  0.00000000000E+00 0. -1.
         25    2    1    2    0    0 -0.47908069446E+02  0.15627762149E+02 -0.70507915390E+03  0.71786012828E+03  0.12508853043E+03 0.  0.
         23    2    1    2    0    0  0.47908069446E+02 -0.15627762149E+02 -0.39090451245E+02  0.10577114486E+03  0.84380457685E+02 0.  0.
          5    1    3    3  502    0 -0.90620137574E+02  0.62986239115E+01 -0.47278099984E+03  0.48144680725E+03  0.41800000000E+01 0. -1.
         -5    1    3    3    0  502  0.42712068128E+02  0.93291382377E+01 -0.23229815406E+03  0.23641332103E+03  0.41800000000E+01 0. -1.
        -11    1    4    4    0    0  0.60650528827E+02 -0.33737635261E+02 -0.45171100884E+02  0.82807868196E+02  0.00000000000E+00 0. -1.
         11    1    4    4    0    0 -0.12742459381E+02  0.18109873112E+02  0.60806496394E+01  0.22963276666E+02  0.00000000000E+00 0.  1.
</event>
<event>
 8    1  0.7016814E-009  0.1175583E+03  0.7561462E-02  0.1247180E+00
         -2   -1    0    0    0  501 -0.00000000000E+00  0.00000000000E+00  0.21895283718E+02  0.21895283718E+02  0.00000000000E+00 0.  1.
          2   -1    0    0  501    0  0.00000000000E+00 -0.00000000000E+00 -0.71439877551E+03  0.71439877551E+03  0.00000000000E+00 0. -1.
         25    2    1    2    0    0  0.60417277232E+02 -0.45151216537E+00 -0.46740606861E+03  0.48761522857E+03  0.12509886853E+03 0.  0.
         23    2    1    2    0    0 -0.60417277232E+02  0.45151216537E+00 -0.22509742319E+03  0.24867883067E+03  0.86728655264E+02 0.  0.
          5    1    3    3  502    0  0.64803971995E+02  0.49389455253E+02 -0.35889352758E+03  0.36805014552E+03  0.41800000000E+01 0. -1.
         -5    1    3    3    0  502 -0.43866947633E+01 -0.49840967419E+02 -0.10851254103E+03  0.11956508305E+03  0.41800000000E+01 0. -1.
        -11    1    4    4    0    0 -0.46854881594E+02 -0.39404596083E+02 -0.10666322566E+03  0.12298433164E+03  0.00000000000E+00 0. -1.
         11    1    4    4    0    0 -0.13562395638E+02  0.39856108248E+02 -0.11843419753E+03  0.12569449902E+03  0.00000000000E+00 0.  1.
</event>
<event>
 8    1  0.7016814E-009  0.8106365E+02  0.7561462E-02  0.1326060E+00
          1   -1    0    0  501    0  0.00000000000E+00  0.00000000000E+00  0.60272187624E+03  0.60272187624E+03  0.00000000000E+00 0. -1.
         -1   -1    0    0    0  501 -0.00000000000E+00 -0.00000000000E+00 -0.24022680468E+02  0.24022680468E+02  0.00000000000E+00 0.  1.
         25    2    1    2    0    0  0.66521076866E+01 -0.29741422359E+02  0.21615654419E+03  0.25159613132E+03  0.12509260154E+03 0.  0.
         23    2    1    2    0    0 -0.66521076866E+01  0.29741422359E+02  0.36254265159E+03  0.37514842539E+03  0.91489694018E+02 0.  0.
          5    1    3    3  502    0 -0.17767347704E+02 -0.36931690726E+02  0.22146054314E+03  0.22525956804E+03  0.41800000000E+01 0.  1.
         -5    1    3    3    0  502  0.24419455391E+02  0.71902683669E+01 -0.53039989532E+01  0.26336563285E+02  0.41800000000E+01 0.  1.
        -11    1    4    4    0    0 -0.46563085543E+02  0.21462498857E+01  0.20839337783E+03  0.21354279957E+03  0.00000000000E+00 0. -1.
         11    1    4    4    0    0  0.39910977856E+02  0.27595172473E+02  0.15414927376E+03  0.16160562582E+03  0.00000000000E+00 0.  1.
</event>
<event>
 8    1  0.7016814E-009  0.1206380E+03  0.7561462E-02  0.1242048E+00
          3   -1    0    0  501    0  0.00000000000E+00  0.00000000000E+00  0.27659886009E+03  0.27659886009E+03  0.00000000000E+00 0. -1.
         -3   -1    0    0    0  501 -0.00000000000E+00 -0.00000000000E+00 -0.73102294410E+02  0.73102294410E+02  0.00000000000E+00 0.  1.
         25    2    1    2    0    0  0.70748096985E+02  0.22235232082E+02  0.47027215115E+02  0.15284126571E+03  0.12509674164E+03 0.  0.
         23    2    1    2    0    0 -0.70748096985E+02 -0.22235232082E+02  0.15646935057E+03  0.19685988880E+03  0.93656069623E+02 0.  0.
          5    1    3    3  502    0  0.95134740991E+02  0.14708107325E+02  0.69317887848E+02  0.11869873352E+03  0.41800000000E+01 0.  1.
         -5    1    3    3    0  502 -0.24386644005E+02  0.75271247569E+01 -0.22290672733E+02  0.34142532183E+02  0.41800000000E+01 0.  1.
        -11    1    4    4    0    0  0.21562690353E+02 -0.15395208905E+02  0.41847281099E+02  0.49529355012E+02  0.00000000000E+00 0. -1.
         11    1    4    4    0    0 -0.92310787338E+02 -0.68400231765E+01  0.11462206947E+03  0.14733053379E+03  0.00000000000E+00 0.  1.
</event>
<event>
 8    1  0.7016814E-009  0.7409715E+02  0.7561462E-02  0.1346690E+00
         -2   -1    0    0    0  501 -0.00000000000E+00  0.00000000000E+00  0.18878347939E+03  0.18878347939E+03  0.00000000000E+00 0.  1.
          2   -1    0    0  501    0  0.00000000000E+00 -0.00000000000E+00 -0.70956087422E+02  0.70956087422E+02  0.00000000000E+00 0. -1.
         25    2    1    2    0    0 -0.26017606862E+01 -0.13559783492E+02  0.10951806505E+03  0.16684545864E+03  0.12511020586E+03 0.  0.
         23    2    1    2    0    0  0.26017606862E+01  0.13559783492E+02  0.83093269193E+01  0.92894108171E+02  0.91485701243E+02 0.  0.
          5    1    3    3  502    0  0.70961784297E+01  0.24666585608E+02  0.12241198606E+03  0.12514376903E+03  0.41800000000E+01 0. -1.
         -5    1    3    3    0  502 -0.96979391159E+01 -0.38226369101E+02 -0.12893921014E+02  0.41701689616E+02  0.41800000000E+01 0. -1.
        -11    1    4    4    0    0  0.41988575532E+02  0.81871936880E+01  0.25258930788E+02  0.49679816829E+02  0.00000000000E+00 0. -1.
         11    1    4    4    0    0 -0.39386814845E+02  0.53725898043E+01 -0.16949603868E+02  0.43214291342E+02  0.00000000000E+00 0.  1.
</event>
<event>
 8    1  0.7016814E-009  0.1203580E+03  0.7561462E-02  0.1242508E+00
          1   -1    0    0  501    0  0.00000000000E+00  0.00000000000E+00  0.30605463488E+03  0.30605463488E+03  0.00000000000E+00 0. -1.
         -1   -1    0    0    0  501 -0.00000000000E+00 -0.00000000000E+00 -0.65209181061E+02  0.65209181061E+02  0.00000000000E+00 0.  1.
         25    2    1    2    0    0 -0.58568811273E+02  0.35722623081E+02  0.21170419610E+03  0.25528947980E+03  0.12509052880E+03 0.  0.
         23    2    1    2    0    0  0.58568811273E+02 -0.35722623081E+02  0.29141257720E+02  0.11597433614E+03  0.88850561554E+02 0.  0.
          5    1    3    3  502    0  0.34856748038E+02  0.23286189040E+02  0.10342674003E+03  0.11167722434E+03  0.41800000000E+01 0. -1.
         -5    1    3    3    0  502 -0.93425559311E+02  0.12436434042E+02  0.10827745607E+03  0.14361225546E+03  0.41800000000E+01 0. -1.
        -11    1    4    4    0    0  0.32300166634E+02  0.23176506890E+02  0.32568013638E+02  0.51391893802E+02  0.00000000000E+00 0. -1.
         11    1    4    4    0    0  0.26268644639E+02 -0.58899129972E+02 -0.34267559181E+01  0.64582442341E+02  0.00000000000E+00 0.  1.
</event>
<event>
 8    1  0.7016814E-009  0.1179283E+03  0.7561462E-02  0.1246554E+00
          2   -1    0    0  501    0  0.00000000000E+00  0.00000000000E+00  0.14628630838E+04  0.14628630838E+04  0.00000000000E+00 0. -1.
         -2   -1    0    0    0  501 -0.00000000000E+00 -0.00000000000E+00 -0.25982485931E+02  0.25982485931E+02  0.00000000000E+00 0.  1.
         25    2    1    2    0    0 -0.45858271561E+02  0.40220134468E+02  0.13114512106E+04  0.13188148155E+04  0.12509036513E+03 0.  0.
         23    2    1    2    0    0  0.45858271561E+02 -0.40220134468E+02  0.12542938725E+03  0.17003075424E+03  0.97248577950E+02 0.  0.
          5    1    3    3  502    0 -0.50641759729E+02 -0.25962744202E+02  0.31347206365E+03  0.31862338113E+03  0.41800000000E+01 0.  1.
         -5    1    3    3    0  502  0.47834881685E+01  0.66182878670E+02  0.99797914698E+03  0.10001914344E+04  0.41800000000E+01 0.  1.
        -11    1    4    4    0    0  0.74584533239E+02 -0.20132135023E+02  0.10164165079E+03  0.12766824443E+03  0.00000000000E+00 0.  1.
         11    1    4    4    0    0 -0.28726261678E+02 -0.20087999445E+02  0.23787736460E+02  0.42362509812E+02  0.00000000000E+00 0. -1.
</event>
<event>
 8    1  0.7016814E-009  0.9384674E+02  0.7561462E-02  0.1293795E+00
         -2   -1    0    0    0  501 -0.00000000000E+00  0.00000000000E+00  0.53679950091E+02  0.53679950091E+02  0.00000000000E+00 0.  1.
          2   -1    0    0  501    0  0.00000000000E+00 -0.00000000000E+00 -0.25536054513E+03  0.25536054513E+03  0.00000000000E+00 0. -1.
         25    2    1    2    0    0  0.41602690227E+02  0.99223767141E+01 -0.98586174718E+02  0.16491075271E+03  0.12508830928E+03 0.  0.
         23    2    1    2    0    0 -0.41602690227E+02 -0.99223767141E+01 -0.10309442032E+03  0.14412974251E+03  0.91190382068E+02 0.  0.
          5    1    3    3  502    0  0.57893074824E+02 -0.14643870080E+02  0.21159838779E+01  0.59899923467E+02  0.41800000000E+01 0.  1.
         -5    1    3    3    0  502 -0.16290384598E+02  0.24566246794E+02 -0.10070215860E+03  0.10501082924E+03  0.41800000000E+01 0.  1.
        -11    1    4    4    0    0 -0.68076044387E+02  0.39135019280E+01 -0.55415879493E+02  0.87866848223E+02  0.00000000000E+00 0.  1.
         11    1    4    4    0    0  0.26473354161E+02 -0.13835878642E+02 -0.47678540828E+02  0.56262894289E+02  0.00000000000E+00 0. -1.
</event>
<event>
 8    1  0.7016814E-009  0.1597056E+03  0.7561462E-02  0.1189030E+00
          1   -1    0    0  501    0  0.00000000000E+00  0.00000000000E+00  0.32653805024E+03  0.32653805024E+03  0.00000000000E+00 0. -1.
         -1   -1    0    0    0  501 -0.00000000000E+00 -0.00000000000E+00 -0.95844878418E+02  0.95844878418E+02  0.00000000000E+00 0.  1.
         25    2    1    2    0    0  0.57995470145E+02 -0.11112165879E+03  0.50056420895E+02  0.18402201047E+03  0.12508779898E+03 0.  0.
         23    2    1    2    0    0 -0.57995470145E+02  0.11112165879E+03  0.18063675093E+03  0.23836091819E+03  0.92058643955E+02 0.  0.
          5    1    3    3  502    0  0.43849567649E+02  0.98063312059E+01  0.42458788747E+02  0.61961034986E+02  0.41800000000E+01 0. -1.
         -5    1    3    3    0  502  0.14145902495E+02 -0.12092798999E+03  0.75976321484E+01  0.12206097548E+03  0.41800000000E+01 0. -1.
        -11    1    4    4    0    0  0.13232975374E+02  0.67827502924E+02  0.10563048148E+03  0.12622789077E+03  0.00000000000E+00 0. -1.
         11    1    4    4    0    0 -0.71228445519E+02  0.43294155862E+02  0.75006269452E+02  0.11213302743E+03  0.00000000000E+00 0.  1.
</event>
<event>
 8    1  0.7016814E-009  0.1251226E+03  0.7561462E-02  0.1234878E+00
          2   -1    0    0  501    0  0.00000000000E+00  0.00000000000E+00  0.88383847161E+02  0.88383847161E+02  0.00000000000E+00 0. -1.
         -2   -1    0    0    0  501 -0.00000000000E+00 -0.00000000000E+00 -0.24673936264E+03  0.24673936264E+03  0.00000000000E+00 0.  1.
         25    2    1    2    0    0 -0.86446367126E+02  0.44086494544E+02 -0.11196842797E+03  0.19390938063E+03  0.12508927069E+03 0.  0.
         23    2    1    2    0    0  0.86446367126E+02 -0.44086494544E+02 -0.46387087511E+02  0.14121382918E+03  0.91504045122E+02 0.  0.
          5    1    3    3  502    0 -0.11045935906E+03  0.45118404224E+02 -0.54037893552E+02  0.13105154231E+03  0.41800000000E+01 0.  1.
         -5    1    3    3    0  502  0.24012991931E+02 -0.10319096803E+01 -0.57930534420E+02  0.62857838312E+02  0.41800000000E+01 0.  1.
        -11    1    4    4    0    0  0.49800976991E+01 -0.21285848311E+02 -0.52023043585E+02  0.56429476121E+02  0.00000000000E+00 0.  1.
         11    1    4    4    0    0  0.81466269427E+02 -0.22800646233E+02  0.56359560740E+01  0.84784353060E+02  0.00000000000E+00 0. -1.
</event>
<event>
 8    1  0.7016814E-009  0.8066297E+02  0.7561462E-02  0.1327180E+00
          4   -1    0    0  501    0  0.00000000000E+00  0.00000000000E+00  0.36278084515E+02  0.36278084515E+02  0.00000000000E+00 0. -1.
         -4   -1    0    0    0  501 -0.00000000000E+00 -0.00000000000E+00 -0.34823278809E+03  0.34823278809E+03  0.00000000000E+00 0.  1.
         25    2    1    2    0    0 -0.14247555647E+02 -0.21005167232E+01 -0.13316141484E+03  0.18326709298E+03  0.12508980756E+03 0.  0.
         23    2    1    2    0    0  0.14247555647E+02  0.21005167232E+01 -0.17879328873E+03  0.20124377962E+03  0.91239321163E+02 0.  0.
          5    1    3    3  502    0  0.40178672175E+02 -0.64057975262E+01 -0.17880240303E+01  0.40939337679E+02  0.41800000000E+01 0. -1.
         -5    1    3    3    0  502 -0.54426227822E+02  0.43052808030E+01 -0.13137339081E+03  0.14232775530E+03  0.41800000000E+01 0. -1.
        -11    1    4    4    0    0  0.14601002499E+01 -0.30560083722E+02 -0.15635868053E+02  0.34358855913E+02  0.00000000000E+00 0. -1.
         11    1    4    4    0    0  0.12787455397E+02  0.32660600446E+02 -0.16315742068E+03  0.16688492371E+03  0.00000000000E+00 0.  1.
</event>
<event>
 8    1  0.7016814E-009  0.1687030E+03  0.7561462E-02  0.1179207E+00
          1   -1    0    0  501    0  0.00000000000E+00  0.00000000000E+00  0.17024168908E+04  0.17024168908E+04  0.00000000000E+00 0. -1.
         -1   -1    0    0    0  501 -0.00000000000E+00 -0.00000000000E+00 -0.28991217783E+02  0.28991217783E+02  0.00000000000E+00 0.  1.
         25    2    1    2    0    0  0.11282555331E+03  0.90807527320E+02  0.13445769213E+04  0.13581282045E+04  0.12509800248E+03 0.  0.
         23    2    1    2    0    0 -0.11282555331E+03 -0.90807527320E+02  0.32884875170E+03  0.37327990401E+03  0.10109783748E+03 0.  0.
          5    1    3    3  502    0  0.12348587816E+03  0.90659597360E+02  0.86873142557E+03  0.88214493529E+03  0.41800000000E+01 0. -1.
         -5    1    3    3    0  502 -0.10660324849E+02  0.14792996044E+00  0.47584549571E+03  0.47598326924E+03  0.41800000000E+01 0. -1.
        -11    1    4    4    0    0  0.27349564880E+01  0.15466779950E+02  0.59276320249E+02  0.61321965161E+02  0.00000000000E+00 0. -1.
         11    1    4    4    0    0 -0.11556050980E+03 -0.10627430727E+03  0.26957243145E+03  0.31195793885E+03  0.00000000000E+00 0.  1.
</event>
<event>
 8    1  0.7016814E-009  0.1107665E+03  0.7561462E-02  0.1259157E+00
         -1   -1    0    0    0  501 -0.00000000000E+00  0.00000000000E+00  0.22938961953E+03  0.22938961953E+03  0.00000000000E+00 0.  1.
          1   -1    0    0  501    0  0.00000000000E+00 -0.00000000000E+00 -0.97538300803E+02  0.97538300803E+02  0.00000000000E+00 0. -1.
         25    2    1    2    0    0 -0.22684517845E+02 -0.43405434671E+02 -0.27862567669E+02  0.13719685333E+03  0.12509210518E+03 0.  0.
         23    2    1    2    0    0  0.22684517845E+02  0.43405434671E+02  0.15971388640E+03  0.18973106700E+03  0.89948502871E+02 0.  0.
          5    1    3    3  502    0  0.20976734612E+02  0.36698502784E+02 -0.14583991616E+02  0.44910674823E+02  0.41800000000E+01 0.  1.
         -5    1    3    3    0  502 -0.43661252458E+02 -0.80103937454E+02 -0.13278576053E+02  0.92286178509E+02  0.41800000000E+01 0.  1.
        -11    1    4    4    0    0 -0.19476206801E+01  0.58702463655E+02  0.14656049067E+03  0.15789157638E+03  0.00000000000E+00 0.  1.
         11    1    4    4    0    0  0.24632138525E+02 -0.15297028984E+02  0.13153395727E+02  0.31839490624E+02  0.00000000000E+00 0. -1.
</event>
<event>
 8    1  0.7016814E-009  0.2065156E+03  0.7561462E-02  0.1144355E+00
         -1   -1    0    0    0  501 -0.00000000000E+00  0.00000000000E+00  0.17591168775E+03  0.17591168775E+03  0.00000000000E+00 0.  1.
          1   -1    0    0  501    0  0.00000000000E+00 -0.00000000000E+00 -0.25445438989E+03  0.25445438989E+03  0.00000000000E+00 0. -1.
         25    2    1    2    0    0 -0.70629167139E+02  0.16718894631E+03 -0.48221254660E+02  0.22563976975E+03  0.12508954102E+03 0.  0.
         23    2    1    2    0    0  0.70629167139E+02 -0.16718894631E+03 -0.30321447488E+02  0.20472630789E+03  0.89737661811E+02 0.  0.
          5    1    3    3  502    0 -0.42236518296E+02 -0.59305262160E+01 -0.22119845190E+02  0.48227114471E+02  0.41800000000E+01 0.  1.
         -5    1    3    3    0  502 -0.28392648843E+02  0.17311947253E+03 -0.26101409470E+02  0.17741265528E+03  0.41800000000E+01 0.  1.
        -11    1    4    4    0    0  0.52715476789E+02 -0.39803090497E+02 -0.37372281800E+02  0.75893971784E+02  0.00000000000E+00 0. -1.
         11    1    4    4    0    0  0.17913690349E+02 -0.12738585581E+03  0.70508343112E+01  0.12883233611E+03  0.00000000000E+00 0.  1.
</event>
<event>
 8    1  0.7016814E-009  0.9056016E+02  0.7561462E-02  0.1301501E+00
          1   -1    0    0  501    0  0.00000000000E+00  0.00000000000E+00  0.40450970018E+02  0.40450970018E+02  0.00000000000E+00 0. -1.
         -1   -1    0    0    0  501 -0.00000000000E+00 -0.00000000000E+00 -0.35744677423E+03  0.35744677423E+03  0.00000000000E+00 0.  1.
         25    2    1    2    0    0 -0.56683342188E+01  0.14310888498E+02 -0.24719296695E+03  0.27746942907E+03  0.12509192467E+03 0.  0.
         23    2    1    2    0    0  0.56683342188E+01 -0.14310888498E+02 -0.69802837264E+02  0.12042831518E+03  0.96920645191E+02 0.  0.
          5    1    3    3  502    0 -0.56123499219E+02 -0.14405801433E+02 -0.17696498205E+03  0.18625641345E+03  0.41800000000E+01 0.  1.
         -5    1    3    3    0  502  0.50455165000E+02  0.28716689931E+02 -0.70227984904E+02  0.91213015625E+02  0.41800000000E+01 0.  1.
        -11    1    4    4    0    0 -0.10516941192E+02  0.22375380603E+02 -0.75940110639E+02  0.79863409100E+02  0.00000000000E+00 0.  1.
         11    1    4    4    0    0  0.16185275411E+02 -0.36686269101E+02  0.61372733750E+01  0.40564906079E+02  0.00000000000E+00 0. -1.
</event>
<event>
 8    1  0.7016814E-009  0.1083647E+03  0.7561462E-02  0.1263629E+00
          1   -1    0    0  501    0  0.00000000000E+00  0.00000000000E+00  0.71270591707E+02  0.71270591707E+02  0.00000000000E+00 0. -1.
         -1   -1    0    0    0  501 -0.00000000000E+00 -0.00000000000E+00 -0.31195143330E+03  0.31195143330E+03  0.00000000000E+00 0.  1.
         25    2    1    2    0    0 -0.71993242257E+02 -0.49938660815E+02 -0.65146213925E+02  0.16603872828E+03  0.12509169966E+03 0.  0.
         23    2    1    2    0    0  0.71993242257E+02  0.49938660815E+02 -0.17553462767E+03  0.21718329673E+03  0.93162664697E+02 0.  0.
          5    1    3    3  502    0 -0.67171035427E+02 -0.50112766453E+02 -0.10003715904E+03  0.13056853737E+03  0.41800000000E+01 0. -1.
         -5    1    3    3    0  502 -0.48222068297E+01  0.17410563725E+00  0.34890945118E+02  0.35470190904E+02  0.41800000000E+01 0. -1.
        -11    1    4    4    0    0 -0.62126023975E+00  0.53719887973E+02 -0.58731671573E+02  0.79596617854E+02  0.00000000000E+00 0.  1.
         11    1    4    4    0    0  0.72614502497E+02 -0.37812271575E+01 -0.11680295609E+03  0.13758667887E+03  0.00000000000E+00 0. -1.
</event>
<event>
 8    1  0.7016814E-009  0.1831370E+03  0.7561462E-02  0.1164801E+00
         -2   -1    0    0    0  501 -0.00000000000E+00  0.00000000000E+00  0.10177214498E+03  0.10177214498E+03  0.00000000000E+00 0. -1.
          2   -1    0    0  501    0  0.00000000000E+00 -0.00000000000E+00 -0.50152129234E+03  0.50152129234E+03  0.00000000000E+00 0.  1.
         25    2    1    2    0    0 -0.11841844291E+03  0.11416556952E+03 -0.35399918665E+03  0.40990162639E+03  0.12508882557E+03 0.  0.
         23    2    1    2    0    0  0.11841844291E+03 -0.11416556952E+03 -0.45749960703E+02  0.19339181092E+03  0.90832971668E+02 0.  0.
          5    1    3    3  502    0 -0.11687671883E+03  0.12623512897E+03 -0.35733360218E+03  0.39661095653E+03  0.41800000000E+01 0.  1.
         -5    1    3    3    0  502 -0.15417240816E+01 -0.12069559453E+02  0.33344155260E+01  0.13290669864E+02  0.41800000000E+01 0.  1.
        -11    1    4    4    0    0  0.85205702866E+02 -0.29154201795E+02  0.26284029021E+01  0.90093772176E+02  0.00000000000E+00 0. -1.
         11    1    4    4    0    0  0.33212740048E+02 -0.85011367723E+02 -0.48378363605E+02  0.10329803875E+03  0.00000000000E+00 0.  1.
</event>
<event>
 8    1  0.7016814E-009  0.1180828E+03  0.7561462E-02  0.1246294E+00
         -4   -1    0    0    0  501 -0.00000000000E+00  0.00000000000E+00  0.96979300781E+02  0.96979300781E+02  0.00000000000E+00 0.  1.
          4   -1    0    0  501    0  0.00000000000E+00 -0.00000000000E+00 -0.17235666366E+03  0.17235666366E+03  0.00000000000E+00 0. -1.
         25    2    1    2    0    0 -0.56303428082E+02  0.69112546092E+00  0.29029993030E+01  0.13720793715E+03  0.12508811672E+03 0.  0.
         23    2    1    2    0    0  0.56303428082E+02 -0.69112546092E+00 -0.78280362183E+02  0.13212802729E+03  0.90329656393E+02 0.  0.
          5    1    3    3  502    0  0.36572051964E+02 -0.15694001331E+02  0.13455233910E+02  0.42217678551E+02  0.41800000000E+01 0.  1.
         -5    1    3    3    0  502 -0.92875480046E+02  0.16385126792E+02 -0.10552234607E+02  0.94990258601E+02  0.41800000000E+01 0.  1.
        -11    1    4    4    0    0 -0.59120238330E+01  0.31254919230E+02 -0.43855651880E+02  0.54176934240E+02  0.00000000000E+00 0. -1.
         11    1    4    4    0    0  0.62215451915E+02 -0.31946044691E+02 -0.34424710303E+02  0.77951093051E+02  0.00000000000E+00 0.  1.
</event>
<event>
 8    1  0.7016814E-009  0.7587985E+02  0.7561462E-02  0.1341168E+00
          1   -1    0    0  501    0  0.00000000000E+00  0.00000000000E+00  0.61868092899E+03  0.61868092899E+03  0.00000000000E+00 0. -1.
         -1   -1    0    0    0  501 -0.00000000000E+00 -0.00000000000E+00 -0.23250413823E+02  0.23250413823E+02  0.00000000000E+00 0.  1.
         25    2    1    2    0    0  0.27971254690E+02 -0.43168659282E+01  0.24887994109E+03  0.27998004629E+03  0.12508626951E+03 0.  0.
         23    2    1    2    0    0 -0.27971254690E+02  0.43168659282E+01  0.34655057408E+03  0.36195129653E+03  0.10055055568E+03 0.  0.
          5    1    3    3  502    0  0.39058336314E+02 -0.13074808617E+02  0.25888214061E+03  0.26217158386E+03  0.41800000000E+01 0.  1.
         -5    1    3    3    0  502 -0.11087081624E+02  0.87579426884E+01 -0.10002199513E+02  0.17808462432E+02  0.41800000000E+01 0.  1.
        -11    1    4    4    0    0 -0.31141180610E+02 -0.40280964950E+02  0.10999283979E+03  0.12120542097E+03  0.00000000000E+00 0.  1.
         11    1    4    4    0    0  0.31699259207E+01  0.44597830878E+02  0.23655773428E+03  0.24074587556E+03  0.00000000000E+00 0. -1.
</event>
<event>
 8    1  0.7016814E-009  0.1944048E+03  0.7561462E-02  0.1154547E+00
         -1   -1    0    0    0  501 -0.00000000000E+00  0.00000000000E+00  0.90350190011E+02  0.90350190011E+02  0.00000000000E+00 0.  1.
          1   -1    0    0  501    0  0.00000000000E+00 -0.00000000000E+00 -0.53906615489E+03  0.53906615489E+03  0.00000000000E+00 0. -1.
         25    2    1    2    0    0  0.97999948923E+02 -0.14216379503E+03 -0.11418987367E+03  0.24186998036E+03  0.12508887059E+03 0.  0.
         23    2    1    2    0    0 -0.97999948923E+02  0.14216379503E+03 -0.33452609121E+03  0.38754636454E+03  0.92032300654E+02 0.  0.
          5    1    3    3  502    0  0.89743736121E+02 -0.15448740311E+03 -0.12907039551E+03  0.22044712583E+03  0.41800000000E+01 0. -1.
         -5    1    3    3    0  502  0.82562128016E+01  0.12323608079E+02  0.14880521839E+02  0.21422854528E+02  0.41800000000E+01 0. -1.
        -11    1    4    4    0    0  0.99439976491E+01 -0.58163650209E+01 -0.30550287892E+02  0.32650165108E+02  0.00000000000E+00 0.  1.
         11    1    4    4    0    0 -0.10794394657E+03  0.14798016005E+03 -0.30397580332E+03  0.35489619943E+03  0.00000000000E+00 0. -1.
</event>
<event>
 8    1  0.7016814E-009  0.1332899E+03  0.7561462E-02  0.1222654E+00
         -1   -1    0    0    0  501 -0.00000000000E+00  0.00000000000E+00  0.13614177199E+02  0.13614177199E+02  0.00000000000E+00 0.  1.
          1   -1    0    0  501    0  0.00000000000E+00 -0.00000000000E+00 -0.24662614518E+04  0.24662614518E+04  0.00000000000E+00 0. -1.
         25    2    1    2    0    0  0.68618194798E+02 -0.41130688214E+02 -0.20937016598E+04  0.20989598662E+04  0.12508273027E+03 0.  0.
         23    2    1    2    0    0 -0.68618194798E+02  0.41130688214E+02 -0.35894561482E+03  0.38091576284E+03  0.99270709733E+02 0.  0.
          5    1    3    3  502    0  0.15075790795E+02 -0.79123653392E+02 -0.13226524013E+04  0.13251093084E+04  0.41800000000E+01 0.  1.
         -5    1    3    3    0  502  0.53542404003E+02  0.37992965178E+02 -0.77104925849E+03  0.77385055783E+03  0.41800000000E+01 0.  1.
        -11    1    4    4    0    0  0.20582176049E+02  0.19501420756E+02 -0.40027130526E+02  0.49052039310E+02  0.00000000000E+00 0.  1.
         11    1    4    4    0    0 -0.89200370846E+02  0.21629267457E+02 -0.31891848430E+03  0.33186372353E+03  0.00000000000E+00 0. -1.
</event>
<event>
 8    1  0.7016814E-009  0.9655050E+02  0.7561462E-02  0.1287722E+00
          2   -1    0    0  501    0  0.00000000000E+00  0.00000000000E+00  0.22641907913E+03  0.22641907913E+03  0.00000000000E+00 0.  1.
         -2   -1    0    0    0  501 -0.00000000000E+00 -0.00000000000E+00 -0.20856866414E+03  0.20856866414E+03  0.00000000000E+00 0. -1.
         25    2    1    2    0    0 -0.45941075883E+01 -0.90725807187E+01 -0.17737492352E+03  0.21729445575E+03  0.12510635260E+03 0.  0.
         23    2    1    2    0    0  0.45941075883E+01  0.90725807187E+01  0.19522533851E+03  0.21769328752E+03  0.95781089406E+02 0.  0.
          5    1    3    3  502    0 -0.33171320636E+02  0.32193644535E+02 -0.17384609299E+02  0.49562730974E+02  0.41800000000E+01 0.  1.
         -5    1    3    3    0  502  0.28577213047E+02 -0.41266225253E+02 -0.15999031422E+03  0.16773172477E+03  0.41800000000E+01 0.  1.
        -11    1    4    4    0    0  0.83208095454E+01 -0.43159059038E+02  0.89625577021E+02  0.99823265348E+02  0.00000000000E+00 0.  1.
         11    1    4    4    0    0 -0.37267019570E+01  0.52231639757E+02  0.10559976149E+03  0.11787002217E+03  0.00000000000E+00 0. -1.
</event>
<event>
 8    1  0.7016814E-009  0.9801866E+02  0.7561462E-02  0.1284518E+00
          1   -1    0    0  501    0  0.00000000000E+00  0.00000000000E+00  0.25402114526E+03  0.25402114526E+03  0.00000000000E+00 0. -1.
         -1   -1    0    0    0  501 -0.00000000000E+00 -0.00000000000E+00 -0.47318617975E+02  0.47318617975E+02  0.00000000000E+00 0.  1.
         25    2    1    2    0    0 -0.14629042995E+02  0.51835876561E+01  0.12008399957E+03  0.17409458386E+03  0.12509148131E+03 0.  0.
         23    2    1    2    0    0  0.14629042995E+02 -0.51835876561E+01  0.86618527707E+02  0.12724517937E+03  0.91911304264E+02 0.  0.
          5    1    3    3  502    0 -0.44399749266E+02  0.50821872571E+02  0.87094766381E+02  0.11025956284E+03  0.41800000000E+01 0.  1.
         -5    1    3    3    0  502  0.29770706271E+02 -0.45638284915E+02  0.32989233192E+02  0.63835021019E+02  0.41800000000E+01 0.  1.
        -11    1    4    4    0    0  0.36369051366E+02  0.19182988997E+02  0.85148862453E+02  0.94556986738E+02  0.00000000000E+00 0. -1.
         11    1    4    4    0    0 -0.21740008371E+02 -0.24366576653E+02  0.14696652547E+01  0.32688192634E+02  0.00000000000E+00 0.  1.
</event>
<event>
 8    1  0.7016814E-009  0.1203421E+03  0.7561462E-02  0.1242534E+00
          3   -1    0    0  501    0  0.00000000000E+00  0.00000000000E+00  0.53769090476E+03  0.53769090476E+03  0.00000000000E+00 0. -1.
         -3   -1    0    0    0  501 -0.00000000000E+00 -0.00000000000E+00 -0.29310041263E+02  0.29310041263E+02  0.00000000000E+00 0.  1.
         25    2    1    2    0    0 -0.55431666586E+02 -0.11986015521E+02  0.22536525978E+03  0.26392586291E+03  0.12510406296E+03 0.  0.
         23    2    1    2    0    0  0.55431666586E+02  0.11986015521E+02  0.28301560371E+03  0.30307508311E+03  0.92413959046E+02 0.  0.
          5    1    3    3  502    0 -0.69124201967E+02  0.41011721830E+02  0.15529220823E+03  0.17490928781E+03  0.41800000000E+01 0.  1.
         -5    1    3    3    0  502  0.13692535381E+02 -0.52997737351E+02  0.70073051551E+02  0.89016575104E+02  0.41800000000E+01 0.  1.
        -11    1    4    4    0    0 -0.95437024075E+01  0.35072962541E+02  0.65733133450E+02  0.75113512700E+02  0.00000000000E+00 0.  1.
         11    1    4    4    0    0  0.64975368994E+02 -0.23086947020E+02  0.21728247026E+03  0.22796157041E+03  0.00000000000E+00 0. -1.
</event>
<event>
 8    1  0.7016814E-009  0.1345747E+03  0.7561462E-02  0.1220821E+00
          4   -1    0    0  501    0  0.00000000000E+00  0.00000000000E+00  0.12861525778E+04  0.12861525778E+04  0.00000000000E+00 0. -1.
         -4   -1    0    0    0  501 -0.00000000000E+00 -0.00000000000E+00 -0.31407935096E+02  0.31407935096E+02  0.00000000000E+00 0.  1.
         25    2    1    2    0    0 -0.57454594031E+02 -0.10265041970E+03  0.10535267904E+04  0.10674291506E+04  0.12509258372E+03 0.  0.
         23    2    1    2    0    0  0.57454594031E+02  0.10265041970E+03  0.20121785230E+03  0.25013136225E+03  0.90768580793E+02 0.  0.
          5    1    3    3  502    0 -0.41985721261E+02 -0.18082926631E+02  0.10008642434E+03  0.11011156961E+03  0.41800000000E+01 0.  1.
         -5    1    3    3    0  502 -0.15468872771E+02 -0.84567493065E+02  0.95344036605E+03  0.95731758101E+03  0.41800000000E+01 0.  1.
        -11    1    4    4    0    0  0.35613830808E+02  0.36603719270E+01  0.16488396204E+02  0.39415865801E+02  0.00000000000E+00 0. -1.
         11    1    4    4    0    0  0.21840763223E+02  0.98990047770E+02  0.18472945610E+03  0.21071549645E+03  0.00000000000E+00 0.  1.
</event>
<event>
 8    1  0.7016814E-009  0.1446846E+03  0.7561462E-02  0.1207161E+00
         -2   -1    0    0    0  501 -0.00000000000E+00  0.00000000000E+00  0.20924127873E+03  0.20924127873E+03  0.00000000000E+00 0.  1.
          2   -1    0    0  501    0  0.00000000000E+00 -0.00000000000E+00 -0.14053417632E+03  0.14053417632E+03  0.00000000000E+00 0. -1.
         25    2    1    2    0    0  0.93087636257E+02  0.66017065735E+02  0.10549489562E+03  0.19950647572E+03  0.12510035916E+03 0.  0.
         23    2    1    2    0    0 -0.93087636257E+02 -0.66017065735E+02 -0.36787793213E+02  0.15026897933E+03  0.90575181081E+02 0.  0.
          5    1    3    3  502    0  0.78063603342E+02 -0.20706018518E+02  0.44111464322E+02  0.92119265380E+02  0.41800000000E+01 0.  1.
         -5    1    3    3    0  502  0.15024032916E+02  0.86723084253E+02  0.61383431300E+02  0.10738721034E+03  0.41800000000E+01 0.  1.
        -11    1    4    4    0    0 -0.40188924116E+02 -0.51886540753E+02  0.22675085750E+02  0.69437182019E+02  0.00000000000E+00 0.  1.
         11    1    4    4    0    0 -0.52898712141E+02 -0.14130524983E+02 -0.59462878963E+02  0.80831797314E+02  0.00000000000E+00 0. -1.
</event>
<event>
 8    1  0.7016814E-009  0.8798966E+02  0.7561462E-02  0.1307794E+00
          1   -1    0    0  501    0  0.00000000000E+00  0.00000000000E+00  0.57389515792E+02  0.57389515792E+02  0.00000000000E+00 0. -1.
         -1   -1    0    0    0  501 -0.00000000000E+00 -0.00000000000E+00 -0.27228095023E+03  0.27228095023E+03  0.00000000000E+00 0.  1.
         25    2    1    2    0    0 -0.60150135995E+02 -0.21319244847E+02 -0.93513056344E+02  0.16871345728E+03  0.12508792868E+03 0.  0.
         23    2    1    2    0    0  0.60150135995E+02  0.21319244847E+02 -0.12137837810E+03  0.16095700874E+03  0.84272765067E+02 0.  0.
          5    1    3    3  502    0 -0.27062184160E+02 -0.56917422548E+02  0.90360964917E-01  0.63161977218E+02  0.41800000000E+01 0. -1.
         -5    1    3    3    0  502 -0.33087951835E+02  0.35598177701E+02 -0.93603417309E+02  0.10555148007E+03  0.41800000000E+01 0. -1.
        -11    1    4    4    0    0  0.35967610859E+02  0.99700045320E+01 -0.12808701141E+03  0.13341421406E+03  0.00000000000E+00 0.  1.
         11    1    4    4    0    0  0.24182525136E+02  0.11349240315E+02  0.67086333161E+01  0.27542794678E+02  0.00000000000E+00 0. -1.
</event>
<event>
 8    1  0.7016814E-009  0.1498911E+03  0.7561462E-02  0.1200607E+00
         -3   -1    0    0    0  501 -0.00000000000E+00  0.00000000000E+00  0.48137166591E+03  0.48137166591E+03  0.00000000000E+00 0.  1.
          3   -1    0    0  501    0  0.00000000000E+00 -0.00000000000E+00 -0.66154454874E+02  0.66154454874E+02  0.00000000000E+00 0. -1.
         25    2    1    2    0    0  0.89262958544E+02  0.93164450356E+02  0.13220620986E+03  0.22310043451E+03  0.12509129216E+03 0.  0.
         23    2    1    2    0    0 -0.89262958544E+02 -0.93164450356E+02  0.28301100117E+03  0.32442568627E+03  0.92245913455E+02 0.  0.
          5    1    3    3  502    0  0.90208042084E+02  0.14912706239E+02  0.34421111286E+02  0.97786323001E+02  0.41800000000E+01 0. -1.
         -5    1    3    3    0  502 -0.94508353957E+00  0.78251744117E+02  0.97785098576E+02  0.12531411151E+03  0.41800000000E+01 0. -1.
        -11    1    4    4    0    0 -0.19784572210E+02 -0.30304256940E+02  0.12728382068E+02  0.38363902255E+02  0.00000000000E+00 0. -1.
         11    1    4    4    0    0 -0.69478386334E+02 -0.62860193416E+02  0.27028261910E+03  0.28606178401E+03  0.00000000000E+00 0.  1.
</event>
<event>
 8    1  0.7016814E-009  0.1371282E+03  0.7561462E-02  0.1217246E+00
          1   -1    0    0  501    0  0.00000000000E+00  0.00000000000E+00  0.90191709157E+03  0.90191709157E+03  0.00000000000E+00 0. -1.
         -1   -1    0    0    0  501 -0.00000000000E+00 -0.00000000000E+00 -0.38531819704E+02  0.38531819704E+02  0.00000000000E+00 0.  1.
         25    2    1    2    0    0  0.44804477230E+02  0.78568555954E+02  0.75777318649E+03  0.77333581880E+03  0.12509047649E+03 0.  0.
         23    2    1    2    0    0 -0.44804477230E+02 -0.78568555954E+02  0.10561208537E+03  0.16711309247E+03  0.92695274608E+02 0.  0.
          5    1    3    3  502    0 -0.21887332621E+02 -0.22909708509E+02  0.12640344806E+03  0.13038103449E+03  0.41800000000E+01 0.  1.
         -5    1    3    3    0  502  0.66691809851E+02  0.10147826446E+03  0.63136973843E+03  0.64295478431E+03  0.41800000000E+01 0.  1.
        -11    1    4    4    0    0 -0.65473575388E+02 -0.39151869590E+02  0.35677631263E+02  0.84217286462E+02  0.00000000000E+00 0.  1.
         11    1    4    4    0    0  0.20669098158E+02 -0.39416686365E+02  0.69934454110E+02  0.82895806012E+02  0.00000000000E+00 0. -1.
</event>
<event>
 8    1  0.7016814E-009  0.2794390E+03  0.7561462E-02  0.1095996E+00
         -1   -1    0    0    0  501 -0.00000000000E+00  0.00000000000E+00  0.31280088748E+03  0.31280088748E+03  0.00000000000E+00 0.  1.
          1   -1    0    0  501    0  0.00000000000E+00 -0.00000000000E+00 -0.31046040183E+03  0.31046040183E+03  0.00000000000E+00 0. -1.
         25    2    1    2    0    0  0.22304528704E+03  0.15111080451E+03  0.10890698554E+03  0.31637173293E+03  0.12508663632E+03 0.  0.
         23    2    1    2    0    0 -0.22304528704E+03 -0.15111080451E+03 -0.10656649989E+03  0.30688955637E+03  0.10119834782E+03 0.  0.
          5    1    3    3  502    0  0.91752905926E+02  0.81096584437E+02  0.11410304644E+03  0.16742828124E+03  0.41800000000E+01 0. -1.
         -5    1    3    3    0  502  0.13129238112E+03  0.70014220070E+02 -0.51960608977E+01  0.14894345169E+03  0.41800000000E+01 0. -1.
        -11    1    4    4    0    0 -0.11756010811E+03 -0.20044892224E+02 -0.51057274041E+02  0.12972672028E+03  0.00000000000E+00 0. -1.
         11    1    4    4    0    0 -0.10548517894E+03 -0.13106591228E+03 -0.55509225853E+02  0.17716283609E+03  0.00000000000E+00 0.  1.
</event>
<event>
 8    1  0.7016814E-009  0.6474183E+02  0.7561462E-02  0.1378945E+00
         -2   -1    0    0    0  501 -0.00000000000E+00  0.00000000000E+00  0.73370351370E+03  0.73370351370E+03  0.00000000000E+00 0. -1.
          2   -1    0    0  501    0  0.00000000000E+00 -0.00000000000E+00 -0.20149394210E+02  0.20149394210E+02  0.00000000000E+00 0.  1.
         25    2    1    2    0    0  0.85410091708E+00  0.39200272639E+02  0.52768880732E+03  0.54372848927E+03  0.12509117398E+03 0.  0.
         23    2    1    2    0    0 -0.85410091708E+00 -0.39200272639E+02  0.18586531217E+03  0.21012441864E+03  0.89827424419E+02 0.  0.
          5    1    3    3  502    0 -0.39908378681E+01  0.18775413214E+02  0.52090516374E+03  0.52127545975E+03  0.41800000000E+01 0. -1.
         -5    1    3    3    0  502  0.48449387852E+01  0.20424859425E+02  0.67836435834E+01  0.22453029520E+02  0.41800000000E+01 0. -1.
        -11    1    4    4    0    0  0.39054265960E+02 -0.23295043604E+02  0.49801903564E+02  0.67439783102E+02  0.00000000000E+00 0.  1.
         11    1    4    4    0    0 -0.39908366877E+02 -0.15905229035E+02  0.13606340861E+03  0.14268463554E+03  0.00000000000E+00 0. -1.
</event>
<event>
 8    1  0.7016814E-009  0.8486061E+02  0.7561462E-02  0.1315797E+00
          2   -1    0    0  501    0  0.00000000000E+00  0.00000000000E+00  0.76179507464E+03  0.76179507464E+03  0.00000000000E+00 0. -1.
         -2   -1    0    0    0  501 -0.00000000000E+00 -0.00000000000E+00 -0.19301682195E+02  0.19301682195E+02  0.00000000000E+00 0.  1.
         25    2    1    2    0    0 -0.51246342206E+02  0.75577942765E+01  0.49019112081E+03  0.50854477436E+03  0.12508854767E+03 0.  0.
         23    2    1    2    0    0  0.51246342206E+02 -0.75577942765E+01  0.25230227163E+03  0.27255198248E+03  0.89133826562E+02 0.  0.
          5    1    3    3  502    0  0.10022054726E+02 -0.11280437163E+02  0.38481693040E+03  0.38513534266E+03  0.41800000000E+01 0. -1.
         -5    1    3    3    0  502 -0.61268396932E+02  0.18838231440E+02  0.10537419041E+03  0.12340943169E+03  0.41800000000E+01 0. -1.
        -11    1    4    4    0    0  0.49583633344E+02 -0.36039887083E+02  0.97686243100E+02  0.11532567905E+03  0.00000000000E+00 0.  1.
         11    1    4    4    0    0  0.16627088625E+01  0.28482092807E+02  0.15461602853E+03  0.15722630343E+03  0.00000000000E+00 0. -1.
</event>
<event>
 8    1  0.7016814E-009  0.9957409E+02  0.7561462E-02  0.1281194E+00
         -2   -1    0    0    0  501 -0.00000000000E+00  0.00000000000E+00  0.19292992478E+02  0.19292992478E+02  0.00000000000E+00 0.  1.
          2   -1    0    0  501    0  0.00000000000E+00 -0.00000000000E+00 -0.68014807352E+03  0.68014807352E+03  0.00000000000E+00 0. -1.
         25    2    1    2    0    0  0.42078045652E+01  0.37135427527E+02 -0.38402709703E+03  0.40561162168E+03  0.12508889155E+03 0.  0.
         23    2    1    2    0    0 -0.42078045652E+01 -0.37135427527E+02 -0.27682798402E+03  0.29382944433E+03  0.91133221279E+02 0.  0.
          5    1    3    3  502    0  0.46736704999E+02  0.34097007504E+02 -0.81312867129E+02  0.99880830371E+02  0.41800000000E+01 0.  1.
         -5    1    3    3    0  502 -0.42528900434E+02  0.30384200237E+01 -0.30271422990E+03  0.30573079130E+03  0.41800000000E+01 0.  1.
        -11    1    4    4    0    0 -0.27643122911E+02  0.21589326265E+02 -0.10780158783E+03  0.11336411951E+03  0.00000000000E+00 0. -1.
         11    1    4    4    0    0  0.23435318346E+02 -0.58724753792E+02 -0.16902639619E+03  0.18046532482E+03  0.00000000000E+00 0.  1.
</event>
<event>
 8    1  0.7016814E-009  0.1296663E+03  0.7561462E-02  0.1227952E+00
         -2   -1    0    0    0  501 -0.00000000000E+00  0.00000000000E+00  0.88021511055E+03  0.88021511055E+03  0.00000000000E+00 0.  1.
          2   -1    0    0  501    0  0.00000000000E+00 -0.00000000000E+00 -0.26341974577E+02  0.26341974577E+02  0.00000000000E+00 0. -1.
         25    2    1    2    0    0  0.26831674240E+02  0.98713764422E+02  0.37187776874E+03  0.40546842544E+03  0.12508886090E+03 0.  0.
         23    2    1    2    0    0 -0.26831674240E+02 -0.98713764422E+02  0.48199536723E+03  0.50108865968E+03  0.91137065987E+02 0.  0.
          5    1    3    3  502    0  0.17728190163E+02 -0.72030413072E+01  0.97743103566E+00  0.19611228977E+02  0.41800000000E+01 0. -1.
         -5    1    3    3    0  502  0.91034840766E+01  0.10591680573E+03  0.37090033770E+03  0.38585719647E+03  0.41800000000E+01 0. -1.
        -11    1    4    4    0    0 -0.58067274086E+02 -0.69765754802E+02  0.26972942002E+03  0.28459274215E+03  0.00000000000E+00 0. -1.
         11    1    4    4    0    0  0.31235599846E+02 -0.28948009621E+02  0.21226594722E+03  0.21649591753E+03  0.00000000000E+00 0.  1.
</event>
<event>
 8    1  0.7016814E-009  0.8870443E+02  0.7561462E-02  0.1306020E+00
          1   -1    0    0  501    0  0.00000000000E+00  0.00000000000E+00  0.34126327369E+03  0.34126327369E+03  0.00000000000E+00 0. -1.
         -1   -1    0    0    0  501 -0.00000000000E+00 -0.00000000000E+00 -0.50537632335E+02  0.50537632335E+02  0.00000000000E+00 0.  1.
         25    2    1    2    0    0 -0.43017718015E+02  0.56313138429E+02  0.19348472598E+03  0.24105095918E+03  0.12509009598E+03 0.  0.
         23    2    1    2    0    0  0.43017718015E+02 -0.56313138429E+02  0.97240915369E+02  0.15074994684E+03  0.90818815381E+02 0.  0.
          5    1    3    3  502    0 -0.50133499622E+02  0.20681028205E+02  0.11717403220E+02  0.55640296999E+02  0.41800000000E+01 0. -1.
         -5    1    3    3    0  502  0.71157816065E+01  0.35632110224E+02  0.18176732276E+03  0.18541066218E+03  0.41800000000E+01 0. -1.
        -11    1    4    4    0    0 -0.10911148022E+02 -0.14786654906E+02 -0.12065866757E+02  0.21983708855E+02  0.00000000000E+00 0.  1.
         11    1    4    4    0    0  0.53928866037E+02 -0.41526483524E+02  0.10930678213E+03  0.12876623798E+03  0.00000000000E+00 0. -1.
</event>
<event>
 8    1  0.7016814E-009  0.8720272E+02  0.7561462E-02  0.1309771E+00
          1   -1    0    0  501    0  0.00000000000E+00  0.00000000000E+00  0.44893061739E+03  0.44893061739E+03  0.00000000000E+00 0. -1.
         -1   -1    0    0    0  501 -0.00000000000E+00 -0.00000000000E+00 -0.34516731798E+02  0.34516731798E+02  0.00000000000E+00 0.  1.
         25    2    1    2    0    0 -0.50322652882E+02 -0.28851987277E+02  0.27887662730E+03  0.31110611672E+03  0.12510010409E+03 0.  0.
         23    2    1    2    0    0  0.50322652882E+02  0.28851987277E+02  0.13553725830E+03  0.17234123247E+03  0.89254386227E+02 0.  0.
          5    1    3    3  502    0  0.25624887719E+02 -0.11182249985E+02  0.82642533824E+01  0.29452467967E+02  0.41800000000E+01 0. -1.
         -5    1    3    3    0  502 -0.75947540602E+02 -0.17669737291E+02  0.27061237391E+03  0.28165364875E+03  0.41800000000E+01 0. -1.
        -11    1    4    4    0    0  0.27648406450E+02  0.34954326882E+02  0.11399242558E+02  0.46001979065E+02  0.00000000000E+00 0.  1.
         11    1    4    4    0    0  0.22674246433E+02 -0.61023396052E+01  0.12413801574E+03  0.12633925341E+03  0.00000000000E+00 0. -1.
</event>
<event>
 8    1  0.7016814E-009  0.1218958E+03  0.7561462E-02  0.1240002E+00
         -1   -1    0    0    0  501 -0.00000000000E+00  0.00000000000E+00  0.51849881280E+02  0.51849881280E+02  0.00000000000E+00 0.  1.
          1   -1    0    0  501    0  0.00000000000E+00 -0.00000000000E+00 -0.40761504662E+03  0.40761504662E+03  0.00000000000E+00 0. -1.
         25    2    1    2    0    0 -0.64098629740E+02  0.71184745018E+02 -0.18049992824E+03  0.23959015301E+03  0.12508922842E+03 0.  0.
         23    2    1    2    0    0  0.64098629740E+02 -0.71184745018E+02 -0.17526523711E+03  0.21987477490E+03  0.91929924613E+02 0.  0.
          5    1    3    3  502    0  0.90938241245E+01  0.18495476997E+02 -0.13837601136E+03  0.13996489998E+03  0.41800000000E+01 0.  1.
         -5    1    3    3    0  502 -0.73192453864E+02  0.52689268021E+02 -0.42123916871E+02  0.99625253023E+02  0.41800000000E+01 0.  1.
        -11    1    4    4    0    0  0.81272137294E+02 -0.27924055845E+02 -0.12046934923E+03  0.14797897587E+03  0.00000000000E+00 0. -1.
         11    1    4    4    0    0 -0.17173507554E+02 -0.43260689173E+02 -0.54795887872E+02  0.71895799023E+02  0.00000000000E+00 0.  1.
</event>
<event>
 8    1  0.7016814E-009  0.2385277E+03  0.7561462E-02  0.1120778E+00
          2   -1    0    0  501    0  0.00000000000E+00  0.00000000000E+00  0.45526339297E+03  0.45526339297E+03  0.00000000000E+00 0. -1.
         -2   -1    0    0    0  501 -0.00000000000E+00 -0.00000000000E+00 -0.13227489924E+03  0.13227489924E+03  0.00000000000E+00 0.  1.
         25    2    1    2    0    0  0.19298642345E+03 -0.10419811885E+03  0.14023150022E+03  0.28881543601E+03  0.12509386403E+03 0.  0.
         23    2    1    2    0    0 -0.19298642345E+03  0.10419811885E+03  0.18275699351E+03  0.29872285619E+03  0.87944405895E+02 0.  0.
          5    1    3    3  502    0  0.69228706021E+02 -0.10793627629E+03  0.78424069242E+02  0.15036841594E+03  0.41800000000E+01 0. -1.
         -5    1    3    3    0  502  0.12375771742E+03  0.37381574336E+01  0.61807430976E+02  0.13844702007E+03  0.41800000000E+01 0. -1.
        -11    1    4    4    0    0 -0.15554290085E+03  0.10457282143E+03  0.18202500733E+03  0.26127030501E+03  0.00000000000E+00 0.  1.
         11    1    4    4    0    0 -0.37443522592E+02 -0.37470257917E+00  0.73198618093E+00  0.37452551180E+02  0.00000000000E+00 0. -1.
</event>
<event>
 8    1  0.7016814E-009  0.1009432E+03  0.7561462E-02  0.1278325E+00
          1   -1    0    0  501    0  0.00000000000E+00  0.00000000000E+00  0.20039657982E+03  0.20039657982E+03  0.00000000000E+00 0. -1.
         -1   -1    0    0    0  501 -0.00000000000E+00 -0.00000000000E+00 -0.78564431830E+02  0.78564431830E+02  0.00000000000E+00 0.  1.
         25    2    1    2    0    0 -0.23831911217E+01 -0.60890878855E+02  0.79833540713E+02  0.16041844257E+03  0.12508918325E+03 0.  0.
         23    2    1    2    0    0  0.23831911217E+01  0.60890878855E+02  0.41998607273E+02  0.11854256907E+03  0.92601722133E+02 0.  0.
          5    1    3    3  502    0 -0.63566792384E+02 -0.29189522467E+02  0.41993058306E+02  0.81692439440E+02  0.41800000000E+01 0.  1.
         -5    1    3    3    0  502  0.61183601262E+02 -0.31701356388E+02  0.37840482407E+02  0.78726003132E+02  0.41800000000E+01 0.  1.
        -11    1    4    4    0    0  0.86638439141E+01  0.41522226743E+02 -0.24508754537E+02  0.48988126663E+02  0.00000000000E+00 0.  1.
         11    1    4    4    0    0 -0.62806527924E+01  0.19368652112E+02  0.66507361810E+02  0.69554442411E+02  0.00000000000E+00 0. -1.
</event>
<event>
 8    1  0.7016814E-009  0.6309932E+02  0.7561462E-02  0.1385267E+00
         -3   -1    0    0    0  501 -0.00000000000E+00  0.00000000000E+00  0.19221630144E+03  0.19221630144E+03  0.00000000000E+00 0.  1.
          3   -1    0    0  501    0  0.00000000000E+00 -0.00000000000E+00 -0.90086978456E+02  0.90086978456E+02  0.00000000000E+00 0. -1.
         25    2    1    2    0    0 -0.18920761818E+02 -0.55975943596E+02  0.94725272754E+02  0.16766602225E+03  0.12509083192E+03 0.  0.
         23    2    1    2    0    0  0.18920761818E+02  0.55975943596E+02  0.74040502320E+01  0.11463725764E+03  0.97957028289E+02 0.  0.
          5    1    3    3  502    0 -0.25575009926E+02 -0.48832957035E+02  0.12440951020E+03  0.13613940449E+03  0.41800000000E+01 0. -1.
         -5    1    3    3    0  502  0.66542481078E+01 -0.71429865610E+01 -0.29684237448E+02  0.31526617766E+02  0.41800000000E+01 0. -1.
        -11    1    4    4    0    0  0.21527820402E+01  0.24831670891E+02  0.52030811223E+02  0.57692734952E+02  0.00000000000E+00 0.  1.
         11    1    4    4    0    0  0.16767979778E+02  0.31144272705E+02 -0.44626760991E+02  0.56944522693E+02  0.00000000000E+00 0. -1.
</event>
<event>
 8    1  0.7016814E-009  0.7032969E+02  0.7561462E-02  0.1358975E+00
         -2   -1    0    0    0  501 -0.00000000000E+00  0.00000000000E+00  0.15111065735E+03  0.15111065735E+03  0.00000000000E+00 0.  1.
          2   -1    0    0  501    0  0.00000000000E+00 -0.00000000000E+00 -0.87986995372E+02  0.87986995372E+02  0.00000000000E+00 0. -1.
         25    2    1    2    0    0 -0.22701161596E+02  0.17037176111E+02  0.66109903599E+02  0.14430386300E+03  0.12508987735E+03 0.  0.
         23    2    1    2    0    0  0.22701161596E+02 -0.17037176111E+02 -0.29862416210E+01  0.94793789724E+02  0.90395446918E+02 0.  0.
          5    1    3    3  502    0 -0.33469413154E+02  0.39201202628E+02 -0.19386589305E+02  0.55229051677E+02  0.41800000000E+01 0. -1.
         -5    1    3    3    0  502  0.10768251557E+02 -0.22164026517E+02  0.85496492904E+02  0.89074811321E+02  0.41800000000E+01 0. -1.
        -11    1    4    4    0    0 -0.19320657490E+02 -0.83141947899E+01  0.32765568396E+02  0.38935794755E+02  0.00000000000E+00 0.  1.
         11    1    4    4    0    0  0.42021819086E+02 -0.87229813209E+01 -0.35751810017E+02  0.55857994969E+02  0.00000000000E+00 0. -1.
</event>
<event>
 8    1  0.7016814E-009  0.1180959E+03  0.7561462E-02  0.1246272E+00
         -2   -1    0    0    0  501 -0.00000000000E+00  0.00000000000E+00  0.37327665064E+02  0.37327665064E+02  0.00000000000E+00 0.  1.
          2   -1    0    0  501    0  0.00000000000E+00 -0.00000000000E+00 -0.57111276114E+03  0.57111276114E+03  0.00000000000E+00 0. -1.
         25    2    1    2    0    0 -0.38520680313E+02  0.86526035599E+02 -0.24110704412E+03  0.28766441684E+03  0.12509041667E+03 0.  0.
         23    2    1    2    0    0  0.38520680313E+02 -0.86526035599E+02 -0.29267805196E+03  0.32077600937E+03  0.90918691360E+02 0.  0.
          5    1    3    3  502    0  0.71049066266E+01  0.54180380640E+02 -0.22161346138E+03  0.22828927266E+03  0.41800000000E+01 0.  1.
         -5    1    3    3    0  502 -0.45625586940E+02  0.32345654959E+02 -0.19493582730E+02  0.59375144177E+02  0.41800000000E+01 0.  1.
        -11    1    4    4    0    0  0.63130395726E+02 -0.46849856056E+02 -0.22674000687E+03  0.23998205473E+03  0.00000000000E+00 0. -1.
         11    1    4    4    0    0 -0.24609715413E+02 -0.39676179543E+02 -0.65938045095E+02  0.80793954643E+02  0.00000000000E+00 0.  1.
</event>
<event>
 8    1  0.7016814E-009  0.8177985E+02  0.7561462E-02  0.1324075E+00
          1   -1    0    0  501    0  0.00000000000E+00  0.00000000000E+00  0.24425213656E+03  0.24425213656E+03  0.00000000000E+00 0. -1.
         -1   -1    0    0    0  501 -0.00000000000E+00 -0.00000000000E+00 -0.67206859851E+02  0.67206859851E+02  0.00000000000E+00 0.  1.
         25    2    1    2    0    0  0.60347234027E+02  0.17088603969E+02  0.61714430720E+02  0.15293826736E+03  0.12509050173E+03 0.  0.
         23    2    1    2    0    0 -0.60347234027E+02 -0.17088603969E+02  0.11533084599E+03  0.15852072906E+03  0.88847107232E+02 0.  0.
          5    1    3    3  502    0  0.93292940852E+01  0.25353748326E+01 -0.38259290112E+02  0.39682609964E+02  0.41800000000E+01 0. -1.
         -5    1    3    3    0  502  0.51017939942E+02  0.14553229136E+02  0.99973720832E+02  0.11325565739E+03  0.41800000000E+01 0. -1.
        -11    1    4    4    0    0  0.11797584595E+02 -0.24592196542E+02  0.70178493244E+01  0.28163972415E+02  0.00000000000E+00 0.  1.
         11    1    4    4    0    0 -0.72144818622E+02  0.75035925726E+01  0.10831299667E+03  0.13035675664E+03  0.00000000000E+00 0. -1.
</event>
<event>
 8    1  0.7016814E-009  0.1186576E+03  0.7561462E-02  0.1245328E+00
          2   -1    0    0  501    0  0.00000000000E+00  0.00000000000E+00  0.12641311751E+03  0.12641311751E+03  0.00000000000E+00 0. -1.
         -2   -1    0    0    0  501 -0.00000000000E+00 -0.00000000000E+00 -0.17659671645E+03  0.17659671645E+03  0.00000000000E+00 0.  1.
         25    2    1    2    0    0 -0.12124337102E+02  0.88793484324E+02  0.23458539104E+02  0.15565648407E+03  0.12508939031E+03 0.  0.
         23    2    1    2    0    0  0.12124337102E+02 -0.88793484324E+02 -0.73642138050E+02  0.14735334989E+03  0.90876635162E+02 0.  0.
          5    1    3    3  502    0 -0.64275191754E+02  0.51038705350E+02  0.36352726220E+02  0.89862354868E+02  0.41800000000E+01 0.  1.
         -5    1    3    3    0  502  0.52150854652E+02  0.37754778974E+02 -0.12894187117E+02  0.65794129204E+02  0.41800000000E+01 0.  1.
        -11    1    4    4    0    0  0.11686837952E+02 -0.36598677752E+02 -0.85580652656E+02  0.93808813570E+02  0.00000000000E+00 0.  1.
         11    1    4    4    0    0  0.43749915024E+00 -0.52194806572E+02  0.11938514606E+02  0.53544536319E+02  0.00000000000E+00 0. -1.
</event>
<event>
 8    1  0.7016814E-009  0.2714105E+03  0.7561462E-02  0.1100475E+00
          1   -1    0    0  501    0  0.00000000000E+00  0.00000000000E+00  0.11352204973E+04  0.11352204973E+04  0.00000000000E+00 0. -1.
         -1   -1    0    0    0  501 -0.00000000000E+00 -0.00000000000E+00 -0.75331830806E+02  0.75331830806E+02  0.00000000000E+00 0.  1.
         25    2    1    2    0    0 -0.17759731308E+03  0.17759595362E+03  0.32906326406E+03  0.43244785042E+03  0.12508950086E+03 0.  0.
         23    2    1    2    0    0  0.17759731308E+03 -0.17759595362E+03  0.73082540243E+03  0.77810447768E+03  0.90882787121E+02 0.  0.
          5    1    3    3  502    0 -0.93933269012E+02  0.17195395640E+03  0.21663111847E+03  0.29212691769E+03  0.41800000000E+01 0.  1.
         -5    1    3    3    0  502 -0.83664044063E+02  0.56419972251E+01  0.11243214559E+03  0.14032093274E+03  0.41800000000E+01 0.  1.
        -11    1    4    4    0    0  0.11736145086E+03 -0.62478630720E+02  0.30064191478E+03  0.32872914438E+03  0.00000000000E+00 0.  1.
         11    1    4    4    0    0  0.60235862216E+02 -0.11511732290E+03  0.43018348765E+03  0.44937533330E+03  0.00000000000E+00 0. -1.
</event>
<event>
 8    1  0.7016814E-009  0.1114371E+03  0.7561462E-02  0.1257932E+00
          1   -1    0    0  501    0  0.00000000000E+00  0.00000000000E+00  0.99293739821E+02  0.99293739821E+02  0.00000000000E+00 0. -1.
         -1   -1    0    0    0  501 -0.00000000000E+00 -0.00000000000E+00 -0.15816752561E+03  0.15816752561E+03  0.00000000000E+00 0.  1.
         25    2    1    2    0    0  0.94349027270E+01  0.58574141609E+02 -0.52910978675E+02  0.14821127156E+03  0.12508821646E+03 0.  0.
         23    2    1    2    0    0 -0.94349027270E+01 -0.58574141609E+02 -0.59628071136E+01  0.10924999387E+03  0.91542660205E+02 0.  0.
          5    1    3    3  502    0  0.61446041195E+02  0.57167746435E+02 -0.45293225123E+02  0.95460546055E+02  0.41800000000E+01 0. -1.
         -5    1    3    3    0  502 -0.52011138468E+02  0.14063951738E+01 -0.76177535519E+01  0.52750725505E+02  0.41800000000E+01 0. -1.
        -11    1    4    4    0    0 -0.35299236530E+02 -0.21141244535E+02  0.30274514095E+02  0.51083603277E+02  0.00000000000E+00 0.  1.
         11    1    4    4    0    0  0.25864333803E+02 -0.37432897074E+02 -0.36237321209E+02  0.58166390594E+02  0.00000000000E+00 0. -1.
</event>
<event>
 8    1  0.7016814E-009  0.8947571E+02  0.7561462E-02  0.1304126E+00
         -1   -1    0    0    0  501 -0.00000000000E+00  0.00000000000E+00  0.45141939392E+03  0.45141939392E+03  0.00000000000E+00 0.  1.
          1   -1    0    0  501    0  0.00000000000E+00 -0.00000000000E+00 -0.32769835660E+02  0.32769835660E+02  0.00000000000E+00 0. -1.
         25    2    1    2    0    0 -0.53369257743E+01 -0.55782733669E+02  0.24109639339E+03  0.27733667047E+03  0.12509181320E+03 0.  0.
         23    2    1    2    0    0  0.53369257743E+01  0.55782733669E+02  0.17755316487E+03  0.20685255911E+03  0.90125793767E+02 0.  0.
          5    1    3    3  502    0  0.20447939610E+02 -0.22771915105E+02  0.23228354147E+03  0.23432839006E+03  0.41800000000E+01 0. -1.
         -5    1    3    3    0  502 -0.25784865384E+02 -0.33010818564E+02  0.88128519258E+01  0.43008280415E+02  0.41800000000E+01 0. -1.
        -11    1    4    4    0    0  0.21875667744E+02  0.76437433345E+02  0.12816351240E+03  0.15082145724E+03  0.00000000000E+00 0. -1.
         11    1    4    4    0    0 -0.16538741970E+02 -0.20654699676E+02  0.49389652475E+02  0.56031101865E+02  0.00000000000E+00 0.  1.
</event>
<event>
 8    1  0.7016814E-009  0.1773494E+03  0.7561462E-02  0.1170393E+00
         -1   -1    0    0    0  501 -0.00000000000E+00  0.00000000000E+00  0.31081617411E+03  0.31081617411E+03  0.00000000000E+00 0.  1.
          1   -1    0    0  501    0  0.00000000000E+00 -0.00000000000E+00 -0.13831215547E+03  0.13831215547E+03  0.00000000000E+00 0. -1.
         25    2    1    2    0    0 -0.12501292120E+03 -0.12447794723E+03  0.98285947023E+02  0.23755060788E+03  0.12508866499E+03 0.  0.
         23    2    1    2    0    0  0.12501292120E+03  0.12447794723E+03  0.74218071609E+02  0.21157772170E+03  0.90187695126E+02 0.  0.
          5    1    3    3  502    0 -0.11047810496E+03 -0.10745152861E+03  0.12781261984E+03  0.20026178084E+03  0.41800000000E+01 0. -1.
         -5    1    3    3    0  502 -0.14534816241E+02 -0.17026418620E+02 -0.29526672816E+02  0.37288827037E+02  0.41800000000E+01 0. -1.
        -11    1    4    4    0    0  0.49272418355E+02  0.64355842661E+02 -0.12105505992E+02  0.81951137701E+02  0.00000000000E+00 0. -1.
         11    1    4    4    0    0  0.75740502846E+02  0.60122104570E+02  0.86323577601E+02  0.12962658400E+03  0.00000000000E+00 0.  1.
</event>
<event>
 8    1  0.7016814E-009  0.8445637E+02  0.7561462E-02  0.1316860E+00
         -2   -1    0    0    0  501 -0.00000000000E+00  0.00000000000E+00  0.41860779401E+02  0.41860779401E+02  0.00000000000E+00 0.  1.
          2   -1    0    0  501    0  0.00000000000E+00 -0.00000000000E+00 -0.28441230505E+03  0.28441230505E+03  0.00000000000E+00 0. -1.
         25    2    1    2    0    0 -0.46986084152E+01 -0.17081039131E+02 -0.14298281754E+03  0.19080314753E+03  0.12509163112E+03 0.  0.
         23    2    1    2    0    0  0.46986084152E+01  0.17081039131E+02 -0.99568708102E+02  0.13546993692E+03  0.90135106131E+02 0.  0.
          5    1    3    3  502    0  0.55023781614E+02 -0.26083414925E+02 -0.45815539220E+02  0.76318393008E+02  0.41800000000E+01 0. -1.
         -5    1    3    3    0  502 -0.59722390029E+02  0.90023757941E+01 -0.97167278322E+02  0.11448475452E+03  0.41800000000E+01 0. -1.
        -11    1    4    4    0    0 -0.13388752339E+02  0.24392681866E+02  0.57044783228E+01  0.28404272403E+02  0.00000000000E+00 0.  1.
         11    1    4    4    0    0  0.18087360754E+02 -0.73116427346E+01 -0.10527318643E+03  0.10706566452E+03  0.00000000000E+00 0. -1.
</event>
<event>
 8    1  0.7016814E-009  0.1831407E+03  0.7561462E-02  0.1164798E+00
          1   -1    0    0  501    0  0.00000000000E+00  0.00000000000E+00  0.59799485663E+03  0.59799485663E+03  0.00000000000E+00 0. -1.
         -1   -1    0    0    0  501 -0.00000000000E+00 -0.00000000000E+00 -0.63720994243E+02  0.63720994243E+02  0.00000000000E+00 0.  1.
         25    2    1    2    0    0  0.54718412283E+02  0.14397243988E+03  0.36402106780E+03  0.41458583144E+03  0.12509158940E+03 0.  0.
         23    2    1    2    0    0 -0.54718412283E+02 -0.14397243988E+03  0.17025279459E+03  0.24713001944E+03  0.91460725746E+02 0.  0.
          5    1    3    3  502    0  0.49095084279E+02 -0.11349773742E+01  0.13126494017E+03  0.14021259712E+03  0.41800000000E+01 0.  1.
         -5    1    3    3    0  502  0.56233280043E+01  0.14510741725E+03  0.23275612764E+03  0.27437323432E+03  0.41800000000E+01 0.  1.
        -11    1    4    4    0    0  0.12552227857E+02 -0.72458566324E+02  0.10873730648E+03  0.13126920460E+03  0.00000000000E+00 0. -1.
         11    1    4    4    0    0 -0.67270640140E+02 -0.71513873555E+02  0.61515488111E+02  0.11586081483E+03  0.00000000000E+00 0.  1.
</event>
<event>
 8    1  0.7016814E-009  0.1104391E+03  0.7561462E-02  0.1259759E+00
          1   -1    0    0  501    0  0.00000000000E+00  0.00000000000E+00  0.44649435612E+03  0.44649435612E+03  0.00000000000E+00 0. -1.
         -1   -1    0    0    0  501 -0.00000000000E+00 -0.00000000000E+00 -0.51040423959E+02  0.51040423959E+02  0.00000000000E+00 0.  1.
         25    2    1    2    0    0  0.71527202390E+01  0.47289758118E+02  0.36990329631E+03  0.39340054750E+03  0.12509220408E+03 0.  0.
         23    2    1    2    0    0 -0.71527202390E+01 -0.47289758118E+02  0.25550635845E+02  0.10413423257E+03  0.88902310274E+02 0.  0.
          5    1    3    3  502    0  0.15630716342E+02  0.84846656123E+02  0.18081131534E+03  0.20038332890E+03  0.41800000000E+01 0. -1.
         -5    1    3    3    0  502 -0.84779961035E+01 -0.37556898005E+02  0.18909198098E+03  0.19301721860E+03  0.41800000000E+01 0. -1.
        -11    1    4    4    0    0 -0.24501491555E+02  0.16584157182E+02 -0.69581222764E+01  0.30393631298E+02  0.00000000000E+00 0.  1.
         11    1    4    4    0    0  0.17348771316E+02 -0.63873915301E+02  0.32508758122E+02  0.73740601277E+02  0.00000000000E+00 0. -1.
</event>
<event>
 8    1  0.7016814E-009  0.1158144E+03  0.7561462E-02  0.1250166E+00
          2   -1    0    0  501    0  0.00000000000E+00  0.00000000000E+00  0.95730452025E+03  0.95730452025E+03  0.00000000000E+00 0. -1.
         -2   -1    0    0    0  501 -0.00000000000E+00 -0.00000000000E+00 -0.23023620681E+02  0.23023620681E+02  0.00000000000E+00 0.  1.
         25    2    1    2    0    0  0.37817005135E+02 -0.41485355197E+02  0.79204204733E+03  0.80382087838E+03  0.12508492796E+03 0.  0.
         23    2    1    2    0    0 -0.37817005135E+02  0.41485355197E+02  0.14223885224E+03  0.17650726255E+03  0.88157597940E+02 0.  0.
          5    1    3    3  502    0 -0.25344119770E+02  0.25150087958E+02  0.37774841246E+03  0.37945511836E+03  0.41800000000E+01 0.  1.
         -5    1    3    3    0  502  0.63161124905E+02 -0.66635443155E+02  0.41429363487E+03  0.42436576002E+03  0.41800000000E+01 0.  1.
        -11    1    4    4    0    0 -0.28857841215E+02  0.69023377718E+02  0.92674932927E+02  0.11910350484E+03  0.00000000000E+00 0.  1.
         11    1    4    4    0    0 -0.89591639197E+01 -0.27538022521E+02  0.49563919312E+02  0.57403757717E+02  0.00000000000E+00 0. -1.
</event>
<event>
 8    1  0.7016814E-009  0.1123434E+03  0.7561462E-02  0.1256291E+00
          2   -1    0    0  501    0  0.00000000000E+00  0.00000000000E+00  0.51346959408E+03  0.51346959408E+03  0.00000000000E+00 0. -1.
         -2   -1    0    0    0  501 -0.00000000000E+00 -0.00000000000E+00 -0.29927988506E+02  0.29927988506E+02  0.00000000000E+00 0.  1.
         25    2    1    2    0    0  0.49977495209E+02  0.43485718551E+02  0.24860308904E+03  0.28607571787E+03  0.12508821978E+03 0.  0.
         23    2    1    2    0    0 -0.49977495209E+02 -0.43485718551E+02  0.23493851654E+03  0.25732186472E+03  0.81422833197E+02 0.  0.
          5    1    3    3  502    0 -0.36112578819E+02  0.32623778902E+02  0.53150924300E+02  0.72186719366E+02  0.41800000000E+01 0. -1.
         -5    1    3    3    0  502  0.86090074028E+02  0.10861939649E+02  0.19545216474E+03  0.21388899850E+03  0.41800000000E+01 0. -1.
        -11    1    4    4    0    0 -0.50725995491E+02 -0.55543501007E+01  0.19763158699E+03  0.20411325680E+03  0.00000000000E+00 0. -1.
         11    1    4    4    0    0  0.74850028221E+00 -0.37931368451E+02  0.37306929549E+02  0.53208607928E+02  0.00000000000E+00 0.  1.
</event>
<event>
 8    1  0.7016814E-009  0.1025703E+03  0.7561462E-02  0.1274982E+00
          1   -1    0    0  501    0  0.00000000000E+00  0.00000000000E+00  0.14299545747E+04  0.14299545747E+04  0.00000000000E+00 0. -1.
         -1   -1    0    0    0  501 -0.00000000000E+00 -0.00000000000E+00 -0.89698989502E+01  0.89698989502E+01  0.00000000000E+00 0.  1.
         25    2    1    2    0    0  0.33751574750E+02  0.72938099709E+01  0.84085853621E+03  0.85081326992E+03  0.12509106241E+03 0.  0.
         23    2    1    2    0    0 -0.33751574750E+02 -0.72938099709E+01  0.58012613956E+03  0.58811120375E+03  0.90200231225E+02 0.  0.
          5    1    3    3  502    0  0.86580622022E+01  0.54280566355E+02  0.65808658576E+03  0.66039137539E+03  0.41800000000E+01 0. -1.
         -5    1    3    3    0  502  0.25093512548E+02 -0.46986756384E+02  0.18277195045E+03  0.19042189453E+03  0.41800000000E+01 0. -1.
        -11    1    4    4    0    0 -0.64749084759E+02 -0.97936525281E+01  0.39279694195E+03  0.39821827835E+03  0.00000000000E+00 0.  1.
         11    1    4    4    0    0  0.30997510009E+02  0.24998425572E+01  0.18732919761E+03  0.18989292540E+03  0.00000000000E+00 0. -1.
</event>
<event>
 8    1  0.7016814E-009  0.1359000E+03  0.7561462E-02  0.1218955E+00
         -1   -1    0    0    0  501 -0.00000000000E+00  0.00000000000E+00  0.15114361625E+03  0.15114361625E+03  0.00000000000E+00 0.  1.
          1   -1    0    0  501    0  0.00000000000E+00 -0.00000000000E+00 -0.14187950089E+03  0.14187950089E+03  0.00000000000E+00 0. -1.
         25    2    1    2    0    0 -0.33760778100E+02 -0.91871748146E+02 -0.15013886035E+00  0.15883119986E+03  0.12508844575E+03 0.  0.
         23    2    1    2    0    0  0.33760778100E+02  0.91871748146E+02  0.94142542197E+01  0.13419191729E+03  0.91316122557E+02 0.  0.
          5    1    3    3  502    0 -0.23717535780E+02 -0.11650669876E+03  0.25465031317E+02  0.12166459049E+03  0.41800000000E+01 0.  1.
         -5    1    3    3    0  502 -0.10043242320E+02  0.24634950618E+02 -0.25615170177E+02  0.37166609362E+02  0.41800000000E+01 0.  1.
        -11    1    4    4    0    0 -0.10805343441E+01  0.91042681440E+02 -0.14121863418E+02  0.92137747013E+02  0.00000000000E+00 0. -1.
         11    1    4    4    0    0  0.34841312444E+02  0.82906670564E+00  0.23536117637E+02  0.42054170279E+02  0.00000000000E+00 0.  1.
</event>
<event>
 8    1  0.7016814E-009  0.8292247E+02  0.7561462E-02  0.1320957E+00
          2   -1    0    0  501    0  0.00000000000E+00  0.00000000000E+00  0.11179690043E+04  0.11179690043E+04  0.00000000000E+00 0. -1.
         -2   -1    0    0    0  501 -0.00000000000E+00 -0.00000000000E+00 -0.14893396622E+02  0.14893396622E+02  0.00000000000E+00 0.  1.
         25    2    1    2    0    0 -0.12670266786E+02 -0.42580089771E+02  0.87774936253E+03  0.88773024805E+03  0.12508976850E+03 0.  0.
         23    2    1    2    0    0  0.12670266786E+02  0.42580089771E+02  0.22532624511E+03  0.24513215283E+03  0.85698634237E+02 0.  0.
          5    1    3    3  502    0 -0.43267227783E+02 -0.58097670620E+02  0.79142992194E+03  0.79474913405E+03  0.41800000000E+01 0. -1.
         -5    1    3    3    0  502  0.30596960998E+02  0.15517580849E+02  0.86319440589E+02  0.92981114004E+02  0.41800000000E+01 0. -1.
        -11    1    4    4    0    0 -0.73252184211E+01  0.37343320217E+02  0.22069224058E+03  0.22394920728E+03  0.00000000000E+00 0. -1.
         11    1    4    4    0    0  0.19995485207E+02  0.52367695543E+01  0.46340045269E+01  0.21182945545E+02  0.00000000000E+00 0.  1.
</event>
<event>
 8    1  0.7016814E-009  0.6961979E+02  0.7561462E-02  0.1361391E+00
         -4   -1    0    0    0  501 -0.00000000000E+00  0.00000000000E+00  0.69870160524E+02  0.69870160524E+02  0.00000000000E+00 0.  1.
          4   -1    0    0  501    0  0.00000000000E+00 -0.00000000000E+00 -0.23814760816E+03  0.23814760816E+03  0.00000000000E+00 0. -1.
         25    2    1    2    0    0 -0.44538698223E+02 -0.26124794987E+01 -0.15190808940E+03  0.20177597721E+03  0.12508779584E+03 0.  0.
         23    2    1    2    0    0  0.44538698223E+02  0.26124794987E+01 -0.16369358235E+02  0.10624179147E+03  0.95020217199E+02 0.  0.
          5    1    3    3  502    0  0.11029085895E+02 -0.11996391001E+02  0.16848373456E+02  0.23809540542E+02  0.41800000000E+01 0.  1.
         -5    1    3    3    0  502 -0.55567784118E+02  0.93839115020E+01 -0.16875646285E+03  0.17796643667E+03  0.41800000000E+01 0.  1.
        -11    1    4    4    0    0  0.19181897885E+02 -0.22943568084E+02  0.33389994656E+02  0.44824594432E+02  0.00000000000E+00 0.  1.
         11    1    4    4    0    0  0.25356800338E+02  0.25556047582E+02 -0.49759352891E+02  0.61417197034E+02  0.00000000000E+00 0. -1.
</event>
<event>
 8    1  0.7016814E-009  0.1334557E+03  0.7561462E-02  0.1222416E+00
         -1   -1    0    0    0  501 -0.00000000000E+00  0.00000000000E+00  0.93454226505E+02  0.93454226505E+02  0.00000000000E+00 0.  1.
          1   -1    0    0  501    0  0.00000000000E+00 -0.00000000000E+00 -0.25099412490E+03  0.25099412490E+03  0.00000000000E+00 0. -1.
         25    2    1    2    0    0 -0.13056928218E+02 -0.10990458738E+03 -0.10071577431E+03  0.19504085372E+03  0.12509102974E+03 0.  0.
         23    2    1    2    0    0  0.13056928218E+02  0.10990458738E+03 -0.56824124088E+02  0.14940749769E+03  0.82729182198E+02 0.  0.
          5    1    3    3  502    0  0.16930785798E+02  0.16483484170E+02 -0.50133042727E+02  0.55580132522E+02  0.41800000000E+01 0. -1.
         -5    1    3    3    0  502 -0.29987714016E+02 -0.12638807155E+03 -0.50582731585E+02  0.13946072119E+03  0.41800000000E+01 0. -1.
        -11    1    4    4    0    0  0.35313677741E+00  0.84931670798E+02  0.12348737759E+01  0.84941381690E+02  0.00000000000E+00 0.  1.
         11    1    4    4    0    0  0.12703791440E+02  0.24972916579E+02 -0.58058997864E+02  0.64466116002E+02  0.00000000000E+00 0. -1.
</event>
<event>
 8    1  0.7016814E-009  0.1125502E+03  0.7561462E-02  0.1255919E+00
          1   -1    0    0  501    0  0.00000000000E+00  0.00000000000E+00  0.96622880356E+03  0.96622880356E+03  0.00000000000E+00 0. -1.
         -1   -1    0    0    0  501 -0.00000000000E+00 -0.00000000000E+00 -0.13803566749E+02  0.13803566749E+02  0.00000000000E+00 0.  1.
         25    2    1    2    0    0  0.11343714825E+02 -0.32492273102E+02  0.43821199648E+03  0.45701360998E+03  0.12508900101E+03 0.  0.
         23    2    1    2    0    0 -0.11343714825E+02  0.32492273102E+02  0.51421324033E+03  0.52301876033E+03  0.89156825005E+02 0.  0.
          5    1    3    3  502    0 -0.41544298875E+02  0.27114393050E+02  0.15763578867E+03  0.16531071759E+03  0.41800000000E+01 0.  1.
         -5    1    3    3    0  502  0.52888013700E+02 -0.59606666152E+02  0.28057620780E+03  0.29170289239E+03  0.41800000000E+01 0.  1.
        -11    1    4    4    0    0  0.38892985834E+02  0.20079494327E+02  0.22716773478E+03  0.23134612632E+03  0.00000000000E+00 0.  1.
         11    1    4    4    0    0 -0.50236700658E+02  0.12412778775E+02  0.28704550555E+03  0.29167263401E+03  0.00000000000E+00 0. -1.
</event>
<event>
 8    1  0.7016814E-009  0.1060231E+03  0.7561462E-02  0.1268117E+00
         -3   -1    0    0    0  501 -0.00000000000E+00  0.00000000000E+00  0.23651385987E+03  0.23651385987E+03  0.00000000000E+00 0.  1.
          3   -1    0    0  501    0  0.00000000000E+00 -0.00000000000E+00 -0.62888568710E+02  0.62888568710E+02  0.00000000000E+00 0. -1.
         25    2    1    2    0    0  0.26529114129E+01 -0.16074131382E+02  0.16405661156E+03  0.20694877556E+03  0.12509119981E+03 0.  0.
         23    2    1    2    0    0 -0.26529114129E+01  0.16074131382E+02  0.95686796040E+01  0.92453653024E+02  0.90502501012E+02 0.  0.
          5    1    3    3  502    0  0.28915412131E+02 -0.61140186873E+02  0.12302640521E+03  0.14045352359E+03  0.41800000000E+01 0.  1.
         -5    1    3    3    0  502 -0.26262500718E+02  0.45066055491E+02  0.41030206349E+02  0.66495251970E+02  0.41800000000E+01 0.  1.
        -11    1    4    4    0    0  0.43318486032E+02  0.15418840827E+02  0.46645632385E+01  0.46216772224E+02  0.00000000000E+00 0.  1.
         11    1    4    4    0    0 -0.45971397445E+02  0.65529055583E+00  0.49041163655E+01  0.46236880800E+02  0.00000000000E+00 0. -1.
</event>
<event>
 8    1  0.7016814E-009  0.1116441E+03  0.7561462E-02  0.1257555E+00
         -2   -1    0    0    0  501 -0.00000000000E+00  0.00000000000E+00  0.18262381133E+03  0.18262381133E+03  0.00000000000E+00 0.  1.
          2   -1    0    0  501    0  0.00000000000E+00 -0.00000000000E+00 -0.94186343000E+02  0.94186343000E+02  0.00000000000E+00 0. -1.
         25    2    1    2    0    0  0.44774534838E+02  0.54694497720E+02  0.25952004636E+02  0.14600443430E+03  0.12509013247E+03 0.  0.
         23    2    1    2    0    0 -0.44774534838E+02 -0.54694497720E+02  0.62485463691E+02  0.13080572003E+03  0.90606049290E+02 0.  0.
          5    1    3    3  502    0  0.88158295304E+02  0.44776578935E+02  0.18835127665E+02  0.10074255052E+03  0.41800000000E+01 0.  1.
         -5    1    3    3    0  502 -0.43383760466E+02  0.99179187851E+01  0.71168769718E+01  0.45261883777E+02  0.41800000000E+01 0.  1.
        -11    1    4    4    0    0 -0.16176847243E+02 -0.47436423091E+02  0.81519846778E+02  0.95694252916E+02  0.00000000000E+00 0.  1.
         11    1    4    4    0    0 -0.28597687595E+02 -0.72580746297E+01 -0.19034383087E+02  0.35111467110E+02  0.00000000000E+00 0. -1.
</event>
<event>
 8    1  0.7016814E-009  0.8697853E+02  0.7561462E-02  0.1310338E+00
         -3   -1    0    0    0  501 -0.00000000000E+00  0.00000000000E+00  0.85696859171E+03  0.85696859171E+03  0.00000000000E+00 0.  1.
          3   -1    0    0  501    0  0.00000000000E+00 -0.00000000000E+00 -0.14109269580E+02  0.14109269580E+02  0.00000000000E+00 0. -1.
         25    2    1    2    0    0 -0.12909938435E+02  0.40246224683E+01  0.42503501588E+03  0.44326988557E+03  0.12510220873E+03 0.  0.
         23    2    1    2    0    0  0.12909938435E+02 -0.40246224683E+01  0.41782430624E+03  0.42780797572E+03  0.90882611669E+02 0.  0.
          5    1    3    3  502    0  0.27840398890E+01 -0.38231918573E+02  0.39916664463E+02  0.55499936737E+02  0.41800000000E+01 0.  1.
         -5    1    3    3    0  502 -0.15693978324E+02  0.42256541042E+02  0.38511835142E+03  0.38776994883E+03  0.41800000000E+01 0.  1.
        -11    1    4    4    0    0 -0.19930261681E+02  0.34291504480E+02  0.14348495494E+03  0.14886589571E+03  0.00000000000E+00 0.  1.
         11    1    4    4    0    0  0.32840200116E+02 -0.38316126948E+02  0.27433935130E+03  0.27894208001E+03  0.00000000000E+00 0. -1.
</event>
<event>
 8    1  0.7016814E-009  0.1691552E+03  0.7561462E-02  0.1178732E+00
         -2   -1    0    0    0  501 -0.00000000000E+00  0.00000000000E+00  0.45190745679E+02  0.45190745679E+02  0.00000000000E+00 0.  1.
          2   -1    0    0  501    0  0.00000000000E+00 -0.00000000000E+00 -0.77007657575E+03  0.77007657575E+03  0.00000000000E+00 0. -1.
         25    2    1    2    0    0  0.13709268838E+03  0.59745695468E+02 -0.32246984999E+03  0.37682658411E+03  0.12509003561E+03 0.  0.
         23    2    1    2    0    0 -0.13709268838E+03 -0.59745695468E+02 -0.40241598008E+03  0.43844073731E+03  0.89037664945E+02 0.  0.
          5    1    3    3  502    0  0.15546955054E+03  0.46875483965E+02 -0.31192715997E+03  0.35168752845E+03  0.41800000000E+01 0. -1.
         -5    1    3    3    0  502 -0.18376862158E+02  0.12870211503E+02 -0.10542690024E+02  0.25139055667E+02  0.41800000000E+01 0. -1.
        -11    1    4    4    0    0 -0.92777730055E+02 -0.23256955852E+02 -0.34191050902E+03  0.35503716618E+03  0.00000000000E+00 0. -1.
         11    1    4    4    0    0 -0.44314958323E+02 -0.36488739616E+02 -0.60505471060E+02  0.83403571136E+02  0.00000000000E+00 0.  1.
</event>
<event>
 8    1  0.7016814E-009  0.1291095E+03  0.7561462E-02  0.1228783E+00
         -1   -1    0    0    0  501 -0.00000000000E+00  0.00000000000E+00  0.83418424630E+02  0.83418424630E+02  0.00000000000E+00 0.  1.
          1   -1    0    0  501    0  0.00000000000E+00 -0.00000000000E+00 -0.25536927043E+03  0.25536927043E+03  0.00000000000E+00 0. -1.
         25    2    1    2    0    0  0.92705035307E+02  0.20331045357E+02 -0.11558181199E+03  0.19496989423E+03  0.12508608802E+03 0.  0.
         23    2    1    2    0    0 -0.92705035307E+02 -0.20331045357E+02 -0.56369033809E+02  0.14381780083E+03  0.92187400904E+02 0.  0.
          5    1    3    3  502    0  0.79162896468E+02  0.49750686222E+02 -0.22404265415E+02  0.96235744220E+02  0.41800000000E+01 0. -1.
         -5    1    3    3    0  502  0.13542138839E+02 -0.29419640865E+02 -0.93177546573E+02  0.98734150011E+02  0.41800000000E+01 0. -1.
        -11    1    4    4    0    0 -0.23521452460E+02 -0.51100888805E+02 -0.18963886873E+02  0.59364876551E+02  0.00000000000E+00 0.  1.
         11    1    4    4    0    0 -0.69183582847E+02  0.30769843449E+02 -0.37405146936E+02  0.84452924276E+02  0.00000000000E+00 0. -1.
</event>
<event>
 8    1  0.7016814E-009  0.2143769E+03  0.7561462E-02  0.1138146E+00
          1   -1    0    0  501    0  0.00000000000E+00  0.00000000000E+00  0.27543963127E+03  0.27543963127E+03  0.00000000000E+00 0. -1.
         -1   -1    0    0    0  501 -0.00000000000E+00 -0.00000000000E+00 -0.19664189705E+03  0.19664189705E+03  0.00000000000E+00 0.  1.
         25    2    1    2    0    0  0.19429392534E+03  0.37253253737E+02  0.10226051107E+03  0.25542741649E+03  0.12509204064E+03 0.  0.
         23    2    1    2    0    0 -0.19429392534E+03 -0.37253253737E+02 -0.23462776853E+02  0.21665411183E+03  0.85150266799E+02 0.  0.
          5    1    3    3  502    0  0.47183797282E+02 -0.42131587877E+02  0.48379213032E+02  0.79745859307E+02  0.41800000000E+01 0.  1.
         -5    1    3    3    0  502  0.14711012806E+03  0.79384841614E+02  0.53881298040E+02  0.17568155718E+03  0.41800000000E+01 0.  1.
        -11    1    4    4    0    0 -0.62330812349E+02 -0.17252060909E+02  0.31952807068E+02  0.72136992266E+02  0.00000000000E+00 0. -1.
         11    1    4    4    0    0 -0.13196311299E+03 -0.20001192828E+02 -0.55415583921E+02  0.14451711956E+03  0.00000000000E+00 0.  1.
</event>
<event>
 8    1  0.7016814E-009  0.8239250E+02  0.7561462E-02  0.1322396E+00
         -2   -1    0    0    0  501 -0.00000000000E+00  0.00000000000E+00  0.11463432364E+02  0.11463432364E+02  0.00000000000E+00 0.  1.
          2   -1    0    0  501    0  0.00000000000E+00 -0.00000000000E+00 -0.10901113591E+04  0.10901113591E+04  0.00000000000E+00 0. -1.
         25    2    1    2    0    0  0.24132420798E+02  0.13168459035E+02 -0.74525408793E+03  0.75617907267E+03  0.12508937732E+03 0.  0.
         23    2    1    2    0    0 -0.24132420798E+02 -0.13168459035E+02 -0.33339383882E+03  0.34539571881E+03  0.85970743642E+02 0.  0.
          5    1    3    3  502    0  0.22086009537E+02 -0.29170216116E+02 -0.65904177219E+02  0.75495207135E+02  0.41800000000E+01 0.  1.
         -5    1    3    3    0  502  0.20464112609E+01  0.42338675152E+02 -0.67934991071E+03  0.68068386553E+03  0.41800000000E+01 0.  1.
        -11    1    4    4    0    0 -0.36632394810E+02 -0.40924097831E+02 -0.15547153042E+03  0.16488817696E+03  0.00000000000E+00 0.  1.
         11    1    4    4    0    0  0.12499974012E+02  0.27755638796E+02 -0.17792230840E+03  0.18050754184E+03  0.00000000000E+00 0. -1.
</event>
<event>
 8    1  0.7016814E-009  0.8521399E+02  0.7561462E-02  0.1314874E+00
         -2   -1    0    0    0  501 -0.00000000000E+00  0.00000000000E+00  0.72267532891E+03  0.72267532891E+03  0.00000000000E+00 0.  1.
          2   -1    0    0  501    0  0.00000000000E+00 -0.00000000000E+00 -0.26016708656E+02  0.26016708656E+02  0.00000000000E+00 0. -1.
         25    2    1    2    0    0 -0.27242744539E+02  0.78921305199E+02  0.36981635862E+03  0.39922361200E+03  0.12507843032E+03 0.  0.
         23    2    1    2    0    0  0.27242744539E+02 -0.78921305199E+02  0.32684226163E+03  0.34946842556E+03  0.91277472205E+02 0.  0.
          5    1    3    3  502    0 -0.17677244633E+02  0.20517578184E+02  0.29165370255E+01  0.27557840637E+02  0.41800000000E+01 0.  1.
         -5    1    3    3    0  502 -0.95654999062E+01  0.58403727014E+02  0.36689982159E+03  0.37166577136E+03  0.41800000000E+01 0.  1.
        -11    1    4    4    0    0  0.18077003137E+02 -0.60123052017E+02  0.32191787397E+03  0.32798273889E+03  0.00000000000E+00 0.  1.
         11    1    4    4    0    0  0.91657414023E+01 -0.18798253182E+02  0.49243876638E+01  0.21485686678E+02  0.00000000000E+00 0. -1.
</event>
<event>
 8    1  0.7016814E-009  0.1083380E+03  0.7561462E-02  0.1263679E+00
         -1   -1    0    0    0  501 -0.00000000000E+00  0.00000000000E+00  0.64029104145E+02  0.64029104145E+02  0.00000000000E+00 0.  1.
          1   -1    0    0  501    0  0.00000000000E+00 -0.00000000000E+00 -0.31940286559E+03  0.31940286559E+03  0.00000000000E+00 0. -1.
         25    2    1    2    0    0  0.41724573467E+02  0.69508695354E+02 -0.19909116251E+03  0.24871088080E+03  0.12508961779E+03 0.  0.
         23    2    1    2    0    0 -0.41724573467E+02 -0.69508695354E+02 -0.56282598930E+02  0.13472108893E+03  0.91704100775E+02 0.  0.
          5    1    3    3  502    0  0.64814179983E+02  0.85342950977E+02 -0.19136453256E+03  0.21936762279E+03  0.41800000000E+01 0. -1.
         -5    1    3    3    0  502 -0.23089606516E+02 -0.15834255622E+02 -0.77266299518E+01  0.29343258010E+02  0.41800000000E+01 0. -1.
        -11    1    4    4    0    0 -0.10246226462E+02 -0.14734863447E+02  0.25622423307E+02  0.31282741786E+02  0.00000000000E+00 0.  1.
         11    1    4    4    0    0 -0.31478347005E+02 -0.54773831907E+02 -0.81905022238E+02  0.10343834714E+03  0.00000000000E+00 0. -1.
</event>
<event>
 8    1  0.7016814E-009  0.1206215E+03  0.7561462E-02  0.1242075E+00
         -2   -1    0    0    0  501 -0.00000000000E+00  0.00000000000E+00  0.99229809427E+02  0.99229809427E+02  0.00000000000E+00 0.  1.
          2   -1    0    0  501    0  0.00000000000E+00 -0.00000000000E+00 -0.16548991783E+03  0.16548991783E+03  0.00000000000E+00 0. -1.
         25    2    1    2    0    0 -0.50663514229E+02 -0.23924118030E+02 -0.72679619450E+02  0.15513965293E+03  0.12508728844E+03 0.  0.
         23    2    1    2    0    0  0.50663514229E+02  0.23924118030E+02  0.64195110490E+01  0.10958007433E+03  0.93954390369E+02 0.  0.
          5    1    3    3  502    0 -0.72498978217E+02 -0.60114705107E+02 -0.45171972941E+02  0.10453640109E+03  0.41800000000E+01 0.  1.
         -5    1    3    3    0  502  0.21835463989E+02  0.36190587077E+02 -0.27507646509E+02  0.50603251843E+02  0.41800000000E+01 0.  1.
        -11    1    4    4    0    0 -0.25275247857E+02  0.10551642541E+02  0.16252606298E+02  0.31848430512E+02  0.00000000000E+00 0.  1.
         11    1    4    4    0    0  0.75938762086E+02  0.13372475489E+02 -0.98330952494E+01  0.77731643814E+02  0.00000000000E+00 0. -1.
</event>
<event>
 8    1  0.7016814E-009  0.1023028E+03  0.7561462E-02  0.1275527E+00
         -1   -1    0    0    0  501 -0.00000000000E+00  0.00000000000E+00  0.38267934537E+02  0.38267934537E+02  0.00000000000E+00 0.  1.
          1   -1    0    0  501    0  0.00000000000E+00 -0.00000000000E+00 -0.38303382003E+03  0.38303382003E+03  0.00000000000E+00 0. -1.
         25    2    1    2    0    0  0.34240407094E+02  0.28174993778E+02 -0.14693063177E+03  0.19799544168E+03  0.12508936255E+03 0.  0.
         23    2    1    2    0    0 -0.34240407094E+02 -0.28174993778E+02 -0.19783525373E+03  0.22330631289E+03  0.93598536343E+02 0.  0.
          5    1    3    3  502    0  0.43489838754E+02  0.64700107899E+02 -0.13876172188E+03  0.15921607299E+03  0.41800000000E+01 0. -1.
         -5    1    3    3    0  502 -0.92494316606E+01 -0.36525114121E+02 -0.81689098820E+01  0.38779368694E+02  0.41800000000E+01 0. -1.
        -11    1    4    4    0    0  0.12326744399E+02  0.18800338783E+02 -0.11562343541E+03  0.11778870991E+03  0.00000000000E+00 0. -1.
         11    1    4    4    0    0 -0.46567151493E+02 -0.46975332561E+02 -0.82211818319E+02  0.10551760298E+03  0.00000000000E+00 0.  1.
</event>
<event>
 8    1  0.7016814E-009  0.4037400E+03  0.7561462E-02  0.1042492E+00
          2   -1    0    0  501    0  0.00000000000E+00  0.00000000000E+00  0.78237420086E+03  0.78237420086E+03  0.00000000000E+00 0. -1.
         -2   -1    0    0    0  501 -0.00000000000E+00 -0.00000000000E+00 -0.29089074584E+03  0.29089074584E+03  0.00000000000E+00 0.  1.
         25    2    1    2    0    0 -0.38973603039E+03  0.44626015097E+02 -0.31416906278E+02  0.41294208230E+03  0.12509391163E+03 0.  0.
         23    2    1    2    0    0  0.38973603039E+03 -0.44626015097E+02  0.52290036130E+03  0.66032286440E+03  0.93358678147E+02 0.  0.
          5    1    3    3  502    0 -0.33344015420E+03  0.78824998979E+02 -0.74931836646E+01  0.34273800067E+03  0.41800000000E+01 0.  1.
         -5    1    3    3    0  502 -0.56295876187E+02 -0.34198983883E+02 -0.23923722613E+02  0.70204081633E+02  0.41800000000E+01 0.  1.
        -11    1    4    4    0    0  0.13574464089E+03 -0.50307891519E+02  0.23827557614E+03  0.27880592114E+03  0.00000000000E+00 0.  1.
         11    1    4    4    0    0  0.25399138950E+03  0.56818764222E+01  0.28462478516E+03  0.38151694325E+03  0.00000000000E+00 0. -1.
</event>
<event>
 8    1  0.7016814E-009  0.2378969E+03  0.7561462E-02  0.1121202E+00
         -1   -1    0    0    0  501 -0.00000000000E+00  0.00000000000E+00  0.39246776253E+02  0.39246776253E+02  0.00000000000E+00 0.  1.
          1   -1    0    0  501    0  0.00000000000E+00 -0.00000000000E+00 -0.18055428629E+04  0.18055428629E+04  0.00000000000E+00 0. -1.
         25    2    1    2    0    0  0.23074528522E+03  0.73974023190E+01 -0.11631363163E+04  0.11924056864E+04  0.12508845818E+03 0.  0.
         23    2    1    2    0    0 -0.23074528522E+03 -0.73974023190E+01 -0.60315977035E+03  0.65238395279E+03  0.92222584428E+02 0.  0.
          5    1    3    3  502    0  0.19766685815E+03  0.12115479542E+02 -0.68445160005E+03  0.71253802486E+03  0.41800000000E+01 0. -1.
         -5    1    3    3    0  502  0.33078427061E+02 -0.47180772233E+01 -0.47868471625E+03  0.47986766151E+03  0.41800000000E+01 0. -1.
        -11    1    4    4    0    0 -0.90376724383E+02  0.35745710205E+02 -0.30340697040E+03  0.31859299709E+03  0.00000000000E+00 0.  1.
         11    1    4    4    0    0 -0.14036856083E+03 -0.43143112524E+02 -0.29975279996E+03  0.33379095570E+03  0.00000000000E+00 0. -1.
</event>
<event>
 8    1  0.7016814E-009  0.1092510E+03  0.7561462E-02  0.1261963E+00
         -2   -1    0    0    0  501 -0.00000000000E+00  0.00000000000E+00  0.33692421970E+02  0.33692421970E+02  0.00000000000E+00 0.  1.
          2   -1    0    0  501    0  0.00000000000E+00 -0.00000000000E+00 -0.72546142622E+03  0.72546142622E+03  0.00000000000E+00 0. -1.
         25    2    1    2    0    0  0.10334572463E+02  0.57300617053E+02 -0.60291705774E+03  0.61850356699E+03  0.12509004663E+03 0.  0.
         23    2    1    2    0    0 -0.10334572463E+02 -0.57300617053E+02 -0.88851946513E+02  0.14065028120E+03  0.92182802626E+02 0.  0.
          5    1    3    3  502    0  0.50564108282E+02  0.16367774236E+02 -0.10998925732E+03  0.12222823817E+03  0.41800000000E+01 0.  1.
         -5    1    3    3    0  502 -0.40229535819E+02  0.40932842817E+02 -0.49292780042E+03  0.49627532882E+03  0.41800000000E+01 0.  1.
        -11    1    4    4    0    0 -0.21684677527E+02 -0.79666526692E+02 -0.77046267354E+02  0.11292965965E+03  0.00000000000E+00 0. -1.
         11    1    4    4    0    0  0.11350105064E+02  0.22365909639E+02 -0.11805679159E+02  0.27720621554E+02  0.00000000000E+00 0.  1.
</event>
<event>
 8    1  0.7016814E-009  0.1134010E+03  0.7561462E-02  0.1254398E+00
         -2   -1    0    0    0  501 -0.00000000000E+00  0.00000000000E+00  0.25389543112E+03  0.25389543112E+03  0.00000000000E+00 0.  1.
          2   -1    0    0  501    0  0.00000000000E+00 -0.00000000000E+00 -0.67272521597E+02  0.67272521597E+02  0.00000000000E+00 0. -1.
         25    2    1    2    0    0 -0.64864241840E+02  0.21446626973E+02  0.73859447148E+02  0.16053079127E+03  0.12509032471E+03 0.  0.
         23    2    1    2    0    0  0.64864241840E+02 -0.21446626973E+02  0.11276346238E+03  0.16063716145E+03  0.91768030994E+02 0.  0.
          5    1    3    3  502    0  0.30567677708E+02  0.32468778631E+02  0.12637113873E+02  0.46537872247E+02  0.41800000000E+01 0.  1.
         -5    1    3    3    0  502 -0.95431919549E+02 -0.11022151658E+02  0.61222333276E+02  0.11399291902E+03  0.41800000000E+01 0.  1.
        -11    1    4    4    0    0 -0.32879793385E+01 -0.17264926249E+02  0.85215508977E+02  0.87009030892E+02  0.00000000000E+00 0.  1.
         11    1    4    4    0    0  0.68152221179E+02 -0.41817007246E+01  0.27547953400E+02  0.73628130555E+02  0.00000000000E+00 0. -1.
</event>
<event>
 8    1  0.7016814E-009  0.2420668E+03  0.7561462E-02  0.1118424E+00
         -1   -1    0    0    0  501 -0.00000000000E+00  0.00000000000E+00  0.45697562960E+03  0.45697562960E+03  0.00000000000E+00 0. -1.
          1   -1    0    0  501    0  0.00000000000E+00 -0.00000000000E+00 -0.37326555945E+03  0.37326555945E+03  0.00000000000E+00 0.  1.
         25    2    1    2    0    0 -0.15774584535E+03  0.15947365449E+03 -0.28831332179E+03  0.38611888981E+03  0.12509047663E+03 0.  0.
         23    2    1    2    0    0  0.15774584535E+03 -0.15947365449E+03  0.37202339194E+03  0.44412229924E+03  0.92345082851E+02 0.  0.
          5    1    3    3  502    0 -0.99214180033E+02  0.16409772128E+03 -0.18100607275E+03  0.26372748515E+03  0.41800000000E+01 0.  1.
         -5    1    3    3    0  502 -0.58531665320E+02 -0.46240667892E+01 -0.10730724904E+03  0.12239140467E+03  0.41800000000E+01 0.  1.
        -11    1    4    4    0    0  0.92242329732E+02 -0.47533577532E+02  0.10693779877E+03  0.14900933257E+03  0.00000000000E+00 0.  1.
         11    1    4    4    0    0  0.65503515621E+02 -0.11194007696E+03  0.26508559318E+03  0.29511296667E+03  0.00000000000E+00 0. -1.
</event>
<event>
 8    1  0.7016814E-009  0.1722151E+03  0.7561462E-02  0.1175557E+00
          1   -1    0    0  501    0  0.00000000000E+00  0.00000000000E+00  0.28216782326E+03  0.28216782326E+03  0.00000000000E+00 0. -1.
         -1   -1    0    0    0  501 -0.00000000000E+00 -0.00000000000E+00 -0.14795154365E+03  0.14795154365E+03  0.00000000000E+00 0.  1.
         25    2    1    2    0    0 -0.89243157966E+02  0.12423634947E+03  0.15192057248E+03  0.24924962395E+03  0.12508598211E+03 0.  0.
         23    2    1    2    0    0  0.89243157966E+02 -0.12423634947E+03 -0.17704292871E+02  0.18086974296E+03  0.94875761710E+02 0.  0.
          5    1    3    3  502    0  0.78605427088E+01  0.86880448386E+02  0.38995561633E+02  0.95645839797E+02  0.41800000000E+01 0. -1.
         -5    1    3    3    0  502 -0.97103700674E+02  0.37355901087E+02  0.11292501084E+03  0.15360378415E+03  0.41800000000E+01 0. -1.
        -11    1    4    4    0    0  0.43456375052E+02 -0.61200067031E+02  0.38926020145E+02  0.84552585895E+02  0.00000000000E+00 0. -1.
         11    1    4    4    0    0  0.45786782914E+02 -0.63036282442E+02 -0.56630313016E+02  0.96317157070E+02  0.00000000000E+00 0.  1.
</event>
<event>
 8    1  0.7016814E-009  0.1421860E+03  0.7561462E-02  0.1210417E+00
         -2   -1    0    0    0  501 -0.00000000000E+00  0.00000000000E+00  0.17862987743E+03  0.17862987743E+03  0.00000000000E+00 0.  1.
          2   -1    0    0  501    0  0.00000000000E+00 -0.00000000000E+00 -0.13945729581E+03  0.13945729581E+03  0.00000000000E+00 0. -1.
         25    2    1    2    0    0 -0.26724938668E+02  0.89171362053E+02 -0.46548602700E+02  0.16272577354E+03  0.12508857184E+03 0.  0.
         23    2    1    2    0    0  0.26724938668E+02 -0.89171362053E+02  0.85721184315E+02  0.15536139970E+03  0.90129290015E+02 0.  0.
          5    1    3    3  502    0  0.39978921664E+02 -0.43851610558E+01 -0.63885624475E+01  0.40936901996E+02  0.41800000000E+01 0.  1.
         -5    1    3    3    0  502 -0.66703860332E+02  0.93556523109E+02 -0.40160040253E+02  0.12178887155E+03  0.41800000000E+01 0.  1.
        -11    1    4    4    0    0  0.52086638276E+02 -0.89548508770E+02  0.74631558433E+02  0.12767859188E+03  0.00000000000E+00 0.  1.
         11    1    4    4    0    0 -0.25361699608E+02  0.37714671643E+00  0.11089625882E+02  0.27682807821E+02  0.00000000000E+00 0. -1.
</event>
<event>
 8    1  0.7016814E-009  0.2660036E+03  0.7561462E-02  0.1103589E+00
         -2   -1    0    0    0  501 -0.00000000000E+00  0.00000000000E+00  0.31273326682E+02  0.31273326682E+02  0.00000000000E+00 0.  1.
          2   -1    0    0  501    0  0.00000000000E+00 -0.00000000000E+00 -0.23634138598E+04  0.23634138598E+04  0.00000000000E+00 0. -1.
         25    2    1    2    0    0 -0.19096125826E+03 -0.15860261294E+03 -0.12991186755E+04  0.13285249480E+04  0.12509281920E+03 0.  0.
         23    2    1    2    0    0  0.19096125826E+03  0.15860261294E+03 -0.10330218576E+04  0.10661622385E+04  0.89144654780E+02 0.  0.
          5    1    3    3  502    0 -0.20550235123E+03 -0.16287191372E+03 -0.12264344118E+04  0.12541600040E+04  0.41800000000E+01 0. -1.
         -5    1    3    3    0  502  0.14541092968E+02  0.42693007815E+01 -0.72684263724E+02  0.74364944073E+02  0.41800000000E+01 0. -1.
        -11    1    4    4    0    0  0.13113740754E+03  0.74489202627E+02 -0.46524000557E+03  0.48907455847E+03  0.00000000000E+00 0.  1.
         11    1    4    4    0    0  0.59823850723E+02  0.84113410315E+02 -0.56778185205E+03  0.57708768002E+03  0.00000000000E+00 0. -1.
</event>
<event>
 8    1  0.7016814E-009  0.2128725E+03  0.7561462E-02  0.1139311E+00
          2   -1    0    0  501    0  0.00000000000E+00  0.00000000000E+00  0.14904118189E+04  0.14904118189E+04  0.00000000000E+00 0. -1.
         -2   -1    0    0    0  501 -0.00000000000E+00 -0.00000000000E+00 -0.34231271665E+02  0.34231271665E+02  0.00000000000E+00 0.  1.
         25    2    1    2    0    0  0.13942599416E+03  0.13954636904E+03  0.72750965924E+03  0.76408825854E+03  0.12509102918E+03 0.  0.
         23    2    1    2    0    0 -0.13942599416E+03 -0.13954636904E+03  0.72867088794E+03  0.76055483198E+03  0.92572093808E+02 0.  0.
          5    1    3    3  502    0  0.65176123900E+02  0.13853412296E+03  0.56459475781E+03  0.58499943872E+03  0.41800000000E+01 0.  1.
         -5    1    3    3    0  502  0.74249870259E+02  0.10122460824E+01  0.16291490143E+03  0.17908881982E+03  0.41800000000E+01 0.  1.
        -11    1    4    4    0    0 -0.76467300249E+02 -0.89990227161E+02  0.26652766773E+03  0.29151755806E+03  0.00000000000E+00 0.  1.
         11    1    4    4    0    0 -0.62958693910E+02 -0.49556141883E+02  0.46214322021E+03  0.46903727392E+03  0.00000000000E+00 0. -1.
</event>
<event>
 8    1  0.7016814E-009  0.2170812E+03  0.7561462E-02  0.1136078E+00
          2   -1    0    0  501    0  0.00000000000E+00  0.00000000000E+00  0.16090175693E+04  0.16090175693E+04  0.00000000000E+00 0. -1.
         -2   -1    0    0    0  501 -0.00000000000E+00 -0.00000000000E+00 -0.31298255022E+02  0.31298255022E+02  0.00000000000E+00 0.  1.
         25    2    1    2    0    0 -0.73489585551E+02  0.17602993172E+03  0.65138507043E+03  0.69017132562E+03  0.12508674067E+03 0.  0.
         23    2    1    2    0    0  0.73489585551E+02 -0.17602993172E+03  0.92633424380E+03  0.95014449865E+03  0.91061413494E+02 0.  0.
          5    1    3    3  502    0 -0.27752828265E+02  0.17921719256E+03  0.49711931201E+03  0.52918248682E+03  0.41800000000E+01 0. -1.
         -5    1    3    3    0  502 -0.45736757286E+02 -0.31872608411E+01  0.15426575842E+03  0.16098883881E+03  0.41800000000E+01 0. -1.
        -11    1    4    4    0    0  0.15662435308E+01 -0.10707060212E+03  0.57817138561E+03  0.58800401198E+03  0.00000000000E+00 0. -1.
         11    1    4    4    0    0  0.71923342020E+02 -0.68959329603E+02  0.34816285819E+03  0.36214048667E+03  0.00000000000E+00 0.  1.
</event>
<event>
 8    1  0.7016814E-009  0.9959871E+02  0.7561462E-02  0.1281142E+00
         -1   -1    0    0    0  501 -0.00000000000E+00  0.00000000000E+00  0.57664118611E+02  0.57664118611E+02  0.00000000000E+00 0.  1.
          1   -1    0    0  501    0  0.00000000000E+00 -0.00000000000E+00 -0.28117290695E+03  0.28117290695E+03  0.00000000000E+00 0. -1.
         25    2    1    2    0    0 -0.47044978322E+02  0.29411716642E+02 -0.67154070231E+02  0.15243697417E+03  0.12509629444E+03 0.  0.
         23    2    1    2    0    0  0.47044978322E+02 -0.29411716642E+02 -0.15635471811E+03  0.18640005139E+03  0.84970007791E+02 0.  0.
          5    1    3    3  502    0 -0.81238720640E+00 -0.40741251414E+02 -0.53236649776E+02  0.67172336711E+02  0.41800000000E+01 0.  1.
         -5    1    3    3    0  502 -0.46232591115E+02  0.70152968056E+02 -0.13917420455E+02  0.85264637456E+02  0.41800000000E+01 0.  1.
        -11    1    4    4    0    0  0.20901867291E+02 -0.40609359387E+02 -0.25132246909E+02  0.52130969305E+02  0.00000000000E+00 0.  1.
         11    1    4    4    0    0  0.26143111031E+02  0.11197642745E+02 -0.13122247120E+03  0.13426908209E+03  0.00000000000E+00 0. -1.
</event>
<event>
 8    1  0.7016814E-009  0.9122737E+02  0.7561462E-02  0.1299906E+00
          2   -1    0    0  501    0  0.00000000000E+00  0.00000000000E+00  0.78535833638E+03  0.78535833638E+03  0.00000000000E+00 0. -1.
         -2   -1    0    0    0  501 -0.00000000000E+00 -0.00000000000E+00 -0.27295110556E+02  0.27295110556E+02  0.00000000000E+00 0.  1.
         25    2    1    2    0    0  0.76036532917E+02  0.91138887901E+01  0.58303575538E+03  0.60120115916E+03  0.12509006522E+03 0.  0.
         23    2    1    2    0    0 -0.76036532917E+02 -0.91138887901E+01  0.17502747045E+03  0.21145228778E+03  0.90624705732E+02 0.  0.
          5    1    3    3  502    0  0.71917803879E+02  0.19837353382E+02  0.58416557851E+03  0.58892494141E+03  0.41800000000E+01 0.  1.
         -5    1    3    3    0  502  0.41187290385E+01 -0.10723464592E+02 -0.11298231333E+01  0.12276217743E+02  0.41800000000E+01 0.  1.
        -11    1    4    4    0    0 -0.12144744818E+02  0.21476605257E+02  0.11788769944E+03  0.12044189088E+03  0.00000000000E+00 0. -1.
         11    1    4    4    0    0 -0.63891788099E+02 -0.30590494047E+02  0.57139771006E+02  0.91010396896E+02  0.00000000000E+00 0.  1.
</event>
<event>
 8    1  0.7016814E-009  0.9082690E+02  0.7561462E-02  0.1300862E+00
         -2   -1    0    0    0  501 -0.00000000000E+00  0.00000000000E+00  0.51301950402E+02  0.51301950402E+02  0.00000000000E+00 0. -1.
          2   -1    0    0  501    0  0.00000000000E+00 -0.00000000000E+00 -0.32915160088E+03  0.32915160088E+03  0.00000000000E+00 0.  1.
         25    2    1    2    0    0 -0.24208841257E+02 -0.51516665095E+02 -0.21745214023E+03  0.25723990056E+03  0.12508756282E+03 0.  0.
         23    2    1    2    0    0  0.24208841257E+02  0.51516665095E+02 -0.60397510245E+02  0.12321365072E+03  0.91069806756E+02 0.  0.
          5    1    3    3  502    0 -0.11517309338E+02 -0.60079788287E+02 -0.22934984814E+03  0.23740483276E+03  0.41800000000E+01 0. -1.
         -5    1    3    3    0  502 -0.12691531919E+02  0.85631231923E+01  0.11897707909E+02  0.19835067802E+02  0.41800000000E+01 0. -1.
        -11    1    4    4    0    0  0.56199341830E+02  0.20255504566E+02 -0.48452539650E+02  0.76917488816E+02  0.00000000000E+00 0.  1.
         11    1    4    4    0    0 -0.31990500573E+02  0.31261160529E+02 -0.11944970596E+02  0.46296161904E+02  0.00000000000E+00 0. -1.
</event>
<event>
 8    1  0.7016814E-009  0.2485938E+03  0.7561462E-02  0.1114197E+00
          1   -1    0    0  501    0  0.00000000000E+00  0.00000000000E+00  0.52575753889E+03  0.52575753889E+03  0.00000000000E+00 0. -1.
         -1   -1    0    0    0  501 -0.00000000000E+00 -0.00000000000E+00 -0.13131831139E+03  0.13131831139E+03  0.00000000000E+00 0.  1.
         25    2    1    2    0    0 -0.23093163562E+02 -0.23097982905E+03  0.27412577326E+03  0.38036590760E+03  0.12509319911E+03 0.  0.
         23    2    1    2    0    0  0.23093163562E+02  0.23097982905E+03  0.12031345424E+03  0.27670994268E+03  0.90598507022E+02 0.  0.
          5    1    3    3  502    0 -0.55182495105E+02 -0.10588388253E+03  0.69093631734E+02  0.13801415395E+03  0.41800000000E+01 0.  1.
         -5    1    3    3    0  502  0.32089331543E+02 -0.12509594653E+03  0.20503214153E+03  0.24235175364E+03  0.41800000000E+01 0.  1.
        -11    1    4    4    0    0 -0.33629569137E+02  0.10700251940E+03  0.44134894183E+02  0.12053371297E+03  0.00000000000E+00 0.  1.
         11    1    4    4    0    0  0.56722732699E+02  0.12397730965E+03  0.76178560053E+02  0.15617622970E+03  0.00000000000E+00 0. -1.
</event>
<event>
 8    1  0.7016814E-009  0.2215965E+03  0.7561462E-02  0.1132698E+00
         -2   -1    0    0    0  501 -0.00000000000E+00  0.00000000000E+00  0.70064027346E+02  0.70064027346E+02  0.00000000000E+00 0. -1.
          2   -1    0    0  501    0  0.00000000000E+00 -0.00000000000E+00 -0.78282917716E+03  0.78282917716E+03  0.00000000000E+00 0.  1.
         25    2    1    2    0    0 -0.12976139826E+03 -0.15952692372E+03 -0.41353931144E+03  0.47848642810E+03  0.12509052681E+03 0.  0.
         23    2    1    2    0    0  0.12976139826E+03  0.15952692372E+03 -0.29922583837E+03  0.37440677641E+03  0.91419210224E+02 0.  0.
          5    1    3    3  502    0 -0.12169332613E+03 -0.71716197854E+02 -0.18017469676E+03  0.22898225348E+03  0.41800000000E+01 0.  1.
         -5    1    3    3    0  502 -0.80680721363E+01 -0.87810725865E+02 -0.23336461468E+03  0.24950417462E+03  0.41800000000E+01 0.  1.
        -11    1    4    4    0    0  0.13507683032E+02  0.57045719149E+02 -0.14207746546E+03  0.15369670707E+03  0.00000000000E+00 0.  1.
         11    1    4    4    0    0  0.11625371523E+03  0.10248120457E+03 -0.15714837292E+03  0.22071006933E+03  0.00000000000E+00 0. -1.
</event>
<event>
 8    1  0.7016814E-009  0.9773406E+02  0.7561462E-02  0.1285134E+00
         -1   -1    0    0    0  501 -0.00000000000E+00  0.00000000000E+00  0.39216446725E+03  0.39216446725E+03  0.00000000000E+00 0.  1.
          1   -1    0    0  501    0  0.00000000000E+00 -0.00000000000E+00 -0.33132168440E+02  0.33132168440E+02  0.00000000000E+00 0. -1.
         25    2    1    2    0    0 -0.34828392593E+01  0.26784236676E+02  0.17123552326E+03  0.21377237839E+03  0.12508996696E+03 0.  0.
         23    2    1    2    0    0  0.34828392593E+01 -0.26784236676E+02  0.18779677555E+03  0.21152425729E+03  0.93516613574E+02 0.  0.
          5    1    3    3  502    0 -0.55226470295E+02  0.36899471559E+02  0.55990523492E+02  0.86970944248E+02  0.41800000000E+01 0.  1.
         -5    1    3    3    0  502  0.51743631035E+02 -0.10115234883E+02  0.11524499977E+03  0.12680143415E+03  0.41800000000E+01 0.  1.
        -11    1    4    4    0    0  0.26206624443E+02  0.13723656098E+02  0.16148682797E+02  0.33703202481E+02  0.00000000000E+00 0. -1.
         11    1    4    4    0    0 -0.22723785184E+02 -0.40507892775E+02  0.17164809275E+03  0.17782105481E+03  0.00000000000E+00 0.  1.
</event>
<event>
 8    1  0.7016814E-009  0.8556809E+02  0.7561462E-02  0.1313954E+00
         -3   -1    0    0    0  501 -0.00000000000E+00  0.00000000000E+00  0.10523661445E+03  0.10523661445E+03  0.00000000000E+00 0.  1.
          3   -1    0    0  501    0  0.00000000000E+00 -0.00000000000E+00 -0.10891143452E+03  0.10891143452E+03  0.00000000000E+00 0. -1.
         25    2    1    2    0    0 -0.11000234596E+02 -0.22570268313E+01 -0.22288969107E+02  0.12755844496E+03  0.12509300303E+03 0.  0.
         23    2    1    2    0    0  0.11000234596E+02  0.22570268313E+01  0.18614149040E+02  0.86589604009E+02  0.83816308954E+02 0.  0.
          5    1    3    3  502    0 -0.45763963433E+02 -0.38951303144E+02  0.17902446314E+02  0.62845161705E+02  0.41800000000E+01 0. -1.
         -5    1    3    3    0  502  0.34763728836E+02  0.36694276313E+02 -0.40191415421E+02  0.64713283260E+02  0.41800000000E+01 0. -1.
        -11    1    4    4    0    0 -0.23246359323E+02  0.95997620072E+01  0.38744540340E+02  0.46191861389E+02  0.00000000000E+00 0.  1.
         11    1    4    4    0    0  0.34246593920E+02 -0.73427351759E+01 -0.20130391300E+02  0.40397742621E+02  0.00000000000E+00 0. -1.
</event>
<event>
 8    1  0.7016814E-009  0.2332739E+03  0.7561462E-02  0.1124356E+00
         -2   -1    0    0    0  501 -0.00000000000E+00  0.00000000000E+00  0.53493854132E+03  0.53493854132E+03  0.00000000000E+00 0.  1.
          2   -1    0    0  501    0  0.00000000000E+00 -0.00000000000E+00 -0.14885080656E+03  0.14885080656E+03  0.00000000000E+00 0. -1.
         25    2    1    2    0    0 -0.20903081848E+03 -0.31997242167E+02  0.38026944649E+03  0.45273613699E+03  0.12508977264E+03 0.  0.
         23    2    1    2    0    0  0.20903081848E+03  0.31997242167E+02  0.58182882604E+01  0.23105321089E+03  0.92919466240E+02 0.  0.
          5    1    3    3  502    0 -0.21981906870E+03 -0.18560830201E+02  0.37340858659E+03  0.43372384339E+03  0.41800000000E+01 0.  1.
         -5    1    3    3    0  502  0.10788250221E+02 -0.13436411966E+02  0.68608598979E+01  0.19012293599E+02  0.41800000000E+01 0.  1.
        -11    1    4    4    0    0  0.68574484606E+02  0.52322953282E+02 -0.15201589140E+02  0.87585613497E+02  0.00000000000E+00 0. -1.
         11    1    4    4    0    0  0.14045633387E+03 -0.20325711115E+02  0.21019877401E+02  0.14346759740E+03  0.00000000000E+00 0.  1.
</event>
<event>
 8    1  0.7016814E-009  0.1730793E+03  0.7561462E-02  0.1174674E+00
          1   -1    0    0  501    0  0.00000000000E+00  0.00000000000E+00  0.11239012559E+04  0.11239012559E+04  0.00000000000E+00 0. -1.
         -1   -1    0    0    0  501 -0.00000000000E+00 -0.00000000000E+00 -0.34280984083E+02  0.34280984083E+02  0.00000000000E+00 0.  1.
         25    2    1    2    0    0  0.14248045070E+03  0.79282707867E+02  0.57834084631E+03  0.61376847321E+03  0.12508867897E+03 0.  0.
         23    2    1    2    0    0 -0.14248045070E+03 -0.79282707867E+02  0.51127942548E+03  0.54441376673E+03  0.91614801737E+02 0.  0.
          5    1    3    3  502    0  0.10016781571E+03  0.54217223468E+02  0.18463429938E+03  0.21698017313E+03  0.41800000000E+01 0.  1.
         -5    1    3    3    0  502  0.42312634981E+02  0.25065484399E+02  0.39370654693E+03  0.39678830008E+03  0.41800000000E+01 0.  1.
        -11    1    4    4    0    0 -0.72263964324E+02  0.58163779057E+01  0.26129242860E+03  0.27116350056E+03  0.00000000000E+00 0.  1.
         11    1    4    4    0    0 -0.70216486371E+02 -0.85099085772E+02  0.24998699688E+03  0.27325026618E+03  0.00000000000E+00 0. -1.
</event>
<event>
 8    1  0.7016814E-009  0.1169142E+03  0.7561462E-02  0.1248276E+00
          2   -1    0    0  501    0  0.00000000000E+00  0.00000000000E+00  0.66964818820E+03  0.66964818820E+03  0.00000000000E+00 0. -1.
         -2   -1    0    0    0  501 -0.00000000000E+00 -0.00000000000E+00 -0.29908096958E+02  0.29908096958E+02  0.00000000000E+00 0.  1.
         25    2    1    2    0    0  0.65136111660E+02 -0.31701377386E+02  0.48796546789E+03  0.50892580551E+03  0.12508991679E+03 0.  0.
         23    2    1    2    0    0 -0.65136111660E+02  0.31701377386E+02  0.15177462335E+03  0.19063047966E+03  0.89759417947E+02 0.  0.
          5    1    3    3  502    0 -0.36565085579E+02 -0.18160465163E+02  0.11593466247E+03  0.12298425241E+03  0.41800000000E+01 0. -1.
         -5    1    3    3    0  502  0.10170119724E+03 -0.13540912223E+02  0.37203080543E+03  0.38594155310E+03  0.41800000000E+01 0. -1.
        -11    1    4    4    0    0 -0.46518872607E+02  0.46910108961E+02  0.15290231362E+03  0.16656434595E+03  0.00000000000E+00 0. -1.
         11    1    4    4    0    0 -0.18617239052E+02 -0.15208731575E+02 -0.11276902719E+01  0.24066133703E+02  0.00000000000E+00 0.  1.
</event>
<event>
 8    1  0.7016814E-009  0.1055886E+03  0.7561462E-02  0.1268964E+00
         -2   -1    0    0    0  501 -0.00000000000E+00  0.00000000000E+00  0.47038088939E+02  0.47038088939E+02  0.00000000000E+00 0.  1.
          2   -1    0    0  501    0  0.00000000000E+00 -0.00000000000E+00 -0.49200422492E+03  0.49200422492E+03  0.00000000000E+00 0. -1.
         25    2    1    2    0    0 -0.18491056032E+02 -0.24746544426E+02 -0.57292700290E+02  0.14101132771E+03  0.12508968951E+03 0.  0.
         23    2    1    2    0    0  0.18491056032E+02  0.24746544426E+02 -0.38767343569E+03  0.39803098615E+03  0.84756489903E+02 0.  0.
          5    1    3    3  502    0 -0.55707027458E+02  0.28060791870E+02 -0.39211373431E+02  0.73794885696E+02  0.41800000000E+01 0.  1.
         -5    1    3    3    0  502  0.37215971427E+02 -0.52807336296E+02 -0.18081326859E+02  0.67216442013E+02  0.41800000000E+01 0.  1.
        -11    1    4    4    0    0  0.47705751352E+02  0.26653019968E+02 -0.31460098299E+03  0.31931176095E+03  0.00000000000E+00 0.  1.
         11    1    4    4    0    0 -0.29214695320E+02 -0.19064755423E+01 -0.73072452703E+02  0.78719225198E+02  0.00000000000E+00 0. -1.
</event>
<event>
 8    1  0.7016814E-009  0.1243688E+03  0.7561462E-02  0.1236059E+00
          2   -1    0    0  501    0  0.00000000000E+00  0.00000000000E+00  0.84077862393E+03  0.84077862393E+03  0.00000000000E+00 0. -1.
         -2   -1    0    0    0  501 -0.00000000000E+00 -0.00000000000E+00 -0.34215621259E+02  0.34215621259E+02  0.00000000000E+00 0.  1.
         25    2    1    2    0    0 -0.91601528119E+02 -0.57272594777E+02  0.23936227964E+03  0.29088736467E+03  0.12510063127E+03 0.  0.
         23    2    1    2    0    0  0.91601528119E+02  0.57272594777E+02  0.56720072304E+03  0.58410688052E+03  0.88279089214E+02 0.  0.
          5    1    3    3  502    0 -0.42944861508E+02 -0.36817229189E+02  0.12702563565E+02  0.58125700135E+02  0.41800000000E+01 0. -1.
         -5    1    3    3    0  502 -0.48656666611E+02 -0.20455365589E+02  0.22665971607E+03  0.23276166453E+03  0.41800000000E+01 0. -1.
        -11    1    4    4    0    0  0.44018258831E+02 -0.19978773824E+02  0.21988723558E+03  0.22513807960E+03  0.00000000000E+00 0.  1.
         11    1    4    4    0    0  0.47583269288E+02  0.77251368601E+02  0.34731348746E+03  0.35896880092E+03  0.00000000000E+00 0. -1.
</event>
<event>
 8    1  0.7016814E-009  0.1071766E+03  0.7561462E-02  0.1265890E+00
          2   -1    0    0  501    0  0.00000000000E+00  0.00000000000E+00  0.20722512795E+03  0.20722512795E+03  0.00000000000E+00 0. -1.
         -2   -1    0    0    0  501 -0.00000000000E+00 -0.00000000000E+00 -0.65397705769E+02  0.65397705769E+02  0.00000000000E+00 0.  1.
         25    2    1    2    0    0  0.40726057486E+02 -0.54841758506E+01  0.85518692258E+02  0.15700268521E+03  0.12509080100E+03 0.  0.
         23    2    1    2    0    0 -0.40726057486E+02  0.54841758506E+01  0.56308729922E+02  0.11562014851E+03  0.92242385767E+02 0.  0.
          5    1    3    3  502    0 -0.22919422678E+02  0.33515971725E+02 -0.32490551934E+01  0.40946905331E+02  0.41800000000E+01 0.  1.
         -5    1    3    3    0  502  0.63645480164E+02 -0.39000147575E+02  0.88767747451E+02  0.11605577988E+03  0.41800000000E+01 0.  1.
        -11    1    4    4    0    0  0.63628235434E+01  0.39928488499E+02  0.35101886818E+02  0.53543554005E+02  0.00000000000E+00 0. -1.
         11    1    4    4    0    0 -0.47088881029E+02 -0.34444312648E+02  0.21206843105E+02  0.62076594501E+02  0.00000000000E+00 0.  1.
</event>
<event>
 8    1  0.7016814E-009  0.7422087E+02  0.7561462E-02  0.1346301E+00
         -1   -1    0    0    0  501 -0.00000000000E+00  0.00000000000E+00  0.26962422657E+02  0.26962422657E+02  0.00000000000E+00 0.  1.
          1   -1    0    0  501    0  0.00000000000E+00 -0.00000000000E+00 -0.81471663726E+03  0.81471663726E+03  0.00000000000E+00 0. -1.
         25    2    1    2    0    0 -0.38940395326E+02  0.27481916837E+02 -0.67801949810E+03  0.69110650365E+03  0.12508456916E+03 0.  0.
         23    2    1    2    0    0  0.38940395326E+02 -0.27481916837E+02 -0.10973471651E+03  0.15057255627E+03  0.91426344966E+02 0.  0.
          5    1    3    3  502    0  0.14854173508E+02  0.76182794896E+01 -0.86293543343E+01  0.19251566409E+02  0.41800000000E+01 0.  1.
         -5    1    3    3    0  502 -0.53794568834E+02  0.19863637348E+02 -0.66939014376E+03  0.67185493724E+03  0.41800000000E+01 0.  1.
        -11    1    4    4    0    0  0.46928660126E+02 -0.19345898267E+01 -0.11415778733E+03  0.12344246509E+03  0.00000000000E+00 0. -1.
         11    1    4    4    0    0 -0.79882648001E+01 -0.25547327010E+02  0.44230708255E+01  0.27130091180E+02  0.00000000000E+00 0.  1.
</event>
<event>
 8    1  0.7016814E-009  0.1447354E+03  0.7561462E-02  0.1207096E+00
          2   -1    0    0  501    0  0.00000000000E+00  0.00000000000E+00  0.98399556377E+02  0.98399556377E+02  0.00000000000E+00 0. -1.
         -2   -1    0    0    0  501 -0.00000000000E+00 -0.00000000000E+00 -0.25022231687E+03  0.25022231687E+03  0.00000000000E+00 0.  1.
         25    2    1    2    0    0 -0.42760029145E+02  0.10440795910E+03 -0.86744417882E+02  0.18947866674E+03  0.12509248218E+03 0.  0.
         23    2    1    2    0    0  0.42760029145E+02 -0.10440795910E+03 -0.65078342611E+02  0.15914320651E+03  0.91443575424E+02 0.  0.
          5    1    3    3  502    0 -0.81751907175E+02  0.38549926305E+02 -0.58726385701E+02  0.10786904988E+03  0.41800000000E+01 0. -1.
         -5    1    3    3    0  502  0.38991878030E+02  0.65858032793E+02 -0.28018032181E+02  0.81609616853E+02  0.41800000000E+01 0. -1.
        -11    1    4    4    0    0 -0.26988360922E+01 -0.55508030758E+02  0.12323980181E+02  0.56923682966E+02  0.00000000000E+00 0. -1.
         11    1    4    4    0    0  0.45458865238E+02 -0.48899928340E+02 -0.77402322792E+02  0.10221952355E+03  0.00000000000E+00 0.  1.
</event>
<event>
 8    1  0.7016814E-009  0.1462689E+03  0.7561462E-02  0.1205134E+00
         -1   -1    0    0    0  501 -0.00000000000E+00  0.00000000000E+00  0.13329437753E+03  0.13329437753E+03  0.00000000000E+00 0. -1.
          1   -1    0    0  501    0  0.00000000000E+00 -0.00000000000E+00 -0.38355400332E+03  0.38355400332E+03  0.00000000000E+00 0.  1.
         25    2    1    2    0    0 -0.92851191744E+02 -0.79037626843E+02 -0.30804951635E+03  0.35413734027E+03  0.12510180250E+03 0.  0.
         23    2    1    2    0    0  0.92851191744E+02  0.79037626843E+02  0.57789890556E+02  0.16271104058E+03  0.90922610002E+02 0.  0.
          5    1    3    3  502    0 -0.35366259295E+02  0.29907766128E+02 -0.50716013303E+02  0.68810124085E+02  0.41800000000E+01 0.  1.
         -5    1    3    3    0  502 -0.57484932449E+02 -0.10894539297E+03 -0.25733350304E+03  0.28532721619E+03  0.41800000000E+01 0.  1.
        -11    1    4    4    0    0  0.28503348364E+02  0.33305328878E+02 -0.23211914997E+02  0.49603213580E+02  0.00000000000E+00 0.  1.
         11    1    4    4    0    0  0.64347843380E+02  0.45732297964E+02  0.81001805553E+02  0.11310782700E+03  0.00000000000E+00 0. -1.
</event>
<event>
 8    1  0.7016814E-009  0.9012189E+02  0.7561462E-02  0.1302557E+00
         -1   -1    0    0    0  501 -0.00000000000E+00  0.00000000000E+00  0.76244572038E+02  0.76244572038E+02  0.00000000000E+00 0.  1.
          1   -1    0    0  501    0  0.00000000000E+00 -0.00000000000E+00 -0.19822988250E+03  0.19822988250E+03  0.00000000000E+00 0. -1.
         25    2    1    2    0    0 -0.38527246660E+02 -0.44136312728E+02 -0.81049692674E+02  0.16015572973E+03  0.12509373384E+03 0.  0.
         23    2    1    2    0    0  0.38527246660E+02  0.44136312728E+02 -0.40935617785E+02  0.11431872480E+03  0.89222660804E+02 0.  0.
          5    1    3    3  502    0 -0.49162409185E+02 -0.38121868292E+02  0.14271522986E+02  0.63963802945E+02  0.41800000000E+01 0.  1.
         -5    1    3    3    0  502  0.10635162525E+02 -0.60144444364E+01 -0.95321215660E+02  0.96191926785E+02  0.41800000000E+01 0.  1.
        -11    1    4    4    0    0  0.15123747012E+02 -0.26530134405E+02 -0.27681051230E+01  0.30663303169E+02  0.00000000000E+00 0.  1.
         11    1    4    4    0    0  0.23403499648E+02  0.70666447133E+02 -0.38167512662E+02  0.83655421636E+02  0.00000000000E+00 0. -1.
</event>
<event>
 8    1  0.7016814E-009  0.1830083E+03  0.7561462E-02  0.1164923E+00
         -2   -1    0    0    0  501 -0.00000000000E+00  0.00000000000E+00  0.10560071493E+03  0.10560071493E+03  0.00000000000E+00 0.  1.
          2   -1    0    0  501    0  0.00000000000E+00 -0.00000000000E+00 -0.51391669686E+03  0.51391669686E+03  0.00000000000E+00 0. -1.
         25    2    1    2    0    0 -0.12602421470E+03  0.86449059578E+02 -0.39476396906E+03  0.44140846171E+03  0.12508915304E+03 0.  0.
         23    2    1    2    0    0  0.12602421470E+03 -0.86449059578E+02 -0.13552012867E+02  0.17810895007E+03  0.90463243641E+02 0.  0.
          5    1    3    3  502    0 -0.11364173362E+03  0.11495464489E+03 -0.35966328447E+03  0.39434016356E+03  0.41800000000E+01 0. -1.
         -5    1    3    3    0  502 -0.12382481081E+02 -0.28505585316E+02 -0.35100684598E+02  0.47068298155E+02  0.41800000000E+01 0. -1.
        -11    1    4    4    0    0 -0.45617917767E+01  0.97503410881E+01  0.94092651566E+01  0.14297320250E+02  0.00000000000E+00 0.  1.
         11    1    4    4    0    0  0.13058600648E+03 -0.96199400666E+02 -0.22961278024E+02  0.16381162982E+03  0.00000000000E+00 0. -1.
</event>
<event>
 8    1  0.7016814E-009  0.1005168E+03  0.7561462E-02  0.1279213E+00
         -2   -1    0    0    0  501 -0.00000000000E+00  0.00000000000E+00  0.15605143978E+02  0.15605143978E+02  0.00000000000E+00 0. -1.
          2   -1    0    0  501    0  0.00000000000E+00 -0.00000000000E+00 -0.84336910025E+03  0.84336910025E+03  0.00000000000E+00 0.  1.
         25    2    1    2    0    0  0.18256688289E+02 -0.25033031612E+02 -0.57777133859E+03  0.59196913223E+03  0.12509106474E+03 0.  0.
         23    2    1    2    0    0 -0.18256688289E+02  0.25033031612E+02 -0.24999261769E+03  0.26700511200E+03  0.88518142766E+02 0.  0.
          5    1    3    3  502    0 -0.43058255977E+02 -0.10879671005E+02 -0.93357609074E+02  0.10346736790E+03  0.41800000000E+01 0. -1.
         -5    1    3    3    0  502  0.61314944266E+02 -0.14153360607E+02 -0.48441372951E+03  0.48850176432E+03  0.41800000000E+01 0. -1.
        -11    1    4    4    0    0  0.20928064058E+02  0.44818051652E+02 -0.14504062097E+03  0.15324302056E+03  0.00000000000E+00 0.  1.
         11    1    4    4    0    0 -0.39184752347E+02 -0.19785020040E+02 -0.10495199671E+03  0.11376209144E+03  0.00000000000E+00 0. -1.
</event>
<event>
 8    1  0.7016814E-009  0.2387146E+03  0.7561462E-02  0.1120652E+00
          1   -1    0    0  501    0  0.00000000000E+00  0.00000000000E+00  0.77507059375E+03  0.77507059375E+03  0.00000000000E+00 0. -1.
         -1   -1    0    0    0  501 -0.00000000000E+00 -0.00000000000E+00 -0.75584012116E+02  0.75584012116E+02  0.00000000000E+00 0.  1.
         25    2    1    2    0    0  0.20883606553E+03  0.53177232808E+02  0.33018623533E+03  0.41365615227E+03  0.12509253356E+03 0.  0.
         23    2    1    2    0    0 -0.20883606553E+03 -0.53177232808E+02  0.36930034631E+03  0.43699845360E+03  0.90247339651E+02 0.  0.
          5    1    3    3  502    0 -0.16774278978E+02  0.39829054927E+00  0.19506465810E+02  0.26067406449E+02  0.41800000000E+01 0.  1.
         -5    1    3    3    0  502  0.22561034451E+03  0.52778942259E+02  0.31067976952E+03  0.38758874582E+03  0.41800000000E+01 0.  1.
        -11    1    4    4    0    0 -0.16806462412E+03 -0.90343140568E+01  0.22749378508E+03  0.28298543948E+03  0.00000000000E+00 0.  1.
         11    1    4    4    0    0 -0.40771441411E+02 -0.44142918752E+02  0.14180656123E+03  0.15401301412E+03  0.00000000000E+00 0. -1.
</event>
<event>
 8    1  0.7016814E-009  0.1009517E+03  0.7561462E-02  0.1278307E+00
         -2   -1    0    0    0  501 -0.00000000000E+00  0.00000000000E+00  0.77780712999E+02  0.77780712999E+02  0.00000000000E+00 0.  1.
          2   -1    0    0  501    0  0.00000000000E+00 -0.00000000000E+00 -0.16984900291E+03  0.16984900291E+03  0.00000000000E+00 0. -1.
         25    2    1    2    0    0 -0.24028665368E+02  0.54489252075E+01 -0.19797135516E+02  0.12901793114E+03  0.12508649981E+03 0.  0.
         23    2    1    2    0    0  0.24028665368E+02 -0.54489252075E+01 -0.72271154396E+02  0.11861178477E+03  0.90766558729E+02 0.  0.
          5    1    3    3  502    0  0.23552194388E+02 -0.39154340344E+02 -0.39730253042E+02  0.60693769326E+02  0.41800000000E+01 0.  1.
         -5    1    3    3    0  502 -0.47580859756E+02  0.44603265552E+02  0.19933117526E+02  0.68324161812E+02  0.41800000000E+01 0.  1.
        -11    1    4    4    0    0  0.57175697620E+02 -0.67521422465E+00 -0.29656667765E+02  0.64412997566E+02  0.00000000000E+00 0.  1.
         11    1    4    4    0    0 -0.33147032252E+02 -0.47737109828E+01 -0.42614486631E+02  0.54198787205E+02  0.00000000000E+00 0. -1.
</event>
<event>
 8    1  0.7016814E-009  0.8082718E+02  0.7561462E-02  0.1326720E+00
          2   -1    0    0  501    0  0.00000000000E+00  0.00000000000E+00  0.31000727250E+03  0.31000727250E+03  0.00000000000E+00 0. -1.
         -2   -1    0    0    0  501 -0.00000000000E+00 -0.00000000000E+00 -0.41058577928E+02  0.41058577928E+02  0.00000000000E+00 0.  1.
         25    2    1    2    0    0 -0.71165451475E+00 -0.11143003338E+02  0.10468757260E+03  0.16349776956E+03  0.12508940730E+03 0.  0.
         23    2    1    2    0    0  0.71165451475E+00  0.11143003338E+02  0.16426112197E+03  0.18756808086E+03  0.89863206001E+02 0.  0.
          5    1    3    3  502    0 -0.34457281403E+02  0.60892057281E+01  0.11797647881E+03  0.12312718879E+03  0.41800000000E+01 0. -1.
         -5    1    3    3    0  502  0.33745626888E+02 -0.17232209066E+02 -0.13288906208E+02  0.40370580769E+02  0.41800000000E+01 0. -1.
        -11    1    4    4    0    0  0.28009407418E+02 -0.28631016410E+02  0.95629297685E+02  0.10367846729E+03  0.00000000000E+00 0. -1.
         11    1    4    4    0    0 -0.27297752903E+02  0.39774019748E+02  0.68631824283E+02  0.83889613570E+02  0.00000000000E+00 0.  1.
</event>
<event>
 8    1  0.7016814E-009  0.1072851E+03  0.7561462E-02  0.1265682E+00
         -2   -1    0    0    0  501 -0.00000000000E+00  0.00000000000E+00  0.61195326215E+02  0.61195326215E+02  0.00000000000E+00 0.  1.
          2   -1    0    0  501    0  0.00000000000E+00 -0.00000000000E+00 -0.47267475941E+03  0.47267475941E+03  0.00000000000E+00 0. -1.
         25    2    1    2    0    0 -0.11574247396E+02 -0.91852696167E+02 -0.75767129327E+02  0.17308697155E+03  0.12509021080E+03 0.  0.
         23    2    1    2    0    0  0.11574247396E+02  0.91852696167E+02 -0.33571230387E+03  0.36078311407E+03  0.94291163092E+02 0.  0.
          5    1    3    3  502    0  0.14866187719E+02 -0.30971471033E+02  0.31551554437E+02  0.46831704460E+02  0.41800000000E+01 0. -1.
         -5    1    3    3    0  502 -0.26440435115E+02 -0.60881225135E+02 -0.10731868376E+03  0.12625526709E+03  0.41800000000E+01 0. -1.
        -11    1    4    4    0    0 -0.19584270841E+02  0.76026737012E+02 -0.30267714497E+03  0.31269324024E+03  0.00000000000E+00 0. -1.
         11    1    4    4    0    0  0.31158518236E+02  0.15825959155E+02 -0.33035158894E+02  0.48089873830E+02  0.00000000000E+00 0.  1.
</event>
<event>
 8    1  0.7016814E-009  0.1613519E+03  0.7561462E-02  0.1187179E+00
         -2   -1    0    0    0  501 -0.00000000000E+00  0.00000000000E+00  0.78182578160E+03  0.78182578160E+03  0.00000000000E+00 0.  1.
          2   -1    0    0  501    0  0.00000000000E+00 -0.00000000000E+00 -0.63281600777E+02  0.63281600777E+02  0.00000000000E+00 0. -1.
         25    2    1    2    0    0 -0.10358666471E+02 -0.15207525499E+03  0.60074703736E+03  0.63227880611E+03  0.12508117610E+03 0.  0.
         23    2    1    2    0    0  0.10358666471E+02  0.15207525499E+03  0.11779714346E+03  0.21282857626E+03  0.90474586010E+02 0.  0.
          5    1    3    3  502    0  0.64131519245E+01 -0.24014422410E+02  0.92781575503E+01  0.26858473688E+02  0.41800000000E+01 0. -1.
         -5    1    3    3    0  502 -0.16771818395E+02 -0.12806083258E+03  0.59146887981E+03  0.60542033243E+03  0.41800000000E+01 0. -1.
        -11    1    4    4    0    0 -0.20787411941E+02  0.12586419860E+03  0.11544901335E+03  0.17205344422E+03  0.00000000000E+00 0.  1.
         11    1    4    4    0    0  0.31146078412E+02  0.26211056389E+02  0.23481301054E+01  0.40775132035E+02  0.00000000000E+00 0. -1.
</event>
<event>
 8    1  0.7016814E-009  0.1246925E+03  0.7561462E-02  0.1235551E+00
          1   -1    0    0  501    0  0.00000000000E+00  0.00000000000E+00  0.20284621760E+03  0.20284621760E+03  0.00000000000E+00 0. -1.
         -1   -1    0    0    0  501 -0.00000000000E+00 -0.00000000000E+00 -0.10356706519E+03  0.10356706519E+03  0.00000000000E+00 0.  1.
         25    2    1    2    0    0 -0.65756699095E+02  0.22478217236E+02 -0.19789724846E+02  0.14445723590E+03  0.12508815319E+03 0.  0.
         23    2    1    2    0    0  0.65756699095E+02 -0.22478217236E+02  0.11906887726E+03  0.16195604690E+03  0.84989116186E+02 0.  0.
          5    1    3    3  502    0 -0.67354270657E+02 -0.39366226598E+02  0.35416334259E+01  0.78206861205E+02  0.41800000000E+01 0.  1.
         -5    1    3    3    0  502  0.15975715623E+01  0.61844443834E+02 -0.23331358272E+02  0.66250374693E+02  0.41800000000E+01 0.  1.
        -11    1    4    4    0    0  0.39369530021E+02  0.30675327974E+02  0.46517438612E+02  0.68226151404E+02  0.00000000000E+00 0.  1.
         11    1    4    4    0    0  0.26387169073E+02 -0.53153545210E+02  0.72551438645E+02  0.93729895495E+02  0.00000000000E+00 0. -1.
</event>
<event>
 8    1  0.7016814E-009  0.1315044E+03  0.7561462E-02  0.1225240E+00
         -2   -1    0    0    0  501 -0.00000000000E+00  0.00000000000E+00  0.90962115990E+02  0.90962115990E+02  0.00000000000E+00 0.  1.
          2   -1    0    0  501    0  0.00000000000E+00 -0.00000000000E+00 -0.26144491798E+03  0.26144491798E+03  0.00000000000E+00 0. -1.
         25    2    1    2    0    0 -0.99726970409E+02 -0.21908898776E+02 -0.45617086181E+02  0.16779331361E+03  0.12509280183E+03 0.  0.
         23    2    1    2    0    0  0.99726970409E+02  0.21908898776E+02 -0.12486571581E+03  0.18461372036E+03  0.89807072592E+02 0.  0.
          5    1    3    3  502    0 -0.10784586510E+03 -0.45511885226E+02 -0.17431164189E+01  0.11714338722E+03  0.41800000000E+01 0.  1.
         -5    1    3    3    0  502  0.81188946897E+01  0.23602986450E+02 -0.43873969762E+02  0.50649926388E+02  0.41800000000E+01 0.  1.
        -11    1    4    4    0    0  0.60121852989E+02 -0.19563630634E+02 -0.10746866133E+03  0.12468715258E+03  0.00000000000E+00 0. -1.
         11    1    4    4    0    0  0.39605117420E+02  0.41472529409E+02 -0.17397054484E+02  0.59926567782E+02  0.00000000000E+00 0.  1.
</event>
<event>
 8    1  0.7016814E-009  0.1525397E+03  0.7561462E-02  0.1197387E+00
          1   -1    0    0  501    0  0.00000000000E+00  0.00000000000E+00  0.46985108808E+03  0.46985108808E+03  0.00000000000E+00 0. -1.
         -1   -1    0    0    0  501 -0.00000000000E+00 -0.00000000000E+00 -0.57251440160E+02  0.57251440160E+02  0.00000000000E+00 0.  1.
         25    2    1    2    0    0 -0.13530560414E+02 -0.12092903583E+03  0.25264037135E+03  0.30705272499E+03  0.12508921185E+03 0.  0.
         23    2    1    2    0    0  0.13530560414E+02  0.12092903583E+03  0.15995927657E+03  0.22004980325E+03  0.89599319055E+02 0.  0.
          5    1    3    3  502    0 -0.24397231702E+02  0.89017494479E+01  0.44012370856E+01  0.26670383308E+02  0.41800000000E+01 0. -1.
         -5    1    3    3    0  502  0.10866671288E+02 -0.12983078528E+03  0.24823913426E+03  0.28038234169E+03  0.41800000000E+01 0. -1.
        -11    1    4    4    0    0 -0.35530438152E+02  0.64579253985E+02  0.58790936341E+02  0.94282905537E+02  0.00000000000E+00 0.  1.
         11    1    4    4    0    0  0.49060998565E+02  0.56349781843E+02  0.10116834023E+03  0.12576689771E+03  0.00000000000E+00 0. -1.
</event>
<event>
 8    1  0.7016814E-009  0.8908774E+02  0.7561462E-02  0.1305076E+00
         -1   -1    0    0    0  501 -0.00000000000E+00  0.00000000000E+00  0.69129756900E+02  0.69129756900E+02  0.00000000000E+00 0.  1.
          1   -1    0    0  501    0  0.00000000000E+00 -0.00000000000E+00 -0.25135454428E+03  0.25135454428E+03  0.00000000000E+00 0. -1.
         25    2    1    2    0    0 -0.26210117976E+02  0.48918813923E+02 -0.33480838141E+02  0.14088436179E+03  0.12508963280E+03 0.  0.
         23    2    1    2    0    0  0.26210117976E+02 -0.48918813923E+02 -0.14874394924E+03  0.17959993939E+03  0.83972347552E+02 0.  0.
          5    1    3    3  502    0  0.23872713167E+02  0.11116180516E+02 -0.65206741014E+02  0.70447621513E+02  0.41800000000E+01 0.  1.
         -5    1    3    3    0  502 -0.50082831144E+02  0.37802633407E+02  0.31725902873E+02  0.70436740278E+02  0.41800000000E+01 0.  1.
        -11    1    4    4    0    0 -0.23728469652E+02 -0.12521454184E+02 -0.91545556743E+02  0.95396100792E+02  0.00000000000E+00 0. -1.
         11    1    4    4    0    0  0.49938587628E+02 -0.36397359739E+02 -0.57198392493E+02  0.84203838595E+02  0.00000000000E+00 0.  1.
</event>
<event>
 8    1  0.7016814E-009  0.1098595E+03  0.7561462E-02  0.1260830E+00
          3   -1    0    0  501    0  0.00000000000E+00  0.00000000000E+00  0.64376786082E+02  0.64376786082E+02  0.00000000000E+00 0. -1.
         -3   -1    0    0    0  501 -0.00000000000E+00 -0.00000000000E+00 -0.21014272662E+03  0.21014272662E+03  0.00000000000E+00 0.  1.
         25    2    1    2    0    0  0.34356208897E+02 -0.20228902223E+02 -0.10137702114E+03  0.16587856157E+03  0.12509532044E+03 0.  0.
         23    2    1    2    0    0 -0.34356208897E+02  0.20228902223E+02 -0.44388919396E+02  0.10864095113E+03  0.90790542037E+02 0.  0.
          5    1    3    3  502    0  0.31604303988E+02 -0.70919754605E+02 -0.44752209074E+02  0.89714414900E+02  0.41800000000E+01 0. -1.
         -5    1    3    3    0  502  0.27519049092E+01  0.50690852382E+02 -0.56624812067E+02  0.76164146667E+02  0.41800000000E+01 0. -1.
        -11    1    4    4    0    0 -0.16789743047E+01 -0.30574776161E+02 -0.36624171492E+02  0.47738515158E+02  0.00000000000E+00 0.  1.
         11    1    4    4    0    0 -0.32677234592E+02  0.50803678384E+02 -0.77647479041E+01  0.60902435977E+02  0.00000000000E+00 0. -1.
</event>
<event>
 8    1  0.7016814E-009  0.1278851E+03  0.7561462E-02  0.1230628E+00
         -1   -1    0    0    0  501 -0.00000000000E+00  0.00000000000E+00  0.70909016184E+03  0.70909016184E+03  0.00000000000E+00 0.  1.
          1   -1    0    0  501    0  0.00000000000E+00 -0.00000000000E+00 -0.30853969656E+02  0.30853969656E+02  0.00000000000E+00 0. -1.
         25    2    1    2    0    0 -0.28596055631E+02  0.74028989360E+02  0.22912457089E+03  0.27284313934E+03  0.12508910437E+03 0.  0.
         23    2    1    2    0    0  0.28596055631E+02 -0.74028989360E+02  0.44911162129E+03  0.46710099216E+03  0.10091611781E+03 0.  0.
          5    1    3    3  502    0 -0.50917375273E+02  0.90055742052E+02  0.11225196909E+03  0.15271081411E+03  0.41800000000E+01 0.  1.
         -5    1    3    3    0  502  0.22321319643E+02 -0.16026752692E+02  0.11687260180E+03  0.12013232523E+03  0.41800000000E+01 0.  1.
        -11    1    4    4    0    0  0.25301110406E+02 -0.97503458534E+02  0.40111018498E+03  0.41356553424E+03  0.00000000000E+00 0.  1.
         11    1    4    4    0    0  0.32949452250E+01  0.23474469174E+02  0.48001436309E+02  0.53535457921E+02  0.00000000000E+00 0. -1.
</event>
<event>
 8    1  0.7016814E-009  0.1477569E+03  0.7561462E-02  0.1203257E+00
          1   -1    0    0  501    0  0.00000000000E+00  0.00000000000E+00  0.78385481331E+02  0.78385481331E+02  0.00000000000E+00 0. -1.
         -1   -1    0    0    0  501 -0.00000000000E+00 -0.00000000000E+00 -0.33156334169E+03  0.33156334169E+03  0.00000000000E+00 0.  1.
         25    2    1    2    0    0 -0.10549931890E+03  0.12429121102E+02 -0.20262405472E+03  0.26074804446E+03  0.12509374803E+03 0.  0.
         23    2    1    2    0    0  0.10549931890E+03 -0.12429121102E+02 -0.50553805640E+02  0.14920077857E+03  0.91763803981E+02 0.  0.
          5    1    3    3  502    0 -0.10706758496E+03 -0.37691438233E+02 -0.14638375298E+03  0.18528299383E+03  0.41800000000E+01 0.  1.
         -5    1    3    3    0  502  0.15682660604E+01  0.50120559335E+02 -0.56240301737E+02  0.75465050626E+02  0.41800000000E+01 0.  1.
        -11    1    4    4    0    0  0.30845849240E+02 -0.41317476902E+02  0.49408914436E+01  0.51797806142E+02  0.00000000000E+00 0. -1.
         11    1    4    4    0    0  0.74653469658E+02  0.28888355800E+02 -0.55494697083E+02  0.97402972425E+02  0.00000000000E+00 0.  1.
</event>
<event>
 8    1  0.7016814E-009  0.1421219E+03  0.7561462E-02  0.1210502E+00
          2   -1    0    0  501    0  0.00000000000E+00  0.00000000000E+00  0.24485087056E+03  0.24485087056E+03  0.00000000000E+00 0.  1.
         -2   -1    0    0    0  501 -0.00000000000E+00 -0.00000000000E+00 -0.99738359239E+02  0.99738359239E+02  0.00000000000E+00 0. -1.
         25    2    1    2    0    0  0.75039419524E+01 -0.11022357652E+03  0.10172639137E+03  0.19544657189E+03  0.12508220416E+03 0.  0.
         23    2    1    2    0    0 -0.75039419524E+01  0.11022357652E+03  0.43386119954E+02  0.14914265791E+03  0.90308532470E+02 0.  0.
          5    1    3    3  502    0  0.59428522428E+02 -0.74782564509E+02  0.90102482016E+02  0.13137774126E+03  0.41800000000E+01 0.  1.
         -5    1    3    3    0  502 -0.51924580476E+02 -0.35441012016E+02  0.11623909354E+02  0.64068830635E+02  0.41800000000E+01 0.  1.
        -11    1    4    4    0    0 -0.19471519229E+02  0.11186473225E+03  0.60138558358E+02  0.12848931701E+03  0.00000000000E+00 0.  1.
         11    1    4    4    0    0  0.11967577277E+02 -0.16411557287E+01 -0.16752438404E+02  0.20653340904E+02  0.00000000000E+00 0. -1.
</event>
<event>
 8    1  0.7016814E-009  0.1491306E+03  0.7561462E-02  0.1201545E+00
         -2   -1    0    0    0  501 -0.00000000000E+00  0.00000000000E+00  0.39724767901E+02  0.39724767901E+02  0.00000000000E+00 0.  1.
          2   -1    0    0  501    0  0.00000000000E+00 -0.00000000000E+00 -0.67631512930E+03  0.67631512930E+03  0.00000000000E+00 0. -1.
         25    2    1    2    0    0  0.52972642563E+02 -0.97041781685E+02 -0.22431141964E+03  0.27961112491E+03  0.12507421772E+03 0.  0.
         23    2    1    2    0    0 -0.52972642563E+02  0.97041781685E+02 -0.41227894175E+03  0.43642877229E+03  0.90955699189E+02 0.  0.
          5    1    3    3  502    0  0.33723635276E+01  0.27936672792E+02 -0.65947263692E+02  0.71821615903E+02  0.41800000000E+01 0.  1.
         -5    1    3    3    0  502  0.49600279035E+02 -0.12497845448E+03 -0.15836415595E+03  0.20778950901E+03  0.41800000000E+01 0.  1.
        -11    1    4    4    0    0  0.60125867421E+01  0.70241819670E+02 -0.28524151253E+03  0.29382441169E+03  0.00000000000E+00 0. -1.
         11    1    4    4    0    0 -0.58985229305E+02  0.26799962015E+02 -0.12703742922E+03  0.14260436060E+03  0.00000000000E+00 0.  1.
</event>
<event>
 8    1  0.7016814E-009  0.1943372E+03  0.7561462E-02  0.1154607E+00
          1   -1    0    0  501    0  0.00000000000E+00  0.00000000000E+00  0.59949052920E+03  0.59949052920E+03  0.00000000000E+00 0. -1.
         -1   -1    0    0    0  501 -0.00000000000E+00 -0.00000000000E+00 -0.67366485158E+02  0.67366485158E+02  0.00000000000E+00 0.  1.
         25    2    1    2    0    0 -0.11017168575E+02  0.16716504406E+03  0.31789304035E+03  0.38048520537E+03  0.12508987349E+03 0.  0.
         23    2    1    2    0    0  0.11017168575E+02 -0.16716504406E+03  0.21423100370E+03  0.28637180899E+03  0.89712652839E+02 0.  0.
          5    1    3    3  502    0 -0.63771193754E+02  0.12555073913E+03  0.23090627053E+03  0.27049016880E+03  0.41800000000E+01 0. -1.
         -5    1    3    3    0  502  0.52754025178E+02  0.41614304930E+02  0.86986769813E+02  0.10999503657E+03  0.41800000000E+01 0. -1.
        -11    1    4    4    0    0 -0.28099769109E+02 -0.56590266608E+02  0.12114802831E+03  0.13663418336E+03  0.00000000000E+00 0.  1.
         11    1    4    4    0    0  0.39116937684E+02 -0.11057477745E+03  0.93082975385E+02  0.14973762563E+03  0.00000000000E+00 0. -1.
</event>
<event>
 8    1  0.7016814E-009  0.1175983E+03  0.7561462E-02  0.1247113E+00
          1   -1    0    0  501    0  0.00000000000E+00  0.00000000000E+00  0.15324752365E+04  0.15324752365E+04  0.00000000000E+00 0. -1.
         -1   -1    0    0    0  501 -0.00000000000E+00 -0.00000000000E+00 -0.19141863888E+02  0.19141863888E+02  0.00000000000E+00 0.  1.
         25    2    1    2    0    0 -0.89817209877E+02 -0.13787042949E+02  0.12323891735E+04  0.12420497291E+04  0.12508893183E+03 0.  0.
         23    2    1    2    0    0  0.89817209877E+02  0.13787042949E+02  0.28094419910E+03  0.30956737127E+03  0.92979033144E+02 0.  0.
          5    1    3    3  502    0 -0.84149746268E+02 -0.31193832183E+02  0.42267594032E+03  0.43211880066E+03  0.41800000000E+01 0.  1.
         -5    1    3    3    0  502 -0.56674636087E+01  0.17406789234E+02  0.80971323321E+03  0.80993092847E+03  0.41800000000E+01 0.  1.
        -11    1    4    4    0    0  0.17472393415E+02  0.44632325487E+02  0.14249220903E+03  0.15033748250E+03  0.00000000000E+00 0. -1.
         11    1    4    4    0    0  0.72344816462E+02 -0.30845282539E+02  0.13845199006E+03  0.15922988877E+03  0.00000000000E+00 0.  1.
</event>
<event>
 8    1  0.7016814E-009  0.1014270E+03  0.7561462E-02  0.1277324E+00
          1   -1    0    0  501    0  0.00000000000E+00  0.00000000000E+00  0.15269658268E+02  0.15269658268E+02  0.00000000000E+00 0. -1.
         -1   -1    0    0    0  501 -0.00000000000E+00 -0.00000000000E+00 -0.90930596304E+03  0.90930596304E+03  0.00000000000E+00 0.  1.
         25    2    1    2    0    0 -0.98826965913E+01 -0.42743272622E+02 -0.56235393982E+03  0.57776663201E+03  0.12509065666E+03 0.  0.
         23    2    1    2    0    0  0.98826965913E+01  0.42743272622E+02 -0.33168236495E+03  0.34680898930E+03  0.91316092744E+02 0.  0.
          5    1    3    3  502    0 -0.53681802198E+02 -0.70984004513E+01 -0.43518190004E+03  0.43855772904E+03  0.41800000000E+01 0.  1.
         -5    1    3    3    0  502  0.43799105607E+02 -0.35644872170E+02 -0.12717203978E+03  0.13920890297E+03  0.41800000000E+01 0.  1.
        -11    1    4    4    0    0 -0.33328923514E+02  0.34421762187E+02 -0.98793546616E+02  0.10979908792E+03  0.00000000000E+00 0. -1.
         11    1    4    4    0    0  0.43211620105E+02  0.83215104349E+01 -0.23288881833E+03  0.23700990138E+03  0.00000000000E+00 0.  1.
</event>
<event>
 8    1  0.7016814E-009  0.9553885E+02  0.7561462E-02  0.1289967E+00
         -1   -1    0    0    0  501 -0.00000000000E+00  0.00000000000E+00  0.20291945698E+03  0.20291945698E+03  0.00000000000E+00 0.  1.
          1   -1    0    0  501    0  0.00000000000E+00 -0.00000000000E+00 -0.62977927037E+02  0.62977927037E+02  0.00000000000E+00 0. -1.
         25    2    1    2    0    0  0.80741839769E+01 -0.27362638500E+02  0.77658230328E+02  0.14997197941E+03  0.12508751911E+03 0.  0.
         23    2    1    2    0    0 -0.80741839769E+01  0.27362638500E+02  0.62283299614E+02  0.11592540460E+03  0.93517824982E+02 0.  0.
          5    1    3    3  502    0  0.19902024582E+02  0.41841524010E+02  0.62687951002E+02  0.78064430535E+02  0.41800000000E+01 0.  1.
         -5    1    3    3    0  502 -0.11827840605E+02 -0.69204162510E+02  0.14970279326E+02  0.71907548875E+02  0.41800000000E+01 0.  1.
        -11    1    4    4    0    0 -0.36813021483E+02  0.26702169238E+02 -0.19852589241E+01  0.45520826505E+02  0.00000000000E+00 0. -1.
         11    1    4    4    0    0  0.28738837506E+02  0.66046926198E+00  0.64268558538E+02  0.70404578099E+02  0.00000000000E+00 0.  1.
</event>
<event>
 8    1  0.7016814E-009  0.1112278E+03  0.7561462E-02  0.1258313E+00
         -4   -1    0    0    0  501 -0.00000000000E+00  0.00000000000E+00  0.23353837405E+03  0.23353837405E+03  0.00000000000E+00 0.  1.
          4   -1    0    0  501    0  0.00000000000E+00 -0.00000000000E+00 -0.90441385474E+02  0.90441385474E+02  0.00000000000E+00 0. -1.
         25    2    1    2    0    0  0.42068718244E+02 -0.28028689264E+02 -0.14416614174E+02  0.13568381791E+03  0.12508747021E+03 0.  0.
         23    2    1    2    0    0 -0.42068718244E+02  0.28028689264E+02  0.15751360275E+03  0.18829594161E+03  0.89941325870E+02 0.  0.
          5    1    3    3  502    0  0.60596636913E+02 -0.62474194407E+02  0.12491802486E+02  0.88025535507E+02  0.41800000000E+01 0. -1.
         -5    1    3    3    0  502 -0.18527918669E+02  0.34445505143E+02 -0.26908416660E+02  0.47658282406E+02  0.41800000000E+01 0. -1.
        -11    1    4    4    0    0 -0.46575212751E+00 -0.26998072007E+02  0.80481601777E+02  0.84890523863E+02  0.00000000000E+00 0.  1.
         11    1    4    4    0    0 -0.41602966116E+02  0.55026761271E+02  0.77032000975E+02  0.10340541775E+03  0.00000000000E+00 0. -1.
</event>
<event>
 8    1  0.7016814E-009  0.8604117E+02  0.7561462E-02  0.1312732E+00
          1   -1    0    0  501    0  0.00000000000E+00  0.00000000000E+00  0.53034369971E+03  0.53034369971E+03  0.00000000000E+00 0. -1.
         -1   -1    0    0    0  501 -0.00000000000E+00 -0.00000000000E+00 -0.27648908342E+02  0.27648908342E+02  0.00000000000E+00 0.  1.
         25    2    1    2    0    0  0.60265276136E+01  0.45168523586E+02  0.21763387754E+03  0.25512537028E+03  0.12509170777E+03 0.  0.
         23    2    1    2    0    0 -0.60265276136E+01 -0.45168523586E+02  0.28506091382E+03  0.30286723776E+03  0.91609631386E+02 0.  0.
          5    1    3    3  502    0  0.44530779128E+02  0.96147457249E+01  0.18804200280E+02  0.49462146873E+02  0.41800000000E+01 0.  1.
         -5    1    3    3    0  502 -0.38504251515E+02  0.35553777861E+02  0.19882967726E+03  0.20566322341E+03  0.41800000000E+01 0.  1.
        -11    1    4    4    0    0 -0.45054987398E+01  0.13930274203E+02  0.33488342468E+01  0.15018879755E+02  0.00000000000E+00 0.  1.
         11    1    4    4    0    0 -0.15210288737E+01 -0.59098797790E+02  0.28171207958E+03  0.28784835801E+03  0.00000000000E+00 0. -1.
</event>
<event>
 8    1  0.7016814E-009  0.1394869E+03  0.7561462E-02  0.1214021E+00
         -2   -1    0    0    0  501 -0.00000000000E+00  0.00000000000E+00  0.36126100548E+02  0.36126100548E+02  0.00000000000E+00 0. -1.
          2   -1    0    0  501    0  0.00000000000E+00 -0.00000000000E+00 -0.85200994042E+03  0.85200994042E+03  0.00000000000E+00 0.  1.
         25    2    1    2    0    0 -0.59666871748E+02 -0.78747886635E+02 -0.68381700972E+03  0.70214981739E+03  0.12508916039E+03 0.  0.
         23    2    1    2    0    0  0.59666871748E+02  0.78747886635E+02 -0.13206683015E+03  0.18598622358E+03  0.85952675933E+02 0.  0.
          5    1    3    3  502    0 -0.13595233275E+02 -0.10124514717E+03 -0.53530627493E+03  0.54498228464E+03  0.41800000000E+01 0.  1.
         -5    1    3    3    0  502 -0.46071638473E+02  0.22497260535E+02 -0.14851073479E+03  0.15716753275E+03  0.41800000000E+01 0.  1.
        -11    1    4    4    0    0 -0.29192465509E+01  0.59843016139E+02 -0.36372281541E+02  0.70090309213E+02  0.00000000000E+00 0.  1.
         11    1    4    4    0    0  0.62586118298E+02  0.18904870496E+02 -0.95694548613E+02  0.11589591436E+03  0.00000000000E+00 0. -1.
</event>
<event>
 8    1  0.7016814E-009  0.9930932E+02  0.7561462E-02  0.1281755E+00
         -2   -1    0    0    0  501 -0.00000000000E+00  0.00000000000E+00  0.76607158133E+02  0.76607158133E+02  0.00000000000E+00 0.  1.
          2   -1    0    0  501    0  0.00000000000E+00 -0.00000000000E+00 -0.19878647202E+03  0.19878647202E+03  0.00000000000E+00 0. -1.
         25    2    1    2    0    0  0.48450112029E+02 -0.26333588938E+02 -0.85249667034E+02  0.16111209252E+03  0.12509488145E+03 0.  0.
         23    2    1    2    0    0 -0.48450112029E+02  0.26333588938E+02 -0.36929646853E+02  0.11428153763E+03  0.93035475842E+02 0.  0.
          5    1    3    3  502    0  0.57152280772E+01  0.31651113571E+02 -0.82791621878E+02  0.88917837780E+02  0.41800000000E+01 0. -1.
         -5    1    3    3    0  502  0.42734883952E+02 -0.57984702510E+02 -0.24580451567E+01  0.72194254740E+02  0.41800000000E+01 0. -1.
        -11    1    4    4    0    0 -0.67179656022E+02  0.32073604961E+02 -0.50934730883E+02  0.90200715787E+02  0.00000000000E+00 0. -1.
         11    1    4    4    0    0  0.18729543993E+02 -0.57400160222E+01  0.14005084030E+02  0.24080821846E+02  0.00000000000E+00 0.  1.
</event>
<event>
 8    1  0.7016814E-009  0.1090534E+03  0.7561462E-02  0.1262333E+00
          1   -1    0    0  501    0  0.00000000000E+00  0.00000000000E+00  0.29089507744E+03  0.29089507744E+03  0.00000000000E+00 0. -1.
         -1   -1    0    0    0  501 -0.00000000000E+00 -0.00000000000E+00 -0.48743300145E+02  0.48743300145E+02  0.00000000000E+00 0.  1.
         25    2    1    2    0    0 -0.36697615217E+02  0.27307389941E+02  0.16856793593E+03  0.21483525192E+03  0.12508648182E+03 0.  0.
         23    2    1    2    0    0  0.36697615217E+02 -0.27307389941E+02  0.73583841366E+02  0.12480312567E+03  0.89826666190E+02 0.  0.
          5    1    3    3  502    0 -0.41871014410E+02  0.66655272883E+02  0.59694678077E+02  0.98878886733E+02  0.41800000000E+01 0.  1.
         -5    1    3    3    0  502  0.51733991923E+01 -0.39347882941E+02  0.10887325785E+03  0.11595636518E+03  0.41800000000E+01 0.  1.
        -11    1    4    4    0    0 -0.15381855777E+02 -0.42439685523E+02  0.43945529799E+02  0.62999507806E+02  0.00000000000E+00 0. -1.
         11    1    4    4    0    0  0.52079470994E+02  0.15132295581E+02  0.29638311567E+02  0.61803617865E+02  0.00000000000E+00 0.  1.
</event>
<event>
 8    1  0.7016814E-009  0.1716155E+03  0.7561462E-02  0.1176174E+00
         -2   -1    0    0    0  501 -0.00000000000E+00  0.00000000000E+00  0.39352175107E+02  0.39352175107E+02  0.00000000000E+00 0. -1.
          2   -1    0    0  501    0  0.00000000000E+00 -0.00000000000E+00 -0.85738834226E+03  0.85738834226E+03  0.00000000000E+00 0.  1.
         25    2    1    2    0    0 -0.74923396903E+02  0.10992962150E+03 -0.57862157273E+03  0.60675209261E+03  0.12508853013E+03 0.  0.
         23    2    1    2    0    0  0.74923396903E+02 -0.10992962150E+03 -0.23941459442E+03  0.28998842475E+03  0.95267525341E+02 0.  0.
          5    1    3    3  502    0 -0.10074069590E+03  0.40988898118E+02 -0.35043130478E+03  0.36694461346E+03  0.41800000000E+01 0.  1.
         -5    1    3    3    0  502  0.25817298997E+02  0.68940723379E+02 -0.22819026796E+03  0.23980747915E+03  0.41800000000E+01 0.  1.
        -11    1    4    4    0    0  0.95223259683E+02 -0.79348710863E+02 -0.20564730736E+03  0.24011351925E+03  0.00000000000E+00 0.  1.
         11    1    4    4    0    0 -0.20299862780E+02 -0.30580910634E+02 -0.33767287055E+02  0.49874905505E+02  0.00000000000E+00 0. -1.
</event>
<event>
 8    1  0.7016814E-009  0.3278505E+03  0.7561462E-02  0.1072092E+00
          2   -1    0    0  501    0  0.00000000000E+00  0.00000000000E+00  0.10443228736E+04  0.10443228736E+04  0.00000000000E+00 0. -1.
         -2   -1    0    0    0  501 -0.00000000000E+00 -0.00000000000E+00 -0.10928349139E+03  0.10928349139E+03  0.00000000000E+00 0.  1.
         25    2    1    2    0    0  0.29370809600E+03  0.11292926566E+03  0.56791104646E+03  0.66120204065E+03  0.12509083572E+03 0.  0.
         23    2    1    2    0    0 -0.29370809600E+03 -0.11292926566E+03  0.36712833574E+03  0.49240432432E+03  0.93066315146E+02 0.  0.
          5    1    3    3  502    0  0.25987460496E+03  0.13907279665E+03  0.51052986126E+03  0.58952036836E+03  0.41800000000E+01 0. -1.
         -5    1    3    3    0  502  0.33833491034E+02 -0.26143530992E+02  0.57381185199E+02  0.71681672296E+02  0.41800000000E+01 0. -1.
        -11    1    4    4    0    0 -0.15409260684E+03 -0.34800343435E+02  0.12161862819E+03  0.19936570946E+03  0.00000000000E+00 0.  1.
         11    1    4    4    0    0 -0.13961548915E+03 -0.78128922227E+02  0.24550970754E+03  0.29303861486E+03  0.00000000000E+00 0. -1.
</event>
<event>
 8    1  0.7016814E-009  0.1175378E+03  0.7561462E-02  0.1247215E+00
          2   -1    0    0  501    0  0.00000000000E+00  0.00000000000E+00  0.59824385559E+02  0.59824385559E+02  0.00000000000E+00 0. -1.
         -2   -1    0    0    0  501 -0.00000000000E+00 -0.00000000000E+00 -0.55890800730E+03  0.55890800730E+03  0.00000000000E+00 0.  1.
         25    2    1    2    0    0  0.97389416846E+02  0.28940092626E+02 -0.83156792171E+02  0.18134112059E+03  0.12508925796E+03 0.  0.
         23    2    1    2    0    0 -0.97389416846E+02 -0.28940092626E+02 -0.41592682957E+03  0.43739127227E+03  0.89407885705E+02 0.  0.
          5    1    3    3  502    0  0.54123737993E+02  0.27000597180E+02  0.24370896947E+02  0.65343892449E+02  0.41800000000E+01 0.  1.
         -5    1    3    3    0  502  0.43265678853E+02  0.19394954465E+01 -0.10752768912E+03  0.11599722814E+03  0.41800000000E+01 0.  1.
        -11    1    4    4    0    0 -0.53206986384E+02  0.26989330217E+02 -0.24580604241E+03  0.25294271651E+03  0.00000000000E+00 0.  1.
         11    1    4    4    0    0 -0.44182430462E+02 -0.55929422842E+02 -0.17012078716E+03  0.18444855577E+03  0.00000000000E+00 0. -1.
</event>
<event>
 8    1  0.7016814E-009  0.1201411E+03  0.7561462E-02  0.1242864E+00
         -2   -1    0    0    0  501 -0.00000000000E+00  0.00000000000E+00  0.32280859546E+02  0.32280859546E+02  0.00000000000E+00 0.  1.
          2   -1    0    0  501    0  0.00000000000E+00 -0.00000000000E+00 -0.57976664038E+03  0.57976664038E+03  0.00000000000E+00 0. -1.
         25    2    1    2    0    0  0.54234549438E+02 -0.41413236321E+02 -0.17911697851E+03  0.22888250940E+03  0.12509144105E+03 0.  0.
         23    2    1    2    0    0 -0.54234549438E+02  0.41413236321E+02 -0.36836880232E+03  0.38316499052E+03  0.80395229598E+02 0.  0.
          5    1    3    3  502    0 -0.11504632147E+02  0.35382574481E+02 -0.74301501321E+02  0.83201374005E+02  0.41800000000E+01 0. -1.
         -5    1    3    3    0  502  0.65739181585E+02 -0.76795810803E+02 -0.10481547719E+03  0.14568113540E+03  0.41800000000E+01 0. -1.
        -11    1    4    4    0    0 -0.71698176474E+02  0.20810521865E+02 -0.30980188321E+03  0.31867054017E+03  0.00000000000E+00 0.  1.
         11    1    4    4    0    0  0.17463627036E+02  0.20602714457E+02 -0.58566919108E+02  0.64494450351E+02  0.00000000000E+00 0. -1.
</event>
<event>
 8    1  0.7016814E-009  0.9589645E+02  0.7561462E-02  0.1289170E+00
         -1   -1    0    0    0  501 -0.00000000000E+00  0.00000000000E+00  0.98563029286E+01  0.98563029286E+01  0.00000000000E+00 0.  1.
          1   -1    0    0  501    0  0.00000000000E+00 -0.00000000000E+00 -0.15711938684E+04  0.15711938684E+04  0.00000000000E+00 0. -1.
         25    2    1    2    0    0  0.19112566839E+02  0.13746271647E+01 -0.12556560023E+04  0.12620165361E+04  0.12508621642E+03 0.  0.
         23    2    1    2    0    0 -0.19112566839E+02 -0.13746271647E+01 -0.30568156316E+03  0.31903363519E+03  0.89297606435E+02 0.  0.
          5    1    3    3  502    0  0.36858158755E+02 -0.40721286197E+02 -0.10437201299E+04  0.10451726791E+04  0.41800000000E+01 0. -1.
         -5    1    3    3    0  502 -0.17745591916E+02  0.42095913361E+02 -0.21193587235E+03  0.21684385706E+03  0.41800000000E+01 0. -1.
        -11    1    4    4    0    0  0.33122079050E+02 -0.15724349882E+02 -0.13999143367E+03  0.14471326408E+03  0.00000000000E+00 0. -1.
         11    1    4    4    0    0 -0.52234645889E+02  0.14349722717E+02 -0.16569012950E+03  0.17432037112E+03  0.00000000000E+00 0.  1.
</event>
<event>
 8    1  0.7016814E-009  0.1294997E+03  0.7561462E-02  0.1228200E+00
          1   -1    0    0  501    0  0.00000000000E+00  0.00000000000E+00  0.14718308868E+03  0.14718308868E+03  0.00000000000E+00 0. -1.
         -1   -1    0    0    0  501 -0.00000000000E+00 -0.00000000000E+00 -0.14050850733E+03  0.14050850733E+03  0.00000000000E+00 0.  1.
         25    2    1    2    0    0  0.73018082811E+02 -0.29456567686E+02  0.52447475076E+02  0.15684596123E+03  0.12510231059E+03 0.  0.
         23    2    1    2    0    0 -0.73018082811E+02  0.29456567686E+02 -0.45772893720E+02  0.13084563479E+03  0.93947285996E+02 0.  0.
          5    1    3    3  502    0 -0.62532253958E+01 -0.59044726855E+02  0.49608946044E+01  0.59728263599E+02  0.41800000000E+01 0. -1.
         -5    1    3    3    0  502  0.79271308207E+02  0.29588159169E+02  0.47486580471E+02  0.97117697628E+02  0.41800000000E+01 0. -1.
        -11    1    4    4    0    0 -0.34065689352E+01  0.43595305217E+02  0.42981449321E+01  0.43938928056E+02  0.00000000000E+00 0.  1.
         11    1    4    4    0    0 -0.69611513876E+02 -0.14138737531E+02 -0.50071038653E+02  0.86906706731E+02  0.00000000000E+00 0. -1.
</event>
<event>
 8    1  0.7016814E-009  0.8569328E+02  0.7561462E-02  0.1313629E+00
         -2   -1    0    0    0  501 -0.00000000000E+00  0.00000000000E+00  0.32362985350E+02  0.32362985350E+02  0.00000000000E+00 0.  1.
          2   -1    0    0  501    0  0.00000000000E+00 -0.00000000000E+00 -0.52246172966E+03  0.52246172966E+03  0.00000000000E+00 0. -1.
         25    2    1    2    0    0 -0.58572188464E+02 -0.34080791947E+02 -0.30605440253E+03  0.33750377176E+03  0.12508915622E+03 0.  0.
         23    2    1    2    0    0  0.58572188464E+02  0.34080791947E+02 -0.18404434178E+03  0.21732094325E+03  0.93615548881E+02 0.  0.
          5    1    3    3  502    0 -0.42612466174E+02 -0.47843627263E+02 -0.30919473834E+03  0.31579058497E+03  0.41800000000E+01 0. -1.
         -5    1    3    3    0  502 -0.15959722290E+02  0.13762835317E+02  0.31403358044E+01  0.21713186788E+02  0.41800000000E+01 0. -1.
        -11    1    4    4    0    0  0.32447305285E+02 -0.10432393891E+02 -0.96117348973E+01  0.35412538885E+02  0.00000000000E+00 0.  1.
         11    1    4    4    0    0  0.26124883179E+02  0.44513185838E+02 -0.17443260688E+03  0.18190840436E+03  0.00000000000E+00 0. -1.
</event>
<event>
 8    1  0.7016814E-009  0.1038706E+03  0.7561462E-02  0.1272361E+00
         -1   -1    0    0    0  501 -0.00000000000E+00  0.00000000000E+00  0.12043488602E+03  0.12043488602E+03  0.00000000000E+00 0.  1.
          1   -1    0    0  501    0  0.00000000000E+00 -0.00000000000E+00 -0.10396651606E+03  0.10396651606E+03  0.00000000000E+00 0. -1.
         25    2    1    2    0    0 -0.84566616948E+00 -0.30966161618E+02  0.12464667622E+02  0.12946951066E+03  0.12508943974E+03 0.  0.
         23    2    1    2    0    0  0.84566616948E+00  0.30966161618E+02  0.40037023389E+01  0.94931891428E+02  0.89646059931E+02 0.  0.
          5    1    3    3  502    0  0.52617416354E+01 -0.72075362384E+02 -0.21630784072E+02  0.75550691641E+02  0.41800000000E+01 0.  1.
         -5    1    3    3    0  502 -0.61074078048E+01  0.41109200766E+02  0.34095451695E+02  0.53918819015E+02  0.41800000000E+01 0.  1.
        -11    1    4    4    0    0 -0.28164379364E+02 -0.20272748162E+02 -0.59707127163E+01  0.35211730905E+02  0.00000000000E+00 0. -1.
         11    1    4    4    0    0  0.29010045533E+02  0.51238909780E+02  0.99744150552E+01  0.59720160523E+02  0.00000000000E+00 0.  1.
</event>
<event>
 8    1  0.7016814E-009  0.9956404E+02  0.7561462E-02  0.1281215E+00
          1   -1    0    0  501    0  0.00000000000E+00  0.00000000000E+00  0.46138759601E+03  0.46138759601E+03  0.00000000000E+00 0. -1.
         -1   -1    0    0    0  501 -0.00000000000E+00 -0.00000000000E+00 -0.31123322484E+02  0.31123322484E+02  0.00000000000E+00 0.  1.
         25    2    1    2    0    0 -0.30366858822E+02 -0.26271502503E+02  0.29987731374E+03  0.32739324482E+03  0.12509034935E+03 0.  0.
         23    2    1    2    0    0  0.30366858822E+02  0.26271502503E+02  0.13038695979E+03  0.16511767368E+03  0.93009402312E+02 0.  0.
          5    1    3    3  502    0  0.38967571005E+02 -0.24004671817E+02  0.20317677638E+03  0.20830979506E+03  0.41800000000E+01 0. -1.
         -5    1    3    3    0  502 -0.69334429827E+02 -0.22668306861E+01  0.96700537361E+02  0.11908344976E+03  0.41800000000E+01 0. -1.
        -11    1    4    4    0    0 -0.61822443645E+01 -0.22155065804E+02  0.88378931996E+02  0.91323067770E+02  0.00000000000E+00 0. -1.
         11    1    4    4    0    0  0.36549103186E+02  0.48426568306E+02  0.42008027793E+02  0.73794605905E+02  0.00000000000E+00 0.  1.
</event>
<event>
 8    1  0.7016814E-009  0.1919582E+03  0.7561462E-02  0.1156707E+00
         -1   -1    0    0    0  501 -0.00000000000E+00  0.00000000000E+00  0.10721666930E+03  0.10721666930E+03  0.00000000000E+00 0.  1.
          1   -1    0    0  501    0  0.00000000000E+00 -0.00000000000E+00 -0.42042623849E+03  0.42042623849E+03  0.00000000000E+00 0. -1.
         25    2    1    2    0    0 -0.62435057892E+01 -0.17740680479E+03 -0.11201162023E+03  0.24434886910E+03  0.12509041136E+03 0.  0.
         23    2    1    2    0    0  0.62435057892E+01  0.17740680479E+03 -0.20119794896E+03  0.28329403869E+03  0.90899625643E+02 0.  0.
          5    1    3    3  502    0 -0.30087130883E+02 -0.14674434892E+03 -0.29044038301E+02  0.15264392535E+03  0.41800000000E+01 0. -1.
         -5    1    3    3    0  502  0.23843625093E+02 -0.30662455871E+02 -0.82967581932E+02  0.91704943756E+02  0.41800000000E+01 0. -1.
        -11    1    4    4    0    0  0.41790450673E+02  0.66598744006E+02 -0.52793143921E+02  0.94704543268E+02  0.00000000000E+00 0.  1.
         11    1    4    4    0    0 -0.35546944884E+02  0.11080806078E+03 -0.14840480504E+03  0.18858949542E+03  0.00000000000E+00 0. -1.
</event>
<event>
 8    1  0.7016814E-009  0.9075354E+02  0.7561462E-02  0.1301037E+00
         -1   -1    0    0    0  501 -0.00000000000E+00  0.00000000000E+00  0.27591009256E+03  0.27591009256E+03  0.00000000000E+00 0.  1.
          1   -1    0    0  501    0  0.00000000000E+00 -0.00000000000E+00 -0.90143878488E+02  0.90143878488E+02  0.00000000000E+00 0. -1.
         25    2    1    2    0    0 -0.73922984711E+02  0.19228253479E+01 -0.14151514820E+01  0.14531893442E+03  0.12508910872E+03 0.  0.
         23    2    1    2    0    0  0.73922984711E+02 -0.19228253479E+01  0.18718136556E+03  0.22073503663E+03  0.90657530623E+02 0.  0.
          5    1    3    3  502    0 -0.90072438516E+02  0.58559756687E+01 -0.43200401535E+02  0.10015529803E+03  0.41800000000E+01 0. -1.
         -5    1    3    3    0  502  0.16149453806E+02 -0.39331503207E+01  0.41785250053E+02  0.45163636387E+02  0.41800000000E+01 0. -1.
        -11    1    4    4    0    0  0.39748763765E+02  0.46103638553E+00  0.18175432276E+03  0.18605055930E+03  0.00000000000E+00 0.  1.
         11    1    4    4    0    0  0.34174220945E+02 -0.23838617335E+01  0.54270427986E+01  0.34684477328E+02  0.00000000000E+00 0. -1.
</event>
<event>
 8    1  0.7016814E-009  0.2359083E+03  0.7561462E-02  0.1122549E+00
          2   -1    0    0  501    0  0.00000000000E+00  0.00000000000E+00  0.19387201166E+03  0.19387201166E+03  0.00000000000E+00 0. -1.
         -2   -1    0    0    0  501 -0.00000000000E+00 -0.00000000000E+00 -0.35790251536E+03  0.35790251536E+03  0.00000000000E+00 0.  1.
         25    2    1    2    0    0  0.14558195653E+03 -0.16440801314E+03 -0.18594040212E+03  0.31376131007E+03  0.12509286832E+03 0.  0.
         23    2    1    2    0    0 -0.14558195653E+03  0.16440801314E+03  0.21909898422E+02  0.23801321696E+03  0.89141163028E+02 0.  0.
          5    1    3    3  502    0  0.11492408376E+03 -0.38656775162E+02 -0.70771443279E+02  0.14045625966E+03  0.41800000000E+01 0. -1.
         -5    1    3    3    0  502  0.30657872762E+02 -0.12575123798E+03 -0.11516895884E+03  0.17330505041E+03  0.41800000000E+01 0. -1.
        -11    1    4    4    0    0 -0.14269934402E+03  0.15297107948E+03 -0.43331088003E+01  0.20924155843E+03  0.00000000000E+00 0.  1.
         11    1    4    4    0    0 -0.28826125024E+01  0.11436933665E+02  0.26243007222E+02  0.28771658530E+02  0.00000000000E+00 0. -1.
</event>
<event>
 8    1  0.7016814E-009  0.1004147E+03  0.7561462E-02  0.1279426E+00
         -2   -1    0    0    0  501 -0.00000000000E+00  0.00000000000E+00  0.21368871252E+02  0.21368871252E+02  0.00000000000E+00 0.  1.
          2   -1    0    0  501    0  0.00000000000E+00 -0.00000000000E+00 -0.70545384559E+03  0.70545384559E+03  0.00000000000E+00 0. -1.
         25    2    1    2    0    0  0.31534363615E+02  0.28886828939E+02 -0.50117038347E+03  0.51831292374E+03  0.12509064184E+03 0.  0.
         23    2    1    2    0    0 -0.31534363615E+02 -0.28886828939E+02 -0.18291459087E+03  0.20850979310E+03  0.90497078909E+02 0.  0.
          5    1    3    3  502    0  0.35710833223E+02 -0.28659881722E+02 -0.39268153148E+03  0.39536427506E+03  0.41800000000E+01 0.  1.
         -5    1    3    3    0  502 -0.41764696085E+01  0.57546710661E+02 -0.10848885199E+03  0.12294864868E+03  0.41800000000E+01 0.  1.
        -11    1    4    4    0    0 -0.31747803360E+02  0.26657768582E+02 -0.10443939378E+03  0.11236612753E+03  0.00000000000E+00 0. -1.
         11    1    4    4    0    0  0.21343974468E+00 -0.55544597521E+02 -0.78475197093E+02  0.96143665569E+02  0.00000000000E+00 0.  1.
</event>
<event>
 8    1  0.7016814E-009  0.9811334E+02  0.7561462E-02  0.1284314E+00
         -2   -1    0    0    0  501 -0.00000000000E+00  0.00000000000E+00  0.13829274184E+03  0.13829274184E+03  0.00000000000E+00 0.  1.
          2   -1    0    0  501    0  0.00000000000E+00 -0.00000000000E+00 -0.83800473326E+02  0.83800473326E+02  0.00000000000E+00 0. -1.
         25    2    1    2    0    0  0.85966804257E+01  0.24900087294E+01  0.33397803227E+02  0.12978095170E+03  0.12509028381E+03 0.  0.
         23    2    1    2    0    0 -0.85966804257E+01 -0.24900087294E+01  0.21094465284E+02  0.92312263467E+02  0.89423008577E+02 0.  0.
          5    1    3    3  502    0  0.41357199156E+02 -0.46711254629E+02  0.16410941580E+01  0.62550178426E+02  0.41800000000E+01 0. -1.
         -5    1    3    3    0  502 -0.32760518730E+02  0.49201263359E+02  0.31756709069E+02  0.67230773270E+02  0.41800000000E+01 0. -1.
        -11    1    4    4    0    0 -0.13435772516E+02 -0.37118446791E+02  0.36812869879E+02  0.53976721501E+02  0.00000000000E+00 0.  1.
         11    1    4    4    0    0  0.48390920898E+01  0.34628438061E+02 -0.15718404595E+02  0.38335541966E+02  0.00000000000E+00 0. -1.
</event>
<event>
 8    1  0.7016814E-009  0.1179352E+03  0.7561462E-02  0.1246543E+00
         -3   -1    0    0    0  501 -0.00000000000E+00  0.00000000000E+00  0.20023946065E+02  0.20023946065E+02  0.00000000000E+00 0.  1.
          3   -1    0    0  501    0  0.00000000000E+00 -0.00000000000E+00 -0.11494496009E+04  0.11494496009E+04  0.00000000000E+00 0. -1.
         25    2    1    2    0    0 -0.65390804063E+02 -0.78330378886E+02 -0.73185852243E+03  0.74945049930E+03  0.12509016163E+03 0.  0.
         23    2    1    2    0    0  0.65390804063E+02  0.78330378886E+02 -0.39756713242E+03  0.42002304768E+03  0.89152287055E+02 0.  0.
          5    1    3    3  502    0 -0.30548355120E+02 -0.29213010528E+02 -0.62715651698E+03  0.62859316825E+03  0.41800000000E+01 0.  1.
         -5    1    3    3    0  502 -0.34842448943E+02 -0.49117368358E+02 -0.10470200545E+03  0.12085733105E+03  0.41800000000E+01 0.  1.
        -11    1    4    4    0    0  0.32053767394E+01  0.70249123911E+02 -0.16991628611E+03  0.18389333358E+03  0.00000000000E+00 0.  1.
         11    1    4    4    0    0  0.62185427323E+02  0.80812549757E+01 -0.22765084632E+03  0.23612971410E+03  0.00000000000E+00 0. -1.
</event>
<event>
 8    1  0.7016814E-009  0.1230393E+03  0.7561462E-02  0.1238166E+00
          1   -1    0    0  501    0  0.00000000000E+00  0.00000000000E+00  0.77689731054E+02  0.77689731054E+02  0.00000000000E+00 0.  1.
         -1   -1    0    0    0  501 -0.00000000000E+00 -0.00000000000E+00 -0.24557587475E+03  0.24557587475E+03  0.00000000000E+00 0. -1.
         25    2    1    2    0    0  0.60207330029E+02 -0.62047413073E+02 -0.93533689593E+02  0.17852396454E+03  0.12508977083E+03 0.  0.
         23    2    1    2    0    0 -0.60207330029E+02  0.62047413073E+02 -0.74352454102E+02  0.14474164127E+03  0.89146235068E+02 0.  0.
          5    1    3    3  502    0 -0.27904029577E+02  0.44793999915E+01  0.67037572386E+01  0.29344721025E+02  0.41800000000E+01 0. -1.
         -5    1    3    3    0  502  0.88111359605E+02 -0.66526813065E+02 -0.10023744683E+03  0.14917924351E+03  0.41800000000E+01 0. -1.
        -11    1    4    4    0    0 -0.32638514802E+02  0.70914706812E+02 -0.83561057651E+02  0.11435304389E+03  0.00000000000E+00 0. -1.
         11    1    4    4    0    0 -0.27568815226E+02 -0.88672937385E+01  0.92086035490E+01  0.30388597377E+02  0.00000000000E+00 0.  1.
</event>
<event>
 8    1  0.7016814E-009  0.2129211E+03  0.7561462E-02  0.1139273E+00
          2   -1    0    0  501    0  0.00000000000E+00  0.00000000000E+00  0.28088770026E+03  0.28088770026E+03  0.00000000000E+00 0. -1.
         -2   -1    0    0    0  501 -0.00000000000E+00 -0.00000000000E+00 -0.19411084350E+03  0.19411084350E+03  0.00000000000E+00 0.  1.
         25    2    1    2    0    0 -0.18571607165E+03 -0.88028036270E+02  0.57749324391E+02  0.24743058903E+03  0.12509003751E+03 0.  0.
         23    2    1    2    0    0  0.18571607165E+03  0.88028036270E+02  0.29027532375E+02  0.22756795472E+03  0.93301564532E+02 0.  0.
          5    1    3    3  502    0 -0.10615474665E+03 -0.14601343773E+02 -0.26172908728E+02  0.11038352698E+03  0.41800000000E+01 0. -1.
         -5    1    3    3    0  502 -0.79561324996E+02 -0.73426692497E+02  0.83922233119E+02  0.13704706205E+03  0.41800000000E+01 0. -1.
        -11    1    4    4    0    0  0.12253898674E+03  0.34097058530E+02  0.57731147665E+02  0.13968284820E+03  0.00000000000E+00 0. -1.
         11    1    4    4    0    0  0.63177084908E+02  0.53930977739E+02 -0.28703615291E+02  0.87885106520E+02  0.00000000000E+00 0.  1.
</event>
<event>
 8    1  0.7016814E-009  0.1390993E+03  0.7561462E-02  0.1214546E+00
         -2   -1    0    0    0  501 -0.00000000000E+00  0.00000000000E+00  0.27733272894E+02  0.27733272894E+02  0.00000000000E+00 0.  1.
          2   -1    0    0  501    0  0.00000000000E+00 -0.00000000000E+00 -0.80800873754E+03  0.80800873754E+03  0.00000000000E+00 0. -1.
         25    2    1    2    0    0  0.77715126817E+02 -0.44217239275E+02 -0.53810589701E+03  0.55964360522E+03  0.12509277870E+03 0.  0.
         23    2    1    2    0    0 -0.77715126817E+02  0.44217239275E+02 -0.24216956764E+03  0.27609840522E+03  0.97925607921E+02 0.  0.
          5    1    3    3  502    0  0.11100544093E+03 -0.45803257318E+02 -0.41707125543E+03  0.43403461936E+03  0.41800000000E+01 0. -1.
         -5    1    3    3    0  502 -0.33290314111E+02  0.15860180433E+01 -0.12103464158E+03  0.12560898586E+03  0.41800000000E+01 0. -1.
        -11    1    4    4    0    0 -0.59975678012E+02 -0.15673620761E+02 -0.73021013741E+02  0.95785243063E+02  0.00000000000E+00 0.  1.
         11    1    4    4    0    0 -0.17739448805E+02  0.59890860036E+02 -0.16914855390E+03  0.18031316215E+03  0.00000000000E+00 0. -1.
</event>
<event>
 8    1  0.7016814E-009  0.1886858E+03  0.7561462E-02  0.1159652E+00
          2   -1    0    0  501    0  0.00000000000E+00  0.00000000000E+00  0.62358625817E+03  0.62358625817E+03  0.00000000000E+00 0. -1.
         -2   -1    0    0    0  501 -0.00000000000E+00 -0.00000000000E+00 -0.63565640468E+02  0.63565640468E+02  0.00000000000E+00 0.  1.
         25    2    1    2    0    0  0.16474190411E+03  0.41737367042E+01  0.34564011213E+03  0.40282812924E+03  0.12508436969E+03 0.  0.
         23    2    1    2    0    0 -0.16474190411E+03 -0.41737367042E+01  0.21438050557E+03  0.28432376940E+03  0.87884524417E+02 0.  0.
          5    1    3    3  502    0  0.62701093267E+02 -0.58251725539E+02  0.12066712583E+03  0.14799566981E+03  0.41800000000E+01 0.  1.
         -5    1    3    3    0  502  0.10204081084E+03  0.62425462243E+02  0.22497298630E+03  0.25483245943E+03  0.41800000000E+01 0.  1.
        -11    1    4    4    0    0 -0.61370946623E+02 -0.25474549993E+02  0.14071543660E+03  0.15561548729E+03  0.00000000000E+00 0. -1.
         11    1    4    4    0    0 -0.10337095748E+03  0.21300813289E+02  0.73665068964E+02  0.12870828211E+03  0.00000000000E+00 0.  1.
</event>
<event>
 8    1  0.7016814E-009  0.1753638E+03  0.7561462E-02  0.1172367E+00
         -1   -1    0    0    0  501 -0.00000000000E+00  0.00000000000E+00  0.37831988013E+03  0.37831988013E+03  0.00000000000E+00 0.  1.
          1   -1    0    0  501    0  0.00000000000E+00 -0.00000000000E+00 -0.20708913634E+03  0.20708913634E+03  0.00000000000E+00 0. -1.
         25    2    1    2    0    0  0.10901095094E+03  0.12925595470E+03 -0.11574718084E+03  0.24007659747E+03  0.12509545768E+03 0.  0.
         23    2    1    2    0    0 -0.10901095094E+03 -0.12925595470E+03  0.28697792463E+03  0.34533241900E+03  0.91146372069E+02 0.  0.
          5    1    3    3  502    0 -0.58626471327E+01  0.45517730845E+00  0.19486730478E+02  0.20779385999E+02  0.41800000000E+01 0.  1.
         -5    1    3    3    0  502  0.11487359807E+03  0.12880077739E+03 -0.13523391131E+03  0.21929721147E+03  0.41800000000E+01 0.  1.
        -11    1    4    4    0    0 -0.56692307095E+02 -0.48250572257E+02  0.20723270365E+03  0.22019883939E+03  0.00000000000E+00 0.  1.
         11    1    4    4    0    0 -0.52318643842E+02 -0.81005382439E+02  0.79745220980E+02  0.12513357961E+03  0.00000000000E+00 0. -1.
</event>
<event>
 8    1  0.7016814E-009  0.8943142E+02  0.7561462E-02  0.1304234E+00
         -1   -1    0    0    0  501 -0.00000000000E+00  0.00000000000E+00  0.26378493345E+02  0.26378493345E+02  0.00000000000E+00 0.  1.
          1   -1    0    0  501    0  0.00000000000E+00 -0.00000000000E+00 -0.61045756054E+03  0.61045756054E+03  0.00000000000E+00 0. -1.
         25    2    1    2    0    0 -0.74768609138E+00 -0.63745034126E+02 -0.39111389838E+03  0.41554897335E+03  0.12508748674E+03 0.  0.
         23    2    1    2    0    0  0.74768609138E+00  0.63745034126E+02 -0.19296516882E+03  0.22128708053E+03  0.87569556490E+02 0.  0.
          5    1    3    3  502    0 -0.81607543156E+01 -0.82723555004E+02 -0.38496546305E+03  0.39385995557E+03  0.41800000000E+01 0. -1.
         -5    1    3    3    0  502  0.74130682242E+01  0.18978520878E+02 -0.61484353274E+01  0.21689017778E+02  0.41800000000E+01 0. -1.
        -11    1    4    4    0    0  0.18602935029E+02  0.46182145744E+02 -0.18958638229E+03  0.19601493853E+03  0.00000000000E+00 0. -1.
         11    1    4    4    0    0 -0.17855248938E+02  0.17562888381E+02 -0.33787865258E+01  0.25272142001E+02  0.00000000000E+00 0.  1.
</event>
<event>
 8    1  0.7016814E-009  0.1190365E+03  0.7561462E-02  0.1244695E+00
         -2   -1    0    0    0  501 -0.00000000000E+00  0.00000000000E+00  0.94384109107E+03  0.94384109107E+03  0.00000000000E+00 0.  1.
          2   -1    0    0  501    0  0.00000000000E+00 -0.00000000000E+00 -0.19127648992E+02  0.19127648992E+02  0.00000000000E+00 0. -1.
         25    2    1    2    0    0 -0.57600994172E+02 -0.49906821951E+02  0.58683300002E+03  0.60483522360E+03  0.12507642620E+03 0.  0.
         23    2    1    2    0    0  0.57600994172E+02  0.49906821951E+02  0.33788044207E+03  0.35813351647E+03  0.91037668463E+02 0.  0.
          5    1    3    3  502    0  0.98263052523E+01  0.35740529656E+02  0.15848092374E+03  0.16281160071E+03  0.41800000000E+01 0. -1.
         -5    1    3    3    0  502 -0.67427299424E+02 -0.85647351608E+02  0.42835207627E+03  0.44202362289E+03  0.41800000000E+01 0. -1.
        -11    1    4    4    0    0  0.40815296032E+02  0.59651004596E+02  0.32889896125E+03  0.33674717140E+03  0.00000000000E+00 0.  1.
         11    1    4    4    0    0  0.16785698140E+02 -0.97441826451E+01  0.89814808204E+01  0.21386345064E+02  0.00000000000E+00 0. -1.
</event>
<event>
 8    1  0.7016814E-009  0.7419068E+02  0.7561462E-02  0.1346396E+00
          2   -1    0    0  501    0  0.00000000000E+00  0.00000000000E+00  0.34749922827E+03  0.34749922827E+03  0.00000000000E+00 0. -1.
         -2   -1    0    0    0  501 -0.00000000000E+00 -0.00000000000E+00 -0.57179564756E+02  0.57179564756E+02  0.00000000000E+00 0.  1.
         25    2    1    2    0    0  0.17187441638E+02  0.39907314786E+02  0.27208976849E+03  0.30260294395E+03  0.12509075765E+03 0.  0.
         23    2    1    2    0    0 -0.17187441638E+02 -0.39907314786E+02  0.18229895031E+02  0.10207584908E+03  0.90549146704E+02 0.  0.
          5    1    3    3  502    0  0.78851996301E+01  0.43434665026E+02  0.28347163098E+03  0.28691877678E+03  0.41800000000E+01 0. -1.
         -5    1    3    3    0  502  0.93022420076E+01 -0.35273502398E+01 -0.11381862491E+02  0.15684167171E+02  0.41800000000E+01 0. -1.
        -11    1    4    4    0    0  0.10610326825E+02  0.22529534712E+02 -0.11639202320E+02  0.27488724967E+02  0.00000000000E+00 0.  1.
         11    1    4    4    0    0 -0.27797768463E+02 -0.62436849497E+02  0.29869097351E+02  0.74587124112E+02  0.00000000000E+00 0. -1.
</event>
<event>
 8    1  0.7016814E-009  0.1674914E+03  0.7561462E-02  0.1180489E+00
          2   -1    0    0  501    0  0.00000000000E+00  0.00000000000E+00  0.34746584760E+03  0.34746584760E+03  0.00000000000E+00 0. -1.
         -2   -1    0    0    0  501 -0.00000000000E+00 -0.00000000000E+00 -0.11463437689E+03  0.11463437689E+03  0.00000000000E+00 0.  1.
         25    2    1    2    0    0  0.43506869037E+02 -0.14796640935E+03  0.52077476640E+02  0.20529536438E+03  0.12508883688E+03 0.  0.
         23    2    1    2    0    0 -0.43506869037E+02  0.14796640935E+03  0.18075399408E+03  0.25680486011E+03  0.97415726931E+02 0.  0.
          5    1    3    3  502    0 -0.20663377199E+02 -0.29442953225E+01  0.41088472507E+02  0.46275036523E+02  0.41800000000E+01 0.  1.
         -5    1    3    3    0  502  0.64170246236E+02 -0.14502211403E+03  0.10989004133E+02  0.15902032785E+03  0.41800000000E+01 0.  1.
        -11    1    4    4    0    0 -0.33720544038E+02  0.13273915493E+03  0.89116536991E+02  0.16339680385E+03  0.00000000000E+00 0.  1.
         11    1    4    4    0    0 -0.97863249984E+01  0.15227254418E+02  0.91637457087E+02  0.93408056266E+02  0.00000000000E+00 0. -1.
</event>
<event>
 8    1  0.7016814E-009  0.9087899E+02  0.7561462E-02  0.1300737E+00
          1   -1    0    0  501    0  0.00000000000E+00  0.00000000000E+00  0.11103434165E+03  0.11103434165E+03  0.00000000000E+00 0. -1.
         -1   -1    0    0    0  501 -0.00000000000E+00 -0.00000000000E+00 -0.16111228295E+03  0.16111228295E+03  0.00000000000E+00 0.  1.
         25    2    1    2    0    0 -0.55303969648E+02 -0.51189489038E+02 -0.47997313563E+02  0.15372806249E+03  0.12509869000E+03 0.  0.
         23    2    1    2    0    0  0.55303969648E+02  0.51189489038E+02 -0.20806277434E+01  0.11841856211E+03  0.91322144051E+02 0.  0.
          5    1    3    3  502    0 -0.50630673401E+02 -0.41239873001E+02  0.32021646697E+02  0.72849505635E+02  0.41800000000E+01 0. -1.
         -5    1    3    3    0  502 -0.46732962476E+01 -0.99496160378E+01 -0.80018960260E+02  0.80878556851E+02  0.41800000000E+01 0. -1.
        -11    1    4    4    0    0  0.12531674753E+01  0.50492314728E+02 -0.28776767562E+02  0.58130427718E+02  0.00000000000E+00 0.  1.
         11    1    4    4    0    0  0.54050802173E+02  0.69717431072E+00  0.26696139819E+02  0.60288134395E+02  0.00000000000E+00 0. -1.
</event>
<event>
 8    1  0.7016814E-009  0.1172332E+03  0.7561462E-02  0.1247732E+00
          2   -1    0    0  501    0  0.00000000000E+00  0.00000000000E+00  0.17673546818E+03  0.17673546818E+03  0.00000000000E+00 0. -1.
         -2   -1    0    0    0  501 -0.00000000000E+00 -0.00000000000E+00 -0.87860095421E+02  0.87860095421E+02  0.00000000000E+00 0.  1.
         25    2    1    2    0    0 -0.37526566161E+02  0.35177790420E+02  0.68404171724E+02  0.15156335178E+03  0.12508636532E+03 0.  0.
         23    2    1    2    0    0  0.37526566161E+02 -0.35177790420E+02  0.20471201032E+02  0.11303221181E+03  0.98546896090E+02 0.  0.
          5    1    3    3  502    0 -0.33470417622E+02  0.77617524047E+02  0.68257040887E+02  0.10872554863E+03  0.41800000000E+01 0.  1.
         -5    1    3    3    0  502 -0.40561485392E+01 -0.42439733627E+02  0.14713083679E+00  0.42837803151E+02  0.41800000000E+01 0.  1.
        -11    1    4    4    0    0 -0.31671539324E+02 -0.14043292328E+02 -0.75213809544E+01  0.35452385449E+02  0.00000000000E+00 0.  1.
         11    1    4    4    0    0  0.69198105485E+02 -0.21134498092E+02  0.27992581986E+02  0.77579826364E+02  0.00000000000E+00 0. -1.
</event>
<event>
 8    1  0.7016814E-009  0.6835886E+02  0.7561462E-02  0.1365764E+00
          3   -1    0    0  501    0  0.00000000000E+00  0.00000000000E+00  0.16788020253E+03  0.16788020253E+03  0.00000000000E+00 0. -1.
         -3   -1    0    0    0  501 -0.00000000000E+00 -0.00000000000E+00 -0.10015769327E+03  0.10015769327E+03  0.00000000000E+00 0.  1.
         25    2    1    2    0    0  0.52376497338E+02 -0.23414606850E+02  0.78845218142E+02  0.15860459100E+03  0.12508919447E+03 0.  0.
         23    2    1    2    0    0 -0.52376497338E+02  0.23414606850E+02 -0.11122708883E+02  0.10943330480E+03  0.92522387876E+02 0.  0.
          5    1    3    3  502    0  0.25110238176E+02  0.75279848054E+01 -0.31227114321E+02  0.40985359402E+02  0.41800000000E+01 0. -1.
         -5    1    3    3    0  502  0.27266259163E+02 -0.30942591655E+02  0.11007233246E+03  0.11761923159E+03  0.41800000000E+01 0. -1.
        -11    1    4    4    0    0 -0.13815951227E+02 -0.10510277279E+02 -0.44780576649E+02  0.48027559608E+02  0.00000000000E+00 0.  1.
         11    1    4    4    0    0 -0.38560546111E+02  0.33924884129E+02  0.33657867767E+02  0.61405745189E+02  0.00000000000E+00 0. -1.
</event>
<event>
 8    1  0.7016814E-009  0.1400085E+03  0.7561462E-02  0.1213318E+00
          2   -1    0    0  501    0  0.00000000000E+00  0.00000000000E+00  0.14958782416E+03  0.14958782416E+03  0.00000000000E+00 0. -1.
         -2   -1    0    0    0  501 -0.00000000000E+00 -0.00000000000E+00 -0.33822531501E+03  0.33822531501E+03  0.00000000000E+00 0.  1.
         25    2    1    2    0    0  0.55357990769E+02 -0.12762065244E+03 -0.24899071430E+03  0.31144665207E+03  0.12510436924E+03 0.  0.
         23    2    1    2    0    0 -0.55357990769E+02  0.12762065244E+03  0.60353223452E+02  0.17636648710E+03  0.90061579604E+02 0.  0.
          5    1    3    3  502    0  0.48880642619E+02 -0.12052897392E+03 -0.26330651528E+03  0.29370792323E+03  0.41800000000E+01 0.  1.
         -5    1    3    3    0  502  0.64773481499E+01 -0.70916785199E+01  0.14315800977E+02  0.17738728841E+02  0.41800000000E+01 0.  1.
        -11    1    4    4    0    0 -0.28201084269E+02  0.53598693284E+02  0.74760525404E+02  0.96214641476E+02  0.00000000000E+00 0. -1.
         11    1    4    4    0    0 -0.27156906500E+02  0.74021959153E+02 -0.14407301952E+02  0.80151845624E+02  0.00000000000E+00 0.  1.
</event>
<event>
 8    1  0.7016814E-009  0.1256834E+03  0.7561462E-02  0.1234005E+00
          1   -1    0    0  501    0  0.00000000000E+00  0.00000000000E+00  0.57595860959E+03  0.57595860959E+03  0.00000000000E+00 0. -1.
         -1   -1    0    0    0  501 -0.00000000000E+00 -0.00000000000E+00 -0.36487969943E+02  0.36487969943E+02  0.00000000000E+00 0.  1.
         25    2    1    2    0    0  0.79336671298E+02 -0.34232572202E+02  0.38100350841E+03  0.41021814700E+03  0.12509627611E+03 0.  0.
         23    2    1    2    0    0 -0.79336671298E+02  0.34232572202E+02  0.15846713125E+03  0.20222843254E+03  0.91204883808E+02 0.  0.
          5    1    3    3  502    0  0.32719507473E+02  0.42057871288E+02  0.21586823647E+03  0.22238704689E+03  0.41800000000E+01 0.  1.
         -5    1    3    3    0  502  0.46617163825E+02 -0.76290443490E+02  0.16513527193E+03  0.18783110011E+03  0.41800000000E+01 0.  1.
        -11    1    4    4    0    0  0.88682683995E+01  0.16074957276E+02 -0.17445327841E+01  0.18441633075E+02  0.00000000000E+00 0.  1.
         11    1    4    4    0    0 -0.88204939697E+02  0.18157614926E+02  0.16021166403E+03  0.18378679947E+03  0.00000000000E+00 0. -1.
</event>
<event>
 8    1  0.7016814E-009  0.1462990E+03  0.7561462E-02  0.1205096E+00
         -1   -1    0    0    0  501 -0.00000000000E+00  0.00000000000E+00  0.98916553325E+02  0.98916553325E+02  0.00000000000E+00 0.  1.
          1   -1    0    0  501    0  0.00000000000E+00 -0.00000000000E+00 -0.22791989775E+03  0.22791989775E+03  0.00000000000E+00 0. -1.
         25    2    1    2    0    0 -0.99961931791E+02 -0.35823104920E+01 -0.99231107928E+02  0.18841040714E+03  0.12508576251E+03 0.  0.
         23    2    1    2    0    0  0.99961931791E+02  0.35823104920E+01 -0.29772236500E+02  0.13842604394E+03  0.90940435548E+02 0.  0.
          5    1    3    3  502    0  0.28258966126E+02  0.45851484670E+01 -0.32711753198E+02  0.43670630294E+02  0.41800000000E+01 0. -1.
         -5    1    3    3    0  502 -0.12822089792E+03 -0.81674589590E+01 -0.66519354730E+02  0.14473977685E+03  0.41800000000E+01 0. -1.
        -11    1    4    4    0    0 -0.50424277519E+01  0.27055247662E+02 -0.78594171462E+01  0.28621372112E+02  0.00000000000E+00 0. -1.
         11    1    4    4    0    0  0.10500435954E+03 -0.23472937170E+02 -0.21912819354E+02  0.10980467182E+03  0.00000000000E+00 0.  1.
</event>
<event>
 8    1  0.7016814E-009  0.1989989E+03  0.7561462E-02  0.1150586E+00
          1   -1    0    0  501    0  0.00000000000E+00  0.00000000000E+00  0.18716342758E+03  0.18716342758E+03  0.00000000000E+00 0.  1.
         -1   -1    0    0    0  501 -0.00000000000E+00 -0.00000000000E+00 -0.27099918198E+03  0.27099918198E+03  0.00000000000E+00 0. -1.
         25    2    1    2    0    0  0.57611670615E+02 -0.16982109347E+03  0.38548191468E+02  0.22201918081E+03  0.12509294626E+03 0.  0.
         23    2    1    2    0    0 -0.57611670615E+02  0.16982109347E+03 -0.12238394587E+03  0.23614342875E+03  0.92884769250E+02 0.  0.
          5    1    3    3  502    0 -0.32154359243E+02 -0.99023628943E+02  0.16040464666E+02  0.10542462148E+03  0.41800000000E+01 0.  1.
         -5    1    3    3    0  502  0.89766029859E+02 -0.70797464523E+02  0.22507726802E+02  0.11659455933E+03  0.41800000000E+01 0.  1.
        -11    1    4    4    0    0 -0.35585818051E+02  0.97092086782E+02 -0.14850048023E+02  0.10446888383E+03  0.00000000000E+00 0.  1.
         11    1    4    4    0    0 -0.22025852564E+02  0.72729006684E+02 -0.10753389785E+03  0.13167454492E+03  0.00000000000E+00 0. -1.
</event>
<event>
 8    1  0.7016814E-009  0.1338615E+03  0.7561462E-02  0.1221836E+00
          1   -1    0    0  501    0  0.00000000000E+00  0.00000000000E+00  0.21085540575E+03  0.21085540575E+03  0.00000000000E+00 0. -1.
         -1   -1    0    0    0  501 -0.00000000000E+00 -0.00000000000E+00 -0.13155772893E+03  0.13155772893E+03  0.00000000000E+00 0.  1.
         25    2    1    2    0    0  0.10523560612E+03  0.58760803036E+02  0.86987123271E+02  0.19427640341E+03  0.12509674872E+03 0.  0.
         23    2    1    2    0    0 -0.10523560612E+03 -0.58760803036E+02 -0.76894464560E+01  0.14813673126E+03  0.85778778231E+02 0.  0.
          5    1    3    3  502    0  0.34182017161E+02 -0.17609883495E+02  0.80938353268E+02  0.89705115371E+02  0.41800000000E+01 0.  1.
         -5    1    3    3    0  502  0.71053588954E+02  0.76370686531E+02  0.60487700030E+01  0.10457128804E+03  0.41800000000E+01 0.  1.
        -11    1    4    4    0    0 -0.19925654359E+02 -0.27135731186E+02 -0.39364858669E+02  0.51797410231E+02  0.00000000000E+00 0.  1.
         11    1    4    4    0    0 -0.85309951756E+02 -0.31625071850E+02  0.31675412213E+02  0.96339321033E+02  0.00000000000E+00 0. -1.
</event>
