<event>
 6    1  0.4705246E-006  0.1364447E+03  0.7546771E-02  0.1230129E+00
         -1   -1    0    0    0  501 -0.00000000000E+00  0.00000000000E+00  0.28232281875E+02  0.28232281875E+02  0.00000000000E+00 0.  1.
          1   -1    0    0  501    0  0.00000000000E+00 -0.00000000000E+00 -0.64395104460E+03  0.64395104460E+03  0.00000000000E+00 0. -1.
          5    1    1    2  502    0 -0.76118535433E+02 -0.40037749742E+02 -0.42000137792E+03  0.42874269707E+03  0.47000000000E+01 0. -1.
         -5    1    1    2    0  502  0.22423623196E+02  0.29556538063E+02 -0.64013234758E+02  0.74136307190E+02  0.47000000000E+01 0. -1.
        -11    1    1    2    0    0  0.39900375949E+02  0.18910392763E+02 -0.14294833309E+03  0.14961239550E+03  0.00000000000E+00 0. -1.
         11    1    1    2    0    0  0.13794536288E+02 -0.84291810849E+01  0.11244183042E+02  0.19691926708E+02  0.00000000000E+00 0.  1.
<mgrwt>
<rscale>  0 0.12821490E+03</rscale>
<asrwt>0</asrwt>
<pdfrwt beam="2">  1        1 0.99069398E-01 0.13644467E+03</pdfrwt>
<pdfrwt beam="1">  1       -1 0.43434277E-02 0.13644467E+03</pdfrwt>
<totfact> 0.66656000E+03</totfact>
</mgrwt>
</event>
<event>
 6    1  0.4705246E-006  0.1473559E+03  0.7546771E-02  0.1213241E+00
         -1   -1    0    0    0  501 -0.00000000000E+00  0.00000000000E+00  0.70609234326E+02  0.70609234326E+02  0.00000000000E+00 0. -1.
          1   -1    0    0  501    0  0.00000000000E+00 -0.00000000000E+00 -0.25549072823E+03  0.25549072823E+03  0.00000000000E+00 0.  1.
          5    1    1    2  502    0  0.11487852832E+02  0.70581075054E+02 -0.68120628338E+02  0.98874510990E+02  0.47000000000E+01 0. -1.
         -5    1    1    2    0  502  0.61277749221E+02 -0.42255324407E+02 -0.47461784850E+02  0.88403540718E+02  0.47000000000E+01 0. -1.
        -11    1    1    2    0    0 -0.15384568077E+02 -0.32233977050E+02  0.13350118498E+02  0.38130563532E+02  0.00000000000E+00 0. -1.
         11    1    1    2    0    0 -0.57381033975E+02  0.39082264033E+01 -0.82649199219E+02  0.10069134732E+03  0.00000000000E+00 0.  1.
<mgrwt>
<rscale>  0 0.14006550E+03</rscale>
<asrwt>0</asrwt>
<pdfrwt beam="2">  1        1 0.39306265E-01 0.14735594E+03</pdfrwt>
<pdfrwt beam="1">  1       -1 0.10862959E-01 0.14735594E+03</pdfrwt>
<totfact> 0.55274081E+03</totfact>
</mgrwt>
</event>
<event>
 6    1  0.4705246E-006  0.1351363E+03  0.7546771E-02  0.1231914E+00
          1   -1    0    0  501    0  0.00000000000E+00  0.00000000000E+00  0.26731740095E+03  0.26731740095E+03  0.00000000000E+00 0. -1.
         -1   -1    0    0    0  501 -0.00000000000E+00 -0.00000000000E+00 -0.55976083325E+02  0.55976083325E+02  0.00000000000E+00 0.  1.
          5    1    1    2  502    0  0.38358946284E+02  0.28726503914E+02  0.79093455061E+02  0.92598517378E+02  0.47000000000E+01 0.  1.
         -5    1    1    2    0  502 -0.82615059254E+02 -0.27167648659E+01  0.67918212812E+02  0.10708689209E+03  0.47000000000E+01 0.  1.
        -11    1    1    2    0    0  0.22199264838E+02  0.31368705656E+01 -0.21037720102E+02  0.30744641540E+02  0.00000000000E+00 0.  1.
         11    1    1    2    0    0  0.22056848132E+02 -0.29146609613E+02  0.85367369850E+02  0.92863433259E+02  0.00000000000E+00 0. -1.
<mgrwt>
<rscale>  0 0.12704072E+03</rscale>
<asrwt>0</asrwt>
<pdfrwt beam="1">  1        1 0.41125753E-01 0.13513635E+03</pdfrwt>
<pdfrwt beam="2">  1       -1 0.86117053E-02 0.13513635E+03</pdfrwt>
<totfact> 0.74071211E+03</totfact>
</mgrwt>
</event>
<event>
 6    1  0.4705246E-006  0.1134752E+03  0.7546771E-02  0.1265011E+00
         -1   -1    0    0    0  501 -0.00000000000E+00  0.00000000000E+00  0.15289257407E+03  0.15289257407E+03  0.00000000000E+00 0.  1.
          1   -1    0    0  501    0  0.00000000000E+00 -0.00000000000E+00 -0.74742679364E+02  0.74742679364E+02  0.00000000000E+00 0. -1.
          5    1    1    2  502    0  0.37771058169E+02 -0.35356024925E+02  0.13629200520E+02  0.53707973714E+02  0.47000000000E+01 0. -1.
         -5    1    1    2    0  502 -0.44422731506E+02  0.40484869497E+02 -0.23051797704E+01  0.60330817882E+02  0.47000000000E+01 0.  1.
        -11    1    1    2    0    0  0.47680418985E+01  0.34589217830E+02 -0.10491246242E+01  0.34932060863E+02  0.00000000000E+00 0. -1.
         11    1    1    2    0    0  0.18836314384E+01 -0.39718062402E+02  0.67874998581E+02  0.78664400975E+02  0.00000000000E+00 0.  1.
<mgrwt>
<rscale>  0 0.10763624E+03</rscale>
<asrwt>0</asrwt>
<pdfrwt beam="2">  1        1 0.11498874E-01 0.11347516E+03</pdfrwt>
<pdfrwt beam="1">  1       -1 0.23521934E-01 0.11347516E+03</pdfrwt>
<totfact> 0.76322171E+03</totfact>
</mgrwt>
</event>
<event>
 6    1  0.4705246E-006  0.1562226E+03  0.7546771E-02  0.1201352E+00
         -3   -1    0    0    0  501 -0.00000000000E+00  0.00000000000E+00  0.83385098108E+02  0.83385098108E+02  0.00000000000E+00 0.  1.
          3   -1    0    0  501    0  0.00000000000E+00 -0.00000000000E+00 -0.34711562807E+03  0.34711562807E+03  0.00000000000E+00 0. -1.
          5    1    1    2  502    0  0.32431323827E+02 -0.10814449206E+03 -0.25374912661E+03  0.27777280498E+03  0.47000000000E+01 0. -1.
         -5    1    1    2    0  502  0.29962079647E+01  0.21390426299E+02 -0.23699938621E+01  0.22231384805E+02  0.47000000000E+01 0. -1.
        -11    1    1    2    0    0 -0.46163127587E+02  0.84707526740E+02  0.21988137418E+02  0.98943810429E+02  0.00000000000E+00 0.  1.
         11    1    1    2    0    0  0.10735595796E+02  0.20465390191E+01 -0.29599546905E+02  0.31552725968E+02  0.00000000000E+00 0. -1.
<mgrwt>
<rscale>  0 0.14928725E+03</rscale>
<asrwt>0</asrwt>
<pdfrwt beam="2">  1        3 0.53402404E-01 0.15622263E+03</pdfrwt>
<pdfrwt beam="1">  1       -3 0.12828477E-01 0.15622263E+03</pdfrwt>
<totfact> 0.40205225E+02</totfact>
</mgrwt>
</event>
<event>
 6    1  0.4705246E-006  0.1356617E+03  0.7546771E-02  0.1231457E+00
          2   -1    0    0  501    0  0.00000000000E+00  0.00000000000E+00  0.55469635842E+02  0.55469635842E+02  0.00000000000E+00 0.  1.
         -2   -1    0    0    0  501 -0.00000000000E+00 -0.00000000000E+00 -0.27618161317E+03  0.27618161317E+03  0.00000000000E+00 0. -1.
          5    1    1    2  502    0 -0.63701223255E+02 -0.12334873836E+02  0.75871196404E+01  0.65495414658E+02  0.47000000000E+01 0. -1.
         -5    1    1    2    0  502  0.10964296385E+02  0.12667119754E+02 -0.93448262578E+02  0.95054402828E+02  0.47000000000E+01 0. -1.
        -11    1    1    2    0    0 -0.19400506766E+02 -0.92597284215E+01 -0.46641921766E+01  0.21997202592E+02  0.00000000000E+00 0.  1.
         11    1    1    2    0    0  0.72137433636E+02  0.89274825039E+01 -0.13018664222E+03  0.14910422894E+03  0.00000000000E+00 0. -1.
<mgrwt>
<rscale>  0 0.12733979E+03</rscale>
<asrwt>0</asrwt>
<pdfrwt beam="1">  1        2 0.85337903E-02 0.13566174E+03</pdfrwt>
<pdfrwt beam="2">  1       -2 0.42489478E-01 0.13566174E+03</pdfrwt>
<totfact> 0.39603605E+03</totfact>
</mgrwt>
</event>
<event>
 6    1  0.4705246E-006  0.1229381E+03  0.7546771E-02  0.1249941E+00
         -3   -1    0    0    0  501 -0.00000000000E+00  0.00000000000E+00  0.78356208660E+02  0.78356208660E+02  0.00000000000E+00 0.  1.
          3   -1    0    0  501    0  0.00000000000E+00 -0.00000000000E+00 -0.42380965937E+03  0.42380965937E+03  0.00000000000E+00 0. -1.
          5    1    1    2  502    0 -0.60818368695E+02  0.27950764942E+02 -0.28824183610E+03  0.29594858559E+03  0.47000000000E+01 0. -1.
         -5    1    1    2    0  502  0.32917346835E+02 -0.34215521464E+02 -0.91414449095E+02  0.10311617300E+03  0.47000000000E+01 0.  1.
        -11    1    1    2    0    0  0.21930333659E+02  0.42442173246E+02 -0.66191250608E+01  0.48229559616E+02  0.00000000000E+00 0. -1.
         11    1    1    2    0    0  0.59706882012E+01 -0.36177416724E+02  0.40821959548E+02  0.54871549821E+02  0.00000000000E+00 0.  1.
<mgrwt>
<rscale>  0 0.11594483E+03</rscale>
<asrwt>0</asrwt>
<pdfrwt beam="2">  1        3 0.65201487E-01 0.12293814E+03</pdfrwt>
<pdfrwt beam="1">  1       -3 0.12054801E-01 0.12293814E+03</pdfrwt>
<totfact> 0.28699479E+02</totfact>
</mgrwt>
</event>
<event>
 6    1  0.4705246E-006  0.3348659E+03  0.7546771E-02  0.1069004E+00
          2   -1    0    0  501    0  0.00000000000E+00  0.00000000000E+00  0.67882596148E+03  0.67882596148E+03  0.00000000000E+00 0. -1.
         -2   -1    0    0    0  501 -0.00000000000E+00 -0.00000000000E+00 -0.41297474912E+02  0.41297474912E+02  0.00000000000E+00 0.  1.
          5    1    1    2  502    0  0.24223890943E+02 -0.12426454670E+03  0.38536997868E+03  0.40566067708E+03  0.47000000000E+01 0.  1.
         -5    1    1    2    0  502 -0.31417715119E+02  0.12106348049E+01  0.24216800311E+02  0.39963506818E+02  0.47000000000E+01 0.  1.
        -11    1    1    2    0    0 -0.12776854664E+02  0.51648480467E+02  0.17627029084E+03  0.18412503627E+03  0.00000000000E+00 0. -1.
         11    1    1    2    0    0  0.19970678840E+02  0.71405431426E+02  0.51671416737E+02  0.90374216224E+02  0.00000000000E+00 0.  1.
<mgrwt>
<rscale>  0 0.33486593E+03</rscale>
<asrwt>0</asrwt>
<pdfrwt beam="1">  1        2 0.10443476E+00 0.33486593E+03</pdfrwt>
<pdfrwt beam="2">  1       -2 0.63534582E-02 0.33486593E+03</pdfrwt>
<totfact> 0.59176633E+03</totfact>
</mgrwt>
</event>
<event>
 6    1  0.4705246E-006  0.1754287E+03  0.7546771E-02  0.1178111E+00
         -2   -1    0    0    0  501 -0.00000000000E+00  0.00000000000E+00  0.33707071772E+03  0.33707071772E+03  0.00000000000E+00 0.  1.
          2   -1    0    0  501    0  0.00000000000E+00 -0.00000000000E+00 -0.80707614801E+02  0.80707614801E+02  0.00000000000E+00 0. -1.
          5    1    1    2  502    0 -0.53099511014E+02 -0.11070833739E+03  0.77920217843E+02  0.14549757519E+03  0.47000000000E+01 0. -1.
         -5    1    1    2    0  502 -0.36864170676E+02  0.26667958036E+02  0.71814649405E+02  0.85144470957E+02  0.47000000000E+01 0. -1.
        -11    1    1    2    0    0  0.32915301453E+02  0.87196448281E+02  0.46381009178E+02  0.10410492628E+03  0.00000000000E+00 0. -1.
         11    1    1    2    0    0  0.57048380238E+02 -0.31560689225E+01  0.60247226490E+02  0.83031360091E+02  0.00000000000E+00 0.  1.
<mgrwt>
<rscale>  0 0.16974824E+03</rscale>
<asrwt>0</asrwt>
<pdfrwt beam="2">  1        2 0.12416556E-01 0.17542868E+03</pdfrwt>
<pdfrwt beam="1">  1       -2 0.51857033E-01 0.17542868E+03</pdfrwt>
<totfact> 0.17159598E+03</totfact>
</mgrwt>
</event>
<event>
 6    1  0.4705246E-006  0.1365642E+03  0.7546771E-02  0.1230696E+00
          1   -1    0    0  501    0  0.00000000000E+00  0.00000000000E+00  0.49774786300E+03  0.49774786300E+03  0.00000000000E+00 0. -1.
         -1   -1    0    0    0  501 -0.00000000000E+00 -0.00000000000E+00 -0.31858305472E+02  0.31858305472E+02  0.00000000000E+00 0.  1.
          5    1    1    2  502    0 -0.15911000615E+02 -0.52992377203E+02  0.70934097008E+02  0.90083783783E+02  0.47000000000E+01 0.  1.
         -5    1    1    2    0  502 -0.39011702885E+02  0.50162028549E+02  0.26487790157E+03  0.27243445966E+03  0.47000000000E+01 0.  1.
        -11    1    1    2    0    0  0.54249460514E+02  0.22584959875E+02  0.31747014790E+02  0.66790398462E+02  0.00000000000E+00 0.  1.
         11    1    1    2    0    0  0.67324298584E+00 -0.19754611221E+02  0.98330544158E+02  0.10029752656E+03  0.00000000000E+00 0. -1.
<mgrwt>
<rscale>  0 0.12784032E+03</rscale>
<asrwt>0</asrwt>
<pdfrwt beam="1">  1        1 0.76576589E-01 0.13656419E+03</pdfrwt>
<pdfrwt beam="2">  1       -1 0.49012781E-02 0.13656419E+03</pdfrwt>
<totfact> 0.78816194E+03</totfact>
</mgrwt>
</event>
<event>
 6    1  0.4705246E-006  0.1251322E+03  0.7546771E-02  0.1250262E+00
          1   -1    0    0  501    0  0.00000000000E+00  0.00000000000E+00  0.28816273770E+03  0.28816273770E+03  0.00000000000E+00 0. -1.
         -1   -1    0    0    0  501 -0.00000000000E+00 -0.00000000000E+00 -0.44251258692E+02  0.44251258692E+02  0.00000000000E+00 0.  1.
          5    1    1    2  502    0  0.12819708469E+02 -0.52919839853E+02  0.13872595250E+03  0.14910343481E+03  0.47000000000E+01 0. -1.
         -5    1    1    2    0  502 -0.90939484630E+01  0.57258571518E+02  0.46695261077E+02  0.74590758932E+02  0.47000000000E+01 0. -1.
        -11    1    1    2    0    0  0.28142284672E+02 -0.36611922423E+02  0.26824626568E+02  0.53403947800E+02  0.00000000000E+00 0.  1.
         11    1    1    2    0    0 -0.31868044678E+02  0.32273190758E+02  0.31665638866E+02  0.55315854853E+02  0.00000000000E+00 0. -1.
<mgrwt>
<rscale>  0 0.11575893E+03</rscale>
<asrwt>0</asrwt>
<pdfrwt beam="1">  1        1 0.44332728E-01 0.12513219E+03</pdfrwt>
<pdfrwt beam="2">  1       -1 0.68078861E-02 0.12513219E+03</pdfrwt>
<totfact> 0.95602385E+03</totfact>
</mgrwt>
</event>
<event>
 6    1  0.4705246E-006  0.2314289E+03  0.7546771E-02  0.1128564E+00
          2   -1    0    0  501    0  0.00000000000E+00  0.00000000000E+00  0.11586732663E+03  0.11586732663E+03  0.00000000000E+00 0. -1.
         -2   -1    0    0    0  501 -0.00000000000E+00 -0.00000000000E+00 -0.47246349257E+03  0.47246349257E+03  0.00000000000E+00 0.  1.
          5    1    1    2  502    0 -0.18899128516E+01 -0.17595212537E+01 -0.52340638919E+02  0.52614638344E+02  0.47000000000E+01 0. -1.
         -5    1    1    2    0  502  0.11308480504E+02 -0.19278000160E+03 -0.44309895738E+02  0.19818543743E+03  0.47000000000E+01 0. -1.
        -11    1    1    2    0    0 -0.43149184913E+02  0.81808329777E+02 -0.15155145171E+03  0.17754519846E+03  0.00000000000E+00 0. -1.
         11    1    1    2    0    0  0.33730617260E+02  0.11273119308E+03 -0.10839417957E+03  0.15998554497E+03  0.00000000000E+00 0.  1.
<mgrwt>
<rscale>  0 0.22728754E+03</rscale>
<asrwt>0</asrwt>
<pdfrwt beam="1">  1        2 0.17825743E-01 0.23142894E+03</pdfrwt>
<pdfrwt beam="2">  1       -2 0.72686691E-01 0.23142894E+03</pdfrwt>
<totfact> 0.55812084E+02</totfact>
</mgrwt>
</event>
<event>
 6    1  0.4705246E-006  0.1338243E+03  0.7546771E-02  0.1235884E+00
          2   -1    0    0  501    0  0.00000000000E+00  0.00000000000E+00  0.93592603438E+02  0.93592603438E+02  0.00000000000E+00 0. -1.
         -2   -1    0    0    0  501 -0.00000000000E+00 -0.00000000000E+00 -0.16847291138E+03  0.16847291138E+03  0.00000000000E+00 0.  1.
          5    1    1    2  502    0  0.38262427291E+02  0.78332354739E+01 -0.36841638362E+02  0.53895911138E+02  0.47000000000E+01 0. -1.
         -5    1    1    2    0  502 -0.39197155269E+02 -0.55607962896E+02  0.41867383015E+02  0.80022686029E+02  0.47000000000E+01 0. -1.
        -11    1    1    2    0    0 -0.98404225758E+01 -0.93270419827E+01 -0.67343734344E+02  0.68695022993E+02  0.00000000000E+00 0.  1.
         11    1    1    2    0    0  0.10775150554E+02  0.57101769405E+02 -0.12562318251E+02  0.59451894659E+02  0.00000000000E+00 0. -1.
<mgrwt>
<rscale>  0 0.12448005E+03</rscale>
<asrwt>0</asrwt>
<pdfrwt beam="1">  1        2 0.14398862E-01 0.13382426E+03</pdfrwt>
<pdfrwt beam="2">  1       -2 0.25918909E-01 0.13382426E+03</pdfrwt>
<totfact> 0.51875397E+03</totfact>
</mgrwt>
</event>
<event>
 6    1  0.4705246E-006  0.1609034E+03  0.7546771E-02  0.1200952E+00
          2   -1    0    0  501    0  0.00000000000E+00  0.00000000000E+00  0.49636595783E+03  0.49636595783E+03  0.00000000000E+00 0. -1.
         -2   -1    0    0    0  501 -0.00000000000E+00 -0.00000000000E+00 -0.74040230722E+02  0.74040230722E+02  0.00000000000E+00 0.  1.
          5    1    1    2  502    0  0.46029024507E+02 -0.69788893511E+02  0.15373399023E+03  0.17505824889E+03  0.47000000000E+01 0. -1.
         -5    1    1    2    0  502  0.34049254647E+02  0.58122420130E+02  0.26664417733E+03  0.27506140181E+03  0.47000000000E+01 0.  1.
        -11    1    1    2    0    0 -0.44939352370E+01  0.90549872510E+01 -0.34773939584E+02  0.36213466034E+02  0.00000000000E+00 0.  1.
         11    1    1    2    0    0 -0.75584343917E+02  0.26114861302E+01  0.36721499137E+02  0.84073071813E+02  0.00000000000E+00 0. -1.
<mgrwt>
<rscale>  0 0.14961113E+03</rscale>
<asrwt>0</asrwt>
<pdfrwt beam="1">  1        2 0.76363991E-01 0.16090338E+03</pdfrwt>
<pdfrwt beam="2">  1       -2 0.11390805E-01 0.16090338E+03</pdfrwt>
<totfact> 0.33049023E+03</totfact>
</mgrwt>
</event>
<event>
 6    1  0.4705246E-006  0.1480673E+03  0.7546771E-02  0.1210849E+00
         -2   -1    0    0    0  501 -0.00000000000E+00  0.00000000000E+00  0.43473548273E+02  0.43473548273E+02  0.00000000000E+00 0. -1.
          2   -1    0    0  501    0  0.00000000000E+00 -0.00000000000E+00 -0.48484584103E+03  0.48484584103E+03  0.00000000000E+00 0.  1.
          5    1    1    2  502    0  0.28931211475E+02 -0.18483051391E+02 -0.57807488695E+02  0.67397581079E+02  0.47000000000E+01 0. -1.
         -5    1    1    2    0  502 -0.10702647388E+03  0.32625366848E+02 -0.26966387963E+03  0.29199277157E+03  0.47000000000E+01 0. -1.
        -11    1    1    2    0    0  0.80546608205E+02  0.25604262681E+02 -0.70869109097E+02  0.11029852667E+03  0.00000000000E+00 0. -1.
         11    1    1    2    0    0 -0.24513457991E+01 -0.39746578138E+02 -0.43031815334E+02  0.58630509983E+02  0.00000000000E+00 0.  1.
<mgrwt>
<rscale>  0 0.14185941E+03</rscale>
<asrwt>0</asrwt>
<pdfrwt beam="2">  1        2 0.74591666E-01 0.14806731E+03</pdfrwt>
<pdfrwt beam="1">  1       -2 0.66882384E-02 0.14806731E+03</pdfrwt>
<totfact> 0.77511605E+03</totfact>
</mgrwt>
</event>
<event>
 6    1  0.4705246E-006  0.2564913E+03  0.7546771E-02  0.1109270E+00
         -2   -1    0    0    0  501 -0.00000000000E+00  0.00000000000E+00  0.25167431801E+02  0.25167431801E+02  0.00000000000E+00 0.  1.
          2   -1    0    0  501    0  0.00000000000E+00 -0.00000000000E+00 -0.65350144747E+03  0.65350144747E+03  0.00000000000E+00 0. -1.
          5    1    1    2  502    0 -0.90403094026E+01  0.66289416308E+02 -0.43039644380E+03  0.43559063666E+03  0.47000000000E+01 0. -1.
         -5    1    1    2    0  502  0.26493473862E+02 -0.22571016687E+01 -0.21917719069E+02  0.34777508169E+02  0.47000000000E+01 0.  1.
        -11    1    1    2    0    0  0.22534706100E+02 -0.49078822708E+02 -0.44347559886E+02  0.69880253901E+02  0.00000000000E+00 0.  1.
         11    1    1    2    0    0 -0.39987870559E+02 -0.14953491932E+02 -0.13167229291E+03  0.13842048054E+03  0.00000000000E+00 0. -1.
<mgrwt>
<rscale>  0 0.25649135E+03</rscale>
<asrwt>0</asrwt>
<pdfrwt beam="2">  1        2 0.10053868E+00 0.25649135E+03</pdfrwt>
<pdfrwt beam="1">  1       -2 0.38719127E-02 0.25649135E+03</pdfrwt>
<totfact> 0.13051785E+04</totfact>
</mgrwt>
</event>
<event>
 6    1  0.4705246E-006  0.1335880E+03  0.7546771E-02  0.1236148E+00
          2   -1    0    0  501    0  0.00000000000E+00  0.00000000000E+00  0.10766280489E+04  0.10766280489E+04  0.00000000000E+00 0. -1.
         -2   -1    0    0    0  501 -0.00000000000E+00 -0.00000000000E+00 -0.17331830933E+02  0.17331830933E+02  0.00000000000E+00 0.  1.
          5    1    1    2  502    0 -0.52692297573E+02 -0.11186054328E+02  0.73892099983E+03  0.74089671347E+03  0.47000000000E+01 0.  1.
         -5    1    1    2    0  502  0.17775986208E+02  0.42803622405E+02  0.12713049526E+03  0.13539715138E+03  0.47000000000E+01 0.  1.
        -11    1    1    2    0    0 -0.29694549518E+02 -0.15674861310E+02  0.61648555159E+02  0.70199799867E+02  0.00000000000E+00 0. -1.
         11    1    1    2    0    0  0.64610860883E+02 -0.15942706768E+02  0.13159616769E+03  0.14746621509E+03  0.00000000000E+00 0.  1.
<mgrwt>
<rscale>  0 0.12431256E+03</rscale>
<asrwt>0</asrwt>
<pdfrwt beam="1">  1        2 0.16563503E+00 0.13358797E+03</pdfrwt>
<pdfrwt beam="2">  1       -2 0.26664364E-02 0.13358797E+03</pdfrwt>
<totfact> 0.11471278E+04</totfact>
</mgrwt>
</event>
<event>
 6    1  0.4705246E-006  0.1398977E+03  0.7546771E-02  0.1227222E+00
         -2   -1    0    0    0  501 -0.00000000000E+00  0.00000000000E+00  0.51943214406E+02  0.51943214406E+02  0.00000000000E+00 0.  1.
          2   -1    0    0  501    0  0.00000000000E+00 -0.00000000000E+00 -0.29060157870E+03  0.29060157870E+03  0.00000000000E+00 0. -1.
          5    1    1    2  502    0  0.59717700053E+02 -0.45899302865E+02 -0.97664482935E+02  0.12342362387E+03  0.47000000000E+01 0. -1.
         -5    1    1    2    0  502 -0.60406619803E+02 -0.16915070616E+02 -0.53937909756E+02  0.82864150504E+02  0.47000000000E+01 0. -1.
        -11    1    1    2    0    0  0.14316900614E+02  0.33900678012E+02  0.65193954644E+01  0.37372879607E+02  0.00000000000E+00 0.  1.
         11    1    1    2    0    0 -0.13627980865E+02  0.28913695469E+02 -0.93575367069E+02  0.98884139124E+02  0.00000000000E+00 0. -1.
<mgrwt>
<rscale>  0 0.13015742E+03</rscale>
<asrwt>0</asrwt>
<pdfrwt beam="2">  1        2 0.44707935E-01 0.13989768E+03</pdfrwt>
<pdfrwt beam="1">  1       -2 0.79912638E-02 0.13989768E+03</pdfrwt>
<totfact> 0.10161229E+04</totfact>
</mgrwt>
</event>
<event>
 6    1  0.4705246E-006  0.2651719E+03  0.7546771E-02  0.1104075E+00
          2   -1    0    0  501    0  0.00000000000E+00  0.00000000000E+00  0.32671282203E+03  0.32671282203E+03  0.00000000000E+00 0.  1.
         -2   -1    0    0    0  501 -0.00000000000E+00 -0.00000000000E+00 -0.53805749428E+02  0.53805749428E+02  0.00000000000E+00 0. -1.
          5    1    1    2  502    0  0.73161788487E+02 -0.52324270205E+02  0.72937925361E+02  0.11589869500E+03  0.47000000000E+01 0.  1.
         -5    1    1    2    0  502 -0.24464054025E+02  0.57455289867E+01  0.12574258685E+03  0.12831519469E+03  0.47000000000E+01 0.  1.
        -11    1    1    2    0    0 -0.61977686203E+02  0.16236961148E+02  0.80200169745E+02  0.10264959679E+03  0.00000000000E+00 0.  1.
         11    1    1    2    0    0  0.13279951741E+02  0.30341780071E+02 -0.59736093445E+01  0.33655084975E+02  0.00000000000E+00 0. -1.
<mgrwt>
<rscale>  0 0.26517186E+03</rscale>
<asrwt>0</asrwt>
<pdfrwt beam="1">  1        2 0.50263510E-01 0.26517186E+03</pdfrwt>
<pdfrwt beam="2">  1       -2 0.82778079E-02 0.26517186E+03</pdfrwt>
<totfact> 0.88418356E+03</totfact>
</mgrwt>
</event>
<event>
 6    1  0.4705246E-006  0.1286185E+03  0.7546771E-02  0.1244308E+00
          1   -1    0    0  501    0  0.00000000000E+00  0.00000000000E+00  0.33411464424E+03  0.33411464424E+03  0.00000000000E+00 0. -1.
         -1   -1    0    0    0  501 -0.00000000000E+00 -0.00000000000E+00 -0.37729078244E+02  0.37729078244E+02  0.00000000000E+00 0.  1.
          5    1    1    2  502    0  0.57468766003E+02  0.48893389940E+02  0.85721393525E+02  0.11429553777E+03  0.47000000000E+01 0. -1.
         -5    1    1    2    0  502 -0.44316438026E+02 -0.21607750012E+02  0.10028893279E+03  0.11185169458E+03  0.47000000000E+01 0. -1.
        -11    1    1    2    0    0  0.57513472770E+01 -0.57611960035E+02  0.55441770378E+02  0.80162371704E+02  0.00000000000E+00 0.  1.
         11    1    1    2    0    0 -0.18903675254E+02  0.30326320107E+02  0.54933469308E+02  0.65534118439E+02  0.00000000000E+00 0. -1.
<mgrwt>
<rscale>  0 0.11926895E+03</rscale>
<asrwt>0</asrwt>
<pdfrwt beam="1">  1        1 0.51402251E-01 0.12861854E+03</pdfrwt>
<pdfrwt beam="2">  1       -1 0.58044738E-02 0.12861854E+03</pdfrwt>
<totfact> 0.10117820E+04</totfact>
</mgrwt>
</event>
<event>
 6    1  0.4705246E-006  0.1380255E+03  0.7546771E-02  0.1226845E+00
          2   -1    0    0  501    0  0.00000000000E+00  0.00000000000E+00  0.94658798749E+02  0.94658798749E+02  0.00000000000E+00 0. -1.
         -2   -1    0    0    0  501 -0.00000000000E+00 -0.00000000000E+00 -0.17146783336E+03  0.17146783336E+03  0.00000000000E+00 0.  1.
          5    1    1    2  502    0 -0.64022273757E+01  0.49567280564E+02 -0.26238831610E+02  0.56643358853E+02  0.47000000000E+01 0.  1.
         -5    1    1    2    0  502 -0.50663276630E+02 -0.62656362161E+02  0.14019206637E+02  0.81922008477E+02  0.47000000000E+01 0.  1.
        -11    1    1    2    0    0 -0.14417110662E+02 -0.25883025239E+01 -0.51085799841E+02  0.53144250255E+02  0.00000000000E+00 0.  1.
         11    1    1    2    0    0  0.71482614668E+02  0.15677384121E+02 -0.13503609793E+02  0.74417014520E+02  0.00000000000E+00 0. -1.
<mgrwt>
<rscale>  0 0.13041216E+03</rscale>
<asrwt>0</asrwt>
<pdfrwt beam="1">  1        2 0.14562892E-01 0.13802551E+03</pdfrwt>
<pdfrwt beam="2">  1       -2 0.26379667E-01 0.13802551E+03</pdfrwt>
<totfact> 0.49728545E+03</totfact>
</mgrwt>
</event>
<event>
 6    1  0.4705246E-006  0.2546380E+03  0.7546771E-02  0.1112047E+00
         -1   -1    0    0    0  501 -0.00000000000E+00  0.00000000000E+00  0.77476767874E+02  0.77476767874E+02  0.00000000000E+00 0. -1.
          1   -1    0    0  501    0  0.00000000000E+00 -0.00000000000E+00 -0.82145643512E+03  0.82145643512E+03  0.00000000000E+00 0.  1.
          5    1    1    2  502    0 -0.13543373042E+03 -0.10490174545E+03 -0.22454775978E+03  0.28247204810E+03  0.47000000000E+01 0. -1.
         -5    1    1    2    0  502 -0.68129010641E+01 -0.65332641607E+02 -0.22215790974E+03  0.23171317732E+03  0.47000000000E+01 0. -1.
        -11    1    1    2    0    0  0.59207994074E+02  0.31169356645E+02 -0.32560362428E+02  0.74412986483E+02  0.00000000000E+00 0. -1.
         11    1    1    2    0    0  0.83038637410E+02  0.13906503042E+03 -0.26471363529E+03  0.31033499109E+03  0.00000000000E+00 0.  1.
<mgrwt>
<rscale>  0 0.25200086E+03</rscale>
<asrwt>0</asrwt>
<pdfrwt beam="2">  1        1 0.12637792E+00 0.25463796E+03</pdfrwt>
<pdfrwt beam="1">  1       -1 0.11919503E-01 0.25463796E+03</pdfrwt>
<totfact> 0.10255402E+03</totfact>
</mgrwt>
</event>
<event>
 6    1  0.4705246E-006  0.1300075E+03  0.7546771E-02  0.1242279E+00
         -1   -1    0    0    0  501 -0.00000000000E+00  0.00000000000E+00  0.23901716934E+02  0.23901716934E+02  0.00000000000E+00 0.  1.
          1   -1    0    0  501    0  0.00000000000E+00 -0.00000000000E+00 -0.86479001218E+03  0.86479001218E+03  0.00000000000E+00 0. -1.
          5    1    1    2  502    0  0.43684208372E+02 -0.46484823803E+02 -0.18588834586E+03  0.19658513686E+03  0.47000000000E+01 0. -1.
         -5    1    1    2    0  502 -0.21186185214E+02  0.18733110418E+02 -0.54658697419E+03  0.54733828134E+03  0.47000000000E+01 0. -1.
        -11    1    1    2    0    0 -0.42361552451E+02  0.37412288550E+02 -0.10888078489E+03  0.12267520442E+03  0.00000000000E+00 0. -1.
         11    1    1    2    0    0  0.19863529293E+02 -0.96605751650E+01  0.46780970379E+00  0.22093106490E+02  0.00000000000E+00 0.  1.
<mgrwt>
<rscale>  0 0.12049703E+03</rscale>
<asrwt>0</asrwt>
<pdfrwt beam="2">  1        1 0.13304463E+00 0.13000753E+03</pdfrwt>
<pdfrwt beam="1">  1       -1 0.36771870E-02 0.13000753E+03</pdfrwt>
<totfact> 0.55089593E+03</totfact>
</mgrwt>
</event>
<event>
 6    1  0.4705246E-006  0.1281173E+03  0.7546771E-02  0.1244420E+00
          1   -1    0    0  501    0  0.00000000000E+00  0.00000000000E+00  0.44359726384E+02  0.44359726384E+02  0.00000000000E+00 0. -1.
         -1   -1    0    0    0  501 -0.00000000000E+00 -0.00000000000E+00 -0.31723596556E+03  0.31723596556E+03  0.00000000000E+00 0.  1.
          5    1    1    2  502    0 -0.20275841879E+02 -0.18681825344E+02  0.19470006902E+02  0.34077727783E+02  0.47000000000E+01 0. -1.
         -5    1    1    2    0  502  0.20223718093E+02  0.46756304245E+02 -0.11458523035E+03  0.12548711398E+03  0.47000000000E+01 0. -1.
        -11    1    1    2    0    0  0.33266210600E+02  0.19715728412E+01 -0.21934266909E+02  0.39895362286E+02  0.00000000000E+00 0. -1.
         11    1    1    2    0    0 -0.33214086814E+02 -0.30046051742E+02 -0.15582674881E+03  0.16213548789E+03  0.00000000000E+00 0.  1.
<mgrwt>
<rscale>  0 0.11920166E+03</rscale>
<asrwt>0</asrwt>
<pdfrwt beam="1">  1        1 0.68245731E-02 0.12811726E+03</pdfrwt>
<pdfrwt beam="2">  1       -1 0.48805535E-01 0.12811726E+03</pdfrwt>
<totfact> 0.44278747E+03</totfact>
</mgrwt>
</event>
<event>
 6    1  0.4705246E-006  0.3126189E+03  0.7546771E-02  0.1079097E+00
          2   -1    0    0  501    0  0.00000000000E+00  0.00000000000E+00  0.26148803653E+03  0.26148803653E+03  0.00000000000E+00 0. -1.
         -2   -1    0    0    0  501 -0.00000000000E+00 -0.00000000000E+00 -0.93436971063E+02  0.93436971063E+02  0.00000000000E+00 0.  1.
          5    1    1    2  502    0  0.82677176498E+01 -0.30272700526E+02  0.42597357929E+01  0.32016041312E+02  0.47000000000E+01 0.  1.
         -5    1    1    2    0  502  0.60071706755E+02  0.11697558717E+03  0.91816289295E+02  0.16045005119E+03  0.47000000000E+01 0.  1.
        -11    1    1    2    0    0 -0.42708279223E+02 -0.47653568205E+02 -0.13180014885E+02  0.65334313107E+02  0.00000000000E+00 0.  1.
         11    1    1    2    0    0 -0.25631145182E+02 -0.39049318438E+02  0.85155055263E+02  0.97124601985E+02  0.00000000000E+00 0. -1.
<mgrwt>
<rscale>  0 0.31261894E+03</rscale>
<asrwt>0</asrwt>
<pdfrwt beam="1">  1        2 0.40228928E-01 0.31261894E+03</pdfrwt>
<pdfrwt beam="2">  1       -2 0.14374919E-01 0.31261894E+03</pdfrwt>
<totfact> 0.46624806E+03</totfact>
</mgrwt>
</event>
<event>
 6    1  0.4705246E-006  0.2609000E+03  0.7546771E-02  0.1106604E+00
         -3   -1    0    0    0  501 -0.00000000000E+00  0.00000000000E+00  0.11527388387E+02  0.11527388387E+02  0.00000000000E+00 0.  1.
          3   -1    0    0  501    0  0.00000000000E+00 -0.00000000000E+00 -0.14762409308E+04  0.14762409308E+04  0.00000000000E+00 0. -1.
          5    1    1    2  502    0  0.60167878009E+01  0.11067069968E+02 -0.97342748577E+01  0.16599032506E+02  0.47000000000E+01 0.  1.
         -5    1    1    2    0  502 -0.50951402961E+02 -0.55151110737E+02 -0.99443275520E+03  0.99727442817E+03  0.47000000000E+01 0.  1.
        -11    1    1    2    0    0  0.71567928503E+02  0.45582607228E+02 -0.36077307879E+03  0.37061699482E+03  0.00000000000E+00 0. -1.
         11    1    1    2    0    0 -0.26633313343E+02 -0.14985664595E+01 -0.99773433543E+02  0.10327786366E+03  0.00000000000E+00 0.  1.
<mgrwt>
<rscale>  0 0.26090000E+03</rscale>
<asrwt>0</asrwt>
<pdfrwt beam="2">  1        3 0.22711401E+00 0.26090000E+03</pdfrwt>
<pdfrwt beam="1">  1       -3 0.17734442E-02 0.26090000E+03</pdfrwt>
<totfact> 0.32135915E+02</totfact>
</mgrwt>
</event>
<event>
 6    1  0.4705246E-006  0.2172479E+03  0.7546771E-02  0.1139335E+00
         -2   -1    0    0    0  501 -0.00000000000E+00  0.00000000000E+00  0.20541103192E+02  0.20541103192E+02  0.00000000000E+00 0.  1.
          2   -1    0    0  501    0  0.00000000000E+00 -0.00000000000E+00 -0.21802470372E+04  0.21802470372E+04  0.00000000000E+00 0. -1.
          5    1    1    2  502    0 -0.15795692505E+01 -0.22828584987E+02 -0.19317748937E+03  0.19458487025E+03  0.47000000000E+01 0. -1.
         -5    1    1    2    0  502 -0.13135707000E+03  0.14072312551E+03 -0.11117962994E+04  0.11283486957E+04  0.47000000000E+01 0. -1.
        -11    1    1    2    0    0  0.32870729901E+02 -0.90432410957E+02 -0.42918267047E+03  0.43983664066E+03  0.00000000000E+00 0. -1.
         11    1    1    2    0    0  0.10006590935E+03 -0.27462129569E+02 -0.42554947479E+03  0.43801793373E+03  0.00000000000E+00 0.  1.
<mgrwt>
<rscale>  0 0.21284217E+03</rscale>
<asrwt>0</asrwt>
<pdfrwt beam="2">  1        2 0.33542243E+00 0.21724786E+03</pdfrwt>
<pdfrwt beam="1">  1       -2 0.31601715E-02 0.21724786E+03</pdfrwt>
<totfact> 0.23441049E+03</totfact>
</mgrwt>
</event>
<event>
 6    1  0.4705246E-006  0.1473503E+03  0.7546771E-02  0.1213515E+00
         -1   -1    0    0    0  501 -0.00000000000E+00  0.00000000000E+00  0.14013660713E+03  0.14013660713E+03  0.00000000000E+00 0.  1.
          1   -1    0    0  501    0  0.00000000000E+00 -0.00000000000E+00 -0.13531983380E+03  0.13531983380E+03  0.00000000000E+00 0. -1.
          5    1    1    2  502    0 -0.25038767228E+02 -0.26235998685E+02 -0.51020304507E+02  0.62772836190E+02  0.47000000000E+01 0.  1.
         -5    1    1    2    0  502 -0.32470804388E+02  0.78972193633E+02  0.19961567244E+02  0.87815230294E+02  0.47000000000E+01 0.  1.
        -11    1    1    2    0    0  0.71174126499E+02 -0.65389395899E+02  0.41831805876E+02  0.10531585522E+03  0.00000000000E+00 0.  1.
         11    1    1    2    0    0 -0.13664554883E+02  0.12653200951E+02 -0.59562952834E+01  0.19552519223E+02  0.00000000000E+00 0. -1.
<mgrwt>
<rscale>  0 0.13986194E+03</rscale>
<asrwt>0</asrwt>
<pdfrwt beam="2">  1        1 0.20818436E-01 0.14735033E+03</pdfrwt>
<pdfrwt beam="1">  1       -1 0.21559478E-01 0.14735033E+03</pdfrwt>
<totfact> 0.41611495E+03</totfact>
</mgrwt>
</event>
<event>
 6    1  0.4705246E-006  0.3149221E+03  0.7546771E-02  0.1078010E+00
         -2   -1    0    0    0  501 -0.00000000000E+00  0.00000000000E+00  0.32106023659E+02  0.32106023659E+02  0.00000000000E+00 0.  1.
          2   -1    0    0  501    0  0.00000000000E+00 -0.00000000000E+00 -0.77225348470E+03  0.77225348470E+03  0.00000000000E+00 0. -1.
          5    1    1    2  502    0  0.27662209861E+02  0.35458709215E+02 -0.42573444658E+02  0.62105604446E+02  0.47000000000E+01 0.  1.
         -5    1    1    2    0  502 -0.81173761245E+02  0.63920005622E+02 -0.35276070514E+03  0.36761005390E+03  0.47000000000E+01 0.  1.
        -11    1    1    2    0    0  0.20135630075E+02 -0.57995105968E+02 -0.29655443632E+03  0.30284221901E+03  0.00000000000E+00 0. -1.
         11    1    1    2    0    0  0.33375921309E+02 -0.41383608870E+02 -0.48258874922E+02  0.71801631006E+02  0.00000000000E+00 0.  1.
<mgrwt>
<rscale>  0 0.31492214E+03</rscale>
<asrwt>0</asrwt>
<pdfrwt beam="2">  1        2 0.11880824E+00 0.31492214E+03</pdfrwt>
<pdfrwt beam="1">  1       -2 0.49393878E-02 0.31492214E+03</pdfrwt>
<totfact> 0.74160588E+03</totfact>
</mgrwt>
</event>
<event>
 6    1  0.4705246E-006  0.3233073E+03  0.7546771E-02  0.1074137E+00
         -1   -1    0    0    0  501 -0.00000000000E+00  0.00000000000E+00  0.45591974989E+02  0.45591974989E+02  0.00000000000E+00 0.  1.
          1   -1    0    0  501    0  0.00000000000E+00 -0.00000000000E+00 -0.57316900728E+03  0.57316900728E+03  0.00000000000E+00 0. -1.
          5    1    1    2  502    0 -0.10655367549E+03  0.26642449677E+02 -0.40223436197E+03  0.41698690367E+03  0.47000000000E+01 0.  1.
         -5    1    1    2    0  502  0.95102036923E+01  0.99589214825E+01  0.22433554742E+01  0.14722320984E+02  0.47000000000E+01 0.  1.
        -11    1    1    2    0    0  0.48853674469E+02  0.23040678969E+02 -0.26472562892E+02  0.60152730466E+02  0.00000000000E+00 0.  1.
         11    1    1    2    0    0  0.48189797332E+02 -0.59642050128E+02 -0.10111346291E+03  0.12689902715E+03  0.00000000000E+00 0. -1.
<mgrwt>
<rscale>  0 0.32330733E+03</rscale>
<asrwt>0</asrwt>
<pdfrwt beam="2">  1        1 0.88179846E-01 0.32330733E+03</pdfrwt>
<pdfrwt beam="1">  1       -1 0.70141501E-02 0.32330733E+03</pdfrwt>
<totfact> 0.39544217E+03</totfact>
</mgrwt>
</event>
<event>
 6    1  0.4705246E-006  0.1803124E+03  0.7546771E-02  0.1173251E+00
         -1   -1    0    0    0  501 -0.00000000000E+00  0.00000000000E+00  0.19229736277E+03  0.19229736277E+03  0.00000000000E+00 0.  1.
          1   -1    0    0  501    0  0.00000000000E+00 -0.00000000000E+00 -0.16614064205E+03  0.16614064205E+03  0.00000000000E+00 0. -1.
          5    1    1    2  502    0 -0.60561467010E+02  0.12782743752E+02  0.35498164382E+01  0.62175405274E+02  0.47000000000E+01 0. -1.
         -5    1    1    2    0  502  0.22725038901E+02  0.11154677510E+03 -0.47337459244E+02  0.12337761335E+03  0.47000000000E+01 0. -1.
        -11    1    1    2    0    0  0.25555709793E+02 -0.12063366639E+03  0.87458581164E+02  0.15117731043E+03  0.00000000000E+00 0.  1.
         11    1    1    2    0    0  0.12280718316E+02 -0.36958524609E+01 -0.17514217635E+02  0.21707675766E+02  0.00000000000E+00 0. -1.
<mgrwt>
<rscale>  0 0.17448384E+03</rscale>
<asrwt>0</asrwt>
<pdfrwt beam="2">  1        1 0.25560099E-01 0.18031241E+03</pdfrwt>
<pdfrwt beam="1">  1       -1 0.29584210E-01 0.18031241E+03</pdfrwt>
<totfact> 0.19184247E+03</totfact>
</mgrwt>
</event>
<event>
 6    1  0.4705246E-006  0.1327749E+03  0.7546771E-02  0.1235737E+00
          2   -1    0    0  501    0  0.00000000000E+00  0.00000000000E+00  0.17674870503E+03  0.17674870503E+03  0.00000000000E+00 0. -1.
         -2   -1    0    0    0  501 -0.00000000000E+00 -0.00000000000E+00 -0.82354681684E+02  0.82354681684E+02  0.00000000000E+00 0.  1.
          5    1    1    2  502    0 -0.32615725988E+02  0.39539717133E+02 -0.19106514548E+02  0.54902857037E+02  0.47000000000E+01 0.  1.
         -5    1    1    2    0  502  0.11294361498E+02 -0.17557463309E+00  0.99636324039E+02  0.10038466265E+03  0.47000000000E+01 0.  1.
        -11    1    1    2    0    0  0.35663889352E+01  0.15210472817E+02 -0.28487740939E+02  0.32490444706E+02  0.00000000000E+00 0.  1.
         11    1    1    2    0    0  0.17754975554E+02 -0.54574615317E+02  0.42351954793E+02  0.71325422317E+02  0.00000000000E+00 0. -1.
<mgrwt>
<rscale>  0 0.12457357E+03</rscale>
<asrwt>0</asrwt>
<pdfrwt beam="1">  1        2 0.27192108E-01 0.13277486E+03</pdfrwt>
<pdfrwt beam="2">  1       -2 0.12669951E-01 0.13277486E+03</pdfrwt>
<totfact> 0.83581680E+03</totfact>
</mgrwt>
</event>
<event>
 6    1  0.4705246E-006  0.1346825E+03  0.7546771E-02  0.1233268E+00
          4   -1    0    0  501    0  0.00000000000E+00  0.00000000000E+00  0.10974856155E+03  0.10974856155E+03  0.00000000000E+00 0. -1.
         -4   -1    0    0    0  501 -0.00000000000E+00 -0.00000000000E+00 -0.13000905877E+03  0.13000905877E+03  0.00000000000E+00 0.  1.
          5    1    1    2  502    0  0.32041452679E+02  0.46036157928E+02 -0.20439401650E+02  0.59881897651E+02  0.47000000000E+01 0. -1.
         -5    1    1    2    0  502  0.84705015063E+01 -0.75552182719E+02  0.11214546923E+01  0.76178929961E+02  0.47000000000E+01 0. -1.
        -11    1    1    2    0    0 -0.67795278594E+02  0.32809735254E+02 -0.67140942590E+01  0.75615855406E+02  0.00000000000E+00 0.  1.
         11    1    1    2    0    0  0.27283324409E+02 -0.32937104624E+01  0.57715440035E+01  0.28080937299E+02  0.00000000000E+00 0. -1.
<mgrwt>
<rscale>  0 0.12615955E+03</rscale>
<asrwt>0</asrwt>
<pdfrwt beam="1">  1        4 0.16884394E-01 0.13468246E+03</pdfrwt>
<pdfrwt beam="2">  1       -4 0.20001394E-01 0.13468246E+03</pdfrwt>
<totfact> 0.11357892E+03</totfact>
</mgrwt>
</event>
<event>
 6    1  0.4705246E-006  0.1258417E+03  0.7546771E-02  0.1247628E+00
         -1   -1    0    0    0  501 -0.00000000000E+00  0.00000000000E+00  0.15216423624E+02  0.15216423624E+02  0.00000000000E+00 0.  1.
          1   -1    0    0  501    0  0.00000000000E+00 -0.00000000000E+00 -0.82596417965E+03  0.82596417965E+03  0.00000000000E+00 0. -1.
          5    1    1    2  502    0 -0.73623945224E+01 -0.52418826481E+02 -0.15509866856E+03  0.16395006926E+03  0.47000000000E+01 0. -1.
         -5    1    1    2    0  502  0.38274047062E+02  0.54190873453E+02 -0.37743127222E+03  0.38324666821E+03  0.47000000000E+01 0.  1.
        -11    1    1    2    0    0 -0.52598537472E+02  0.26301994087E+02 -0.19027071262E+03  0.19915156318E+03  0.00000000000E+00 0.  1.
         11    1    1    2    0    0  0.21686884932E+02 -0.28074041059E+02 -0.87947102627E+02  0.94832302618E+02  0.00000000000E+00 0. -1.
<mgrwt>
<rscale>  0 0.11729444E+03</rscale>
<asrwt>0</asrwt>
<pdfrwt beam="2">  1        1 0.12707141E+00 0.12584169E+03</pdfrwt>
<pdfrwt beam="1">  1       -1 0.23409882E-02 0.12584169E+03</pdfrwt>
<totfact> 0.11376404E+04</totfact>
</mgrwt>
</event>
<event>
 6    1  0.4705246E-006  0.1988817E+03  0.7546771E-02  0.1168642E+00
          1   -1    0    0  501    0  0.00000000000E+00  0.00000000000E+00  0.47054434532E+02  0.47054434532E+02  0.00000000000E+00 0. -1.
         -1   -1    0    0    0  501 -0.00000000000E+00 -0.00000000000E+00 -0.70480786834E+03  0.70480786834E+03  0.00000000000E+00 0.  1.
          5    1    1    2  502    0 -0.60438925574E+02 -0.28008492032E+02 -0.92349015856E+01  0.67414484777E+02  0.47000000000E+01 0. -1.
         -5    1    1    2    0  502 -0.10680307472E+02  0.85563797477E+02 -0.21845624098E+03  0.23490519711E+03  0.47000000000E+01 0.  1.
        -11    1    1    2    0    0 -0.21996158542E+02 -0.59533546751E+01 -0.51919695919E+02  0.56700337272E+02  0.00000000000E+00 0. -1.
         11    1    1    2    0    0  0.93115391588E+02 -0.51601950770E+02 -0.37814259532E+03  0.39284228371E+03  0.00000000000E+00 0.  1.
<mgrwt>
<rscale>  0 0.17913549E+03</rscale>
<asrwt>0</asrwt>
<pdfrwt beam="1">  1        1 0.72391439E-02 0.19888171E+03</pdfrwt>
<pdfrwt beam="2">  1       -1 0.10843198E+00 0.19888171E+03</pdfrwt>
<totfact> 0.83218370E+02</totfact>
</mgrwt>
</event>
<event>
 6    1  0.4705246E-006  0.1347569E+03  0.7546771E-02  0.1233244E+00
          1   -1    0    0  501    0  0.00000000000E+00  0.00000000000E+00  0.52246763342E+02  0.52246763342E+02  0.00000000000E+00 0. -1.
         -1   -1    0    0    0  501 -0.00000000000E+00 -0.00000000000E+00 -0.29049691843E+03  0.29049691843E+03  0.00000000000E+00 0.  1.
          5    1    1    2  502    0 -0.39096435648E+02  0.54535897820E+02 -0.47092880291E+02  0.82112878439E+02  0.47000000000E+01 0.  1.
         -5    1    1    2    0  502 -0.97909237500E+01 -0.66574563446E+02 -0.43478720096E+02  0.80252874012E+02  0.47000000000E+01 0.  1.
        -11    1    1    2    0    0 -0.11568808397E+02  0.18127853193E+02 -0.90456840857E+00  0.21523815487E+02  0.00000000000E+00 0. -1.
         11    1    1    2    0    0  0.60456167795E+02 -0.60891875669E+01 -0.14677398630E+03  0.15885411384E+03  0.00000000000E+00 0.  1.
<mgrwt>
<rscale>  0 0.12617528E+03</rscale>
<asrwt>0</asrwt>
<pdfrwt beam="1">  1        1 0.80379635E-02 0.13475690E+03</pdfrwt>
<pdfrwt beam="2">  1       -1 0.44691834E-01 0.13475690E+03</pdfrwt>
<totfact> 0.41773409E+03</totfact>
</mgrwt>
</event>
<event>
 6    1  0.4705246E-006  0.1257220E+03  0.7546771E-02  0.1249204E+00
         -1   -1    0    0    0  501 -0.00000000000E+00  0.00000000000E+00  0.49755395459E+03  0.49755395459E+03  0.00000000000E+00 0.  1.
          1   -1    0    0  501    0  0.00000000000E+00 -0.00000000000E+00 -0.30075640938E+02  0.30075640938E+02  0.00000000000E+00 0. -1.
          5    1    1    2  502    0  0.39081765928E+02  0.40249926237E+02  0.62769195393E+02  0.84317868096E+02  0.47000000000E+01 0. -1.
         -5    1    1    2    0  502 -0.45487529906E+02 -0.52211900067E+02  0.80834157073E+02  0.10654317827E+03  0.47000000000E+01 0. -1.
        -11    1    1    2    0    0 -0.16794332453E+02  0.43496716159E+02  0.23607924054E+03  0.24063960965E+03  0.00000000000E+00 0. -1.
         11    1    1    2    0    0  0.23200096432E+02 -0.31534742329E+02  0.87795720642E+02  0.96128939510E+02  0.00000000000E+00 0.  1.
<mgrwt>
<rscale>  0 0.11637268E+03</rscale>
<asrwt>0</asrwt>
<pdfrwt beam="2">  1        1 0.46270220E-02 0.12572198E+03</pdfrwt>
<pdfrwt beam="1">  1       -1 0.76546756E-01 0.12572198E+03</pdfrwt>
<totfact> 0.31767835E+03</totfact>
</mgrwt>
</event>
<event>
 6    1  0.4705246E-006  0.2299349E+03  0.7546771E-02  0.1129815E+00
         -1   -1    0    0    0  501 -0.00000000000E+00  0.00000000000E+00  0.62053173441E+02  0.62053173441E+02  0.00000000000E+00 0.  1.
          1   -1    0    0  501    0  0.00000000000E+00 -0.00000000000E+00 -0.10974039866E+04  0.10974039866E+04  0.00000000000E+00 0. -1.
          5    1    1    2  502    0  0.25183612290E+02  0.65229968568E+02 -0.26627572087E+03  0.27534344490E+03  0.47000000000E+01 0. -1.
         -5    1    1    2    0  502 -0.12416749507E+03  0.10044298412E+03 -0.57244552318E+03  0.59432510202E+03  0.47000000000E+01 0. -1.
        -11    1    1    2    0    0  0.12484871724E+02  0.47927485994E+01  0.26674110209E+01  0.13636625047E+02  0.00000000000E+00 0.  1.
         11    1    1    2    0    0  0.86499011052E+02 -0.17046570129E+03 -0.19929698018E+03  0.27615198811E+03  0.00000000000E+00 0. -1.
<mgrwt>
<rscale>  0 0.22554490E+03</rscale>
<asrwt>0</asrwt>
<pdfrwt beam="2">  1        1 0.16883139E+00 0.22993490E+03</pdfrwt>
<pdfrwt beam="1">  1       -1 0.95466419E-02 0.22993490E+03</pdfrwt>
<totfact> 0.89130505E+02</totfact>
</mgrwt>
</event>
<event>
 6    1  0.4705246E-006  0.3426094E+03  0.7546771E-02  0.1065690E+00
          1   -1    0    0  501    0  0.00000000000E+00  0.00000000000E+00  0.38330050630E+02  0.38330050630E+02  0.00000000000E+00 0. -1.
         -1   -1    0    0    0  501 -0.00000000000E+00 -0.00000000000E+00 -0.76559511774E+03  0.76559511774E+03  0.00000000000E+00 0.  1.
          5    1    1    2  502    0 -0.12114202943E+02  0.12837372095E+03 -0.15192400841E+03  0.19932275454E+03  0.47000000000E+01 0. -1.
         -5    1    1    2    0  502 -0.27282698404E+02 -0.10293990995E+02 -0.12947139735E+03  0.13279775832E+03  0.47000000000E+01 0. -1.
        -11    1    1    2    0    0 -0.22522858500E+02 -0.70713912660E+02 -0.17882542813E+03  0.19361371425E+03  0.00000000000E+00 0.  1.
         11    1    1    2    0    0  0.61919759847E+02 -0.47365817298E+02 -0.26704423322E+03  0.27819094127E+03  0.00000000000E+00 0. -1.
<mgrwt>
<rscale>  0 0.34260940E+03</rscale>
<asrwt>0</asrwt>
<pdfrwt beam="1">  1        1 0.58969310E-02 0.34260940E+03</pdfrwt>
<pdfrwt beam="2">  1       -1 0.11778386E+00 0.34260940E+03</pdfrwt>
<totfact> 0.91741590E+02</totfact>
</mgrwt>
</event>
<event>
 6    1  0.4705246E-006  0.1343278E+03  0.7546771E-02  0.1234747E+00
          4   -1    0    0  501    0  0.00000000000E+00  0.00000000000E+00  0.32576539150E+02  0.32576539150E+02  0.00000000000E+00 0. -1.
         -4   -1    0    0    0  501 -0.00000000000E+00 -0.00000000000E+00 -0.45446751899E+03  0.45446751899E+03  0.00000000000E+00 0.  1.
          5    1    1    2  502    0  0.21537040298E+02  0.45093581056E+02 -0.13234480515E+02  0.51908733676E+02  0.47000000000E+01 0.  1.
         -5    1    1    2    0  502  0.26912780066E+02 -0.36611265244E+02 -0.16542061379E+03  0.17161221384E+03  0.47000000000E+01 0.  1.
        -11    1    1    2    0    0  0.77147751590E+00 -0.39971509840E+02 -0.68940137064E+02  0.79693533456E+02  0.00000000000E+00 0.  1.
         11    1    1    2    0    0 -0.49221297880E+02  0.31489194027E+02 -0.17429574847E+03  0.18382957716E+03  0.00000000000E+00 0. -1.
<mgrwt>
<rscale>  0 0.12520670E+03</rscale>
<asrwt>0</asrwt>
<pdfrwt beam="1">  1        4 0.50117754E-02 0.13432785E+03</pdfrwt>
<pdfrwt beam="2">  1       -4 0.69918078E-01 0.13432785E+03</pdfrwt>
<totfact> 0.75168008E+02</totfact>
</mgrwt>
</event>
<event>
 6    1  0.4705246E-006  0.1338789E+03  0.7546771E-02  0.1235666E+00
          1   -1    0    0  501    0  0.00000000000E+00  0.00000000000E+00  0.12190437000E+03  0.12190437000E+03  0.00000000000E+00 0. -1.
         -1   -1    0    0    0  501 -0.00000000000E+00 -0.00000000000E+00 -0.12665089371E+03  0.12665089371E+03  0.00000000000E+00 0.  1.
          5    1    1    2  502    0 -0.31151191755E+02  0.10424211262E+02 -0.20793511805E+02  0.39160197412E+02  0.47000000000E+01 0.  1.
         -5    1    1    2    0  502  0.78112394832E+02 -0.20132033646E+02  0.59044672739E+02  0.10007601303E+03  0.47000000000E+01 0.  1.
        -11    1    1    2    0    0 -0.51180106399E+02  0.25921939473E+02 -0.61672082657E+02  0.84230612109E+02  0.00000000000E+00 0.  1.
         11    1    1    2    0    0  0.42189033219E+01 -0.16214117089E+02  0.18674398012E+02  0.25088441149E+02  0.00000000000E+00 0. -1.
<mgrwt>
<rscale>  0 0.12461902E+03</rscale>
<asrwt>0</asrwt>
<pdfrwt beam="1">  1        1 0.18754518E-01 0.13387894E+03</pdfrwt>
<pdfrwt beam="2">  1       -1 0.19484753E-01 0.13387894E+03</pdfrwt>
<totfact> 0.55619578E+03</totfact>
</mgrwt>
</event>
<event>
 6    1  0.4705246E-006  0.1386145E+03  0.7546771E-02  0.1226022E+00
         -2   -1    0    0    0  501 -0.00000000000E+00  0.00000000000E+00  0.16366654490E+02  0.16366654490E+02  0.00000000000E+00 0.  1.
          2   -1    0    0  501    0  0.00000000000E+00 -0.00000000000E+00 -0.11552992791E+04  0.11552992791E+04  0.00000000000E+00 0. -1.
          5    1    1    2  502    0 -0.15679756618E+02 -0.65245166387E+02 -0.53172574951E+03  0.53596375735E+03  0.47000000000E+01 0.  1.
         -5    1    1    2    0  502  0.61949107025E+02  0.27176725199E+02 -0.33750292541E+03  0.34424784809E+03  0.47000000000E+01 0.  1.
        -11    1    1    2    0    0  0.80487480113E+01  0.40528299479E+02 -0.19336548821E+03  0.19773097237E+03  0.00000000000E+00 0.  1.
         11    1    1    2    0    0 -0.54318098418E+02 -0.24598582915E+01 -0.76338461519E+02  0.93723355817E+02  0.00000000000E+00 0. -1.
<mgrwt>
<rscale>  0 0.13097112E+03</rscale>
<asrwt>0</asrwt>
<pdfrwt beam="2">  1        2 0.17773840E+00 0.13861451E+03</pdfrwt>
<pdfrwt beam="1">  1       -2 0.25179461E-02 0.13861451E+03</pdfrwt>
<totfact> 0.11274876E+04</totfact>
</mgrwt>
</event>
<event>
 6    1  0.4705246E-006  0.3663508E+03  0.7546771E-02  0.1056097E+00
          2   -1    0    0  501    0  0.00000000000E+00  0.00000000000E+00  0.20529414903E+03  0.20529414903E+03  0.00000000000E+00 0. -1.
         -2   -1    0    0    0  501 -0.00000000000E+00 -0.00000000000E+00 -0.16343978152E+03  0.16343978152E+03  0.00000000000E+00 0.  1.
          5    1    1    2  502    0  0.40883927811E+00 -0.10222877538E+02  0.56065183013E+02  0.57184518193E+02  0.47000000000E+01 0.  1.
         -5    1    1    2    0  502 -0.13715997218E+03 -0.31559814659E+02 -0.80526836378E-01  0.14082249946E+03  0.47000000000E+01 0.  1.
        -11    1    1    2    0    0  0.37496288589E+02 -0.13205290057E+02 -0.37754523399E+02  0.54824769772E+02  0.00000000000E+00 0.  1.
         11    1    1    2    0    0  0.99254844316E+02  0.54987982254E+02  0.23624234740E+02  0.11590214312E+03  0.00000000000E+00 0. -1.
<mgrwt>
<rscale>  0 0.36635082E+03</rscale>
<asrwt>0</asrwt>
<pdfrwt beam="1">  1        2 0.31583715E-01 0.36635082E+03</pdfrwt>
<pdfrwt beam="2">  1       -2 0.25144582E-01 0.36635082E+03</pdfrwt>
<totfact> 0.23428476E+03</totfact>
</mgrwt>
</event>
<event>
 6    1  0.4705246E-006  0.2755810E+03  0.7546771E-02  0.1098127E+00
         -2   -1    0    0    0  501 -0.00000000000E+00  0.00000000000E+00  0.18569689874E+02  0.18569689874E+02  0.00000000000E+00 0.  1.
          2   -1    0    0  501    0  0.00000000000E+00 -0.00000000000E+00 -0.10224305743E+04  0.10224305743E+04  0.00000000000E+00 0. -1.
          5    1    1    2  502    0 -0.53591486985E+01 -0.30494766009E+02 -0.75001872121E+02  0.81277438754E+02  0.47000000000E+01 0. -1.
         -5    1    1    2    0  502 -0.70289832129E+01  0.11061397043E+03 -0.57187839646E+03  0.58253913808E+03  0.47000000000E+01 0. -1.
        -11    1    1    2    0    0 -0.31120249182E+02 -0.49871455778E+02 -0.11148015546E+03  0.12602958808E+03  0.00000000000E+00 0. -1.
         11    1    1    2    0    0  0.43508381094E+02 -0.30247748646E+02 -0.24550046037E+03  0.25115409924E+03  0.00000000000E+00 0.  1.
<mgrwt>
<rscale>  0 0.27558098E+03</rscale>
<asrwt>0</asrwt>
<pdfrwt beam="2">  1        2 0.15729709E+00 0.27558098E+03</pdfrwt>
<pdfrwt beam="1">  1       -2 0.28568740E-02 0.27558098E+03</pdfrwt>
<totfact> 0.11563334E+04</totfact>
</mgrwt>
</event>
<event>
 6    1  0.4705246E-006  0.1557911E+03  0.7546771E-02  0.1216713E+00
         -1   -1    0    0    0  501 -0.00000000000E+00  0.00000000000E+00  0.99200205776E+01  0.99200205776E+01  0.00000000000E+00 0.  1.
          1   -1    0    0  501    0  0.00000000000E+00 -0.00000000000E+00 -0.30168809183E+04  0.30168809183E+04  0.00000000000E+00 0. -1.
          5    1    1    2  502    0  0.15475003338E+02  0.72698912279E+02 -0.18993260618E+04  0.19007856762E+04  0.47000000000E+01 0. -1.
         -5    1    1    2    0  502  0.58983286155E+01 -0.69904936575E+02 -0.82473193700E+03  0.82772359417E+03  0.47000000000E+01 0.  1.
        -11    1    1    2    0    0 -0.46201933451E+02 -0.29793007254E+02 -0.13190694529E+03  0.14290445812E+03  0.00000000000E+00 0.  1.
         11    1    1    2    0    0  0.24828601497E+02  0.26999031550E+02 -0.15099595361E+03  0.15538721043E+03  0.00000000000E+00 0. -1.
<mgrwt>
<rscale>  0 0.13751422E+03</rscale>
<asrwt>0</asrwt>
<pdfrwt beam="2">  1        1 0.46413615E+00 0.15579107E+03</pdfrwt>
<pdfrwt beam="1">  1       -1 0.15261550E-02 0.15579107E+03</pdfrwt>
<totfact> 0.73188904E+02</totfact>
</mgrwt>
</event>
<event>
 6    1  0.4705246E-006  0.3088086E+03  0.7546771E-02  0.1082377E+00
          2   -1    0    0  501    0  0.00000000000E+00  0.00000000000E+00  0.15829530636E+04  0.15829530636E+04  0.00000000000E+00 0. -1.
         -2   -1    0    0    0  501 -0.00000000000E+00 -0.00000000000E+00 -0.57989688905E+02  0.57989688905E+02  0.00000000000E+00 0.  1.
          5    1    1    2  502    0  0.32458154615E+02 -0.19285694247E+03  0.34745833940E+03  0.39874392745E+03  0.47000000000E+01 0.  1.
         -5    1    1    2    0  502 -0.18052277350E+00 -0.87670987128E+02  0.40903554845E+03  0.41835201024E+03  0.47000000000E+01 0.  1.
        -11    1    1    2    0    0 -0.35251734819E+02  0.20876126039E+03  0.44914052189E+03  0.49653917977E+03  0.00000000000E+00 0.  1.
         11    1    1    2    0    0  0.29741029771E+01  0.71766669204E+02  0.31932896494E+03  0.32730763502E+03  0.00000000000E+00 0. -1.
<mgrwt>
<rscale>  0 0.30579983E+03</rscale>
<asrwt>0</asrwt>
<pdfrwt beam="1">  1        2 0.24353121E+00 0.30880863E+03</pdfrwt>
<pdfrwt beam="2">  1       -2 0.89214918E-02 0.30880863E+03</pdfrwt>
<totfact> 0.97898745E+02</totfact>
</mgrwt>
</event>
<event>
 6    1  0.4705246E-006  0.2419815E+03  0.7546771E-02  0.1119902E+00
         -1   -1    0    0    0  501 -0.00000000000E+00  0.00000000000E+00  0.49986880535E+02  0.49986880535E+02  0.00000000000E+00 0.  1.
          1   -1    0    0  501    0  0.00000000000E+00 -0.00000000000E+00 -0.13151412388E+04  0.13151412388E+04  0.00000000000E+00 0. -1.
          5    1    1    2  502    0  0.14076482735E+03  0.13930026643E+03 -0.70734975680E+03  0.73456454399E+03  0.47000000000E+01 0.  1.
         -5    1    1    2    0  502 -0.26616162007E+02  0.33618153416E+02 -0.19044648101E+03  0.19527045975E+03  0.47000000000E+01 0.  1.
        -11    1    1    2    0    0 -0.26788835791E+02  0.51316425981E+01 -0.15453229456E+02  0.31349286744E+02  0.00000000000E+00 0.  1.
         11    1    1    2    0    0 -0.87359829557E+02 -0.17805006244E+03 -0.35190489095E+03  0.40394382881E+03  0.00000000000E+00 0. -1.
<mgrwt>
<rscale>  0 0.23983590E+03</rscale>
<asrwt>0</asrwt>
<pdfrwt beam="2">  1        1 0.20232939E+00 0.24198151E+03</pdfrwt>
<pdfrwt beam="1">  1       -1 0.76902906E-02 0.24198151E+03</pdfrwt>
<totfact> 0.87466077E+02</totfact>
</mgrwt>
</event>
<event>
 6    1  0.4705246E-006  0.1427102E+03  0.7546771E-02  0.1220293E+00
         -1   -1    0    0    0  501 -0.00000000000E+00  0.00000000000E+00  0.48240039145E+02  0.48240039145E+02  0.00000000000E+00 0.  1.
          1   -1    0    0  501    0  0.00000000000E+00 -0.00000000000E+00 -0.55642008427E+03  0.55642008427E+03  0.00000000000E+00 0. -1.
          5    1    1    2  502    0 -0.41890363892E+02  0.41174995676E+01 -0.17546170647E+03  0.18050112694E+03  0.47000000000E+01 0. -1.
         -5    1    1    2    0  502  0.85012752854E+02  0.49572095563E+02 -0.28306212766E+03  0.29971789890E+03  0.47000000000E+01 0. -1.
        -11    1    1    2    0    0 -0.42683767520E+01 -0.26038127450E+02  0.24675968456E+02  0.36126258324E+02  0.00000000000E+00 0.  1.
         11    1    1    2    0    0 -0.38854012210E+02 -0.27651467681E+02 -0.74332179446E+02  0.88314839245E+02  0.00000000000E+00 0. -1.
<mgrwt>
<rscale>  0 0.13494818E+03</rscale>
<asrwt>0</asrwt>
<pdfrwt beam="2">  1        1 0.85603087E-01 0.14271022E+03</pdfrwt>
<pdfrwt beam="1">  1       -1 0.74215447E-02 0.14271022E+03</pdfrwt>
<totfact> 0.36732508E+03</totfact>
</mgrwt>
</event>
<event>
 6    1  0.4705246E-006  0.3333038E+03  0.7546771E-02  0.1070952E+00
         -1   -1    0    0    0  501 -0.00000000000E+00  0.00000000000E+00  0.85076657937E+02  0.85076657937E+02  0.00000000000E+00 0.  1.
          1   -1    0    0  501    0  0.00000000000E+00 -0.00000000000E+00 -0.21791508486E+04  0.21791508486E+04  0.00000000000E+00 0. -1.
          5    1    1    2  502    0  0.36793315853E+02  0.27341363340E+02 -0.13611051964E+03  0.14369920597E+03  0.47000000000E+01 0. -1.
         -5    1    1    2    0  502  0.26968660162E+03 -0.66556242340E+02 -0.16560526928E+04  0.16791942138E+04  0.47000000000E+01 0. -1.
        -11    1    1    2    0    0 -0.11747519257E+03 -0.45872850403E+01 -0.17012370583E+03  0.20679347025E+03  0.00000000000E+00 0.  1.
         11    1    1    2    0    0 -0.18900472490E+03  0.43802164041E+02 -0.13178727241E+03  0.23454061649E+03  0.00000000000E+00 0. -1.
<mgrwt>
<rscale>  0 0.33041790E+03</rscale>
<asrwt>0</asrwt>
<pdfrwt beam="2">  1        1 0.33525392E+00 0.33330383E+03</pdfrwt>
<pdfrwt beam="1">  1       -1 0.13088719E-01 0.33330383E+03</pdfrwt>
<totfact> 0.10175740E+02</totfact>
</mgrwt>
</event>
<event>
 6    1  0.4705246E-006  0.1350756E+03  0.7546771E-02  0.1232894E+00
         -1   -1    0    0    0  501 -0.00000000000E+00  0.00000000000E+00  0.14233492214E+03  0.14233492214E+03  0.00000000000E+00 0.  1.
          1   -1    0    0  501    0  0.00000000000E+00 -0.00000000000E+00 -0.10011994332E+03  0.10011994332E+03  0.00000000000E+00 0. -1.
          5    1    1    2  502    0 -0.30618612176E+02 -0.33869506495E+01 -0.30993145277E+02  0.43950379981E+02  0.47000000000E+01 0. -1.
         -5    1    1    2    0  502  0.55480240685E+02  0.48120414377E+02  0.58232869941E+02  0.93844491196E+02  0.47000000000E+01 0. -1.
        -11    1    1    2    0    0 -0.25623661533E+02  0.18834445495E+02 -0.14060235720E+02  0.34770657112E+02  0.00000000000E+00 0. -1.
         11    1    1    2    0    0  0.76203302400E+00 -0.63567909222E+02  0.29035489877E+02  0.69889337167E+02  0.00000000000E+00 0.  1.
<mgrwt>
<rscale>  0 0.12640229E+03</rscale>
<asrwt>0</asrwt>
<pdfrwt beam="2">  1        1 0.15403068E-01 0.13507562E+03</pdfrwt>
<pdfrwt beam="1">  1       -1 0.21897680E-01 0.13507562E+03</pdfrwt>
<totfact> 0.59376833E+03</totfact>
</mgrwt>
</event>
<event>
 6    1  0.4705246E-006  0.1415549E+03  0.7546771E-02  0.1221610E+00
          2   -1    0    0  501    0  0.00000000000E+00  0.00000000000E+00  0.71945237436E+03  0.71945237436E+03  0.00000000000E+00 0. -1.
         -2   -1    0    0    0  501 -0.00000000000E+00 -0.00000000000E+00 -0.38204386587E+02  0.38204386587E+02  0.00000000000E+00 0.  1.
          5    1    1    2  502    0  0.54116933182E+02 -0.21961588814E+01  0.13402966063E+03  0.14463576840E+03  0.47000000000E+01 0.  1.
         -5    1    1    2    0  502 -0.33865309034E+02  0.65456913161E+02  0.46948697548E+03  0.47525948363E+03  0.47000000000E+01 0.  1.
        -11    1    1    2    0    0 -0.11310103144E+01 -0.84722860515E+02  0.53882555874E+02  0.10041201176E+03  0.00000000000E+00 0.  1.
         11    1    1    2    0    0 -0.19120613834E+02  0.21462106235E+02  0.23848795787E+02  0.37349497158E+02  0.00000000000E+00 0. -1.
<mgrwt>
<rscale>  0 0.13401981E+03</rscale>
<asrwt>0</asrwt>
<pdfrwt beam="1">  1        2 0.11068497E+00 0.14155491E+03</pdfrwt>
<pdfrwt beam="2">  1       -2 0.58775985E-02 0.14155491E+03</pdfrwt>
<totfact> 0.60014930E+03</totfact>
</mgrwt>
</event>
<event>
 6    1  0.4705246E-006  0.3176928E+03  0.7546771E-02  0.1076716E+00
          1   -1    0    0  501    0  0.00000000000E+00  0.00000000000E+00  0.67341813663E+03  0.67341813663E+03  0.00000000000E+00 0. -1.
         -1   -1    0    0    0  501 -0.00000000000E+00 -0.00000000000E+00 -0.37468803442E+02  0.37468803442E+02  0.00000000000E+00 0.  1.
          5    1    1    2  502    0  0.17293918589E+02 -0.19738370335E+02  0.48172031011E+03  0.48245749041E+03  0.47000000000E+01 0.  1.
         -5    1    1    2    0  502  0.50595526712E+02 -0.25563954865E+01  0.63044175627E+02  0.81012965392E+02  0.47000000000E+01 0.  1.
        -11    1    1    2    0    0 -0.47833595200E+02 -0.32038268731E+02  0.39786099153E+02  0.69981691741E+02  0.00000000000E+00 0.  1.
         11    1    1    2    0    0 -0.20055850100E+02  0.54333034553E+02  0.51398748300E+02  0.77434792527E+02  0.00000000000E+00 0. -1.
<mgrwt>
<rscale>  0 0.31769276E+03</rscale>
<asrwt>0</asrwt>
<pdfrwt beam="1">  1        1 0.10360278E+00 0.31769276E+03</pdfrwt>
<pdfrwt beam="2">  1       -1 0.57644318E-02 0.31769276E+03</pdfrwt>
<totfact> 0.42413530E+03</totfact>
</mgrwt>
</event>
<event>
 6    1  0.4705246E-006  0.1272671E+03  0.7546771E-02  0.1242993E+00
          1   -1    0    0  501    0  0.00000000000E+00  0.00000000000E+00  0.44979593691E+03  0.44979593691E+03  0.00000000000E+00 0. -1.
         -1   -1    0    0    0  501 -0.00000000000E+00 -0.00000000000E+00 -0.47607725866E+02  0.47607725866E+02  0.00000000000E+00 0.  1.
          5    1    1    2  502    0  0.62458308543E+02  0.10577208737E+02  0.10083069681E+03  0.11917146080E+03  0.47000000000E+01 0. -1.
         -5    1    1    2    0  502 -0.38968189622E+02 -0.60714496451E+01  0.26964497289E+03  0.27255436836E+03  0.47000000000E+01 0. -1.
        -11    1    1    2    0    0 -0.29200584272E+01 -0.50381006512E+02  0.17796104915E+02  0.53511437175E+02  0.00000000000E+00 0. -1.
         11    1    1    2    0    0 -0.20570060494E+02  0.45875247420E+02  0.13916436421E+02  0.52166396437E+02  0.00000000000E+00 0.  1.
<mgrwt>
<rscale>  0 0.12006323E+03</rscale>
<asrwt>0</asrwt>
<pdfrwt beam="1">  1        1 0.69199372E-01 0.12726706E+03</pdfrwt>
<pdfrwt beam="2">  1       -1 0.73242658E-02 0.12726706E+03</pdfrwt>
<totfact> 0.49186562E+03</totfact>
</mgrwt>
</event>
<event>
 6    1  0.4705246E-006  0.1442286E+03  0.7546771E-02  0.1216767E+00
          2   -1    0    0  501    0  0.00000000000E+00  0.00000000000E+00  0.13513348658E+04  0.13513348658E+04  0.00000000000E+00 0.  1.
         -2   -1    0    0    0  501 -0.00000000000E+00 -0.00000000000E+00 -0.12828076150E+02  0.12828076150E+02  0.00000000000E+00 0. -1.
          5    1    1    2  502    0 -0.52154431329E+02 -0.72409674127E+02  0.63529339378E+03  0.64154737299E+03  0.47000000000E+01 0. -1.
         -5    1    1    2    0  502  0.41223543021E+02  0.13030706844E+01  0.10997208212E+03  0.11754585207E+03  0.47000000000E+01 0. -1.
        -11    1    1    2    0    0  0.49652472271E+02  0.56069319916E+02  0.43850806325E+03  0.44485779545E+03  0.00000000000E+00 0.  1.
         11    1    1    2    0    0 -0.38721583962E+02  0.15037283527E+02  0.15473325051E+03  0.16021192145E+03  0.00000000000E+00 0. -1.
<mgrwt>
<rscale>  0 0.13747558E+03</rscale>
<asrwt>0</asrwt>
<pdfrwt beam="1">  1        2 0.20789756E+00 0.14422862E+03</pdfrwt>
<pdfrwt beam="2">  1       -2 0.19735512E-02 0.14422862E+03</pdfrwt>
<totfact> 0.12589652E+04</totfact>
</mgrwt>
</event>
<event>
 6    1  0.4705246E-006  0.2131129E+03  0.7546771E-02  0.1165030E+00
         -2   -1    0    0    0  501 -0.00000000000E+00  0.00000000000E+00  0.10786546888E+03  0.10786546888E+03  0.00000000000E+00 0.  1.
          2   -1    0    0  501    0  0.00000000000E+00 -0.00000000000E+00 -0.25996165081E+03  0.25996165081E+03  0.00000000000E+00 0. -1.
          5    1    1    2  502    0  0.44666214915E+02  0.36480932244E+02 -0.11814326068E+03  0.13155169788E+03  0.47000000000E+01 0. -1.
         -5    1    1    2    0  502 -0.56370314674E+02 -0.10366302412E+03 -0.13304211383E+02  0.11883908022E+03  0.47000000000E+01 0.  1.
        -11    1    1    2    0    0  0.11070014533E+02  0.89730196488E+02 -0.26346037613E+02  0.94170946058E+02  0.00000000000E+00 0. -1.
         11    1    1    2    0    0  0.63408522661E+00 -0.22548104610E+02  0.56973277497E+01  0.23265395527E+02  0.00000000000E+00 0.  1.
<mgrwt>
<rscale>  0 0.18289554E+03</rscale>
<asrwt>0</asrwt>
<pdfrwt beam="2">  1        2 0.39994100E-01 0.21311289E+03</pdfrwt>
<pdfrwt beam="1">  1       -2 0.16594688E-01 0.21311289E+03</pdfrwt>
<totfact> 0.36370880E+03</totfact>
</mgrwt>
</event>
<event>
 6    1  0.4705246E-006  0.4335919E+03  0.7546771E-02  0.1032731E+00
         -2   -1    0    0    0  501 -0.00000000000E+00  0.00000000000E+00  0.41732056989E+02  0.41732056989E+02  0.00000000000E+00 0.  1.
          2   -1    0    0  501    0  0.00000000000E+00 -0.00000000000E+00 -0.11262441299E+04  0.11262441299E+04  0.00000000000E+00 0. -1.
          5    1    1    2  502    0 -0.99317706147E+01 -0.11072142606E+02 -0.75027332796E+03  0.75043546628E+03  0.47000000000E+01 0. -1.
         -5    1    1    2    0  502  0.56827040237E+02 -0.50079616253E+02 -0.27421498221E+03  0.28452280564E+03  0.47000000000E+01 0. -1.
        -11    1    1    2    0    0 -0.13519880183E+02  0.30769393375E+02 -0.77613859780E+02  0.84578093847E+02  0.00000000000E+00 0. -1.
         11    1    1    2    0    0 -0.33375389439E+02  0.30382365484E+02  0.17590097059E+02  0.48439821089E+02  0.00000000000E+00 0.  1.
<mgrwt>
<rscale>  0 0.43359190E+03</rscale>
<asrwt>0</asrwt>
<pdfrwt beam="2">  1        2 0.17326834E+00 0.43359190E+03</pdfrwt>
<pdfrwt beam="1">  1       -2 0.64203162E-02 0.43359190E+03</pdfrwt>
<totfact> 0.29453606E+03</totfact>
</mgrwt>
</event>
<event>
 6    1  0.4705246E-006  0.1280249E+03  0.7546771E-02  0.1245353E+00
          1   -1    0    0  501    0  0.00000000000E+00  0.00000000000E+00  0.72863086110E+03  0.72863086110E+03  0.00000000000E+00 0. -1.
         -1   -1    0    0    0  501 -0.00000000000E+00 -0.00000000000E+00 -0.24444472677E+02  0.24444472677E+02  0.00000000000E+00 0.  1.
          5    1    1    2  502    0 -0.48752156610E+02 -0.29091158284E+00  0.31331327284E+03  0.31711851782E+03  0.47000000000E+01 0.  1.
         -5    1    1    2    0  502  0.73929114296E+02  0.11824017613E+02  0.28216137122E+03  0.29196309825E+03  0.47000000000E+01 0.  1.
        -11    1    1    2    0    0  0.71803466549E+01 -0.27070727702E+02 -0.15369521299E+01  0.28048955386E+02  0.00000000000E+00 0.  1.
         11    1    1    2    0    0 -0.32357304341E+02  0.15537621672E+02  0.11024869650E+03  0.11594476232E+03  0.00000000000E+00 0. -1.
<mgrwt>
<rscale>  0 0.11864287E+03</rscale>
<asrwt>0</asrwt>
<pdfrwt beam="1">  1        1 0.11209704E+00 0.12802485E+03</pdfrwt>
<pdfrwt beam="2">  1       -1 0.37606887E-02 0.12802485E+03</pdfrwt>
<totfact> 0.68874617E+03</totfact>
</mgrwt>
</event>
<event>
 6    1  0.4705246E-006  0.2297892E+03  0.7546771E-02  0.1129819E+00
          1   -1    0    0  501    0  0.00000000000E+00  0.00000000000E+00  0.15722585915E+04  0.15722585915E+04  0.00000000000E+00 0. -1.
         -1   -1    0    0    0  501 -0.00000000000E+00 -0.00000000000E+00 -0.40190747934E+02  0.40190747934E+02  0.00000000000E+00 0.  1.
          5    1    1    2  502    0 -0.43973871971E+02 -0.88240514775E+02  0.29231576615E+03  0.30852988025E+03  0.47000000000E+01 0.  1.
         -5    1    1    2    0  502 -0.91947608277E+02 -0.48519428107E+02  0.87678095812E+03  0.88293569193E+03  0.47000000000E+01 0.  1.
        -11    1    1    2    0    0  0.11963825410E+03  0.14752106344E+03  0.34772266120E+03  0.39621562957E+03  0.00000000000E+00 0.  1.
         11    1    1    2    0    0  0.16283226152E+02 -0.10761120555E+02  0.15248458057E+02  0.24768137650E+02  0.00000000000E+00 0. -1.
<mgrwt>
<rscale>  0 0.22554016E+03</rscale>
<asrwt>0</asrwt>
<pdfrwt beam="1">  1        1 0.24188589E+00 0.22978916E+03</pdfrwt>
<pdfrwt beam="2">  1       -1 0.61831932E-02 0.22978916E+03</pdfrwt>
<totfact> 0.82190197E+02</totfact>
</mgrwt>
</event>
<event>
 6    1  0.5101889E-006  0.1271399E+03  0.7546771E-02  0.1248136E+00
         -1   -1    0    0    0  501 -0.00000000000E+00  0.00000000000E+00  0.17507890530E+02  0.17507890530E+02  0.00000000000E+00 0.  1.
          1   -1    0    0  501    0  0.00000000000E+00 -0.00000000000E+00 -0.68091632734E+03  0.68091632734E+03  0.00000000000E+00 0. -1.
          5    1    1    2  502    0  0.98526613658E+01  0.49039981398E+02 -0.64628788167E+02  0.81859422008E+02  0.47000000000E+01 0. -1.
         -5    1    1    2    0  502  0.13086035065E+02 -0.45374540879E+02 -0.31349824917E+03  0.31706992211E+03  0.47000000000E+01 0. -1.
        -11    1    1    2    0    0 -0.24405253530E+02  0.39058475276E+02 -0.11382917094E+03  0.12279357087E+03  0.00000000000E+00 0.  1.
         11    1    1    2    0    0  0.14665570989E+01 -0.42723915795E+02 -0.17145222853E+03  0.17670130288E+03  0.00000000000E+00 0. -1.
<mgrwt>
<rscale>  0 0.11699647E+03</rscale>
<asrwt>0</asrwt>
<pdfrwt beam="2">  1        1 0.10475638E+00 0.12713994E+03</pdfrwt>
<pdfrwt beam="1">  1       -1 0.26935211E-02 0.12713994E+03</pdfrwt>
<totfact> 0.12330291E+04</totfact>
</mgrwt>
</event>
<event>
 6    1  0.4705246E-006  0.1857923E+03  0.7546771E-02  0.1173226E+00
         -2   -1    0    0    0  501 -0.00000000000E+00  0.00000000000E+00  0.35407163404E+02  0.35407163404E+02  0.00000000000E+00 0.  1.
          2   -1    0    0  501    0  0.00000000000E+00 -0.00000000000E+00 -0.11797047363E+04  0.11797047363E+04  0.00000000000E+00 0. -1.
          5    1    1    2  502    0 -0.10645171275E+03  0.25981972732E+02 -0.91455305880E+03  0.92110608370E+03  0.47000000000E+01 0. -1.
         -5    1    1    2    0  502 -0.59809325865E+01 -0.37210793356E+02 -0.60084653491E+02  0.71082137573E+02  0.47000000000E+01 0.  1.
        -11    1    1    2    0    0  0.38760842545E+02  0.45230490900E+02 -0.97933987369E+02  0.11462663785E+03  0.00000000000E+00 0.  1.
         11    1    1    2    0    0  0.73671802789E+02 -0.34001670276E+02 -0.71725873205E+02  0.10829704056E+03  0.00000000000E+00 0. -1.
<mgrwt>
<rscale>  0 0.17450843E+03</rscale>
<asrwt>0</asrwt>
<pdfrwt beam="2">  1        2 0.18149304E+00 0.18579235E+03</pdfrwt>
<pdfrwt beam="1">  1       -2 0.54472559E-02 0.18579235E+03</pdfrwt>
<totfact> 0.34997004E+03</totfact>
</mgrwt>
</event>
<event>
 6    1  0.4705246E-006  0.3216871E+03  0.7546771E-02  0.1074875E+00
         -2   -1    0    0    0  501 -0.00000000000E+00  0.00000000000E+00  0.48017711089E+03  0.48017711089E+03  0.00000000000E+00 0.  1.
          2   -1    0    0  501    0  0.00000000000E+00 -0.00000000000E+00 -0.53877294221E+02  0.53877294221E+02  0.00000000000E+00 0. -1.
          5    1    1    2  502    0  0.71268030262E+01 -0.11491440750E+03  0.79380860196E+02  0.13992684995E+03  0.47000000000E+01 0. -1.
         -5    1    1    2    0  502  0.90300674466E+01  0.17410018345E+02  0.10761224379E+03  0.10948577930E+03  0.47000000000E+01 0.  1.
        -11    1    1    2    0    0  0.33372126513E+02  0.97867923107E+02  0.17768682365E+03  0.20558316201E+03  0.00000000000E+00 0.  1.
         11    1    1    2    0    0 -0.49528996986E+02 -0.36353395526E+00  0.61619889039E+02  0.79058613854E+02  0.00000000000E+00 0. -1.
<mgrwt>
<rscale>  0 0.32168707E+03</rscale>
<asrwt>0</asrwt>
<pdfrwt beam="2">  1        2 0.82888148E-02 0.32168707E+03</pdfrwt>
<pdfrwt beam="1">  1       -2 0.73873399E-01 0.32168707E+03</pdfrwt>
<totfact> 0.13841379E+03</totfact>
</mgrwt>
</event>
<event>
 6    1  0.4705246E-006  0.1741837E+03  0.7546771E-02  0.1198836E+00
         -2   -1    0    0    0  501 -0.00000000000E+00  0.00000000000E+00  0.18315893815E+03  0.18315893815E+03  0.00000000000E+00 0.  1.
          2   -1    0    0  501    0  0.00000000000E+00 -0.00000000000E+00 -0.12970243643E+03  0.12970243643E+03  0.00000000000E+00 0. -1.
          5    1    1    2  502    0 -0.52231381171E+02 -0.43753204135E+02 -0.68044436073E+02  0.96408481637E+02  0.47000000000E+01 0. -1.
         -5    1    1    2    0  502  0.75674974086E+02 -0.31036530541E+01  0.30484917888E+02  0.81778692725E+02  0.47000000000E+01 0.  1.
        -11    1    1    2    0    0  0.59854340552E+01  0.64002015838E+02  0.50508253192E+02  0.81750639708E+02  0.00000000000E+00 0. -1.
         11    1    1    2    0    0 -0.29429026970E+02 -0.17145158649E+02  0.40507766710E+02  0.52923560512E+02  0.00000000000E+00 0.  1.
<mgrwt>
<rscale>  0 0.15133970E+03</rscale>
<asrwt>0</asrwt>
<pdfrwt beam="2">  1        2 0.19954221E-01 0.17418367E+03</pdfrwt>
<pdfrwt beam="1">  1       -2 0.28178298E-01 0.17418367E+03</pdfrwt>
<totfact> 0.31133975E+03</totfact>
</mgrwt>
</event>
<event>
 6    1  0.4705246E-006  0.1625060E+03  0.7546771E-02  0.1191896E+00
          1   -1    0    0  501    0  0.00000000000E+00  0.00000000000E+00  0.56873705537E+03  0.56873705537E+03  0.00000000000E+00 0. -1.
         -1   -1    0    0    0  501 -0.00000000000E+00 -0.00000000000E+00 -0.40889475252E+02  0.40889475252E+02  0.00000000000E+00 0.  1.
          5    1    1    2  502    0  0.40796413026E+02  0.14775105138E+02  0.53056340693E+02  0.68700191670E+02  0.47000000000E+01 0. -1.
         -5    1    1    2    0  502 -0.13063815655E+02 -0.11483083940E+03  0.23918359271E+03  0.26568339425E+03  0.47000000000E+01 0. -1.
        -11    1    1    2    0    0  0.32603454151E+02  0.11630178865E+02  0.69233681045E+02  0.77405095918E+02  0.00000000000E+00 0. -1.
         11    1    1    2    0    0 -0.60336051522E+02  0.88425555396E+02  0.16637396567E+03  0.19783784879E+03  0.00000000000E+00 0.  1.
<mgrwt>
<rscale>  0 0.15719875E+03</rscale>
<asrwt>0</asrwt>
<pdfrwt beam="1">  1        1 0.87498003E-01 0.16250601E+03</pdfrwt>
<pdfrwt beam="2">  1       -1 0.62906889E-02 0.16250601E+03</pdfrwt>
<totfact> 0.45978888E+03</totfact>
</mgrwt>
</event>
<event>
 6    1  0.4705246E-006  0.2095115E+03  0.7546771E-02  0.1145425E+00
         -3   -1    0    0    0  501 -0.00000000000E+00  0.00000000000E+00  0.11438083738E+03  0.11438083738E+03  0.00000000000E+00 0.  1.
          3   -1    0    0  501    0  0.00000000000E+00 -0.00000000000E+00 -0.35414554793E+03  0.35414554793E+03  0.00000000000E+00 0. -1.
          5    1    1    2  502    0  0.21421621533E+02 -0.55604978202E+02 -0.23897074347E+02  0.64373594216E+02  0.47000000000E+01 0. -1.
         -5    1    1    2    0  502  0.14475039054E+03  0.30070056751E+02 -0.10889143576E+03  0.18367449103E+03  0.47000000000E+01 0. -1.
        -11    1    1    2    0    0 -0.42787971778E+02  0.47455528625E+02 -0.16736952332E+02  0.66052731203E+02  0.00000000000E+00 0. -1.
         11    1    1    2    0    0 -0.12338404029E+03 -0.21920607175E+02 -0.90239248117E+02  0.15442556886E+03  0.00000000000E+00 0.  1.
<mgrwt>
<rscale>  0 0.20519900E+03</rscale>
<asrwt>0</asrwt>
<pdfrwt beam="2">  1        3 0.54483931E-01 0.20951149E+03</pdfrwt>
<pdfrwt beam="1">  1       -3 0.17597052E-01 0.20951149E+03</pdfrwt>
<totfact> 0.23181801E+02</totfact>
</mgrwt>
</event>
<event>
 6    1  0.4705246E-006  0.4849166E+03  0.7546771E-02  0.1059510E+00
          4   -1    0    0  501    0  0.00000000000E+00  0.00000000000E+00  0.12748693627E+03  0.12748693627E+03  0.00000000000E+00 0. -1.
         -4   -1    0    0    0  501 -0.00000000000E+00 -0.00000000000E+00 -0.79250114030E+03  0.79250114030E+03  0.00000000000E+00 0.  1.
          5    1    1    2  502    0  0.34825398108E+01  0.11537820393E+03  0.48621570017E+02  0.12534115484E+03  0.47000000000E+01 0. -1.
         -5    1    1    2    0  502  0.86641031304E+02 -0.17671719258E+03 -0.49912669516E+03  0.53654932884E+03  0.47000000000E+01 0.  1.
        -11    1    1    2    0    0 -0.71329485203E+02  0.86161202983E+02 -0.17657736099E+03  0.20902443104E+03  0.00000000000E+00 0.  1.
         11    1    1    2    0    0 -0.18794085912E+02 -0.24822214336E+02 -0.37931717897E+02  0.49073161834E+02  0.00000000000E+00 0. -1.
<mgrwt>
<rscale>  0 0.35767147E+03</rscale>
<asrwt>0</asrwt>
<pdfrwt beam="1">  1        4 0.19613374E-01 0.48491664E+03</pdfrwt>
<pdfrwt beam="2">  1       -4 0.12192325E+00 0.48491664E+03</pdfrwt>
<totfact> 0.23775972E+01</totfact>
</mgrwt>
</event>
<event>
 6    1  0.4705246E-006  0.2037583E+03  0.7546771E-02  0.1176333E+00
          1   -1    0    0  501    0  0.00000000000E+00  0.00000000000E+00  0.39153075135E+03  0.39153075135E+03  0.00000000000E+00 0. -1.
         -1   -1    0    0    0  501 -0.00000000000E+00 -0.00000000000E+00 -0.15264497056E+03  0.15264497056E+03  0.00000000000E+00 0.  1.
          5    1    1    2  502    0  0.10891607472E+01 -0.48373720668E+02  0.32442960238E+03  0.32805161182E+03  0.47000000000E+01 0. -1.
         -5    1    1    2    0  502 -0.44631029549E+02  0.51318158269E+02  0.18156784965E+02  0.70549564187E+02  0.47000000000E+01 0.  1.
        -11    1    1    2    0    0  0.40181060090E+02 -0.40350569790E+02 -0.88111181752E+02  0.10491075456E+03  0.00000000000E+00 0.  1.
         11    1    1    2    0    0  0.33608087122E+01  0.37406132188E+02 -0.15589424802E+02  0.40663791340E+02  0.00000000000E+00 0. -1.
<mgrwt>
<rscale>  0 0.17146063E+03</rscale>
<asrwt>0</asrwt>
<pdfrwt beam="1">  1        1 0.60235500E-01 0.20375835E+03</pdfrwt>
<pdfrwt beam="2">  1       -1 0.23483842E-01 0.20375835E+03</pdfrwt>
<totfact> 0.96318383E+02</totfact>
</mgrwt>
</event>
<event>
 6    1  0.4705246E-006  0.1197949E+03  0.7546771E-02  0.1252755E+00
          3   -1    0    0  501    0  0.00000000000E+00  0.00000000000E+00  0.63284955405E+02  0.63284955405E+02  0.00000000000E+00 0. -1.
         -3   -1    0    0    0  501 -0.00000000000E+00 -0.00000000000E+00 -0.26769980912E+03  0.26769980912E+03  0.00000000000E+00 0.  1.
          5    1    1    2  502    0 -0.55840178302E+02 -0.14089961865E+02  0.52681456145E+01  0.58021512359E+02  0.47000000000E+01 0. -1.
         -5    1    1    2    0  502  0.36137825728E+02  0.45373047511E+02 -0.25211328233E+02  0.63422054209E+02  0.47000000000E+01 0.  1.
        -11    1    1    2    0    0  0.30210539538E+02  0.16842509735E+02 -0.25114791954E+02  0.42744585718E+02  0.00000000000E+00 0. -1.
         11    1    1    2    0    0 -0.10508186964E+02 -0.48125595381E+02 -0.15935687914E+03  0.16679661224E+03  0.00000000000E+00 0.  1.
<mgrwt>
<rscale>  0 0.11433013E+03</rscale>
<asrwt>0</asrwt>
<pdfrwt beam="1">  1        3 0.97361470E-02 0.11979486E+03</pdfrwt>
<pdfrwt beam="2">  1       -3 0.41184586E-01 0.11979486E+03</pdfrwt>
<totfact> 0.10222446E+03</totfact>
</mgrwt>
</event>
<event>
 6    1  0.4705246E-006  0.1590736E+03  0.7546771E-02  0.1197226E+00
          2   -1    0    0  501    0  0.00000000000E+00  0.00000000000E+00  0.30169163111E+03  0.30169163111E+03  0.00000000000E+00 0. -1.
         -2   -1    0    0    0  501 -0.00000000000E+00 -0.00000000000E+00 -0.75927214849E+02  0.75927214849E+02  0.00000000000E+00 0.  1.
          5    1    1    2  502    0 -0.29766078784E+02 -0.70781923497E+02  0.18473288597E+03  0.20011104242E+03  0.47000000000E+01 0. -1.
         -5    1    1    2    0  502 -0.16964161301E+02 -0.15801426751E+02 -0.18455890486E+02  0.30002962348E+02  0.47000000000E+01 0. -1.
        -11    1    1    2    0    0  0.72392065049E+02  0.54298569751E+02  0.25373076533E+02  0.93982651441E+02  0.00000000000E+00 0.  1.
         11    1    1    2    0    0 -0.25661824964E+02  0.32284780497E+02  0.34114344243E+02  0.53522189747E+02  0.00000000000E+00 0. -1.
<mgrwt>
<rscale>  0 0.15267361E+03</rscale>
<asrwt>0</asrwt>
<pdfrwt beam="1">  1        2 0.46414096E-01 0.15907362E+03</pdfrwt>
<pdfrwt beam="2">  1       -2 0.11681110E-01 0.15907362E+03</pdfrwt>
<totfact> 0.54240634E+03</totfact>
</mgrwt>
</event>
<event>
 6    1  0.4705246E-006  0.1416687E+03  0.7546771E-02  0.1221318E+00
         -1   -1    0    0    0  501 -0.00000000000E+00  0.00000000000E+00  0.32487625948E+03  0.32487625948E+03  0.00000000000E+00 0.  1.
          1   -1    0    0  501    0  0.00000000000E+00 -0.00000000000E+00 -0.57110673420E+02  0.57110673420E+02  0.00000000000E+00 0. -1.
          5    1    1    2  502    0 -0.14946718325E+01 -0.77633372219E+02  0.43352504968E+02  0.89054501363E+02  0.47000000000E+01 0. -1.
         -5    1    1    2    0  502  0.53009965363E+02  0.35300456093E+02  0.37914660625E+02  0.74268365530E+02  0.47000000000E+01 0. -1.
        -11    1    1    2    0    0 -0.57216202446E+02  0.51865712840E+02  0.19149824410E+03  0.20648322810E+03  0.00000000000E+00 0.  1.
         11    1    1    2    0    0  0.57009089147E+01 -0.95327967146E+01 -0.49998236413E+01  0.12180837906E+02  0.00000000000E+00 0. -1.
<mgrwt>
<rscale>  0 0.13422487E+03</rscale>
<asrwt>0</asrwt>
<pdfrwt beam="2">  1        1 0.87862577E-02 0.14166865E+03</pdfrwt>
<pdfrwt beam="1">  1       -1 0.49980962E-01 0.14166865E+03</pdfrwt>
<totfact> 0.30382957E+03</totfact>
</mgrwt>
</event>
<event>
 6    1  0.4705246E-006  0.2713032E+03  0.7546771E-02  0.1100536E+00
          2   -1    0    0  501    0  0.00000000000E+00  0.00000000000E+00  0.73360128251E+03  0.73360128251E+03  0.00000000000E+00 0. -1.
         -2   -1    0    0    0  501 -0.00000000000E+00 -0.00000000000E+00 -0.25083596224E+02  0.25083596224E+02  0.00000000000E+00 0.  1.
          5    1    1    2  502    0  0.76035204907E+01  0.18144435685E+02  0.31699711414E+03  0.31764177062E+03  0.47000000000E+01 0.  1.
         -5    1    1    2    0  502  0.71138138154E+02 -0.24647152508E+02  0.10328841891E+03  0.12790115054E+03  0.47000000000E+01 0.  1.
        -11    1    1    2    0    0 -0.28736668123E+02  0.47617985018E+02  0.10517832986E+03  0.11897793772E+03  0.00000000000E+00 0. -1.
         11    1    1    2    0    0 -0.50004990522E+02 -0.41115268194E+02  0.18305382337E+03  0.19416401986E+03  0.00000000000E+00 0.  1.
<mgrwt>
<rscale>  0 0.27130321E+03</rscale>
<asrwt>0</asrwt>
<pdfrwt beam="1">  1        2 0.11286172E+00 0.27130321E+03</pdfrwt>
<pdfrwt beam="2">  1       -2 0.38590154E-02 0.27130321E+03</pdfrwt>
<totfact> 0.11433045E+04</totfact>
</mgrwt>
</event>
<event>
 6    1  0.4705246E-006  0.3194932E+03  0.7546771E-02  0.1075883E+00
         -1   -1    0    0    0  501 -0.00000000000E+00  0.00000000000E+00  0.23228151029E+03  0.23228151029E+03  0.00000000000E+00 0.  1.
          1   -1    0    0  501    0  0.00000000000E+00 -0.00000000000E+00 -0.10986227334E+03  0.10986227334E+03  0.00000000000E+00 0. -1.
          5    1    1    2  502    0 -0.73964428383E+02 -0.64719039279E+02 -0.22659319918E+02  0.10096942849E+03  0.47000000000E+01 0.  1.
         -5    1    1    2    0  502  0.10320116960E+02  0.29388556248E+02  0.30569998600E+02  0.43895408265E+02  0.47000000000E+01 0.  1.
        -11    1    1    2    0    0  0.91944536412E+02  0.45845454645E+02  0.12806574775E+03  0.16418416256E+03  0.00000000000E+00 0.  1.
         11    1    1    2    0    0 -0.28300224989E+02 -0.10514971613E+02 -0.13557189477E+02  0.33094784317E+02  0.00000000000E+00 0. -1.
<mgrwt>
<rscale>  0 0.31949319E+03</rscale>
<asrwt>0</asrwt>
<pdfrwt beam="2">  1        1 0.16901888E-01 0.31949319E+03</pdfrwt>
<pdfrwt beam="1">  1       -1 0.35735617E-01 0.31949319E+03</pdfrwt>
<totfact> 0.24029633E+03</totfact>
</mgrwt>
</event>
<event>
 6    1  0.4705246E-006  0.2855296E+03  0.7546771E-02  0.1092707E+00
          2   -1    0    0  501    0  0.00000000000E+00  0.00000000000E+00  0.58287245498E+03  0.58287245498E+03  0.00000000000E+00 0. -1.
         -2   -1    0    0    0  501 -0.00000000000E+00 -0.00000000000E+00 -0.34967842972E+02  0.34967842972E+02  0.00000000000E+00 0.  1.
          5    1    1    2  502    0  0.78894164567E+01 -0.13573142524E+02  0.34448346218E+03  0.34487304738E+03  0.47000000000E+01 0. -1.
         -5    1    1    2    0  502  0.72621120960E+01 -0.61658097089E+02  0.64607921856E+02  0.89725875729E+02  0.47000000000E+01 0. -1.
        -11    1    1    2    0    0 -0.30900717148E+02  0.47714948272E+02  0.14042577129E+03  0.15149576843E+03  0.00000000000E+00 0. -1.
         11    1    1    2    0    0  0.15749188595E+02  0.27516291341E+02 -0.16125433273E+01  0.31745606414E+02  0.00000000000E+00 0.  1.
<mgrwt>
<rscale>  0 0.28552963E+03</rscale>
<asrwt>0</asrwt>
<pdfrwt beam="1">  1        2 0.89672679E-01 0.28552963E+03</pdfrwt>
<pdfrwt beam="2">  1       -2 0.53796686E-02 0.28552963E+03</pdfrwt>
<totfact> 0.91095388E+03</totfact>
</mgrwt>
</event>
<event>
 6    1  0.4705246E-006  0.3195217E+03  0.7546771E-02  0.1075870E+00
         -2   -1    0    0    0  501 -0.00000000000E+00  0.00000000000E+00  0.23006497225E+02  0.23006497225E+02  0.00000000000E+00 0.  1.
          2   -1    0    0  501    0  0.00000000000E+00 -0.00000000000E+00 -0.11094054624E+04  0.11094054624E+04  0.00000000000E+00 0. -1.
          5    1    1    2  502    0  0.40381378523E+01  0.73061851013E+01 -0.52633001086E+03  0.52641718934E+03  0.47000000000E+01 0. -1.
         -5    1    1    2    0  502 -0.27902474993E+02 -0.91004065411E+02 -0.27832781336E+03  0.29419168874E+03  0.47000000000E+01 0.  1.
        -11    1    1    2    0    0  0.17295884330E+01  0.10156405973E+03 -0.24583684844E+03  0.26599625140E+03  0.00000000000E+00 0.  1.
         11    1    1    2    0    0  0.22134748708E+02 -0.17866179421E+02 -0.35904292487E+02  0.45806830129E+02  0.00000000000E+00 0. -1.
<mgrwt>
<rscale>  0 0.31952173E+03</rscale>
<asrwt>0</asrwt>
<pdfrwt beam="2">  1        2 0.17067775E+00 0.31952173E+03</pdfrwt>
<pdfrwt beam="1">  1       -2 0.35394613E-02 0.31952173E+03</pdfrwt>
<totfact> 0.74750959E+03</totfact>
</mgrwt>
</event>
<event>
 6    1  0.4705246E-006  0.3130566E+03  0.7546771E-02  0.1078890E+00
         -2   -1    0    0    0  501 -0.00000000000E+00  0.00000000000E+00  0.53256871540E+02  0.53256871540E+02  0.00000000000E+00 0.  1.
          2   -1    0    0  501    0  0.00000000000E+00 -0.00000000000E+00 -0.46005527397E+03  0.46005527397E+03  0.00000000000E+00 0. -1.
          5    1    1    2  502    0 -0.51221784917E+01  0.10763467392E+02  0.62017201199E+01  0.14235177388E+02  0.47000000000E+01 0.  1.
         -5    1    1    2    0  502  0.99307286062E+02 -0.38241603358E+02 -0.32421692366E+03  0.34126684703E+03  0.47000000000E+01 0.  1.
        -11    1    1    2    0    0 -0.38628884636E+02  0.11634429795E+02 -0.91475071494E+02  0.99976194115E+02  0.00000000000E+00 0. -1.
         11    1    1    2    0    0 -0.55556222934E+02  0.15843706171E+02  0.26918726043E+01  0.57833926981E+02  0.00000000000E+00 0.  1.
<mgrwt>
<rscale>  0 0.31305657E+03</rscale>
<asrwt>0</asrwt>
<pdfrwt beam="2">  1        2 0.70777732E-01 0.31305657E+03</pdfrwt>
<pdfrwt beam="1">  1       -2 0.81933652E-02 0.31305657E+03</pdfrwt>
<totfact> 0.62253233E+03</totfact>
</mgrwt>
</event>
<event>
 6    1  0.4705246E-006  0.1863294E+03  0.7546771E-02  0.1166699E+00
          2   -1    0    0  501    0  0.00000000000E+00  0.00000000000E+00  0.10515870981E+04  0.10515870981E+04  0.00000000000E+00 0.  1.
         -2   -1    0    0    0  501 -0.00000000000E+00 -0.00000000000E+00 -0.30946870123E+02  0.30946870123E+02  0.00000000000E+00 0. -1.
          5    1    1    2  502    0 -0.29692651817E+02 -0.63679224784E+02  0.20591463717E+03  0.21762266665E+03  0.47000000000E+01 0.  1.
         -5    1    1    2    0  502  0.99837477387E+02 -0.55365669219E+02  0.44522802473E+03  0.45965526564E+03  0.47000000000E+01 0.  1.
        -11    1    1    2    0    0 -0.31652058251E+02  0.37462235179E+02  0.25407151409E+03  0.25876167825E+03  0.00000000000E+00 0.  1.
         11    1    1    2    0    0 -0.38492767319E+02  0.81582658823E+02  0.11542605197E+03  0.14649435767E+03  0.00000000000E+00 0. -1.
<mgrwt>
<rscale>  0 0.18114602E+03</rscale>
<asrwt>0</asrwt>
<pdfrwt beam="1">  1        2 0.16178260E+00 0.18632936E+03</pdfrwt>
<pdfrwt beam="2">  1       -2 0.47610578E-02 0.18632936E+03</pdfrwt>
<totfact> 0.50885603E+03</totfact>
</mgrwt>
</event>
<event>
 6    1  0.4705246E-006  0.1348339E+03  0.7546771E-02  0.1233227E+00
         -3   -1    0    0    0  501 -0.00000000000E+00  0.00000000000E+00  0.25207645084E+03  0.25207645084E+03  0.00000000000E+00 0.  1.
          3   -1    0    0  501    0  0.00000000000E+00 -0.00000000000E+00 -0.60265560566E+02  0.60265560566E+02  0.00000000000E+00 0. -1.
          5    1    1    2  502    0 -0.33518601812E+02  0.37787112720E+02  0.10249442879E+03  0.11436153413E+03  0.47000000000E+01 0. -1.
         -5    1    1    2    0  502 -0.76695032319E+01 -0.84720095293E+01 -0.34500277182E+02  0.36646355220E+02  0.47000000000E+01 0. -1.
        -11    1    1    2    0    0 -0.76810701072E+01  0.27362572506E+02  0.29985947400E+02  0.41314237905E+02  0.00000000000E+00 0.  1.
         11    1    1    2    0    0  0.48869175152E+02 -0.56677675697E+02  0.93830791272E+02  0.12001988416E+03  0.00000000000E+00 0. -1.
<mgrwt>
<rscale>  0 0.12618644E+03</rscale>
<asrwt>0</asrwt>
<pdfrwt beam="2">  1        3 0.92716249E-02 0.13483389E+03</pdfrwt>
<pdfrwt beam="1">  1       -3 0.38780992E-01 0.13483389E+03</pdfrwt>
<totfact> 0.12683262E+03</totfact>
</mgrwt>
</event>
<event>
 6    1  0.4705246E-006  0.1490053E+03  0.7546771E-02  0.1210868E+00
         -1   -1    0    0    0  501 -0.00000000000E+00  0.00000000000E+00  0.11987541763E+02  0.11987541763E+02  0.00000000000E+00 0.  1.
          1   -1    0    0  501    0  0.00000000000E+00 -0.00000000000E+00 -0.23635595164E+04  0.23635595164E+04  0.00000000000E+00 0. -1.
          5    1    1    2  502    0 -0.54448837540E+02 -0.78612438951E+02 -0.15692186523E+04  0.15721367180E+04  0.47000000000E+01 0. -1.
         -5    1    1    2    0  502 -0.17979465123E+02  0.42122268821E+02 -0.38230692112E+03  0.38506910890E+03  0.47000000000E+01 0. -1.
        -11    1    1    2    0    0  0.29706467434E+02 -0.81826999002E+01 -0.29442973156E+02  0.42618299512E+02  0.00000000000E+00 0.  1.
         11    1    1    2    0    0  0.42721835230E+02  0.44672870030E+02 -0.37060342804E+03  0.37572293169E+03  0.00000000000E+00 0. -1.
<mgrwt>
<rscale>  0 0.14184442E+03</rscale>
<asrwt>0</asrwt>
<pdfrwt beam="2">  1        1 0.36362409E+00 0.14900532E+03</pdfrwt>
<pdfrwt beam="1">  1       -1 0.18442395E-02 0.14900532E+03</pdfrwt>
<totfact> 0.15211002E+03</totfact>
</mgrwt>
</event>
<event>
 6    1  0.4705246E-006  0.1694406E+03  0.7546771E-02  0.1184901E+00
          1   -1    0    0  501    0  0.00000000000E+00  0.00000000000E+00  0.86728951373E+02  0.86728951373E+02  0.00000000000E+00 0. -1.
         -1   -1    0    0    0  501 -0.00000000000E+00 -0.00000000000E+00 -0.30290309049E+03  0.30290309049E+03  0.00000000000E+00 0.  1.
          5    1    1    2  502    0  0.68501322346E+02  0.10648702774E+03 -0.14883927490E+03  0.19546646258E+03  0.47000000000E+01 0. -1.
         -5    1    1    2    0  502  0.16464973070E+02 -0.30972829184E+02 -0.99827376844E+01  0.36771681190E+02  0.47000000000E+01 0.  1.
        -11    1    1    2    0    0 -0.49468954206E+02 -0.69798578997E+02 -0.78137125459E+02  0.11586384007E+03  0.00000000000E+00 0.  1.
         11    1    1    2    0    0 -0.35497341211E+02 -0.57156195557E+01  0.20784998922E+02  0.41530058032E+02  0.00000000000E+00 0. -1.
<mgrwt>
<rscale>  0 0.16340918E+03</rscale>
<asrwt>0</asrwt>
<pdfrwt beam="1">  1        1 0.13342916E-01 0.16944062E+03</pdfrwt>
<pdfrwt beam="2">  1       -1 0.46600475E-01 0.16944062E+03</pdfrwt>
<totfact> 0.20001779E+03</totfact>
</mgrwt>
</event>
<event>
 6    1  0.4705246E-006  0.1285273E+03  0.7546771E-02  0.1244312E+00
         -1   -1    0    0    0  501 -0.00000000000E+00  0.00000000000E+00  0.13936650567E+03  0.13936650567E+03  0.00000000000E+00 0.  1.
          1   -1    0    0  501    0  0.00000000000E+00 -0.00000000000E+00 -0.93016658083E+02  0.93016658083E+02  0.00000000000E+00 0. -1.
          5    1    1    2  502    0  0.42338696606E+02  0.21849840984E+02  0.16594089174E+02  0.50669858662E+02  0.47000000000E+01 0. -1.
         -5    1    1    2    0  502 -0.64876970584E+02 -0.41491291171E+02 -0.11245783838E+02  0.77968623236E+02  0.47000000000E+01 0. -1.
        -11    1    1    2    0    0  0.70024551857E+01  0.15973596148E+02 -0.27963264312E+02  0.32956551754E+02  0.00000000000E+00 0. -1.
         11    1    1    2    0    0  0.15535818792E+02  0.36678540392E+01  0.68964806560E+02  0.70788130097E+02  0.00000000000E+00 0.  1.
<mgrwt>
<rscale>  0 0.11926640E+03</rscale>
<asrwt>0</asrwt>
<pdfrwt beam="2">  1        1 0.14310255E-01 0.12852725E+03</pdfrwt>
<pdfrwt beam="1">  1       -1 0.21441001E-01 0.12852725E+03</pdfrwt>
<totfact> 0.67334670E+03</totfact>
</mgrwt>
</event>
<event>
 6    1  0.4705246E-006  0.2435471E+03  0.7546771E-02  0.1119631E+00
          1   -1    0    0  501    0  0.00000000000E+00  0.00000000000E+00  0.17911983207E+03  0.17911983207E+03  0.00000000000E+00 0. -1.
         -1   -1    0    0    0  501 -0.00000000000E+00 -0.00000000000E+00 -0.31982571871E+03  0.31982571871E+03  0.00000000000E+00 0.  1.
          5    1    1    2  502    0 -0.11173935215E+03 -0.38156573591E+02 -0.75585066031E+02  0.14027401446E+03  0.47000000000E+01 0.  1.
         -5    1    1    2    0  502 -0.62888696010E+02 -0.76723992712E+02  0.37643852260E+02  0.10621068099E+03  0.47000000000E+01 0.  1.
        -11    1    1    2    0    0  0.12888693132E+03  0.30598352021E+02 -0.42141471064E+02  0.13901080459E+03  0.00000000000E+00 0. -1.
         11    1    1    2    0    0  0.45741116844E+02  0.84282214282E+02 -0.60623201809E+02  0.11345005074E+03  0.00000000000E+00 0.  1.
<mgrwt>
<rscale>  0 0.24024343E+03</rscale>
<asrwt>0</asrwt>
<pdfrwt beam="1">  1        1 0.27556897E-01 0.24354706E+03</pdfrwt>
<pdfrwt beam="2">  1       -1 0.49203956E-01 0.24354706E+03</pdfrwt>
<totfact> 0.71594047E+02</totfact>
</mgrwt>
</event>
<event>
 6    1  0.4705246E-006  0.1354878E+03  0.7546771E-02  0.1230835E+00
         -1   -1    0    0    0  501 -0.00000000000E+00  0.00000000000E+00  0.50603506387E+02  0.50603506387E+02  0.00000000000E+00 0.  1.
          1   -1    0    0  501    0  0.00000000000E+00 -0.00000000000E+00 -0.29208782171E+03  0.29208782171E+03  0.00000000000E+00 0. -1.
          5    1    1    2  502    0 -0.29191148897E+02  0.25015999767E+02 -0.18162004047E+02  0.42777000938E+02  0.47000000000E+01 0. -1.
         -5    1    1    2    0  502  0.76396300535E+02 -0.47394715328E+02 -0.12839803175E+03  0.15681453483E+03  0.47000000000E+01 0. -1.
        -11    1    1    2    0    0 -0.35362093743E+02  0.47211510062E+01  0.91869554414E+01  0.36839748791E+02  0.00000000000E+00 0.  1.
         11    1    1    2    0    0 -0.11843057896E+02  0.17657564554E+02 -0.10411123497E+03  0.10626004354E+03  0.00000000000E+00 0. -1.
<mgrwt>
<rscale>  0 0.12774855E+03</rscale>
<asrwt>0</asrwt>
<pdfrwt beam="2">  1        1 0.44936588E-01 0.13548777E+03</pdfrwt>
<pdfrwt beam="1">  1       -1 0.77851548E-02 0.13548777E+03</pdfrwt>
<totfact> 0.77328589E+03</totfact>
</mgrwt>
</event>
<event>
 6    1  0.4705246E-006  0.2883583E+03  0.7546771E-02  0.1091209E+00
         -1   -1    0    0    0  501 -0.00000000000E+00  0.00000000000E+00  0.34861135719E+02  0.34861135719E+02  0.00000000000E+00 0. -1.
          1   -1    0    0  501    0  0.00000000000E+00 -0.00000000000E+00 -0.59629791322E+03  0.59629791322E+03  0.00000000000E+00 0.  1.
          5    1    1    2  502    0  0.38563970132E+01  0.22922972534E+02 -0.12302396126E+03  0.12528894410E+03  0.47000000000E+01 0.  1.
         -5    1    1    2    0  502 -0.49649323698E+02 -0.10475515835E+03 -0.15464968355E+03  0.19333213175E+03  0.47000000000E+01 0.  1.
        -11    1    1    2    0    0 -0.17711113514E+02  0.60982008112E+02 -0.12275134219E+03  0.13820412753E+03  0.00000000000E+00 0. -1.
         11    1    1    2    0    0  0.63504040199E+02  0.20850177704E+02 -0.16101179049E+03  0.17433384556E+03  0.00000000000E+00 0.  1.
<mgrwt>
<rscale>  0 0.28835827E+03</rscale>
<asrwt>0</asrwt>
<pdfrwt beam="2">  1        1 0.91738137E-01 0.28835827E+03</pdfrwt>
<pdfrwt beam="1">  1       -1 0.53632519E-02 0.28835827E+03</pdfrwt>
<totfact> 0.56070652E+03</totfact>
</mgrwt>
</event>
<event>
 6    1  0.4705246E-006  0.1324873E+03  0.7546771E-02  0.1236386E+00
          1   -1    0    0  501    0  0.00000000000E+00  0.00000000000E+00  0.10510418042E+04  0.10510418042E+04  0.00000000000E+00 0. -1.
         -1   -1    0    0    0  501 -0.00000000000E+00 -0.00000000000E+00 -0.13561360014E+02  0.13561360014E+02  0.00000000000E+00 0.  1.
          5    1    1    2  502    0 -0.28867518686E+02  0.81414591087E+02  0.45062018822E+03  0.45884890030E+03  0.47000000000E+01 0.  1.
         -5    1    1    2    0  502  0.35271874221E+01 -0.45579049034E+02  0.23017668705E+03  0.23471959446E+03  0.47000000000E+01 0.  1.
        -11    1    1    2    0    0 -0.24189878117E+01  0.15945656701E+02  0.90953597540E+01  0.18515967129E+02  0.00000000000E+00 0.  1.
         11    1    1    2    0    0  0.27759319076E+02 -0.51781198754E+02  0.34758820918E+03  0.35251870234E+03  0.00000000000E+00 0. -1.
<mgrwt>
<rscale>  0 0.12416141E+03</rscale>
<asrwt>0</asrwt>
<pdfrwt beam="1">  1        1 0.16169868E+00 0.13248725E+03</pdfrwt>
<pdfrwt beam="2">  1       -1 0.20863639E-02 0.13248725E+03</pdfrwt>
<totfact> 0.91175925E+03</totfact>
</mgrwt>
</event>
<event>
 6    1  0.4705246E-006  0.1707816E+03  0.7546771E-02  0.1183454E+00
         -2   -1    0    0    0  501 -0.00000000000E+00  0.00000000000E+00  0.28039117743E+02  0.28039117743E+02  0.00000000000E+00 0.  1.
          2   -1    0    0  501    0  0.00000000000E+00 -0.00000000000E+00 -0.98816002561E+03  0.98816002561E+03  0.00000000000E+00 0. -1.
          5    1    1    2  502    0 -0.72312165089E+02 -0.93320039943E+02 -0.40838381702E+03  0.42513187493E+03  0.47000000000E+01 0. -1.
         -5    1    1    2    0  502  0.46049888497E+02 -0.20051354422E+02 -0.25021537465E+03  0.25524982420E+03  0.47000000000E+01 0. -1.
        -11    1    1    2    0    0 -0.11945063621E+02  0.90266102067E+02 -0.13092389407E+03  0.15947325722E+03  0.00000000000E+00 0.  1.
         11    1    1    2    0    0  0.38207340213E+02  0.23105292297E+02 -0.17059782212E+03  0.17634418700E+03  0.00000000000E+00 0. -1.
<mgrwt>
<rscale>  0 0.16473359E+03</rscale>
<asrwt>0</asrwt>
<pdfrwt beam="2">  1        2 0.15202460E+00 0.17078162E+03</pdfrwt>
<pdfrwt beam="1">  1       -2 0.43137110E-02 0.17078162E+03</pdfrwt>
<totfact> 0.64229278E+03</totfact>
</mgrwt>
</event>
<event>
 6    1  0.4705246E-006  0.2448811E+03  0.7546771E-02  0.1116583E+00
          1   -1    0    0  501    0  0.00000000000E+00  0.00000000000E+00  0.11604875056E+03  0.11604875056E+03  0.00000000000E+00 0. -1.
         -1   -1    0    0    0  501 -0.00000000000E+00 -0.00000000000E+00 -0.12918443765E+03  0.12918443765E+03  0.00000000000E+00 0.  1.
          5    1    1    2  502    0 -0.31380844239E+02 -0.44683861793E+02 -0.57101787255E+02  0.79146124338E+02  0.47000000000E+01 0. -1.
         -5    1    1    2    0  502  0.14486034275E+02 -0.67235992414E+01  0.54604909198E+02  0.57086233755E+02  0.47000000000E+01 0. -1.
        -11    1    1    2    0    0 -0.25481025913E+02  0.58713438430E+02 -0.15122838760E+02  0.65766638853E+02  0.00000000000E+00 0.  1.
         11    1    1    2    0    0  0.42375835877E+02 -0.73059773957E+01  0.44840297210E+01  0.43234191267E+02  0.00000000000E+00 0. -1.
<mgrwt>
<rscale>  0 0.24488114E+03</rscale>
<asrwt>0</asrwt>
<pdfrwt beam="1">  1        1 0.17853654E-01 0.24488114E+03</pdfrwt>
<pdfrwt beam="2">  1       -1 0.19874529E-01 0.24488114E+03</pdfrwt>
<totfact> 0.59504544E+03</totfact>
</mgrwt>
</event>
<event>
 6    1  0.4705246E-006  0.1664073E+03  0.7546771E-02  0.1200661E+00
          3   -1    0    0  501    0  0.00000000000E+00  0.00000000000E+00  0.33133214991E+03  0.33133214991E+03  0.00000000000E+00 0. -1.
         -3   -1    0    0    0  501 -0.00000000000E+00 -0.00000000000E+00 -0.74082992136E+02  0.74082992136E+02  0.00000000000E+00 0.  1.
          5    1    1    2  502    0  0.95823744940E+02  0.33306227006E+02  0.20838735044E+03  0.23181646334E+03  0.47000000000E+01 0. -1.
         -5    1    1    2    0  502 -0.34206790468E+02 -0.39602147983E+02  0.35410989181E+02  0.63359788460E+02  0.47000000000E+01 0.  1.
        -11    1    1    2    0    0 -0.43542292473E+02 -0.34038535309E+02  0.30190118362E+02  0.62976157127E+02  0.00000000000E+00 0.  1.
         11    1    1    2    0    0 -0.18074661999E+02  0.40334456286E+02 -0.16739300210E+02  0.47262733118E+02  0.00000000000E+00 0. -1.
<mgrwt>
<rscale>  0 0.14984722E+03</rscale>
<asrwt>0</asrwt>
<pdfrwt beam="1">  1        3 0.50974176E-01 0.16640730E+03</pdfrwt>
<pdfrwt beam="2">  1       -3 0.11397384E-01 0.16640730E+03</pdfrwt>
<totfact> 0.54341458E+02</totfact>
</mgrwt>
</event>
<event>
 6    1  0.4705246E-006  0.3364968E+03  0.7546771E-02  0.1082714E+00
          1   -1    0    0  501    0  0.00000000000E+00  0.00000000000E+00  0.35640349260E+03  0.35640349260E+03  0.00000000000E+00 0. -1.
         -1   -1    0    0    0  501 -0.00000000000E+00 -0.00000000000E+00 -0.24104461051E+03  0.24104461051E+03  0.00000000000E+00 0.  1.
          5    1    1    2  502    0  0.13157000797E+03 -0.10726573421E+03 -0.13046661836E+02  0.17032002266E+03  0.47000000000E+01 0. -1.
         -5    1    1    2    0  502  0.75323356828E+02  0.85262479924E+02  0.16117089260E+03  0.19733586898E+03  0.47000000000E+01 0.  1.
        -11    1    1    2    0    0 -0.13789321925E+03  0.41299538341E+02 -0.56025268685E+02  0.15446366082E+03  0.00000000000E+00 0.  1.
         11    1    1    2    0    0 -0.69000145549E+02 -0.19296284058E+02  0.23259920009E+02  0.75328550650E+02  0.00000000000E+00 0. -1.
<mgrwt>
<rscale>  0 0.30510857E+03</rscale>
<asrwt>0</asrwt>
<pdfrwt beam="1">  1        1 0.54831307E-01 0.33649676E+03</pdfrwt>
<pdfrwt beam="2">  1       -1 0.37083786E-01 0.33649676E+03</pdfrwt>
<totfact> 0.49805926E+02</totfact>
</mgrwt>
</event>
<event>
 6    1  0.4705246E-006  0.1392631E+03  0.7546771E-02  0.1227430E+00
          2   -1    0    0  501    0  0.00000000000E+00  0.00000000000E+00  0.17797030901E+04  0.17797030901E+04  0.00000000000E+00 0. -1.
         -2   -1    0    0    0  501 -0.00000000000E+00 -0.00000000000E+00 -0.13110727547E+02  0.13110727547E+02  0.00000000000E+00 0.  1.
          5    1    1    2  502    0 -0.83302711369E+02 -0.18168697065E+02  0.12044735713E+04  0.12074966324E+04  0.47000000000E+01 0. -1.
         -5    1    1    2    0  502  0.31822880187E+02  0.31180791117E+02  0.28845022684E+03  0.29190848018E+03  0.47000000000E+01 0.  1.
        -11    1    1    2    0    0  0.74073267095E+02 -0.11355002380E+02  0.24846596414E+03  0.25952094388E+03  0.00000000000E+00 0.  1.
         11    1    1    2    0    0 -0.22593435913E+02 -0.16570916718E+01  0.25202600332E+02  0.33887761251E+02  0.00000000000E+00 0. -1.
<mgrwt>
<rscale>  0 0.13001732E+03</rscale>
<asrwt>0</asrwt>
<pdfrwt beam="1">  1        2 0.27380028E+00 0.13926315E+03</pdfrwt>
<pdfrwt beam="2">  1       -2 0.20170364E-02 0.13926315E+03</pdfrwt>
<totfact> 0.72948411E+03</totfact>
</mgrwt>
</event>
<event>
 6    1  0.4705246E-006  0.1447998E+03  0.7546771E-02  0.1215804E+00
          1   -1    0    0  501    0  0.00000000000E+00  0.00000000000E+00  0.59682855408E+03  0.59682855408E+03  0.00000000000E+00 0. -1.
         -1   -1    0    0    0  501 -0.00000000000E+00 -0.00000000000E+00 -0.39061104840E+02  0.39061104840E+02  0.00000000000E+00 0.  1.
          5    1    1    2  502    0 -0.63876131198E+01  0.78684370445E+02  0.39806481397E+03  0.40584445034E+03  0.47000000000E+01 0. -1.
         -5    1    1    2    0  502 -0.40850122136E+02 -0.15055053918E+02  0.58118721732E+02  0.72768557377E+02  0.47000000000E+01 0.  1.
        -11    1    1    2    0    0  0.67025540092E+02 -0.68269640914E+02  0.97395605317E+02  0.13652498244E+03  0.00000000000E+00 0.  1.
         11    1    1    2    0    0 -0.19787804836E+02  0.46403243862E+01  0.41883082235E+01  0.20751668762E+02  0.00000000000E+00 0. -1.
<mgrwt>
<rscale>  0 0.13817648E+03</rscale>
<asrwt>0</asrwt>
<pdfrwt beam="1">  1        1 0.91819771E-01 0.14479984E+03</pdfrwt>
<pdfrwt beam="2">  1       -1 0.60094012E-02 0.14479984E+03</pdfrwt>
<totfact> 0.45876863E+03</totfact>
</mgrwt>
</event>
<event>
 6    1  0.4705246E-006  0.1365858E+03  0.7546771E-02  0.1231457E+00
          2   -1    0    0  501    0  0.00000000000E+00  0.00000000000E+00  0.56936665086E+03  0.56936665086E+03  0.00000000000E+00 0.  1.
         -2   -1    0    0    0  501 -0.00000000000E+00 -0.00000000000E+00 -0.40666481025E+02  0.40666481025E+02  0.00000000000E+00 0. -1.
          5    1    1    2  502    0  0.25902071681E+02  0.38262000873E+02  0.33637702925E+03  0.33956809897E+03  0.47000000000E+01 0. -1.
         -5    1    1    2    0  502  0.22499623097E+02 -0.64491227128E+02  0.13753083254E+03  0.15362998182E+03  0.47000000000E+01 0. -1.
        -11    1    1    2    0    0  0.24080868446E+02  0.13368980474E+00  0.36220529900E+01  0.24352112146E+02  0.00000000000E+00 0. -1.
         11    1    1    2    0    0 -0.72482563224E+02  0.26095536450E+02  0.51170255051E+02  0.92482938946E+02  0.00000000000E+00 0.  1.
<mgrwt>
<rscale>  0 0.12733972E+03</rscale>
<asrwt>0</asrwt>
<pdfrwt beam="1">  1        2 0.87594864E-01 0.13658582E+03</pdfrwt>
<pdfrwt beam="2">  1       -2 0.62563821E-02 0.13658582E+03</pdfrwt>
<totfact> 0.71459382E+03</totfact>
</mgrwt>
</event>
<event>
 6    1  0.4705246E-006  0.1372089E+03  0.7546771E-02  0.1230218E+00
          1   -1    0    0  501    0  0.00000000000E+00  0.00000000000E+00  0.42261133957E+03  0.42261133957E+03  0.00000000000E+00 0. -1.
         -1   -1    0    0    0  501 -0.00000000000E+00 -0.00000000000E+00 -0.36226027325E+02  0.36226027325E+02  0.00000000000E+00 0.  1.
          5    1    1    2  502    0  0.52824158913E+02  0.45711531312E+02  0.88960540837E+02  0.11320778986E+03  0.47000000000E+01 0. -1.
         -5    1    1    2    0  502 -0.55863506313E+02  0.10787197094E+02  0.17829009189E+03  0.18720721628E+03  0.47000000000E+01 0. -1.
        -11    1    1    2    0    0 -0.10119697194E+02  0.21067725687E+02  0.42997094501E+02  0.48938813558E+02  0.00000000000E+00 0. -1.
         11    1    1    2    0    0  0.13159044594E+02 -0.77566454093E+02  0.76137585017E+02  0.10948354720E+03  0.00000000000E+00 0.  1.
<mgrwt>
<rscale>  0 0.12815564E+03</rscale>
<asrwt>0</asrwt>
<pdfrwt beam="1">  1        1 0.65017126E-01 0.13720887E+03</pdfrwt>
<pdfrwt beam="2">  1       -1 0.55732353E-02 0.13720887E+03</pdfrwt>
<totfact> 0.80424291E+03</totfact>
</mgrwt>
</event>
<event>
 6    1  0.4705246E-006  0.1268510E+03  0.7546771E-02  0.1248831E+00
          4   -1    0    0  501    0  0.00000000000E+00  0.00000000000E+00  0.32255067698E+02  0.32255067698E+02  0.00000000000E+00 0. -1.
         -4   -1    0    0    0  501 -0.00000000000E+00 -0.00000000000E+00 -0.36679767977E+03  0.36679767977E+03  0.00000000000E+00 0.  1.
          5    1    1    2  502    0  0.15626737236E+02 -0.42030559800E+02 -0.13404952407E+03  0.14142887886E+03  0.47000000000E+01 0. -1.
         -5    1    1    2    0  502 -0.28657541857E+02  0.59297739108E+02 -0.53450768884E+02  0.84950287009E+02  0.47000000000E+01 0. -1.
        -11    1    1    2    0    0  0.47207445855E+02 -0.21784872057E+02 -0.11219091307E+03  0.12365243455E+03  0.00000000000E+00 0.  1.
         11    1    1    2    0    0 -0.34176641235E+02  0.45176927484E+01 -0.34851406049E+02  0.49021147043E+02  0.00000000000E+00 0. -1.
<mgrwt>
<rscale>  0 0.11659022E+03</rscale>
<asrwt>0</asrwt>
<pdfrwt beam="1">  1        4 0.49623180E-02 0.12685096E+03</pdfrwt>
<pdfrwt beam="2">  1       -4 0.56430414E-01 0.12685096E+03</pdfrwt>
<totfact> 0.11871738E+03</totfact>
</mgrwt>
</event>
<event>
 6    1  0.4705246E-006  0.2221086E+03  0.7546771E-02  0.1162245E+00
          2   -1    0    0  501    0  0.00000000000E+00  0.00000000000E+00  0.19518389236E+04  0.19518389236E+04  0.00000000000E+00 0. -1.
         -2   -1    0    0    0  501 -0.00000000000E+00 -0.00000000000E+00 -0.15333803078E+02  0.15333803078E+02  0.00000000000E+00 0.  1.
          5    1    1    2  502    0 -0.89072953764E+01 -0.12861265079E+03  0.80933432025E+03  0.81955151503E+03  0.47000000000E+01 0. -1.
         -5    1    1    2    0  502 -0.29570017489E+02  0.86512953891E+02  0.73247168194E+03  0.73817053041E+03  0.47000000000E+01 0.  1.
        -11    1    1    2    0    0  0.53446308731E+02 -0.47476414780E-01  0.29996254586E+03  0.30468678851E+03  0.00000000000E+00 0.  1.
         11    1    1    2    0    0 -0.14968995866E+02  0.42147173314E+02  0.94736572435E+02  0.10476389269E+03  0.00000000000E+00 0. -1.
<mgrwt>
<rscale>  0 0.18586426E+03</rscale>
<asrwt>0</asrwt>
<pdfrwt beam="1">  1        2 0.30028271E+00 0.22210858E+03</pdfrwt>
<pdfrwt beam="2">  1       -2 0.23590482E-02 0.22210858E+03</pdfrwt>
<totfact> 0.47622895E+03</totfact>
</mgrwt>
</event>
<event>
 6    1  0.4705246E-006  0.2445846E+03  0.7546771E-02  0.1119643E+00
         -2   -1    0    0    0  501 -0.00000000000E+00  0.00000000000E+00  0.23433930989E+02  0.23433930989E+02  0.00000000000E+00 0.  1.
          2   -1    0    0  501    0  0.00000000000E+00 -0.00000000000E+00 -0.24384924175E+04  0.24384924175E+04  0.00000000000E+00 0. -1.
          5    1    1    2  502    0 -0.56825386963E+02  0.21285436753E+03 -0.13773735717E+04  0.13948892975E+04  0.47000000000E+01 0. -1.
         -5    1    1    2    0  502  0.18729633330E+02 -0.61022312096E+01 -0.65232961753E+02  0.68304214288E+02  0.47000000000E+01 0. -1.
        -11    1    1    2    0    0  0.50981659988E+02 -0.10534649610E+03 -0.38297006598E+03  0.40045359948E+03  0.00000000000E+00 0.  1.
         11    1    1    2    0    0 -0.12885906355E+02 -0.10140564023E+03 -0.58948188705E+03  0.59827923715E+03  0.00000000000E+00 0. -1.
<mgrwt>
<rscale>  0 0.24022477E+03</rscale>
<asrwt>0</asrwt>
<pdfrwt beam="2">  1        2 0.37515267E+00 0.24458463E+03</pdfrwt>
<pdfrwt beam="1">  1       -2 0.36052202E-02 0.24458463E+03</pdfrwt>
<totfact> 0.13972666E+03</totfact>
</mgrwt>
</event>
<event>
 6    1  0.4705246E-006  0.1820063E+03  0.7546771E-02  0.1171452E+00
          1   -1    0    0  501    0  0.00000000000E+00  0.00000000000E+00  0.38421153059E+03  0.38421153059E+03  0.00000000000E+00 0. -1.
         -1   -1    0    0    0  501 -0.00000000000E+00 -0.00000000000E+00 -0.81817192841E+02  0.81817192841E+02  0.00000000000E+00 0.  1.
          5    1    1    2  502    0 -0.27909843092E+02 -0.30977127407E+01  0.16600328514E+03  0.16842724198E+03  0.47000000000E+01 0. -1.
         -5    1    1    2    0  502 -0.10393194252E+03 -0.78448573275E+01  0.55223352599E+02  0.11804702086E+03  0.47000000000E+01 0. -1.
        -11    1    1    2    0    0  0.30368363745E+02  0.23270757167E+02 -0.13163302436E+02  0.40460328554E+02  0.00000000000E+00 0.  1.
         11    1    1    2    0    0  0.10147342187E+03 -0.12328187099E+02  0.94331002448E+02  0.13909413203E+03  0.00000000000E+00 0. -1.
<mgrwt>
<rscale>  0 0.17628042E+03</rscale>
<asrwt>0</asrwt>
<pdfrwt beam="1">  1        1 0.59109465E-01 0.18200626E+03</pdfrwt>
<pdfrwt beam="2">  1       -1 0.12587261E-01 0.18200626E+03</pdfrwt>
<totfact> 0.26692417E+03</totfact>
</mgrwt>
</event>
<event>
 6    1  0.4705246E-006  0.1788044E+03  0.7546771E-02  0.1174350E+00
         -2   -1    0    0    0  501 -0.00000000000E+00  0.00000000000E+00  0.73870819946E+02  0.73870819946E+02  0.00000000000E+00 0.  1.
          2   -1    0    0  501    0  0.00000000000E+00 -0.00000000000E+00 -0.39122595804E+03  0.39122595804E+03  0.00000000000E+00 0. -1.
          5    1    1    2  502    0 -0.83200725765E+02  0.10764482657E+03 -0.14403164025E+03  0.19818418920E+03  0.47000000000E+01 0.  1.
         -5    1    1    2    0  502 -0.22375835726E+02 -0.35531993362E+02 -0.55252982122E+02  0.69557045726E+02  0.47000000000E+01 0.  1.
        -11    1    1    2    0    0  0.50218431792E+02  0.14781802408E+02 -0.57839776946E+02  0.78011745085E+02  0.00000000000E+00 0.  1.
         11    1    1    2    0    0  0.55358129699E+02 -0.86894635613E+02 -0.60230738775E+02  0.11934379798E+03  0.00000000000E+00 0. -1.
<mgrwt>
<rscale>  0 0.17339825E+03</rscale>
<asrwt>0</asrwt>
<pdfrwt beam="2">  1        2 0.60188610E-01 0.17880439E+03</pdfrwt>
<pdfrwt beam="1">  1       -2 0.11364741E-01 0.17880439E+03</pdfrwt>
<totfact> 0.43169945E+03</totfact>
</mgrwt>
</event>
<event>
 6    1  0.4705246E-006  0.3217496E+03  0.7546771E-02  0.1074847E+00
         -1   -1    0    0    0  501 -0.00000000000E+00  0.00000000000E+00  0.25327923256E+02  0.25327923256E+02  0.00000000000E+00 0.  1.
          1   -1    0    0  501    0  0.00000000000E+00 -0.00000000000E+00 -0.10218251616E+04  0.10218251616E+04  0.00000000000E+00 0. -1.
          5    1    1    2  502    0 -0.22994305394E+02 -0.24905595846E+02 -0.12905629608E+03  0.13351645720E+03  0.47000000000E+01 0.  1.
         -5    1    1    2    0  502  0.10536467502E+03  0.44554550113E+02 -0.65938203461E+03  0.66924851905E+03  0.47000000000E+01 0.  1.
        -11    1    1    2    0    0 -0.61422184791E+02  0.10014621793E+02 -0.43646921948E+02  0.76013362178E+02  0.00000000000E+00 0.  1.
         11    1    1    2    0    0 -0.20948184839E+02 -0.29663576060E+02 -0.16441198569E+03  0.16837474642E+03  0.00000000000E+00 0. -1.
<mgrwt>
<rscale>  0 0.32174965E+03</rscale>
<asrwt>0</asrwt>
<pdfrwt beam="2">  1        1 0.15720387E+00 0.32174965E+03</pdfrwt>
<pdfrwt beam="1">  1       -1 0.38966037E-02 0.32174965E+03</pdfrwt>
<totfact> 0.39476292E+03</totfact>
</mgrwt>
</event>
<event>
 6    1  0.4705246E-006  0.2342256E+03  0.7546771E-02  0.1127467E+00
         -1   -1    0    0    0  501 -0.00000000000E+00  0.00000000000E+00  0.10154957329E+04  0.10154957329E+04  0.00000000000E+00 0.  1.
          1   -1    0    0  501    0  0.00000000000E+00 -0.00000000000E+00 -0.59185565792E+02  0.59185565792E+02  0.00000000000E+00 0. -1.
          5    1    1    2  502    0  0.18331629187E+02 -0.10203445435E+01  0.66406029556E+02  0.69057515833E+02  0.47000000000E+01 0. -1.
         -5    1    1    2    0  502 -0.71563752326E+02  0.19177985138E+03  0.21114464344E+03  0.29411737877E+03  0.47000000000E+01 0. -1.
        -11    1    1    2    0    0  0.10115932476E+02 -0.86693598384E+02  0.42498390959E+03  0.43385416387E+03  0.00000000000E+00 0.  1.
         11    1    1    2    0    0  0.43116190663E+02 -0.10406590845E+03  0.25377558448E+03  0.27765224018E+03  0.00000000000E+00 0. -1.
<mgrwt>
<rscale>  0 0.22882806E+03</rscale>
<asrwt>0</asrwt>
<pdfrwt beam="2">  1        1 0.91054724E-02 0.23422559E+03</pdfrwt>
<pdfrwt beam="1">  1       -1 0.15623010E+00 0.23422559E+03</pdfrwt>
<totfact> 0.24807056E+02</totfact>
</mgrwt>
</event>
<event>
 6    1  0.4705246E-006  0.1680568E+03  0.7546771E-02  0.1187028E+00
         -1   -1    0    0    0  501 -0.00000000000E+00  0.00000000000E+00  0.53706272265E+02  0.53706272265E+02  0.00000000000E+00 0.  1.
          1   -1    0    0  501    0  0.00000000000E+00 -0.00000000000E+00 -0.49800622820E+03  0.49800622820E+03  0.00000000000E+00 0. -1.
          5    1    1    2  502    0 -0.62480668690E+02 -0.27921892372E+02 -0.49419481776E+02  0.84544906485E+02  0.47000000000E+01 0.  1.
         -5    1    1    2    0  502 -0.11829314192E+02 -0.56313737494E+02 -0.27307200667E+03  0.27910854614E+03  0.47000000000E+01 0.  1.
        -11    1    1    2    0    0  0.83263156027E+02  0.89315927980E+02 -0.82352023718E+02  0.14728185208E+03  0.00000000000E+00 0.  1.
         11    1    1    2    0    0 -0.89531731443E+01 -0.50802981136E+01 -0.39456443776E+02  0.40777195756E+02  0.00000000000E+00 0. -1.
<mgrwt>
<rscale>  0 0.16148705E+03</rscale>
<asrwt>0</asrwt>
<pdfrwt beam="2">  1        1 0.76616341E-01 0.16805676E+03</pdfrwt>
<pdfrwt beam="1">  1       -1 0.82625036E-02 0.16805676E+03</pdfrwt>
<totfact> 0.36412635E+03</totfact>
</mgrwt>
</event>
<event>
 6    1  0.4705246E-006  0.2409703E+03  0.7546771E-02  0.1121831E+00
         -1   -1    0    0    0  501 -0.00000000000E+00  0.00000000000E+00  0.59963974075E+03  0.59963974075E+03  0.00000000000E+00 0.  1.
          1   -1    0    0  501    0  0.00000000000E+00 -0.00000000000E+00 -0.90743247970E+02  0.90743247970E+02  0.00000000000E+00 0. -1.
          5    1    1    2  502    0 -0.11628895973E+02 -0.22237154804E+02  0.37142276929E+01  0.25799375238E+02  0.47000000000E+01 0.  1.
         -5    1    1    2    0  502 -0.17534409525E+03  0.10871641188E+03  0.24870847465E+03  0.32317612120E+03  0.47000000000E+01 0.  1.
        -11    1    1    2    0    0  0.11291957819E+03 -0.68933861253E+02  0.22069962128E+03  0.25731504270E+03  0.00000000000E+00 0.  1.
         11    1    1    2    0    0  0.74053413037E+02 -0.17545395827E+02  0.35774169157E+02  0.84092449578E+02  0.00000000000E+00 0. -1.
<mgrwt>
<rscale>  0 0.23696516E+03</rscale>
<asrwt>0</asrwt>
<pdfrwt beam="2">  1        1 0.13960500E-01 0.24097028E+03</pdfrwt>
<pdfrwt beam="1">  1       -1 0.92252266E-01 0.24097028E+03</pdfrwt>
<totfact> 0.49447251E+02</totfact>
</mgrwt>
</event>
<event>
 6    1  0.4705246E-006  0.2605363E+03  0.7546771E-02  0.1106821E+00
         -2   -1    0    0    0  501 -0.00000000000E+00  0.00000000000E+00  0.34943272488E+02  0.34943272488E+02  0.00000000000E+00 0.  1.
          2   -1    0    0  501    0  0.00000000000E+00 -0.00000000000E+00 -0.48563836044E+03  0.48563836044E+03  0.00000000000E+00 0. -1.
          5    1    1    2  502    0 -0.18162051897E+02 -0.64542349576E+01 -0.78287640921E+00  0.19854978556E+02  0.47000000000E+01 0. -1.
         -5    1    1    2    0  502  0.48988479928E+02  0.55734031520E+02 -0.33456847158E+03  0.34273066045E+03  0.47000000000E+01 0. -1.
        -11    1    1    2    0    0 -0.50377523090E+02 -0.10551325127E+02 -0.23829620458E+02  0.56719274553E+02  0.00000000000E+00 0.  1.
         11    1    1    2    0    0  0.19551095059E+02 -0.38728471435E+02 -0.91514119502E+02  0.10127671937E+03  0.00000000000E+00 0. -1.
<mgrwt>
<rscale>  0 0.26053632E+03</rscale>
<asrwt>0</asrwt>
<pdfrwt beam="2">  1        2 0.74713595E-01 0.26053632E+03</pdfrwt>
<pdfrwt beam="1">  1       -2 0.53758880E-02 0.26053632E+03</pdfrwt>
<totfact> 0.11171965E+04</totfact>
</mgrwt>
</event>
<event>
 6    1  0.4705246E-006  0.2128617E+03  0.7546771E-02  0.1142989E+00
          2   -1    0    0  501    0  0.00000000000E+00  0.00000000000E+00  0.29612256700E+03  0.29612256700E+03  0.00000000000E+00 0. -1.
         -2   -1    0    0    0  501 -0.00000000000E+00 -0.00000000000E+00 -0.20400188029E+03  0.20400188029E+03  0.00000000000E+00 0.  1.
          5    1    1    2  502    0 -0.37536628412E+02 -0.16232680327E+02  0.11841316053E+03  0.12536452836E+03  0.47000000000E+01 0. -1.
         -5    1    1    2    0  502 -0.12927740311E+03  0.59324520519E+02  0.68634527032E+02  0.15800263919E+03  0.47000000000E+01 0. -1.
        -11    1    1    2    0    0  0.14544890766E+03 -0.61564579889E+02 -0.10151913091E+03  0.18775440388E+03  0.00000000000E+00 0.  1.
         11    1    1    2    0    0  0.21365123865E+02  0.18472739697E+02  0.65921300623E+01  0.29002875865E+02  0.00000000000E+00 0. -1.
<mgrwt>
<rscale>  0 0.20821257E+03</rscale>
<asrwt>0</asrwt>
<pdfrwt beam="1">  1        2 0.45557318E-01 0.21286173E+03</pdfrwt>
<pdfrwt beam="2">  1       -2 0.31384905E-01 0.21286173E+03</pdfrwt>
<totfact> 0.10412141E+03</totfact>
</mgrwt>
</event>
<event>
 6    1  0.4705246E-006  0.1215396E+03  0.7546771E-02  0.1247801E+00
         -3   -1    0    0    0  501 -0.00000000000E+00  0.00000000000E+00  0.35144498691E+03  0.35144498691E+03  0.00000000000E+00 0.  1.
          3   -1    0    0  501    0  0.00000000000E+00 -0.00000000000E+00 -0.50904188512E+02  0.50904188512E+02  0.00000000000E+00 0. -1.
          5    1    1    2  502    0 -0.46578689430E+02  0.11173580164E+02  0.75618640517E+02  0.89636443461E+02  0.47000000000E+01 0. -1.
         -5    1    1    2    0  502  0.24822572976E+02  0.23804903117E+02 -0.24217969469E+02  0.42325330320E+02  0.47000000000E+01 0.  1.
        -11    1    1    2    0    0  0.45026794699E+02 -0.17559406972E+02  0.23126965478E+03  0.23626552486E+03  0.00000000000E+00 0.  1.
         11    1    1    2    0    0 -0.23270678244E+02 -0.17419076308E+02  0.17870472570E+02  0.34121876784E+02  0.00000000000E+00 0. -1.
<mgrwt>
<rscale>  0 0.11719320E+03</rscale>
<asrwt>0</asrwt>
<pdfrwt beam="2">  1        3 0.78314138E-02 0.12153963E+03</pdfrwt>
<pdfrwt beam="1">  1       -3 0.54068458E-01 0.12153963E+03</pdfrwt>
<totfact> 0.85455226E+02</totfact>
</mgrwt>
</event>
<event>
 6    1  0.4705246E-006  0.1316947E+03  0.7546771E-02  0.1227166E+00
         -4   -1    0    0    0  501 -0.00000000000E+00  0.00000000000E+00  0.22973511704E+02  0.22973511704E+02  0.00000000000E+00 0.  1.
          4   -1    0    0  501    0  0.00000000000E+00 -0.00000000000E+00 -0.80610621734E+03  0.80610621734E+03  0.00000000000E+00 0. -1.
          5    1    1    2  502    0  0.48292907448E+02 -0.21468469400E+02 -0.50156148430E+03  0.50436010213E+03  0.47000000000E+01 0. -1.
         -5    1    1    2    0  502 -0.31042612146E+02 -0.64265622262E+01 -0.32284123410E+02  0.45489549297E+02  0.47000000000E+01 0.  1.
        -11    1    1    2    0    0  0.23364529860E+00 -0.16128321016E+02  0.77284920723E+01  0.17885941927E+02  0.00000000000E+00 0.  1.
         11    1    1    2    0    0 -0.17483940600E+02  0.44023352642E+02 -0.25701559000E+03  0.26134413569E+03  0.00000000000E+00 0. -1.
<mgrwt>
<rscale>  0 0.13019539E+03</rscale>
<asrwt>0</asrwt>
<pdfrwt beam="2">  1        4 0.12401635E+00 0.13169475E+03</pdfrwt>
<pdfrwt beam="1">  1       -4 0.35343862E-02 0.13169475E+03</pdfrwt>
<totfact> 0.35353610E+02</totfact>
</mgrwt>
</event>
<event>
 6    1  0.4705246E-006  0.6061651E+03  0.7546771E-02  0.1047492E+00
         -1   -1    0    0    0  501 -0.00000000000E+00  0.00000000000E+00  0.68567824315E+03  0.68567824315E+03  0.00000000000E+00 0.  1.
          1   -1    0    0  501    0  0.00000000000E+00 -0.00000000000E+00 -0.18754315316E+03  0.18754315316E+03  0.00000000000E+00 0. -1.
          5    1    1    2  502    0  0.28628472537E+02  0.18167696056E+03 -0.82841777017E+02  0.20176956524E+03  0.47000000000E+01 0. -1.
         -5    1    1    2    0  502 -0.61098113654E+02 -0.21750033492E+03  0.45904538319E+03  0.51164844279E+03  0.47000000000E+01 0.  1.
        -11    1    1    2    0    0  0.57626300824E+02  0.36234786067E+02  0.52534265527E+02  0.85986041439E+02  0.00000000000E+00 0.  1.
         11    1    1    2    0    0 -0.25156659707E+02 -0.41141171140E+00  0.69397218294E+02  0.73817346838E+02  0.00000000000E+00 0. -1.
<mgrwt>
<rscale>  0 0.38946004E+03</rscale>
<asrwt>0</asrwt>
<pdfrwt beam="2">  1        1 0.28852793E-01 0.60616508E+03</pdfrwt>
<pdfrwt beam="1">  1       -1 0.10548896E+00 0.60616508E+03</pdfrwt>
<totfact> 0.13926314E+02</totfact>
</mgrwt>
</event>
<event>
 6    1  0.4705246E-006  0.1484428E+03  0.7546771E-02  0.1212125E+00
          2   -1    0    0  501    0  0.00000000000E+00  0.00000000000E+00  0.28643228297E+03  0.28643228297E+03  0.00000000000E+00 0. -1.
         -2   -1    0    0    0  501 -0.00000000000E+00 -0.00000000000E+00 -0.63759351815E+02  0.63759351815E+02  0.00000000000E+00 0.  1.
          5    1    1    2  502    0  0.18373166951E+02  0.59692108691E+02  0.23217946723E+02  0.66797336427E+02  0.47000000000E+01 0. -1.
         -5    1    1    2    0  502  0.59366801388E+02 -0.40562852080E+02  0.11695081598E+03  0.13736573603E+03  0.47000000000E+01 0. -1.
        -11    1    1    2    0    0 -0.94108698555E+02  0.13576937490E+01  0.67444085200E+02  0.11578857934E+03  0.00000000000E+00 0.  1.
         11    1    1    2    0    0  0.16368730216E+02 -0.20486950360E+02  0.15060083249E+02  0.30239982992E+02  0.00000000000E+00 0. -1.
<mgrwt>
<rscale>  0 0.14089824E+03</rscale>
<asrwt>0</asrwt>
<pdfrwt beam="1">  1        2 0.44066504E-01 0.14844284E+03</pdfrwt>
<pdfrwt beam="2">  1       -2 0.98091312E-02 0.14844284E+03</pdfrwt>
<totfact> 0.75281516E+03</totfact>
</mgrwt>
</event>
<event>
 6    1  0.4705246E-006  0.1854646E+03  0.7546771E-02  0.1185226E+00
          1   -1    0    0  501    0  0.00000000000E+00  0.00000000000E+00  0.82282034135E+03  0.82282034135E+03  0.00000000000E+00 0. -1.
         -1   -1    0    0    0  501 -0.00000000000E+00 -0.00000000000E+00 -0.28938413896E+02  0.28938413896E+02  0.00000000000E+00 0.  1.
          5    1    1    2  502    0 -0.74897795436E+02  0.20729663196E+02  0.13876009845E+03  0.15910956483E+03  0.47000000000E+01 0. -1.
         -5    1    1    2    0  502 -0.10523672387E+02 -0.82986295188E+02  0.46523437280E+03  0.47271829296E+03  0.47000000000E+01 0.  1.
        -11    1    1    2    0    0  0.68320939515E+02  0.46998440941E+02  0.17168778999E+03  0.19066541757E+03  0.00000000000E+00 0. -1.
         11    1    1    2    0    0  0.17100528308E+02  0.15258191051E+02  0.18199666226E+02  0.29265479892E+02  0.00000000000E+00 0.  1.
<mgrwt>
<rscale>  0 0.16311294E+03</rscale>
<asrwt>0</asrwt>
<pdfrwt beam="1">  1        1 0.12658773E+00 0.18546461E+03</pdfrwt>
<pdfrwt beam="2">  1       -1 0.44520643E-02 0.18546461E+03</pdfrwt>
<totfact> 0.45546118E+03</totfact>
</mgrwt>
</event>
<event>
 6    1  0.4705246E-006  0.1534123E+03  0.7546771E-02  0.1204816E+00
          2   -1    0    0  501    0  0.00000000000E+00  0.00000000000E+00  0.31526827052E+03  0.31526827052E+03  0.00000000000E+00 0. -1.
         -2   -1    0    0    0  501 -0.00000000000E+00 -0.00000000000E+00 -0.63051007450E+02  0.63051007450E+02  0.00000000000E+00 0.  1.
          5    1    1    2  502    0 -0.74434002870E+02  0.10097675370E+02  0.10340929676E+03  0.12789822707E+03  0.47000000000E+01 0.  1.
         -5    1    1    2    0  502  0.30089974668E+02  0.66991397244E+02  0.49392476898E+02  0.88628215904E+02  0.47000000000E+01 0.  1.
        -11    1    1    2    0    0  0.61058456298E+02 -0.64919994223E+02  0.37810468558E+02  0.96811013154E+02  0.00000000000E+00 0.  1.
         11    1    1    2    0    0 -0.16714428096E+02 -0.12169078391E+02  0.61605020853E+02  0.64981821841E+02  0.00000000000E+00 0. -1.
<mgrwt>
<rscale>  0 0.14651995E+03</rscale>
<asrwt>0</asrwt>
<pdfrwt beam="1">  1        2 0.48502810E-01 0.15341225E+03</pdfrwt>
<pdfrwt beam="2">  1       -2 0.97001552E-02 0.15341225E+03</pdfrwt>
<totfact> 0.69334775E+03</totfact>
</mgrwt>
</event>
<event>
 6    1  0.4705246E-006  0.1252370E+03  0.7546771E-02  0.1248582E+00
          2   -1    0    0  501    0  0.00000000000E+00  0.00000000000E+00  0.52451573847E+03  0.52451573847E+03  0.00000000000E+00 0. -1.
         -2   -1    0    0    0  501 -0.00000000000E+00 -0.00000000000E+00 -0.23229750536E+02  0.23229750536E+02  0.00000000000E+00 0.  1.
          5    1    1    2  502    0  0.37338500915E+02  0.42706045471E+02  0.16080279850E+03  0.17058018635E+03  0.47000000000E+01 0.  1.
         -5    1    1    2    0  502 -0.44521648445E+02 -0.45580811338E+02  0.98888788073E+02  0.11773219589E+03  0.47000000000E+01 0.  1.
        -11    1    1    2    0    0  0.21283408227E+02  0.36205784585E+02  0.19971343818E+03  0.20408160057E+03  0.00000000000E+00 0. -1.
         11    1    1    2    0    0 -0.14100260697E+02 -0.33331018719E+02  0.41880963181E+02  0.55351506190E+02  0.00000000000E+00 0.  1.
<mgrwt>
<rscale>  0 0.11673542E+03</rscale>
<asrwt>0</asrwt>
<pdfrwt beam="1">  1        2 0.80694721E-01 0.12523701E+03</pdfrwt>
<pdfrwt beam="2">  1       -2 0.35738081E-02 0.12523701E+03</pdfrwt>
<totfact> 0.17988727E+04</totfact>
</mgrwt>
</event>
<event>
 6    1  0.4705246E-006  0.1398719E+03  0.7546771E-02  0.1224273E+00
          3   -1    0    0  501    0  0.00000000000E+00  0.00000000000E+00  0.69340875934E+02  0.69340875934E+02  0.00000000000E+00 0. -1.
         -3   -1    0    0    0  501 -0.00000000000E+00 -0.00000000000E+00 -0.23877021026E+03  0.23877021026E+03  0.00000000000E+00 0.  1.
          5    1    1    2  502    0  0.28049169636E+02  0.30088018068E+02  0.24381843326E+01  0.41473841050E+02  0.47000000000E+01 0.  1.
         -5    1    1    2    0  502 -0.10735852941E+02 -0.90461862560E+02 -0.63510174608E+02  0.11114962616E+03  0.47000000000E+01 0.  1.
        -11    1    1    2    0    0 -0.42998383757E+01  0.77169767877E+02 -0.10970549099E+03  0.13419745317E+03  0.00000000000E+00 0.  1.
         11    1    1    2    0    0 -0.13013478320E+02 -0.16795923385E+02  0.13481469366E+01  0.21290165817E+02  0.00000000000E+00 0. -1.
<mgrwt>
<rscale>  0 0.13216877E+03</rscale>
<asrwt>0</asrwt>
<pdfrwt beam="1">  1        3 0.10667827E-01 0.13987185E+03</pdfrwt>
<pdfrwt beam="2">  1       -3 0.36733878E-01 0.13987185E+03</pdfrwt>
<totfact> 0.11222094E+03</totfact>
</mgrwt>
</event>
<event>
 6    1  0.4705246E-006  0.1308179E+03  0.7546771E-02  0.1236148E+00
          1   -1    0    0  501    0  0.00000000000E+00  0.00000000000E+00  0.12392213656E+03  0.12392213656E+03  0.00000000000E+00 0. -1.
         -1   -1    0    0    0  501 -0.00000000000E+00 -0.00000000000E+00 -0.13405975882E+03  0.13405975882E+03  0.00000000000E+00 0.  1.
          5    1    1    2  502    0 -0.55757638466E+01 -0.21637744552E+02  0.55048323928E+02  0.59596049358E+02  0.47000000000E+01 0. -1.
         -5    1    1    2    0  502 -0.20781719351E+02  0.74870922973E+02 -0.10610553022E+02  0.78563406249E+02  0.47000000000E+01 0.  1.
        -11    1    1    2    0    0  0.26333860046E+02  0.20098514613E+02 -0.20529263687E+02  0.38972723052E+02  0.00000000000E+00 0. -1.
         11    1    1    2    0    0  0.23623151856E-01 -0.73331693033E+02 -0.34046129484E+02  0.80849716722E+02  0.00000000000E+00 0.  1.
<mgrwt>
<rscale>  0 0.12431201E+03</rscale>
<asrwt>0</asrwt>
<pdfrwt beam="1">  1        1 0.19064944E-01 0.13081789E+03</pdfrwt>
<pdfrwt beam="2">  1       -1 0.20624578E-01 0.13081789E+03</pdfrwt>
<totfact> 0.49643483E+03</totfact>
</mgrwt>
</event>
<event>
 6    1  0.4705246E-006  0.1276745E+03  0.7546771E-02  0.1253945E+00
          1   -1    0    0  501    0  0.00000000000E+00  0.00000000000E+00  0.17452519944E+03  0.17452519944E+03  0.00000000000E+00 0. -1.
         -1   -1    0    0    0  501 -0.00000000000E+00 -0.00000000000E+00 -0.11072978537E+03  0.11072978537E+03  0.00000000000E+00 0.  1.
          5    1    1    2  502    0 -0.15784398150E+02  0.37850132826E+02  0.55331129338E+01  0.41647150187E+02  0.47000000000E+01 0. -1.
         -5    1    1    2    0  502  0.35252084111E+02 -0.55089670040E+02  0.12377228556E+03  0.14006873260E+03  0.47000000000E+01 0. -1.
        -11    1    1    2    0    0 -0.40787710956E+02 -0.72584607264E+01 -0.16174493448E+02  0.44474002017E+02  0.00000000000E+00 0. -1.
         11    1    1    2    0    0  0.21320024996E+02  0.24497997940E+02 -0.49335490977E+02  0.59065100006E+02  0.00000000000E+00 0.  1.
<mgrwt>
<rscale>  0 0.11365649E+03</rscale>
<asrwt>0</asrwt>
<pdfrwt beam="1">  1        1 0.26850031E-01 0.12767449E+03</pdfrwt>
<pdfrwt beam="2">  1       -1 0.17035352E-01 0.12767449E+03</pdfrwt>
<totfact> 0.43666079E+03</totfact>
</mgrwt>
</event>
<event>
 6    1  0.4705246E-006  0.2333835E+03  0.7546771E-02  0.1124281E+00
         -2   -1    0    0    0  501 -0.00000000000E+00  0.00000000000E+00  0.13588748976E+02  0.13588748976E+02  0.00000000000E+00 0.  1.
          2   -1    0    0  501    0  0.00000000000E+00 -0.00000000000E+00 -0.10020766569E+04  0.10020766569E+04  0.00000000000E+00 0. -1.
          5    1    1    2  502    0 -0.29167444441E+02  0.36869288022E+01 -0.33122822798E+02  0.44537003147E+02  0.47000000000E+01 0. -1.
         -5    1    1    2    0  502  0.69330278950E+01 -0.61437753107E+00 -0.66439928716E+03  0.66445236633E+03  0.47000000000E+01 0. -1.
        -11    1    1    2    0    0 -0.19469871141E+02 -0.37412403117E+02 -0.10957544379E+03  0.11741184638E+03  0.00000000000E+00 0.  1.
         11    1    1    2    0    0  0.41704287687E+02  0.34339851846E+02 -0.18139035415E+03  0.18926419000E+03  0.00000000000E+00 0. -1.
<mgrwt>
<rscale>  0 0.23338353E+03</rscale>
<asrwt>0</asrwt>
<pdfrwt beam="2">  1        2 0.15416570E+00 0.23338353E+03</pdfrwt>
<pdfrwt beam="1">  1       -2 0.20905759E-02 0.23338353E+03</pdfrwt>
<totfact> 0.18745510E+04</totfact>
</mgrwt>
</event>
<event>
 6    1  0.4705246E-006  0.2333498E+03  0.7546771E-02  0.1127309E+00
          2   -1    0    0  501    0  0.00000000000E+00  0.00000000000E+00  0.39927460679E+03  0.39927460679E+03  0.00000000000E+00 0. -1.
         -2   -1    0    0    0  501 -0.00000000000E+00 -0.00000000000E+00 -0.14288936632E+03  0.14288936632E+03  0.00000000000E+00 0.  1.
          5    1    1    2  502    0 -0.15228591596E+03  0.50247900069E+02  0.11979183782E+03  0.20021994423E+03  0.47000000000E+01 0. -1.
         -5    1    1    2    0  502 -0.44738057003E+02 -0.48257580092E+02  0.10359671619E+03  0.12281961320E+03  0.47000000000E+01 0. -1.
        -11    1    1    2    0    0  0.10915486735E+03 -0.42704460597E+02  0.34787514544E+02  0.12226457864E+03  0.00000000000E+00 0. -1.
         11    1    1    2    0    0  0.87869105608E+02  0.40714140620E+02 -0.17908280878E+01  0.96859837043E+02  0.00000000000E+00 0.  1.
<mgrwt>
<rscale>  0 0.22905145E+03</rscale>
<asrwt>0</asrwt>
<pdfrwt beam="1">  1        2 0.61426862E-01 0.23334976E+03</pdfrwt>
<pdfrwt beam="2">  1       -2 0.21982980E-01 0.23334976E+03</pdfrwt>
<totfact> 0.14229084E+03</totfact>
</mgrwt>
</event>
<event>
 6    1  0.4705246E-006  0.1451608E+03  0.7546771E-02  0.1215325E+00
          2   -1    0    0  501    0  0.00000000000E+00  0.00000000000E+00  0.54683481115E+03  0.54683481115E+03  0.00000000000E+00 0. -1.
         -2   -1    0    0    0  501 -0.00000000000E+00 -0.00000000000E+00 -0.32274238486E+02  0.32274238486E+02  0.00000000000E+00 0.  1.
          5    1    1    2  502    0 -0.30192571405E+02  0.36471429260E+01  0.99782781369E+01  0.32350410417E+02  0.47000000000E+01 0.  1.
         -5    1    1    2    0  502  0.27958755614E+02 -0.77392570005E+02  0.28081465493E+03  0.29266066072E+03  0.47000000000E+01 0.  1.
        -11    1    1    2    0    0  0.14091725749E+02 -0.14358677367E+02  0.97604390469E+01  0.22361004465E+02  0.00000000000E+00 0.  1.
         11    1    1    2    0    0 -0.11857909958E+02  0.88104104446E+02  0.21400720055E+03  0.23173697403E+03  0.00000000000E+00 0. -1.
<mgrwt>
<rscale>  0 0.13852717E+03</rscale>
<asrwt>0</asrwt>
<pdfrwt beam="1">  1        2 0.84128426E-01 0.14516083E+03</pdfrwt>
<pdfrwt beam="2">  1       -2 0.49652679E-02 0.14516083E+03</pdfrwt>
<totfact> 0.10643635E+04</totfact>
</mgrwt>
</event>
<event>
 6    1  0.4705246E-006  0.1425774E+03  0.7546771E-02  0.1221474E+00
          1   -1    0    0  501    0  0.00000000000E+00  0.00000000000E+00  0.32036560630E+03  0.32036560630E+03  0.00000000000E+00 0. -1.
         -1   -1    0    0    0  501 -0.00000000000E+00 -0.00000000000E+00 -0.58734483161E+02  0.58734483161E+02  0.00000000000E+00 0.  1.
          5    1    1    2  502    0  0.36121021503E+02 -0.27580784124E+01  0.18136154920E+02  0.40784130568E+02  0.47000000000E+01 0. -1.
         -5    1    1    2    0  502 -0.64137001178E+02  0.65363031113E+02  0.19719117768E+03  0.21746800066E+03  0.47000000000E+01 0. -1.
        -11    1    1    2    0    0  0.41278787320E+02 -0.73256686055E+02  0.15275061457E+02  0.85462318228E+02  0.00000000000E+00 0.  1.
         11    1    1    2    0    0 -0.13262807645E+02  0.10651733354E+02  0.31028729082E+02  0.35385640004E+02  0.00000000000E+00 0. -1.
<mgrwt>
<rscale>  0 0.13411535E+03</rscale>
<asrwt>0</asrwt>
<pdfrwt beam="1">  1        1 0.49287015E-01 0.14257736E+03</pdfrwt>
<pdfrwt beam="2">  1       -1 0.90360745E-02 0.14257736E+03</pdfrwt>
<totfact> 0.55216727E+03</totfact>
</mgrwt>
</event>
<event>
 6    1  0.4705246E-006  0.1402105E+03  0.7546771E-02  0.1224477E+00
          1   -1    0    0  501    0  0.00000000000E+00  0.00000000000E+00  0.80629189031E+02  0.80629189031E+02  0.00000000000E+00 0. -1.
         -1   -1    0    0    0  501 -0.00000000000E+00 -0.00000000000E+00 -0.22244434158E+03  0.22244434158E+03  0.00000000000E+00 0.  1.
          5    1    1    2  502    0  0.39391132890E+02  0.21550588878E+02  0.46636658005E+02  0.64908836849E+02  0.47000000000E+01 0. -1.
         -5    1    1    2    0  502 -0.13758048259E+01  0.29324236157E+02 -0.71572559473E+02  0.77501773751E+02  0.47000000000E+01 0. -1.
        -11    1    1    2    0    0 -0.21249747290E+02 -0.30406546389E+02 -0.12702143066E+03  0.13232744867E+03  0.00000000000E+00 0.  1.
         11    1    1    2    0    0 -0.16765580774E+02 -0.20468278645E+02  0.10142179584E+02  0.28335471341E+02  0.00000000000E+00 0. -1.
<mgrwt>
<rscale>  0 0.13202784E+03</rscale>
<asrwt>0</asrwt>
<pdfrwt beam="1">  1        1 0.12404491E-01 0.14021049E+03</pdfrwt>
<pdfrwt beam="2">  1       -1 0.34222207E-01 0.14021049E+03</pdfrwt>
<totfact> 0.37549049E+03</totfact>
</mgrwt>
</event>
<event>
 6    1  0.4705246E-006  0.1303989E+03  0.7546771E-02  0.1240418E+00
          3   -1    0    0  501    0  0.00000000000E+00  0.00000000000E+00  0.33655186511E+02  0.33655186511E+02  0.00000000000E+00 0. -1.
         -3   -1    0    0    0  501 -0.00000000000E+00 -0.00000000000E+00 -0.39547406087E+03  0.39547406087E+03  0.00000000000E+00 0.  1.
          5    1    1    2  502    0  0.40728897907E+02  0.20527727690E+02 -0.38206596641E+02  0.59683035745E+02  0.47000000000E+01 0. -1.
         -5    1    1    2    0  502 -0.59235171907E+02 -0.52791962078E+02 -0.14234549285E+03  0.16303412583E+03  0.47000000000E+01 0. -1.
        -11    1    1    2    0    0  0.33390943358E+02  0.58655398990E+02 -0.11128759828E+03  0.13015506314E+03  0.00000000000E+00 0.  1.
         11    1    1    2    0    0 -0.14884669358E+02 -0.26391164602E+02 -0.69979186591E+02  0.76257022673E+02  0.00000000000E+00 0. -1.
<mgrwt>
<rscale>  0 0.12163865E+03</rscale>
<asrwt>0</asrwt>
<pdfrwt beam="1">  1        3 0.51777209E-02 0.13039892E+03</pdfrwt>
<pdfrwt beam="2">  1       -3 0.60842165E-01 0.13039892E+03</pdfrwt>
<totfact> 0.13181739E+03</totfact>
</mgrwt>
</event>
<event>
 6    1  0.4705246E-006  0.1805420E+03  0.7546771E-02  0.1172933E+00
         -1   -1    0    0    0  501 -0.00000000000E+00  0.00000000000E+00  0.74694483897E+02  0.74694483897E+02  0.00000000000E+00 0.  1.
          1   -1    0    0  501    0  0.00000000000E+00 -0.00000000000E+00 -0.44180782096E+03  0.44180782096E+03  0.00000000000E+00 0. -1.
          5    1    1    2  502    0  0.42883342344E+02 -0.15961670605E+02 -0.22576033789E+03  0.23039873295E+03  0.47000000000E+01 0. -1.
         -5    1    1    2    0  502  0.87356403769E+02  0.18962872001E+02 -0.60508900257E+02  0.10804697499E+03  0.47000000000E+01 0. -1.
        -11    1    1    2    0    0 -0.59022074643E+02  0.43670934596E+02 -0.34699919073E+02  0.81208621508E+02  0.00000000000E+00 0.  1.
         11    1    1    2    0    0 -0.71217671470E+02 -0.46672135992E+02 -0.46144179839E+02  0.96847975409E+02  0.00000000000E+00 0. -1.
<mgrwt>
<rscale>  0 0.17479968E+03</rscale>
<asrwt>0</asrwt>
<pdfrwt beam="2">  1        1 0.67970432E-01 0.18054202E+03</pdfrwt>
<pdfrwt beam="1">  1       -1 0.11491459E-01 0.18054202E+03</pdfrwt>
<totfact> 0.25718052E+03</totfact>
</mgrwt>
</event>
<event>
 6    1  0.4705246E-006  0.1559404E+03  0.7546771E-02  0.1201641E+00
          2   -1    0    0  501    0  0.00000000000E+00  0.00000000000E+00  0.14775864867E+03  0.14775864867E+03  0.00000000000E+00 0. -1.
         -2   -1    0    0    0  501 -0.00000000000E+00 -0.00000000000E+00 -0.17694194964E+03  0.17694194964E+03  0.00000000000E+00 0.  1.
          5    1    1    2  502    0 -0.24166968626E+02 -0.15317119564E+02 -0.42037894955E+01  0.29298777627E+02  0.47000000000E+01 0. -1.
         -5    1    1    2    0  502  0.10204162837E+03  0.66586568072E+02  0.64019274096E+02  0.13772008722E+03  0.47000000000E+01 0. -1.
        -11    1    1    2    0    0 -0.60469386073E+02 -0.60550631262E+02 -0.10268909085E+03  0.13367114489E+03  0.00000000000E+00 0.  1.
         11    1    1    2    0    0 -0.17405273675E+02  0.92811827532E+01  0.13690305271E+02  0.24010588569E+02  0.00000000000E+00 0. -1.
<mgrwt>
<rscale>  0 0.14905343E+03</rscale>
<asrwt>0</asrwt>
<pdfrwt beam="1">  1        2 0.22732100E-01 0.15594040E+03</pdfrwt>
<pdfrwt beam="2">  1       -2 0.27221838E-01 0.15594040E+03</pdfrwt>
<totfact> 0.28429868E+03</totfact>
</mgrwt>
</event>
<event>
 6    1  0.4705246E-006  0.1420277E+03  0.7546771E-02  0.1221384E+00
         -1   -1    0    0    0  501 -0.00000000000E+00  0.00000000000E+00  0.75335421353E+03  0.75335421353E+03  0.00000000000E+00 0.  1.
          1   -1    0    0  501    0  0.00000000000E+00 -0.00000000000E+00 -0.21606713663E+02  0.21606713663E+02  0.00000000000E+00 0. -1.
          5    1    1    2  502    0 -0.30100576462E+02  0.17653034143E+02  0.34139855485E+02  0.49043797266E+02  0.47000000000E+01 0. -1.
         -5    1    1    2    0  502  0.10952844324E+02 -0.82303253517E+02  0.37298476014E+03  0.38214331295E+03  0.47000000000E+01 0. -1.
        -11    1    1    2    0    0  0.51634333575E+02  0.42208237633E+02  0.14130874858E+03  0.15625556679E+03  0.00000000000E+00 0.  1.
         11    1    1    2    0    0 -0.32486601437E+02  0.22441981742E+02  0.18331413566E+03  0.18751825018E+03  0.00000000000E+00 0. -1.
<mgrwt>
<rscale>  0 0.13417847E+03</rscale>
<asrwt>0</asrwt>
<pdfrwt beam="2">  1        1 0.33241104E-02 0.14202771E+03</pdfrwt>
<pdfrwt beam="1">  1       -1 0.11590063E+00 0.14202771E+03</pdfrwt>
<totfact> 0.20590437E+03</totfact>
</mgrwt>
</event>
<event>
 6    1  0.4705246E-006  0.1533964E+03  0.7546771E-02  0.1204454E+00
          2   -1    0    0  501    0  0.00000000000E+00  0.00000000000E+00  0.72641783167E+02  0.72641783167E+02  0.00000000000E+00 0. -1.
         -2   -1    0    0    0  501 -0.00000000000E+00 -0.00000000000E+00 -0.30731797418E+03  0.30731797418E+03  0.00000000000E+00 0.  1.
          5    1    1    2  502    0 -0.21243852556E+02  0.73697702338E+02 -0.19945021403E+02  0.79388579028E+02  0.47000000000E+01 0. -1.
         -5    1    1    2    0  502 -0.61803463040E+02 -0.41898660626E+02 -0.44065278568E+02  0.86827441407E+02  0.47000000000E+01 0. -1.
        -11    1    1    2    0    0  0.62214255446E+01 -0.30587265486E+02 -0.11420656151E+03  0.11839520953E+03  0.00000000000E+00 0.  1.
         11    1    1    2    0    0  0.76825890051E+02 -0.12117762258E+01 -0.56459329525E+02  0.95348527384E+02  0.00000000000E+00 0. -1.
<mgrwt>
<rscale>  0 0.14680551E+03</rscale>
<asrwt>0</asrwt>
<pdfrwt beam="1">  1        2 0.11175659E-01 0.15339637E+03</pdfrwt>
<pdfrwt beam="2">  1       -2 0.47279688E-01 0.15339637E+03</pdfrwt>
<totfact> 0.23265467E+03</totfact>
</mgrwt>
</event>
<event>
 6    1  0.4705246E-006  0.1378573E+03  0.7546771E-02  0.1227364E+00
         -2   -1    0    0    0  501 -0.00000000000E+00  0.00000000000E+00  0.58346615166E+02  0.58346615166E+02  0.00000000000E+00 0.  1.
          2   -1    0    0  501    0  0.00000000000E+00 -0.00000000000E+00 -0.26750722386E+03  0.26750722386E+03  0.00000000000E+00 0. -1.
          5    1    1    2  502    0  0.52620921410E+02 -0.87857538969E+01 -0.44386341707E+02  0.69558523358E+02  0.47000000000E+01 0.  1.
         -5    1    1    2    0  502 -0.68969371139E+02 -0.46990168961E+02 -0.47942264082E+02  0.96360784656E+02  0.47000000000E+01 0.  1.
        -11    1    1    2    0    0  0.53466022727E+02  0.44745708597E+02 -0.84025591234E+02  0.10918376256E+03  0.00000000000E+00 0.  1.
         11    1    1    2    0    0 -0.37117572998E+02  0.11030214261E+02 -0.32806411667E+02  0.50750768451E+02  0.00000000000E+00 0. -1.
<mgrwt>
<rscale>  0 0.13006171E+03</rscale>
<asrwt>0</asrwt>
<pdfrwt beam="2">  1        2 0.41154957E-01 0.13785734E+03</pdfrwt>
<pdfrwt beam="1">  1       -2 0.89764025E-02 0.13785734E+03</pdfrwt>
<totfact> 0.92534901E+03</totfact>
</mgrwt>
</event>
<event>
 6    1  0.4705246E-006  0.3505072E+03  0.7546771E-02  0.1062407E+00
          1   -1    0    0  501    0  0.00000000000E+00  0.00000000000E+00  0.62031711668E+03  0.62031711668E+03  0.00000000000E+00 0. -1.
         -1   -1    0    0    0  501 -0.00000000000E+00 -0.00000000000E+00 -0.49513095635E+02  0.49513095635E+02  0.00000000000E+00 0.  1.
          5    1    1    2  502    0  0.23277907637E+02 -0.13415510524E+02  0.18235751024E+03  0.18438597682E+03  0.47000000000E+01 0.  1.
         -5    1    1    2    0  502 -0.80628851045E+02  0.88135290923E+02  0.30983532116E+03  0.33209766239E+03  0.47000000000E+01 0.  1.
        -11    1    1    2    0    0  0.34422181126E+02 -0.56709022780E+02 -0.32801321942E+01  0.66419568542E+02  0.00000000000E+00 0.  1.
         11    1    1    2    0    0  0.22928762282E+02 -0.18010757619E+02  0.81891321843E+02  0.86927004567E+02  0.00000000000E+00 0. -1.
<mgrwt>
<rscale>  0 0.35050718E+03</rscale>
<asrwt>0</asrwt>
<pdfrwt beam="1">  1        1 0.95433397E-01 0.35050718E+03</pdfrwt>
<pdfrwt beam="2">  1       -1 0.76173998E-02 0.35050718E+03</pdfrwt>
<totfact> 0.31247807E+03</totfact>
</mgrwt>
</event>
<event>
 6    1  0.4705246E-006  0.2172364E+03  0.7546771E-02  0.1139354E+00
          2   -1    0    0  501    0  0.00000000000E+00  0.00000000000E+00  0.25247373870E+04  0.25247373870E+04  0.00000000000E+00 0. -1.
         -2   -1    0    0    0  501 -0.00000000000E+00 -0.00000000000E+00 -0.17930606027E+02  0.17930606027E+02  0.00000000000E+00 0.  1.
          5    1    1    2  502    0 -0.15343648758E+03  0.11103595536E+03  0.12929888296E+04  0.13067952948E+04  0.47000000000E+01 0. -1.
         -5    1    1    2    0  502 -0.24065266036E+01 -0.25717266151E+02  0.25815967194E+03  0.25949118552E+03  0.47000000000E+01 0. -1.
        -11    1    1    2    0    0  0.85510931205E+02  0.39765201898E+01  0.36724850755E+03  0.37709335498E+03  0.00000000000E+00 0. -1.
         11    1    1    2    0    0  0.70332082974E+02 -0.89295209395E+02  0.58840977182E+03  0.59928815764E+03  0.00000000000E+00 0.  1.
<mgrwt>
<rscale>  0 0.21281816E+03</rscale>
<asrwt>0</asrwt>
<pdfrwt beam="1">  1        2 0.38842086E+00 0.21723643E+03</pdfrwt>
<pdfrwt beam="2">  1       -2 0.27585568E-02 0.21723643E+03</pdfrwt>
<totfact> 0.18762322E+03</totfact>
</mgrwt>
</event>
<event>
 6    1  0.4705246E-006  0.1372039E+03  0.7546771E-02  0.1228964E+00
          1   -1    0    0  501    0  0.00000000000E+00  0.00000000000E+00  0.58030405488E+02  0.58030405488E+02  0.00000000000E+00 0. -1.
         -1   -1    0    0    0  501 -0.00000000000E+00 -0.00000000000E+00 -0.43097296341E+03  0.43097296341E+03  0.00000000000E+00 0.  1.
          5    1    1    2  502    0  0.27861983373E+02  0.30776258780E+02 -0.34506927420E+02  0.54187510202E+02  0.47000000000E+01 0. -1.
         -5    1    1    2    0  502 -0.84424318642E+02 -0.29999299581E+02 -0.11127987786E+02  0.90406557648E+02  0.47000000000E+01 0. -1.
        -11    1    1    2    0    0  0.12132905781E+02 -0.34751144789E+02 -0.53446189277E+02  0.64894873565E+02  0.00000000000E+00 0. -1.
         11    1    1    2    0    0  0.44429429488E+02  0.33974185590E+02 -0.27386145344E+03  0.27951442748E+03  0.00000000000E+00 0.  1.
<mgrwt>
<rscale>  0 0.12898904E+03</rscale>
<asrwt>0</asrwt>
<pdfrwt beam="1">  1        1 0.89277546E-02 0.13720386E+03</pdfrwt>
<pdfrwt beam="2">  1       -1 0.66303533E-01 0.13720386E+03</pdfrwt>
<totfact> 0.17439107E+03</totfact>
</mgrwt>
</event>
<event>
 6    1  0.4705246E-006  0.3858345E+03  0.7546771E-02  0.1049313E+00
          2   -1    0    0  501    0  0.00000000000E+00  0.00000000000E+00  0.70523782667E+03  0.70523782667E+03  0.00000000000E+00 0. -1.
         -2   -1    0    0    0  501 -0.00000000000E+00 -0.00000000000E+00 -0.20887717606E+03  0.20887717606E+03  0.00000000000E+00 0.  1.
          5    1    1    2  502    0  0.12316234510E+02  0.44342129235E+02  0.58619717384E+02  0.74674462326E+02  0.47000000000E+01 0. -1.
         -5    1    1    2    0  502  0.31252595682E+03  0.12215945030E+03  0.22073162165E+03  0.40167143760E+03  0.47000000000E+01 0. -1.
        -11    1    1    2    0    0 -0.12230673850E+03 -0.64457349181E+02  0.24745462025E+02  0.14044937179E+03  0.00000000000E+00 0.  1.
         11    1    1    2    0    0 -0.20253545284E+03 -0.10204423035E+03  0.19226384955E+03  0.29731973101E+03  0.00000000000E+00 0. -1.
<mgrwt>
<rscale>  0 0.38441698E+03</rscale>
<asrwt>0</asrwt>
<pdfrwt beam="1">  1        2 0.10849813E+00 0.38583448E+03</pdfrwt>
<pdfrwt beam="2">  1       -2 0.32134951E-01 0.38583448E+03</pdfrwt>
<totfact> 0.37415462E+02</totfact>
</mgrwt>
</event>
<event>
 6    1  0.4705246E-006  0.1385823E+03  0.7546771E-02  0.1219705E+00
         -1   -1    0    0    0  501 -0.00000000000E+00  0.00000000000E+00  0.67645216916E+02  0.67645216916E+02  0.00000000000E+00 0.  1.
          1   -1    0    0  501    0  0.00000000000E+00 -0.00000000000E+00 -0.26142256857E+03  0.26142256857E+03  0.00000000000E+00 0. -1.
          5    1    1    2  502    0 -0.90489890634E+02 -0.35412647169E+01 -0.70114653785E+02  0.11462598108E+03  0.47000000000E+01 0. -1.
         -5    1    1    2    0  502  0.16807773462E+02  0.44163223550E+02 -0.47037332211E+02  0.66839301198E+02  0.47000000000E+01 0.  1.
        -11    1    1    2    0    0  0.11969646083E+02 -0.21796704987E+02 -0.79219253390E+02  0.83030469608E+02  0.00000000000E+00 0. -1.
         11    1    1    2    0    0  0.61712471090E+02 -0.18825253847E+02  0.25938877292E+01  0.64572033605E+02  0.00000000000E+00 0.  1.
<mgrwt>
<rscale>  0 0.13536516E+03</rscale>
<asrwt>0</asrwt>
<pdfrwt beam="2">  1        1 0.40218857E-01 0.13858233E+03</pdfrwt>
<pdfrwt beam="1">  1       -1 0.10406956E-01 0.13858233E+03</pdfrwt>
<totfact> 0.57167545E+03</totfact>
</mgrwt>
</event>
<event>
 6    1  0.4705246E-006  0.1406124E+03  0.7546771E-02  0.1247340E+00
         -2   -1    0    0    0  501 -0.00000000000E+00  0.00000000000E+00  0.75317520980E+03  0.75317520980E+03  0.00000000000E+00 0.  1.
          2   -1    0    0  501    0  0.00000000000E+00 -0.00000000000E+00 -0.15961579823E+02  0.15961579823E+02  0.00000000000E+00 0. -1.
          5    1    1    2  502    0 -0.23164343918E+02  0.52955995443E+02  0.22367075612E+03  0.23106627063E+03  0.47000000000E+01 0. -1.
         -5    1    1    2    0  502  0.61085711277E+02 -0.45262378477E+02  0.15108575331E+03  0.16920148309E+03  0.47000000000E+01 0.  1.
        -11    1    1    2    0    0 -0.47084281966E+02 -0.21611511328E+02  0.27652309429E+03  0.28133433616E+03  0.00000000000E+00 0. -1.
         11    1    1    2    0    0  0.91629146074E+01  0.13917894362E+02  0.85934026272E+02  0.87534699742E+02  0.00000000000E+00 0.  1.
<mgrwt>
<rscale>  0 0.11746405E+03</rscale>
<asrwt>0</asrwt>
<pdfrwt beam="2">  1        2 0.24556283E-02 0.14061235E+03</pdfrwt>
<pdfrwt beam="1">  1       -2 0.11587308E+00 0.14061235E+03</pdfrwt>
<totfact> 0.23879176E+03</totfact>
</mgrwt>
</event>
<event>
 6    1  0.4705246E-006  0.1304797E+03  0.7546771E-02  0.1240929E+00
         -1   -1    0    0    0  501 -0.00000000000E+00  0.00000000000E+00  0.24290128792E+02  0.24290128792E+02  0.00000000000E+00 0.  1.
          1   -1    0    0  501    0  0.00000000000E+00 -0.00000000000E+00 -0.55885557342E+03  0.55885557342E+03  0.00000000000E+00 0. -1.
          5    1    1    2  502    0 -0.28797358061E+02 -0.48205302123E+02 -0.26148935219E+03  0.26749170136E+03  0.47000000000E+01 0. -1.
         -5    1    1    2    0  502  0.56170592952E+02  0.22709586262E+02 -0.10228770600E+03  0.11897783667E+03  0.47000000000E+01 0. -1.
        -11    1    1    2    0    0  0.20246334400E+02 -0.20846225065E+02 -0.71761178124E+02  0.77421869273E+02  0.00000000000E+00 0. -1.
         11    1    1    2    0    0 -0.47619569291E+02  0.46341940927E+02 -0.99027208313E+02  0.11925429491E+03  0.00000000000E+00 0.  1.
<mgrwt>
<rscale>  0 0.12132381E+03</rscale>
<asrwt>0</asrwt>
<pdfrwt beam="2">  1        1 0.85977773E-01 0.13047971E+03</pdfrwt>
<pdfrwt beam="1">  1       -1 0.37369432E-02 0.13047971E+03</pdfrwt>
<totfact> 0.10052511E+04</totfact>
</mgrwt>
</event>
<event>
 6    1  0.4705246E-006  0.2045306E+03  0.7546771E-02  0.1171385E+00
          1   -1    0    0  501    0  0.00000000000E+00  0.00000000000E+00  0.43017411217E+03  0.43017411217E+03  0.00000000000E+00 0. -1.
         -1   -1    0    0    0  501 -0.00000000000E+00 -0.00000000000E+00 -0.63131746828E+02  0.63131746828E+02  0.00000000000E+00 0.  1.
          5    1    1    2  502    0  0.45623847278E+02 -0.44261920778E+02  0.25975766165E+03  0.26746361595E+03  0.47000000000E+01 0. -1.
         -5    1    1    2    0  502 -0.83749663520E+02 -0.13323317710E+02  0.36279717761E+02  0.92357050924E+02  0.47000000000E+01 0.  1.
        -11    1    1    2    0    0  0.11954599626E+02  0.77307893126E+02  0.61069054828E+02  0.99241383754E+02  0.00000000000E+00 0.  1.
         11    1    1    2    0    0  0.26171216615E+02 -0.19722654638E+02  0.99359311091E+01  0.34243808376E+02  0.00000000000E+00 0. -1.
<mgrwt>
<rscale>  0 0.17634804E+03</rscale>
<asrwt>0</asrwt>
<pdfrwt beam="1">  1        1 0.66180631E-01 0.20453064E+03</pdfrwt>
<pdfrwt beam="2">  1       -1 0.97125767E-02 0.20453064E+03</pdfrwt>
<totfact> 0.34659755E+03</totfact>
</mgrwt>
</event>
<event>
 6    1  0.4705246E-006  0.4597704E+03  0.7546771E-02  0.1024848E+00
         -2   -1    0    0    0  501 -0.00000000000E+00  0.00000000000E+00  0.63546192311E+02  0.63546192311E+02  0.00000000000E+00 0.  1.
          2   -1    0    0  501    0  0.00000000000E+00 -0.00000000000E+00 -0.83163440827E+03  0.83163440827E+03  0.00000000000E+00 0. -1.
          5    1    1    2  502    0  0.81501260693E+01 -0.16286163754E+03 -0.63034570714E+03  0.65111299944E+03  0.47000000000E+01 0.  1.
         -5    1    1    2    0  502  0.39842744126E+01  0.21718865080E+02 -0.47890672640E+02  0.52945160958E+02  0.47000000000E+01 0.  1.
        -11    1    1    2    0    0  0.32272342451E+02  0.61211555160E+02 -0.10374637401E+02  0.69971363239E+02  0.00000000000E+00 0. -1.
         11    1    1    2    0    0 -0.44406742933E+02  0.79931217302E+02 -0.79477198778E+02  0.12115107694E+03  0.00000000000E+00 0.  1.
<mgrwt>
<rscale>  0 0.45977038E+03</rscale>
<asrwt>0</asrwt>
<pdfrwt beam="2">  1        2 0.12794376E+00 0.45977038E+03</pdfrwt>
<pdfrwt beam="1">  1       -2 0.97763372E-02 0.45977038E+03</pdfrwt>
<totfact> 0.23294334E+03</totfact>
</mgrwt>
</event>
<event>
 6    1  0.4705246E-006  0.1501774E+03  0.7546771E-02  0.1210591E+00
          1   -1    0    0  501    0  0.00000000000E+00  0.00000000000E+00  0.29065619602E+02  0.29065619602E+02  0.00000000000E+00 0. -1.
         -1   -1    0    0    0  501 -0.00000000000E+00 -0.00000000000E+00 -0.80437270936E+03  0.80437270936E+03  0.00000000000E+00 0.  1.
          5    1    1    2  502    0 -0.10129494521E+03 -0.25596221842E+02 -0.20141572405E+03  0.22694981029E+03  0.47000000000E+01 0. -1.
         -5    1    1    2    0  502  0.31494785518E+02 -0.19750654755E+02 -0.26116021394E+02  0.45674352229E+02  0.47000000000E+01 0. -1.
        -11    1    1    2    0    0  0.74147915884E+02  0.56026614215E+01 -0.43141995405E+03  0.43778131527E+03  0.00000000000E+00 0.  1.
         11    1    1    2    0    0 -0.43477561882E+01  0.39744215175E+02 -0.11635539027E+03  0.12303285117E+03  0.00000000000E+00 0. -1.
<mgrwt>
<rscale>  0 0.14205433E+03</rscale>
<asrwt>0</asrwt>
<pdfrwt beam="1">  1        1 0.44716334E-02 0.15017736E+03</pdfrwt>
<pdfrwt beam="2">  1       -1 0.12374966E+00 0.15017736E+03</pdfrwt>
<totfact> 0.11747088E+03</totfact>
</mgrwt>
</event>
<event>
 6    1  0.4705246E-006  0.1378928E+03  0.7546771E-02  0.1230727E+00
         -1   -1    0    0    0  501 -0.00000000000E+00  0.00000000000E+00  0.92841596629E+02  0.92841596629E+02  0.00000000000E+00 0.  1.
          1   -1    0    0  501    0  0.00000000000E+00 -0.00000000000E+00 -0.17007356967E+03  0.17007356967E+03  0.00000000000E+00 0. -1.
          5    1    1    2  502    0 -0.16603097721E+02  0.19766151201E+02 -0.10056633288E+03  0.10393286726E+03  0.47000000000E+01 0. -1.
         -5    1    1    2    0  502  0.52452282277E+02  0.12992339173E+02  0.17563356873E+02  0.57014071052E+02  0.47000000000E+01 0.  1.
        -11    1    1    2    0    0  0.25402472719E+01  0.22563118841E+02 -0.19615270436E+02  0.30005099938E+02  0.00000000000E+00 0. -1.
         11    1    1    2    0    0 -0.38389431828E+02 -0.55321609215E+02  0.25386273399E+02  0.71963128054E+02  0.00000000000E+00 0.  1.
<mgrwt>
<rscale>  0 0.12781983E+03</rscale>
<asrwt>0</asrwt>
<pdfrwt beam="2">  1        1 0.26165164E-01 0.13789280E+03</pdfrwt>
<pdfrwt beam="1">  1       -1 0.14283323E-01 0.13789280E+03</pdfrwt>
<totfact> 0.59767468E+03</totfact>
</mgrwt>
</event>
<event>
 6    1  0.4705246E-006  0.1362186E+03  0.7546771E-02  0.1230643E+00
         -3   -1    0    0    0  501 -0.00000000000E+00  0.00000000000E+00  0.49017757205E+02  0.49017757205E+02  0.00000000000E+00 0.  1.
          3   -1    0    0  501    0  0.00000000000E+00 -0.00000000000E+00 -0.30841051951E+03  0.30841051951E+03  0.00000000000E+00 0. -1.
          5    1    1    2  502    0  0.15176808519E+02  0.46173278381E+02 -0.53562279694E+02  0.72479755513E+02  0.47000000000E+01 0.  1.
         -5    1    1    2    0  502  0.24465266503E+02 -0.83091730497E+02 -0.12338699706E+03  0.15082846543E+03  0.47000000000E+01 0.  1.
        -11    1    1    2    0    0 -0.45516700355E+02 -0.18727302954E+02 -0.31406056186E+02  0.58385120128E+02  0.00000000000E+00 0.  1.
         11    1    1    2    0    0  0.58746253334E+01  0.55645755070E+02 -0.51037429369E+02  0.75734935642E+02  0.00000000000E+00 0. -1.
<mgrwt>
<rscale>  0 0.12787547E+03</rscale>
<asrwt>0</asrwt>
<pdfrwt beam="2">  1        3 0.47447772E-01 0.13621863E+03</pdfrwt>
<pdfrwt beam="1">  1       -3 0.75411934E-02 0.13621863E+03</pdfrwt>
<totfact> 0.12020157E+03</totfact>
</mgrwt>
</event>
<event>
 6    1  0.4705246E-006  0.1332621E+03  0.7546771E-02  0.1235504E+00
         -2   -1    0    0    0  501 -0.00000000000E+00  0.00000000000E+00  0.18002831856E+02  0.18002831856E+02  0.00000000000E+00 0.  1.
          2   -1    0    0  501    0  0.00000000000E+00 -0.00000000000E+00 -0.82487675370E+03  0.82487675370E+03  0.00000000000E+00 0. -1.
          5    1    1    2  502    0  0.45194971061E+02 -0.45630381666E+02 -0.46526542793E+03  0.46970067657E+03  0.47000000000E+01 0.  1.
         -5    1    1    2    0  502  0.96415742570E+00  0.47280841104E+02 -0.95365115586E+02  0.10655047070E+03  0.47000000000E+01 0.  1.
        -11    1    1    2    0    0 -0.34925014015E+02  0.35360675115E+02 -0.20124548609E+03  0.20729177412E+03  0.00000000000E+00 0. -1.
         11    1    1    2    0    0 -0.11234114471E+02 -0.37011134552E+02 -0.44997892240E+02  0.59336664170E+02  0.00000000000E+00 0.  1.
<mgrwt>
<rscale>  0 0.12472256E+03</rscale>
<asrwt>0</asrwt>
<pdfrwt beam="2">  1        2 0.12690413E+00 0.13326207E+03</pdfrwt>
<pdfrwt beam="1">  1       -2 0.27696662E-02 0.13326207E+03</pdfrwt>
<totfact> 0.15492045E+04</totfact>
</mgrwt>
</event>
<event>
 6    1  0.4705246E-006  0.1338095E+03  0.7546771E-02  0.1234517E+00
          2   -1    0    0  501    0  0.00000000000E+00  0.00000000000E+00  0.13399122140E+04  0.13399122140E+04  0.00000000000E+00 0.  1.
         -2   -1    0    0    0  501 -0.00000000000E+00 -0.00000000000E+00 -0.11996072956E+02  0.11996072956E+02  0.00000000000E+00 0. -1.
          5    1    1    2  502    0  0.36454328732E+02  0.26989993101E+02  0.37851033727E+03  0.38124735177E+03  0.47000000000E+01 0. -1.
         -5    1    1    2    0  502 -0.84125285029E+02 -0.24191323988E+02  0.60009795917E+03  0.60646676276E+03  0.47000000000E+01 0. -1.
        -11    1    1    2    0    0  0.43756012192E+02  0.34860201554E+02  0.27679175345E+03  0.28238891096E+03  0.00000000000E+00 0.  1.
         11    1    1    2    0    0  0.39149441056E+01 -0.37658870667E+02  0.72516091189E+02  0.81805261497E+02  0.00000000000E+00 0. -1.
<mgrwt>
<rscale>  0 0.12535394E+03</rscale>
<asrwt>0</asrwt>
<pdfrwt beam="1">  1        2 0.20614022E+00 0.13380947E+03</pdfrwt>
<pdfrwt beam="2">  1       -2 0.18455507E-02 0.13380947E+03</pdfrwt>
<totfact> 0.14016790E+04</totfact>
</mgrwt>
</event>
<event>
 6    1  0.4705246E-006  0.2963855E+03  0.7546771E-02  0.1087062E+00
         -3   -1    0    0    0  501 -0.00000000000E+00  0.00000000000E+00  0.84514801573E+02  0.84514801573E+02  0.00000000000E+00 0.  1.
          3   -1    0    0  501    0  0.00000000000E+00 -0.00000000000E+00 -0.25984908091E+03  0.25984908091E+03  0.00000000000E+00 0. -1.
          5    1    1    2  502    0  0.56906024885E+02  0.45905966909E+02 -0.20257282632E+03  0.21541470105E+03  0.47000000000E+01 0. -1.
         -5    1    1    2    0  502 -0.74754819316E+01 -0.20688314056E+02  0.67078643646E+01  0.23472848420E+02  0.47000000000E+01 0. -1.
        -11    1    1    2    0    0 -0.11806678018E+02 -0.53154448265E+02  0.34242068775E+00  0.54450989597E+02  0.00000000000E+00 0. -1.
         11    1    1    2    0    0 -0.37623864935E+02  0.27936795412E+02  0.20188261932E+02  0.51025343413E+02  0.00000000000E+00 0.  1.
<mgrwt>
<rscale>  0 0.29638552E+03</rscale>
<asrwt>0</asrwt>
<pdfrwt beam="2">  1        3 0.39976781E-01 0.29638552E+03</pdfrwt>
<pdfrwt beam="1">  1       -3 0.13002277E-01 0.29638552E+03</pdfrwt>
<totfact> 0.75502950E+02</totfact>
</mgrwt>
</event>
<event>
 6    1  0.4705246E-006  0.1796685E+03  0.7546771E-02  0.1173963E+00
          2   -1    0    0  501    0  0.00000000000E+00  0.00000000000E+00  0.66278520575E+03  0.66278520575E+03  0.00000000000E+00 0. -1.
         -2   -1    0    0    0  501 -0.00000000000E+00 -0.00000000000E+00 -0.44946346217E+02  0.44946346217E+02  0.00000000000E+00 0.  1.
          5    1    1    2  502    0 -0.72318685365E+02 -0.12649579731E+03  0.37262807788E+03  0.40013117026E+03  0.47000000000E+01 0.  1.
         -5    1    1    2    0  502  0.27348947164E+02  0.55285813476E+01  0.32761281154E+02  0.43288816865E+02  0.47000000000E+01 0.  1.
        -11    1    1    2    0    0 -0.53701289965E+01  0.14505967715E+02 -0.56353290992E+01  0.16462634019E+02  0.00000000000E+00 0.  1.
         11    1    1    2    0    0  0.50339867197E+02  0.10646124825E+03  0.21808482960E+03  0.24784893082E+03  0.00000000000E+00 0. -1.
<mgrwt>
<rscale>  0 0.17377916E+03</rscale>
<asrwt>0</asrwt>
<pdfrwt beam="1">  1        2 0.10196695E+00 0.17966845E+03</pdfrwt>
<pdfrwt beam="2">  1       -2 0.69148230E-02 0.17966845E+03</pdfrwt>
<totfact> 0.52183715E+03</totfact>
</mgrwt>
</event>
<event>
 6    1  0.4705246E-006  0.1657840E+03  0.7546771E-02  0.1189278E+00
         -1   -1    0    0    0  501 -0.00000000000E+00  0.00000000000E+00  0.54857313119E+02  0.54857313119E+02  0.00000000000E+00 0.  1.
          1   -1    0    0  501    0  0.00000000000E+00 -0.00000000000E+00 -0.43247153896E+03  0.43247153896E+03  0.00000000000E+00 0. -1.
          5    1    1    2  502    0  0.55232957493E+02 -0.97349869953E+02 -0.10041787477E+03  0.15044439620E+03  0.47000000000E+01 0. -1.
         -5    1    1    2    0  502 -0.45745022996E+02 -0.11121949631E+02 -0.92678103248E+02  0.10405587785E+03  0.47000000000E+01 0. -1.
        -11    1    1    2    0    0 -0.13379418814E+02  0.76583860681E+02 -0.45356884029E+02  0.90007463542E+02  0.00000000000E+00 0.  1.
         11    1    1    2    0    0  0.38914843166E+01  0.31887958903E+02 -0.13916136379E+03  0.14282111450E+03  0.00000000000E+00 0. -1.
<mgrwt>
<rscale>  0 0.15948656E+03</rscale>
<asrwt>0</asrwt>
<pdfrwt beam="2">  1        1 0.66534084E-01 0.16578399E+03</pdfrwt>
<pdfrwt beam="1">  1       -1 0.84395865E-02 0.16578399E+03</pdfrwt>
<totfact> 0.42310603E+03</totfact>
</mgrwt>
</event>
<event>
 6    1  0.4705246E-006  0.1445033E+03  0.7546771E-02  0.1216594E+00
          1   -1    0    0  501    0  0.00000000000E+00  0.00000000000E+00  0.13150957156E+03  0.13150957156E+03  0.00000000000E+00 0. -1.
         -1   -1    0    0    0  501 -0.00000000000E+00 -0.00000000000E+00 -0.15594039343E+03  0.15594039343E+03  0.00000000000E+00 0.  1.
          5    1    1    2  502    0 -0.91447762877E+02 -0.46531139037E+02  0.53189549523E+02  0.11566787978E+03  0.47000000000E+01 0.  1.
         -5    1    1    2    0  502  0.33132416159E+02  0.34532871094E+01 -0.10096191912E+02  0.35124141036E+02  0.47000000000E+01 0.  1.
        -11    1    1    2    0    0  0.83547895198E+02  0.28955816795E+02 -0.59741268296E+02  0.10671321032E+03  0.00000000000E+00 0.  1.
         11    1    1    2    0    0 -0.25232548480E+02  0.14122035133E+02 -0.77829111820E+01  0.29944733854E+02  0.00000000000E+00 0. -1.
<mgrwt>
<rscale>  0 0.13760105E+03</rscale>
<asrwt>0</asrwt>
<pdfrwt beam="1">  1        1 0.20232242E-01 0.14450327E+03</pdfrwt>
<pdfrwt beam="2">  1       -1 0.23990830E-01 0.14450327E+03</pdfrwt>
<totfact> 0.36218144E+03</totfact>
</mgrwt>
</event>
<event>
 6    1  0.4705246E-006  0.1707847E+03  0.7546771E-02  0.1183495E+00
         -1   -1    0    0    0  501 -0.00000000000E+00  0.00000000000E+00  0.99652653076E+02  0.99652653076E+02  0.00000000000E+00 0.  1.
          1   -1    0    0  501    0  0.00000000000E+00 -0.00000000000E+00 -0.28464717837E+03  0.28464717837E+03  0.00000000000E+00 0. -1.
          5    1    1    2  502    0 -0.32747458976E+02 -0.96154219081E+02 -0.36108637402E+02  0.10790715274E+03  0.47000000000E+01 0. -1.
         -5    1    1    2    0  502 -0.20251244540E+02 -0.74491554370E+01 -0.12480198185E+03  0.12674078861E+03  0.47000000000E+01 0. -1.
        -11    1    1    2    0    0  0.14449846252E+02  0.21810565573E+02 -0.49272153393E+02  0.55787488986E+02  0.00000000000E+00 0. -1.
         11    1    1    2    0    0  0.38548857264E+02  0.81792808945E+02  0.25188247358E+02  0.93864401114E+02  0.00000000000E+00 0.  1.
<mgrwt>
<rscale>  0 0.16469592E+03</rscale>
<asrwt>0</asrwt>
<pdfrwt beam="2">  1        1 0.43791874E-01 0.17078474E+03</pdfrwt>
<pdfrwt beam="1">  1       -1 0.15331177E-01 0.17078474E+03</pdfrwt>
<totfact> 0.28474615E+03</totfact>
</mgrwt>
</event>
<event>
 6    1  0.4705246E-006  0.2137063E+03  0.7546771E-02  0.1172773E+00
          2   -1    0    0  501    0  0.00000000000E+00  0.00000000000E+00  0.81515413264E+03  0.81515413264E+03  0.00000000000E+00 0. -1.
         -2   -1    0    0    0  501 -0.00000000000E+00 -0.00000000000E+00 -0.60609775691E+02  0.60609775691E+02  0.00000000000E+00 0.  1.
          5    1    1    2  502    0 -0.91006252589E+02  0.40175833674E+02  0.32699547893E+03  0.34182505593E+03  0.47000000000E+01 0. -1.
         -5    1    1    2    0  502  0.11321319620E+03 -0.98455696874E+01  0.42278427897E+03  0.43781594259E+03  0.47000000000E+01 0.  1.
        -11    1    1    2    0    0 -0.34975835413E+02  0.17123171316E+02 -0.16858155798E+02  0.42434767298E+02  0.00000000000E+00 0. -1.
         11    1    1    2    0    0  0.12768891802E+02 -0.47453435302E+02  0.21622754844E+02  0.53688142517E+02  0.00000000000E+00 0.  1.
<mgrwt>
<rscale>  0 0.17495898E+03</rscale>
<asrwt>0</asrwt>
<pdfrwt beam="1">  1        2 0.12540832E+00 0.21370634E+03</pdfrwt>
<pdfrwt beam="2">  1       -2 0.93245814E-02 0.21370634E+03</pdfrwt>
<totfact> 0.25542605E+03</totfact>
</mgrwt>
</event>
<event>
 6    1  0.4705246E-006  0.2484752E+03  0.7546771E-02  0.1114272E+00
          2   -1    0    0  501    0  0.00000000000E+00  0.00000000000E+00  0.10984798489E+04  0.10984798489E+04  0.00000000000E+00 0.  1.
         -2   -1    0    0    0  501 -0.00000000000E+00 -0.00000000000E+00 -0.14051219108E+02  0.14051219108E+02  0.00000000000E+00 0. -1.
          5    1    1    2  502    0 -0.65692364725E+01 -0.12932369501E+02  0.39708547498E+01  0.15756228488E+02  0.47000000000E+01 0. -1.
         -5    1    1    2    0  502 -0.46218356764E+02  0.27258664309E+02  0.65392395128E+03  0.65613854889E+03  0.47000000000E+01 0. -1.
        -11    1    1    2    0    0  0.83647926325E+01  0.35099366895E+02  0.79615791502E+02  0.87410580416E+02  0.00000000000E+00 0.  1.
         11    1    1    2    0    0  0.44422800604E+02 -0.49425661704E+02  0.34691803230E+03  0.35322571025E+03  0.00000000000E+00 0. -1.
<mgrwt>
<rscale>  0 0.24847520E+03</rscale>
<asrwt>0</asrwt>
<pdfrwt beam="1">  1        2 0.16899683E+00 0.24847520E+03</pdfrwt>
<pdfrwt beam="2">  1       -2 0.21617269E-02 0.24847520E+03</pdfrwt>
<totfact> 0.15674953E+04</totfact>
</mgrwt>
</event>
<event>
 6    1  0.4826197E-006  0.3211175E+03  0.7546771E-02  0.1076494E+00
         -2   -1    0    0    0  501 -0.00000000000E+00  0.00000000000E+00  0.20023489167E+03  0.20023489167E+03  0.00000000000E+00 0. -1.
          2   -1    0    0  501    0  0.00000000000E+00 -0.00000000000E+00 -0.54449327308E+03  0.54449327308E+03  0.00000000000E+00 0.  1.
          5    1    1    2  502    0  0.19441148782E+02 -0.70734558311E+01 -0.25920125372E+02  0.33495297322E+02  0.47000000000E+01 0.  1.
         -5    1    1    2    0  502 -0.15693033260E+03 -0.25482038225E+03 -0.25963303043E+03  0.39622210563E+03  0.47000000000E+01 0.  1.
        -11    1    1    2    0    0  0.38731152722E+02  0.14094155306E+03  0.52765257306E+01  0.14626163302E+03  0.00000000000E+00 0. -1.
         11    1    1    2    0    0  0.98758031096E+02  0.12095228502E+03 -0.63981751341E+02  0.16874912878E+03  0.00000000000E+00 0.  1.
<mgrwt>
<rscale>  0 0.31817088E+03</rscale>
<asrwt>0</asrwt>
<pdfrwt beam="2">  1        2 0.83768195E-01 0.32111749E+03</pdfrwt>
<pdfrwt beam="1">  1       -2 0.30805368E-01 0.32111749E+03</pdfrwt>
<totfact> 0.55202115E+02</totfact>
</mgrwt>
</event>
<event>
 6    1  0.4705246E-006  0.2284315E+03  0.7546771E-02  0.1127749E+00
         -2   -1    0    0    0  501 -0.00000000000E+00  0.00000000000E+00  0.24140749006E+02  0.24140749006E+02  0.00000000000E+00 0.  1.
          2   -1    0    0  501    0  0.00000000000E+00 -0.00000000000E+00 -0.54038232736E+03  0.54038232736E+03  0.00000000000E+00 0. -1.
          5    1    1    2  502    0  0.57003079423E+02  0.59874132700E+01 -0.36464121777E+03  0.36914835483E+03  0.47000000000E+01 0. -1.
         -5    1    1    2    0  502 -0.18180665754E+02  0.45943630001E+01 -0.99912469028E+00  0.19358022337E+02  0.47000000000E+01 0. -1.
        -11    1    1    2    0    0 -0.20192345566E+02  0.21060051826E+02 -0.13136121815E+03  0.13456235074E+03  0.00000000000E+00 0. -1.
         11    1    1    2    0    0 -0.18630068103E+02 -0.31641828096E+02 -0.19240017738E+02  0.41454348449E+02  0.00000000000E+00 0.  1.
<mgrwt>
<rscale>  0 0.22843147E+03</rscale>
<asrwt>0</asrwt>
<pdfrwt beam="2">  1        2 0.83135737E-01 0.22843147E+03</pdfrwt>
<pdfrwt beam="1">  1       -2 0.37139616E-02 0.22843147E+03</pdfrwt>
<totfact> 0.17203720E+04</totfact>
</mgrwt>
</event>
<event>
 6    1  0.4705246E-006  0.1479979E+03  0.7546771E-02  0.1213202E+00
          3   -1    0    0  501    0  0.00000000000E+00  0.00000000000E+00  0.67793737502E+02  0.67793737502E+02  0.00000000000E+00 0. -1.
         -3   -1    0    0    0  501 -0.00000000000E+00 -0.00000000000E+00 -0.27251484206E+03  0.27251484206E+03  0.00000000000E+00 0.  1.
          5    1    1    2  502    0 -0.20292570331E+02  0.35401124554E+01  0.28017545127E+02  0.35091218870E+02  0.47000000000E+01 0.  1.
         -5    1    1    2    0  502  0.16011377616E+02  0.75569830432E+02 -0.10880505549E+03  0.13352076087E+03  0.47000000000E+01 0.  1.
        -11    1    1    2    0    0 -0.14663950770E+02 -0.15340348283E+02  0.89964267236E+01  0.23049803284E+02  0.00000000000E+00 0. -1.
         11    1    1    2    0    0  0.18945143485E+02 -0.63769594605E+02 -0.13293002092E+03  0.14864679653E+03  0.00000000000E+00 0.  1.
<mgrwt>
<rscale>  0 0.14009470E+03</rscale>
<asrwt>0</asrwt>
<pdfrwt beam="1">  1        3 0.10429806E-01 0.14799790E+03</pdfrwt>
<pdfrwt beam="2">  1       -3 0.41925361E-01 0.14799790E+03</pdfrwt>
<totfact> 0.91141795E+02</totfact>
</mgrwt>
</event>
<event>
 6    1  0.4705246E-006  0.1354778E+03  0.7546771E-02  0.1231990E+00
          1   -1    0    0  501    0  0.00000000000E+00  0.00000000000E+00  0.39083679203E+03  0.39083679203E+03  0.00000000000E+00 0. -1.
         -1   -1    0    0    0  501 -0.00000000000E+00 -0.00000000000E+00 -0.37305115215E+02  0.37305115215E+02  0.00000000000E+00 0.  1.
          5    1    1    2  502    0 -0.27442853274E+02  0.14203556717E+02  0.20332294568E+03  0.20571135471E+03  0.47000000000E+01 0. -1.
         -5    1    1    2    0  502  0.34489945549E+02  0.37571940136E+02  0.18981937066E+02  0.54622440117E+02  0.47000000000E+01 0. -1.
        -11    1    1    2    0    0  0.32185980403E+02 -0.44332412307E+02  0.10927624852E+03  0.12223992231E+03  0.00000000000E+00 0. -1.
         11    1    1    2    0    0 -0.39233072678E+02 -0.74430845457E+01  0.21950545546E+02  0.45568190101E+02  0.00000000000E+00 0.  1.
<mgrwt>
<rscale>  0 0.12699121E+03</rscale>
<asrwt>0</asrwt>
<pdfrwt beam="1">  1        1 0.60128734E-01 0.13547776E+03</pdfrwt>
<pdfrwt beam="2">  1       -1 0.57392488E-02 0.13547776E+03</pdfrwt>
<totfact> 0.84910034E+03</totfact>
</mgrwt>
</event>
<event>
 6    1  0.4705246E-006  0.1356617E+03  0.7546771E-02  0.1224396E+00
         -2   -1    0    0    0  501 -0.00000000000E+00  0.00000000000E+00  0.18010867415E+03  0.18010867415E+03  0.00000000000E+00 0.  1.
          2   -1    0    0  501    0  0.00000000000E+00 -0.00000000000E+00 -0.12172982414E+03  0.12172982414E+03  0.00000000000E+00 0. -1.
          5    1    1    2  502    0 -0.69451570676E+02 -0.24843341006E+02 -0.52025730958E+02  0.90385169930E+02  0.47000000000E+01 0. -1.
         -5    1    1    2    0  502  0.46234143198E+02 -0.22485414976E+02  0.79977760238E+01  0.52242169798E+02  0.47000000000E+01 0. -1.
        -11    1    1    2    0    0 -0.25666044099E+02  0.62934289831E+02  0.74324683549E+02  0.10071558589E+03  0.00000000000E+00 0.  1.
         11    1    1    2    0    0  0.48883471578E+02 -0.15605533849E+02  0.28082121393E+02  0.58495572671E+02  0.00000000000E+00 0. -1.
<mgrwt>
<rscale>  0 0.13208366E+03</rscale>
<asrwt>0</asrwt>
<pdfrwt beam="2">  1        2 0.18727665E-01 0.13566170E+03</pdfrwt>
<pdfrwt beam="1">  1       -2 0.27709027E-01 0.13566170E+03</pdfrwt>
<totfact> 0.34037378E+03</totfact>
</mgrwt>
</event>
<event>
 6    1  0.4705246E-006  0.2794777E+03  0.7546771E-02  0.1095975E+00
         -2   -1    0    0    0  501 -0.00000000000E+00  0.00000000000E+00  0.21783088015E+03  0.21783088015E+03  0.00000000000E+00 0.  1.
          2   -1    0    0  501    0  0.00000000000E+00 -0.00000000000E+00 -0.89642664564E+02  0.89642664564E+02  0.00000000000E+00 0. -1.
          5    1    1    2  502    0  0.13662891431E+02  0.79199684380E+01  0.78350700602E+02  0.80064491425E+02  0.47000000000E+01 0. -1.
         -5    1    1    2    0  502 -0.95190348542E+02 -0.27545521500E+02  0.24329830670E+02  0.10214689849E+03  0.47000000000E+01 0. -1.
        -11    1    1    2    0    0  0.43938590828E+02 -0.20569582749E+02 -0.21329471601E+02  0.52996734401E+02  0.00000000000E+00 0. -1.
         11    1    1    2    0    0  0.37588866283E+02  0.40195135810E+02  0.46837155915E+02  0.72265420399E+02  0.00000000000E+00 0.  1.
<mgrwt>
<rscale>  0 0.27947766E+03</rscale>
<asrwt>0</asrwt>
<pdfrwt beam="2">  1        2 0.13791179E-01 0.27947766E+03</pdfrwt>
<pdfrwt beam="1">  1       -2 0.33512443E-01 0.27947766E+03</pdfrwt>
<totfact> 0.35778717E+03</totfact>
</mgrwt>
</event>
<event>
 6    1  0.4705246E-006  0.1278617E+03  0.7546771E-02  0.1245079E+00
         -2   -1    0    0    0  501 -0.00000000000E+00  0.00000000000E+00  0.19563161751E+03  0.19563161751E+03  0.00000000000E+00 0.  1.
          2   -1    0    0  501    0  0.00000000000E+00 -0.00000000000E+00 -0.64197378093E+02  0.64197378093E+02  0.00000000000E+00 0. -1.
          5    1    1    2  502    0 -0.24714804266E+02  0.41740767709E+02 -0.88809152408E+01  0.49538610138E+02  0.47000000000E+01 0. -1.
         -5    1    1    2    0  502  0.49360744004E+02 -0.31683585781E+02  0.72204445357E+02  0.93144535996E+02  0.47000000000E+01 0. -1.
        -11    1    1    2    0    0 -0.57256583574E+02 -0.23333887595E-01  0.58138468967E+02  0.81599010293E+02  0.00000000000E+00 0. -1.
         11    1    1    2    0    0  0.32610643836E+02 -0.10033848041E+02  0.99722403307E+01  0.35546839172E+02  0.00000000000E+00 0.  1.
<mgrwt>
<rscale>  0 0.11880657E+03</rscale>
<asrwt>0</asrwt>
<pdfrwt beam="2">  1        2 0.98765198E-02 0.12786169E+03</pdfrwt>
<pdfrwt beam="1">  1       -2 0.30097172E-01 0.12786169E+03</pdfrwt>
<totfact> 0.62366153E+03</totfact>
</mgrwt>
</event>
<event>
 6    1  0.4705246E-006  0.1519784E+03  0.7546771E-02  0.1207861E+00
          2   -1    0    0  501    0  0.00000000000E+00  0.00000000000E+00  0.97981018973E+03  0.97981018973E+03  0.00000000000E+00 0. -1.
         -2   -1    0    0    0  501 -0.00000000000E+00 -0.00000000000E+00 -0.20633163079E+02  0.20633163079E+02  0.00000000000E+00 0.  1.
          5    1    1    2  502    0 -0.29649763057E+01 -0.50543361776E+02  0.23616902133E+03  0.24158087495E+03  0.47000000000E+01 0. -1.
         -5    1    1    2    0  502 -0.83249863709E+02  0.56847016554E+02  0.41768274256E+03  0.42970115956E+03  0.47000000000E+01 0. -1.
        -11    1    1    2    0    0 -0.91076148815E+01 -0.23701844794E+02  0.50234238256E+02  0.56286808300E+02  0.00000000000E+00 0.  1.
         11    1    1    2    0    0  0.95322454896E+02  0.17398190016E+02  0.25509102450E+03  0.27287451000E+03  0.00000000000E+00 0. -1.
<mgrwt>
<rscale>  0 0.14414300E+03</rscale>
<asrwt>0</asrwt>
<pdfrwt beam="1">  1        2 0.15073999E+00 0.15197842E+03</pdfrwt>
<pdfrwt beam="2">  1       -2 0.31743335E-02 0.15197842E+03</pdfrwt>
<totfact> 0.10200403E+04</totfact>
</mgrwt>
</event>
<event>
 6    1  0.4705246E-006  0.3587880E+03  0.7546771E-02  0.1059988E+00
         -2   -1    0    0    0  501 -0.00000000000E+00  0.00000000000E+00  0.12082110667E+03  0.12082110667E+03  0.00000000000E+00 0.  1.
          2   -1    0    0  501    0  0.00000000000E+00 -0.00000000000E+00 -0.10553157589E+04  0.10553157589E+04  0.00000000000E+00 0. -1.
          5    1    1    2  502    0  0.17516767969E+03  0.72572671366E+02 -0.34715383647E+03  0.39558612819E+03  0.47000000000E+01 0. -1.
         -5    1    1    2    0  502  0.15942552366E+03 -0.38814849522E+02 -0.20040587829E+03  0.25905153192E+03  0.47000000000E+01 0. -1.
        -11    1    1    2    0    0 -0.30231978440E+03 -0.38095539688E+02 -0.29559846805E+03  0.42453147881E+03  0.00000000000E+00 0.  1.
         11    1    1    2    0    0 -0.32273418952E+02  0.43377178433E+01 -0.91336469408E+02  0.96967726646E+02  0.00000000000E+00 0. -1.
<mgrwt>
<rscale>  0 0.35647685E+03</rscale>
<asrwt>0</asrwt>
<pdfrwt beam="2">  1        2 0.16235627E+00 0.35878799E+03</pdfrwt>
<pdfrwt beam="1">  1       -2 0.18587863E-01 0.35878799E+03</pdfrwt>
<totfact> 0.57784760E+02</totfact>
</mgrwt>
</event>
<event>
 6    1  0.4705246E-006  0.2065285E+03  0.7546771E-02  0.1148392E+00
         -2   -1    0    0    0  501 -0.00000000000E+00  0.00000000000E+00  0.51595637869E+02  0.51595637869E+02  0.00000000000E+00 0.  1.
          2   -1    0    0  501    0  0.00000000000E+00 -0.00000000000E+00 -0.78383525347E+03  0.78383525347E+03  0.00000000000E+00 0. -1.
          5    1    1    2  502    0  0.13134687877E+03 -0.10958133661E+03 -0.42425478948E+03  0.45746506784E+03  0.47000000000E+01 0. -1.
         -5    1    1    2    0  502 -0.26252390514E+02 -0.16845916376E+02 -0.42381390026E+02  0.52832235678E+02  0.47000000000E+01 0. -1.
        -11    1    1    2    0    0 -0.63417755252E+02  0.13088624057E+03 -0.21185961017E+03  0.25697765287E+03  0.00000000000E+00 0. -1.
         11    1    1    2    0    0 -0.41676733006E+02 -0.44589875909E+01 -0.53743825926E+02  0.68155934955E+02  0.00000000000E+00 0.  1.
<mgrwt>
<rscale>  0 0.20160503E+03</rscale>
<asrwt>0</asrwt>
<pdfrwt beam="2">  1        2 0.12059002E+00 0.20652848E+03</pdfrwt>
<pdfrwt beam="1">  1       -2 0.79377915E-02 0.20652848E+03</pdfrwt>
<totfact> 0.34528191E+03</totfact>
</mgrwt>
</event>
<event>
 6    1  0.4705246E-006  0.1283503E+03  0.7546771E-02  0.1244400E+00
         -1   -1    0    0    0  501 -0.00000000000E+00  0.00000000000E+00  0.28093090670E+02  0.28093090670E+02  0.00000000000E+00 0.  1.
          1   -1    0    0  501    0  0.00000000000E+00 -0.00000000000E+00 -0.51042249924E+03  0.51042249924E+03  0.00000000000E+00 0. -1.
          5    1    1    2  502    0  0.53127947651E+02  0.40135255351E+02 -0.18845911348E+03  0.19993085054E+03  0.47000000000E+01 0.  1.
         -5    1    1    2    0  502 -0.60250503581E+02 -0.11887491491E+02 -0.17835316909E+03  0.18868857560E+03  0.47000000000E+01 0.  1.
        -11    1    1    2    0    0  0.62752417882E+01 -0.46439677907E+02 -0.17218788867E+02  0.49925034137E+02  0.00000000000E+00 0.  1.
         11    1    1    2    0    0  0.84731414195E+00  0.18191914047E+02 -0.98298337133E+02  0.99971129638E+02  0.00000000000E+00 0. -1.
<mgrwt>
<rscale>  0 0.11921332E+03</rscale>
<asrwt>0</asrwt>
<pdfrwt beam="2">  1        1 0.78526531E-01 0.12835033E+03</pdfrwt>
<pdfrwt beam="1">  1       -1 0.43220144E-02 0.12835033E+03</pdfrwt>
<totfact> 0.91432560E+03</totfact>
</mgrwt>
</event>
<event>
 6    1  0.4705246E-006  0.1832624E+03  0.7546771E-02  0.1170181E+00
          2   -1    0    0  501    0  0.00000000000E+00  0.00000000000E+00  0.19773933320E+03  0.19773933320E+03  0.00000000000E+00 0. -1.
         -2   -1    0    0    0  501 -0.00000000000E+00 -0.00000000000E+00 -0.15207545952E+03  0.15207545952E+03  0.00000000000E+00 0.  1.
          5    1    1    2  502    0 -0.37204098877E+02  0.10223664598E+03  0.14463772425E+02  0.10985339078E+03  0.47000000000E+01 0.  1.
         -5    1    1    2    0  502  0.67056853229E+02  0.28412558373E+02  0.28727010253E+02  0.78429753005E+02  0.47000000000E+01 0.  1.
        -11    1    1    2    0    0 -0.19336364932E+02 -0.33536915596E+02  0.41127966679E+02  0.56481230153E+02  0.00000000000E+00 0. -1.
         11    1    1    2    0    0 -0.10516389420E+02 -0.97112288752E+02 -0.38654875678E+02  0.10505041878E+03  0.00000000000E+00 0.  1.
<mgrwt>
<rscale>  0 0.17756471E+03</rscale>
<asrwt>0</asrwt>
<pdfrwt beam="1">  1        2 0.30421436E-01 0.18326238E+03</pdfrwt>
<pdfrwt beam="2">  1       -2 0.23396225E-01 0.18326238E+03</pdfrwt>
<totfact> 0.27082418E+03</totfact>
</mgrwt>
</event>
<event>
 6    1  0.4705246E-006  0.3838594E+03  0.7546771E-02  0.1049516E+00
         -3   -1    0    0    0  501 -0.00000000000E+00  0.00000000000E+00  0.70009462257E+02  0.70009462257E+02  0.00000000000E+00 0.  1.
          3   -1    0    0  501    0  0.00000000000E+00 -0.00000000000E+00 -0.52617197647E+03  0.52617197647E+03  0.00000000000E+00 0. -1.
          5    1    1    2  502    0  0.16721508176E+03  0.48540665908E+01 -0.22116093430E+03  0.27734219728E+03  0.47000000000E+01 0. -1.
         -5    1    1    2    0  502 -0.94151660190E+01  0.20306161422E+01  0.98753882736E+01  0.14573333409E+02  0.47000000000E+01 0. -1.
        -11    1    1    2    0    0 -0.87595087681E+02  0.31738412818E+02 -0.88230550911E+02  0.12831545639E+03  0.00000000000E+00 0.  1.
         11    1    1    2    0    0 -0.70204828056E+02 -0.38623095551E+02 -0.15664641727E+03  0.17595045165E+03  0.00000000000E+00 0. -1.
<mgrwt>
<rscale>  0 0.38385944E+03</rscale>
<asrwt>0</asrwt>
<pdfrwt beam="2">  1        3 0.80949536E-01 0.38385944E+03</pdfrwt>
<pdfrwt beam="1">  1       -3 0.10770686E-01 0.38385944E+03</pdfrwt>
<totfact> 0.24606788E+02</totfact>
</mgrwt>
</event>
<event>
 6    1  0.4705246E-006  0.2690626E+03  0.7546771E-02  0.1103959E+00
          2   -1    0    0  501    0  0.00000000000E+00  0.00000000000E+00  0.70645657255E+03  0.70645657255E+03  0.00000000000E+00 0. -1.
         -2   -1    0    0    0  501 -0.00000000000E+00 -0.00000000000E+00 -0.12364825950E+03  0.12364825950E+03  0.00000000000E+00 0.  1.
          5    1    1    2  502    0 -0.89959653053E+01  0.48739053848E+02  0.22663243118E+02  0.54700414536E+02  0.47000000000E+01 0.  1.
         -5    1    1    2    0  502  0.27302579342E+01  0.18943885406E+03  0.46753784178E+03  0.50448811406E+03  0.47000000000E+01 0.  1.
        -11    1    1    2    0    0  0.13679053267E+02 -0.21494646641E+03  0.10913938589E+03  0.24145497607E+03  0.00000000000E+00 0. -1.
         11    1    1    2    0    0 -0.74133458956E+01 -0.23231441507E+02 -0.16532157722E+02  0.29461327377E+02  0.00000000000E+00 0.  1.
<mgrwt>
<rscale>  0 0.26537090E+03</rscale>
<asrwt>0</asrwt>
<pdfrwt beam="1">  1        2 0.10868562E+00 0.26906264E+03</pdfrwt>
<pdfrwt beam="2">  1       -2 0.19022810E-01 0.26906264E+03</pdfrwt>
<totfact> 0.95231726E+02</totfact>
</mgrwt>
</event>
<event>
 6    1  0.4705246E-006  0.1339143E+03  0.7546771E-02  0.1234543E+00
         -1   -1    0    0    0  501 -0.00000000000E+00  0.00000000000E+00  0.10163305517E+03  0.10163305517E+03  0.00000000000E+00 0.  1.
          1   -1    0    0  501    0  0.00000000000E+00 -0.00000000000E+00 -0.18623877662E+03  0.18623877662E+03  0.00000000000E+00 0. -1.
          5    1    1    2  502    0 -0.45007771494E+02  0.48487509271E+02 -0.12052701547E+03  0.13757030751E+03  0.47000000000E+01 0.  1.
         -5    1    1    2    0  502 -0.25226040926E+01 -0.41460460619E+02  0.11650670508E+01  0.41818425453E+02  0.47000000000E+01 0.  1.
        -11    1    1    2    0    0  0.13195768817E+02  0.35223201241E+02 -0.89543739082E+01  0.38665010442E+02  0.00000000000E+00 0. -1.
         11    1    1    2    0    0  0.34334606769E+02 -0.42250249893E+02  0.43710600871E+02  0.69818088390E+02  0.00000000000E+00 0.  1.
<mgrwt>
<rscale>  0 0.12533757E+03</rscale>
<asrwt>0</asrwt>
<pdfrwt beam="2">  1        1 0.28652120E-01 0.13391431E+03</pdfrwt>
<pdfrwt beam="1">  1       -1 0.15635855E-01 0.13391431E+03</pdfrwt>
<totfact> 0.46225255E+03</totfact>
</mgrwt>
</event>
<event>
 6    1  0.4705246E-006  0.1782131E+03  0.7546771E-02  0.1175222E+00
         -2   -1    0    0    0  501 -0.00000000000E+00  0.00000000000E+00  0.93551337269E+02  0.93551337269E+02  0.00000000000E+00 0.  1.
          2   -1    0    0  501    0  0.00000000000E+00 -0.00000000000E+00 -0.30662219823E+03  0.30662219823E+03  0.00000000000E+00 0. -1.
          5    1    1    2  502    0 -0.23545533120E+01 -0.34922753753E+02 -0.13001614943E+02  0.37633424534E+02  0.47000000000E+01 0. -1.
         -5    1    1    2    0  502  0.12744300923E+03  0.57021839452E+02 -0.13058302561E+03  0.19122559283E+03  0.47000000000E+01 0. -1.
        -11    1    1    2    0    0 -0.94788878300E+02 -0.25618303489E+02 -0.30805135183E+01  0.98238070454E+02  0.00000000000E+00 0.  1.
         11    1    1    2    0    0 -0.30299577620E+02  0.35192177904E+01 -0.66405706889E+02  0.73076447678E+02  0.00000000000E+00 0. -1.
<mgrwt>
<rscale>  0 0.17254225E+03</rscale>
<asrwt>0</asrwt>
<pdfrwt beam="2">  1        2 0.47172646E-01 0.17821308E+03</pdfrwt>
<pdfrwt beam="1">  1       -2 0.14392513E-01 0.17821308E+03</pdfrwt>
<totfact> 0.38253033E+03</totfact>
</mgrwt>
</event>
<event>
 6    1  0.4705246E-006  0.1321675E+03  0.7546771E-02  0.1237021E+00
          4   -1    0    0  501    0  0.00000000000E+00  0.00000000000E+00  0.61061138626E+02  0.61061138626E+02  0.00000000000E+00 0. -1.
         -4   -1    0    0    0  501 -0.00000000000E+00 -0.00000000000E+00 -0.29562127604E+03  0.29562127604E+03  0.00000000000E+00 0.  1.
          5    1    1    2  502    0  0.57091266044E+02  0.23973951844E+01  0.29758054102E+02  0.64597151223E+02  0.47000000000E+01 0.  1.
         -5    1    1    2    0  502 -0.15119995076E+02 -0.11626870820E+02 -0.71282760921E+02  0.73939978230E+02  0.47000000000E+01 0.  1.
        -11    1    1    2    0    0 -0.49940140250E+02 -0.17955476139E+02 -0.17866448610E+03  0.18637976104E+03  0.00000000000E+00 0.  1.
         11    1    1    2    0    0  0.79688692822E+01  0.27184951775E+02 -0.14370944503E+02  0.31765524181E+02  0.00000000000E+00 0. -1.
<mgrwt>
<rscale>  0 0.12375934E+03</rscale>
<asrwt>0</asrwt>
<pdfrwt beam="1">  1        4 0.93940213E-02 0.13216745E+03</pdfrwt>
<pdfrwt beam="2">  1       -4 0.45480197E-01 0.13216745E+03</pdfrwt>
<totfact> 0.65373449E+02</totfact>
</mgrwt>
</event>
<event>
 6    1  0.4705246E-006  0.2475603E+03  0.7546771E-02  0.1117394E+00
          1   -1    0    0  501    0  0.00000000000E+00  0.00000000000E+00  0.17031096612E+04  0.17031096612E+04  0.00000000000E+00 0. -1.
         -1   -1    0    0    0  501 -0.00000000000E+00 -0.00000000000E+00 -0.38080405295E+02  0.38080405295E+02  0.00000000000E+00 0.  1.
          5    1    1    2  502    0 -0.12773152806E+03  0.13512635548E+03  0.10740461086E+04  0.10900328475E+04  0.47000000000E+01 0.  1.
         -5    1    1    2    0  502  0.52744275264E+01  0.39993451439E+02  0.74104512132E+02  0.84503635792E+02  0.47000000000E+01 0.  1.
        -11    1    1    2    0    0  0.84901961541E+02 -0.14361496865E+03  0.29022709268E+03  0.33476165793E+03  0.00000000000E+00 0.  1.
         11    1    1    2    0    0  0.37555138989E+02 -0.31504838268E+02  0.22665154251E+03  0.23189192530E+03  0.00000000000E+00 0. -1.
<mgrwt>
<rscale>  0 0.24363649E+03</rscale>
<asrwt>0</asrwt>
<pdfrwt beam="1">  1        1 0.26201681E+00 0.24756030E+03</pdfrwt>
<pdfrwt beam="2">  1       -1 0.58585252E-02 0.24756030E+03</pdfrwt>
<totfact> 0.73099300E+02</totfact>
</mgrwt>
</event>
<event>
 6    1  0.4705246E-006  0.1675597E+03  0.7546771E-02  0.1185949E+00
          1   -1    0    0  501    0  0.00000000000E+00  0.00000000000E+00  0.39941485807E+03  0.39941485807E+03  0.00000000000E+00 0. -1.
         -1   -1    0    0    0  501 -0.00000000000E+00 -0.00000000000E+00 -0.77396319743E+02  0.77396319743E+02  0.00000000000E+00 0.  1.
          5    1    1    2  502    0  0.37808125089E+02 -0.37005964034E+02  0.35079625876E+02  0.63651911585E+02  0.47000000000E+01 0. -1.
         -5    1    1    2    0  502  0.70053796668E+02  0.65620433392E+02  0.23888469792E+03  0.25749090199E+03  0.47000000000E+01 0. -1.
        -11    1    1    2    0    0 -0.93984810304E+02  0.15116001897E+02  0.93625986358E+01  0.95651954159E+02  0.00000000000E+00 0. -1.
         11    1    1    2    0    0 -0.13877111453E+02 -0.43730471254E+02  0.38691615892E+02  0.60016410079E+02  0.00000000000E+00 0.  1.
<mgrwt>
<rscale>  0 0.16245787E+03</rscale>
<asrwt>0</asrwt>
<pdfrwt beam="1">  1        1 0.61448438E-01 0.16755971E+03</pdfrwt>
<pdfrwt beam="2">  1       -1 0.11907126E-01 0.16755971E+03</pdfrwt>
<totfact> 0.27623055E+03</totfact>
</mgrwt>
</event>
<event>
 6    1  0.4705246E-006  0.1322453E+03  0.7546771E-02  0.1237659E+00
          2   -1    0    0  501    0  0.00000000000E+00  0.00000000000E+00  0.17826318498E+04  0.17826318498E+04  0.00000000000E+00 0. -1.
         -2   -1    0    0    0  501 -0.00000000000E+00 -0.00000000000E+00 -0.86488789907E+01  0.86488789907E+01  0.00000000000E+00 0.  1.
          5    1    1    2  502    0 -0.22967846444E+02  0.53473893909E+02  0.89555216559E+03  0.89745348102E+03  0.47000000000E+01 0.  1.
         -5    1    1    2    0  502  0.56770125343E+02 -0.26618648096E+02  0.41216060252E+03  0.41692907290E+03  0.47000000000E+01 0.  1.
        -11    1    1    2    0    0 -0.61371930196E+02 -0.39134583637E+01  0.34488978786E+03  0.35032955162E+03  0.00000000000E+00 0.  1.
         11    1    1    2    0    0  0.27569651298E+02 -0.22941787450E+02  0.12138041482E+03  0.12656862323E+03  0.00000000000E+00 0. -1.
<mgrwt>
<rscale>  0 0.12335737E+03</rscale>
<asrwt>0</asrwt>
<pdfrwt beam="1">  1        2 0.27425076E+00 0.13224528E+03</pdfrwt>
<pdfrwt beam="2">  1       -2 0.13305982E-02 0.13224528E+03</pdfrwt>
<totfact> 0.13235811E+04</totfact>
</mgrwt>
</event>
<event>
 6    1  0.4705246E-006  0.3159216E+03  0.7546771E-02  0.1077542E+00
          2   -1    0    0  501    0  0.00000000000E+00  0.00000000000E+00  0.46838894448E+03  0.46838894448E+03  0.00000000000E+00 0. -1.
         -2   -1    0    0    0  501 -0.00000000000E+00 -0.00000000000E+00 -0.53271138563E+02  0.53271138563E+02  0.00000000000E+00 0.  1.
          5    1    1    2  502    0  0.87790076440E+01  0.65055471263E+01  0.31766055415E+03  0.31788317159E+03  0.47000000000E+01 0. -1.
         -5    1    1    2    0  502  0.56064395948E+02  0.19613918822E+02  0.53975802537E+02  0.80395270782E+02  0.47000000000E+01 0. -1.
        -11    1    1    2    0    0 -0.50891334959E+02 -0.13432194930E+02  0.72002911522E+02  0.89189523500E+02  0.00000000000E+00 0. -1.
         11    1    1    2    0    0 -0.13952068633E+02 -0.12687271019E+02 -0.28521462293E+02  0.34192117167E+02  0.00000000000E+00 0.  1.
<mgrwt>
<rscale>  0 0.31592159E+03</rscale>
<asrwt>0</asrwt>
<pdfrwt beam="1">  1        2 0.72059835E-01 0.31592159E+03</pdfrwt>
<pdfrwt beam="2">  1       -2 0.81955601E-02 0.31592159E+03</pdfrwt>
<totfact> 0.61013334E+03</totfact>
</mgrwt>
</event>
<event>
 6    1  0.4705246E-006  0.3594507E+03  0.7546771E-02  0.1058802E+00
         -1   -1    0    0    0  501 -0.00000000000E+00  0.00000000000E+00  0.15644094303E+02  0.15644094303E+02  0.00000000000E+00 0.  1.
          1   -1    0    0  501    0  0.00000000000E+00 -0.00000000000E+00 -0.20647531976E+04  0.20647531976E+04  0.00000000000E+00 0. -1.
          5    1    1    2  502    0 -0.96316830835E+02  0.58812260390E+01 -0.15102844202E+04  0.15133712832E+04  0.47000000000E+01 0. -1.
         -5    1    1    2    0  502  0.17135602817E+02  0.33240457750E+01 -0.40002083264E+02  0.43896865830E+02  0.47000000000E+01 0.  1.
        -11    1    1    2    0    0  0.44097668419E+02  0.60249328344E+02 -0.17840050894E+03  0.19339422824E+03  0.00000000000E+00 0. -1.
         11    1    1    2    0    0  0.35083559600E+02 -0.69454600158E+02 -0.32042209080E+03  0.32973491461E+03  0.00000000000E+00 0.  1.
<mgrwt>
<rscale>  0 0.35945066E+03</rscale>
<asrwt>0</asrwt>
<pdfrwt beam="2">  1        1 0.31765427E+00 0.35945066E+03</pdfrwt>
<pdfrwt beam="1">  1       -1 0.24067842E-02 0.35945066E+03</pdfrwt>
<totfact> 0.15907324E+03</totfact>
</mgrwt>
</event>
<event>
 6    1  0.4705246E-006  0.1390835E+03  0.7546771E-02  0.1229666E+00
          1   -1    0    0  501    0  0.00000000000E+00  0.00000000000E+00  0.81209068173E+02  0.81209068173E+02  0.00000000000E+00 0. -1.
         -1   -1    0    0    0  501 -0.00000000000E+00 -0.00000000000E+00 -0.21630879822E+03  0.21630879822E+03  0.00000000000E+00 0.  1.
          5    1    1    2  502    0 -0.18364597931E+02 -0.81044335573E+02  0.30755283041E+02  0.88732295251E+02  0.47000000000E+01 0.  1.
         -5    1    1    2    0  502  0.11732105166E+02  0.20427122757E+02 -0.45088422384E+02  0.51087821140E+02  0.47000000000E+01 0.  1.
        -11    1    1    2    0    0 -0.16259609040E+02  0.70997393099E+02 -0.10578948636E+03  0.12843839044E+03  0.00000000000E+00 0.  1.
         11    1    1    2    0    0  0.22892101805E+02 -0.10380180283E+02 -0.14977104340E+02  0.29259359565E+02  0.00000000000E+00 0. -1.
<mgrwt>
<rscale>  0 0.12852188E+03</rscale>
<asrwt>0</asrwt>
<pdfrwt beam="1">  1        1 0.12493703E-01 0.13908352E+03</pdfrwt>
<pdfrwt beam="2">  1       -1 0.33278276E-01 0.13908352E+03</pdfrwt>
<totfact> 0.39000664E+03</totfact>
</mgrwt>
</event>
<event>
 6    1  0.4705246E-006  0.1201837E+03  0.7546771E-02  0.1252706E+00
         -2   -1    0    0    0  501 -0.00000000000E+00  0.00000000000E+00  0.16997991001E+02  0.16997991001E+02  0.00000000000E+00 0.  1.
          2   -1    0    0  501    0  0.00000000000E+00 -0.00000000000E+00 -0.79346749950E+03  0.79346749950E+03  0.00000000000E+00 0. -1.
          5    1    1    2  502    0 -0.38832535848E+02 -0.52529828136E+02 -0.52242880946E+03  0.52651809051E+03  0.47000000000E+01 0. -1.
         -5    1    1    2    0  502  0.13480712881E+02  0.22235020157E+02 -0.35765021256E+02  0.44467431752E+02  0.47000000000E+01 0.  1.
        -11    1    1    2    0    0  0.12917812923E+02  0.52978842938E+02 -0.68837174749E+02  0.87819043022E+02  0.00000000000E+00 0.  1.
         11    1    1    2    0    0  0.12434010044E+02 -0.22684034959E+02 -0.14943850304E+03  0.15166092522E+03  0.00000000000E+00 0. -1.
<mgrwt>
<rscale>  0 0.11435793E+03</rscale>
<asrwt>0</asrwt>
<pdfrwt beam="2">  1        2 0.12207189E+00 0.12018367E+03</pdfrwt>
<pdfrwt beam="1">  1       -2 0.26150762E-02 0.12018367E+03</pdfrwt>
<totfact> 0.17546164E+04</totfact>
</mgrwt>
</event>
<event>
 6    1  0.4705246E-006  0.1273724E+03  0.7546771E-02  0.1245332E+00
         -2   -1    0    0    0  501 -0.00000000000E+00  0.00000000000E+00  0.12993496592E+03  0.12993496592E+03  0.00000000000E+00 0. -1.
          2   -1    0    0  501    0  0.00000000000E+00 -0.00000000000E+00 -0.10418218061E+03  0.10418218061E+03  0.00000000000E+00 0.  1.
          5    1    1    2  502    0  0.28033886788E+01 -0.49847962907E+02  0.68967523513E+01  0.50619498092E+02  0.47000000000E+01 0. -1.
         -5    1    1    2    0  502 -0.10738261874E+02  0.72987496307E+02 -0.24984379557E+02  0.78030725404E+02  0.47000000000E+01 0. -1.
        -11    1    1    2    0    0  0.45884514582E+02 -0.55400495789E+00  0.40456708580E+02  0.61175492389E+02  0.00000000000E+00 0.  1.
         11    1    1    2    0    0 -0.37949641387E+02 -0.22585528442E+02  0.33837039342E+01  0.44291430646E+02  0.00000000000E+00 0. -1.
<mgrwt>
<rscale>  0 0.11865539E+03</rscale>
<asrwt>0</asrwt>
<pdfrwt beam="2">  1        2 0.16028028E-01 0.12737236E+03</pdfrwt>
<pdfrwt beam="1">  1       -2 0.19989995E-01 0.12737236E+03</pdfrwt>
<totfact> 0.71324114E+03</totfact>
</mgrwt>
</event>
<event>
 6    1  0.4705246E-006  0.1960860E+03  0.7546771E-02  0.1158112E+00
          1   -1    0    0  501    0  0.00000000000E+00  0.00000000000E+00  0.75110583524E+03  0.75110583524E+03  0.00000000000E+00 0. -1.
         -1   -1    0    0    0  501 -0.00000000000E+00 -0.00000000000E+00 -0.46137047090E+02  0.46137047090E+02  0.00000000000E+00 0.  1.
          5    1    1    2  502    0  0.33444818863E+02  0.91536223605E+02  0.22329971037E+03  0.24368481034E+03  0.47000000000E+01 0.  1.
         -5    1    1    2    0  502  0.96724692623E+02 -0.14955829785E+02  0.19050218482E+03  0.21422538465E+03  0.47000000000E+01 0.  1.
        -11    1    1    2    0    0 -0.11201379441E+03 -0.92584620475E+02  0.21576230213E+03  0.26013914182E+03  0.00000000000E+00 0.  1.
         11    1    1    2    0    0 -0.18155717079E+02  0.16004226655E+02  0.75404590828E+02  0.79193545517E+02  0.00000000000E+00 0. -1.
<mgrwt>
<rscale>  0 0.19038729E+03</rscale>
<asrwt>0</asrwt>
<pdfrwt beam="1">  1        1 0.11555473E+00 0.19608605E+03</pdfrwt>
<pdfrwt beam="2">  1       -1 0.70980078E-02 0.19608605E+03</pdfrwt>
<totfact> 0.26033696E+03</totfact>
</mgrwt>
</event>
<event>
 6    1  0.4705246E-006  0.1443117E+03  0.7546771E-02  0.1216298E+00
         -2   -1    0    0    0  501 -0.00000000000E+00  0.00000000000E+00  0.36787267935E+02  0.36787267935E+02  0.00000000000E+00 0. -1.
          2   -1    0    0  501    0  0.00000000000E+00 -0.00000000000E+00 -0.53590416124E+03  0.53590416124E+03  0.00000000000E+00 0.  1.
          5    1    1    2  502    0  0.24715417195E+02 -0.17839378820E+02 -0.27993263394E+02  0.41651027350E+02  0.47000000000E+01 0.  1.
         -5    1    1    2    0  502 -0.41705303584E+02  0.87924944473E+02 -0.33814376041E+03  0.35189973133E+03  0.47000000000E+01 0.  1.
        -11    1    1    2    0    0 -0.18368827518E+02 -0.65912611010E+02 -0.12522827431E+03  0.14270251155E+03  0.00000000000E+00 0.  1.
         11    1    1    2    0    0  0.35358713907E+02 -0.41729546428E+01 -0.77515951919E+01  0.36438158949E+02  0.00000000000E+00 0. -1.
<mgrwt>
<rscale>  0 0.13781634E+03</rscale>
<asrwt>0</asrwt>
<pdfrwt beam="2">  1        2 0.82446793E-01 0.14431174E+03</pdfrwt>
<pdfrwt beam="1">  1       -2 0.56595798E-02 0.14431174E+03</pdfrwt>
<totfact> 0.89323969E+03</totfact>
</mgrwt>
</event>
<event>
 6    1  0.4705246E-006  0.4560381E+03  0.7546771E-02  0.1025937E+00
         -2   -1    0    0    0  501 -0.00000000000E+00  0.00000000000E+00  0.17507310249E+03  0.17507310249E+03  0.00000000000E+00 0.  1.
          2   -1    0    0  501    0  0.00000000000E+00 -0.00000000000E+00 -0.29697695021E+03  0.29697695021E+03  0.00000000000E+00 0. -1.
          5    1    1    2  502    0 -0.83354920487E+01  0.11220508341E+02  0.71286004301E+01  0.16379474327E+02  0.47000000000E+01 0.  1.
         -5    1    1    2    0  502  0.91950647754E+02 -0.18096558624E+03 -0.13729225507E+03  0.24510144498E+03  0.47000000000E+01 0.  1.
        -11    1    1    2    0    0 -0.56009874921E+02  0.13696559025E+03 -0.32415592977E+02  0.15148415650E+03  0.00000000000E+00 0. -1.
         11    1    1    2    0    0 -0.27605280785E+02  0.32779487652E+02  0.40675399896E+02  0.59084976894E+02  0.00000000000E+00 0.  1.
<mgrwt>
<rscale>  0 0.45603805E+03</rscale>
<asrwt>0</asrwt>
<pdfrwt beam="2">  1        2 0.45688761E-01 0.45603805E+03</pdfrwt>
<pdfrwt beam="1">  1       -2 0.26934324E-01 0.45603805E+03</pdfrwt>
<totfact> 0.13847115E+03</totfact>
</mgrwt>
</event>
<event>
 6    1  0.4705246E-006  0.2220945E+03  0.7546771E-02  0.1136659E+00
          2   -1    0    0  501    0  0.00000000000E+00  0.00000000000E+00  0.89335376468E+03  0.89335376468E+03  0.00000000000E+00 0. -1.
         -2   -1    0    0    0  501 -0.00000000000E+00 -0.00000000000E+00 -0.57621814488E+02  0.57621814488E+02  0.00000000000E+00 0.  1.
          5    1    1    2  502    0 -0.43979651320E+02 -0.16159062870E+03  0.42744197054E+03  0.45910180700E+03  0.47000000000E+01 0. -1.
         -5    1    1    2    0  502 -0.52316795409E+02  0.52926520964E+01  0.18412343359E+03  0.19154265333E+03  0.47000000000E+01 0. -1.
        -11    1    1    2    0    0  0.92257275703E+02  0.10122787163E+03  0.11851288217E+03  0.18111816627E+03  0.00000000000E+00 0.  1.
         11    1    1    2    0    0  0.40391710262E+01  0.55070104973E+02  0.10565366389E+03  0.11921295256E+03  0.00000000000E+00 0. -1.
<mgrwt>
<rscale>  0 0.21631689E+03</rscale>
<asrwt>0</asrwt>
<pdfrwt beam="1">  1        2 0.13743903E+00 0.22209451E+03</pdfrwt>
<pdfrwt beam="2">  1       -2 0.88648952E-02 0.22209451E+03</pdfrwt>
<totfact> 0.24567502E+03</totfact>
</mgrwt>
</event>
<event>
 6    1  0.4705246E-006  0.1604086E+03  0.7546771E-02  0.1195789E+00
         -1   -1    0    0    0  501 -0.00000000000E+00  0.00000000000E+00  0.79073077255E+02  0.79073077255E+02  0.00000000000E+00 0.  1.
          1   -1    0    0  501    0  0.00000000000E+00 -0.00000000000E+00 -0.27793439838E+03  0.27793439838E+03  0.00000000000E+00 0. -1.
          5    1    1    2  502    0 -0.11018301963E+03  0.34141851273E+02 -0.12606500643E+03  0.17093987150E+03  0.47000000000E+01 0.  1.
         -5    1    1    2    0  502  0.20577083335E+02  0.11431833949E+02  0.11066144479E+02  0.26432040021E+02  0.47000000000E+01 0.  1.
        -11    1    1    2    0    0  0.82544905600E+02 -0.21032369185E+02 -0.98481727750E+02  0.13021010980E+03  0.00000000000E+00 0. -1.
         11    1    1    2    0    0  0.70610306913E+01 -0.24541316037E+02  0.14619268583E+02  0.29425454306E+02  0.00000000000E+00 0.  1.
<mgrwt>
<rscale>  0 0.15387644E+03</rscale>
<asrwt>0</asrwt>
<pdfrwt beam="2">  1        1 0.42759139E-01 0.16040864E+03</pdfrwt>
<pdfrwt beam="1">  1       -1 0.12165089E-01 0.16040864E+03</pdfrwt>
<totfact> 0.42006919E+03</totfact>
</mgrwt>
</event>
<event>
 6    1  0.4705246E-006  0.1279014E+03  0.7546771E-02  0.1244288E+00
          1   -1    0    0  501    0  0.00000000000E+00  0.00000000000E+00  0.10802556402E+03  0.10802556402E+03  0.00000000000E+00 0.  1.
         -1   -1    0    0    0  501 -0.00000000000E+00 -0.00000000000E+00 -0.13318255161E+03  0.13318255161E+03  0.00000000000E+00 0. -1.
          5    1    1    2  502    0  0.48231505211E+02 -0.24027115213E+02  0.37027544257E+02  0.65549289807E+02  0.47000000000E+01 0.  1.
         -5    1    1    2    0  502 -0.40725000150E+02  0.50049000879E+02 -0.91940074478E+01  0.65345603519E+02  0.47000000000E+01 0.  1.
        -11    1    1    2    0    0  0.86325140905E+01 -0.40151295001E+02 -0.71187286758E+02  0.82184405977E+02  0.00000000000E+00 0. -1.
         11    1    1    2    0    0 -0.16139019151E+02  0.14129409335E+02  0.18196762361E+02  0.28128816323E+02  0.00000000000E+00 0.  1.
<mgrwt>
<rscale>  0 0.11928115E+03</rscale>
<asrwt>0</asrwt>
<pdfrwt beam="1">  1        1 0.16619318E-01 0.12790140E+03</pdfrwt>
<pdfrwt beam="2">  1       -1 0.20489623E-01 0.12790140E+03</pdfrwt>
<totfact> 0.59707045E+03</totfact>
</mgrwt>
</event>
<event>
 6    1  0.4705246E-006  0.1408817E+03  0.7546771E-02  0.1223235E+00
          4   -1    0    0  501    0  0.00000000000E+00  0.00000000000E+00  0.14438219385E+03  0.14438219385E+03  0.00000000000E+00 0.  1.
         -4   -1    0    0    0  501 -0.00000000000E+00 -0.00000000000E+00 -0.11581897150E+03  0.11581897150E+03  0.00000000000E+00 0. -1.
          5    1    1    2  502    0  0.18709580222E+02 -0.51913802534E+02  0.69472570012E+02  0.88846042510E+02  0.47000000000E+01 0.  1.
         -5    1    1    2    0  502  0.42799870029E+02  0.30874584237E+02 -0.25416459861E+02  0.58763553825E+02  0.47000000000E+01 0.  1.
        -11    1    1    2    0    0 -0.18013137647E+02 -0.69600399757E+01  0.35209831365E+02  0.40157782672E+02  0.00000000000E+00 0.  1.
         11    1    1    2    0    0 -0.43496312604E+02  0.27999258274E+02 -0.50702719164E+02  0.72433786348E+02  0.00000000000E+00 0. -1.
<mgrwt>
<rscale>  0 0.13288613E+03</rscale>
<asrwt>0</asrwt>
<pdfrwt beam="1">  1        4 0.22212645E-01 0.14088170E+03</pdfrwt>
<pdfrwt beam="2">  1       -4 0.17818303E-01 0.14088170E+03</pdfrwt>
<totfact> 0.86185287E+02</totfact>
</mgrwt>
</event>
<event>
 6    1  0.4705246E-006  0.1315090E+03  0.7546771E-02  0.1237627E+00
         -1   -1    0    0    0  501 -0.00000000000E+00  0.00000000000E+00  0.25467886028E+02  0.25467886028E+02  0.00000000000E+00 0.  1.
          1   -1    0    0  501    0  0.00000000000E+00 -0.00000000000E+00 -0.54426251118E+03  0.54426251118E+03  0.00000000000E+00 0. -1.
          5    1    1    2  502    0 -0.65925908255E+02 -0.16233474722E+02 -0.13797751480E+03  0.15384939282E+03  0.47000000000E+01 0. -1.
         -5    1    1    2    0  502  0.40638134866E+02  0.48337158504E+02 -0.11628505229E+03  0.13240937385E+03  0.47000000000E+01 0. -1.
        -11    1    1    2    0    0  0.26747116640E+02 -0.52768766955E+02 -0.25286974102E+03  0.25969801104E+03  0.00000000000E+00 0. -1.
         11    1    1    2    0    0 -0.14593432523E+01  0.20665083173E+02 -0.11662317045E+02  0.23773619500E+02  0.00000000000E+00 0.  1.
<mgrwt>
<rscale>  0 0.12337749E+03</rscale>
<asrwt>0</asrwt>
<pdfrwt beam="2">  1        1 0.83732696E-01 0.13150904E+03</pdfrwt>
<pdfrwt beam="1">  1       -1 0.39181362E-02 0.13150904E+03</pdfrwt>
<totfact> 0.97203428E+03</totfact>
</mgrwt>
</event>
<event>
 6    1  0.4705246E-006  0.4832552E+03  0.7546771E-02  0.1018244E+00
          2   -1    0    0  501    0  0.00000000000E+00  0.00000000000E+00  0.61638683407E+03  0.61638683407E+03  0.00000000000E+00 0. -1.
         -2   -1    0    0    0  501 -0.00000000000E+00 -0.00000000000E+00 -0.94719581180E+02  0.94719581180E+02  0.00000000000E+00 0.  1.
          5    1    1    2  502    0 -0.21931734407E+03 -0.71242264188E+01  0.35962355159E+03  0.42130991072E+03  0.47000000000E+01 0.  1.
         -5    1    1    2    0  502  0.16458758847E+02  0.41647935389E+01  0.17773339378E+02  0.25024344960E+02  0.47000000000E+01 0.  1.
        -11    1    1    2    0    0  0.50564229713E+02 -0.10283640834E+02  0.87735213823E+02  0.10178390020E+03  0.00000000000E+00 0. -1.
         11    1    1    2    0    0  0.15229435551E+03  0.13243073714E+02  0.56535148099E+02  0.16298825937E+03  0.00000000000E+00 0.  1.
<mgrwt>
<rscale>  0 0.48325522E+03</rscale>
<asrwt>0</asrwt>
<pdfrwt beam="1">  1        2 0.94828741E-01 0.48325522E+03</pdfrwt>
<pdfrwt beam="2">  1       -2 0.14572244E-01 0.48325522E+03</pdfrwt>
<totfact> 0.17637467E+03</totfact>
</mgrwt>
</event>
<event>
 6    1  0.4705246E-006  0.1421458E+03  0.7546771E-02  0.1229880E+00
         -1   -1    0    0    0  501 -0.00000000000E+00  0.00000000000E+00  0.40976859336E+02  0.40976859336E+02  0.00000000000E+00 0.  1.
          1   -1    0    0  501    0  0.00000000000E+00 -0.00000000000E+00 -0.37882186003E+03  0.37882186003E+03  0.00000000000E+00 0. -1.
          5    1    1    2  502    0  0.19432525434E+02 -0.70274535688E+02 -0.67390816311E+02  0.99396909077E+02  0.47000000000E+01 0.  1.
         -5    1    1    2    0  502 -0.38398893559E+02  0.53029104557E+01 -0.19650561839E+03  0.20034755787E+03  0.47000000000E+01 0.  1.
        -11    1    1    2    0    0  0.20872068320E+02  0.53552031738E+02 -0.14212916821E+02  0.59207012623E+02  0.00000000000E+00 0.  1.
         11    1    1    2    0    0 -0.19057001962E+01  0.11419593495E+02 -0.59735649169E+02  0.60847239794E+02  0.00000000000E+00 0. -1.
<mgrwt>
<rscale>  0 0.12837952E+03</rscale>
<asrwt>0</asrwt>
<pdfrwt beam="2">  1        1 0.58280284E-01 0.14214576E+03</pdfrwt>
<pdfrwt beam="1">  1       -1 0.63041324E-02 0.14214576E+03</pdfrwt>
<totfact> 0.77021173E+03</totfact>
</mgrwt>
</event>
<event>
 6    1  0.4705246E-006  0.1264202E+03  0.7546771E-02  0.1249114E+00
         -2   -1    0    0    0  501 -0.00000000000E+00  0.00000000000E+00  0.24580397791E+02  0.24580397791E+02  0.00000000000E+00 0.  1.
          2   -1    0    0  501    0  0.00000000000E+00 -0.00000000000E+00 -0.48050378410E+03  0.48050378410E+03  0.00000000000E+00 0. -1.
          5    1    1    2  502    0  0.15534371848E+02  0.65257137739E+02 -0.16583983638E+03  0.17895460896E+03  0.47000000000E+01 0. -1.
         -5    1    1    2    0  502  0.15915111676E+01 -0.57294927110E+02 -0.98486081481E+02  0.11404753319E+03  0.47000000000E+01 0. -1.
        -11    1    1    2    0    0 -0.52457972991E+02  0.43251338388E+01 -0.97081401407E+02  0.11043253240E+03  0.00000000000E+00 0.  1.
         11    1    1    2    0    0  0.35332089976E+02 -0.12287344468E+02 -0.94516067035E+02  0.10164950735E+03  0.00000000000E+00 0. -1.
<mgrwt>
<rscale>  0 0.11642474E+03</rscale>
<asrwt>0</asrwt>
<pdfrwt beam="2">  1        2 0.73923657E-01 0.12642019E+03</pdfrwt>
<pdfrwt beam="1">  1       -2 0.37815998E-02 0.12642019E+03</pdfrwt>
<totfact> 0.18229944E+04</totfact>
</mgrwt>
</event>
<event>
 6    1  0.4705246E-006  0.3111568E+03  0.7546771E-02  0.1079793E+00
          3   -1    0    0  501    0  0.00000000000E+00  0.00000000000E+00  0.27126706078E+03  0.27126706078E+03  0.00000000000E+00 0. -1.
         -3   -1    0    0    0  501 -0.00000000000E+00 -0.00000000000E+00 -0.89228053500E+02  0.89228053500E+02  0.00000000000E+00 0.  1.
          5    1    1    2  502    0  0.83440415247E+02  0.20903024945E+02  0.14171342404E+03  0.16584337159E+03  0.47000000000E+01 0.  1.
         -5    1    1    2    0  502  0.17286470022E+02  0.24127271588E+02 -0.23827134026E+02  0.38350614024E+02  0.47000000000E+01 0.  1.
        -11    1    1    2    0    0 -0.65932830127E+02  0.18683246493E+02  0.20228772070E+02  0.71452116886E+02  0.00000000000E+00 0.  1.
         11    1    1    2    0    0 -0.34794055142E+02 -0.63713543026E+02  0.43923945199E+02  0.84849011780E+02  0.00000000000E+00 0. -1.
<mgrwt>
<rscale>  0 0.31115676E+03</rscale>
<asrwt>0</asrwt>
<pdfrwt beam="1">  1        3 0.41733393E-01 0.31115676E+03</pdfrwt>
<pdfrwt beam="2">  1       -3 0.13727393E-01 0.31115676E+03</pdfrwt>
<totfact> 0.63537523E+02</totfact>
</mgrwt>
</event>
<event>
 6    1  0.4705246E-006  0.1348506E+03  0.7546771E-02  0.1232626E+00
         -2   -1    0    0    0  501 -0.00000000000E+00  0.00000000000E+00  0.55458509790E+02  0.55458509790E+02  0.00000000000E+00 0.  1.
          2   -1    0    0  501    0  0.00000000000E+00 -0.00000000000E+00 -0.26851764370E+03  0.26851764370E+03  0.00000000000E+00 0. -1.
          5    1    1    2  502    0  0.36506823084E+02 -0.66025928290E+02 -0.53182951682E+02  0.92426661131E+02  0.47000000000E+01 0. -1.
         -5    1    1    2    0  502 -0.47542454247E+02  0.16630288092E+02 -0.97110922493E+02  0.10949645065E+03  0.47000000000E+01 0. -1.
        -11    1    1    2    0    0  0.43929611343E+02  0.36600242644E+02 -0.65143606043E+02  0.86678012914E+02  0.00000000000E+00 0. -1.
         11    1    1    2    0    0 -0.32893980180E+02  0.12795397553E+02  0.23783463121E+01  0.35375028789E+02  0.00000000000E+00 0.  1.
<mgrwt>
<rscale>  0 0.12657663E+03</rscale>
<asrwt>0</asrwt>
<pdfrwt beam="2">  1        2 0.41310407E-01 0.13485064E+03</pdfrwt>
<pdfrwt beam="1">  1       -2 0.85320785E-02 0.13485064E+03</pdfrwt>
<totfact> 0.99573311E+03</totfact>
</mgrwt>
</event>
<event>
 6    1  0.4705246E-006  0.1688082E+03  0.7546771E-02  0.1198418E+00
          2   -1    0    0  501    0  0.00000000000E+00  0.00000000000E+00  0.67062766250E+02  0.67062766250E+02  0.00000000000E+00 0. -1.
         -2   -1    0    0    0  501 -0.00000000000E+00 -0.00000000000E+00 -0.36218790792E+03  0.36218790792E+03  0.00000000000E+00 0.  1.
          5    1    1    2  502    0 -0.10294209647E+03  0.47775932016E+01 -0.11965529401E+02  0.10385164667E+03  0.47000000000E+01 0. -1.
         -5    1    1    2    0  502  0.41616032882E+02 -0.24690544656E+02 -0.66306453532E+02  0.82220149405E+02  0.47000000000E+01 0.  1.
        -11    1    1    2    0    0  0.12238271948E+02  0.84867548588E+01  0.49713520428E+01  0.15700784995E+02  0.00000000000E+00 0. -1.
         11    1    1    2    0    0  0.49087791640E+02  0.11426196595E+02 -0.22182451078E+03  0.22747809310E+03  0.00000000000E+00 0.  1.
<mgrwt>
<rscale>  0 0.15168450E+03</rscale>
<asrwt>0</asrwt>
<pdfrwt beam="1">  1        2 0.10317349E-01 0.16880820E+03</pdfrwt>
<pdfrwt beam="2">  1       -2 0.55721217E-01 0.16880820E+03</pdfrwt>
<totfact> 0.18571211E+03</totfact>
</mgrwt>
</event>
<event>
 6    1  0.4705246E-006  0.2208363E+03  0.7546771E-02  0.1159920E+00
         -2   -1    0    0    0  501 -0.00000000000E+00  0.00000000000E+00  0.23693332130E+03  0.23693332130E+03  0.00000000000E+00 0.  1.
          2   -1    0    0  501    0  0.00000000000E+00 -0.00000000000E+00 -0.18093898750E+03  0.18093898750E+03  0.00000000000E+00 0. -1.
          5    1    1    2  502    0  0.27269785951E+02  0.47325282905E+02 -0.10413874602E+03  0.11768726376E+03  0.47000000000E+01 0. -1.
         -5    1    1    2    0  502  0.18471138477E+01 -0.11636023525E+03  0.20872636235E+02  0.11832528522E+03  0.47000000000E+01 0.  1.
        -11    1    1    2    0    0  0.42027375901E+01 -0.12512666648E+02 -0.39030279815E+01  0.13764572544E+02  0.00000000000E+00 0. -1.
         11    1    1    2    0    0 -0.33319637388E+02  0.81547618997E+02  0.14316347157E+03  0.16809518729E+03  0.00000000000E+00 0.  1.
<mgrwt>
<rscale>  0 0.18839165E+03</rscale>
<asrwt>0</asrwt>
<pdfrwt beam="2">  1        2 0.27836767E-01 0.22083632E+03</pdfrwt>
<pdfrwt beam="1">  1       -2 0.36451280E-01 0.22083632E+03</pdfrwt>
<totfact> 0.13486580E+03</totfact>
</mgrwt>
</event>
<event>
 6    1  0.4705246E-006  0.1441653E+03  0.7546771E-02  0.1218426E+00
         -1   -1    0    0    0  501 -0.00000000000E+00  0.00000000000E+00  0.21177094652E+03  0.21177094652E+03  0.00000000000E+00 0.  1.
          1   -1    0    0  501    0  0.00000000000E+00 -0.00000000000E+00 -0.85653273812E+02  0.85653273812E+02  0.00000000000E+00 0. -1.
          5    1    1    2  502    0 -0.42804028767E+02  0.66421586155E+02  0.31493890476E+02  0.85193703543E+02  0.47000000000E+01 0. -1.
         -5    1    1    2    0  502  0.61693139893E+02  0.27922147078E+01 -0.19590693114E+01  0.61965860967E+02  0.47000000000E+01 0. -1.
        -11    1    1    2    0    0 -0.33393131265E+02 -0.86385422382E+02  0.76556071347E+02  0.12015978727E+03  0.00000000000E+00 0. -1.
         11    1    1    2    0    0  0.14504020139E+02  0.17171621519E+02  0.20026780202E+02  0.30104868560E+02  0.00000000000E+00 0.  1.
<mgrwt>
<rscale>  0 0.13627856E+03</rscale>
<asrwt>0</asrwt>
<pdfrwt beam="2">  1        1 0.13177427E-01 0.14416529E+03</pdfrwt>
<pdfrwt beam="1">  1       -1 0.32580146E-01 0.14416529E+03</pdfrwt>
<totfact> 0.37787845E+03</totfact>
</mgrwt>
</event>
<event>
 6    1  0.4705246E-006  0.2119649E+03  0.7546771E-02  0.1143495E+00
          2   -1    0    0  501    0  0.00000000000E+00  0.00000000000E+00  0.38856859063E+03  0.38856859063E+03  0.00000000000E+00 0. -1.
         -2   -1    0    0    0  501 -0.00000000000E+00 -0.00000000000E+00 -0.11150409073E+03  0.11150409073E+03  0.00000000000E+00 0.  1.
          5    1    1    2  502    0 -0.16556765099E+03  0.31423162681E+02  0.21287917332E+03  0.27155053791E+03  0.47000000000E+01 0.  1.
         -5    1    1    2    0  502 -0.34538647848E+01 -0.42859894801E+01 -0.16114055115E+02  0.17664984008E+02  0.47000000000E+01 0.  1.
        -11    1    1    2    0    0  0.48038077338E+02 -0.52675360170E+02  0.31105872871E+02  0.77781268763E+02  0.00000000000E+00 0.  1.
         11    1    1    2    0    0  0.12098343844E+03  0.25538186969E+02  0.49193508830E+02  0.13307589068E+03  0.00000000000E+00 0. -1.
<mgrwt>
<rscale>  0 0.20758171E+03</rscale>
<asrwt>0</asrwt>
<pdfrwt beam="1">  1        2 0.59779783E-01 0.21196487E+03</pdfrwt>
<pdfrwt beam="2">  1       -2 0.17154476E-01 0.21196487E+03</pdfrwt>
<totfact> 0.22315049E+03</totfact>
</mgrwt>
</event>
<event>
 6    1  0.4705246E-006  0.1520996E+03  0.7546771E-02  0.1206723E+00
          1   -1    0    0  501    0  0.00000000000E+00  0.00000000000E+00  0.23466696122E+02  0.23466696122E+02  0.00000000000E+00 0. -1.
         -1   -1    0    0    0  501 -0.00000000000E+00 -0.00000000000E+00 -0.82363317441E+03  0.82363317441E+03  0.00000000000E+00 0.  1.
          5    1    1    2  502    0 -0.72920490737E+02  0.31082161495E+02 -0.41618550038E+03  0.42369323745E+03  0.47000000000E+01 0.  1.
         -5    1    1    2    0  502 -0.12846216569E+02 -0.18725824391E+02 -0.44713523987E+01  0.23617044089E+02  0.47000000000E+01 0.  1.
        -11    1    1    2    0    0  0.96858722201E+02 -0.27179834645E+02 -0.35556375249E+03  0.36952122748E+03  0.00000000000E+00 0.  1.
         11    1    1    2    0    0 -0.11092014896E+02  0.14823497541E+02 -0.23945873022E+02  0.30268361511E+02  0.00000000000E+00 0. -1.
<mgrwt>
<rscale>  0 0.14502490E+03</rscale>
<asrwt>0</asrwt>
<pdfrwt beam="1">  1        1 0.36102612E-02 0.15209964E+03</pdfrwt>
<pdfrwt beam="2">  1       -1 0.12671279E+00 0.15209964E+03</pdfrwt>
<totfact> 0.14918080E+03</totfact>
</mgrwt>
</event>
<event>
 6    1  0.4705246E-006  0.2389812E+03  0.7546771E-02  0.1123329E+00
         -2   -1    0    0    0  501 -0.00000000000E+00  0.00000000000E+00  0.25287460762E+02  0.25287460762E+02  0.00000000000E+00 0.  1.
          2   -1    0    0  501    0  0.00000000000E+00 -0.00000000000E+00 -0.21791565583E+04  0.21791565583E+04  0.00000000000E+00 0. -1.
          5    1    1    2  502    0 -0.17417452852E+03 -0.26594353969E+02 -0.10280435424E+04  0.10430434512E+04  0.47000000000E+01 0.  1.
         -5    1    1    2    0  502 -0.98765915568E+01 -0.60654124516E+02 -0.28773881042E+03  0.29426549730E+03  0.47000000000E+01 0.  1.
        -11    1    1    2    0    0  0.12412233974E+03  0.10220975822E+03 -0.60797836675E+03  0.62888065985E+03  0.00000000000E+00 0.  1.
         11    1    1    2    0    0  0.59928780330E+02 -0.14961279736E+02 -0.23010837790E+03  0.23825441062E+03  0.00000000000E+00 0. -1.
<mgrwt>
<rscale>  0 0.23476620E+03</rscale>
<asrwt>0</asrwt>
<pdfrwt beam="2">  1        2 0.33525488E+00 0.23898122E+03</pdfrwt>
<pdfrwt beam="1">  1       -2 0.38903783E-02 0.23898122E+03</pdfrwt>
<totfact> 0.17164134E+03</totfact>
</mgrwt>
</event>
<event>
 6    1  0.4705246E-006  0.1360633E+03  0.7546771E-02  0.1229661E+00
         -1   -1    0    0    0  501 -0.00000000000E+00  0.00000000000E+00  0.19358510581E+02  0.19358510581E+02  0.00000000000E+00 0.  1.
          1   -1    0    0  501    0  0.00000000000E+00 -0.00000000000E+00 -0.77146680849E+03  0.77146680849E+03  0.00000000000E+00 0. -1.
          5    1    1    2  502    0 -0.69037284956E+01  0.46022471963E+02 -0.12321310553E+03  0.13179259755E+03  0.47000000000E+01 0.  1.
         -5    1    1    2    0  502 -0.32825889850E+02 -0.82211923289E+02 -0.28987467715E+03  0.30312663662E+03  0.47000000000E+01 0.  1.
        -11    1    1    2    0    0 -0.16930742547E+02  0.34906246535E+02 -0.22777979145E+03  0.23106001273E+03  0.00000000000E+00 0. -1.
         11    1    1    2    0    0  0.56660360893E+02  0.12832047909E+01 -0.11124072377E+03  0.12484607217E+03  0.00000000000E+00 0.  1.
<mgrwt>
<rscale>  0 0.12852500E+03</rscale>
<asrwt>0</asrwt>
<pdfrwt beam="2">  1        1 0.11868723E+00 0.13606331E+03</pdfrwt>
<pdfrwt beam="1">  1       -1 0.29782318E-02 0.13606331E+03</pdfrwt>
<totfact> 0.89355008E+03</totfact>
</mgrwt>
</event>
<event>
 6    1  0.4705246E-006  0.1278127E+03  0.7546771E-02  0.1280405E+00
         -2   -1    0    0    0  501 -0.00000000000E+00  0.00000000000E+00  0.11007592898E+03  0.11007592898E+03  0.00000000000E+00 0.  1.
          2   -1    0    0  501    0  0.00000000000E+00 -0.00000000000E+00 -0.73013840474E+02  0.73013840474E+02  0.00000000000E+00 0. -1.
          5    1    1    2  502    0  0.14737848737E+02 -0.39694136570E+02 -0.47845366750E+02  0.64063232691E+02  0.47000000000E+01 0. -1.
         -5    1    1    2    0  502  0.21905404551E+02  0.16006730578E+02  0.57937203900E+02  0.64147266256E+02  0.47000000000E+01 0.  1.
        -11    1    1    2    0    0 -0.29108569088E+02  0.76884997941E+01  0.17313743888E+02  0.34730210925E+02  0.00000000000E+00 0. -1.
         11    1    1    2    0    0 -0.75346842005E+01  0.15998906198E+02  0.96565074642E+01  0.20149059579E+02  0.00000000000E+00 0.  1.
<mgrwt>
<rscale>  0 0.99948344E+02</rscale>
<asrwt>0</asrwt>
<pdfrwt beam="2">  1        2 0.11232899E-01 0.12781270E+03</pdfrwt>
<pdfrwt beam="1">  1       -2 0.16934758E-01 0.12781270E+03</pdfrwt>
<totfact> 0.14341371E+04</totfact>
</mgrwt>
</event>
<event>
 6    1  0.4705246E-006  0.1301489E+03  0.7546771E-02  0.1235334E+00
         -2   -1    0    0    0  501 -0.00000000000E+00  0.00000000000E+00  0.59180864447E+02  0.59180864447E+02  0.00000000000E+00 0.  1.
          2   -1    0    0  501    0  0.00000000000E+00 -0.00000000000E+00 -0.25188441833E+03  0.25188441833E+03  0.00000000000E+00 0. -1.
          5    1    1    2  502    0 -0.39375534419E+02  0.17222838005E+02 -0.56705218463E+02  0.71306596194E+02  0.47000000000E+01 0. -1.
         -5    1    1    2    0  502  0.36695378016E+02 -0.77260307141E+02 -0.74976853528E+02  0.11383902842E+03  0.47000000000E+01 0.  1.
        -11    1    1    2    0    0 -0.65357468592E+01 -0.22428704332E+02 -0.28361255833E+02  0.36744028051E+02  0.00000000000E+00 0.  1.
         11    1    1    2    0    0  0.92159032624E+01  0.82466173467E+02 -0.32660226058E+02  0.89175630109E+02  0.00000000000E+00 0. -1.
<mgrwt>
<rscale>  0 0.12483102E+03</rscale>
<asrwt>0</asrwt>
<pdfrwt beam="2">  1        2 0.38751448E-01 0.13014889E+03</pdfrwt>
<pdfrwt beam="1">  1       -2 0.91047485E-02 0.13014889E+03</pdfrwt>
<totfact> 0.96074979E+03</totfact>
</mgrwt>
</event>
<event>
 6    1  0.4705246E-006  0.1255172E+03  0.7546771E-02  0.1248658E+00
         -2   -1    0    0    0  501 -0.00000000000E+00  0.00000000000E+00  0.73603366104E+01  0.73603366104E+01  0.00000000000E+00 0. -1.
          2   -1    0    0  501    0  0.00000000000E+00 -0.00000000000E+00 -0.17623105299E+04  0.17623105299E+04  0.00000000000E+00 0.  1.
          5    1    1    2  502    0 -0.59710890787E+02 -0.31832847391E+02 -0.69916073403E+03  0.70244326651E+03  0.47000000000E+01 0. -1.
         -5    1    1    2    0  502  0.52592723066E+02  0.22800286117E+02 -0.53319631478E+03  0.53628933205E+03  0.47000000000E+01 0. -1.
        -11    1    1    2    0    0  0.42129235392E+02  0.31025400412E+02 -0.30393766180E+03  0.30840809037E+03  0.00000000000E+00 0.  1.
         11    1    1    2    0    0 -0.35011067670E+02 -0.21992839138E+02 -0.21865548263E+03  0.22253017754E+03  0.00000000000E+00 0. -1.
<mgrwt>
<rscale>  0 0.11669099E+03</rscale>
<asrwt>0</asrwt>
<pdfrwt beam="2">  1        2 0.27112508E+00 0.12551715E+03</pdfrwt>
<pdfrwt beam="1">  1       -2 0.11323579E-02 0.12551715E+03</pdfrwt>
<totfact> 0.17041343E+04</totfact>
</mgrwt>
</event>
<event>
 6    1  0.4705246E-006  0.2629651E+03  0.7546771E-02  0.1105375E+00
          2   -1    0    0  501    0  0.00000000000E+00  0.00000000000E+00  0.51310825851E+03  0.51310825851E+03  0.00000000000E+00 0. -1.
         -2   -1    0    0    0  501 -0.00000000000E+00 -0.00000000000E+00 -0.33692036355E+02  0.33692036355E+02  0.00000000000E+00 0.  1.
          5    1    1    2  502    0 -0.65523914246E+01 -0.15742407419E+02 -0.62503621116E+00  0.17698528046E+02  0.47000000000E+01 0.  1.
         -5    1    1    2    0  502  0.42778795101E+02  0.72591278295E+02  0.33746017826E+03  0.34785195257E+03  0.47000000000E+01 0.  1.
        -11    1    1    2    0    0 -0.10021328054E+02 -0.69847202472E+02  0.56689706751E+02  0.90513985442E+02  0.00000000000E+00 0.  1.
         11    1    1    2    0    0 -0.26205075622E+02  0.12998331596E+02  0.85891373354E+02  0.90735828807E+02  0.00000000000E+00 0. -1.
<mgrwt>
<rscale>  0 0.26296511E+03</rscale>
<asrwt>0</asrwt>
<pdfrwt beam="1">  1        2 0.78939727E-01 0.26296511E+03</pdfrwt>
<pdfrwt beam="2">  1       -2 0.51833906E-02 0.26296511E+03</pdfrwt>
<totfact> 0.11110086E+04</totfact>
</mgrwt>
</event>
<event>
 6    1  0.4705246E-006  0.1337680E+03  0.7546771E-02  0.1234668E+00
          2   -1    0    0  501    0  0.00000000000E+00  0.00000000000E+00  0.20243482582E+03  0.20243482582E+03  0.00000000000E+00 0. -1.
         -2   -1    0    0    0  501 -0.00000000000E+00 -0.00000000000E+00 -0.79522423001E+02  0.79522423001E+02  0.00000000000E+00 0.  1.
          5    1    1    2  502    0 -0.29718562882E+02 -0.36955842239E+02  0.52525890401E+02  0.70922397152E+02  0.47000000000E+01 0.  1.
         -5    1    1    2    0  502  0.18200468625E+02  0.83169177396E+02  0.66485573956E+02  0.10812395975E+03  0.47000000000E+01 0.  1.
        -11    1    1    2    0    0 -0.29430520491E+02 -0.34494505007E+02  0.28663242320E+02  0.53643339497E+02  0.00000000000E+00 0. -1.
         11    1    1    2    0    0  0.40948614747E+02 -0.11718830150E+02 -0.24762303857E+02  0.49267552427E+02  0.00000000000E+00 0.  1.
<mgrwt>
<rscale>  0 0.12525682E+03</rscale>
<asrwt>0</asrwt>
<pdfrwt beam="1">  1        2 0.31143819E-01 0.13376797E+03</pdfrwt>
<pdfrwt beam="2">  1       -2 0.12234219E-01 0.13376797E+03</pdfrwt>
<totfact> 0.76334907E+03</totfact>
</mgrwt>
</event>
<event>
 6    1  0.4705246E-006  0.1671379E+03  0.7546771E-02  0.1187322E+00
          3   -1    0    0  501    0  0.00000000000E+00  0.00000000000E+00  0.32598469309E+02  0.32598469309E+02  0.00000000000E+00 0. -1.
         -3   -1    0    0    0  501 -0.00000000000E+00 -0.00000000000E+00 -0.90340747220E+03  0.90340747220E+03  0.00000000000E+00 0.  1.
          5    1    1    2  502    0 -0.58334241668E+02  0.10639603400E+02 -0.12997685007E+03  0.14294109439E+03  0.47000000000E+01 0. -1.
         -5    1    1    2    0  502  0.34977719748E+02  0.97819878187E+02 -0.13622443295E+03  0.17138073281E+03  0.47000000000E+01 0. -1.
        -11    1    1    2    0    0  0.55596136693E+02 -0.94355808475E+02 -0.45909635212E+03  0.47197818757E+03  0.00000000000E+00 0.  1.
         11    1    1    2    0    0 -0.32239614773E+02 -0.14103673113E+02 -0.14551136775E+03  0.14970592674E+03  0.00000000000E+00 0. -1.
<mgrwt>
<rscale>  0 0.16122412E+03</rscale>
<asrwt>0</asrwt>
<pdfrwt beam="1">  1        3 0.50151491E-02 0.16713793E+03</pdfrwt>
<pdfrwt beam="2">  1       -3 0.13898577E+00 0.16713793E+03</pdfrwt>
<totfact> 0.22523503E+02</totfact>
</mgrwt>
</event>
<event>
 6    1  0.4705246E-006  0.1273536E+03  0.7546771E-02  0.1246156E+00
          3   -1    0    0  501    0  0.00000000000E+00  0.00000000000E+00  0.42013369096E+03  0.42013369096E+03  0.00000000000E+00 0. -1.
         -3   -1    0    0    0  501 -0.00000000000E+00 -0.00000000000E+00 -0.32528469740E+02  0.32528469740E+02  0.00000000000E+00 0.  1.
          5    1    1    2  502    0  0.22230010613E+01  0.66392814487E+02  0.89787856707E+02  0.11178951991E+03  0.47000000000E+01 0. -1.
         -5    1    1    2    0  502  0.47131566452E+01 -0.43043664494E+02  0.20097953146E+03  0.20564491961E+03  0.47000000000E+01 0. -1.
        -11    1    1    2    0    0 -0.97347049719E+01  0.21296586953E+02 -0.50482272531E+01  0.23953991215E+02  0.00000000000E+00 0.  1.
         11    1    1    2    0    0  0.27985472654E+01 -0.44645736946E+02  0.10188606031E+03  0.11127372997E+03  0.00000000000E+00 0. -1.
<mgrwt>
<rscale>  0 0.11816448E+03</rscale>
<asrwt>0</asrwt>
<pdfrwt beam="1">  1        3 0.64635949E-01 0.12735364E+03</pdfrwt>
<pdfrwt beam="2">  1       -3 0.50043803E-02 0.12735364E+03</pdfrwt>
<totfact> 0.12233486E+03</totfact>
</mgrwt>
</event>
<event>
 6    1  0.4705246E-006  0.1305969E+03  0.7546771E-02  0.1240032E+00
          1   -1    0    0  501    0  0.00000000000E+00  0.00000000000E+00  0.41288942426E+02  0.41288942426E+02  0.00000000000E+00 0. -1.
         -1   -1    0    0    0  501 -0.00000000000E+00 -0.00000000000E+00 -0.36337951888E+03  0.36337951888E+03  0.00000000000E+00 0.  1.
          5    1    1    2  502    0 -0.34876683038E+02 -0.14850688046E+01 -0.97312707428E+02  0.10349126280E+03  0.47000000000E+01 0. -1.
         -5    1    1    2    0  502  0.60855407730E+02 -0.25998763448E+02 -0.13320158258E+02  0.67667074467E+02  0.47000000000E+01 0. -1.
        -11    1    1    2    0    0 -0.39823498882E+02 -0.14785354893E+02 -0.47948444778E+02  0.64059122216E+02  0.00000000000E+00 0. -1.
         11    1    1    2    0    0  0.13844774189E+02  0.42269187145E+02 -0.16350926599E+03  0.16945100183E+03  0.00000000000E+00 0.  1.
<mgrwt>
<rscale>  0 0.12187726E+03</rscale>
<asrwt>0</asrwt>
<pdfrwt beam="1">  1        1 0.63521452E-02 0.13059688E+03</pdfrwt>
<pdfrwt beam="2">  1       -1 0.55904539E-01 0.13059688E+03</pdfrwt>
<totfact> 0.38048217E+03</totfact>
</mgrwt>
</event>
<event>
 6    1  0.4705246E-006  0.1285122E+03  0.7546771E-02  0.1244450E+00
         -1   -1    0    0    0  501 -0.00000000000E+00  0.00000000000E+00  0.43337392506E+02  0.43337392506E+02  0.00000000000E+00 0.  1.
          1   -1    0    0  501    0  0.00000000000E+00 -0.00000000000E+00 -0.42005197122E+03  0.42005197122E+03  0.00000000000E+00 0. -1.
          5    1    1    2  502    0  0.60282999049E+02  0.44085494055E+02 -0.26475518615E+03  0.27512718759E+03  0.47000000000E+01 0.  1.
         -5    1    1    2    0  502 -0.39310136480E+02 -0.22856886625E+02 -0.71673544707E+02  0.85011241064E+02  0.47000000000E+01 0.  1.
        -11    1    1    2    0    0 -0.42760259198E+02  0.13016843396E+02 -0.43710682937E+02  0.62518011657E+02  0.00000000000E+00 0. -1.
         11    1    1    2    0    0  0.21787396629E+02 -0.34245450826E+02  0.34248350820E+01  0.40732923409E+02  0.00000000000E+00 0.  1.
<mgrwt>
<rscale>  0 0.11918353E+03</rscale>
<asrwt>0</asrwt>
<pdfrwt beam="2">  1        1 0.64623377E-01 0.12851224E+03</pdfrwt>
<pdfrwt beam="1">  1       -1 0.66672915E-02 0.12851224E+03</pdfrwt>
<totfact> 0.61796366E+03</totfact>
</mgrwt>
</event>
<event>
 6    1  0.4705246E-006  0.1704683E+03  0.7546771E-02  0.1201725E+00
          1   -1    0    0  501    0  0.00000000000E+00  0.00000000000E+00  0.26159843926E+03  0.26159843926E+03  0.00000000000E+00 0. -1.
         -1   -1    0    0    0  501 -0.00000000000E+00 -0.00000000000E+00 -0.73808177590E+02  0.73808177590E+02  0.00000000000E+00 0.  1.
          5    1    1    2  502    0  0.53993155654E+02 -0.11710002799E+02  0.18433021659E+03  0.19248923027E+03  0.47000000000E+01 0. -1.
         -5    1    1    2    0  502 -0.23752105621E+02 -0.86614601604E+01 -0.28559423074E+02  0.38430639598E+02  0.47000000000E+01 0.  1.
        -11    1    1    2    0    0 -0.21811059503E+02  0.12859953025E+02  0.64930523816E+02  0.69692708596E+02  0.00000000000E+00 0. -1.
         11    1    1    2    0    0 -0.84299905306E+01  0.75115099346E+01 -0.32911055664E+02  0.34794038380E+02  0.00000000000E+00 0.  1.
<mgrwt>
<rscale>  0 0.14898569E+03</rscale>
<asrwt>0</asrwt>
<pdfrwt beam="1">  1        1 0.40245913E-01 0.17046831E+03</pdfrwt>
<pdfrwt beam="2">  1       -1 0.11355104E-01 0.17046831E+03</pdfrwt>
<totfact> 0.50547455E+03</totfact>
</mgrwt>
</event>
<event>
 6    1  0.4888245E-006  0.2187472E+03  0.7546771E-02  0.1138292E+00
          1   -1    0    0  501    0  0.00000000000E+00  0.00000000000E+00  0.82235249144E+03  0.82235249144E+03  0.00000000000E+00 0. -1.
         -1   -1    0    0    0  501 -0.00000000000E+00 -0.00000000000E+00 -0.61797426329E+02  0.61797426329E+02  0.00000000000E+00 0.  1.
          5    1    1    2  502    0 -0.88567123679E+02  0.46777374097E+02  0.13743261585E+03  0.17012369624E+03  0.47000000000E+01 0. -1.
         -5    1    1    2    0  502 -0.44057104042E+02  0.74203489408E+02  0.41780846042E+03  0.42665347281E+03  0.47000000000E+01 0. -1.
        -11    1    1    2    0    0 -0.91474461542E+01 -0.32711531163E+02  0.31390121140E+02  0.46249970242E+02  0.00000000000E+00 0. -1.
         11    1    1    2    0    0  0.14177167388E+03 -0.88269332342E+02  0.17392386770E+03  0.24112277848E+03  0.00000000000E+00 0.  1.
<mgrwt>
<rscale>  0 0.21418737E+03</rscale>
<asrwt>0</asrwt>
<pdfrwt beam="1">  1        1 0.12651576E+00 0.21874720E+03</pdfrwt>
<pdfrwt beam="2">  1       -1 0.95072969E-02 0.21874720E+03</pdfrwt>
<totfact> 0.14542673E+03</totfact>
</mgrwt>
</event>
<event>
 6    1  0.4705246E-006  0.1704323E+03  0.7546771E-02  0.1185988E+00
         -1   -1    0    0    0  501 -0.00000000000E+00  0.00000000000E+00  0.61973043541E+02  0.61973043541E+02  0.00000000000E+00 0.  1.
          1   -1    0    0  501    0  0.00000000000E+00 -0.00000000000E+00 -0.16205170274E+04  0.16205170274E+04  0.00000000000E+00 0. -1.
          5    1    1    2  502    0 -0.23701030573E+02 -0.88457941138E+02 -0.11326715527E+04  0.11363773504E+04  0.47000000000E+01 0. -1.
         -5    1    1    2    0  502  0.67395670114E+02 -0.63694425204E+01 -0.39679128796E+03  0.40255206166E+03  0.47000000000E+01 0.  1.
        -11    1    1    2    0    0 -0.11943191628E+02 -0.17091379063E+02  0.66097158360E+01  0.21873349263E+02  0.00000000000E+00 0. -1.
         11    1    1    2    0    0 -0.31751447913E+02  0.11191876272E+03 -0.35690858980E+02  0.12168730956E+03  0.00000000000E+00 0.  1.
<mgrwt>
<rscale>  0 0.16242320E+03</rscale>
<asrwt>0</asrwt>
<pdfrwt beam="2">  1        1 0.24931033E+00 0.17043226E+03</pdfrwt>
<pdfrwt beam="1">  1       -1 0.95343136E-02 0.17043226E+03</pdfrwt>
<totfact> 0.39944840E+02</totfact>
</mgrwt>
</event>
<event>
 6    1  0.4705246E-006  0.1671935E+03  0.7546771E-02  0.1186952E+00
          1   -1    0    0  501    0  0.00000000000E+00  0.00000000000E+00  0.69876312898E+03  0.69876312898E+03  0.00000000000E+00 0. -1.
         -1   -1    0    0    0  501 -0.00000000000E+00 -0.00000000000E+00 -0.36081508945E+02  0.36081508945E+02  0.00000000000E+00 0.  1.
          5    1    1    2  502    0  0.98703180473E+01  0.30879796934E+02  0.17922138027E+03  0.18219049971E+03  0.47000000000E+01 0.  1.
         -5    1    1    2    0  502  0.87576763819E+02 -0.84104462112E+02  0.23645206273E+03  0.26584754669E+03  0.47000000000E+01 0.  1.
        -11    1    1    2    0    0 -0.28305318809E+02 -0.25050842625E+02  0.40547314443E+02  0.55433027138E+02  0.00000000000E+00 0.  1.
         11    1    1    2    0    0 -0.69141763057E+02  0.78275507803E+02  0.20646086258E+03  0.23137356439E+03  0.00000000000E+00 0. -1.
<mgrwt>
<rscale>  0 0.16155547E+03</rscale>
<asrwt>0</asrwt>
<pdfrwt beam="1">  1        1 0.10750201E+00 0.16719354E+03</pdfrwt>
<pdfrwt beam="2">  1       -1 0.55510019E-02 0.16719354E+03</pdfrwt>
<totfact> 0.41670210E+03</totfact>
</mgrwt>
</event>
<event>
 6    1  0.4705246E-006  0.3754807E+03  0.7546771E-02  0.1052617E+00
          2   -1    0    0  501    0  0.00000000000E+00  0.00000000000E+00  0.11945728573E+04  0.11945728573E+04  0.00000000000E+00 0. -1.
         -2   -1    0    0    0  501 -0.00000000000E+00 -0.00000000000E+00 -0.29505473276E+02  0.29505473276E+02  0.00000000000E+00 0.  1.
          5    1    1    2  502    0  0.11352530675E+02  0.18565822150E+02  0.50645367072E+03  0.50694277812E+03  0.47000000000E+01 0.  1.
         -5    1    1    2    0  502  0.99958469985E+02  0.58133631554E+02  0.33528840360E+03  0.35469933526E+03  0.47000000000E+01 0.  1.
        -11    1    1    2    0    0 -0.80750198753E+02 -0.32040030367E+01  0.19936186047E+03  0.21511859902E+03  0.00000000000E+00 0.  1.
         11    1    1    2    0    0 -0.30560801907E+02 -0.73495450667E+02  0.12396344926E+03  0.14731761820E+03  0.00000000000E+00 0. -1.
<mgrwt>
<rscale>  0 0.37548069E+03</rscale>
<asrwt>0</asrwt>
<pdfrwt beam="1">  1        2 0.18378040E+00 0.37548069E+03</pdfrwt>
<pdfrwt beam="2">  1       -2 0.45393045E-02 0.37548069E+03</pdfrwt>
<totfact> 0.45836309E+03</totfact>
</mgrwt>
</event>
<event>
 6    1  0.4705246E-006  0.4343701E+03  0.7546771E-02  0.1033131E+00
         -2   -1    0    0    0  501 -0.00000000000E+00  0.00000000000E+00  0.28993217941E+03  0.28993217941E+03  0.00000000000E+00 0.  1.
          2   -1    0    0  501    0  0.00000000000E+00 -0.00000000000E+00 -0.71974917978E+03  0.71974917978E+03  0.00000000000E+00 0. -1.
          5    1    1    2  502    0  0.18995690289E+03 -0.40389906461E+02 -0.12928631652E+03  0.23334954711E+03  0.47000000000E+01 0.  1.
         -5    1    1    2    0  502  0.22530816766E+03  0.65025102507E+02 -0.25694731150E+03  0.34790235017E+03  0.47000000000E+01 0.  1.
        -11    1    1    2    0    0 -0.21165622852E+03 -0.24117345705E+01  0.23345382581E+02  0.21295347478E+03  0.00000000000E+00 0.  1.
         11    1    1    2    0    0 -0.20360884202E+03 -0.22223461476E+02 -0.66928754938E+02  0.21547598713E+03  0.00000000000E+00 0. -1.
<mgrwt>
<rscale>  0 0.43231472E+03</rscale>
<asrwt>0</asrwt>
<pdfrwt beam="2">  1        2 0.11073064E+00 0.43437006E+03</pdfrwt>
<pdfrwt beam="1">  1       -2 0.44604951E-01 0.43437006E+03</pdfrwt>
<totfact> 0.19414590E+02</totfact>
</mgrwt>
</event>
<event>
 6    1  0.4705246E-006  0.1257999E+03  0.7546771E-02  0.1247704E+00
          1   -1    0    0  501    0  0.00000000000E+00  0.00000000000E+00  0.71955192696E+02  0.71955192696E+02  0.00000000000E+00 0. -1.
         -1   -1    0    0    0  501 -0.00000000000E+00 -0.00000000000E+00 -0.16971853182E+03  0.16971853182E+03  0.00000000000E+00 0.  1.
          5    1    1    2  502    0 -0.16277852491E+01  0.48190315458E+02  0.21832756618E+02  0.53138643662E+02  0.47000000000E+01 0. -1.
         -5    1    1    2    0  502 -0.91613852765E+01 -0.39086759365E+02 -0.71453645324E+02  0.82093965478E+02  0.47000000000E+01 0. -1.
        -11    1    1    2    0    0 -0.17122460743E+02 -0.11765403203E+02 -0.68636308419E+02  0.71711548636E+02  0.00000000000E+00 0.  1.
         11    1    1    2    0    0  0.27911631268E+02  0.26618471105E+01  0.20493858001E+02  0.34729566739E+02  0.00000000000E+00 0. -1.
<mgrwt>
<rscale>  0 0.11725006E+03</rscale>
<asrwt>0</asrwt>
<pdfrwt beam="1">  1        1 0.11070030E-01 0.12579994E+03</pdfrwt>
<pdfrwt beam="2">  1       -1 0.26110543E-01 0.12579994E+03</pdfrwt>
<totfact> 0.68174952E+03</totfact>
</mgrwt>
</event>
<event>
 6    1  0.4705246E-006  0.2949599E+03  0.7546771E-02  0.1087788E+00
          1   -1    0    0  501    0  0.00000000000E+00  0.00000000000E+00  0.17767388062E+04  0.17767388062E+04  0.00000000000E+00 0. -1.
         -1   -1    0    0    0  501 -0.00000000000E+00 -0.00000000000E+00 -0.12241719914E+02  0.12241719914E+02  0.00000000000E+00 0.  1.
          5    1    1    2  502    0 -0.19978050744E+02 -0.90869598706E+02  0.12349755645E+04  0.12384842112E+04  0.47000000000E+01 0.  1.
         -5    1    1    2    0  502  0.17506661366E+02  0.60523494646E+01  0.30547463863E+02  0.36032647345E+02  0.47000000000E+01 0.  1.
        -11    1    1    2    0    0 -0.41357165624E+02  0.65331678079E+02  0.30591583785E+03  0.31553627867E+03  0.00000000000E+00 0. -1.
         11    1    1    2    0    0  0.43828555002E+02  0.19485571163E+02  0.19305822011E+03  0.19892738893E+03  0.00000000000E+00 0.  1.
<mgrwt>
<rscale>  0 0.29495992E+03</rscale>
<asrwt>0</asrwt>
<pdfrwt beam="1">  1        1 0.27334423E+00 0.29495992E+03</pdfrwt>
<pdfrwt beam="2">  1       -1 0.18833429E-02 0.29495992E+03</pdfrwt>
<totfact> 0.35277119E+03</totfact>
</mgrwt>
</event>
<event>
 6    1  0.4705246E-006  0.1258113E+03  0.7546771E-02  0.1241672E+00
          2   -1    0    0  501    0  0.00000000000E+00  0.00000000000E+00  0.56007603705E+03  0.56007603705E+03  0.00000000000E+00 0. -1.
         -2   -1    0    0    0  501 -0.00000000000E+00 -0.00000000000E+00 -0.26413490581E+02  0.26413490581E+02  0.00000000000E+00 0.  1.
          5    1    1    2  502    0  0.17685188497E+02 -0.24779506823E+02  0.36806071934E+03  0.36934749623E+03  0.47000000000E+01 0. -1.
         -5    1    1    2    0  502  0.17948867162E+02 -0.11401342725E+02  0.24182946540E+01  0.21910969795E+02  0.47000000000E+01 0.  1.
        -11    1    1    2    0    0 -0.47829629312E+02 -0.11236047403E+02  0.12103786803E+03  0.13062958202E+03  0.00000000000E+00 0.  1.
         11    1    1    2    0    0  0.12195573653E+02  0.47416896951E+02  0.42145664444E+02  0.64601479586E+02  0.00000000000E+00 0. -1.
<mgrwt>
<rscale>  0 0.12086827E+03</rscale>
<asrwt>0</asrwt>
<pdfrwt beam="1">  1        2 0.86165535E-01 0.12581132E+03</pdfrwt>
<pdfrwt beam="2">  1       -2 0.40636144E-02 0.12581132E+03</pdfrwt>
<totfact> 0.13835121E+04</totfact>
</mgrwt>
</event>
<event>
 6    1  0.4705246E-006  0.1279192E+03  0.7546771E-02  0.1245756E+00
         -1   -1    0    0    0  501 -0.00000000000E+00  0.00000000000E+00  0.26009184535E+02  0.26009184535E+02  0.00000000000E+00 0.  1.
          1   -1    0    0  501    0  0.00000000000E+00 -0.00000000000E+00 -0.57119434576E+03  0.57119434576E+03  0.00000000000E+00 0. -1.
          5    1    1    2  502    0  0.38708722438E+02  0.19671621739E+02 -0.43561728616E+02  0.61685104317E+02  0.47000000000E+01 0.  1.
         -5    1    1    2    0  502 -0.19210316201E+02 -0.44312063196E+00 -0.38629987623E+03  0.38680604569E+03  0.47000000000E+01 0.  1.
        -11    1    1    2    0    0 -0.20284806635E+02  0.75077557292E+01  0.75895992013E+01  0.22922517147E+02  0.00000000000E+00 0.  1.
         11    1    1    2    0    0  0.78640039887E+00 -0.26736256837E+02 -0.12291315558E+03  0.12578986314E+03  0.00000000000E+00 0. -1.
<mgrwt>
<rscale>  0 0.11840219E+03</rscale>
<asrwt>0</asrwt>
<pdfrwt beam="2">  1        1 0.87876049E-01 0.12791916E+03</pdfrwt>
<pdfrwt beam="1">  1       -1 0.40014132E-02 0.12791916E+03</pdfrwt>
<totfact> 0.88205911E+03</totfact>
</mgrwt>
</event>
<event>
 6    1  0.4705246E-006  0.2348099E+03  0.7546771E-02  0.1126119E+00
         -1   -1    0    0    0  501 -0.00000000000E+00  0.00000000000E+00  0.19400482627E+03  0.19400482627E+03  0.00000000000E+00 0.  1.
          1   -1    0    0  501    0  0.00000000000E+00 -0.00000000000E+00 -0.29296963617E+03  0.29296963617E+03  0.00000000000E+00 0. -1.
          5    1    1    2  502    0 -0.18115866642E+03 -0.91022981475E+02 -0.77766717361E+02  0.21719437816E+03  0.47000000000E+01 0.  1.
         -5    1    1    2    0  502  0.75500532851E+01 -0.57955217920E+01 -0.48031361524E+02  0.49190375759E+02  0.47000000000E+01 0.  1.
        -11    1    1    2    0    0  0.61962224279E+02  0.40984605971E+02  0.55230239760E+02  0.92571240395E+02  0.00000000000E+00 0.  1.
         11    1    1    2    0    0  0.11164638885E+03  0.55833897296E+02 -0.28396970776E+02  0.12801846812E+03  0.00000000000E+00 0. -1.
<mgrwt>
<rscale>  0 0.23074075E+03</rscale>
<asrwt>0</asrwt>
<pdfrwt beam="2">  1        1 0.45072252E-01 0.23480988E+03</pdfrwt>
<pdfrwt beam="1">  1       -1 0.29846896E-01 0.23480988E+03</pdfrwt>
<totfact> 0.93149747E+02</totfact>
</mgrwt>
</event>
<event>
 6    1  0.4705246E-006  0.3771476E+03  0.7546771E-02  0.1051993E+00
         -2   -1    0    0    0  501 -0.00000000000E+00  0.00000000000E+00  0.28505482272E+02  0.28505482272E+02  0.00000000000E+00 0.  1.
          2   -1    0    0  501    0  0.00000000000E+00 -0.00000000000E+00 -0.12474818196E+04  0.12474818196E+04  0.00000000000E+00 0. -1.
          5    1    1    2  502    0 -0.75064343724E+02 -0.70847294779E+02 -0.95411582596E+03  0.95969427122E+03  0.47000000000E+01 0. -1.
         -5    1    1    2    0  502  0.26900587510E+02  0.13476046438E+02 -0.14827148021E+03  0.15136633470E+03  0.47000000000E+01 0.  1.
        -11    1    1    2    0    0  0.23443753963E+02  0.16141432826E+02 -0.11321243220E+03  0.11673564262E+03  0.00000000000E+00 0. -1.
         11    1    1    2    0    0  0.24720002251E+02  0.41229815515E+02 -0.33765989406E+01  0.48191053310E+02  0.00000000000E+00 0.  1.
<mgrwt>
<rscale>  0 0.37714756E+03</rscale>
<asrwt>0</asrwt>
<pdfrwt beam="2">  1        2 0.19192032E+00 0.37714756E+03</pdfrwt>
<pdfrwt beam="1">  1       -2 0.43854579E-02 0.37714756E+03</pdfrwt>
<totfact> 0.45056819E+03</totfact>
</mgrwt>
</event>
<event>
 6    1  0.4705246E-006  0.1270049E+03  0.7546771E-02  0.1248544E+00
          3   -1    0    0  501    0  0.00000000000E+00  0.00000000000E+00  0.77798073842E+02  0.77798073842E+02  0.00000000000E+00 0. -1.
         -3   -1    0    0    0  501 -0.00000000000E+00 -0.00000000000E+00 -0.15338339431E+03  0.15338339431E+03  0.00000000000E+00 0.  1.
          5    1    1    2  502    0  0.34006892564E+02 -0.36749652418E+02 -0.45673945591E+02  0.67935300106E+02  0.47000000000E+01 0. -1.
         -5    1    1    2    0  502 -0.55844001673E+02  0.41013286930E+02 -0.78532827580E+01  0.69888527511E+02  0.47000000000E+01 0. -1.
        -11    1    1    2    0    0  0.25734770952E+01  0.31784815061E+02  0.17586418839E+02  0.36416745879E+02  0.00000000000E+00 0.  1.
         11    1    1    2    0    0  0.19263632014E+02 -0.36048449572E+02 -0.39644510954E+02  0.56940894652E+02  0.00000000000E+00 0. -1.
<mgrwt>
<rscale>  0 0.11675737E+03</rscale>
<asrwt>0</asrwt>
<pdfrwt beam="1">  1        3 0.11968935E-01 0.12700489E+03</pdfrwt>
<pdfrwt beam="2">  1       -3 0.23597445E-01 0.12700489E+03</pdfrwt>
<totfact> 0.20620061E+03</totfact>
</mgrwt>
</event>
<event>
 6    1  0.4705246E-006  0.1407107E+03  0.7546771E-02  0.1219529E+00
         -1   -1    0    0    0  501 -0.00000000000E+00  0.00000000000E+00  0.74949136716E+02  0.74949136716E+02  0.00000000000E+00 0.  1.
          1   -1    0    0  501    0  0.00000000000E+00 -0.00000000000E+00 -0.25327986392E+03  0.25327986392E+03  0.00000000000E+00 0. -1.
          5    1    1    2  502    0  0.83651413111E+01 -0.31223000878E+02 -0.15423421986E+03  0.15765511710E+03  0.47000000000E+01 0.  1.
         -5    1    1    2    0  502 -0.35000588027E+02 -0.27639380168E+02  0.76980533996E+01  0.45500840920E+02  0.47000000000E+01 0.  1.
        -11    1    1    2    0    0 -0.37263584701E+02  0.37837398996E+02 -0.20167677600E+02  0.56806502509E+02  0.00000000000E+00 0. -1.
         11    1    1    2    0    0  0.63899031417E+02  0.21024982050E+02 -0.11626883146E+02  0.68266540105E+02  0.00000000000E+00 0.  1.
<mgrwt>
<rscale>  0 0.13549075E+03</rscale>
<asrwt>0</asrwt>
<pdfrwt beam="2">  1        1 0.38966133E-01 0.14071068E+03</pdfrwt>
<pdfrwt beam="1">  1       -1 0.11530636E-01 0.14071068E+03</pdfrwt>
<totfact> 0.50835692E+03</totfact>
</mgrwt>
</event>
<event>
 6    1  0.4705246E-006  0.5122198E+03  0.7546771E-02  0.1010638E+00
          4   -1    0    0  501    0  0.00000000000E+00  0.00000000000E+00  0.15371243718E+03  0.15371243718E+03  0.00000000000E+00 0.  1.
         -4   -1    0    0    0  501 -0.00000000000E+00 -0.00000000000E+00 -0.42672064028E+03  0.42672064028E+03  0.00000000000E+00 0. -1.
          5    1    1    2  502    0 -0.56216754936E+02 -0.16679298484E+03  0.47701046113E+02  0.18242177263E+03  0.47000000000E+01 0. -1.
         -5    1    1    2    0  502 -0.28698827289E+02  0.84268112574E+01 -0.22771609701E+02  0.37884958019E+02  0.47000000000E+01 0. -1.
        -11    1    1    2    0    0  0.16196106575E+02  0.81199919080E+02 -0.20523236547E+03  0.22130536497E+03  0.00000000000E+00 0. -1.
         11    1    1    2    0    0  0.68719475650E+02  0.77166254505E+02 -0.92705274040E+02  0.13882098185E+03  0.00000000000E+00 0.  1.
<mgrwt>
<rscale>  0 0.51221976E+03</rscale>
<asrwt>0</asrwt>
<pdfrwt beam="1">  1        4 0.23648067E-01 0.51221976E+03</pdfrwt>
<pdfrwt beam="2">  1       -4 0.65649329E-01 0.51221976E+03</pdfrwt>
<totfact> 0.71203718E+01</totfact>
</mgrwt>
</event>
<event>
 6    1  0.4705246E-006  0.1518671E+03  0.7546771E-02  0.1210259E+00
          2   -1    0    0  501    0  0.00000000000E+00  0.00000000000E+00  0.25802744459E+03  0.25802744459E+03  0.00000000000E+00 0. -1.
         -2   -1    0    0    0  501 -0.00000000000E+00 -0.00000000000E+00 -0.79163742917E+02  0.79163742917E+02  0.00000000000E+00 0.  1.
          5    1    1    2  502    0  0.39267099785E+02  0.39020380657E+02  0.93893598498E+01  0.56344878299E+02  0.47000000000E+01 0.  1.
         -5    1    1    2    0  502 -0.48097751279E+02  0.46784191711E+02  0.14695326616E+03  0.16161530468E+03  0.47000000000E+01 0.  1.
        -11    1    1    2    0    0  0.36519912166E+02 -0.67864820824E+02  0.34087826889E+02  0.84269317264E+02  0.00000000000E+00 0. -1.
         11    1    1    2    0    0 -0.27689260672E+02 -0.17939751544E+02 -0.11566751229E+02  0.34961687259E+02  0.00000000000E+00 0.  1.
<mgrwt>
<rscale>  0 0.14230590E+03</rscale>
<asrwt>0</asrwt>
<pdfrwt beam="1">  1        2 0.39696529E-01 0.15186713E+03</pdfrwt>
<pdfrwt beam="2">  1       -2 0.12179038E-01 0.15186713E+03</pdfrwt>
<totfact> 0.59761368E+03</totfact>
</mgrwt>
</event>
<event>
 6    1  0.4705246E-006  0.1772795E+03  0.7546771E-02  0.1176023E+00
          2   -1    0    0  501    0  0.00000000000E+00  0.00000000000E+00  0.35654997975E+03  0.35654997975E+03  0.00000000000E+00 0. -1.
         -2   -1    0    0    0  501 -0.00000000000E+00 -0.00000000000E+00 -0.83079773017E+02  0.83079773017E+02  0.00000000000E+00 0.  1.
          5    1    1    2  502    0 -0.38907629629E+02 -0.35448158727E+02  0.31800325505E+02  0.61674356930E+02  0.47000000000E+01 0.  1.
         -5    1    1    2    0  502 -0.72774992748E+02  0.93163925252E+02  0.16738258952E+03  0.20497496875E+03  0.47000000000E+01 0.  1.
        -11    1    1    2    0    0  0.14283178742E+02 -0.26183067683E+02 -0.18261710445E+02  0.34972164598E+02  0.00000000000E+00 0. -1.
         11    1    1    2    0    0  0.97399443635E+02 -0.31532698842E+02  0.92549002151E+02  0.13800826249E+03  0.00000000000E+00 0.  1.
<mgrwt>
<rscale>  0 0.17176146E+03</rscale>
<asrwt>0</asrwt>
<pdfrwt beam="1">  1        2 0.54853842E-01 0.17727952E+03</pdfrwt>
<pdfrwt beam="2">  1       -2 0.12781504E-01 0.17727952E+03</pdfrwt>
<totfact> 0.39473785E+03</totfact>
</mgrwt>
</event>
<event>
 6    1  0.4705246E-006  0.1256684E+03  0.7546771E-02  0.1248250E+00
         -2   -1    0    0    0  501 -0.00000000000E+00  0.00000000000E+00  0.20853917155E+02  0.20853917155E+02  0.00000000000E+00 0.  1.
          2   -1    0    0  501    0  0.00000000000E+00 -0.00000000000E+00 -0.58909776444E+03  0.58909776444E+03  0.00000000000E+00 0. -1.
          5    1    1    2  502    0 -0.91024635021E+01  0.61477539257E+01  0.71136446639E+01  0.13904807102E+02  0.47000000000E+01 0.  1.
         -5    1    1    2    0  502 -0.36862419038E+01 -0.80740005423E+01 -0.36979770799E+03  0.36993406534E+03  0.47000000000E+01 0.  1.
        -11    1    1    2    0    0 -0.67788921575E+01 -0.28975371759E+02 -0.17485074324E+02  0.34514538553E+02  0.00000000000E+00 0.  1.
         11    1    1    2    0    0  0.19567597563E+02  0.30901618375E+02 -0.18807470963E+03  0.19159827059E+03  0.00000000000E+00 0. -1.
<mgrwt>
<rscale>  0 0.11692931E+03</rscale>
<asrwt>0</asrwt>
<pdfrwt beam="2">  1        2 0.90630420E-01 0.12566841E+03</pdfrwt>
<pdfrwt beam="1">  1       -2 0.32082951E-02 0.12566841E+03</pdfrwt>
<totfact> 0.18530936E+04</totfact>
</mgrwt>
</event>
<event>
 6    1  0.4705246E-006  0.1293513E+03  0.7546771E-02  0.1242993E+00
         -1   -1    0    0    0  501 -0.00000000000E+00  0.00000000000E+00  0.23542164897E+02  0.23542164897E+02  0.00000000000E+00 0.  1.
          1   -1    0    0  501    0  0.00000000000E+00 -0.00000000000E+00 -0.59981763103E+03  0.59981763103E+03  0.00000000000E+00 0. -1.
          5    1    1    2  502    0  0.16530137001E+01  0.48279633981E+02 -0.19983812613E+03  0.20564781100E+03  0.47000000000E+01 0.  1.
         -5    1    1    2    0  502 -0.19256524723E+02 -0.76394757372E+02 -0.22462040777E+03  0.23808273832E+03  0.47000000000E+01 0.  1.
        -11    1    1    2    0    0  0.42150538134E+02  0.71866057957E+00 -0.28358803995E+02  0.50807539815E+02  0.00000000000E+00 0.  1.
         11    1    1    2    0    0 -0.24547027111E+02  0.27396462811E+02 -0.12345812824E+03  0.12882170680E+03  0.00000000000E+00 0. -1.
<mgrwt>
<rscale>  0 0.12006303E+03</rscale>
<asrwt>0</asrwt>
<pdfrwt beam="2">  1        1 0.92279632E-01 0.12935128E+03</pdfrwt>
<pdfrwt beam="1">  1       -1 0.36218716E-02 0.12935128E+03</pdfrwt>
<totfact> 0.95615180E+03</totfact>
</mgrwt>
</event>
<event>
 6    1  0.4705246E-006  0.1356321E+03  0.7546771E-02  0.1231145E+00
          4   -1    0    0  501    0  0.00000000000E+00  0.00000000000E+00  0.35529503176E+03  0.35529503176E+03  0.00000000000E+00 0. -1.
         -4   -1    0    0    0  501 -0.00000000000E+00 -0.00000000000E+00 -0.41629117399E+02  0.41629117399E+02  0.00000000000E+00 0.  1.
          5    1    1    2  502    0  0.48185611770E+02 -0.18655098067E+02  0.11551388972E+03  0.12663101747E+03  0.47000000000E+01 0.  1.
         -5    1    1    2    0  502 -0.59928354600E+02 -0.32657666885E+02  0.38149885375E+02  0.78329015349E+02  0.47000000000E+01 0.  1.
        -11    1    1    2    0    0  0.31209981988E+00 -0.24529503267E+02  0.17505226840E+02  0.30136803141E+02  0.00000000000E+00 0.  1.
         11    1    1    2    0    0  0.11430643011E+02  0.75842268219E+02  0.14249691243E+03  0.16182731321E+03  0.00000000000E+00 0. -1.
<mgrwt>
<rscale>  0 0.12754506E+03</rscale>
<asrwt>0</asrwt>
<pdfrwt beam="1">  1        4 0.54660772E-01 0.13563207E+03</pdfrwt>
<pdfrwt beam="2">  1       -4 0.64044798E-02 0.13563207E+03</pdfrwt>
<totfact> 0.85135108E+02</totfact>
</mgrwt>
</event>
<event>
 6    1  0.4705246E-006  0.1400986E+03  0.7546771E-02  0.1223785E+00
         -1   -1    0    0    0  501 -0.00000000000E+00  0.00000000000E+00  0.15327959919E+02  0.15327959919E+02  0.00000000000E+00 0.  1.
          1   -1    0    0  501    0  0.00000000000E+00 -0.00000000000E+00 -0.11727170267E+04  0.11727170267E+04  0.00000000000E+00 0. -1.
          5    1    1    2  502    0  0.23035257919E+02  0.21931144243E+02 -0.80170973592E+02  0.86377504027E+02  0.47000000000E+01 0.  1.
         -5    1    1    2    0  502 -0.33820413143E+02 -0.84276480744E+02 -0.75598937896E+03  0.76143836037E+03  0.47000000000E+01 0.  1.
        -11    1    1    2    0    0  0.46089279015E+02  0.60519406897E+02 -0.20110915571E+03  0.21501561051E+03  0.00000000000E+00 0. -1.
         11    1    1    2    0    0 -0.35304123792E+02  0.18259296044E+01 -0.12011955848E+03  0.12521351167E+03  0.00000000000E+00 0.  1.
<mgrwt>
<rscale>  0 0.13250534E+03</rscale>
<asrwt>0</asrwt>
<pdfrwt beam="2">  1        1 0.18041797E+00 0.14009855E+03</pdfrwt>
<pdfrwt beam="1">  1       -1 0.23581481E-02 0.14009855E+03</pdfrwt>
<totfact> 0.62906511E+03</totfact>
</mgrwt>
</event>
<event>
 6    1  0.4705246E-006  0.1714508E+03  0.7546771E-02  0.1182928E+00
         -1   -1    0    0    0  501 -0.00000000000E+00  0.00000000000E+00  0.10024518140E+03  0.10024518140E+03  0.00000000000E+00 0.  1.
          1   -1    0    0  501    0  0.00000000000E+00 -0.00000000000E+00 -0.27960822690E+03  0.27960822690E+03  0.00000000000E+00 0. -1.
          5    1    1    2  502    0 -0.35736355393E+02  0.15326862910E+02 -0.65863936740E+02  0.76629941840E+02  0.47000000000E+01 0.  1.
         -5    1    1    2    0  502 -0.38935299417E+01 -0.12578348133E+03 -0.86893638220E+02  0.15300077815E+03  0.47000000000E+01 0.  1.
        -11    1    1    2    0    0 -0.28445638680E+02  0.21305867053E+02 -0.36419725152E+01  0.35726157009E+02  0.00000000000E+00 0. -1.
         11    1    1    2    0    0  0.68075524015E+02  0.89150751363E+02 -0.22963498024E+02  0.11449653130E+03  0.00000000000E+00 0.  1.
<mgrwt>
<rscale>  0 0.16521844E+03</rscale>
<asrwt>0</asrwt>
<pdfrwt beam="2">  1        1 0.43016650E-01 0.17145084E+03</pdfrwt>
<pdfrwt beam="1">  1       -1 0.15422336E-01 0.17145084E+03</pdfrwt>
<totfact> 0.28847955E+03</totfact>
</mgrwt>
</event>
<event>
 6    1  0.4705246E-006  0.1367384E+03  0.7546771E-02  0.1230222E+00
         -2   -1    0    0    0  501 -0.00000000000E+00  0.00000000000E+00  0.12803206644E+03  0.12803206644E+03  0.00000000000E+00 0.  1.
          2   -1    0    0  501    0  0.00000000000E+00 -0.00000000000E+00 -0.13994270979E+03  0.13994270979E+03  0.00000000000E+00 0. -1.
          5    1    1    2  502    0 -0.24035111496E+02 -0.23955394920E+02  0.96810273310E+01  0.35599997480E+02  0.47000000000E+01 0.  1.
         -5    1    1    2    0  502  0.54041022490E+02  0.70552247346E+02 -0.72917945901E+02  0.11505289458E+03  0.47000000000E+01 0.  1.
        -11    1    1    2    0    0 -0.21957484745E+02  0.54401789010E+01 -0.18948321673E+02  0.29508737300E+02  0.00000000000E+00 0. -1.
         11    1    1    2    0    0 -0.80484262491E+01 -0.52037031327E+02  0.70274596893E+02  0.87813146868E+02  0.00000000000E+00 0.  1.
<mgrwt>
<rscale>  0 0.12815334E+03</rscale>
<asrwt>0</asrwt>
<pdfrwt beam="2">  1        2 0.21529648E-01 0.13673839E+03</pdfrwt>
<pdfrwt beam="1">  1       -2 0.19697241E-01 0.13673839E+03</pdfrwt>
<totfact> 0.52496778E+03</totfact>
</mgrwt>
</event>
<event>
 6    1  0.4705246E-006  0.1649004E+03  0.7546771E-02  0.1190683E+00
          2   -1    0    0  501    0  0.00000000000E+00  0.00000000000E+00  0.15791275546E+03  0.15791275546E+03  0.00000000000E+00 0. -1.
         -2   -1    0    0    0  501 -0.00000000000E+00 -0.00000000000E+00 -0.14833013830E+03  0.14833013830E+03  0.00000000000E+00 0.  1.
          5    1    1    2  502    0 -0.13359767016E+03 -0.23423177053E+02  0.14520252526E+02  0.13649142987E+03  0.47000000000E+01 0. -1.
         -5    1    1    2    0  502  0.28757757916E+02 -0.56456100963E+00  0.47900560070E+01  0.29535775020E+02  0.47000000000E+01 0. -1.
        -11    1    1    2    0    0  0.28059943750E+02 -0.53892734184E+01 -0.42918886749E+02  0.51560018920E+02  0.00000000000E+00 0.  1.
         11    1    1    2    0    0  0.76779968492E+02  0.29377011481E+02  0.33191195376E+02  0.88655669957E+02  0.00000000000E+00 0. -1.
<mgrwt>
<rscale>  0 0.15825358E+03</rscale>
<asrwt>0</asrwt>
<pdfrwt beam="1">  1        2 0.24294270E-01 0.16490041E+03</pdfrwt>
<pdfrwt beam="2">  1       -2 0.22820021E-01 0.16490041E+03</pdfrwt>
<totfact> 0.36055717E+03</totfact>
</mgrwt>
</event>
<event>
 6    1  0.4705246E-006  0.1266037E+03  0.7546771E-02  0.1250399E+00
         -2   -1    0    0    0  501 -0.00000000000E+00  0.00000000000E+00  0.67861716291E+02  0.67861716291E+02  0.00000000000E+00 0.  1.
          2   -1    0    0  501    0  0.00000000000E+00 -0.00000000000E+00 -0.18028746455E+03  0.18028746455E+03  0.00000000000E+00 0. -1.
          5    1    1    2  502    0 -0.64071581252E+02 -0.99599217231E+01 -0.15263009831E+02  0.66778866672E+02  0.47000000000E+01 0. -1.
         -5    1    1    2    0  502  0.44253450245E+02  0.66824629636E+01 -0.79533371991E+02  0.91382002769E+02  0.47000000000E+01 0. -1.
        -11    1    1    2    0    0 -0.29562466384E+01 -0.38379553138E+02  0.21580492227E+01  0.38553685553E+02  0.00000000000E+00 0.  1.
         11    1    1    2    0    0  0.22774377645E+02  0.41657011898E+02 -0.19787415659E+02  0.51434625845E+02  0.00000000000E+00 0. -1.
<mgrwt>
<rscale>  0 0.11567963E+03</rscale>
<asrwt>0</asrwt>
<pdfrwt beam="2">  1        2 0.27736533E-01 0.12660374E+03</pdfrwt>
<pdfrwt beam="1">  1       -2 0.10440264E-01 0.12660374E+03</pdfrwt>
<totfact> 0.11082232E+04</totfact>
</mgrwt>
</event>
<event>
 6    1  0.4705246E-006  0.1269736E+03  0.7546771E-02  0.1246820E+00
         -1   -1    0    0    0  501 -0.00000000000E+00  0.00000000000E+00  0.80798367840E+02  0.80798367840E+02  0.00000000000E+00 0.  1.
          1   -1    0    0  501    0  0.00000000000E+00 -0.00000000000E+00 -0.15119745952E+03  0.15119745952E+03  0.00000000000E+00 0. -1.
          5    1    1    2  502    0  0.18078247926E+02  0.39276265636E+02  0.22348083946E+02  0.48897596530E+02  0.47000000000E+01 0.  1.
         -5    1    1    2    0  502 -0.40247748639E+02 -0.42355826507E+02 -0.59212340461E+02  0.83319196902E+02  0.47000000000E+01 0.  1.
        -11    1    1    2    0    0  0.33995358600E+02  0.46768771885E+01 -0.60912634305E+02  0.69913565240E+02  0.00000000000E+00 0. -1.
         11    1    1    2    0    0 -0.11825857887E+02 -0.15973163174E+01  0.27377799140E+02  0.29865468688E+02  0.00000000000E+00 0.  1.
<mgrwt>
<rscale>  0 0.11777093E+03</rscale>
<asrwt>0</asrwt>
<pdfrwt beam="2">  1        1 0.23261148E-01 0.12697365E+03</pdfrwt>
<pdfrwt beam="1">  1       -1 0.12430518E-01 0.12697365E+03</pdfrwt>
<totfact> 0.85452985E+03</totfact>
</mgrwt>
</event>
<event>
 6    1  0.4705246E-006  0.1277406E+03  0.7546771E-02  0.1246217E+00
         -2   -1    0    0    0  501 -0.00000000000E+00  0.00000000000E+00  0.19412832308E+02  0.19412832308E+02  0.00000000000E+00 0.  1.
          2   -1    0    0  501    0  0.00000000000E+00 -0.00000000000E+00 -0.63294870093E+03  0.63294870093E+03  0.00000000000E+00 0. -1.
          5    1    1    2  502    0  0.30821245109E+02  0.27096288512E+01 -0.17147108579E+02  0.35684794677E+02  0.47000000000E+01 0. -1.
         -5    1    1    2    0  502 -0.31082656688E+02 -0.29037424555E+02 -0.35942178416E+03  0.36196051235E+03  0.47000000000E+01 0. -1.
        -11    1    1    2    0    0  0.24590001541E+00  0.57588375643E+02 -0.11249536195E+03  0.12637914359E+03  0.00000000000E+00 0. -1.
         11    1    1    2    0    0  0.15511564436E-01 -0.31260579939E+02 -0.12447161394E+03  0.12833708262E+03  0.00000000000E+00 0.  1.
<mgrwt>
<rscale>  0 0.11812855E+03</rscale>
<asrwt>0</asrwt>
<pdfrwt beam="2">  1        2 0.97376718E-01 0.12774059E+03</pdfrwt>
<pdfrwt beam="1">  1       -2 0.29865898E-02 0.12774059E+03</pdfrwt>
<totfact> 0.18994941E+04</totfact>
</mgrwt>
</event>
<event>
 6    1  0.1660805E-005  0.2229425E+03  0.7546771E-02  0.1134822E+00
         -1   -1    0    0    0  501 -0.00000000000E+00  0.00000000000E+00  0.30125631605E+02  0.30125631605E+02  0.00000000000E+00 0.  1.
          1   -1    0    0  501    0  0.00000000000E+00 -0.00000000000E+00 -0.16197149741E+04  0.16197149741E+04  0.00000000000E+00 0. -1.
          5    1    1    2  502    0 -0.49564954512E+02 -0.59269331838E+02 -0.20478743329E+03  0.21892811890E+03  0.47000000000E+01 0.  1.
         -5    1    1    2    0  502  0.30084002186E+02 -0.12430227338E+03 -0.81114304397E+03  0.82117673502E+03  0.47000000000E+01 0.  1.
        -11    1    1    2    0    0  0.95016149464E+01  0.10571006927E+03 -0.45673861172E+03  0.46890836937E+03  0.00000000000E+00 0. -1.
         11    1    1    2    0    0  0.99793373797E+01  0.77861535951E+02 -0.11692025351E+03  0.14082738241E+03  0.00000000000E+00 0.  1.
<mgrwt>
<rscale>  0 0.21874570E+03</rscale>
<asrwt>0</asrwt>
<pdfrwt beam="2">  1        1 0.24918695E+00 0.22294253E+03</pdfrwt>
<pdfrwt beam="1">  1       -1 0.46347121E-02 0.22294253E+03</pdfrwt>
<totfact> 0.11804628E+03</totfact>
</mgrwt>
</event>
<event>
 6    1  0.4705246E-006  0.1279977E+03  0.7546771E-02  0.1245810E+00
         -2   -1    0    0    0  501 -0.00000000000E+00  0.00000000000E+00  0.28700573942E+02  0.28700573942E+02  0.00000000000E+00 0.  1.
          2   -1    0    0  501    0  0.00000000000E+00 -0.00000000000E+00 -0.42839362287E+03  0.42839362287E+03  0.00000000000E+00 0. -1.
          5    1    1    2  502    0 -0.46683295948E+01  0.48918929142E+02 -0.22108403452E+03  0.22652835418E+03  0.47000000000E+01 0. -1.
         -5    1    1    2    0  502  0.25849944995E+02 -0.31312741110E+02 -0.18000982183E+02  0.44663550818E+02  0.47000000000E+01 0. -1.
        -11    1    1    2    0    0 -0.11354153492E+02  0.35930546539E+02 -0.82510926104E+02  0.90708179910E+02  0.00000000000E+00 0. -1.
         11    1    1    2    0    0 -0.98274619082E+01 -0.53536734570E+02 -0.78097106121E+02  0.95194111900E+02  0.00000000000E+00 0.  1.
<mgrwt>
<rscale>  0 0.11837059E+03</rscale>
<asrwt>0</asrwt>
<pdfrwt beam="2">  1        2 0.65906710E-01 0.12799767E+03</pdfrwt>
<pdfrwt beam="1">  1       -2 0.44154730E-02 0.12799767E+03</pdfrwt>
<totfact> 0.16412610E+04</totfact>
</mgrwt>
</event>
<event>
 6    1  0.4705246E-006  0.1577156E+03  0.7546771E-02  0.1216632E+00
         -2   -1    0    0    0  501 -0.00000000000E+00  0.00000000000E+00  0.14165612312E+03  0.14165612312E+03  0.00000000000E+00 0.  1.
          2   -1    0    0  501    0  0.00000000000E+00 -0.00000000000E+00 -0.11363806039E+03  0.11363806039E+03  0.00000000000E+00 0. -1.
          5    1    1    2  502    0  0.17611612631E+02  0.72793139999E+02  0.26839585820E+02  0.79696069523E+02  0.47000000000E+01 0. -1.
         -5    1    1    2    0  502 -0.20396351479E+02 -0.67709321984E+02 -0.32902788923E+02  0.78136079734E+02  0.47000000000E+01 0.  1.
        -11    1    1    2    0    0 -0.26359764022E+02 -0.17917108507E+02  0.51948830502E+02  0.60947033784E+02  0.00000000000E+00 0.  1.
         11    1    1    2    0    0  0.29144502870E+02  0.12833290493E+02 -0.17867564666E+02  0.36515000473E+02  0.00000000000E+00 0. -1.
<mgrwt>
<rscale>  0 0.13757337E+03</rscale>
<asrwt>0</asrwt>
<pdfrwt beam="2">  1        2 0.17482779E-01 0.15771565E+03</pdfrwt>
<pdfrwt beam="1">  1       -2 0.21793250E-01 0.15771565E+03</pdfrwt>
<totfact> 0.56519385E+03</totfact>
</mgrwt>
</event>
<event>
 6    1  0.6562208E-006  0.2723074E+03  0.7546771E-02  0.1101975E+00
          1   -1    0    0  501    0  0.00000000000E+00  0.00000000000E+00  0.36246591182E+03  0.36246591182E+03  0.00000000000E+00 0. -1.
         -1   -1    0    0    0  501 -0.00000000000E+00 -0.00000000000E+00 -0.19446184491E+03  0.19446184491E+03  0.00000000000E+00 0.  1.
          5    1    1    2  502    0  0.39174149371E+02  0.77818051788E+02  0.54724065560E+02  0.10299066227E+03  0.47000000000E+01 0. -1.
         -5    1    1    2    0  502  0.17863525951E+03  0.27463978224E+02  0.38644764813E+02  0.18487924136E+03  0.47000000000E+01 0. -1.
        -11    1    1    2    0    0 -0.13091970260E+03 -0.13398397392E+02  0.30265445229E+02  0.13503881945E+03  0.00000000000E+00 0.  1.
         11    1    1    2    0    0 -0.86889706276E+02 -0.91883632621E+02  0.44369791313E+02  0.13401903365E+03  0.00000000000E+00 0. -1.
<mgrwt>
<rscale>  0 0.26878766E+03</rscale>
<asrwt>0</asrwt>
<pdfrwt beam="1">  1        1 0.55763986E-01 0.27230744E+03</pdfrwt>
<pdfrwt beam="2">  1       -1 0.29917207E-01 0.27230744E+03</pdfrwt>
<totfact> 0.70875196E+02</totfact>
</mgrwt>
</event>
<event>
 6    1  0.4705246E-006  0.1471572E+03  0.7546771E-02  0.1209040E+00
          1   -1    0    0  501    0  0.00000000000E+00  0.00000000000E+00  0.97475208494E+02  0.97475208494E+02  0.00000000000E+00 0. -1.
         -1   -1    0    0    0  501 -0.00000000000E+00 -0.00000000000E+00 -0.26253749919E+03  0.26253749919E+03  0.00000000000E+00 0.  1.
          5    1    1    2  502    0 -0.30387905507E+02  0.74488759511E+02  0.44731131081E+02  0.92168129971E+02  0.47000000000E+01 0.  1.
         -5    1    1    2    0  502  0.29261419830E+02  0.17516186114E+02 -0.42894306203E+02  0.55000536098E+02  0.47000000000E+01 0. -1.
        -11    1    1    2    0    0 -0.16015983101E+02 -0.10270111083E+03 -0.10506672687E+03  0.14779393417E+03  0.00000000000E+00 0. -1.
         11    1    1    2    0    0  0.17142468779E+02  0.10696165209E+02 -0.61832388703E+02  0.65050107446E+02  0.00000000000E+00 0.  1.
<mgrwt>
<rscale>  0 0.14323597E+03</rscale>
<asrwt>0</asrwt>
<pdfrwt beam="1">  1        1 0.14996186E-01 0.14715720E+03</pdfrwt>
<pdfrwt beam="2">  1       -1 0.40390385E-01 0.14715720E+03</pdfrwt>
<totfact> 0.22045887E+03</totfact>
</mgrwt>
</event>
<event>
 6    1  0.4705246E-006  0.1414938E+03  0.7546771E-02  0.1222382E+00
          3   -1    0    0  501    0  0.00000000000E+00  0.00000000000E+00  0.55479884078E+03  0.55479884078E+03  0.00000000000E+00 0. -1.
         -3   -1    0    0    0  501 -0.00000000000E+00 -0.00000000000E+00 -0.36958683430E+02  0.36958683430E+02  0.00000000000E+00 0.  1.
          5    1    1    2  502    0  0.25410501949E+02  0.16524207867E+01  0.24330508652E+03  0.24467913526E+03  0.47000000000E+01 0. -1.
         -5    1    1    2    0  502 -0.87934097066E+02  0.20413065704E+02  0.17601003867E+03  0.19786541485E+03  0.47000000000E+01 0. -1.
        -11    1    1    2    0    0  0.58545680426E+02 -0.60834240206E+01  0.10660856172E+02  0.59818547280E+02  0.00000000000E+00 0.  1.
         11    1    1    2    0    0  0.39779146915E+01 -0.15982062470E+02  0.87864175987E+02  0.89394426828E+02  0.00000000000E+00 0. -1.
<mgrwt>
<rscale>  0 0.13347972E+03</rscale>
<asrwt>0</asrwt>
<pdfrwt beam="1">  1        3 0.85353662E-01 0.14149383E+03</pdfrwt>
<pdfrwt beam="2">  1       -3 0.56859517E-02 0.14149383E+03</pdfrwt>
<totfact> 0.56032498E+02</totfact>
</mgrwt>
</event>
<event>
 6    1  0.6549830E-006  0.2490583E+03  0.7546771E-02  0.1116147E+00
         -1   -1    0    0    0  501 -0.00000000000E+00  0.00000000000E+00  0.65236466123E+02  0.65236466123E+02  0.00000000000E+00 0.  1.
          1   -1    0    0  501    0  0.00000000000E+00 -0.00000000000E+00 -0.90360651958E+03  0.90360651958E+03  0.00000000000E+00 0. -1.
          5    1    1    2  502    0 -0.22454855723E+03  0.68406274148E+01 -0.35041010072E+03  0.41626695452E+03  0.47000000000E+01 0.  1.
         -5    1    1    2    0  502  0.96250584813E+01 -0.21422472769E+02 -0.46681451696E+02  0.52467247143E+02  0.47000000000E+01 0.  1.
        -11    1    1    2    0    0  0.57676467160E+02 -0.36967796318E+02 -0.15457342461E+03  0.16907435177E+03  0.00000000000E+00 0. -1.
         11    1    1    2    0    0  0.15724703159E+03  0.51549641673E+02 -0.28670507642E+03  0.33103443227E+03  0.00000000000E+00 0.  1.
<mgrwt>
<rscale>  0 0.24555397E+03</rscale>
<asrwt>0</asrwt>
<pdfrwt beam="2">  1        1 0.13901637E+00 0.24905833E+03</pdfrwt>
<pdfrwt beam="1">  1       -1 0.10036380E-01 0.24905833E+03</pdfrwt>
<totfact> 0.11515229E+03</totfact>
</mgrwt>
</event>
<event>
 6    1  0.4705246E-006  0.1855582E+03  0.7546771E-02  0.1188053E+00
          2   -1    0    0  501    0  0.00000000000E+00  0.00000000000E+00  0.46838710391E+03  0.46838710391E+03  0.00000000000E+00 0. -1.
         -2   -1    0    0    0  501 -0.00000000000E+00 -0.00000000000E+00 -0.44777498208E+02  0.44777498208E+02  0.00000000000E+00 0.  1.
          5    1    1    2  502    0 -0.38414560588E+02 -0.92763848137E+02  0.14295910742E+03  0.17475756458E+03  0.47000000000E+01 0. -1.
         -5    1    1    2    0  502  0.82951708945E+02  0.17518641798E+02  0.13236953893E+03  0.15726307152E+03  0.47000000000E+01 0.  1.
        -11    1    1    2    0    0 -0.37821603895E+02  0.12982610373E+02  0.72870429109E+02  0.83121124462E+02  0.00000000000E+00 0. -1.
         11    1    1    2    0    0 -0.67155444618E+01  0.62262595966E+02  0.75410530246E+02  0.98022841552E+02  0.00000000000E+00 0.  1.
<mgrwt>
<rscale>  0 0.16057135E+03</rscale>
<asrwt>0</asrwt>
<pdfrwt beam="1">  1        2 0.72059551E-01 0.18555818E+03</pdfrwt>
<pdfrwt beam="2">  1       -2 0.68888462E-02 0.18555818E+03</pdfrwt>
<totfact> 0.77961537E+03</totfact>
</mgrwt>
</event>
<event>
 6    1  0.4705246E-006  0.1277614E+03  0.7546771E-02  0.1244486E+00
          2   -1    0    0  501    0  0.00000000000E+00  0.00000000000E+00  0.49854965370E+03  0.49854965370E+03  0.00000000000E+00 0. -1.
         -2   -1    0    0    0  501 -0.00000000000E+00 -0.00000000000E+00 -0.50181957258E+02  0.50181957258E+02  0.00000000000E+00 0.  1.
          5    1    1    2  502    0 -0.51483335955E+02 -0.19564213443E+02  0.88385772046E+02  0.10424695213E+03  0.47000000000E+01 0.  1.
         -5    1    1    2    0  502  0.28014979162E+02  0.31715394619E+02  0.34383564278E+03  0.34646175050E+03  0.47000000000E+01 0.  1.
        -11    1    1    2    0    0  0.11476986680E+02 -0.36546194827E+02 -0.27114178893E+02  0.46931058763E+02  0.00000000000E+00 0.  1.
         11    1    1    2    0    0  0.11991370113E+02  0.24395013651E+02  0.43260460510E+02  0.51091849563E+02  0.00000000000E+00 0. -1.
<mgrwt>
<rscale>  0 0.11916218E+03</rscale>
<asrwt>0</asrwt>
<pdfrwt beam="1">  1        2 0.76699943E-01 0.12776143E+03</pdfrwt>
<pdfrwt beam="2">  1       -2 0.77203014E-02 0.12776143E+03</pdfrwt>
<totfact> 0.59806050E+03</totfact>
</mgrwt>
</event>
<event>
 6    1  0.4705246E-006  0.1367035E+03  0.7546771E-02  0.1229803E+00
         -1   -1    0    0    0  501 -0.00000000000E+00  0.00000000000E+00  0.29447750366E+03  0.29447750366E+03  0.00000000000E+00 0. -1.
          1   -1    0    0  501    0  0.00000000000E+00 -0.00000000000E+00 -0.51160903010E+02  0.51160903010E+02  0.00000000000E+00 0.  1.
          5    1    1    2  502    0  0.15876956241E+02 -0.61774166169E+02  0.24134622798E+01  0.64000313636E+02  0.47000000000E+01 0.  1.
         -5    1    1    2    0  502 -0.23222375401E+02  0.69657896262E+01  0.11073413701E+03  0.11345457260E+03  0.47000000000E+01 0.  1.
        -11    1    1    2    0    0 -0.18199358529E+02 -0.19931687885E+02  0.26206474350E+02  0.37620049584E+02  0.00000000000E+00 0. -1.
         11    1    1    2    0    0  0.25544777689E+02  0.74740064428E+02  0.10396252700E+03  0.13056347084E+03  0.00000000000E+00 0.  1.
<mgrwt>
<rscale>  0 0.12843096E+03</rscale>
<asrwt>0</asrwt>
<pdfrwt beam="2">  1        1 0.78709083E-02 0.13670354E+03</pdfrwt>
<pdfrwt beam="1">  1       -1 0.45304230E-01 0.13670354E+03</pdfrwt>
<totfact> 0.41970016E+03</totfact>
</mgrwt>
</event>
<event>
 6    1  0.4705246E-006  0.1250565E+03  0.7546771E-02  0.1250420E+00
          2   -1    0    0  501    0  0.00000000000E+00  0.00000000000E+00  0.76631685491E+03  0.76631685491E+03  0.00000000000E+00 0.  1.
         -2   -1    0    0    0  501 -0.00000000000E+00 -0.00000000000E+00 -0.16748943020E+02  0.16748943020E+02  0.00000000000E+00 0. -1.
          5    1    1    2  502    0 -0.28101540324E+01 -0.22331353755E+01  0.54657432147E+03  0.54660631422E+03  0.47000000000E+01 0.  1.
         -5    1    1    2    0  502  0.50615433334E+01  0.35685928676E+01 -0.49838191885E+01  0.92348540689E+01  0.47000000000E+01 0.  1.
        -11    1    1    2    0    0 -0.26473867676E+02 -0.35133043242E+02  0.14683231324E+03  0.15328054217E+03  0.00000000000E+00 0.  1.
         11    1    1    2    0    0  0.24222478375E+02  0.33797585750E+02  0.61145096377E+02  0.73944087472E+02  0.00000000000E+00 0. -1.
<mgrwt>
<rscale>  0 0.11566770E+03</rscale>
<asrwt>0</asrwt>
<pdfrwt beam="1">  1        2 0.11789487E+00 0.12505652E+03</pdfrwt>
<pdfrwt beam="2">  1       -2 0.25767611E-02 0.12505652E+03</pdfrwt>
<totfact> 0.18769227E+04</totfact>
</mgrwt>
</event>
<event>
 6    1  0.4705246E-006  0.1660454E+03  0.7546771E-02  0.1186564E+00
         -1   -1    0    0    0  501 -0.00000000000E+00  0.00000000000E+00  0.69501925850E+02  0.69501925850E+02  0.00000000000E+00 0.  1.
          1   -1    0    0  501    0  0.00000000000E+00 -0.00000000000E+00 -0.11165862042E+04  0.11165862042E+04  0.00000000000E+00 0. -1.
          5    1    1    2  502    0  0.68482959889E+02 -0.45348091497E+02 -0.94931013577E+03  0.95286840071E+03  0.47000000000E+01 0. -1.
         -5    1    1    2    0  502  0.22068188365E+02 -0.31412299032E+02 -0.70872324357E+02  0.80738552303E+02  0.47000000000E+01 0.  1.
        -11    1    1    2    0    0 -0.47477031130E+02 -0.29640212491E+01 -0.38404831075E+02  0.61137426809E+02  0.00000000000E+00 0. -1.
         11    1    1    2    0    0 -0.43074117125E+02  0.79724411778E+02  0.11503012859E+02  0.91343750220E+02  0.00000000000E+00 0.  1.
<mgrwt>
<rscale>  0 0.16190401E+03</rscale>
<asrwt>0</asrwt>
<pdfrwt beam="2">  1        1 0.17178251E+00 0.16604542E+03</pdfrwt>
<pdfrwt beam="1">  1       -1 0.10692603E-01 0.16604542E+03</pdfrwt>
<totfact> 0.72843746E+02</totfact>
</mgrwt>
</event>
<event>
 6    1  0.4705246E-006  0.1619407E+03  0.7546771E-02  0.1194172E+00
          2   -1    0    0  501    0  0.00000000000E+00  0.00000000000E+00  0.17361766826E+04  0.17361766826E+04  0.00000000000E+00 0.  1.
         -2   -1    0    0    0  501 -0.00000000000E+00 -0.00000000000E+00 -0.13221127482E+02  0.13221127482E+02  0.00000000000E+00 0. -1.
          5    1    1    2  502    0  0.27672290793E+02  0.28541447903E+02  0.23693322218E+03  0.24029109784E+03  0.47000000000E+01 0. -1.
         -5    1    1    2    0  502 -0.12036624348E+03  0.16251188042E+02  0.84137469666E+03  0.85010917173E+03  0.47000000000E+01 0. -1.
        -11    1    1    2    0    0  0.78919504568E+02 -0.67156814699E+02  0.58056981069E+03  0.58974539511E+03  0.00000000000E+00 0.  1.
         11    1    1    2    0    0  0.13774448117E+02  0.22364178754E+02  0.64077825606E+02  0.69252145430E+02  0.00000000000E+00 0. -1.
<mgrwt>
<rscale>  0 0.15524513E+03</rscale>
<asrwt>0</asrwt>
<pdfrwt beam="1">  1        2 0.26710392E+00 0.16194067E+03</pdfrwt>
<pdfrwt beam="2">  1       -2 0.20340210E-02 0.16194067E+03</pdfrwt>
<totfact> 0.76179106E+03</totfact>
</mgrwt>
</event>
<event>
 6    1  0.4705246E-006  0.1285281E+03  0.7546771E-02  0.1242338E+00
          2   -1    0    0  501    0  0.00000000000E+00  0.00000000000E+00  0.10864054108E+04  0.10864054108E+04  0.00000000000E+00 0.  1.
         -2   -1    0    0    0  501 -0.00000000000E+00 -0.00000000000E+00 -0.15295623540E+02  0.15295623540E+02  0.00000000000E+00 0. -1.
          5    1    1    2  502    0 -0.19875929294E+02  0.42196935456E+02  0.54582450429E+03  0.54783401995E+03  0.47000000000E+01 0.  1.
         -5    1    1    2    0  502  0.49267834105E+02 -0.47245028392E+02  0.30025839115E+03  0.30795552218E+03  0.47000000000E+01 0.  1.
        -11    1    1    2    0    0 -0.62949738264E+02  0.12915648046E+02  0.15725472545E+03  0.16987799207E+03  0.00000000000E+00 0.  1.
         11    1    1    2    0    0  0.33557833454E+02 -0.78675551107E+01  0.67772166317E+02  0.76033500096E+02  0.00000000000E+00 0. -1.
<mgrwt>
<rscale>  0 0.12046125E+03</rscale>
<asrwt>0</asrwt>
<pdfrwt beam="1">  1        2 0.16713923E+00 0.12852811E+03</pdfrwt>
<pdfrwt beam="2">  1       -2 0.23531737E-02 0.12852811E+03</pdfrwt>
<totfact> 0.13558549E+04</totfact>
</mgrwt>
</event>
<event>
 6    1  0.4705246E-006  0.1284377E+03  0.7546771E-02  0.1243623E+00
          3   -1    0    0  501    0  0.00000000000E+00  0.00000000000E+00  0.38111762063E+03  0.38111762063E+03  0.00000000000E+00 0. -1.
         -3   -1    0    0    0  501 -0.00000000000E+00 -0.00000000000E+00 -0.33292041357E+02  0.33292041357E+02  0.00000000000E+00 0.  1.
          5    1    1    2  502    0  0.41503936983E+02  0.30702202214E+02  0.14519149650E+03  0.15416829331E+03  0.47000000000E+01 0. -1.
         -5    1    1    2    0  502 -0.26373221115E+02 -0.56028306083E+02  0.51173703664E+02  0.80470838328E+02  0.47000000000E+01 0. -1.
        -11    1    1    2    0    0 -0.42268547822E+02  0.10059935303E+02  0.26286323591E+02  0.50781918448E+02  0.00000000000E+00 0.  1.
         11    1    1    2    0    0  0.27137831953E+02  0.15266168566E+02  0.12517405552E+03  0.12898861190E+03  0.00000000000E+00 0. -1.
<mgrwt>
<rscale>  0 0.11968188E+03</rscale>
<asrwt>0</asrwt>
<pdfrwt beam="1">  1        3 0.58633477E-01 0.12843765E+03</pdfrwt>
<pdfrwt beam="2">  1       -3 0.51218528E-02 0.12843765E+03</pdfrwt>
<totfact> 0.14441867E+03</totfact>
</mgrwt>
</event>
<event>
 6    1  0.4705246E-006  0.1321939E+03  0.7546771E-02  0.1236994E+00
          1   -1    0    0  501    0  0.00000000000E+00  0.00000000000E+00  0.82240276474E+02  0.82240276474E+02  0.00000000000E+00 0. -1.
         -1   -1    0    0    0  501 -0.00000000000E+00 -0.00000000000E+00 -0.16629143678E+03  0.16629143678E+03  0.00000000000E+00 0.  1.
          5    1    1    2  502    0 -0.40158544214E+02 -0.38443482697E+02 -0.68772518779E+02  0.88557096692E+02  0.47000000000E+01 0.  1.
         -5    1    1    2    0  502 -0.13555656686E+01  0.49762728549E+02  0.17868044007E+02  0.53099187447E+02  0.47000000000E+01 0.  1.
        -11    1    1    2    0    0 -0.17383801737E+02  0.18880309010E+02 -0.31546040111E+02  0.40667127731E+02  0.00000000000E+00 0.  1.
         11    1    1    2    0    0  0.58897911620E+02 -0.30199554861E+02 -0.16006454259E+01  0.66208301389E+02  0.00000000000E+00 0. -1.
<mgrwt>
<rscale>  0 0.12377640E+03</rscale>
<asrwt>0</asrwt>
<pdfrwt beam="1">  1        1 0.12652350E-01 0.13219394E+03</pdfrwt>
<pdfrwt beam="2">  1       -1 0.25583298E-01 0.13219394E+03</pdfrwt>
<totfact> 0.59391522E+03</totfact>
</mgrwt>
</event>
<event>
 6    1  0.4705246E-006  0.2929362E+03  0.7546771E-02  0.1088826E+00
         -2   -1    0    0    0  501 -0.00000000000E+00  0.00000000000E+00  0.23615701897E+02  0.23615701897E+02  0.00000000000E+00 0. -1.
          2   -1    0    0  501    0  0.00000000000E+00 -0.00000000000E+00 -0.90841719142E+03  0.90841719142E+03  0.00000000000E+00 0.  1.
          5    1    1    2  502    0  0.40844572467E+02 -0.99912200818E+02 -0.46402263677E+03  0.47643449120E+03  0.47000000000E+01 0.  1.
         -5    1    1    2    0  502 -0.90865557123E+01  0.33672476294E+02 -0.21867287262E+03  0.22148660541E+03  0.47000000000E+01 0.  1.
        -11    1    1    2    0    0 -0.51837222017E+02  0.34423894488E+01 -0.81157208546E+02  0.96360988634E+02  0.00000000000E+00 0.  1.
         11    1    1    2    0    0  0.20079205263E+02  0.62797335075E+02 -0.12094877158E+03  0.13775080806E+03  0.00000000000E+00 0. -1.
<mgrwt>
<rscale>  0 0.29293624E+03</rscale>
<asrwt>0</asrwt>
<pdfrwt beam="2">  1        2 0.13975647E+00 0.29293624E+03</pdfrwt>
<pdfrwt beam="1">  1       -2 0.36331856E-02 0.29293624E+03</pdfrwt>
<totfact> 0.95310268E+03</totfact>
</mgrwt>
</event>
<event>
 6    1  0.4705246E-006  0.1252081E+03  0.7546771E-02  0.1250390E+00
          2   -1    0    0  501    0  0.00000000000E+00  0.00000000000E+00  0.65334972682E+02  0.65334972682E+02  0.00000000000E+00 0. -1.
         -2   -1    0    0    0  501 -0.00000000000E+00 -0.00000000000E+00 -0.19299667667E+03  0.19299667667E+03  0.00000000000E+00 0.  1.
          5    1    1    2  502    0 -0.49965255759E+01  0.59448247298E+02 -0.37278131928E+02  0.70503960843E+02  0.47000000000E+01 0. -1.
         -5    1    1    2    0  502 -0.21637748953E+01 -0.60416817115E+02 -0.18149074176E+01  0.60665126729E+02  0.47000000000E+01 0. -1.
        -11    1    1    2    0    0  0.42320693423E+02 -0.20652722163E+02 -0.62830521495E+02  0.78519108858E+02  0.00000000000E+00 0.  1.
         11    1    1    2    0    0 -0.35160392951E+02  0.21621291980E+02 -0.25738143144E+02  0.48643452919E+02  0.00000000000E+00 0. -1.
<mgrwt>
<rscale>  0 0.11568531E+03</rscale>
<asrwt>0</asrwt>
<pdfrwt beam="1">  1        2 0.10051534E-01 0.12520808E+03</pdfrwt>
<pdfrwt beam="2">  1       -2 0.29691796E-01 0.12520808E+03</pdfrwt>
<totfact> 0.62440092E+03</totfact>
</mgrwt>
</event>
<event>
 6    1  0.4705246E-006  0.3344330E+03  0.7546771E-02  0.1069192E+00
         -1   -1    0    0    0  501 -0.00000000000E+00  0.00000000000E+00  0.12206983064E+03  0.12206983064E+03  0.00000000000E+00 0.  1.
          1   -1    0    0  501    0  0.00000000000E+00 -0.00000000000E+00 -0.22906041362E+03  0.22906041362E+03  0.00000000000E+00 0. -1.
          5    1    1    2  502    0  0.40331395332E+02  0.76163086356E+02 -0.39534224217E+02  0.94934093229E+02  0.47000000000E+01 0. -1.
         -5    1    1    2    0  502 -0.18009268739E+01 -0.10225165384E+02 -0.12436303825E+03  0.12488415683E+03  0.47000000000E+01 0. -1.
        -11    1    1    2    0    0 -0.19387527743E+02 -0.86819039701E+02  0.50413425409E+02  0.10224937823E+03  0.00000000000E+00 0.  1.
         11    1    1    2    0    0 -0.19142940716E+02  0.20881118729E+02  0.64932540822E+01  0.29062615973E+02  0.00000000000E+00 0. -1.
<mgrwt>
<rscale>  0 0.33443305E+03</rscale>
<asrwt>0</asrwt>
<pdfrwt beam="2">  1        1 0.35240063E-01 0.33443305E+03</pdfrwt>
<pdfrwt beam="1">  1       -1 0.18779974E-01 0.33443305E+03</pdfrwt>
<totfact> 0.27639395E+03</totfact>
</mgrwt>
</event>
<event>
 6    1  0.4705246E-006  0.1379929E+03  0.7546771E-02  0.1227739E+00
         -1   -1    0    0    0  501 -0.00000000000E+00  0.00000000000E+00  0.12091246662E+03  0.12091246662E+03  0.00000000000E+00 0.  1.
          1   -1    0    0  501    0  0.00000000000E+00 -0.00000000000E+00 -0.12958539291E+03  0.12958539291E+03  0.00000000000E+00 0. -1.
          5    1    1    2  502    0 -0.92930629343E+02  0.16847782630E+02 -0.11886634564E+02  0.95306514630E+02  0.47000000000E+01 0. -1.
         -5    1    1    2    0  502  0.41087299086E+02  0.10157059731E+02 -0.15902364356E+02  0.45456651886E+02  0.47000000000E+01 0. -1.
        -11    1    1    2    0    0  0.91234814413E+01  0.30253225986E+02  0.21561384092E+02  0.38254266169E+02  0.00000000000E+00 0.  1.
         11    1    1    2    0    0  0.42719848815E+02 -0.57258068348E+02 -0.24453114603E+01  0.71480426844E+02  0.00000000000E+00 0. -1.
<mgrwt>
<rscale>  0 0.12980924E+03</rscale>
<asrwt>0</asrwt>
<pdfrwt beam="2">  1        1 0.19936214E-01 0.13799290E+03</pdfrwt>
<pdfrwt beam="1">  1       -1 0.18601918E-01 0.13799290E+03</pdfrwt>
<totfact> 0.55520798E+03</totfact>
</mgrwt>
</event>
<event>
 6    1  0.4705246E-006  0.1427048E+03  0.7546771E-02  0.1220366E+00
         -1   -1    0    0    0  501 -0.00000000000E+00  0.00000000000E+00  0.29385135812E+02  0.29385135812E+02  0.00000000000E+00 0.  1.
          1   -1    0    0  501    0  0.00000000000E+00 -0.00000000000E+00 -0.58809794671E+03  0.58809794671E+03  0.00000000000E+00 0. -1.
          5    1    1    2  502    0 -0.61229222301E+02 -0.58869357403E+02 -0.37407082392E+03  0.38362180622E+03  0.47000000000E+01 0. -1.
         -5    1    1    2    0  502  0.72722612430E+01  0.16107668114E+02 -0.17385990570E+01  0.18369961414E+02  0.47000000000E+01 0. -1.
        -11    1    1    2    0    0  0.71521022932E+02  0.46733188428E+02 -0.10416706663E+03  0.13472203009E+03  0.00000000000E+00 0. -1.
         11    1    1    2    0    0 -0.17564061874E+02 -0.39714991387E+01 -0.78736321290E+02  0.80769284789E+02  0.00000000000E+00 0.  1.
<mgrwt>
<rscale>  0 0.13489635E+03</rscale>
<asrwt>0</asrwt>
<pdfrwt beam="2">  1        1 0.90476606E-01 0.14270480E+03</pdfrwt>
<pdfrwt beam="1">  1       -1 0.45207902E-02 0.14270480E+03</pdfrwt>
<totfact> 0.71349983E+03</totfact>
</mgrwt>
</event>
<event>
 6    1  0.4705246E-006  0.1431738E+03  0.7546771E-02  0.1220315E+00
          2   -1    0    0  501    0  0.00000000000E+00  0.00000000000E+00  0.16457964178E+04  0.16457964178E+04  0.00000000000E+00 0. -1.
         -2   -1    0    0    0  501 -0.00000000000E+00 -0.00000000000E+00 -0.11735499344E+02  0.11735499344E+02  0.00000000000E+00 0.  1.
          5    1    1    2  502    0 -0.47836782341E+02  0.92686167213E+02  0.90256183677E+03  0.90858078481E+03  0.47000000000E+01 0. -1.
         -5    1    1    2    0  502  0.28734193705E+02 -0.25525682505E+02  0.31638380761E+03  0.31874444006E+03  0.47000000000E+01 0. -1.
        -11    1    1    2    0    0  0.47283116987E+02 -0.66831657675E+02  0.34627597727E+03  0.35582188810E+03  0.00000000000E+00 0. -1.
         11    1    1    2    0    0 -0.28180528351E+02 -0.32882703365E+00  0.68839296808E+02  0.74384804163E+02  0.00000000000E+00 0.  1.
<mgrwt>
<rscale>  0 0.13493251E+03</rscale>
<asrwt>0</asrwt>
<pdfrwt beam="1">  1        2 0.25319927E+00 0.14317375E+03</pdfrwt>
<pdfrwt beam="2">  1       -2 0.18054627E-02 0.14317375E+03</pdfrwt>
<totfact> 0.10045234E+04</totfact>
</mgrwt>
</event>
<event>
 6    1  0.4705246E-006  0.1641558E+03  0.7546771E-02  0.1191366E+00
         -2   -1    0    0    0  501 -0.00000000000E+00  0.00000000000E+00  0.25975412996E+02  0.25975412996E+02  0.00000000000E+00 0.  1.
          2   -1    0    0  501    0  0.00000000000E+00 -0.00000000000E+00 -0.10039589387E+04  0.10039589387E+04  0.00000000000E+00 0. -1.
          5    1    1    2  502    0  0.10605454196E+03 -0.17747204131E+02 -0.65682790502E+03  0.66558809780E+03  0.47000000000E+01 0. -1.
         -5    1    1    2    0  502 -0.42443885753E+00  0.30515410964E+02 -0.41226091262E+02  0.51507776650E+02  0.47000000000E+01 0. -1.
        -11    1    1    2    0    0 -0.90455474441E+02 -0.45565950756E+02 -0.17948128521E+03  0.20608731273E+03  0.00000000000E+00 0.  1.
         11    1    1    2    0    0 -0.15174628663E+02  0.32797743924E+02 -0.10044824425E+03  0.10675116456E+03  0.00000000000E+00 0. -1.
<mgrwt>
<rscale>  0 0.15765833E+03</rscale>
<asrwt>0</asrwt>
<pdfrwt beam="2">  1        2 0.15445523E+00 0.16415575E+03</pdfrwt>
<pdfrwt beam="1">  1       -2 0.39962172E-02 0.16415575E+03</pdfrwt>
<totfact> 0.70335246E+03</totfact>
</mgrwt>
</event>
<event>
 6    1  0.4705246E-006  0.1647181E+03  0.7546771E-02  0.1190343E+00
          4   -1    0    0  501    0  0.00000000000E+00  0.00000000000E+00  0.10309240453E+03  0.10309240453E+03  0.00000000000E+00 0. -1.
         -4   -1    0    0    0  501 -0.00000000000E+00 -0.00000000000E+00 -0.23381117100E+03  0.23381117100E+03  0.00000000000E+00 0.  1.
          5    1    1    2  502    0 -0.15011687077E+02  0.19933084370E+02 -0.42664508172E+02  0.49649056979E+02  0.47000000000E+01 0.  1.
         -5    1    1    2    0  502  0.42935624736E+02 -0.12350493794E+03 -0.55686053764E+02  0.14219692033E+03  0.47000000000E+01 0.  1.
        -11    1    1    2    0    0 -0.58484855882E+02  0.89726832693E+02 -0.18208802611E+02  0.10864135200E+03  0.00000000000E+00 0. -1.
         11    1    1    2    0    0  0.30560918223E+02  0.13845020876E+02 -0.14159401927E+02  0.36416246218E+02  0.00000000000E+00 0.  1.
<mgrwt>
<rscale>  0 0.15855080E+03</rscale>
<asrwt>0</asrwt>
<pdfrwt beam="1">  1        4 0.15860370E-01 0.16471808E+03</pdfrwt>
<pdfrwt beam="2">  1       -4 0.35970949E-01 0.16471808E+03</pdfrwt>
<totfact> 0.44065521E+02</totfact>
</mgrwt>
</event>
<event>
 6    1  0.4705246E-006  0.4719421E+03  0.7546771E-02  0.1021373E+00
         -3   -1    0    0    0  501 -0.00000000000E+00  0.00000000000E+00  0.17196702175E+03  0.17196702175E+03  0.00000000000E+00 0.  1.
          3   -1    0    0  501    0  0.00000000000E+00 -0.00000000000E+00 -0.32379660779E+03  0.32379660779E+03  0.00000000000E+00 0. -1.
          5    1    1    2  502    0 -0.39025100918E+02  0.15920442653E+03 -0.20298205104E+03  0.26094599244E+03  0.47000000000E+01 0.  1.
         -5    1    1    2    0  502  0.15075093276E+02 -0.19318670858E+02 -0.36423465913E+02  0.44150066253E+02  0.47000000000E+01 0.  1.
        -11    1    1    2    0    0  0.54622600481E+02 -0.50416888615E+02  0.45469961257E+02  0.87137870743E+02  0.00000000000E+00 0. -1.
         11    1    1    2    0    0 -0.30672592839E+02 -0.89468867053E+02  0.42105969658E+02  0.10352970011E+03  0.00000000000E+00 0.  1.
<mgrwt>
<rscale>  0 0.47194211E+03</rscale>
<asrwt>0</asrwt>
<pdfrwt beam="2">  1        3 0.49814862E-01 0.47194211E+03</pdfrwt>
<pdfrwt beam="1">  1       -3 0.26456465E-01 0.47194211E+03</pdfrwt>
<totfact> 0.14256207E+02</totfact>
</mgrwt>
</event>
<event>
 6    1  0.4705246E-006  0.1615940E+03  0.7546771E-02  0.1193650E+00
          2   -1    0    0  501    0  0.00000000000E+00  0.00000000000E+00  0.91718973921E+03  0.91718973921E+03  0.00000000000E+00 0. -1.
         -2   -1    0    0    0  501 -0.00000000000E+00 -0.00000000000E+00 -0.66556041027E+02  0.66556041027E+02  0.00000000000E+00 0.  1.
          5    1    1    2  502    0 -0.12122093588E+02  0.11391417231E+03  0.70946864418E+03  0.71867324347E+03  0.47000000000E+01 0. -1.
         -5    1    1    2    0  502 -0.32526617432E+02 -0.21740997654E+02  0.11737270222E+03  0.12381071459E+03  0.47000000000E+01 0. -1.
        -11    1    1    2    0    0  0.68886222068E+02 -0.85421421733E+02  0.49862997372E+01  0.10984987058E+03  0.00000000000E+00 0.  1.
         11    1    1    2    0    0 -0.24237511048E+02 -0.67517529253E+01  0.18806052040E+02  0.31411951591E+02  0.00000000000E+00 0. -1.
<mgrwt>
<rscale>  0 0.15569074E+03</rscale>
<asrwt>0</asrwt>
<pdfrwt beam="1">  1        2 0.14110610E+00 0.16159396E+03</pdfrwt>
<pdfrwt beam="2">  1       -2 0.10239392E-01 0.16159396E+03</pdfrwt>
<totfact> 0.18814302E+03</totfact>
</mgrwt>
</event>
<event>
 6    1  0.4705246E-006  0.1738020E+03  0.7546771E-02  0.1176951E+00
          2   -1    0    0  501    0  0.00000000000E+00  0.00000000000E+00  0.16227579398E+04  0.16227579398E+04  0.00000000000E+00 0. -1.
         -2   -1    0    0    0  501 -0.00000000000E+00 -0.00000000000E+00 -0.24368262102E+02  0.24368262102E+02  0.00000000000E+00 0.  1.
          5    1    1    2  502    0 -0.11307787937E+03 -0.16061403966E+02  0.10207543211E+04  0.10271348741E+04  0.47000000000E+01 0. -1.
         -5    1    1    2    0  502  0.33449642847E+02 -0.24885224838E+02  0.19895836862E+03  0.20333390142E+03  0.47000000000E+01 0.  1.
        -11    1    1    2    0    0  0.18455724265E+02  0.71212660702E+00 -0.10096771845E+02  0.21049125496E+02  0.00000000000E+00 0.  1.
         11    1    1    2    0    0  0.61172512255E+02  0.40234502197E+02  0.38877375982E+03  0.39560830091E+03  0.00000000000E+00 0. -1.
<mgrwt>
<rscale>  0 0.17086288E+03</rscale>
<asrwt>0</asrwt>
<pdfrwt beam="1">  1        2 0.24965498E+00 0.17380204E+03</pdfrwt>
<pdfrwt beam="2">  1       -2 0.37489647E-02 0.17380204E+03</pdfrwt>
<totfact> 0.35456335E+03</totfact>
</mgrwt>
</event>
<event>
 6    1  0.4705246E-006  0.2933204E+03  0.7546771E-02  0.1090309E+00
          2   -1    0    0  501    0  0.00000000000E+00  0.00000000000E+00  0.42756315668E+03  0.42756315668E+03  0.00000000000E+00 0. -1.
         -2   -1    0    0    0  501 -0.00000000000E+00 -0.00000000000E+00 -0.25202407025E+03  0.25202407025E+03  0.00000000000E+00 0.  1.
          5    1    1    2  502    0  0.14848919008E+02 -0.12258997838E+02  0.22806851552E+02  0.30216152989E+02  0.47000000000E+01 0.  1.
         -5    1    1    2    0  502  0.66836729840E+02  0.26472553458E+03  0.23146708378E+03  0.35797466110E+03  0.47000000000E+01 0.  1.
        -11    1    1    2    0    0 -0.28207528088E+01 -0.10620067726E+03  0.28498606205E+01  0.10627634828E+03  0.00000000000E+00 0. -1.
         11    1    1    2    0    0 -0.78864896040E+02 -0.14626585948E+03 -0.81584709522E+02  0.18512006457E+03  0.00000000000E+00 0.  1.
<mgrwt>
<rscale>  0 0.29007636E+03</rscale>
<asrwt>0</asrwt>
<pdfrwt beam="1">  1        2 0.65778947E-01 0.29332043E+03</pdfrwt>
<pdfrwt beam="2">  1       -2 0.38772934E-01 0.29332043E+03</pdfrwt>
<totfact> 0.47136115E+02</totfact>
</mgrwt>
</event>
<event>
 6    1  0.4705246E-006  0.2161780E+03  0.7546771E-02  0.1140967E+00
         -3   -1    0    0    0  501 -0.00000000000E+00  0.00000000000E+00  0.84344937382E+02  0.84344937382E+02  0.00000000000E+00 0.  1.
          3   -1    0    0  501    0  0.00000000000E+00 -0.00000000000E+00 -0.50962317363E+03  0.50962317363E+03  0.00000000000E+00 0. -1.
          5    1    1    2  502    0 -0.15949986907E+03  0.23616633011E+02 -0.25759588787E+03  0.30393368526E+03  0.47000000000E+01 0. -1.
         -5    1    1    2    0  502 -0.16781596336E+02 -0.29236353555E+02 -0.22946440445E+01  0.34113659083E+02  0.47000000000E+01 0. -1.
        -11    1    1    2    0    0  0.17144694590E+02 -0.16793503539E+01  0.92387626169E+01  0.19547774935E+02  0.00000000000E+00 0.  1.
         11    1    1    2    0    0  0.15913677082E+03  0.72990708979E+01 -0.17462646695E+03  0.23637299173E+03  0.00000000000E+00 0. -1.
<mgrwt>
<rscale>  0 0.21075822E+03</rscale>
<asrwt>0</asrwt>
<pdfrwt beam="2">  1        3 0.78403564E-01 0.21617798E+03</pdfrwt>
<pdfrwt beam="1">  1       -3 0.12976144E-01 0.21617798E+03</pdfrwt>
<totfact> 0.18268592E+02</totfact>
</mgrwt>
</event>
<event>
 6    1  0.4705246E-006  0.1451954E+03  0.7546771E-02  0.1216617E+00
         -3   -1    0    0    0  501 -0.00000000000E+00  0.00000000000E+00  0.71835229891E+03  0.71835229891E+03  0.00000000000E+00 0.  1.
          3   -1    0    0  501    0  0.00000000000E+00 -0.00000000000E+00 -0.24221539484E+02  0.24221539484E+02  0.00000000000E+00 0. -1.
          5    1    1    2  502    0  0.40305243423E+02  0.41016149035E+02  0.10581749993E+03  0.12052497841E+03  0.47000000000E+01 0.  1.
         -5    1    1    2    0  502  0.21070402529E+02 -0.82123348435E+02  0.23798127074E+03  0.25267643626E+03  0.47000000000E+01 0.  1.
        -11    1    1    2    0    0  0.69104990369E+01 -0.22322013369E+02  0.57502365013E+02  0.62068907352E+02  0.00000000000E+00 0.  1.
         11    1    1    2    0    0 -0.68286144990E+02  0.63429212770E+02  0.29282962374E+03  0.30730351637E+03  0.00000000000E+00 0. -1.
<mgrwt>
<rscale>  0 0.13758418E+03</rscale>
<asrwt>0</asrwt>
<pdfrwt beam="2">  1        3 0.37263912E-02 0.14519539E+03</pdfrwt>
<pdfrwt beam="1">  1       -3 0.11051572E+00 0.14519539E+03</pdfrwt>
<totfact> 0.60995731E+02</totfact>
</mgrwt>
</event>
<event>
 6    1  0.4705246E-006  0.1957712E+03  0.7546771E-02  0.1174092E+00
         -1   -1    0    0    0  501 -0.00000000000E+00  0.00000000000E+00  0.19369347216E+03  0.19369347216E+03  0.00000000000E+00 0.  1.
          1   -1    0    0  501    0  0.00000000000E+00 -0.00000000000E+00 -0.16795794648E+03  0.16795794648E+03  0.00000000000E+00 0. -1.
          5    1    1    2  502    0  0.54889827715E+02 -0.11803797015E+03 -0.67878073178E+02  0.14688559631E+03  0.47000000000E+01 0. -1.
         -5    1    1    2    0  502 -0.46213586614E+02  0.39168669419E+02 -0.13863200803E+01  0.60777398226E+02  0.47000000000E+01 0.  1.
        -11    1    1    2    0    0  0.18313935104E+02  0.30272753627E+02 -0.86049010680E+01  0.36412692204E+02  0.00000000000E+00 0. -1.
         11    1    1    2    0    0 -0.26990176205E+02  0.48596547109E+02  0.10360482001E+03  0.11757573190E+03  0.00000000000E+00 0.  1.
<mgrwt>
<rscale>  0 0.17365205E+03</rscale>
<asrwt>0</asrwt>
<pdfrwt beam="2">  1        1 0.25839684E-01 0.19577120E+03</pdfrwt>
<pdfrwt beam="1">  1       -1 0.29798996E-01 0.19577120E+03</pdfrwt>
<totfact> 0.18740080E+03</totfact>
</mgrwt>
</event>
<event>
 6    1  0.4705246E-006  0.3935595E+03  0.7546771E-02  0.1046905E+00
          2   -1    0    0  501    0  0.00000000000E+00  0.00000000000E+00  0.55826686208E+03  0.55826686208E+03  0.00000000000E+00 0. -1.
         -2   -1    0    0    0  501 -0.00000000000E+00 -0.00000000000E+00 -0.31879053711E+03  0.31879053711E+03  0.00000000000E+00 0.  1.
          5    1    1    2  502    0 -0.15489353290E+03 -0.25314132028E+03  0.16166766153E+03  0.33798085353E+03  0.47000000000E+01 0.  1.
         -5    1    1    2    0  502 -0.56744146017E+02 -0.54225269146E+02  0.12979465411E+03  0.15175315534E+03  0.47000000000E+01 0.  1.
        -11    1    1    2    0    0  0.97513054149E+02  0.17999182110E+03  0.11165756174E+02  0.20501347639E+03  0.00000000000E+00 0.  1.
         11    1    1    2    0    0  0.11412462477E+03  0.12737476833E+03 -0.63151746848E+02  0.18230991392E+03  0.00000000000E+00 0. -1.
<mgrwt>
<rscale>  0 0.39110143E+03</rscale>
<asrwt>0</asrwt>
<pdfrwt beam="1">  1        2 0.85887209E-01 0.39355955E+03</pdfrwt>
<pdfrwt beam="2">  1       -2 0.49044698E-01 0.39355955E+03</pdfrwt>
<totfact> 0.21892821E+02</totfact>
</mgrwt>
</event>
<event>
 6    1  0.4705246E-006  0.1251654E+03  0.7546771E-02  0.1251188E+00
         -2   -1    0    0    0  501 -0.00000000000E+00  0.00000000000E+00  0.39035253333E+02  0.39035253333E+02  0.00000000000E+00 0.  1.
          2   -1    0    0  501    0  0.00000000000E+00 -0.00000000000E+00 -0.29691411252E+03  0.29691411252E+03  0.00000000000E+00 0. -1.
          5    1    1    2  502    0 -0.20475523267E+02 -0.39686011542E+02 -0.69489264448E+01  0.45437915268E+02  0.47000000000E+01 0. -1.
         -5    1    1    2    0  502  0.20859231174E+02  0.33153657747E+02 -0.15112723128E+03  0.15619155733E+03  0.47000000000E+01 0. -1.
        -11    1    1    2    0    0  0.27472788323E+02  0.28301587627E+02 -0.14573390756E+02  0.42048991410E+02  0.00000000000E+00 0.  1.
         11    1    1    2    0    0 -0.27856496229E+02 -0.21769233833E+02 -0.85229310713E+02  0.92270901851E+02  0.00000000000E+00 0. -1.
<mgrwt>
<rscale>  0 0.11522534E+03</rscale>
<asrwt>0</asrwt>
<pdfrwt beam="2">  1        2 0.45679095E-01 0.12516538E+03</pdfrwt>
<pdfrwt beam="1">  1       -2 0.60054235E-02 0.12516538E+03</pdfrwt>
<totfact> 0.15234703E+04</totfact>
</mgrwt>
</event>
<event>
 6    1  0.4705246E-006  0.1271076E+03  0.7546771E-02  0.1244565E+00
          4   -1    0    0  501    0  0.00000000000E+00  0.00000000000E+00  0.13571362016E+03  0.13571362016E+03  0.00000000000E+00 0.  1.
         -4   -1    0    0    0  501 -0.00000000000E+00 -0.00000000000E+00 -0.93592422290E+02  0.93592422290E+02  0.00000000000E+00 0. -1.
          5    1    1    2  502    0 -0.21678731105E+02 -0.42988886926E+02  0.54117892974E+02  0.72586831598E+02  0.47000000000E+01 0. -1.
         -5    1    1    2    0  502  0.34928218556E+02  0.24158983991E+02 -0.35914781321E+02  0.55817546312E+02  0.47000000000E+01 0. -1.
        -11    1    1    2    0    0  0.31253327036E+02  0.30278177849E+02 -0.89235654645E+01  0.44420361607E+02  0.00000000000E+00 0. -1.
         11    1    1    2    0    0 -0.44502814488E+02 -0.11448274914E+02  0.32841651680E+02  0.56481302932E+02  0.00000000000E+00 0.  1.
<mgrwt>
<rscale>  0 0.11911425E+03</rscale>
<asrwt>0</asrwt>
<pdfrwt beam="1">  1        4 0.20879018E-01 0.12710756E+03</pdfrwt>
<pdfrwt beam="2">  1       -4 0.14398834E-01 0.12710756E+03</pdfrwt>
<totfact> 0.13718509E+03</totfact>
</mgrwt>
</event>
<event>
 6    1  0.4705246E-006  0.2093250E+03  0.7546771E-02  0.1146042E+00
          2   -1    0    0  501    0  0.00000000000E+00  0.00000000000E+00  0.80984618060E+03  0.80984618060E+03  0.00000000000E+00 0. -1.
         -2   -1    0    0    0  501 -0.00000000000E+00 -0.00000000000E+00 -0.49892089128E+02  0.49892089128E+02  0.00000000000E+00 0.  1.
          5    1    1    2  502    0 -0.55772274592E+01 -0.43472882324E+02  0.23601874641E+02  0.50001354485E+02  0.47000000000E+01 0. -1.
         -5    1    1    2    0  502 -0.10131234681E+03 -0.86013813772E+02  0.41913845176E+03  0.43972912062E+03  0.47000000000E+01 0. -1.
        -11    1    1    2    0    0  0.73768592792E+01  0.26349377750E+02  0.13724019871E+03  0.13994134450E+03  0.00000000000E+00 0. -1.
         11    1    1    2    0    0  0.99512714991E+02  0.10313731835E+03  0.17997356636E+03  0.23006645012E+03  0.00000000000E+00 0.  1.
<mgrwt>
<rscale>  0 0.20444475E+03</rscale>
<asrwt>0</asrwt>
<pdfrwt beam="1">  1        2 0.12459171E+00 0.20932497E+03</pdfrwt>
<pdfrwt beam="2">  1       -2 0.76757066E-02 0.20932497E+03</pdfrwt>
<totfact> 0.34923446E+03</totfact>
</mgrwt>
</event>
<event>
 6    1  0.4705246E-006  0.1390032E+03  0.7546771E-02  0.1226465E+00
         -3   -1    0    0    0  501 -0.00000000000E+00  0.00000000000E+00  0.18587945176E+03  0.18587945176E+03  0.00000000000E+00 0.  1.
          3   -1    0    0  501    0  0.00000000000E+00 -0.00000000000E+00 -0.14395485293E+03  0.14395485293E+03  0.00000000000E+00 0. -1.
          5    1    1    2  502    0  0.30738354787E+02  0.20300535152E+02  0.26600550376E+02  0.45679727044E+02  0.47000000000E+01 0.  1.
         -5    1    1    2    0  502 -0.60592412580E+01  0.35260566511E+02 -0.11151463446E+03  0.11720761773E+03  0.47000000000E+01 0.  1.
        -11    1    1    2    0    0 -0.44992371585E+02  0.10802741411E+01  0.75272781263E+02  0.87701038147E+02  0.00000000000E+00 0.  1.
         11    1    1    2    0    0  0.20313258056E+02 -0.56641375803E+02  0.51565901640E+02  0.79245921773E+02  0.00000000000E+00 0. -1.
<mgrwt>
<rscale>  0 0.13067022E+03</rscale>
<asrwt>0</asrwt>
<pdfrwt beam="2">  1        3 0.22146900E-01 0.13900318E+03</pdfrwt>
<pdfrwt beam="1">  1       -3 0.28596839E-01 0.13900318E+03</pdfrwt>
<totfact> 0.51081398E+02</totfact>
</mgrwt>
</event>
<event>
 6    1  0.4705246E-006  0.1268440E+03  0.7546771E-02  0.1243451E+00
         -1   -1    0    0    0  501 -0.00000000000E+00  0.00000000000E+00  0.53537503568E+02  0.53537503568E+02  0.00000000000E+00 0.  1.
          1   -1    0    0  501    0  0.00000000000E+00 -0.00000000000E+00 -0.24699845888E+03  0.24699845888E+03  0.00000000000E+00 0. -1.
          5    1    1    2  502    0  0.41367588010E+02 -0.44408474420E+02 -0.52353412032E+02  0.80289225239E+02  0.47000000000E+01 0.  1.
         -5    1    1    2    0  502 -0.26107462714E+02  0.59604001752E+02 -0.76089279811E+02  0.10022926287E+03  0.47000000000E+01 0.  1.
        -11    1    1    2    0    0  0.33787974565E+02 -0.23021032436E+02 -0.36205895515E+01  0.41045143785E+02  0.00000000000E+00 0.  1.
         11    1    1    2    0    0 -0.49048099862E+02  0.78255051031E+01 -0.61397673922E+02  0.78972330555E+02  0.00000000000E+00 0. -1.
<mgrwt>
<rscale>  0 0.11978542E+03</rscale>
<asrwt>0</asrwt>
<pdfrwt beam="2">  1        1 0.37999763E-01 0.12684400E+03</pdfrwt>
<pdfrwt beam="1">  1       -1 0.82365389E-02 0.12684400E+03</pdfrwt>
<totfact> 0.86950921E+03</totfact>
</mgrwt>
</event>
<event>
 6    1  0.4705246E-006  0.1676193E+03  0.7546771E-02  0.1192113E+00
          2   -1    0    0  501    0  0.00000000000E+00  0.00000000000E+00  0.58733428567E+03  0.58733428567E+03  0.00000000000E+00 0. -1.
         -2   -1    0    0    0  501 -0.00000000000E+00 -0.00000000000E+00 -0.37491203632E+02  0.37491203632E+02  0.00000000000E+00 0.  1.
          5    1    1    2  502    0 -0.80756937981E+02  0.74221401572E+01  0.91984845239E+02  0.12271948888E+03  0.47000000000E+01 0. -1.
         -5    1    1    2    0  502  0.32319139296E+00  0.70045017620E+02  0.22723280339E+03  0.23783028798E+03  0.47000000000E+01 0. -1.
        -11    1    1    2    0    0  0.76016014243E+02 -0.57780031656E+02  0.12802538223E+03  0.15971056626E+03  0.00000000000E+00 0. -1.
         11    1    1    2    0    0  0.44177323445E+01 -0.19687126121E+02  0.10260005118E+03  0.10456514618E+03  0.00000000000E+00 0.  1.
<mgrwt>
<rscale>  0 0.15701149E+03</rscale>
<asrwt>0</asrwt>
<pdfrwt beam="1">  1        2 0.90359114E-01 0.16761931E+03</pdfrwt>
<pdfrwt beam="2">  1       -2 0.57678779E-02 0.16761931E+03</pdfrwt>
<totfact> 0.78977485E+03</totfact>
</mgrwt>
</event>
<event>
 6    1  0.4705246E-006  0.1407289E+03  0.7546771E-02  0.1222970E+00
          2   -1    0    0  501    0  0.00000000000E+00  0.00000000000E+00  0.13399604947E+03  0.13399604947E+03  0.00000000000E+00 0. -1.
         -2   -1    0    0    0  501 -0.00000000000E+00 -0.00000000000E+00 -0.11974067726E+03  0.11974067726E+03  0.00000000000E+00 0.  1.
          5    1    1    2  502    0 -0.43917352207E+02 -0.53198995471E+02  0.14287177168E+02  0.70605101625E+02  0.47000000000E+01 0.  1.
         -5    1    1    2    0  502 -0.19330210668E+02  0.66573616487E+02 -0.99469954208E+01  0.70190712879E+02  0.47000000000E+01 0.  1.
        -11    1    1    2    0    0  0.93779624316E+01 -0.36336370349E+02 -0.24690326496E+02  0.44920932894E+02  0.00000000000E+00 0.  1.
         11    1    1    2    0    0  0.53869600443E+02  0.22961749334E+02  0.34605516956E+02  0.68019979331E+02  0.00000000000E+00 0. -1.
<mgrwt>
<rscale>  0 0.13307004E+03</rscale>
<asrwt>0</asrwt>
<pdfrwt beam="1">  1        2 0.20614777E-01 0.14072890E+03</pdfrwt>
<pdfrwt beam="2">  1       -2 0.18421643E-01 0.14072890E+03</pdfrwt>
<totfact> 0.61811501E+03</totfact>
</mgrwt>
</event>
<event>
 6    1  0.4705246E-006  0.2838800E+03  0.7546771E-02  0.1137956E+00
         -2   -1    0    0    0  501 -0.00000000000E+00  0.00000000000E+00  0.49959769323E+03  0.49959769323E+03  0.00000000000E+00 0.  1.
          2   -1    0    0  501    0  0.00000000000E+00 -0.00000000000E+00 -0.72877953052E+02  0.72877953052E+02  0.00000000000E+00 0. -1.
          5    1    1    2  502    0  0.10830650091E+03  0.48430625380E+02  0.24923887433E+02  0.12132235482E+03  0.47000000000E+01 0. -1.
         -5    1    1    2    0  502 -0.10195389317E+03 -0.40178416425E+02  0.25392762259E+03  0.27660482460E+03  0.47000000000E+01 0.  1.
        -11    1    1    2    0    0 -0.30452983804E+02  0.30416519494E+02  0.46231343620E+02  0.63165544513E+02  0.00000000000E+00 0.  1.
         11    1    1    2    0    0  0.24100376058E+02 -0.38668728450E+02  0.10163688653E+03  0.11138292235E+03  0.00000000000E+00 0. -1.
<mgrwt>
<rscale>  0 0.21462339E+03</rscale>
<asrwt>0</asrwt>
<pdfrwt beam="2">  1        2 0.11211993E-01 0.28388004E+03</pdfrwt>
<pdfrwt beam="1">  1       -2 0.76861181E-01 0.28388004E+03</pdfrwt>
<totfact> 0.86500637E+02</totfact>
</mgrwt>
</event>
<event>
 6    1  0.4705246E-006  0.2005440E+03  0.7546771E-02  0.1153771E+00
          1   -1    0    0  501    0  0.00000000000E+00  0.00000000000E+00  0.91272566901E+03  0.91272566901E+03  0.00000000000E+00 0. -1.
         -1   -1    0    0    0  501 -0.00000000000E+00 -0.00000000000E+00 -0.44759378616E+02  0.44759378616E+02  0.00000000000E+00 0.  1.
          5    1    1    2  502    0  0.67916008839E+01  0.90959762712E+02  0.71626355805E+02  0.11606993203E+03  0.47000000000E+01 0.  1.
         -5    1    1    2    0  502 -0.74227602769E+02  0.50157616487E+02  0.22265082296E+03  0.24004375116E+03  0.47000000000E+01 0.  1.
        -11    1    1    2    0    0  0.24786205477E+02 -0.91288393614E+02  0.19142955396E+03  0.21352564464E+03  0.00000000000E+00 0. -1.
         11    1    1    2    0    0  0.42649796409E+02 -0.49828985585E+02  0.38225955767E+03  0.38784571980E+03  0.00000000000E+00 0.  1.
<mgrwt>
<rscale>  0 0.19529448E+03</rscale>
<asrwt>0</asrwt>
<pdfrwt beam="1">  1        1 0.14041932E+00 0.20054400E+03</pdfrwt>
<pdfrwt beam="2">  1       -1 0.68860589E-02 0.20054400E+03</pdfrwt>
<totfact> 0.20142704E+03</totfact>
</mgrwt>
</event>
<event>
 6    1  0.4705246E-006  0.3027351E+03  0.7546771E-02  0.1083881E+00
          2   -1    0    0  501    0  0.00000000000E+00  0.00000000000E+00  0.92724073673E+03  0.92724073673E+03  0.00000000000E+00 0. -1.
         -2   -1    0    0    0  501 -0.00000000000E+00 -0.00000000000E+00 -0.24710017220E+02  0.24710017220E+02  0.00000000000E+00 0.  1.
          5    1    1    2  502    0 -0.88722038224E+02  0.61643718838E+02  0.57456282996E+03  0.58465039443E+03  0.47000000000E+01 0. -1.
         -5    1    1    2    0  502  0.97628706383E+01  0.36288793253E+01 -0.78609789604E+00  0.11453835958E+02  0.47000000000E+01 0. -1.
        -11    1    1    2    0    0 -0.41927957268E+01 -0.36399589360E+02  0.41265484076E+02  0.55184688253E+02  0.00000000000E+00 0.  1.
         11    1    1    2    0    0  0.83151963313E+02 -0.28873008803E+02  0.28748850337E+03  0.30066183531E+03  0.00000000000E+00 0. -1.
<mgrwt>
<rscale>  0 0.30273510E+03</rscale>
<asrwt>0</asrwt>
<pdfrwt beam="1">  1        2 0.14265239E+00 0.30273510E+03</pdfrwt>
<pdfrwt beam="2">  1       -2 0.38015418E-02 0.30273510E+03</pdfrwt>
<totfact> 0.86670315E+03</totfact>
</mgrwt>
</event>
<event>
 6    1  0.4705246E-006  0.2032373E+03  0.7546771E-02  0.1151724E+00
          2   -1    0    0  501    0  0.00000000000E+00  0.00000000000E+00  0.77068576541E+02  0.77068576541E+02  0.00000000000E+00 0. -1.
         -2   -1    0    0    0  501 -0.00000000000E+00 -0.00000000000E+00 -0.49753937097E+03  0.49753937097E+03  0.00000000000E+00 0.  1.
          5    1    1    2  502    0 -0.48264393443E+01  0.66390426490E+02 -0.11226845033E+03  0.13060351521E+03  0.47000000000E+01 0. -1.
         -5    1    1    2    0  502 -0.11702416938E+03  0.31004287701E+02 -0.57004802546E+02  0.13389383701E+03  0.47000000000E+01 0.  1.
        -11    1    1    2    0    0  0.19888926563E+02 -0.28295284619E+02 -0.13987543672E+03  0.14408792569E+03  0.00000000000E+00 0. -1.
         11    1    1    2    0    0  0.10196168216E+03 -0.69099429572E+02 -0.11132210483E+03  0.16602266960E+03  0.00000000000E+00 0.  1.
<mgrwt>
<rscale>  0 0.19766475E+03</rscale>
<asrwt>0</asrwt>
<pdfrwt beam="1">  1        2 0.11856704E-01 0.20323734E+03</pdfrwt>
<pdfrwt beam="2">  1       -2 0.76544521E-01 0.20323734E+03</pdfrwt>
<totfact> 0.80843566E+02</totfact>
</mgrwt>
</event>
<event>
 6    1  0.4705246E-006  0.2712612E+03  0.7546771E-02  0.1100560E+00
          3   -1    0    0  501    0  0.00000000000E+00  0.00000000000E+00  0.21997910490E+02  0.21997910490E+02  0.00000000000E+00 0. -1.
         -3   -1    0    0    0  501 -0.00000000000E+00 -0.00000000000E+00 -0.83624569675E+03  0.83624569675E+03  0.00000000000E+00 0.  1.
          5    1    1    2  502    0  0.25316934597E+02  0.16708044295E+02 -0.80149749934E+02  0.85826443105E+02  0.47000000000E+01 0. -1.
         -5    1    1    2    0  502 -0.11290560929E+03 -0.60982526214E+01 -0.36430140984E+03  0.38147407842E+03  0.47000000000E+01 0.  1.
        -11    1    1    2    0    0  0.24504474881E+02 -0.45086724653E+02 -0.20156570537E+03  0.20799522978E+03  0.00000000000E+00 0.  1.
         11    1    1    2    0    0  0.63084199809E+02  0.34476932980E+02 -0.16823092111E+03  0.18294785593E+03  0.00000000000E+00 0. -1.
<mgrwt>
<rscale>  0 0.27126119E+03</rscale>
<asrwt>0</asrwt>
<pdfrwt beam="1">  1        3 0.33842938E-02 0.27126119E+03</pdfrwt>
<pdfrwt beam="2">  1       -3 0.12865319E+00 0.27126119E+03</pdfrwt>
<totfact> 0.53448307E+02</totfact>
</mgrwt>
</event>
<event>
 6    1  0.4705246E-006  0.1486413E+03  0.7546771E-02  0.1211550E+00
          1   -1    0    0  501    0  0.00000000000E+00  0.00000000000E+00  0.10356644566E+03  0.10356644566E+03  0.00000000000E+00 0. -1.
         -1   -1    0    0    0  501 -0.00000000000E+00 -0.00000000000E+00 -0.19593467911E+03  0.19593467911E+03  0.00000000000E+00 0.  1.
          5    1    1    2  502    0  0.57553276942E+02  0.35797955702E+01  0.54375726977E+02  0.79397760090E+02  0.47000000000E+01 0. -1.
         -5    1    1    2    0  502  0.16556224747E+02 -0.34837149683E+02 -0.57349511803E+02  0.69273314342E+02  0.47000000000E+01 0. -1.
        -11    1    1    2    0    0 -0.87367552056E+02  0.21367326187E+00 -0.69568599481E+02  0.11168224945E+03  0.00000000000E+00 0.  1.
         11    1    1    2    0    0  0.13258050366E+02  0.31043680850E+02 -0.19825849138E+02  0.39147800887E+02  0.00000000000E+00 0. -1.
<mgrwt>
<rscale>  0 0.14133000E+03</rscale>
<asrwt>0</asrwt>
<pdfrwt beam="1">  1        1 0.15933299E-01 0.14864133E+03</pdfrwt>
<pdfrwt beam="2">  1       -1 0.30143797E-01 0.14864133E+03</pdfrwt>
<totfact> 0.33728462E+03</totfact>
</mgrwt>
</event>
<event>
 6    1  0.4705246E-006  0.1466988E+03  0.7546771E-02  0.1214413E+00
         -2   -1    0    0    0  501 -0.00000000000E+00  0.00000000000E+00  0.15836720587E+02  0.15836720587E+02  0.00000000000E+00 0.  1.
          2   -1    0    0  501    0  0.00000000000E+00 -0.00000000000E+00 -0.24968952490E+04  0.24968952490E+04  0.00000000000E+00 0. -1.
          5    1    1    2  502    0  0.46194609332E+02  0.86061774727E+01 -0.14447033195E+04  0.14454749322E+04  0.47000000000E+01 0. -1.
         -5    1    1    2    0  502 -0.14258553157E+02 -0.78454283509E+02 -0.78650685660E+03  0.79055265885E+03  0.47000000000E+01 0. -1.
        -11    1    1    2    0    0 -0.44176173725E+02  0.66332684642E+02 -0.25153456617E+03  0.26385829029E+03  0.00000000000E+00 0. -1.
         11    1    1    2    0    0  0.12240117549E+02  0.35154213941E+01  0.16862138910E+01  0.12846088217E+02  0.00000000000E+00 0.  1.
<mgrwt>
<rscale>  0 0.13919716E+03</rscale>
<asrwt>0</asrwt>
<pdfrwt beam="2">  1        2 0.38413745E+00 0.14669880E+03</pdfrwt>
<pdfrwt beam="1">  1       -2 0.24364203E-02 0.14669880E+03</pdfrwt>
<totfact> 0.23518198E+03</totfact>
</mgrwt>
</event>
<event>
 6    1  0.4705246E-006  0.2592297E+03  0.7546771E-02  0.1109839E+00
         -1   -1    0    0    0  501 -0.00000000000E+00  0.00000000000E+00  0.34748881627E+02  0.34748881627E+02  0.00000000000E+00 0.  1.
          1   -1    0    0  501    0  0.00000000000E+00 -0.00000000000E+00 -0.18545308252E+04  0.18545308252E+04  0.00000000000E+00 0. -1.
          5    1    1    2  502    0 -0.16162673249E+03  0.17039585131E+03 -0.86440782724E+03  0.89575718172E+03  0.47000000000E+01 0. -1.
         -5    1    1    2    0  502  0.36346867505E+01 -0.72632877443E+01 -0.18345299906E+03  0.18369283917E+03  0.47000000000E+01 0. -1.
        -11    1    1    2    0    0  0.70828463556E+02 -0.66963790469E+02 -0.48812926510E+03  0.49776600921E+03  0.00000000000E+00 0. -1.
         11    1    1    2    0    0  0.87163582183E+02 -0.96168773097E+02 -0.28379185222E+03  0.31206367678E+03  0.00000000000E+00 0.  1.
<mgrwt>
<rscale>  0 0.25556301E+03</rscale>
<asrwt>0</asrwt>
<pdfrwt beam="2">  1        1 0.28531250E+00 0.25922970E+03</pdfrwt>
<pdfrwt beam="1">  1       -1 0.53459806E-02 0.25922970E+03</pdfrwt>
<totfact> 0.66813786E+02</totfact>
</mgrwt>
</event>
<event>
 6    1  0.4705246E-006  0.1284507E+03  0.7546771E-02  0.1244004E+00
         -4   -1    0    0    0  501 -0.00000000000E+00  0.00000000000E+00  0.28020768431E+02  0.28020768431E+02  0.00000000000E+00 0.  1.
          4   -1    0    0  501    0  0.00000000000E+00 -0.00000000000E+00 -0.49950791732E+03  0.49950791732E+03  0.00000000000E+00 0. -1.
          5    1    1    2  502    0 -0.54058809318E+02 -0.31686244845E+01 -0.28666194568E+03  0.29176969710E+03  0.47000000000E+01 0.  1.
         -5    1    1    2    0  502  0.43550618679E+02 -0.24700540250E+02 -0.62181600988E+02  0.79971335974E+02  0.47000000000E+01 0.  1.
        -11    1    1    2    0    0 -0.30511345463E+02  0.62413969965E+01 -0.80495727406E+01  0.32166642034E+02  0.00000000000E+00 0.  1.
         11    1    1    2    0    0  0.41019536102E+02  0.21627767738E+02 -0.11459402948E+03  0.12362101064E+03  0.00000000000E+00 0. -1.
<mgrwt>
<rscale>  0 0.11945181E+03</rscale>
<asrwt>0</asrwt>
<pdfrwt beam="2">  1        4 0.76847371E-01 0.12845067E+03</pdfrwt>
<pdfrwt beam="1">  1       -4 0.43108875E-02 0.12845067E+03</pdfrwt>
<totfact> 0.77172382E+02</totfact>
</mgrwt>
</event>
<event>
 6    1  0.4705246E-006  0.2918646E+03  0.7546771E-02  0.1089380E+00
          1   -1    0    0  501    0  0.00000000000E+00  0.00000000000E+00  0.47931313317E+02  0.47931313317E+02  0.00000000000E+00 0. -1.
         -1   -1    0    0    0  501 -0.00000000000E+00 -0.00000000000E+00 -0.44430723140E+03  0.44430723140E+03  0.00000000000E+00 0.  1.
          5    1    1    2  502    0 -0.83214539406E+02 -0.79817059107E+02 -0.14647893634E+03  0.18647678484E+03  0.47000000000E+01 0.  1.
         -5    1    1    2    0  502  0.73267100910E+01  0.36069168874E+02 -0.41513858771E+02  0.55679045377E+02  0.47000000000E+01 0.  1.
        -11    1    1    2    0    0  0.55478113366E+02  0.10890055789E+02 -0.23550003771E+02  0.61245547229E+02  0.00000000000E+00 0. -1.
         11    1    1    2    0    0  0.20409715948E+02  0.32857834443E+02 -0.18483311920E+03  0.18883716727E+03  0.00000000000E+00 0.  1.
<mgrwt>
<rscale>  0 0.29186455E+03</rscale>
<asrwt>0</asrwt>
<pdfrwt beam="1">  1        1 0.73740480E-02 0.29186455E+03</pdfrwt>
<pdfrwt beam="2">  1       -1 0.68354960E-01 0.29186455E+03</pdfrwt>
<totfact> 0.21855557E+03</totfact>
</mgrwt>
</event>
<event>
 6    1  0.4705246E-006  0.1461736E+03  0.7546771E-02  0.1215139E+00
          2   -1    0    0  501    0  0.00000000000E+00  0.00000000000E+00  0.37291446185E+03  0.37291446185E+03  0.00000000000E+00 0. -1.
         -2   -1    0    0    0  501 -0.00000000000E+00 -0.00000000000E+00 -0.47636307743E+02  0.47636307743E+02  0.00000000000E+00 0.  1.
          5    1    1    2  502    0 -0.77858329581E+02 -0.82580870159E+01  0.17524859039E+03  0.19200071333E+03  0.47000000000E+01 0. -1.
         -5    1    1    2    0  502  0.24485671086E+02 -0.45535590133E+02  0.29938150709E+02  0.59928465066E+02  0.47000000000E+01 0. -1.
        -11    1    1    2    0    0 -0.14339026276E+02  0.33148619590E+02  0.78768690661E+02  0.86654170607E+02  0.00000000000E+00 0. -1.
         11    1    1    2    0    0  0.67711684771E+02  0.20645057559E+02  0.41322722357E+02  0.81967420596E+02  0.00000000000E+00 0.  1.
<mgrwt>
<rscale>  0 0.13866326E+03</rscale>
<asrwt>0</asrwt>
<pdfrwt beam="1">  1        2 0.57371454E-01 0.14617357E+03</pdfrwt>
<pdfrwt beam="2">  1       -2 0.73286630E-02 0.14617357E+03</pdfrwt>
<totfact> 0.89352853E+03</totfact>
</mgrwt>
</event>
<event>
 6    1  0.4705246E-006  0.1351798E+03  0.7546771E-02  0.1230155E+00
          1   -1    0    0  501    0  0.00000000000E+00  0.00000000000E+00  0.11809246461E+03  0.11809246461E+03  0.00000000000E+00 0. -1.
         -1   -1    0    0    0  501 -0.00000000000E+00 -0.00000000000E+00 -0.14654380818E+03  0.14654380818E+03  0.00000000000E+00 0.  1.
          5    1    1    2  502    0 -0.69400879944E+02 -0.55256715677E+02  0.45000885741E+01  0.88950140874E+02  0.47000000000E+01 0. -1.
         -5    1    1    2    0  502  0.41020328932E+02 -0.47139465421E+00  0.28582580186E+02  0.50218955472E+02  0.47000000000E+01 0.  1.
        -11    1    1    2    0    0  0.31992790252E+02  0.79290593504E+02 -0.47794939000E+02  0.97953524900E+02  0.00000000000E+00 0.  1.
         11    1    1    2    0    0 -0.36122392403E+01 -0.23562483173E+02 -0.13739073331E+02  0.27513651550E+02  0.00000000000E+00 0. -1.
<mgrwt>
<rscale>  0 0.12819767E+03</rscale>
<asrwt>0</asrwt>
<pdfrwt beam="1">  1        1 0.18168071E-01 0.13517979E+03</pdfrwt>
<pdfrwt beam="2">  1       -1 0.22545201E-01 0.13517979E+03</pdfrwt>
<totfact> 0.45807961E+03</totfact>
</mgrwt>
</event>
<event>
 6    1  0.4705246E-006  0.1531536E+03  0.7546771E-02  0.1206613E+00
         -1   -1    0    0    0  501 -0.00000000000E+00  0.00000000000E+00  0.87359671500E+02  0.87359671500E+02  0.00000000000E+00 0.  1.
          1   -1    0    0  501    0  0.00000000000E+00 -0.00000000000E+00 -0.22248179594E+03  0.22248179594E+03  0.00000000000E+00 0. -1.
          5    1    1    2  502    0  0.35333694839E+02 -0.90040529639E+02 -0.11171405458E+03  0.14784413062E+03  0.47000000000E+01 0. -1.
         -5    1    1    2    0  502 -0.26257243335E+02  0.20104164754E+01  0.17501617068E+02  0.31966876637E+02  0.47000000000E+01 0. -1.
        -11    1    1    2    0    0 -0.10568427455E+02  0.66071409991E+02  0.16184591614E+02  0.68840859109E+02  0.00000000000E+00 0.  1.
         11    1    1    2    0    0  0.14919759506E+01  0.21958703172E+02 -0.57094278539E+02  0.61189601070E+02  0.00000000000E+00 0. -1.
<mgrwt>
<rscale>  0 0.14511029E+03</rscale>
<asrwt>0</asrwt>
<pdfrwt beam="2">  1        1 0.34227969E-01 0.15315357E+03</pdfrwt>
<pdfrwt beam="1">  1       -1 0.13439949E-01 0.15315357E+03</pdfrwt>
<totfact> 0.47314582E+03</totfact>
</mgrwt>
</event>
<event>
 6    1  0.4705246E-006  0.1309600E+03  0.7546771E-02  0.1235446E+00
         -2   -1    0    0    0  501 -0.00000000000E+00  0.00000000000E+00  0.16593746564E+02  0.16593746564E+02  0.00000000000E+00 0.  1.
          2   -1    0    0  501    0  0.00000000000E+00 -0.00000000000E+00 -0.90746425132E+03  0.90746425132E+03  0.00000000000E+00 0. -1.
          5    1    1    2  502    0  0.35215396287E+02  0.13599090592E+02 -0.37166460540E+03  0.37360638151E+03  0.47000000000E+01 0. -1.
         -5    1    1    2    0  502 -0.74066016641E+02 -0.99518059332E+01 -0.22052290868E+03  0.23288893601E+03  0.47000000000E+01 0. -1.
        -11    1    1    2    0    0 -0.63797722260E+01 -0.42502494248E+02 -0.79035888548E+02  0.89965744534E+02  0.00000000000E+00 0.  1.
         11    1    1    2    0    0  0.45230392581E+02  0.38855209589E+02 -0.21964710213E+03  0.22759693583E+03  0.00000000000E+00 0. -1.
<mgrwt>
<rscale>  0 0.12475919E+03</rscale>
<asrwt>0</asrwt>
<pdfrwt beam="2">  1        2 0.13960992E+00 0.13095999E+03</pdfrwt>
<pdfrwt beam="1">  1       -2 0.25528834E-02 0.13095999E+03</pdfrwt>
<totfact> 0.15423533E+04</totfact>
</mgrwt>
</event>
<event>
 6    1  0.8235821E-006  0.3946429E+03  0.7546771E-02  0.1045651E+00
          1   -1    0    0  501    0  0.00000000000E+00  0.00000000000E+00  0.47447620381E+03  0.47447620381E+03  0.00000000000E+00 0. -1.
         -1   -1    0    0    0  501 -0.00000000000E+00 -0.00000000000E+00 -0.82060491128E+02  0.82060491128E+02  0.00000000000E+00 0.  1.
          5    1    1    2  502    0  0.13850465185E+03 -0.80240544366E+02  0.23635984660E+03  0.28549982597E+03  0.47000000000E+01 0. -1.
         -5    1    1    2    0  502 -0.98447210767E+01 -0.19848352421E+02 -0.57140402831E+01  0.23358422106E+02  0.47000000000E+01 0. -1.
        -11    1    1    2    0    0 -0.54324488504E+02  0.42639490620E+02  0.10851413542E+02  0.69907291375E+02  0.00000000000E+00 0.  1.
         11    1    1    2    0    0 -0.74335442272E+02  0.57449406167E+02  0.15091849283E+03  0.17777115549E+03  0.00000000000E+00 0. -1.
<mgrwt>
<rscale>  0 0.39464288E+03</rscale>
<asrwt>0</asrwt>
<pdfrwt beam="1">  1        1 0.72996338E-01 0.39464288E+03</pdfrwt>
<pdfrwt beam="2">  1       -1 0.12624691E-01 0.39464288E+03</pdfrwt>
<totfact> 0.20563829E+03</totfact>
</mgrwt>
</event>
<event>
 6    1  0.4705246E-006  0.1754081E+03  0.7546771E-02  0.1176184E+00
         -1   -1    0    0    0  501 -0.00000000000E+00  0.00000000000E+00  0.10513712129E+03  0.10513712129E+03  0.00000000000E+00 0.  1.
          1   -1    0    0  501    0  0.00000000000E+00 -0.00000000000E+00 -0.27604630580E+03  0.27604630580E+03  0.00000000000E+00 0. -1.
          5    1    1    2  502    0 -0.30694358850E+02  0.34357266943E+02 -0.56881612782E+02  0.73349664823E+02  0.47000000000E+01 0. -1.
         -5    1    1    2    0  502  0.90244368070E+02  0.85041126749E+02 -0.63493031893E+02  0.13938972095E+03  0.47000000000E+01 0.  1.
        -11    1    1    2    0    0  0.23659183065E+02 -0.30233772161E+02 -0.75114270050E+01  0.39118530878E+02  0.00000000000E+00 0.  1.
         11    1    1    2    0    0 -0.83209192284E+02 -0.89164621531E+02 -0.43023112831E+02  0.12932551044E+03  0.00000000000E+00 0. -1.
<mgrwt>
<rscale>  0 0.17160541E+03</rscale>
<asrwt>0</asrwt>
<pdfrwt beam="2">  1        1 0.42468662E-01 0.17540807E+03</pdfrwt>
<pdfrwt beam="1">  1       -1 0.16174942E-01 0.17540807E+03</pdfrwt>
<totfact> 0.27206553E+03</totfact>
</mgrwt>
</event>
<event>
 6    1  0.4705246E-006  0.1545757E+03  0.7546771E-02  0.1205488E+00
         -2   -1    0    0    0  501 -0.00000000000E+00  0.00000000000E+00  0.41770411676E+02  0.41770411676E+02  0.00000000000E+00 0. -1.
          2   -1    0    0  501    0  0.00000000000E+00 -0.00000000000E+00 -0.50546005125E+03  0.50546005125E+03  0.00000000000E+00 0.  1.
          5    1    1    2  502    0  0.57910218120E+02  0.80114273482E+01 -0.65167605871E+02  0.87673731447E+02  0.47000000000E+01 0.  1.
         -5    1    1    2    0  502 -0.10518355049E+01 -0.78972521112E+02 -0.27131103287E+03  0.28261198135E+03  0.47000000000E+01 0.  1.
        -11    1    1    2    0    0 -0.47461806333E+02 -0.13244792154E+01 -0.68504509803E+02  0.83350135986E+02  0.00000000000E+00 0.  1.
         11    1    1    2    0    0 -0.93965762815E+01  0.72285572979E+02 -0.58706491033E+02  0.93594614141E+02  0.00000000000E+00 0. -1.
<mgrwt>
<rscale>  0 0.14599038E+03</rscale>
<asrwt>0</asrwt>
<pdfrwt beam="2">  1        2 0.77763083E-01 0.15457566E+03</pdfrwt>
<pdfrwt beam="1">  1       -2 0.64262173E-02 0.15457566E+03</pdfrwt>
<totfact> 0.78908631E+03</totfact>
</mgrwt>
</event>
<event>
 6    1  0.4705246E-006  0.2610491E+03  0.7546771E-02  0.1146816E+00
         -2   -1    0    0    0  501 -0.00000000000E+00  0.00000000000E+00  0.40366040233E+02  0.40366040233E+02  0.00000000000E+00 0.  1.
          2   -1    0    0  501    0  0.00000000000E+00 -0.00000000000E+00 -0.81271914170E+03  0.81271914170E+03  0.00000000000E+00 0. -1.
          5    1    1    2  502    0  0.79186258993E+02  0.42293381437E+02 -0.56545961965E+03  0.57256079605E+03  0.47000000000E+01 0. -1.
         -5    1    1    2    0  502 -0.56782808410E+02 -0.62301925683E+02 -0.55488863032E+02  0.10102930860E+03  0.47000000000E+01 0.  1.
        -11    1    1    2    0    0  0.28841080362E+02  0.27198432373E+02 -0.95054815474E+02  0.10299019655E+03  0.00000000000E+00 0.  1.
         11    1    1    2    0    0 -0.51244530946E+02 -0.71898881266E+01 -0.56349803315E+02  0.76504880738E+02  0.00000000000E+00 0. -1.
<mgrwt>
<rscale>  0 0.20350426E+03</rscale>
<asrwt>0</asrwt>
<pdfrwt beam="2">  1        2 0.12503372E+00 0.26104906E+03</pdfrwt>
<pdfrwt beam="1">  1       -2 0.62101598E-02 0.26104906E+03</pdfrwt>
<totfact> 0.48571907E+03</totfact>
</mgrwt>
</event>
<event>
 6    1  0.4705246E-006  0.1400674E+03  0.7546771E-02  0.1224982E+00
          2   -1    0    0  501    0  0.00000000000E+00  0.00000000000E+00  0.62460807142E+02  0.62460807142E+02  0.00000000000E+00 0. -1.
         -2   -1    0    0    0  501 -0.00000000000E+00 -0.00000000000E+00 -0.25645443402E+03  0.25645443402E+03  0.00000000000E+00 0.  1.
          5    1    1    2  502    0 -0.26844943827E+01  0.18877729671E+02 -0.86371080212E+02  0.88575553538E+02  0.47000000000E+01 0. -1.
         -5    1    1    2    0  502 -0.50193994370E+02 -0.53482983033E+02  0.45505719067E+01  0.73638741499E+02  0.47000000000E+01 0. -1.
        -11    1    1    2    0    0  0.15888267734E+02 -0.19388023748E+02  0.19501687949E+01  0.25142308461E+02  0.00000000000E+00 0.  1.
         11    1    1    2    0    0  0.36990221019E+02  0.53993277109E+02 -0.11412328736E+03  0.13155863766E+03  0.00000000000E+00 0. -1.
<mgrwt>
<rscale>  0 0.13168169E+03</rscale>
<asrwt>0</asrwt>
<pdfrwt beam="1">  1        2 0.96093549E-02 0.14006742E+03</pdfrwt>
<pdfrwt beam="2">  1       -2 0.39454528E-01 0.14006742E+03</pdfrwt>
<totfact> 0.39436468E+03</totfact>
</mgrwt>
</event>
<event>
 6    1  0.4705246E-006  0.3865901E+03  0.7546771E-02  0.1048525E+00
         -1   -1    0    0    0  501 -0.00000000000E+00  0.00000000000E+00  0.33891168184E+02  0.33891168184E+02  0.00000000000E+00 0.  1.
          1   -1    0    0  501    0  0.00000000000E+00 -0.00000000000E+00 -0.11024397741E+04  0.11024397741E+04  0.00000000000E+00 0. -1.
          5    1    1    2  502    0  0.26665091880E+02  0.41100459770E+01 -0.18516732313E+03  0.18718158872E+03  0.47000000000E+01 0.  1.
         -5    1    1    2    0  502 -0.57682144156E+02 -0.15181598296E+03 -0.52914478450E+03  0.55352652637E+03  0.47000000000E+01 0.  1.
        -11    1    1    2    0    0  0.56837729340E+02  0.99442589884E+02 -0.18337240238E+03  0.21620544423E+03  0.00000000000E+00 0.  1.
         11    1    1    2    0    0 -0.25820677065E+02  0.48263347097E+02 -0.17086409591E+03  0.17941738296E+03  0.00000000000E+00 0. -1.
<mgrwt>
<rscale>  0 0.38659008E+03</rscale>
<asrwt>0</asrwt>
<pdfrwt beam="2">  1        1 0.16960610E+00 0.38659008E+03</pdfrwt>
<pdfrwt beam="1">  1       -1 0.52140263E-02 0.38659008E+03</pdfrwt>
<totfact> 0.22227095E+03</totfact>
</mgrwt>
</event>
<event>
 6    1  0.4705246E-006  0.2303450E+03  0.7546771E-02  0.1129278E+00
          2   -1    0    0  501    0  0.00000000000E+00  0.00000000000E+00  0.23327104073E+03  0.23327104073E+03  0.00000000000E+00 0. -1.
         -2   -1    0    0    0  501 -0.00000000000E+00 -0.00000000000E+00 -0.21283064341E+03  0.21283064341E+03  0.00000000000E+00 0.  1.
          5    1    1    2  502    0  0.33242475802E+02 -0.14877938827E+03  0.27100967079E+02  0.15490939606E+03  0.47000000000E+01 0.  1.
         -5    1    1    2    0  502  0.75560499214E+02 -0.11200125583E+02 -0.37083937659E+01  0.76620323928E+02  0.47000000000E+01 0.  1.
        -11    1    1    2    0    0 -0.80821729566E+01  0.74912667663E+02 -0.27990010055E+02  0.80378292834E+02  0.00000000000E+00 0.  1.
         11    1    1    2    0    0 -0.10072080206E+03  0.85066846189E+02  0.25037834061E+02  0.13419367132E+03  0.00000000000E+00 0. -1.
<mgrwt>
<rscale>  0 0.22629085E+03</rscale>
<asrwt>0</asrwt>
<pdfrwt beam="1">  1        2 0.35887852E-01 0.23034496E+03</pdfrwt>
<pdfrwt beam="2">  1       -2 0.32743176E-01 0.23034496E+03</pdfrwt>
<totfact> 0.12479769E+03</totfact>
</mgrwt>
</event>
<event>
 6    1  0.4705246E-006  0.3062601E+03  0.7546771E-02  0.1082152E+00
          1   -1    0    0  501    0  0.00000000000E+00  0.00000000000E+00  0.27074833229E+03  0.27074833229E+03  0.00000000000E+00 0. -1.
         -1   -1    0    0    0  501 -0.00000000000E+00 -0.00000000000E+00 -0.86607406874E+02  0.86607406874E+02  0.00000000000E+00 0.  1.
          5    1    1    2  502    0  0.99881513232E+02 -0.34810326559E+02  0.72311075783E+02  0.12821488682E+03  0.47000000000E+01 0. -1.
         -5    1    1    2    0  502 -0.41997436085E+01  0.40643284378E+02  0.84903692732E+02  0.94341090999E+02  0.47000000000E+01 0. -1.
        -11    1    1    2    0    0 -0.58019544621E+02 -0.44543229450E+02  0.33387951114E+02  0.80405983157E+02  0.00000000000E+00 0. -1.
         11    1    1    2    0    0 -0.37662225003E+02  0.38710271631E+02 -0.64617942092E+01  0.54393778195E+02  0.00000000000E+00 0.  1.
<mgrwt>
<rscale>  0 0.30626009E+03</rscale>
<asrwt>0</asrwt>
<pdfrwt beam="1">  1        1 0.41653589E-01 0.30626009E+03</pdfrwt>
<pdfrwt beam="2">  1       -1 0.13324217E-01 0.30626009E+03</pdfrwt>
<totfact> 0.38692446E+03</totfact>
</mgrwt>
</event>
<event>
 6    1  0.4705246E-006  0.1625694E+03  0.7546771E-02  0.1205805E+00
          2   -1    0    0  501    0  0.00000000000E+00  0.00000000000E+00  0.29904970026E+02  0.29904970026E+02  0.00000000000E+00 0. -1.
         -2   -1    0    0    0  501 -0.00000000000E+00 -0.00000000000E+00 -0.64951768681E+03  0.64951768681E+03  0.00000000000E+00 0.  1.
          5    1    1    2  502    0 -0.86487635869E+02  0.28591609400E+01 -0.72472208267E+02  0.11297166428E+03  0.47000000000E+01 0. -1.
         -5    1    1    2    0  502  0.35801500418E+02  0.12682067718E+02 -0.20563148842E+03  0.20916257146E+03  0.47000000000E+01 0.  1.
        -11    1    1    2    0    0  0.49282928785E+02  0.29998473385E+02 -0.15788339605E+03  0.16809486079E+03  0.00000000000E+00 0.  1.
         11    1    1    2    0    0  0.14032066653E+01 -0.45539702043E+02 -0.18362562405E+03  0.18919356030E+03  0.00000000000E+00 0. -1.
<mgrwt>
<rscale>  0 0.14574185E+03</rscale>
<asrwt>0</asrwt>
<pdfrwt beam="1">  1        2 0.46007641E-02 0.16256937E+03</pdfrwt>
<pdfrwt beam="2">  1       -2 0.99925808E-01 0.16256937E+03</pdfrwt>
<totfact> 0.14708446E+03</totfact>
</mgrwt>
</event>
<event>
 6    1  0.4705246E-006  0.1328936E+03  0.7546771E-02  0.1236710E+00
          2   -1    0    0  501    0  0.00000000000E+00  0.00000000000E+00  0.49836407136E+03  0.49836407136E+03  0.00000000000E+00 0. -1.
         -2   -1    0    0    0  501 -0.00000000000E+00 -0.00000000000E+00 -0.27854650488E+02  0.27854650488E+02  0.00000000000E+00 0.  1.
          5    1    1    2  502    0  0.40163694926E+02  0.33504401080E+02  0.11744725166E+03  0.12865307694E+03  0.47000000000E+01 0.  1.
         -5    1    1    2    0  502 -0.77633583966E+02 -0.83834189855E+01  0.11458188136E+03  0.13873843234E+03  0.47000000000E+01 0.  1.
        -11    1    1    2    0    0  0.16031873604E+02  0.34061565263E+02  0.89392914551E+02  0.96996414219E+02  0.00000000000E+00 0. -1.
         11    1    1    2    0    0  0.21438015436E+02 -0.59182547357E+02  0.14908737330E+03  0.16183079835E+03  0.00000000000E+00 0.  1.
<mgrwt>
<rscale>  0 0.12395626E+03</rscale>
<asrwt>0</asrwt>
<pdfrwt beam="1">  1        2 0.76671389E-01 0.13289357E+03</pdfrwt>
<pdfrwt beam="2">  1       -2 0.42853312E-02 0.13289357E+03</pdfrwt>
<totfact> 0.14610337E+04</totfact>
</mgrwt>
</event>
<event>
 6    1  0.4705246E-006  0.2104473E+03  0.7546771E-02  0.1144809E+00
         -3   -1    0    0    0  501 -0.00000000000E+00  0.00000000000E+00  0.24675428151E+03  0.24675428151E+03  0.00000000000E+00 0.  1.
          3   -1    0    0  501    0  0.00000000000E+00 -0.00000000000E+00 -0.16501328547E+03  0.16501328547E+03  0.00000000000E+00 0. -1.
          5    1    1    2  502    0 -0.31303872692E+01  0.65616234940E+02  0.42400000776E+02  0.78327132451E+02  0.47000000000E+01 0.  1.
         -5    1    1    2    0  502  0.12822945923E+03  0.48454522539E+02  0.42322758949E+01  0.13722476864E+03  0.47000000000E+01 0.  1.
        -11    1    1    2    0    0 -0.56708272241E+02 -0.89328415762E+02 -0.16430750827E+02  0.10707643801E+03  0.00000000000E+00 0. -1.
         11    1    1    2    0    0 -0.68390799717E+02 -0.24742341717E+02  0.51539470196E+02  0.89139227883E+02  0.00000000000E+00 0.  1.
<mgrwt>
<rscale>  0 0.20595599E+03</rscale>
<asrwt>0</asrwt>
<pdfrwt beam="2">  1        3 0.25386659E-01 0.21044727E+03</pdfrwt>
<pdfrwt beam="1">  1       -3 0.37962197E-01 0.21044727E+03</pdfrwt>
<totfact> 0.24645893E+02</totfact>
</mgrwt>
</event>
<event>
 6    1  0.4705246E-006  0.1654086E+03  0.7546771E-02  0.1189871E+00
         -2   -1    0    0    0  501 -0.00000000000E+00  0.00000000000E+00  0.41527521629E+02  0.41527521629E+02  0.00000000000E+00 0.  1.
          2   -1    0    0  501    0  0.00000000000E+00 -0.00000000000E+00 -0.62865463247E+03  0.62865463247E+03  0.00000000000E+00 0. -1.
          5    1    1    2  502    0 -0.94607714311E+02  0.34209340999E+02 -0.35005738561E+03  0.36425699971E+03  0.47000000000E+01 0.  1.
         -5    1    1    2    0  502 -0.12537462506E+02 -0.50300667296E+02 -0.70296947694E+02  0.87470543337E+02  0.47000000000E+01 0.  1.
        -11    1    1    2    0    0  0.61011572206E+02  0.20755259744E+02 -0.24716928812E+02  0.69022600067E+02  0.00000000000E+00 0.  1.
         11    1    1    2    0    0  0.46133604611E+02 -0.46639334482E+01 -0.14205584872E+03  0.14943201098E+03  0.00000000000E+00 0. -1.
<mgrwt>
<rscale>  0 0.15896462E+03</rscale>
<asrwt>0</asrwt>
<pdfrwt beam="2">  1        2 0.96716089E-01 0.16540861E+03</pdfrwt>
<pdfrwt beam="1">  1       -2 0.63888500E-02 0.16540861E+03</pdfrwt>
<totfact> 0.62447010E+03</totfact>
</mgrwt>
</event>
<event>
 6    1  0.4705246E-006  0.1596550E+03  0.7546771E-02  0.1196756E+00
         -2   -1    0    0    0  501 -0.00000000000E+00  0.00000000000E+00  0.23484559996E+02  0.23484559996E+02  0.00000000000E+00 0.  1.
          2   -1    0    0  501    0  0.00000000000E+00 -0.00000000000E+00 -0.10064743282E+04  0.10064743282E+04  0.00000000000E+00 0. -1.
          5    1    1    2  502    0  0.14507710804E+02 -0.51288045482E+02 -0.61147709687E+03  0.61381370731E+03  0.47000000000E+01 0. -1.
         -5    1    1    2    0  502 -0.85361221329E+01 -0.47858480376E+02 -0.65324433751E+02  0.81563908500E+02  0.47000000000E+01 0. -1.
        -11    1    1    2    0    0  0.36228298456E+02  0.51043021942E+02 -0.93832636522E+02  0.11279380912E+03  0.00000000000E+00 0.  1.
         11    1    1    2    0    0 -0.42199887128E+02  0.48103503915E+02 -0.21235560103E+03  0.22178746325E+03  0.00000000000E+00 0. -1.
<mgrwt>
<rscale>  0 0.15306507E+03</rscale>
<asrwt>0</asrwt>
<pdfrwt beam="2">  1        2 0.15484217E+00 0.15965499E+03</pdfrwt>
<pdfrwt beam="1">  1       -2 0.36130100E-02 0.15965499E+03</pdfrwt>
<totfact> 0.81346984E+03</totfact>
</mgrwt>
</event>
<event>
 6    1  0.5217839E-006  0.3609405E+03  0.7546771E-02  0.1058212E+00
          1   -1    0    0  501    0  0.00000000000E+00  0.00000000000E+00  0.59777197682E+03  0.59777197682E+03  0.00000000000E+00 0. -1.
         -1   -1    0    0    0  501 -0.00000000000E+00 -0.00000000000E+00 -0.54484846722E+02  0.54484846722E+02  0.00000000000E+00 0.  1.
          5    1    1    2  502    0  0.16597384317E+01 -0.12226880316E+02 -0.23700755692E+01  0.13414864596E+02  0.47000000000E+01 0. -1.
         -5    1    1    2    0  502  0.36743212691E+02  0.14559660860E+03  0.35896762601E+03  0.38913787100E+03  0.47000000000E+01 0. -1.
        -11    1    1    2    0    0  0.23114183689E+02 -0.82624941930E+02  0.89424290087E+02  0.12392679361E+03  0.00000000000E+00 0. -1.
         11    1    1    2    0    0 -0.61517134811E+02 -0.50744786358E+02  0.97265289569E+02  0.12577729435E+03  0.00000000000E+00 0.  1.
<mgrwt>
<rscale>  0 0.36094052E+03</rscale>
<asrwt>0</asrwt>
<pdfrwt beam="1">  1        1 0.91964915E-01 0.36094052E+03</pdfrwt>
<pdfrwt beam="2">  1       -1 0.83822845E-02 0.36094052E+03</pdfrwt>
<totfact> 0.28423117E+03</totfact>
</mgrwt>
</event>
<event>
 6    1  0.4705246E-006  0.1293648E+03  0.7546771E-02  0.1242715E+00
         -1   -1    0    0    0  501 -0.00000000000E+00  0.00000000000E+00  0.28107445623E+02  0.28107445623E+02  0.00000000000E+00 0.  1.
          1   -1    0    0  501    0  0.00000000000E+00 -0.00000000000E+00 -0.46188484768E+03  0.46188484768E+03  0.00000000000E+00 0. -1.
          5    1    1    2  502    0 -0.20778174303E+02  0.49632380332E+02 -0.45078021363E+02  0.70350719362E+02  0.47000000000E+01 0.  1.
         -5    1    1    2    0  502  0.33548331738E+02 -0.18859564164E+02 -0.23478685487E+03  0.23796665931E+03  0.47000000000E+01 0.  1.
        -11    1    1    2    0    0 -0.42558588407E+02 -0.58895666776E+01 -0.12796891356E+03  0.13498875242E+03  0.00000000000E+00 0.  1.
         11    1    1    2    0    0  0.29788430973E+02 -0.24883249490E+02 -0.25943612273E+02  0.46686162219E+02  0.00000000000E+00 0. -1.
<mgrwt>
<rscale>  0 0.12023197E+03</rscale>
<asrwt>0</asrwt>
<pdfrwt beam="2">  1        1 0.71059196E-01 0.12936482E+03</pdfrwt>
<pdfrwt beam="1">  1       -1 0.43242231E-02 0.12936482E+03</pdfrwt>
<totfact> 0.10404085E+04</totfact>
</mgrwt>
</event>
<event>
 6    1  0.4705246E-006  0.1698540E+03  0.7546771E-02  0.1183420E+00
         -2   -1    0    0    0  501 -0.00000000000E+00  0.00000000000E+00  0.49405954774E+02  0.49405954774E+02  0.00000000000E+00 0.  1.
          2   -1    0    0  501    0  0.00000000000E+00 -0.00000000000E+00 -0.53841293015E+03  0.53841293015E+03  0.00000000000E+00 0. -1.
          5    1    1    2  502    0 -0.11176084855E+02  0.43256214066E+02 -0.11993410136E+03  0.12807140039E+03  0.47000000000E+01 0. -1.
         -5    1    1    2    0  502 -0.10333522861E+03 -0.32648440221E+02 -0.83117035814E+02  0.13665511979E+03  0.47000000000E+01 0. -1.
        -11    1    1    2    0    0 -0.22735860675E+00  0.13781673230E+02  0.24477571849E+00  0.13785721747E+02  0.00000000000E+00 0.  1.
         11    1    1    2    0    0  0.11473867207E+03 -0.24389447075E+02 -0.28620061392E+03  0.30930664300E+03  0.00000000000E+00 0. -1.
<mgrwt>
<rscale>  0 0.16476439E+03</rscale>
<asrwt>0</asrwt>
<pdfrwt beam="2">  1        2 0.82832763E-01 0.16985396E+03</pdfrwt>
<pdfrwt beam="1">  1       -2 0.76009157E-02 0.16985396E+03</pdfrwt>
<totfact> 0.57110985E+03</totfact>
</mgrwt>
</event>
<event>
 6    1  0.4705246E-006  0.1432398E+03  0.7546771E-02  0.1227718E+00
          1   -1    0    0  501    0  0.00000000000E+00  0.00000000000E+00  0.21049376824E+04  0.21049376824E+04  0.00000000000E+00 0. -1.
         -1   -1    0    0    0  501 -0.00000000000E+00 -0.00000000000E+00 -0.21857621556E+02  0.21857621556E+02  0.00000000000E+00 0.  1.
          5    1    1    2  502    0  0.83254991117E+02 -0.74920777225E+01  0.12483413548E+04  0.12511457761E+04  0.47000000000E+01 0. -1.
         -5    1    1    2    0  502 -0.55139053280E+02  0.20307526633E+02  0.73282235040E+03  0.73518936205E+03  0.47000000000E+01 0.  1.
        -11    1    1    2    0    0  0.17923804089E+02  0.27870342047E+02  0.50203315594E+02  0.60153068213E+02  0.00000000000E+00 0. -1.
         11    1    1    2    0    0 -0.46039741925E+02 -0.40685790957E+02  0.51713040041E+02  0.80307097648E+02  0.00000000000E+00 0.  1.
<mgrwt>
<rscale>  0 0.12982357E+03</rscale>
<asrwt>0</asrwt>
<pdfrwt beam="1">  1        1 0.32383641E+00 0.14323985E+03</pdfrwt>
<pdfrwt beam="2">  1       -1 0.33627127E-02 0.14323985E+03</pdfrwt>
<totfact> 0.93263041E+02</totfact>
</mgrwt>
</event>
<event>
 6    1  0.4705246E-006  0.2809222E+03  0.7546771E-02  0.1095186E+00
         -2   -1    0    0    0  501 -0.00000000000E+00  0.00000000000E+00  0.56053188303E+02  0.56053188303E+02  0.00000000000E+00 0.  1.
          2   -1    0    0  501    0  0.00000000000E+00 -0.00000000000E+00 -0.35197488216E+03  0.35197488216E+03  0.00000000000E+00 0. -1.
          5    1    1    2  502    0  0.40634491821E+02  0.96753454498E+02 -0.19181015835E+03  0.21869069420E+03  0.47000000000E+01 0.  1.
         -5    1    1    2    0  502 -0.17463638982E+01 -0.18168297620E+02  0.78192421181E+01  0.20405082028E+02  0.47000000000E+01 0.  1.
        -11    1    1    2    0    0 -0.68090243810E+02 -0.43181910699E+02 -0.72228055773E+02  0.10824902196E+03  0.00000000000E+00 0. -1.
         11    1    1    2    0    0  0.29202115887E+02 -0.35403246179E+02 -0.39702721857E+02  0.60683272285E+02  0.00000000000E+00 0.  1.
<mgrwt>
<rscale>  0 0.28092216E+03</rscale>
<asrwt>0</asrwt>
<pdfrwt beam="2">  1        2 0.54149981E-01 0.28092216E+03</pdfrwt>
<pdfrwt beam="1">  1       -2 0.86235676E-02 0.28092216E+03</pdfrwt>
<totfact> 0.76699316E+03</totfact>
</mgrwt>
</event>
<event>
 6    1  0.4705246E-006  0.2230978E+03  0.7546771E-02  0.1135099E+00
         -2   -1    0    0    0  501 -0.00000000000E+00  0.00000000000E+00  0.40981164189E+03  0.40981164189E+03  0.00000000000E+00 0.  1.
          2   -1    0    0  501    0  0.00000000000E+00 -0.00000000000E+00 -0.11375042064E+03  0.11375042064E+03  0.00000000000E+00 0. -1.
          5    1    1    2  502    0 -0.14348554285E+03 -0.92482582382E+02  0.20485370896E+03  0.26669882100E+03  0.47000000000E+01 0.  1.
         -5    1    1    2    0  502 -0.30825194234E+01 -0.20040619893E+02 -0.15477180093E+02  0.25937645910E+02  0.47000000000E+01 0.  1.
        -11    1    1    2    0    0  0.39280112998E+02  0.76869537625E+02  0.72734272746E+02  0.11288103261E+03  0.00000000000E+00 0.  1.
         11    1    1    2    0    0  0.10728794927E+03  0.35653664650E+02  0.33950419635E+02  0.11804456301E+03  0.00000000000E+00 0. -1.
<mgrwt>
<rscale>  0 0.21837681E+03</rscale>
<asrwt>0</asrwt>
<pdfrwt beam="2">  1        2 0.17500065E-01 0.22309781E+03</pdfrwt>
<pdfrwt beam="1">  1       -2 0.63047944E-01 0.22309781E+03</pdfrwt>
<totfact> 0.77130146E+02</totfact>
</mgrwt>
</event>
<event>
 6    1  0.4705246E-006  0.1390046E+03  0.7546771E-02  0.1226263E+00
          2   -1    0    0  501    0  0.00000000000E+00  0.00000000000E+00  0.71055850005E+03  0.71055850005E+03  0.00000000000E+00 0. -1.
         -2   -1    0    0    0  501 -0.00000000000E+00 -0.00000000000E+00 -0.21794787888E+02  0.21794787888E+02  0.00000000000E+00 0.  1.
          5    1    1    2  502    0 -0.28444743166E+02  0.13438677553E+02  0.34967173077E+03  0.35111552339E+03  0.47000000000E+01 0.  1.
         -5    1    1    2    0  502 -0.26028655577E+02  0.13695013831E+02  0.54994512672E+01  0.30288253156E+02  0.47000000000E+01 0.  1.
        -11    1    1    2    0    0  0.72615929862E+01 -0.50915970594E+02  0.21570852078E+03  0.22175511884E+03  0.00000000000E+00 0. -1.
         11    1    1    2    0    0  0.47211805757E+02  0.23782279209E+02  0.11788400935E+03  0.12919439255E+03  0.00000000000E+00 0.  1.
<mgrwt>
<rscale>  0 0.13080704E+03</rscale>
<asrwt>0</asrwt>
<pdfrwt beam="1">  1        2 0.10931667E+00 0.13900458E+03</pdfrwt>
<pdfrwt beam="2">  1       -2 0.33530448E-02 0.13900458E+03</pdfrwt>
<totfact> 0.14081196E+04</totfact>
</mgrwt>
</event>
<event>
 6    1  0.4705246E-006  0.1486301E+03  0.7546771E-02  0.1211586E+00
          2   -1    0    0  501    0  0.00000000000E+00  0.00000000000E+00  0.18628854809E+04  0.18628854809E+04  0.00000000000E+00 0. -1.
         -2   -1    0    0    0  501 -0.00000000000E+00 -0.00000000000E+00 -0.10149840574E+02  0.10149840574E+02  0.00000000000E+00 0.  1.
          5    1    1    2  502    0 -0.16681775454E+02 -0.39786012173E+02  0.95685257433E+03  0.95783617983E+03  0.47000000000E+01 0. -1.
         -5    1    1    2    0  502  0.54294345084E+02 -0.31374007729E+02  0.23575719206E+03  0.24399948336E+03  0.47000000000E+01 0. -1.
        -11    1    1    2    0    0  0.75251015452E+01  0.75601190599E+02  0.42570697665E+03  0.43243334416E+03  0.00000000000E+00 0.  1.
         11    1    1    2    0    0 -0.45137671175E+02 -0.44411706969E+01  0.23441889728E+03  0.23876631412E+03  0.00000000000E+00 0. -1.
<mgrwt>
<rscale>  0 0.14130340E+03</rscale>
<asrwt>0</asrwt>
<pdfrwt beam="1">  1        2 0.28659750E+00 0.14863010E+03</pdfrwt>
<pdfrwt beam="2">  1       -2 0.15615154E-02 0.14863010E+03</pdfrwt>
<totfact> 0.96032095E+03</totfact>
</mgrwt>
</event>
<event>
 6    1  0.4705246E-006  0.2245106E+03  0.7546771E-02  0.1155015E+00
         -1   -1    0    0    0  501 -0.00000000000E+00  0.00000000000E+00  0.13675559717E+03  0.13675559717E+03  0.00000000000E+00 0.  1.
          1   -1    0    0  501    0  0.00000000000E+00 -0.00000000000E+00 -0.38410933154E+03  0.38410933154E+03  0.00000000000E+00 0. -1.
          5    1    1    2  502    0 -0.11284886881E+03 -0.44728147490E+02 -0.31051139917E+03  0.33342899302E+03  0.47000000000E+01 0. -1.
         -5    1    1    2    0  502  0.47230634127E+02 -0.88695785193E+01  0.17630372588E+01  0.48317704039E+02  0.47000000000E+01 0.  1.
        -11    1    1    2    0    0  0.63827279364E+02 -0.53346387547E+01  0.20077773304E+02  0.67122998610E+02  0.00000000000E+00 0.  1.
         11    1    1    2    0    0  0.17909553170E+01  0.58932364764E+02  0.41316854242E+02  0.71995233051E+02  0.00000000000E+00 0. -1.
<mgrwt>
<rscale>  0 0.19387172E+03</rscale>
<asrwt>0</asrwt>
<pdfrwt beam="2">  1        1 0.59093743E-01 0.22451056E+03</pdfrwt>
<pdfrwt beam="1">  1       -1 0.21039323E-01 0.22451056E+03</pdfrwt>
<totfact> 0.11830839E+03</totfact>
</mgrwt>
</event>
<event>
 6    1  0.4705246E-006  0.1385338E+03  0.7546771E-02  0.1224898E+00
          2   -1    0    0  501    0  0.00000000000E+00  0.00000000000E+00  0.48804223413E+03  0.48804223413E+03  0.00000000000E+00 0. -1.
         -2   -1    0    0    0  501 -0.00000000000E+00 -0.00000000000E+00 -0.37359208955E+02  0.37359208955E+02  0.00000000000E+00 0.  1.
          5    1    1    2  502    0 -0.14568062668E+02  0.21355902357E+02  0.25790402281E+03  0.25923903640E+03  0.47000000000E+01 0. -1.
         -5    1    1    2    0  502 -0.26896835661E+02 -0.64327330813E+02  0.81555924742E+02  0.10740067094E+03  0.47000000000E+01 0. -1.
        -11    1    1    2    0    0  0.65304839505E+02  0.52089987794E+02  0.10148436690E+03  0.13144263242E+03  0.00000000000E+00 0. -1.
         11    1    1    2    0    0 -0.23839941176E+02 -0.91185593383E+01  0.97387107183E+01  0.27319103318E+02  0.00000000000E+00 0.  1.
<mgrwt>
<rscale>  0 0.13173923E+03</rscale>
<asrwt>0</asrwt>
<pdfrwt beam="1">  1        2 0.75083416E-01 0.13853382E+03</pdfrwt>
<pdfrwt beam="2">  1       -2 0.57475710E-02 0.13853382E+03</pdfrwt>
<totfact> 0.96500765E+03</totfact>
</mgrwt>
</event>
<event>
 6    1  0.4705246E-006  0.3255210E+03  0.7546771E-02  0.1073136E+00
          2   -1    0    0  501    0  0.00000000000E+00  0.00000000000E+00  0.12265149552E+04  0.12265149552E+04  0.00000000000E+00 0. -1.
         -2   -1    0    0    0  501 -0.00000000000E+00 -0.00000000000E+00 -0.21598577517E+02  0.21598577517E+02  0.00000000000E+00 0.  1.
          5    1    1    2  502    0  0.16161097511E+02  0.23924990128E+02  0.52736534926E+03  0.52817600080E+03  0.47000000000E+01 0. -1.
         -5    1    1    2    0  502  0.95325968965E+02  0.97419294551E+01  0.25080823689E+03  0.26853083108E+03  0.47000000000E+01 0. -1.
        -11    1    1    2    0    0 -0.63990736044E+02  0.25216781364E+02  0.24687107460E+03  0.25627334594E+03  0.00000000000E+00 0.  1.
         11    1    1    2    0    0 -0.47496330433E+02 -0.58883700947E+02  0.17987171694E+03  0.19513335490E+03  0.00000000000E+00 0. -1.
<mgrwt>
<rscale>  0 0.32552099E+03</rscale>
<asrwt>0</asrwt>
<pdfrwt beam="1">  1        2 0.18869455E+00 0.32552099E+03</pdfrwt>
<pdfrwt beam="2">  1       -2 0.33228590E-02 0.32552099E+03</pdfrwt>
<totfact> 0.70348217E+03</totfact>
</mgrwt>
</event>
<event>
 6    1  0.4705246E-006  0.2058020E+03  0.7546771E-02  0.1148907E+00
         -2   -1    0    0    0  501 -0.00000000000E+00  0.00000000000E+00  0.57750421785E+02  0.57750421785E+02  0.00000000000E+00 0.  1.
          2   -1    0    0  501    0  0.00000000000E+00 -0.00000000000E+00 -0.85707523536E+03  0.85707523536E+03  0.00000000000E+00 0. -1.
          5    1    1    2  502    0  0.40891775686E+02  0.48929566552E+02 -0.13654044549E+03  0.15077010001E+03  0.47000000000E+01 0.  1.
         -5    1    1    2    0  502 -0.81600927684E+02  0.10941264515E+03 -0.49214345095E+03  0.51074172008E+03  0.47000000000E+01 0.  1.
        -11    1    1    2    0    0  0.30117686767E+02 -0.51570257585E+02 -0.12132525610E+03  0.13522715812E+03  0.00000000000E+00 0.  1.
         11    1    1    2    0    0  0.10591465232E+02 -0.10677195411E+03 -0.49315661030E+02  0.11808667894E+03  0.00000000000E+00 0. -1.
<mgrwt>
<rscale>  0 0.20098909E+03</rscale>
<asrwt>0</asrwt>
<pdfrwt beam="2">  1        2 0.13185772E+00 0.20580196E+03</pdfrwt>
<pdfrwt beam="1">  1       -2 0.88846810E-02 0.20580196E+03</pdfrwt>
<totfact> 0.25820537E+03</totfact>
</mgrwt>
</event>
<event>
 6    1  0.4705246E-006  0.1422054E+03  0.7546771E-02  0.1220576E+00
          2   -1    0    0  501    0  0.00000000000E+00  0.00000000000E+00  0.13746476428E+04  0.13746476428E+04  0.00000000000E+00 0. -1.
         -2   -1    0    0    0  501 -0.00000000000E+00 -0.00000000000E+00 -0.15771460037E+02  0.15771460037E+02  0.00000000000E+00 0.  1.
          5    1    1    2  502    0 -0.58886783377E+02  0.42982694875E+01  0.68208543482E+03  0.68465229042E+03  0.47000000000E+01 0. -1.
         -5    1    1    2    0  502  0.31206600186E+02 -0.66198878412E+02  0.39140419285E+03  0.39821536331E+03  0.47000000000E+01 0. -1.
        -11    1    1    2    0    0 -0.18099388077E+02  0.36403006800E+02  0.22016470645E+03  0.22388672297E+03  0.00000000000E+00 0.  1.
         11    1    1    2    0    0  0.45779571268E+02  0.25497602125E+02  0.65221848614E+02  0.83664726117E+02  0.00000000000E+00 0. -1.
<mgrwt>
<rscale>  0 0.13474772E+03</rscale>
<asrwt>0</asrwt>
<pdfrwt beam="1">  1        2 0.21148416E+00 0.14220540E+03</pdfrwt>
<pdfrwt beam="2">  1       -2 0.24263795E-02 0.14220540E+03</pdfrwt>
<totfact> 0.90479271E+03</totfact>
</mgrwt>
</event>
<event>
 6    1  0.4705246E-006  0.2105980E+03  0.7546771E-02  0.1141093E+00
         -1   -1    0    0    0  501 -0.00000000000E+00  0.00000000000E+00  0.61470263490E+02  0.61470263490E+02  0.00000000000E+00 0.  1.
          1   -1    0    0  501    0  0.00000000000E+00 -0.00000000000E+00 -0.18037797785E+03  0.18037797785E+03  0.00000000000E+00 0. -1.
          5    1    1    2  502    0 -0.91291028585E+01  0.12094049114E+02  0.28121565991E+02  0.32288063069E+02  0.47000000000E+01 0. -1.
         -5    1    1    2    0  502 -0.15598362129E+02 -0.37783024559E+02 -0.91217969884E+02  0.10006834602E+03  0.47000000000E+01 0.  1.
        -11    1    1    2    0    0 -0.12594094419E+02  0.31831970742E+02 -0.62328557453E+02  0.71110721061E+02  0.00000000000E+00 0. -1.
         11    1    1    2    0    0  0.37321559407E+02 -0.61429952976E+01  0.65172469858E+01  0.38381111188E+02  0.00000000000E+00 0.  1.
<mgrwt>
<rscale>  0 0.21059802E+03</rscale>
<asrwt>0</asrwt>
<pdfrwt beam="2">  1        1 0.27750459E-01 0.21059802E+03</pdfrwt>
<pdfrwt beam="1">  1       -1 0.94569635E-02 0.21059802E+03</pdfrwt>
<totfact> 0.10817140E+04</totfact>
</mgrwt>
</event>
<event>
 6    1  0.4705246E-006  0.1450537E+03  0.7546771E-02  0.1216606E+00
          1   -1    0    0  501    0  0.00000000000E+00  0.00000000000E+00  0.31546295664E+03  0.31546295664E+03  0.00000000000E+00 0. -1.
         -1   -1    0    0    0  501 -0.00000000000E+00 -0.00000000000E+00 -0.57412623890E+02  0.57412623890E+02  0.00000000000E+00 0.  1.
          5    1    1    2  502    0  0.91223184934E+00  0.35342746294E+02  0.52087387614E+02  0.63127868893E+02  0.47000000000E+01 0. -1.
         -5    1    1    2    0  502 -0.12707980944E+01 -0.10894985435E+03  0.13088989997E+03  0.17037001381E+03  0.47000000000E+01 0. -1.
        -11    1    1    2    0    0 -0.17952203189E+02  0.15867133380E+02  0.75073310639E+02  0.78803867235E+02  0.00000000000E+00 0. -1.
         11    1    1    2    0    0  0.18310769434E+02  0.57739974676E+02 -0.26547086263E-03  0.60573830595E+02  0.00000000000E+00 0.  1.
<mgrwt>
<rscale>  0 0.13759189E+03</rscale>
<asrwt>0</asrwt>
<pdfrwt beam="1">  1        1 0.48532761E-01 0.14505369E+03</pdfrwt>
<pdfrwt beam="2">  1       -1 0.88327116E-02 0.14505369E+03</pdfrwt>
<totfact> 0.58324540E+03</totfact>
</mgrwt>
</event>
<event>
 6    1  0.4705246E-006  0.3427799E+03  0.7546771E-02  0.1065618E+00
         -2   -1    0    0    0  501 -0.00000000000E+00  0.00000000000E+00  0.35723320937E+02  0.35723320937E+02  0.00000000000E+00 0.  1.
          2   -1    0    0  501    0  0.00000000000E+00 -0.00000000000E+00 -0.82227816500E+03  0.82227816500E+03  0.00000000000E+00 0. -1.
          5    1    1    2  502    0  0.20767224830E+02 -0.26443530006E+02 -0.33073967884E+03  0.33247761288E+03  0.47000000000E+01 0. -1.
         -5    1    1    2    0  502 -0.36348525446E+02  0.87039845310E+02 -0.37827825930E+03  0.38988931946E+03  0.47000000000E+01 0.  1.
        -11    1    1    2    0    0 -0.29900797250E+02 -0.58565690494E+02 -0.46246284028E+02  0.80391022916E+02  0.00000000000E+00 0.  1.
         11    1    1    2    0    0  0.45482097866E+02 -0.20306248101E+01 -0.31290621900E+02  0.55243530683E+02  0.00000000000E+00 0. -1.
<mgrwt>
<rscale>  0 0.34277985E+03</rscale>
<asrwt>0</asrwt>
<pdfrwt beam="2">  1        2 0.12650432E+00 0.34277985E+03</pdfrwt>
<pdfrwt beam="1">  1       -2 0.54958961E-02 0.34277985E+03</pdfrwt>
<totfact> 0.58227934E+03</totfact>
</mgrwt>
</event>
<event>
 6    1  0.4705246E-006  0.1388317E+03  0.7546771E-02  0.1232953E+00
          2   -1    0    0  501    0  0.00000000000E+00  0.00000000000E+00  0.49077000633E+03  0.49077000633E+03  0.00000000000E+00 0. -1.
         -2   -1    0    0    0  501 -0.00000000000E+00 -0.00000000000E+00 -0.36367342548E+02  0.36367342548E+02  0.00000000000E+00 0.  1.
          5    1    1    2  502    0 -0.41226497786E+02  0.24568737008E+02  0.38913733030E+03  0.39211375746E+03  0.47000000000E+01 0.  1.
         -5    1    1    2    0  502 -0.15481701228E+02 -0.37465412250E+01 -0.41693084780E+01  0.17122872926E+02  0.47000000000E+01 0.  1.
        -11    1    1    2    0    0  0.39445887291E+02 -0.29007303316E+02  0.33138643829E+01  0.49075282648E+02  0.00000000000E+00 0.  1.
         11    1    1    2    0    0  0.17262311723E+02  0.81851075331E+01  0.66120777574E+02  0.68825435838E+02  0.00000000000E+00 0. -1.
<mgrwt>
<rscale>  0 0.12636410E+03</rscale>
<asrwt>0</asrwt>
<pdfrwt beam="1">  1        2 0.75503073E-01 0.13883170E+03</pdfrwt>
<pdfrwt beam="2">  1       -2 0.55949761E-02 0.13883170E+03</pdfrwt>
<totfact> 0.99910992E+03</totfact>
</mgrwt>
</event>
<event>
 6    1  0.4705246E-006  0.1350202E+03  0.7546771E-02  0.1232281E+00
         -1   -1    0    0    0  501 -0.00000000000E+00  0.00000000000E+00  0.26347065682E+03  0.26347065682E+03  0.00000000000E+00 0.  1.
          1   -1    0    0  501    0  0.00000000000E+00 -0.00000000000E+00 -0.65126487417E+02  0.65126487417E+02  0.00000000000E+00 0. -1.
          5    1    1    2  502    0  0.49251020078E+02  0.41079677040E+02 -0.21963357939E+02  0.67953527770E+02  0.47000000000E+01 0.  1.
         -5    1    1    2    0  502 -0.32313842786E+02  0.70786027665E+01  0.66156349209E+02  0.74115069948E+02  0.47000000000E+01 0.  1.
        -11    1    1    2    0    0  0.23128170929E+02 -0.30034167642E+02  0.13191229992E+03  0.13725093219E+03  0.00000000000E+00 0.  1.
         11    1    1    2    0    0 -0.40065348221E+02 -0.18124112164E+02  0.22238878211E+02  0.49277614328E+02  0.00000000000E+00 0. -1.
<mgrwt>
<rscale>  0 0.12680099E+03</rscale>
<asrwt>0</asrwt>
<pdfrwt beam="2">  1        1 0.10019460E-01 0.13502024E+03</pdfrwt>
<pdfrwt beam="1">  1       -1 0.40533947E-01 0.13502024E+03</pdfrwt>
<totfact> 0.37026195E+03</totfact>
</mgrwt>
</event>
<event>
 6    1  0.4705246E-006  0.2009526E+03  0.7546771E-02  0.1153227E+00
          2   -1    0    0  501    0  0.00000000000E+00  0.00000000000E+00  0.74410223908E+03  0.74410223908E+03  0.00000000000E+00 0. -1.
         -2   -1    0    0    0  501 -0.00000000000E+00 -0.00000000000E+00 -0.49375195111E+02  0.49375195111E+02  0.00000000000E+00 0.  1.
          5    1    1    2  502    0 -0.46800403858E+02  0.82128216301E+02  0.21899316035E+03  0.23856952026E+03  0.47000000000E+01 0.  1.
         -5    1    1    2    0  502 -0.97043626507E+02 -0.18361871631E+02  0.11976398377E+03  0.15530655358E+03  0.47000000000E+01 0.  1.
        -11    1    1    2    0    0 -0.77012623263E+01  0.10143077373E+02  0.30465656491E+02  0.33020413163E+02  0.00000000000E+00 0. -1.
         11    1    1    2    0    0  0.15154529269E+03 -0.73909422043E+02  0.32550424335E+03  0.36658094719E+03  0.00000000000E+00 0.  1.
<mgrwt>
<rscale>  0 0.19592040E+03</rscale>
<asrwt>0</asrwt>
<pdfrwt beam="1">  1        2 0.11447726E+00 0.20095263E+03</pdfrwt>
<pdfrwt beam="2">  1       -2 0.75961844E-02 0.20095263E+03</pdfrwt>
<totfact> 0.39413201E+03</totfact>
</mgrwt>
</event>
<event>
 6    1  0.4705246E-006  0.1352275E+03  0.7546771E-02  0.1232823E+00
          2   -1    0    0  501    0  0.00000000000E+00  0.00000000000E+00  0.73263987724E+03  0.73263987724E+03  0.00000000000E+00 0. -1.
         -2   -1    0    0    0  501 -0.00000000000E+00 -0.00000000000E+00 -0.20970790418E+02  0.20970790418E+02  0.00000000000E+00 0.  1.
          5    1    1    2  502    0 -0.87819345143E+02 -0.30507813643E+02  0.32525983281E+03  0.33831791693E+03  0.47000000000E+01 0.  1.
         -5    1    1    2    0  502  0.39039616994E+02  0.13753285829E+02  0.17591428873E+03  0.18077934491E+03  0.47000000000E+01 0.  1.
        -11    1    1    2    0    0 -0.16247717758E+02  0.25290276174E+02  0.29985204750E+02  0.42458201861E+02  0.00000000000E+00 0.  1.
         11    1    1    2    0    0  0.65027445907E+02 -0.85357483603E+01  0.18050976053E+03  0.19205520396E+03  0.00000000000E+00 0. -1.
<mgrwt>
<rscale>  0 0.12644824E+03</rscale>
<asrwt>0</asrwt>
<pdfrwt beam="1">  1        2 0.11271381E+00 0.13522746E+03</pdfrwt>
<pdfrwt beam="2">  1       -2 0.32262760E-02 0.13522746E+03</pdfrwt>
<totfact> 0.14339867E+04</totfact>
</mgrwt>
</event>
<event>
 6    1  0.4705246E-006  0.2371909E+03  0.7546771E-02  0.1121678E+00
         -3   -1    0    0    0  501 -0.00000000000E+00  0.00000000000E+00  0.12496510515E+03  0.12496510515E+03  0.00000000000E+00 0.  1.
          3   -1    0    0  501    0  0.00000000000E+00 -0.00000000000E+00 -0.11255047536E+03  0.11255047536E+03  0.00000000000E+00 0. -1.
          5    1    1    2  502    0 -0.48412090557E+02 -0.31306470961E+02  0.43132381032E+02  0.72154819171E+02  0.47000000000E+01 0.  1.
         -5    1    1    2    0  502  0.21309209204E+02  0.22879477821E+02 -0.46296443781E+02  0.56062497349E+02  0.47000000000E+01 0.  1.
        -11    1    1    2    0    0  0.57270625990E+01  0.51260941829E+02 -0.13460966854E+02  0.53307420045E+02  0.00000000000E+00 0.  1.
         11    1    1    2    0    0  0.21375818754E+02 -0.42833948689E+02  0.29039659401E+02  0.55990843946E+02  0.00000000000E+00 0. -1.
<mgrwt>
<rscale>  0 0.23719091E+03</rscale>
<asrwt>0</asrwt>
<pdfrwt beam="2">  1        3 0.17315458E-01 0.23719091E+03</pdfrwt>
<pdfrwt beam="1">  1       -3 0.19225401E-01 0.23719091E+03</pdfrwt>
<totfact> 0.17416479E+03</totfact>
</mgrwt>
</event>
<event>
 6    1  0.4705246E-006  0.1523370E+03  0.7546771E-02  0.1204399E+00
         -2   -1    0    0    0  501 -0.00000000000E+00  0.00000000000E+00  0.42206308315E+03  0.42206308315E+03  0.00000000000E+00 0.  1.
          2   -1    0    0  501    0  0.00000000000E+00 -0.00000000000E+00 -0.55758348697E+02  0.55758348697E+02  0.00000000000E+00 0. -1.
          5    1    1    2  502    0 -0.17572684436E+02  0.87247835913E+02  0.40394869952E+02  0.97851007293E+02  0.47000000000E+01 0. -1.
         -5    1    1    2    0  502  0.58484349871E+02 -0.22779986134E+01  0.63821967489E+02  0.86723364739E+02  0.47000000000E+01 0.  1.
        -11    1    1    2    0    0 -0.30653050395E+02  0.11909123063E+00  0.20420408711E+02  0.36832278957E+02  0.00000000000E+00 0. -1.
         11    1    1    2    0    0 -0.10258615040E+02 -0.85088928530E+02  0.24166748830E+03  0.25641478086E+03  0.00000000000E+00 0.  1.
<mgrwt>
<rscale>  0 0.14684919E+03</rscale>
<asrwt>0</asrwt>
<pdfrwt beam="2">  1        2 0.85782078E-02 0.15233696E+03</pdfrwt>
<pdfrwt beam="1">  1       -2 0.64932780E-01 0.15233696E+03</pdfrwt>
<totfact> 0.16952881E+03</totfact>
</mgrwt>
</event>
<event>
 6    1  0.4705246E-006  0.1396982E+03  0.7546771E-02  0.1226180E+00
          2   -1    0    0  501    0  0.00000000000E+00  0.00000000000E+00  0.10370581270E+04  0.10370581270E+04  0.00000000000E+00 0. -1.
         -2   -1    0    0    0  501 -0.00000000000E+00 -0.00000000000E+00 -0.25665157235E+02  0.25665157235E+02  0.00000000000E+00 0.  1.
          5    1    1    2  502    0  0.46743299446E+02 -0.42943578314E+02  0.46794808070E+03  0.47225690381E+03  0.47000000000E+01 0. -1.
         -5    1    1    2    0  502 -0.73472873310E+02 -0.13409879847E+02  0.42048906546E+03  0.42709627973E+03  0.47000000000E+01 0. -1.
        -11    1    1    2    0    0  0.27478497564E+02  0.29465399431E+02  0.12955388939E+03  0.13567419743E+03  0.00000000000E+00 0. -1.
         11    1    1    2    0    0 -0.74892369935E+00  0.26888058730E+02 -0.65980657374E+01  0.27695903315E+02  0.00000000000E+00 0.  1.
<mgrwt>
<rscale>  0 0.13086320E+03</rscale>
<asrwt>0</asrwt>
<pdfrwt beam="1">  1        2 0.15954737E+00 0.13969820E+03</pdfrwt>
<pdfrwt beam="2">  1       -2 0.39484865E-02 0.13969820E+03</pdfrwt>
<totfact> 0.67961073E+03</totfact>
</mgrwt>
</event>
<event>
 6    1  0.4705246E-006  0.3383781E+03  0.7546771E-02  0.1067489E+00
         -1   -1    0    0    0  501 -0.00000000000E+00  0.00000000000E+00  0.64809752116E+02  0.64809752116E+02  0.00000000000E+00 0.  1.
          1   -1    0    0  501    0  0.00000000000E+00 -0.00000000000E+00 -0.44167625199E+03  0.44167625199E+03  0.00000000000E+00 0. -1.
          5    1    1    2  502    0  0.13018615892E+03 -0.14340327322E+02 -0.94179640660E+02  0.16138765652E+03  0.47000000000E+01 0.  1.
         -5    1    1    2    0  502 -0.25618773915E+02  0.17681236213E+02 -0.30485429924E+02  0.43822358775E+02  0.47000000000E+01 0.  1.
        -11    1    1    2    0    0 -0.55393847353E+02  0.35638269385E+02 -0.33789484015E+02  0.74029006473E+02  0.00000000000E+00 0.  1.
         11    1    1    2    0    0 -0.49173537650E+02 -0.38979178276E+02 -0.21841194527E+03  0.22724698234E+03  0.00000000000E+00 0. -1.
<mgrwt>
<rscale>  0 0.33837806E+03</rscale>
<asrwt>0</asrwt>
<pdfrwt beam="2">  1        1 0.67950189E-01 0.33837806E+03</pdfrwt>
<pdfrwt beam="1">  1       -1 0.99707316E-02 0.33837806E+03</pdfrwt>
<totfact> 0.32671296E+03</totfact>
</mgrwt>
</event>
<event>
 6    1  0.4705246E-006  0.1496021E+03  0.7546771E-02  0.1209629E+00
          1   -1    0    0  501    0  0.00000000000E+00  0.00000000000E+00  0.39126551012E+02  0.39126551012E+02  0.00000000000E+00 0. -1.
         -1   -1    0    0    0  501 -0.00000000000E+00 -0.00000000000E+00 -0.47906500462E+03  0.47906500462E+03  0.00000000000E+00 0.  1.
          5    1    1    2  502    0 -0.32588502015E+02  0.71651282233E+02 -0.16622223663E+03  0.18397782111E+03  0.47000000000E+01 0. -1.
         -5    1    1    2    0  502  0.66423289554E+02  0.33252208659E+01 -0.80118304197E+02  0.10423120049E+03  0.47000000000E+01 0. -1.
        -11    1    1    2    0    0 -0.51118917904E+02 -0.63811236294E+01 -0.10178155241E+03  0.11407605760E+03  0.00000000000E+00 0.  1.
         11    1    1    2    0    0  0.17284130365E+02 -0.68595379469E+02 -0.91816360368E+02  0.11590647643E+03  0.00000000000E+00 0. -1.
<mgrwt>
<rscale>  0 0.14278577E+03</rscale>
<asrwt>0</asrwt>
<pdfrwt beam="1">  1        1 0.60194695E-02 0.14960207E+03</pdfrwt>
<pdfrwt beam="2">  1       -1 0.73702307E-01 0.14960207E+03</pdfrwt>
<totfact> 0.24167079E+03</totfact>
</mgrwt>
</event>
<event>
 6    1  0.4705246E-006  0.3082515E+03  0.7546771E-02  0.1081187E+00
         -2   -1    0    0    0  501 -0.00000000000E+00  0.00000000000E+00  0.14124695554E+02  0.14124695554E+02  0.00000000000E+00 0.  1.
          2   -1    0    0  501    0  0.00000000000E+00 -0.00000000000E+00 -0.16817885426E+04  0.16817885426E+04  0.00000000000E+00 0. -1.
          5    1    1    2  502    0  0.69039015947E+02  0.65794882400E+02 -0.12286254486E+04  0.12323302866E+04  0.47000000000E+01 0.  1.
         -5    1    1    2    0  502 -0.13606720697E+01 -0.82591085867E+01 -0.50641855786E+01  0.10853583680E+02  0.47000000000E+01 0.  1.
        -11    1    1    2    0    0 -0.64700709247E+02 -0.79088915101E+02 -0.39592649347E+03  0.40889977562E+03  0.00000000000E+00 0. -1.
         11    1    1    2    0    0 -0.29776346298E+01  0.21553141288E+02 -0.38047719366E+02  0.43829592245E+02  0.00000000000E+00 0.  1.
<mgrwt>
<rscale>  0 0.30825153E+03</rscale>
<asrwt>0</asrwt>
<pdfrwt beam="2">  1        2 0.25873669E+00 0.30825153E+03</pdfrwt>
<pdfrwt beam="1">  1       -2 0.21730301E-02 0.30825153E+03</pdfrwt>
<totfact> 0.74820218E+03</totfact>
</mgrwt>
</event>
<event>
 6    1  0.4705246E-006  0.1372044E+03  0.7546771E-02  0.1228936E+00
          1   -1    0    0  501    0  0.00000000000E+00  0.00000000000E+00  0.67196156497E+03  0.67196156497E+03  0.00000000000E+00 0. -1.
         -1   -1    0    0    0  501 -0.00000000000E+00 -0.00000000000E+00 -0.22241678652E+02  0.22241678652E+02  0.00000000000E+00 0.  1.
          5    1    1    2  502    0  0.26241391531E+02  0.86688513179E+02  0.29433095639E+03  0.30798751734E+03  0.47000000000E+01 0. -1.
         -5    1    1    2    0  502  0.77857332776E+01 -0.41492818087E+02  0.77958046490E+02  0.88779606937E+02  0.47000000000E+01 0. -1.
        -11    1    1    2    0    0 -0.65267419720E+02 -0.25721140208E+02  0.19182200376E+03  0.20424762974E+03  0.00000000000E+00 0. -1.
         11    1    1    2    0    0  0.31240294912E+02 -0.19474554884E+02  0.85608879685E+02  0.93188489607E+02  0.00000000000E+00 0.  1.
<mgrwt>
<rscale>  0 0.12900749E+03</rscale>
<asrwt>0</asrwt>
<pdfrwt beam="1">  1        1 0.10337869E+00 0.13720441E+03</pdfrwt>
<pdfrwt beam="2">  1       -1 0.34217972E-02 0.13720441E+03</pdfrwt>
<totfact> 0.89130771E+03</totfact>
</mgrwt>
</event>
<event>
 6    1  0.4705246E-006  0.2366723E+03  0.7546771E-02  0.1122030E+00
         -2   -1    0    0    0  501 -0.00000000000E+00  0.00000000000E+00  0.85205420985E+02  0.85205420985E+02  0.00000000000E+00 0. -1.
          2   -1    0    0  501    0  0.00000000000E+00 -0.00000000000E+00 -0.16434920350E+03  0.16434920350E+03  0.00000000000E+00 0.  1.
          5    1    1    2  502    0  0.74753640964E+01  0.32228010347E+01 -0.11576116897E+03  0.11614217905E+03  0.47000000000E+01 0.  1.
         -5    1    1    2    0  502 -0.28001109731E+02  0.70583864509E+01  0.26251343090E+02  0.39307836108E+02  0.47000000000E+01 0.  1.
        -11    1    1    2    0    0  0.25413029117E+02  0.30597486933E+02 -0.18456592331E+02  0.43848307333E+02  0.00000000000E+00 0.  1.
         11    1    1    2    0    0 -0.48872834830E+01 -0.40878674418E+02  0.28822635688E+02  0.50256301993E+02  0.00000000000E+00 0. -1.
<mgrwt>
<rscale>  0 0.23667229E+03</rscale>
<asrwt>0</asrwt>
<pdfrwt beam="2">  1        2 0.25284493E-01 0.23667229E+03</pdfrwt>
<pdfrwt beam="1">  1       -2 0.13108526E-01 0.23667229E+03</pdfrwt>
<totfact> 0.89198739E+03</totfact>
</mgrwt>
</event>
<event>
 6    1  0.4705246E-006  0.1665391E+03  0.7546771E-02  0.1187887E+00
          2   -1    0    0  501    0  0.00000000000E+00  0.00000000000E+00  0.23765191144E+04  0.23765191144E+04  0.00000000000E+00 0. -1.
         -2   -1    0    0    0  501 -0.00000000000E+00 -0.00000000000E+00 -0.11893678459E+02  0.11893678459E+02  0.00000000000E+00 0.  1.
          5    1    1    2  502    0 -0.71843731918E+01 -0.21343415704E+02  0.60211089493E+03  0.60255022729E+03  0.47000000000E+01 0. -1.
         -5    1    1    2    0  502  0.87703156633E+02  0.96357677948E+02  0.11051211141E+04  0.11127854297E+04  0.47000000000E+01 0. -1.
        -11    1    1    2    0    0 -0.90510934124E+02 -0.48150188905E+02  0.60240918575E+03  0.61107077902E+03  0.00000000000E+00 0. -1.
         11    1    1    2    0    0  0.99921506824E+01 -0.26864073339E+02  0.54984241186E+02  0.62006356855E+02  0.00000000000E+00 0.  1.
<mgrwt>
<rscale>  0 0.16071965E+03</rscale>
<asrwt>0</asrwt>
<pdfrwt beam="1">  1        2 0.36561795E+00 0.16653914E+03</pdfrwt>
<pdfrwt beam="2">  1       -2 0.18297986E-02 0.16653914E+03</pdfrwt>
<totfact> 0.41351984E+03</totfact>
</mgrwt>
</event>
<event>
 6    1  0.4705246E-006  0.2483575E+03  0.7546771E-02  0.1117025E+00
         -2   -1    0    0    0  501 -0.00000000000E+00  0.00000000000E+00  0.39259778303E+02  0.39259778303E+02  0.00000000000E+00 0.  1.
          2   -1    0    0  501    0  0.00000000000E+00 -0.00000000000E+00 -0.15623020111E+04  0.15623020111E+04  0.00000000000E+00 0. -1.
          5    1    1    2  502    0 -0.11047644178E+03  0.12662838692E+02 -0.75584065195E+03  0.76399121252E+03  0.47000000000E+01 0. -1.
         -5    1    1    2    0  502 -0.10144671403E+03  0.21021665630E+02 -0.22413201154E+03  0.24696273972E+03  0.47000000000E+01 0. -1.
        -11    1    1    2    0    0  0.19357276178E+03 -0.57602165859E+02 -0.47620460336E+03  0.51726129556E+03  0.00000000000E+00 0. -1.
         11    1    1    2    0    0  0.18350394028E+02  0.23917661537E+02 -0.66864965937E+02  0.73346541596E+02  0.00000000000E+00 0.  1.
<mgrwt>
<rscale>  0 0.24420223E+03</rscale>
<asrwt>0</asrwt>
<pdfrwt beam="2">  1        2 0.24035414E+00 0.24835755E+03</pdfrwt>
<pdfrwt beam="1">  1       -2 0.60399663E-02 0.24835755E+03</pdfrwt>
<totfact> 0.18531724E+03</totfact>
</mgrwt>
</event>
<event>
 6    1  0.4705246E-006  0.1669697E+03  0.7546771E-02  0.1187090E+00
         -2   -1    0    0    0  501 -0.00000000000E+00  0.00000000000E+00  0.44729131416E+02  0.44729131416E+02  0.00000000000E+00 0.  1.
          2   -1    0    0  501    0  0.00000000000E+00 -0.00000000000E+00 -0.54710136133E+03  0.54710136133E+03  0.00000000000E+00 0. -1.
          5    1    1    2  502    0 -0.45026577183E+02 -0.97734696885E+02 -0.11023442241E+03  0.15412067191E+03  0.47000000000E+01 0.  1.
         -5    1    1    2    0  502  0.31736810818E+02 -0.12163779020E+02 -0.15919856525E+03  0.16285409377E+03  0.47000000000E+01 0.  1.
        -11    1    1    2    0    0 -0.27286711717E+02  0.15930883527E-01 -0.30124111790E+02  0.40645135026E+02  0.00000000000E+00 0.  1.
         11    1    1    2    0    0  0.40576478083E+02  0.10988254502E+03 -0.20281513047E+03  0.23421059203E+03  0.00000000000E+00 0. -1.
<mgrwt>
<rscale>  0 0.16143115E+03</rscale>
<asrwt>0</asrwt>
<pdfrwt beam="2">  1        2 0.84169438E-01 0.16696966E+03</pdfrwt>
<pdfrwt beam="1">  1       -2 0.68814050E-02 0.16696966E+03</pdfrwt>
<totfact> 0.65333643E+03</totfact>
</mgrwt>
</event>
<event>
 6    1  0.4705246E-006  0.6475560E+03  0.7546771E-02  0.1031951E+00
          2   -1    0    0  501    0  0.00000000000E+00  0.00000000000E+00  0.18906630481E+04  0.18906630481E+04  0.00000000000E+00 0. -1.
         -2   -1    0    0    0  501 -0.00000000000E+00 -0.00000000000E+00 -0.81393202876E+02  0.81393202876E+02  0.00000000000E+00 0.  1.
          5    1    1    2  502    0 -0.23619489578E+03  0.15481056420E+03  0.10999203784E+04  0.11356061238E+04  0.47000000000E+01 0. -1.
         -5    1    1    2    0  502  0.26682101454E+03 -0.84995100127E+02  0.32158928105E+03  0.42644973506E+03  0.47000000000E+01 0.  1.
        -11    1    1    2    0    0  0.29567233556E+02 -0.66561124861E+02  0.20478480050E+03  0.21735091249E+03  0.00000000000E+00 0.  1.
         11    1    1    2    0    0 -0.60193352318E+02 -0.32543392087E+01  0.18297538527E+03  0.19264947963E+03  0.00000000000E+00 0. -1.
<mgrwt>
<rscale>  0 0.43609834E+03</rscale>
<asrwt>0</asrwt>
<pdfrwt beam="1">  1        2 0.29087121E+00 0.64755602E+03</pdfrwt>
<pdfrwt beam="2">  1       -2 0.12522033E-01 0.64755602E+03</pdfrwt>
<totfact> 0.37498601E+02</totfact>
</mgrwt>
</event>
<event>
 6    1  0.4705246E-006  0.3626592E+03  0.7546771E-02  0.1057536E+00
         -2   -1    0    0    0  501 -0.00000000000E+00  0.00000000000E+00  0.15339804534E+03  0.15339804534E+03  0.00000000000E+00 0.  1.
          2   -1    0    0  501    0  0.00000000000E+00 -0.00000000000E+00 -0.21434708898E+03  0.21434708898E+03  0.00000000000E+00 0. -1.
          5    1    1    2  502    0 -0.62051220778E+02 -0.12911755506E+03 -0.10751508781E+03  0.17917388518E+03  0.47000000000E+01 0.  1.
         -5    1    1    2    0  502  0.14782317311E+02  0.22064105157E+02 -0.11313618366E+02  0.29247728151E+02  0.47000000000E+01 0.  1.
        -11    1    1    2    0    0  0.29654421075E+02  0.54293667305E+02  0.78548223234E+02  0.99985050742E+02  0.00000000000E+00 0.  1.
         11    1    1    2    0    0  0.17614482393E+02  0.52759782600E+02 -0.20668560701E+02  0.59338470248E+02  0.00000000000E+00 0. -1.
<mgrwt>
<rscale>  0 0.36265920E+03</rscale>
<asrwt>0</asrwt>
<pdfrwt beam="2">  1        2 0.32976475E-01 0.36265920E+03</pdfrwt>
<pdfrwt beam="1">  1       -2 0.23599699E-01 0.36265920E+03</pdfrwt>
<totfact> 0.24989165E+03</totfact>
</mgrwt>
</event>
<event>
 6    1  0.4705246E-006  0.3063970E+03  0.7546771E-02  0.1082086E+00
          2   -1    0    0  501    0  0.00000000000E+00  0.00000000000E+00  0.33869606069E+03  0.33869606069E+03  0.00000000000E+00 0. -1.
         -2   -1    0    0    0  501 -0.00000000000E+00 -0.00000000000E+00 -0.69294530916E+02  0.69294530916E+02  0.00000000000E+00 0.  1.
          5    1    1    2  502    0 -0.98721939512E+01  0.33085642443E+01 -0.11570816426E+02  0.16259784855E+02  0.47000000000E+01 0. -1.
         -5    1    1    2    0  502 -0.31996019042E+02  0.13573181871E+02  0.29165829261E+03  0.29375946989E+03  0.47000000000E+01 0. -1.
        -11    1    1    2    0    0 -0.13608775758E+02 -0.35722167059E+02 -0.94136934165E+01  0.39368637527E+02  0.00000000000E+00 0. -1.
         11    1    1    2    0    0  0.55476988751E+02  0.18840420943E+02 -0.12722529912E+01  0.58602699340E+02  0.00000000000E+00 0.  1.
<mgrwt>
<rscale>  0 0.30639703E+03</rscale>
<asrwt>0</asrwt>
<pdfrwt beam="1">  1        2 0.52107085E-01 0.30639703E+03</pdfrwt>
<pdfrwt beam="2">  1       -2 0.10660697E-01 0.30639703E+03</pdfrwt>
<totfact> 0.57269319E+03</totfact>
</mgrwt>
</event>
<event>
 6    1  0.4705246E-006  0.2050840E+03  0.7546771E-02  0.1148989E+00
          2   -1    0    0  501    0  0.00000000000E+00  0.00000000000E+00  0.14085615507E+04  0.14085615507E+04  0.00000000000E+00 0. -1.
         -2   -1    0    0    0  501 -0.00000000000E+00 -0.00000000000E+00 -0.31284851385E+02  0.31284851385E+02  0.00000000000E+00 0.  1.
          5    1    1    2  502    0  0.72653175406E+02 -0.57857513351E+02  0.23432360750E+03  0.25210239741E+03  0.47000000000E+01 0. -1.
         -5    1    1    2    0  502  0.29796110984E+02 -0.68389195417E+02  0.72826820529E+03  0.73209395512E+03  0.47000000000E+01 0. -1.
        -11    1    1    2    0    0 -0.27995954168E+01  0.32823754174E+02  0.21309616371E+02  0.39234376794E+02  0.00000000000E+00 0.  1.
         11    1    1    2    0    0 -0.99649690974E+02  0.93422954595E+02  0.39337527016E+03  0.41641567277E+03  0.00000000000E+00 0. -1.
<mgrwt>
<rscale>  0 0.20089149E+03</rscale>
<asrwt>0</asrwt>
<pdfrwt beam="1">  1        2 0.21670173E+00 0.20508404E+03</pdfrwt>
<pdfrwt beam="2">  1       -2 0.48130552E-02 0.20508404E+03</pdfrwt>
<totfact> 0.31653936E+03</totfact>
</mgrwt>
</event>
<event>
 6    1  0.4705246E-006  0.1335000E+03  0.7546771E-02  0.1236143E+00
         -2   -1    0    0    0  501 -0.00000000000E+00  0.00000000000E+00  0.79414198435E+02  0.79414198435E+02  0.00000000000E+00 0.  1.
          2   -1    0    0  501    0  0.00000000000E+00 -0.00000000000E+00 -0.17476476109E+03  0.17476476109E+03  0.00000000000E+00 0. -1.
          5    1    1    2  502    0 -0.30197764613E+02  0.59623100975E+02 -0.50628449858E+02  0.83977074804E+02  0.47000000000E+01 0.  1.
         -5    1    1    2    0  502  0.59355482919E+02 -0.22946105820E+02 -0.18935982192E+02  0.66560187397E+02  0.47000000000E+01 0.  1.
        -11    1    1    2    0    0  0.70017917738E+01 -0.55788421317E+02 -0.18575919075E+01  0.56256765716E+02  0.00000000000E+00 0. -1.
         11    1    1    2    0    0 -0.36159510080E+02  0.19111426162E+02 -0.23928538692E+02  0.47384931604E+02  0.00000000000E+00 0.  1.
<mgrwt>
<rscale>  0 0.12431561E+03</rscale>
<asrwt>0</asrwt>
<pdfrwt beam="2">  1        2 0.26886886E-01 0.13350003E+03</pdfrwt>
<pdfrwt beam="1">  1       -2 0.12217569E-01 0.13350003E+03</pdfrwt>
<totfact> 0.89729255E+03</totfact>
</mgrwt>
</event>
<event>
 6    1  0.4705246E-006  0.1303207E+03  0.7546771E-02  0.1242369E+00
          1   -1    0    0  501    0  0.00000000000E+00  0.00000000000E+00  0.46632654997E+03  0.46632654997E+03  0.00000000000E+00 0. -1.
         -1   -1    0    0    0  501 -0.00000000000E+00 -0.00000000000E+00 -0.37968008121E+02  0.37968008121E+02  0.00000000000E+00 0.  1.
          5    1    1    2  502    0  0.65932286579E+02 -0.22386946356E+02  0.34210281938E+03  0.34914849392E+03  0.47000000000E+01 0.  1.
         -5    1    1    2    0  502 -0.30681320906E+02  0.12084105380E+02  0.28973071455E+02  0.44146324025E+02  0.47000000000E+01 0.  1.
        -11    1    1    2    0    0 -0.17725324611E+02  0.40738890845E+02  0.73632235530E+00  0.44434069479E+02  0.00000000000E+00 0.  1.
         11    1    1    2    0    0 -0.17525641062E+02 -0.30436049869E+02  0.56546328663E+02  0.66565670668E+02  0.00000000000E+00 0. -1.
<mgrwt>
<rscale>  0 0.12044231E+03</rscale>
<asrwt>0</asrwt>
<pdfrwt beam="1">  1        1 0.71742542E-01 0.13032075E+03</pdfrwt>
<pdfrwt beam="2">  1       -1 0.58412323E-02 0.13032075E+03</pdfrwt>
<totfact> 0.65926624E+03</totfact>
</mgrwt>
</event>
<event>
 6    1  0.4705246E-006  0.3717428E+03  0.7546771E-02  0.1054029E+00
         -2   -1    0    0    0  501 -0.00000000000E+00  0.00000000000E+00  0.99782022812E+02  0.99782022812E+02  0.00000000000E+00 0.  1.
          2   -1    0    0  501    0  0.00000000000E+00 -0.00000000000E+00 -0.34623643467E+03  0.34623643467E+03  0.00000000000E+00 0. -1.
          5    1    1    2  502    0  0.77562649357E+02  0.11253770146E+03 -0.14446093101E+03  0.19892649249E+03  0.47000000000E+01 0. -1.
         -5    1    1    2    0  502  0.35368094282E+01 -0.92684310051E-02  0.32650086039E+02  0.33175702331E+02  0.47000000000E+01 0.  1.
        -11    1    1    2    0    0 -0.41450928245E+02 -0.10049582855E+03 -0.49959717463E+02  0.11963930950E+03  0.00000000000E+00 0.  1.
         11    1    1    2    0    0 -0.39648530541E+02 -0.12032604485E+02 -0.84683849420E+02  0.94276953161E+02  0.00000000000E+00 0. -1.
<mgrwt>
<rscale>  0 0.37174277E+03</rscale>
<asrwt>0</asrwt>
<pdfrwt beam="2">  1        2 0.53267144E-01 0.37174277E+03</pdfrwt>
<pdfrwt beam="1">  1       -2 0.15351080E-01 0.37174277E+03</pdfrwt>
<totfact> 0.30954125E+03</totfact>
</mgrwt>
</event>
<event>
 6    1  0.4705246E-006  0.1530176E+03  0.7546771E-02  0.1204957E+00
         -2   -1    0    0    0  501 -0.00000000000E+00  0.00000000000E+00  0.49135740424E+02  0.49135740424E+02  0.00000000000E+00 0.  1.
          2   -1    0    0  501    0  0.00000000000E+00 -0.00000000000E+00 -0.43109981025E+03  0.43109981025E+03  0.00000000000E+00 0. -1.
          5    1    1    2  502    0  0.73948291222E+02 -0.33098968253E+02 -0.69791343170E+02  0.10703650338E+03  0.47000000000E+01 0.  1.
         -5    1    1    2    0  502  0.14293763602E+02  0.33215090465E+02 -0.19851987829E+03  0.20184099184E+03  0.47000000000E+01 0.  1.
        -11    1    1    2    0    0 -0.64040674622E+02 -0.42214681602E+02 -0.51084158761E+02  0.92156815402E+02  0.00000000000E+00 0.  1.
         11    1    1    2    0    0 -0.24201380202E+02  0.42098559390E+02 -0.62568689605E+02  0.79201240048E+02  0.00000000000E+00 0. -1.
<mgrwt>
<rscale>  0 0.14640829E+03</rscale>
<asrwt>0</asrwt>
<pdfrwt beam="2">  1        2 0.66323046E-01 0.15301763E+03</pdfrwt>
<pdfrwt beam="1">  1       -2 0.75593449E-02 0.15301763E+03</pdfrwt>
<totfact> 0.73129086E+03</totfact>
</mgrwt>
</event>
<event>
 6    1  0.4705246E-006  0.3886891E+03  0.7546771E-02  0.1048626E+00
         -1   -1    0    0    0  501 -0.00000000000E+00  0.00000000000E+00  0.25723631310E+03  0.25723631310E+03  0.00000000000E+00 0.  1.
          1   -1    0    0  501    0  0.00000000000E+00 -0.00000000000E+00 -0.74581029934E+03  0.74581029934E+03  0.00000000000E+00 0. -1.
          5    1    1    2  502    0  0.85181439453E+02  0.15762354987E+01 -0.15484054130E+03  0.17679379337E+03  0.47000000000E+01 0.  1.
         -5    1    1    2    0  502  0.22729146058E+03  0.19287683469E+03 -0.33304692208E+03  0.44699577595E+03  0.47000000000E+01 0.  1.
        -11    1    1    2    0    0 -0.11443054762E+03 -0.32038429496E+02 -0.26768994190E+02  0.12180882662E+03  0.00000000000E+00 0. -1.
         11    1    1    2    0    0 -0.19804235241E+03 -0.16241464069E+03  0.26082471332E+02  0.25744821649E+03  0.00000000000E+00 0.  1.
<mgrwt>
<rscale>  0 0.38630919E+03</rscale>
<asrwt>0</asrwt>
<pdfrwt beam="2">  1        1 0.11474005E+00 0.38868914E+03</pdfrwt>
<pdfrwt beam="1">  1       -1 0.39574818E-01 0.38868914E+03</pdfrwt>
<totfact> 0.16061125E+02</totfact>
</mgrwt>
</event>
<event>
 6    1  0.4705246E-006  0.1930703E+03  0.7546771E-02  0.1160380E+00
         -2   -1    0    0    0  501 -0.00000000000E+00  0.00000000000E+00  0.14270955569E+03  0.14270955569E+03  0.00000000000E+00 0. -1.
          2   -1    0    0  501    0  0.00000000000E+00 -0.00000000000E+00 -0.33939786785E+03  0.33939786785E+03  0.00000000000E+00 0.  1.
          5    1    1    2  502    0 -0.45589356047E+00  0.86213800078E+02 -0.12158320025E+03  0.14912274054E+03  0.47000000000E+01 0.  1.
         -5    1    1    2    0  502  0.10400254449E+03  0.18335576930E+02 -0.11403901836E+03  0.15549826478E+03  0.47000000000E+01 0.  1.
        -11    1    1    2    0    0 -0.69371170534E+02 -0.67816605556E+02  0.68951547415E+02  0.11902002849E+03  0.00000000000E+00 0. -1.
         11    1    1    2    0    0 -0.34175480395E+02 -0.36732771452E+02 -0.30017640969E+02  0.58466389731E+02  0.00000000000E+00 0.  1.
<mgrwt>
<rscale>  0 0.18788867E+03</rscale>
<asrwt>0</asrwt>
<pdfrwt beam="2">  1        2 0.52215056E-01 0.19307026E+03</pdfrwt>
<pdfrwt beam="1">  1       -2 0.21955316E-01 0.19307026E+03</pdfrwt>
<totfact> 0.16929656E+03</totfact>
</mgrwt>
</event>
<event>
 6    1  0.4705246E-006  0.1287985E+03  0.7546771E-02  0.1241646E+00
         -1   -1    0    0    0  501 -0.00000000000E+00  0.00000000000E+00  0.24363731095E+03  0.24363731095E+03  0.00000000000E+00 0.  1.
          1   -1    0    0  501    0  0.00000000000E+00 -0.00000000000E+00 -0.53805774144E+02  0.53805774144E+02  0.00000000000E+00 0. -1.
          5    1    1    2  502    0 -0.27245379350E+02  0.70420316931E+02  0.74562747935E+02  0.10622158496E+03  0.47000000000E+01 0. -1.
         -5    1    1    2    0  502  0.31441991711E+02 -0.39651162826E+02  0.25393702860E+02  0.56813235264E+02  0.47000000000E+01 0. -1.
        -11    1    1    2    0    0  0.11884329479E+01 -0.40793932650E+02  0.10661929612E+03  0.11416317979E+03  0.00000000000E+00 0.  1.
         11    1    1    2    0    0 -0.53850453084E+01  0.10024778545E+02 -0.16744210107E+02  0.20245085081E+02  0.00000000000E+00 0. -1.
<mgrwt>
<rscale>  0 0.12088384E+03</rscale>
<asrwt>0</asrwt>
<pdfrwt beam="2">  1        1 0.82778115E-02 0.12879853E+03</pdfrwt>
<pdfrwt beam="1">  1       -1 0.37482663E-01 0.12879853E+03</pdfrwt>
<totfact> 0.54556953E+03</totfact>
</mgrwt>
</event>
<event>
 6    1  0.4705246E-006  0.2766528E+03  0.7546771E-02  0.1099493E+00
         -1   -1    0    0    0  501 -0.00000000000E+00  0.00000000000E+00  0.63218208786E+03  0.63218208786E+03  0.00000000000E+00 0.  1.
          1   -1    0    0  501    0  0.00000000000E+00 -0.00000000000E+00 -0.13067957646E+03  0.13067957646E+03  0.00000000000E+00 0. -1.
          5    1    1    2  502    0  0.22184370718E+01 -0.78126509007E+01  0.30808000429E+02  0.32205308065E+02  0.47000000000E+01 0. -1.
         -5    1    1    2    0  502  0.15706522525E+02  0.25396300940E+03  0.93993606731E+02  0.27129466103E+03  0.47000000000E+01 0. -1.
        -11    1    1    2    0    0 -0.51766854484E+02 -0.18275899325E+03  0.25403994839E+03  0.31720175317E+03  0.00000000000E+00 0. -1.
         11    1    1    2    0    0  0.33841894888E+02 -0.63391365251E+02  0.12266095585E+03  0.14215994206E+03  0.00000000000E+00 0.  1.
<mgrwt>
<rscale>  0 0.27314524E+03</rscale>
<asrwt>0</asrwt>
<pdfrwt beam="2">  1        1 0.20104551E-01 0.27665283E+03</pdfrwt>
<pdfrwt beam="1">  1       -1 0.97258781E-01 0.27665283E+03</pdfrwt>
<totfact> 0.27299944E+02</totfact>
</mgrwt>
</event>
<event>
 6    1  0.4705246E-006  0.1292848E+03  0.7546771E-02  0.1245309E+00
          1   -1    0    0  501    0  0.00000000000E+00  0.00000000000E+00  0.62918562418E+02  0.62918562418E+02  0.00000000000E+00 0. -1.
         -1   -1    0    0    0  501 -0.00000000000E+00 -0.00000000000E+00 -0.19841324500E+03  0.19841324500E+03  0.00000000000E+00 0.  1.
          5    1    1    2  502    0  0.64861448928E+02  0.30080862810E+02 -0.68918855608E+02  0.99417123891E+02  0.47000000000E+01 0. -1.
         -5    1    1    2    0  502 -0.31961165941E+02 -0.27262906724E+02  0.87750136394E+01  0.43172596352E+02  0.47000000000E+01 0. -1.
        -11    1    1    2    0    0 -0.26708659935E+02  0.28192084783E+02 -0.77873293213E+02  0.87019514799E+02  0.00000000000E+00 0.  1.
         11    1    1    2    0    0 -0.61916230516E+01 -0.31010040869E+02  0.25224526046E+01  0.31722572371E+02  0.00000000000E+00 0. -1.
<mgrwt>
<rscale>  0 0.11866891E+03</rscale>
<asrwt>0</asrwt>
<pdfrwt beam="1">  1        1 0.96797788E-02 0.12928475E+03</pdfrwt>
<pdfrwt beam="2">  1       -1 0.30525115E-01 0.12928475E+03</pdfrwt>
<totfact> 0.62891680E+03</totfact>
</mgrwt>
</event>
<event>
 6    1  0.4705246E-006  0.1193025E+03  0.7546771E-02  0.1255596E+00
          3   -1    0    0  501    0  0.00000000000E+00  0.00000000000E+00  0.69462631545E+03  0.69462631545E+03  0.00000000000E+00 0. -1.
         -3   -1    0    0    0  501 -0.00000000000E+00 -0.00000000000E+00 -0.18088149115E+02  0.18088149115E+02  0.00000000000E+00 0.  1.
          5    1    1    2  502    0 -0.18591804377E+02  0.48253121135E+02  0.20264735966E+03  0.20919383659E+03  0.47000000000E+01 0. -1.
         -5    1    1    2    0  502  0.25704072561E+02 -0.62079462690E+02  0.27400956552E+03  0.28216642435E+03  0.47000000000E+01 0.  1.
        -11    1    1    2    0    0 -0.66095225287E+01  0.42074797449E+02  0.18416192075E+03  0.18902271669E+03  0.00000000000E+00 0. -1.
         11    1    1    2    0    0 -0.50274565506E+00 -0.28248455894E+02  0.15719320395E+02  0.32331486932E+02  0.00000000000E+00 0.  1.
<mgrwt>
<rscale>  0 0.11272992E+03</rscale>
<asrwt>0</asrwt>
<pdfrwt beam="1">  1        3 0.10686557E+00 0.11930248E+03</pdfrwt>
<pdfrwt beam="2">  1       -3 0.27827927E-02 0.11930248E+03</pdfrwt>
<totfact> 0.10073600E+03</totfact>
</mgrwt>
</event>
<event>
 6    1  0.4705246E-006  0.1366500E+03  0.7546771E-02  0.1231881E+00
         -2   -1    0    0    0  501 -0.00000000000E+00  0.00000000000E+00  0.17559992498E+02  0.17559992498E+02  0.00000000000E+00 0.  1.
          2   -1    0    0  501    0  0.00000000000E+00 -0.00000000000E+00 -0.83286638431E+03  0.83286638431E+03  0.00000000000E+00 0. -1.
          5    1    1    2  502    0  0.55807383228E+02 -0.26931143374E+02 -0.17396961567E+03  0.18473566976E+03  0.47000000000E+01 0.  1.
         -5    1    1    2    0  502 -0.17008740968E+02  0.66248604971E+02 -0.35793394577E+03  0.36444063229E+03  0.47000000000E+01 0.  1.
        -11    1    1    2    0    0 -0.16579658952E+02  0.11875806050E+02 -0.10964642553E+02  0.23154767254E+02  0.00000000000E+00 0.  1.
         11    1    1    2    0    0 -0.22218983308E+02 -0.51193267647E+02 -0.27243818782E+03  0.27809530750E+03  0.00000000000E+00 0. -1.
<mgrwt>
<rscale>  0 0.12706203E+03</rscale>
<asrwt>0</asrwt>
<pdfrwt beam="2">  1        2 0.12813332E+00 0.13664996E+03</pdfrwt>
<pdfrwt beam="1">  1       -2 0.27015366E-02 0.13664996E+03</pdfrwt>
<totfact> 0.15901695E+04</totfact>
</mgrwt>
</event>
<event>
 6    1  0.4705246E-006  0.1279983E+03  0.7546771E-02  0.1282865E+00
         -4   -1    0    0    0  501 -0.00000000000E+00  0.00000000000E+00  0.29302469772E+02  0.29302469772E+02  0.00000000000E+00 0.  1.
          4   -1    0    0  501    0  0.00000000000E+00 -0.00000000000E+00 -0.26411995104E+03  0.26411995104E+03  0.00000000000E+00 0. -1.
          5    1    1    2  502    0 -0.78658337547E+00  0.34970833055E+02 -0.17088677361E+03  0.17449343046E+03  0.47000000000E+01 0. -1.
         -5    1    1    2    0  502  0.40640853027E+01 -0.51248239037E+01  0.21069682525E+02  0.22556642727E+02  0.47000000000E+01 0.  1.
        -11    1    1    2    0    0  0.11537330664E+02 -0.12945895219E+02 -0.15256798876E+02  0.23097101849E+02  0.00000000000E+00 0.  1.
         11    1    1    2    0    0 -0.14814832592E+02 -0.16900113932E+02 -0.69743591301E+02  0.73275245774E+02  0.00000000000E+00 0. -1.
<mgrwt>
<rscale>  0 0.98787982E+02</rscale>
<asrwt>0</asrwt>
<pdfrwt beam="2">  1        4 0.40633839E-01 0.12799832E+03</pdfrwt>
<pdfrwt beam="1">  1       -4 0.45080722E-02 0.12799832E+03</pdfrwt>
<totfact> 0.26940022E+03</totfact>
</mgrwt>
</event>
<event>
 6    1  0.4705246E-006  0.1302928E+03  0.7546771E-02  0.1243247E+00
         -2   -1    0    0    0  501 -0.00000000000E+00  0.00000000000E+00  0.58242514952E+03  0.58242514952E+03  0.00000000000E+00 0.  1.
          2   -1    0    0  501    0  0.00000000000E+00 -0.00000000000E+00 -0.21990942586E+02  0.21990942586E+02  0.00000000000E+00 0. -1.
          5    1    1    2  502    0 -0.57234163722E+02 -0.55828838165E+02  0.13975452762E+03  0.16107770379E+03  0.47000000000E+01 0.  1.
         -5    1    1    2    0  502  0.39809563779E+02  0.23474177799E+02  0.14057351854E+03  0.14805013511E+03  0.47000000000E+01 0.  1.
        -11    1    1    2    0    0  0.23462193833E+02 -0.19094313243E+02  0.42906482882E+02  0.52497939112E+02  0.00000000000E+00 0. -1.
         11    1    1    2    0    0 -0.60375938898E+01  0.51448973608E+02  0.23719967790E+03  0.24279031410E+03  0.00000000000E+00 0.  1.
<mgrwt>
<rscale>  0 0.11990917E+03</rscale>
<asrwt>0</asrwt>
<pdfrwt beam="2">  1        2 0.33832224E-02 0.13029278E+03</pdfrwt>
<pdfrwt beam="1">  1       -2 0.89603857E-01 0.13029278E+03</pdfrwt>
<totfact> 0.27948889E+03</totfact>
</mgrwt>
</event>
<event>
 6    1  0.4705246E-006  0.1426076E+03  0.7546771E-02  0.1220614E+00
         -2   -1    0    0    0  501 -0.00000000000E+00  0.00000000000E+00  0.18979799260E+02  0.18979799260E+02  0.00000000000E+00 0.  1.
          2   -1    0    0  501    0  0.00000000000E+00 -0.00000000000E+00 -0.89040038453E+03  0.89040038453E+03  0.00000000000E+00 0. -1.
          5    1    1    2  502    0 -0.18762047376E+02  0.39279376815E+02 -0.12239739797E+03  0.12999268016E+03  0.47000000000E+01 0. -1.
         -5    1    1    2    0  502  0.87415883937E+02 -0.37843707046E+02 -0.43826782607E+03  0.44852475995E+03  0.47000000000E+01 0. -1.
        -11    1    1    2    0    0 -0.52919299974E+02  0.31608053287E+02 -0.10401245723E+03  0.12090538699E+03  0.00000000000E+00 0.  1.
         11    1    1    2    0    0 -0.15734536587E+02 -0.33043723056E+02 -0.20674290400E+03  0.20995735669E+03  0.00000000000E+00 0. -1.
<mgrwt>
<rscale>  0 0.13472124E+03</rscale>
<asrwt>0</asrwt>
<pdfrwt beam="2">  1        2 0.13698467E+00 0.14260763E+03</pdfrwt>
<pdfrwt beam="1">  1       -2 0.29199691E-02 0.14260763E+03</pdfrwt>
<totfact> 0.13058989E+04</totfact>
</mgrwt>
</event>
<event>
 6    1  0.4705246E-006  0.2996277E+03  0.7546771E-02  0.1110553E+00
         -1   -1    0    0    0  501 -0.00000000000E+00  0.00000000000E+00  0.49984629002E+02  0.49984629002E+02  0.00000000000E+00 0.  1.
          1   -1    0    0  501    0  0.00000000000E+00 -0.00000000000E+00 -0.10883440639E+04  0.10883440639E+04  0.00000000000E+00 0. -1.
          5    1    1    2  502    0  0.25702803360E+02  0.12305765632E+03 -0.23465132978E+03  0.26624642241E+03  0.47000000000E+01 0. -1.
         -5    1    1    2    0  502  0.10205035338E+03 -0.12616489461E+03 -0.55841797343E+03  0.58153639465E+03  0.47000000000E+01 0.  1.
        -11    1    1    2    0    0 -0.22827492613E+02 -0.26933029942E+02 -0.11648994202E+03  0.12172259081E+03  0.00000000000E+00 0. -1.
         11    1    1    2    0    0 -0.10492566413E+03  0.30040268239E+02 -0.12880018966E+03  0.16882328502E+03  0.00000000000E+00 0.  1.
<mgrwt>
<rscale>  0 0.25440446E+03</rscale>
<asrwt>0</asrwt>
<pdfrwt beam="2">  1        1 0.16743755E+00 0.29962774E+03</pdfrwt>
<pdfrwt beam="1">  1       -1 0.76899431E-02 0.29962774E+03</pdfrwt>
<totfact> 0.12587116E+03</totfact>
</mgrwt>
</event>
<event>
 6    1  0.4705246E-006  0.1408339E+03  0.7546771E-02  0.1222768E+00
          2   -1    0    0  501    0  0.00000000000E+00  0.00000000000E+00  0.10668287938E+04  0.10668287938E+04  0.00000000000E+00 0. -1.
         -2   -1    0    0    0  501 -0.00000000000E+00 -0.00000000000E+00 -0.17106029152E+02  0.17106029152E+02  0.00000000000E+00 0.  1.
          5    1    1    2  502    0  0.45943585677E+02 -0.17920418992E+02  0.11098435597E+03  0.12153835506E+03  0.47000000000E+01 0.  1.
         -5    1    1    2    0  502  0.75837168454E+01  0.54622401291E+02  0.65123608744E+03  0.65358369859E+03  0.47000000000E+01 0.  1.
        -11    1    1    2    0    0 -0.31695395627E+02  0.97741026300E+01  0.25530798731E+02  0.41856336080E+02  0.00000000000E+00 0.  1.
         11    1    1    2    0    0 -0.21831906895E+02 -0.46476084929E+02  0.26197152247E+03  0.26695643317E+03  0.00000000000E+00 0. -1.
<mgrwt>
<rscale>  0 0.13321067E+03</rscale>
<asrwt>0</asrwt>
<pdfrwt beam="1">  1        2 0.16412745E+00 0.14083392E+03</pdfrwt>
<pdfrwt beam="2">  1       -2 0.26316976E-02 0.14083392E+03</pdfrwt>
<totfact> 0.11882812E+04</totfact>
</mgrwt>
</event>
<event>
 6    1  0.4705246E-006  0.1625420E+03  0.7546771E-02  0.1193252E+00
          2   -1    0    0  501    0  0.00000000000E+00  0.00000000000E+00  0.37052204198E+02  0.37052204198E+02  0.00000000000E+00 0. -1.
         -2   -1    0    0    0  501 -0.00000000000E+00 -0.00000000000E+00 -0.61240040174E+03  0.61240040174E+03  0.00000000000E+00 0.  1.
          5    1    1    2  502    0 -0.93984355437E+02 -0.49157058449E+02 -0.20095638969E+03  0.22727744283E+03  0.47000000000E+01 0.  1.
         -5    1    1    2    0  502 -0.97615237303E+01  0.54844976901E+02 -0.87935793789E+02  0.10420198014E+03  0.47000000000E+01 0.  1.
        -11    1    1    2    0    0  0.60268033031E+02 -0.35092551853E+02 -0.85813001098E+02  0.11057845251E+03  0.00000000000E+00 0.  1.
         11    1    1    2    0    0  0.43477846136E+02  0.29404633401E+02 -0.20064301296E+03  0.20739473045E+03  0.00000000000E+00 0. -1.
<mgrwt>
<rscale>  0 0.15603099E+03</rscale>
<asrwt>0</asrwt>
<pdfrwt beam="1">  1        2 0.57003396E-02 0.16254204E+03</pdfrwt>
<pdfrwt beam="2">  1       -2 0.94215438E-01 0.16254204E+03</pdfrwt>
<totfact> 0.12712165E+03</totfact>
</mgrwt>
</event>
<event>
 6    1  0.4705246E-006  0.1501970E+03  0.7546771E-02  0.1248161E+00
          2   -1    0    0  501    0  0.00000000000E+00  0.00000000000E+00  0.65288552424E+03  0.65288552424E+03  0.00000000000E+00 0. -1.
         -2   -1    0    0    0  501 -0.00000000000E+00 -0.00000000000E+00 -0.29311282797E+02  0.29311282797E+02  0.00000000000E+00 0.  1.
          5    1    1    2  502    0 -0.81582539761E+02 -0.19185485489E+02  0.51569746498E+03  0.52248421893E+03  0.47000000000E+01 0. -1.
         -5    1    1    2    0  502  0.45856913103E+02 -0.95267678759E+01  0.90099240549E+02  0.10165421257E+03  0.47000000000E+01 0.  1.
        -11    1    1    2    0    0  0.76391790907E+01  0.25071377887E+02  0.13280847749E+02  0.29382170840E+02  0.00000000000E+00 0. -1.
         11    1    1    2    0    0  0.28086447567E+02  0.36408754780E+01  0.44966881627E+01  0.28676204694E+02  0.00000000000E+00 0.  1.
<mgrwt>
<rscale>  0 0.11698161E+03</rscale>
<asrwt>0</asrwt>
<pdfrwt beam="1">  1        2 0.10044392E+00 0.15019698E+03</pdfrwt>
<pdfrwt beam="2">  1       -2 0.45094286E-02 0.15019698E+03</pdfrwt>
<totfact> 0.10068240E+04</totfact>
</mgrwt>
</event>
<event>
 6    1  0.4705246E-006  0.4815742E+03  0.7546771E-02  0.1018703E+00
          1   -1    0    0  501    0  0.00000000000E+00  0.00000000000E+00  0.10698926089E+04  0.10698926089E+04  0.00000000000E+00 0. -1.
         -1   -1    0    0    0  501 -0.00000000000E+00 -0.00000000000E+00 -0.54190890483E+02  0.54190890483E+02  0.00000000000E+00 0.  1.
          5    1    1    2  502    0 -0.12416226334E+02 -0.11920108896E+02  0.52534911193E+03  0.52565200568E+03  0.47000000000E+01 0. -1.
         -5    1    1    2    0  502 -0.10726933374E+03  0.13135121788E+02  0.41998896710E+03  0.43369581953E+03  0.47000000000E+01 0.  1.
        -11    1    1    2    0    0  0.90577128741E+02  0.31188041596E+02  0.19483011983E+02  0.97757342156E+02  0.00000000000E+00 0.  1.
         11    1    1    2    0    0  0.29108431330E+02 -0.32403054489E+02  0.50880627377E+02  0.66978331996E+02  0.00000000000E+00 0. -1.
<mgrwt>
<rscale>  0 0.48157422E+03</rscale>
<asrwt>0</asrwt>
<pdfrwt beam="1">  1        1 0.16459885E+00 0.48157422E+03</pdfrwt>
<pdfrwt beam="2">  1       -1 0.83370608E-02 0.48157422E+03</pdfrwt>
<totfact> 0.11408378E+03</totfact>
</mgrwt>
</event>
<event>
 6    1  0.4705246E-006  0.3615592E+03  0.7546771E-02  0.1057968E+00
         -2   -1    0    0    0  501 -0.00000000000E+00  0.00000000000E+00  0.61942469096E+02  0.61942469096E+02  0.00000000000E+00 0.  1.
          2   -1    0    0  501    0  0.00000000000E+00 -0.00000000000E+00 -0.52760662884E+03  0.52760662884E+03  0.00000000000E+00 0. -1.
          5    1    1    2  502    0 -0.13267622782E+02  0.22770194717E+01  0.61599186347E+01  0.15532199766E+02  0.47000000000E+01 0.  1.
         -5    1    1    2    0  502  0.42847149456E+02 -0.14063626751E+03 -0.29320429610E+03  0.32803244841E+03  0.47000000000E+01 0.  1.
        -11    1    1    2    0    0 -0.32793946820E+02  0.10869786474E+03 -0.70090978139E+02  0.13342943440E+03  0.00000000000E+00 0.  1.
         11    1    1    2    0    0  0.32144201464E+01  0.29661383295E+02 -0.10852880414E+03  0.11255501536E+03  0.00000000000E+00 0. -1.
<mgrwt>
<rscale>  0 0.36155916E+03</rscale>
<asrwt>0</asrwt>
<pdfrwt beam="2">  1        2 0.81170248E-01 0.36155916E+03</pdfrwt>
<pdfrwt beam="1">  1       -2 0.95296109E-02 0.36155916E+03</pdfrwt>
<totfact> 0.42157072E+03</totfact>
</mgrwt>
</event>
<event>
 6    1  0.4705246E-006  0.1288040E+03  0.7546771E-02  0.1243811E+00
         -2   -1    0    0    0  501 -0.00000000000E+00  0.00000000000E+00  0.45205731690E+03  0.45205731690E+03  0.00000000000E+00 0.  1.
          2   -1    0    0  501    0  0.00000000000E+00 -0.00000000000E+00 -0.31674459575E+02  0.31674459575E+02  0.00000000000E+00 0. -1.
          5    1    1    2  502    0 -0.24254326837E+02 -0.72143695535E+02  0.11846375994E+03  0.14088554786E+03  0.47000000000E+01 0.  1.
         -5    1    1    2    0  502  0.24915852937E+02  0.41083052900E+02  0.35924046407E+02  0.60176773538E+02  0.47000000000E+01 0.  1.
        -11    1    1    2    0    0  0.21752986084E+02 -0.25538919842E+02  0.73877198747E+02  0.81137348521E+02  0.00000000000E+00 0.  1.
         11    1    1    2    0    0 -0.22414512184E+02  0.56599562476E+02  0.19211785223E+03  0.20153210656E+03  0.00000000000E+00 0. -1.
<mgrwt>
<rscale>  0 0.11956845E+03</rscale>
<asrwt>0</asrwt>
<pdfrwt beam="2">  1        2 0.48729941E-02 0.12880397E+03</pdfrwt>
<pdfrwt beam="1">  1       -2 0.69547275E-01 0.12880397E+03</pdfrwt>
<totfact> 0.29957193E+03</totfact>
</mgrwt>
</event>
<event>
 6    1  0.4705246E-006  0.3962834E+03  0.7546771E-02  0.1045074E+00
         -1   -1    0    0    0  501 -0.00000000000E+00  0.00000000000E+00  0.19077097916E+02  0.19077097916E+02  0.00000000000E+00 0.  1.
          1   -1    0    0  501    0  0.00000000000E+00 -0.00000000000E+00 -0.20579718274E+04  0.20579718274E+04  0.00000000000E+00 0. -1.
          5    1    1    2  502    0  0.18731687741E+02 -0.11726864590E+02 -0.49252152854E+03  0.49303949290E+03  0.47000000000E+01 0.  1.
         -5    1    1    2    0  502  0.11796998509E+03  0.10123362714E+03 -0.69664562892E+03  0.71379435900E+03  0.47000000000E+01 0.  1.
        -11    1    1    2    0    0 -0.11863994242E+03 -0.27220152508E+02 -0.50714644398E+03  0.52154950703E+03  0.00000000000E+00 0.  1.
         11    1    1    2    0    0 -0.18061730405E+02 -0.62286610043E+02 -0.34258112804E+03  0.34866556639E+03  0.00000000000E+00 0. -1.
<mgrwt>
<rscale>  0 0.39628338E+03</rscale>
<asrwt>0</asrwt>
<pdfrwt beam="2">  1        1 0.31661098E+00 0.39628338E+03</pdfrwt>
<pdfrwt beam="1">  1       -1 0.29349388E-02 0.39628338E+03</pdfrwt>
<totfact> 0.11940576E+03</totfact>
</mgrwt>
</event>
<event>
 6    1  0.4705246E-006  0.2755234E+03  0.7546771E-02  0.1100155E+00
         -1   -1    0    0    0  501 -0.00000000000E+00  0.00000000000E+00  0.23064300454E+03  0.23064300454E+03  0.00000000000E+00 0.  1.
          1   -1    0    0  501    0  0.00000000000E+00 -0.00000000000E+00 -0.67713359652E+03  0.67713359652E+03  0.00000000000E+00 0. -1.
          5    1    1    2  502    0 -0.66965172472E+02 -0.17191845026E+02 -0.28504957439E+03  0.29335174061E+03  0.47000000000E+01 0.  1.
         -5    1    1    2    0  502 -0.17604125006E+03  0.52345307499E+02 -0.27379486375E+03  0.32972150424E+03  0.47000000000E+01 0.  1.
        -11    1    1    2    0    0  0.22900552766E+03 -0.56545345127E+02  0.10415093396E+03  0.25785330093E+03  0.00000000000E+00 0. -1.
         11    1    1    2    0    0  0.14000894863E+02  0.21391882653E+02  0.82029122024E+01  0.26850055288E+02  0.00000000000E+00 0.  1.
<mgrwt>
<rscale>  0 0.27197363E+03</rscale>
<asrwt>0</asrwt>
<pdfrwt beam="2">  1        1 0.10417440E+00 0.27552343E+03</pdfrwt>
<pdfrwt beam="1">  1       -1 0.35483539E-01 0.27552343E+03</pdfrwt>
<totfact> 0.22798915E+02</totfact>
</mgrwt>
</event>
<event>
 6    1  0.4705246E-006  0.1546385E+03  0.7546771E-02  0.1205483E+00
          2   -1    0    0  501    0  0.00000000000E+00  0.00000000000E+00  0.38764027875E+03  0.38764027875E+03  0.00000000000E+00 0.  1.
         -2   -1    0    0    0  501 -0.00000000000E+00 -0.00000000000E+00 -0.49666106182E+02  0.49666106182E+02  0.00000000000E+00 0. -1.
          5    1    1    2  502    0 -0.57413617350E+02 -0.16377107496E+02  0.14053238627E+03  0.15276116882E+03  0.47000000000E+01 0.  1.
         -5    1    1    2    0  502 -0.10366873230E+02  0.77146959976E+02  0.50030651837E+02  0.92651398356E+02  0.47000000000E+01 0.  1.
        -11    1    1    2    0    0  0.45753289755E+02 -0.77909373003E+02  0.13215034676E+03  0.16008419058E+03  0.00000000000E+00 0.  1.
         11    1    1    2    0    0  0.22027200825E+02  0.17139520523E+02  0.15260787698E+02  0.31809627176E+02  0.00000000000E+00 0. -1.
<mgrwt>
<rscale>  0 0.14599427E+03</rscale>
<asrwt>0</asrwt>
<pdfrwt beam="1">  1        2 0.59636964E-01 0.15463847E+03</pdfrwt>
<pdfrwt beam="2">  1       -2 0.76409397E-02 0.15463847E+03</pdfrwt>
<totfact> 0.80690665E+03</totfact>
</mgrwt>
</event>
<event>
 6    1  0.4705246E-006  0.1991554E+03  0.7546771E-02  0.1155233E+00
         -2   -1    0    0    0  501 -0.00000000000E+00  0.00000000000E+00  0.70879066246E+02  0.70879066246E+02  0.00000000000E+00 0.  1.
          2   -1    0    0  501    0  0.00000000000E+00 -0.00000000000E+00 -0.50464965875E+03  0.50464965875E+03  0.00000000000E+00 0. -1.
          5    1    1    2  502    0  0.66701713685E+02 -0.13350531855E+03 -0.14795713254E+03  0.21020511831E+03  0.47000000000E+01 0. -1.
         -5    1    1    2    0  502  0.34903406577E+02  0.16397693269E+02 -0.10359433931E+03  0.11063909468E+03  0.47000000000E+01 0. -1.
        -11    1    1    2    0    0 -0.68028382911E+02  0.91695277716E+02 -0.67859708960E+02  0.13281876726E+03  0.00000000000E+00 0. -1.
         11    1    1    2    0    0 -0.33576737352E+02  0.25412347570E+02 -0.11435941169E+03  0.12186574475E+03  0.00000000000E+00 0.  1.
<mgrwt>
<rscale>  0 0.19362373E+03</rscale>
<asrwt>0</asrwt>
<pdfrwt beam="2">  1        2 0.77638408E-01 0.19915538E+03</pdfrwt>
<pdfrwt beam="1">  1       -2 0.10904472E-01 0.19915538E+03</pdfrwt>
<totfact> 0.35061660E+03</totfact>
</mgrwt>
</event>
<event>
 6    1  0.4705246E-006  0.1642365E+03  0.7546771E-02  0.1191139E+00
          1   -1    0    0  501    0  0.00000000000E+00  0.00000000000E+00  0.65935929323E+03  0.65935929323E+03  0.00000000000E+00 0. -1.
         -1   -1    0    0    0  501 -0.00000000000E+00 -0.00000000000E+00 -0.35150238827E+02  0.35150238827E+02  0.00000000000E+00 0.  1.
          5    1    1    2  502    0  0.63574580783E+02 -0.10366690573E+03  0.18766750648E+03  0.22367328328E+03  0.47000000000E+01 0. -1.
         -5    1    1    2    0  502 -0.27214106439E+02  0.36629225324E+01  0.14121804665E+03  0.14393974882E+03  0.47000000000E+01 0. -1.
        -11    1    1    2    0    0 -0.10426193706E+02  0.81985099645E+02  0.27971752768E+03  0.29167131736E+03  0.00000000000E+00 0.  1.
         11    1    1    2    0    0 -0.25934280639E+02  0.18018883554E+02  0.15605973588E+02  0.35225182589E+02  0.00000000000E+00 0. -1.
<mgrwt>
<rscale>  0 0.15785552E+03</rscale>
<asrwt>0</asrwt>
<pdfrwt beam="1">  1        1 0.10143988E+00 0.16423652E+03</pdfrwt>
<pdfrwt beam="2">  1       -1 0.54077295E-02 0.16423652E+03</pdfrwt>
<totfact> 0.47030713E+03</totfact>
</mgrwt>
</event>
<event>
 6    1  0.4705246E-006  0.3909328E+03  0.7546771E-02  0.1046965E+00
         -2   -1    0    0    0  501 -0.00000000000E+00  0.00000000000E+00  0.21691405685E+03  0.21691405685E+03  0.00000000000E+00 0.  1.
          2   -1    0    0  501    0  0.00000000000E+00 -0.00000000000E+00 -0.17613936438E+03  0.17613936438E+03  0.00000000000E+00 0. -1.
          5    1    1    2  502    0  0.26283742886E+02 -0.16815260055E+03  0.63582732413E+02  0.18174428759E+03  0.47000000000E+01 0. -1.
         -5    1    1    2    0  502  0.10166818479E+02  0.11562616730E+02 -0.20851826907E+02  0.26342873590E+02  0.47000000000E+01 0. -1.
        -11    1    1    2    0    0  0.10288485206E+02  0.11134903280E+03 -0.27379201454E+02  0.11512636842E+03  0.00000000000E+00 0. -1.
         11    1    1    2    0    0 -0.46739046571E+02  0.45240951015E+02  0.25422988416E+02  0.69839891632E+02  0.00000000000E+00 0.  1.
<mgrwt>
<rscale>  0 0.39093275E+03</rscale>
<asrwt>0</asrwt>
<pdfrwt beam="2">  1        2 0.27098364E-01 0.39093275E+03</pdfrwt>
<pdfrwt beam="1">  1       -2 0.33371393E-01 0.39093275E+03</pdfrwt>
<totfact> 0.16610455E+03</totfact>
</mgrwt>
</event>
<event>
 6    1  0.4705246E-006  0.1496528E+03  0.7546771E-02  0.1210139E+00
          1   -1    0    0  501    0  0.00000000000E+00  0.00000000000E+00  0.16750518084E+03  0.16750518084E+03  0.00000000000E+00 0. -1.
         -1   -1    0    0    0  501 -0.00000000000E+00 -0.00000000000E+00 -0.12467625050E+03  0.12467625050E+03  0.00000000000E+00 0.  1.
          5    1    1    2  502    0 -0.25749801536E+02  0.81168199220E+02 -0.15544047150E+01  0.85298505367E+02  0.47000000000E+01 0. -1.
         -5    1    1    2    0  502 -0.27444490320E+02 -0.18361597183E+02  0.73576408297E+02  0.80783204677E+02  0.47000000000E+01 0. -1.
        -11    1    1    2    0    0  0.24987649999E+02 -0.80988541349E+02 -0.35610490727E+02  0.91932766368E+02  0.00000000000E+00 0.  1.
         11    1    1    2    0    0  0.28206641856E+02  0.18181939311E+02  0.64174174774E+01  0.34166954927E+02  0.00000000000E+00 0. -1.
<mgrwt>
<rscale>  0 0.14239731E+03</rscale>
<asrwt>0</asrwt>
<pdfrwt beam="1">  1        1 0.25770028E-01 0.14965282E+03</pdfrwt>
<pdfrwt beam="2">  1       -1 0.19180961E-01 0.14965282E+03</pdfrwt>
<totfact> 0.38398002E+03</totfact>
</mgrwt>
</event>
<event>
 6    1  0.4705246E-006  0.1561796E+03  0.7546771E-02  0.1201706E+00
         -1   -1    0    0    0  501 -0.00000000000E+00  0.00000000000E+00  0.19586918351E+03  0.19586918351E+03  0.00000000000E+00 0.  1.
          1   -1    0    0  501    0  0.00000000000E+00 -0.00000000000E+00 -0.15900060869E+03  0.15900060869E+03  0.00000000000E+00 0. -1.
          5    1    1    2  502    0  0.36632206529E+02 -0.49506741660E+02 -0.46261382718E+02  0.77168915736E+02  0.47000000000E+01 0.  1.
         -5    1    1    2    0  502  0.53195243232E+02  0.75929912211E+02 -0.38149419913E+02  0.10036211292E+03  0.47000000000E+01 0.  1.
        -11    1    1    2    0    0 -0.67842801512E+02 -0.55008570982E+02  0.10802764484E+03  0.13891925946E+03  0.00000000000E+00 0.  1.
         11    1    1    2    0    0 -0.21984648248E+02  0.28585400431E+02  0.13251732611E+02  0.38419504078E+02  0.00000000000E+00 0. -1.
<mgrwt>
<rscale>  0 0.14900090E+03</rscale>
<asrwt>0</asrwt>
<pdfrwt beam="2">  1        1 0.24461632E-01 0.15617965E+03</pdfrwt>
<pdfrwt beam="1">  1       -1 0.30133720E-01 0.15617965E+03</pdfrwt>
<totfact> 0.19565166E+03</totfact>
</mgrwt>
</event>
<event>
 6    1  0.4705246E-006  0.2493051E+03  0.7546771E-02  0.1116191E+00
         -3   -1    0    0    0  501 -0.00000000000E+00  0.00000000000E+00  0.47722071629E+03  0.47722071629E+03  0.00000000000E+00 0.  1.
          3   -1    0    0  501    0  0.00000000000E+00 -0.00000000000E+00 -0.14935993252E+03  0.14935993252E+03  0.00000000000E+00 0. -1.
          5    1    1    2  502    0 -0.63073581840E+02  0.21124951156E+02  0.21044217656E+02  0.69924883870E+02  0.47000000000E+01 0.  1.
         -5    1    1    2    0  502 -0.11908589745E+03 -0.13664365587E+03  0.14374163021E+02  0.18188360625E+03  0.47000000000E+01 0.  1.
        -11    1    1    2    0    0  0.32295813769E+02  0.46903411699E+02  0.13635541267E+03  0.14776923963E+03  0.00000000000E+00 0.  1.
         11    1    1    2    0    0  0.14986366553E+03  0.68615293012E+02  0.15608699042E+03  0.22700291905E+03  0.00000000000E+00 0. -1.
<mgrwt>
<rscale>  0 0.24548571E+03</rscale>
<asrwt>0</asrwt>
<pdfrwt beam="2">  1        3 0.22978451E-01 0.24930514E+03</pdfrwt>
<pdfrwt beam="1">  1       -3 0.73418571E-01 0.24930514E+03</pdfrwt>
<totfact> 0.78153166E+01</totfact>
</mgrwt>
</event>
<event>
 6    1  0.4705246E-006  0.1434202E+03  0.7546771E-02  0.1222699E+00
         -3   -1    0    0    0  501 -0.00000000000E+00  0.00000000000E+00  0.34304638702E+02  0.34304638702E+02  0.00000000000E+00 0.  1.
          3   -1    0    0  501    0  0.00000000000E+00 -0.00000000000E+00 -0.46653939770E+03  0.46653939770E+03  0.00000000000E+00 0. -1.
          5    1    1    2  502    0  0.92603931339E+02  0.32415343864E+02 -0.17011364401E+03  0.19643570066E+03  0.47000000000E+01 0. -1.
         -5    1    1    2    0  502 -0.40273373228E+02  0.14548493342E+02 -0.11300183078E+03  0.12093430865E+03  0.47000000000E+01 0. -1.
        -11    1    1    2    0    0 -0.29591282818E+02 -0.68675520234E+02 -0.11399958880E+03  0.13633736591E+03  0.00000000000E+00 0. -1.
         11    1    1    2    0    0 -0.22739275292E+02  0.21711683027E+02 -0.35119695411E+02  0.47136661172E+02  0.00000000000E+00 0.  1.
<mgrwt>
<rscale>  0 0.13325860E+03</rscale>
<asrwt>0</asrwt>
<pdfrwt beam="2">  1        3 0.71775289E-01 0.14342019E+03</pdfrwt>
<pdfrwt beam="1">  1       -3 0.52776370E-02 0.14342019E+03</pdfrwt>
<totfact> 0.91932399E+02</totfact>
</mgrwt>
</event>
<event>
 6    1  0.4705246E-006  0.1392579E+03  0.7546771E-02  0.1226002E+00
         -1   -1    0    0    0  501 -0.00000000000E+00  0.00000000000E+00  0.16794944362E+03  0.16794944362E+03  0.00000000000E+00 0.  1.
          1   -1    0    0  501    0  0.00000000000E+00 -0.00000000000E+00 -0.10662779832E+03  0.10662779832E+03  0.00000000000E+00 0. -1.
          5    1    1    2  502    0  0.56954345460E+02 -0.78212476033E+02 -0.30942732296E+02  0.10168840423E+03  0.47000000000E+01 0. -1.
         -5    1    1    2    0  502 -0.24219112775E+02  0.26278946969E+02  0.13850593974E+02  0.38614471780E+02  0.47000000000E+01 0. -1.
        -11    1    1    2    0    0 -0.58744070214E+02  0.51060306766E+02  0.74892965080E+02  0.10801378121E+03  0.00000000000E+00 0.  1.
         11    1    1    2    0    0  0.26008837529E+02  0.87322229785E+00  0.35208185392E+01  0.26260584723E+02  0.00000000000E+00 0. -1.
<mgrwt>
<rscale>  0 0.13098480E+03</rscale>
<asrwt>0</asrwt>
<pdfrwt beam="2">  1        1 0.16404277E-01 0.13925788E+03</pdfrwt>
<pdfrwt beam="1">  1       -1 0.25838376E-01 0.13925788E+03</pdfrwt>
<totfact> 0.41850308E+03</totfact>
</mgrwt>
</event>
<event>
 6    1  0.4705246E-006  0.1292513E+03  0.7546771E-02  0.1243019E+00
         -4   -1    0    0    0  501 -0.00000000000E+00  0.00000000000E+00  0.72040524420E+02  0.72040524420E+02  0.00000000000E+00 0.  1.
          4   -1    0    0  501    0  0.00000000000E+00 -0.00000000000E+00 -0.18325696153E+03  0.18325696153E+03  0.00000000000E+00 0. -1.
          5    1    1    2  502    0 -0.31322401000E+02 -0.10097856487E+02 -0.10016114111E+03  0.10553389834E+03  0.47000000000E+01 0. -1.
         -5    1    1    2    0  502  0.24887490948E+02  0.42317607352E+02  0.12205483493E+02  0.50805815858E+02  0.47000000000E+01 0. -1.
        -11    1    1    2    0    0 -0.26410313604E+02 -0.17931157300E+01  0.22643453743E+02  0.34834550752E+02  0.00000000000E+00 0.  1.
         11    1    1    2    0    0  0.32845223656E+02 -0.30426635134E+02 -0.45904233234E+02  0.64123221000E+02  0.00000000000E+00 0. -1.
<mgrwt>
<rscale>  0 0.12004754E+03</rscale>
<asrwt>0</asrwt>
<pdfrwt beam="2">  1        4 0.28193379E-01 0.12925134E+03</pdfrwt>
<pdfrwt beam="1">  1       -4 0.11083158E-01 0.12925134E+03</pdfrwt>
<totfact> 0.12425621E+03</totfact>
</mgrwt>
</event>
<event>
 6    1  0.4705246E-006  0.1920215E+03  0.7546771E-02  0.1161581E+00
          2   -1    0    0  501    0  0.00000000000E+00  0.00000000000E+00  0.74276238865E+03  0.74276238865E+03  0.00000000000E+00 0. -1.
         -2   -1    0    0    0  501 -0.00000000000E+00 -0.00000000000E+00 -0.54055164471E+02  0.54055164471E+02  0.00000000000E+00 0.  1.
          5    1    1    2  502    0  0.55601942645E+02 -0.13572196763E+03  0.51745419384E+03  0.53785961109E+03  0.47000000000E+01 0.  1.
         -5    1    1    2    0  502 -0.20645071914E+02 -0.57887937861E+01  0.11312611240E+02  0.24694013463E+02  0.47000000000E+01 0.  1.
        -11    1    1    2    0    0 -0.24632674136E+02  0.60003399262E+01  0.13222189248E+01  0.25387417694E+02  0.00000000000E+00 0.  1.
         11    1    1    2    0    0 -0.10324196595E+02  0.13551042149E+03  0.15861820017E+03  0.20887651087E+03  0.00000000000E+00 0. -1.
<mgrwt>
<rscale>  0 0.18658138E+03</rscale>
<asrwt>0</asrwt>
<pdfrwt beam="1">  1        2 0.11427113E+00 0.19202147E+03</pdfrwt>
<pdfrwt beam="2">  1       -2 0.83161797E-02 0.19202147E+03</pdfrwt>
<totfact> 0.34259007E+03</totfact>
</mgrwt>
</event>
<event>
 6    1  0.4705246E-006  0.3029678E+03  0.7546771E-02  0.1083766E+00
          2   -1    0    0  501    0  0.00000000000E+00  0.00000000000E+00  0.13125038062E+03  0.13125038062E+03  0.00000000000E+00 0. -1.
         -2   -1    0    0    0  501 -0.00000000000E+00 -0.00000000000E+00 -0.17483663794E+03  0.17483663794E+03  0.00000000000E+00 0.  1.
          5    1    1    2  502    0  0.15711605810E+02  0.27878730922E+01 -0.35963324074E+02  0.39624203109E+02  0.47000000000E+01 0.  1.
         -5    1    1    2    0  502 -0.91191307836E+02  0.61585820373E+02  0.48809436944E+02  0.12047040728E+03  0.47000000000E+01 0.  1.
        -11    1    1    2    0    0  0.30927084249E+02 -0.75011836338E+02 -0.11714853717E+02  0.81978643125E+02  0.00000000000E+00 0.  1.
         11    1    1    2    0    0  0.44552617777E+02  0.10638142873E+02 -0.44717516475E+02  0.64013765038E+02  0.00000000000E+00 0. -1.
<mgrwt>
<rscale>  0 0.30296782E+03</rscale>
<asrwt>0</asrwt>
<pdfrwt beam="1">  1        2 0.20192366E-01 0.30296782E+03</pdfrwt>
<pdfrwt beam="2">  1       -2 0.26897944E-01 0.30296782E+03</pdfrwt>
<totfact> 0.34208093E+03</totfact>
</mgrwt>
</event>
<event>
 6    1  0.4705246E-006  0.1404160E+03  0.7546771E-02  0.1223673E+00
          1   -1    0    0  501    0  0.00000000000E+00  0.00000000000E+00  0.15628299742E+03  0.15628299742E+03  0.00000000000E+00 0. -1.
         -1   -1    0    0    0  501 -0.00000000000E+00 -0.00000000000E+00 -0.11416572914E+03  0.11416572914E+03  0.00000000000E+00 0.  1.
          5    1    1    2  502    0  0.38033772051E+02  0.49388328398E+01  0.72275513324E+01  0.39310143532E+02  0.47000000000E+01 0. -1.
         -5    1    1    2    0  502 -0.98047190320E+02  0.17188822661E+02  0.60566270438E+02  0.11661505164E+03  0.47000000000E+01 0. -1.
        -11    1    1    2    0    0  0.74825109981E+02 -0.10546482663E+02  0.79661031755E+01  0.75983446750E+02  0.00000000000E+00 0. -1.
         11    1    1    2    0    0 -0.14811691713E+02 -0.11581172837E+02 -0.33642656672E+02  0.38540084634E+02  0.00000000000E+00 0.  1.
<mgrwt>
<rscale>  0 0.13258256E+03</rscale>
<asrwt>0</asrwt>
<pdfrwt beam="1">  1        1 0.24043538E-01 0.14041604E+03</pdfrwt>
<pdfrwt beam="2">  1       -1 0.17563958E-01 0.14041604E+03</pdfrwt>
<totfact> 0.48047753E+03</totfact>
</mgrwt>
</event>
<event>
 6    1  0.4705246E-006  0.3925667E+03  0.7546771E-02  0.1046384E+00
         -2   -1    0    0    0  501 -0.00000000000E+00  0.00000000000E+00  0.25047704548E+03  0.25047704548E+03  0.00000000000E+00 0.  1.
          2   -1    0    0  501    0  0.00000000000E+00 -0.00000000000E+00 -0.15381513881E+03  0.15381513881E+03  0.00000000000E+00 0. -1.
          5    1    1    2  502    0  0.64796035985E+02  0.12941905017E+03  0.22035342758E+02  0.14647683488E+03  0.47000000000E+01 0. -1.
         -5    1    1    2    0  502  0.31582145962E+02 -0.13481543017E+02 -0.35832593091E+02  0.49852268487E+02  0.47000000000E+01 0. -1.
        -11    1    1    2    0    0 -0.17371420847E+02 -0.91803634661E+02  0.54204411916E+02  0.10801755353E+03  0.00000000000E+00 0. -1.
         11    1    1    2    0    0 -0.79006761100E+02 -0.24133872489E+02  0.56254745089E+02  0.99945527393E+02  0.00000000000E+00 0.  1.
<mgrwt>
<rscale>  0 0.39256674E+03</rscale>
<asrwt>0</asrwt>
<pdfrwt beam="2">  1        2 0.23663868E-01 0.39256674E+03</pdfrwt>
<pdfrwt beam="1">  1       -2 0.38534930E-01 0.39256674E+03</pdfrwt>
<totfact> 0.14754260E+03</totfact>
</mgrwt>
</event>
<event>
 6    1  0.4705246E-006  0.1436733E+03  0.7546771E-02  0.1218678E+00
          2   -1    0    0  501    0  0.00000000000E+00  0.00000000000E+00  0.23667410628E+03  0.23667410628E+03  0.00000000000E+00 0. -1.
         -2   -1    0    0    0  501 -0.00000000000E+00 -0.00000000000E+00 -0.72058258060E+02  0.72058258060E+02  0.00000000000E+00 0.  1.
          5    1    1    2  502    0 -0.44822972253E+02  0.61870919832E+02  0.53663521079E+02  0.93482474599E+02  0.47000000000E+01 0.  1.
         -5    1    1    2    0  502 -0.26008159559E+02 -0.61504303334E+02  0.55519299570E+02  0.86969456231E+02  0.47000000000E+01 0.  1.
        -11    1    1    2    0    0  0.62236115409E+02 -0.13867204587E+02  0.77917589617E+02  0.10068159810E+03  0.00000000000E+00 0. -1.
         11    1    1    2    0    0  0.85950164035E+01  0.13500588089E+02 -0.22484562045E+02  0.27598835412E+02  0.00000000000E+00 0.  1.
<mgrwt>
<rscale>  0 0.13609789E+03</rscale>
<asrwt>0</asrwt>
<pdfrwt beam="1">  1        2 0.36411401E-01 0.14367328E+03</pdfrwt>
<pdfrwt beam="2">  1       -2 0.11085886E-01 0.14367328E+03</pdfrwt>
<totfact> 0.75879139E+03</totfact>
</mgrwt>
</event>
<event>
 6    1  0.4705246E-006  0.1321004E+03  0.7546771E-02  0.1236916E+00
          1   -1    0    0  501    0  0.00000000000E+00  0.00000000000E+00  0.15498259443E+03  0.15498259443E+03  0.00000000000E+00 0. -1.
         -1   -1    0    0    0  501 -0.00000000000E+00 -0.00000000000E+00 -0.90011891880E+02  0.90011891880E+02  0.00000000000E+00 0.  1.
          5    1    1    2  502    0  0.31070717553E+02 -0.30685622130E+02  0.73722393094E+01  0.44535792428E+02  0.47000000000E+01 0. -1.
         -5    1    1    2    0  502 -0.60582742601E+02  0.61583214203E+02  0.45526149416E+02  0.97762371357E+02  0.47000000000E+01 0. -1.
        -11    1    1    2    0    0 -0.85810909227E+01 -0.76334151376E+01  0.45502782029E+02  0.46929812704E+02  0.00000000000E+00 0. -1.
         11    1    1    2    0    0  0.38093115970E+02 -0.23264176935E+02 -0.33430468207E+02  0.55766509819E+02  0.00000000000E+00 0.  1.
<mgrwt>
<rscale>  0 0.12382591E+03</rscale>
<asrwt>0</asrwt>
<pdfrwt beam="1">  1        1 0.23843476E-01 0.13210045E+03</pdfrwt>
<pdfrwt beam="2">  1       -1 0.13847983E-01 0.13210045E+03</pdfrwt>
<totfact> 0.70279123E+03</totfact>
</mgrwt>
</event>
<event>
 6    1  0.6415734E-006  0.1342721E+03  0.7546771E-02  0.1234424E+00
          1   -1    0    0  501    0  0.00000000000E+00  0.00000000000E+00  0.60083854892E+03  0.60083854892E+03  0.00000000000E+00 0. -1.
         -1   -1    0    0    0  501 -0.00000000000E+00 -0.00000000000E+00 -0.23686956908E+02  0.23686956908E+02  0.00000000000E+00 0.  1.
          5    1    1    2  502    0  0.37386240882E+02  0.53554250637E+02  0.83769505495E+02  0.10632595553E+03  0.47000000000E+01 0. -1.
         -5    1    1    2    0  502  0.25724794228E+01 -0.25126587620E+02  0.28450619617E+03  0.28566383866E+03  0.47000000000E+01 0. -1.
        -11    1    1    2    0    0  0.99403150152E+01  0.16716290633E+02  0.86132817116E+01  0.21270469129E+02  0.00000000000E+00 0.  1.
         11    1    1    2    0    0 -0.49899035320E+02 -0.45143953649E+02  0.20026260863E+03  0.21126524251E+03  0.00000000000E+00 0. -1.
<mgrwt>
<rscale>  0 0.12541409E+03</rscale>
<asrwt>0</asrwt>
<pdfrwt beam="1">  1        1 0.92436689E-01 0.13427214E+03</pdfrwt>
<pdfrwt beam="2">  1       -1 0.36441477E-02 0.13427214E+03</pdfrwt>
<totfact> 0.94779903E+03</totfact>
</mgrwt>
</event>
<event>
 6    1  0.4705246E-006  0.2272361E+03  0.7546771E-02  0.1131721E+00
          2   -1    0    0  501    0  0.00000000000E+00  0.00000000000E+00  0.29366014584E+03  0.29366014584E+03  0.00000000000E+00 0. -1.
         -2   -1    0    0    0  501 -0.00000000000E+00 -0.00000000000E+00 -0.16311527858E+03  0.16311527858E+03  0.00000000000E+00 0.  1.
          5    1    1    2  502    0  0.86406905425E+02  0.81473603597E+01 -0.28445602325E+02  0.91453677223E+02  0.47000000000E+01 0. -1.
         -5    1    1    2    0  502  0.88488001335E+02  0.65484788945E+02  0.94582670255E+02  0.14521141648E+03  0.47000000000E+01 0. -1.
        -11    1    1    2    0    0 -0.11759737205E+03 -0.47035230458E+02 -0.43634268432E+01  0.12673000556E+03  0.00000000000E+00 0. -1.
         11    1    1    2    0    0 -0.57297534713E+02 -0.26596918846E+02  0.68771226170E+02  0.93380325151E+02  0.00000000000E+00 0.  1.
<mgrwt>
<rscale>  0 0.22292498E+03</rscale>
<asrwt>0</asrwt>
<pdfrwt beam="1">  1        2 0.45178484E-01 0.22723612E+03</pdfrwt>
<pdfrwt beam="2">  1       -2 0.25094658E-01 0.22723612E+03</pdfrwt>
<totfact> 0.15722660E+03</totfact>
</mgrwt>
</event>
<event>
 6    1  0.4705246E-006  0.1809607E+03  0.7546771E-02  0.1172729E+00
         -1   -1    0    0    0  501 -0.00000000000E+00  0.00000000000E+00  0.59056569563E+03  0.59056569563E+03  0.00000000000E+00 0.  1.
          1   -1    0    0  501    0  0.00000000000E+00 -0.00000000000E+00 -0.54986410422E+02  0.54986410422E+02  0.00000000000E+00 0. -1.
          5    1    1    2  502    0  0.10729123824E+03 -0.11611413674E+02  0.19051023671E+03  0.21900336760E+03  0.47000000000E+01 0. -1.
         -5    1    1    2    0  502  0.19325294815E+02 -0.20655485310E+02 -0.15624501721E+02  0.32654726260E+02  0.47000000000E+01 0. -1.
        -11    1    1    2    0    0 -0.43248614747E+02 -0.30046788669E+02  0.96439666637E+02  0.10988112435E+03  0.00000000000E+00 0.  1.
         11    1    1    2    0    0 -0.83367918304E+02  0.62313687653E+02  0.26425388359E+03  0.28401288785E+03  0.00000000000E+00 0. -1.
<mgrwt>
<rscale>  0 0.17500277E+03</rscale>
<asrwt>0</asrwt>
<pdfrwt beam="2">  1        1 0.84594482E-02 0.18096070E+03</pdfrwt>
<pdfrwt beam="1">  1       -1 0.90856256E-01 0.18096070E+03</pdfrwt>
<totfact> 0.99449777E+02</totfact>
</mgrwt>
</event>
<event>
 6    1  0.4705246E-006  0.1400600E+03  0.7546771E-02  0.1230165E+00
          1   -1    0    0  501    0  0.00000000000E+00  0.00000000000E+00  0.10868489697E+04  0.10868489697E+04  0.00000000000E+00 0. -1.
         -1   -1    0    0    0  501 -0.00000000000E+00 -0.00000000000E+00 -0.13460711167E+02  0.13460711167E+02  0.00000000000E+00 0.  1.
          5    1    1    2  502    0  0.77826170285E+01  0.16195630065E+02  0.49796089818E+03  0.49830714793E+03  0.47000000000E+01 0.  1.
         -5    1    1    2    0  502  0.99929897334E+01 -0.76825110649E+02  0.22269041963E+03  0.23582847679E+03  0.47000000000E+01 0.  1.
        -11    1    1    2    0    0  0.53912999633E+01  0.72160668902E+02  0.26467220860E+03  0.27438587109E+03  0.00000000000E+00 0.  1.
         11    1    1    2    0    0 -0.23166906725E+02 -0.11531188318E+02  0.88064732126E+02  0.91788185055E+02  0.00000000000E+00 0. -1.
<mgrwt>
<rscale>  0 0.12819118E+03</rscale>
<asrwt>0</asrwt>
<pdfrwt beam="1">  1        1 0.16720747E+00 0.14005996E+03</pdfrwt>
<pdfrwt beam="2">  1       -1 0.20708795E-02 0.14005996E+03</pdfrwt>
<totfact> 0.87160503E+03</totfact>
</mgrwt>
</event>
<event>
 6    1  0.4705246E-006  0.1663048E+03  0.7546771E-02  0.1188831E+00
          3   -1    0    0  501    0  0.00000000000E+00  0.00000000000E+00  0.28863974655E+03  0.28863974655E+03  0.00000000000E+00 0. -1.
         -3   -1    0    0    0  501 -0.00000000000E+00 -0.00000000000E+00 -0.10091997778E+03  0.10091997778E+03  0.00000000000E+00 0.  1.
          5    1    1    2  502    0  0.62158169568E+02  0.80339257615E+02  0.14897671061E+03  0.18037235005E+03  0.47000000000E+01 0. -1.
         -5    1    1    2    0  502  0.40250230682E+02 -0.41021495006E+02  0.34223371124E+02  0.67053510375E+02  0.47000000000E+01 0. -1.
        -11    1    1    2    0    0 -0.10866575865E+03 -0.49572146966E+02 -0.13793034647E+02  0.12023266055E+03  0.00000000000E+00 0.  1.
         11    1    1    2    0    0  0.62573584019E+01  0.10254384358E+02  0.18312721682E+02  0.21901203349E+02  0.00000000000E+00 0. -1.
<mgrwt>
<rscale>  0 0.15988144E+03</rscale>
<asrwt>0</asrwt>
<pdfrwt beam="1">  1        3 0.44406115E-01 0.16630480E+03</pdfrwt>
<pdfrwt beam="2">  1       -3 0.15526151E-01 0.16630480E+03</pdfrwt>
<totfact> 0.42264232E+02</totfact>
</mgrwt>
</event>
<event>
 6    1  0.4705246E-006  0.1295777E+03  0.7546771E-02  0.1241567E+00
         -1   -1    0    0    0  501 -0.00000000000E+00  0.00000000000E+00  0.49836965831E+02  0.49836965831E+02  0.00000000000E+00 0.  1.
          1   -1    0    0  501    0  0.00000000000E+00 -0.00000000000E+00 -0.26059116725E+03  0.26059116725E+03  0.00000000000E+00 0. -1.
          5    1    1    2  502    0  0.11157588519E+00 -0.54622922690E+02 -0.21989845734E+02  0.59070461720E+02  0.47000000000E+01 0.  1.
         -5    1    1    2    0  502 -0.34212055524E+02  0.55895110968E+02 -0.94996190318E+02  0.11550365513E+03  0.47000000000E+01 0.  1.
        -11    1    1    2    0    0 -0.10797226536E+02  0.31337056133E+02 -0.65884389869E+02  0.73751908561E+02  0.00000000000E+00 0. -1.
         11    1    1    2    0    0  0.44897706175E+02 -0.32609244411E+02 -0.27883775492E+02  0.62102107666E+02  0.00000000000E+00 0.  1.
<mgrwt>
<rscale>  0 0.12093208E+03</rscale>
<asrwt>0</asrwt>
<pdfrwt beam="2">  1        1 0.40090949E-01 0.12957774E+03</pdfrwt>
<pdfrwt beam="1">  1       -1 0.76672255E-02 0.12957774E+03</pdfrwt>
<totfact> 0.90804787E+03</totfact>
</mgrwt>
</event>
<event>
 6    1  0.4705246E-006  0.1287474E+03  0.7546771E-02  0.1243163E+00
         -1   -1    0    0    0  501 -0.00000000000E+00  0.00000000000E+00  0.12143426042E+03  0.12143426042E+03  0.00000000000E+00 0.  1.
          1   -1    0    0  501    0  0.00000000000E+00 -0.00000000000E+00 -0.10494972650E+03  0.10494972650E+03  0.00000000000E+00 0. -1.
          5    1    1    2  502    0  0.45701490315E+02 -0.33235652132E+02 -0.38773437701E+02  0.68692825396E+02  0.47000000000E+01 0.  1.
         -5    1    1    2    0  502 -0.35759014400E+02  0.39968708732E+01  0.48291937080E+02  0.60405987076E+02  0.47000000000E+01 0.  1.
        -11    1    1    2    0    0  0.53855469229E+01  0.46224625735E+02  0.37053431636E+02  0.59486779506E+02  0.00000000000E+00 0.  1.
         11    1    1    2    0    0 -0.15328022838E+02 -0.16985844475E+02 -0.30087397090E+02  0.37798394944E+02  0.00000000000E+00 0. -1.
<mgrwt>
<rscale>  0 0.11996002E+03</rscale>
<asrwt>0</asrwt>
<pdfrwt beam="2">  1        1 0.16146112E-01 0.12874743E+03</pdfrwt>
<pdfrwt beam="1">  1       -1 0.18682194E-01 0.12874743E+03</pdfrwt>
<totfact> 0.71867179E+03</totfact>
</mgrwt>
</event>
<event>
 6    1  0.4705246E-006  0.1447821E+03  0.7546771E-02  0.1217323E+00
          2   -1    0    0  501    0  0.00000000000E+00  0.00000000000E+00  0.82303370029E+03  0.82303370029E+03  0.00000000000E+00 0.  1.
         -2   -1    0    0    0  501 -0.00000000000E+00 -0.00000000000E+00 -0.25654775260E+02  0.25654775260E+02  0.00000000000E+00 0. -1.
          5    1    1    2  502    0 -0.46698387153E+01 -0.36987773396E+02  0.14457626409E+03  0.14937968039E+03  0.47000000000E+01 0. -1.
         -5    1    1    2    0  502  0.49493161213E+02  0.94678147191E+02  0.47462148846E+03  0.48651944655E+03  0.47000000000E+01 0. -1.
        -11    1    1    2    0    0 -0.36943040142E+02  0.11073982641E+02  0.28740289122E+02  0.48098082345E+02  0.00000000000E+00 0.  1.
         11    1    1    2    0    0 -0.78802823559E+01 -0.68764356436E+02  0.14944088336E+03  0.16469126627E+03  0.00000000000E+00 0. -1.
<mgrwt>
<rscale>  0 0.13707283E+03</rscale>
<asrwt>0</asrwt>
<pdfrwt beam="1">  1        2 0.12662055E+00 0.14478205E+03</pdfrwt>
<pdfrwt beam="2">  1       -2 0.39468891E-02 0.14478205E+03</pdfrwt>
<totfact> 0.92592744E+03</totfact>
</mgrwt>
</event>
<event>
 6    1  0.4705246E-006  0.1504656E+03  0.7546771E-02  0.1209197E+00
          1   -1    0    0  501    0  0.00000000000E+00  0.00000000000E+00  0.19112844623E+03  0.19112844623E+03  0.00000000000E+00 0. -1.
         -1   -1    0    0    0  501 -0.00000000000E+00 -0.00000000000E+00 -0.11250938919E+03  0.11250938919E+03  0.00000000000E+00 0.  1.
          5    1    1    2  502    0 -0.74211083048E+02  0.46182454196E+02  0.11356262713E+03  0.14338292856E+03  0.47000000000E+01 0. -1.
         -5    1    1    2    0  502 -0.79829362726E+01 -0.30337469217E+02 -0.16418167586E+02  0.35717440234E+02  0.47000000000E+01 0. -1.
        -11    1    1    2    0    0  0.20730438438E+02  0.76420544195E+01  0.33861155488E+02  0.40431793487E+02  0.00000000000E+00 0. -1.
         11    1    1    2    0    0  0.61463580882E+02 -0.23487039398E+02 -0.52386557992E+02  0.84105673131E+02  0.00000000000E+00 0.  1.
<mgrwt>
<rscale>  0 0.14311600E+03</rscale>
<asrwt>0</asrwt>
<pdfrwt beam="1">  1        1 0.29404376E-01 0.15046560E+03</pdfrwt>
<pdfrwt beam="2">  1       -1 0.17309137E-01 0.15046560E+03</pdfrwt>
<totfact> 0.38356745E+03</totfact>
</mgrwt>
</event>
<event>
 6    1  0.4705246E-006  0.1355041E+03  0.7546771E-02  0.1235600E+00
         -1   -1    0    0    0  501 -0.00000000000E+00  0.00000000000E+00  0.42073597375E+02  0.42073597375E+02  0.00000000000E+00 0.  1.
          1   -1    0    0  501    0  0.00000000000E+00 -0.00000000000E+00 -0.34696170845E+03  0.34696170845E+03  0.00000000000E+00 0. -1.
          5    1    1    2  502    0 -0.11865199533E+02  0.23640003507E+02 -0.21672984592E+03  0.21838852726E+03  0.47000000000E+01 0.  1.
         -5    1    1    2    0  502  0.42011842422E+02 -0.16576385480E+02 -0.11184585370E+02  0.46764905743E+02  0.47000000000E+01 0.  1.
        -11    1    1    2    0    0  0.30328033717E+02 -0.60218907172E+01 -0.47304018411E+02  0.56513033495E+02  0.00000000000E+00 0. -1.
         11    1    1    2    0    0 -0.60474676605E+02 -0.10417273103E+01 -0.29669661372E+02  0.67368839326E+02  0.00000000000E+00 0.  1.
<mgrwt>
<rscale>  0 0.12466107E+03</rscale>
<asrwt>0</asrwt>
<pdfrwt beam="2">  1        1 0.53378724E-01 0.13550408E+03</pdfrwt>
<pdfrwt beam="1">  1       -1 0.64728611E-02 0.13550408E+03</pdfrwt>
<totfact> 0.82382469E+03</totfact>
</mgrwt>
</event>
<event>
 6    1  0.4705246E-006  0.1389536E+03  0.7546771E-02  0.1224629E+00
         -1   -1    0    0    0  501 -0.00000000000E+00  0.00000000000E+00  0.42736930658E+03  0.42736930658E+03  0.00000000000E+00 0.  1.
          1   -1    0    0  501    0  0.00000000000E+00 -0.00000000000E+00 -0.37104150924E+02  0.37104150924E+02  0.00000000000E+00 0. -1.
          5    1    1    2  502    0 -0.24783520528E+02  0.33538908146E+02  0.26788691011E+02  0.49787601021E+02  0.47000000000E+01 0. -1.
         -5    1    1    2    0  502  0.82731422144E+02 -0.15513592089E+02  0.18789433006E+03  0.20594059584E+03  0.47000000000E+01 0. -1.
        -11    1    1    2    0    0 -0.89434851858E+01  0.22759896607E+02  0.12497591689E+03  0.12734590148E+03  0.00000000000E+00 0.  1.
         11    1    1    2    0    0 -0.49004416430E+02 -0.40785212663E+02  0.50606217695E+02  0.81399359156E+02  0.00000000000E+00 0. -1.
<mgrwt>
<rscale>  0 0.13192346E+03</rscale>
<asrwt>0</asrwt>
<pdfrwt beam="2">  1        1 0.57083312E-02 0.13895363E+03</pdfrwt>
<pdfrwt beam="1">  1       -1 0.65749121E-01 0.13895363E+03</pdfrwt>
<totfact> 0.32417523E+03</totfact>
</mgrwt>
</event>
<event>
 6    1  0.4705246E-006  0.6436883E+03  0.7546771E-02  0.9818695E-01
         -1   -1    0    0    0  501 -0.00000000000E+00  0.00000000000E+00  0.45381123160E+02  0.45381123160E+02  0.00000000000E+00 0.  1.
          1   -1    0    0  501    0  0.00000000000E+00 -0.00000000000E+00 -0.22825276971E+04  0.22825276971E+04  0.00000000000E+00 0. -1.
          5    1    1    2  502    0 -0.22002323175E+02 -0.42653177859E+01 -0.22114060271E+03  0.22232307871E+03  0.47000000000E+01 0. -1.
         -5    1    1    2    0  502  0.15736373694E+03 -0.14305101781E+03 -0.17394680885E+04  0.17524263922E+04  0.47000000000E+01 0. -1.
        -11    1    1    2    0    0 -0.11949834149E+03  0.11031580156E+03 -0.15323569890E+03  0.22345158113E+03  0.00000000000E+00 0.  1.
         11    1    1    2    0    0 -0.15863072273E+02  0.37000534039E+02 -0.12330218384E+03  0.12970776816E+03  0.00000000000E+00 0. -1.
<mgrwt>
<rscale>  0 0.64368834E+03</rscale>
<asrwt>0</asrwt>
<pdfrwt beam="2">  1        1 0.35115808E+00 0.64368834E+03</pdfrwt>
<pdfrwt beam="1">  1       -1 0.69817119E-02 0.64368834E+03</pdfrwt>
<totfact> 0.22208069E+02</totfact>
</mgrwt>
</event>
<event>
 6    1  0.4705246E-006  0.1524369E+03  0.7546771E-02  0.1203198E+00
          1   -1    0    0  501    0  0.00000000000E+00  0.00000000000E+00  0.27547434783E+03  0.27547434783E+03  0.00000000000E+00 0. -1.
         -1   -1    0    0    0  501 -0.00000000000E+00 -0.00000000000E+00 -0.13146177251E+03  0.13146177251E+03  0.00000000000E+00 0.  1.
          5    1    1    2  502    0 -0.64889422437E+02  0.66178681474E+02  0.12958820989E+03  0.15939086915E+03  0.47000000000E+01 0. -1.
         -5    1    1    2    0  502 -0.33546192714E+02 -0.49027376677E+02  0.78334006799E+02  0.98424272061E+02  0.47000000000E+01 0.  1.
        -11    1    1    2    0    0  0.43564014727E+02 -0.29441975571E+02 -0.75208441397E+02  0.91765804972E+02  0.00000000000E+00 0.  1.
         11    1    1    2    0    0  0.54871600425E+02  0.12290670775E+02  0.11298800022E+02  0.57355174162E+02  0.00000000000E+00 0. -1.
<mgrwt>
<rscale>  0 0.14780358E+03</rscale>
<asrwt>0</asrwt>
<pdfrwt beam="1">  1        1 0.42380669E-01 0.15243687E+03</pdfrwt>
<pdfrwt beam="2">  1       -1 0.20224888E-01 0.15243687E+03</pdfrwt>
<totfact> 0.18991816E+03</totfact>
</mgrwt>
</event>
<event>
 6    1  0.4705246E-006  0.2930505E+03  0.7546771E-02  0.1088767E+00
         -2   -1    0    0    0  501 -0.00000000000E+00  0.00000000000E+00  0.27897255302E+03  0.27897255302E+03  0.00000000000E+00 0.  1.
          2   -1    0    0  501    0  0.00000000000E+00 -0.00000000000E+00 -0.76959694634E+02  0.76959694634E+02  0.00000000000E+00 0. -1.
          5    1    1    2  502    0  0.67406133473E+00  0.31409200416E+02 -0.26712277835E+02  0.41504554167E+02  0.47000000000E+01 0.  1.
         -5    1    1    2    0  502  0.86727633471E+02 -0.55741475817E+01  0.91357102427E+02  0.12617830120E+03  0.47000000000E+01 0.  1.
        -11    1    1    2    0    0 -0.34233566483E+02 -0.20491316563E+02  0.12790330201E+03  0.13398166215E+03  0.00000000000E+00 0.  1.
         11    1    1    2    0    0 -0.53168128322E+02 -0.53437362716E+01  0.94647317844E+01  0.54267730138E+02  0.00000000000E+00 0. -1.
<mgrwt>
<rscale>  0 0.29305046E+03</rscale>
<asrwt>0</asrwt>
<pdfrwt beam="2">  1        2 0.11839953E-01 0.29305046E+03</pdfrwt>
<pdfrwt beam="1">  1       -2 0.42918854E-01 0.29305046E+03</pdfrwt>
<totfact> 0.26969939E+03</totfact>
</mgrwt>
</event>
<event>
 6    1  0.4705246E-006  0.1754235E+03  0.7546771E-02  0.1178265E+00
          1   -1    0    0  501    0  0.00000000000E+00  0.00000000000E+00  0.51772684706E+03  0.51772684706E+03  0.00000000000E+00 0. -1.
         -1   -1    0    0    0  501 -0.00000000000E+00 -0.00000000000E+00 -0.52182143441E+02  0.52182143441E+02  0.00000000000E+00 0.  1.
          5    1    1    2  502    0  0.59526479380E+01 -0.86117552117E+02  0.60506705323E+02  0.10552164796E+03  0.47000000000E+01 0.  1.
         -5    1    1    2    0  502 -0.56473675484E+02 -0.26081555714E+02  0.19246596811E+03  0.20232341053E+03  0.47000000000E+01 0.  1.
        -11    1    1    2    0    0  0.62113840830E+02  0.29686882679E+02  0.11192010698E+03  0.13139844205E+03  0.00000000000E+00 0. -1.
         11    1    1    2    0    0 -0.11592813283E+02  0.82512225153E+02  0.10065192321E+03  0.13066548996E+03  0.00000000000E+00 0.  1.
<mgrwt>
<rscale>  0 0.16960072E+03</rscale>
<asrwt>0</asrwt>
<pdfrwt beam="1">  1        1 0.79650280E-01 0.17542351E+03</pdfrwt>
<pdfrwt beam="2">  1       -1 0.80280224E-02 0.17542351E+03</pdfrwt>
<totfact> 0.36200646E+03</totfact>
</mgrwt>
</event>
<event>
 6    1  0.4705246E-006  0.1667501E+03  0.7546771E-02  0.1198773E+00
         -1   -1    0    0    0  501 -0.00000000000E+00  0.00000000000E+00  0.76629914093E+03  0.76629914093E+03  0.00000000000E+00 0.  1.
          1   -1    0    0  501    0  0.00000000000E+00 -0.00000000000E+00 -0.25586133788E+02  0.25586133788E+02  0.00000000000E+00 0. -1.
          5    1    1    2  502    0  0.50527784258E+02 -0.13646055717E+02  0.89981760775E+02  0.10420210694E+03  0.47000000000E+01 0. -1.
         -5    1    1    2    0  502 -0.10467738378E+03 -0.26673025440E+02  0.34988453472E+03  0.36621043486E+03  0.47000000000E+01 0.  1.
        -11    1    1    2    0    0 -0.15964900737E+02  0.16805610503E+02  0.18662139974E+02  0.29758730959E+02  0.00000000000E+00 0. -1.
         11    1    1    2    0    0  0.70114500263E+02  0.23513470653E+02  0.28218457168E+03  0.29171400196E+03  0.00000000000E+00 0.  1.
<mgrwt>
<rscale>  0 0.15139210E+03</rscale>
<asrwt>0</asrwt>
<pdfrwt beam="2">  1        1 0.39363289E-02 0.16675012E+03</pdfrwt>
<pdfrwt beam="1">  1       -1 0.11789216E+00 0.16675012E+03</pdfrwt>
<totfact> 0.15769627E+03</totfact>
</mgrwt>
</event>
<event>
 6    1  0.4705246E-006  0.1433314E+03  0.7546771E-02  0.1219176E+00
          1   -1    0    0  501    0  0.00000000000E+00  0.00000000000E+00  0.39748993900E+02  0.39748993900E+02  0.00000000000E+00 0. -1.
         -1   -1    0    0    0  501 -0.00000000000E+00 -0.00000000000E+00 -0.43923117868E+03  0.43923117868E+03  0.00000000000E+00 0.  1.
          5    1    1    2  502    0 -0.22976464070E+02  0.54129692421E+02 -0.18277360540E+03  0.19205786195E+03  0.47000000000E+01 0. -1.
         -5    1    1    2    0  502 -0.28364754989E+02 -0.63400342395E+01  0.11206038667E+02  0.31502708810E+02  0.47000000000E+01 0. -1.
        -11    1    1    2    0    0  0.51737748414E+02 -0.79219339945E+00 -0.52090949185E+02  0.73422674756E+02  0.00000000000E+00 0.  1.
         11    1    1    2    0    0 -0.39652935455E+00 -0.46997464782E+02 -0.17582366886E+03  0.18199692707E+03  0.00000000000E+00 0. -1.
<mgrwt>
<rscale>  0 0.13574175E+03</rscale>
<asrwt>0</asrwt>
<pdfrwt beam="1">  1        1 0.61152301E-02 0.14333143E+03</pdfrwt>
<pdfrwt beam="2">  1       -1 0.67574024E-01 0.14333143E+03</pdfrwt>
<totfact> 0.28031727E+03</totfact>
</mgrwt>
</event>
<event>
 6    1  0.4705246E-006  0.4017202E+03  0.7546771E-02  0.1043186E+00
         -3   -1    0    0    0  501 -0.00000000000E+00  0.00000000000E+00  0.70229039053E+03  0.70229039053E+03  0.00000000000E+00 0.  1.
          3   -1    0    0  501    0  0.00000000000E+00 -0.00000000000E+00 -0.57447439671E+02  0.57447439671E+02  0.00000000000E+00 0. -1.
          5    1    1    2  502    0  0.88251903847E+01  0.39458296546E+01  0.70207301475E+02  0.71025409097E+02  0.47000000000E+01 0. -1.
         -5    1    1    2    0  502 -0.46005454445E+02 -0.91741999679E+02  0.39865331117E+01  0.10281575166E+03  0.47000000000E+01 0. -1.
        -11    1    1    2    0    0 -0.22073027066E+02  0.64209608388E+02  0.25612391982E+03  0.26497085621E+03  0.00000000000E+00 0. -1.
         11    1    1    2    0    0  0.59253291127E+02  0.23586561636E+02  0.31452519645E+03  0.32092581324E+03  0.00000000000E+00 0.  1.
<mgrwt>
<rscale>  0 0.40172023E+03</rscale>
<asrwt>0</asrwt>
<pdfrwt beam="2">  1        3 0.88380682E-02 0.40172023E+03</pdfrwt>
<pdfrwt beam="1">  1       -3 0.10804467E+00 0.40172023E+03</pdfrwt>
<totfact> 0.17764684E+02</totfact>
</mgrwt>
</event>
<event>
 6    1  0.4705246E-006  0.1313757E+03  0.7546771E-02  0.1239310E+00
          1   -1    0    0  501    0  0.00000000000E+00  0.00000000000E+00  0.60043795808E+02  0.60043795808E+02  0.00000000000E+00 0. -1.
         -1   -1    0    0    0  501 -0.00000000000E+00 -0.00000000000E+00 -0.22682321038E+03  0.22682321038E+03  0.00000000000E+00 0.  1.
          5    1    1    2  502    0 -0.30072820691E+02 -0.10581809558E+02 -0.83679235747E+02  0.89669692388E+02  0.47000000000E+01 0. -1.
         -5    1    1    2    0  502  0.53843186936E+02 -0.22136304143E+02  0.12531012071E+02  0.59734588004E+02  0.47000000000E+01 0. -1.
        -11    1    1    2    0    0 -0.58086281694E+02  0.22218418223E+02 -0.52770559075E+02  0.81562283775E+02  0.00000000000E+00 0.  1.
         11    1    1    2    0    0  0.34315915450E+02  0.10499695478E+02 -0.42860631825E+02  0.55900442026E+02  0.00000000000E+00 0. -1.
<mgrwt>
<rscale>  0 0.12232510E+03</rscale>
<asrwt>0</asrwt>
<pdfrwt beam="1">  1        1 0.92375070E-02 0.13137568E+03</pdfrwt>
<pdfrwt beam="2">  1       -1 0.34895879E-01 0.13137568E+03</pdfrwt>
<totfact> 0.53386497E+03</totfact>
</mgrwt>
</event>
<event>
 6    1  0.4705246E-006  0.2332713E+03  0.7546771E-02  0.1127146E+00
         -1   -1    0    0    0  501 -0.00000000000E+00  0.00000000000E+00  0.39539982886E+02  0.39539982886E+02  0.00000000000E+00 0.  1.
          1   -1    0    0  501    0  0.00000000000E+00 -0.00000000000E+00 -0.13277661008E+04  0.13277661008E+04  0.00000000000E+00 0. -1.
          5    1    1    2  502    0  0.12384367546E+02  0.52813891530E+02 -0.15445248393E+03  0.16376916526E+03  0.47000000000E+01 0.  1.
         -5    1    1    2    0  502 -0.15995268175E+03  0.77618447976E+02 -0.63237268259E+03  0.65690698242E+03  0.47000000000E+01 0.  1.
        -11    1    1    2    0    0  0.14471755678E+03 -0.82251647156E+02 -0.42286784230E+03  0.45445100588E+03  0.00000000000E+00 0.  1.
         11    1    1    2    0    0  0.28507574288E+01 -0.48180692350E+02 -0.78533109066E+02  0.92178930091E+02  0.00000000000E+00 0. -1.
<mgrwt>
<rscale>  0 0.22928194E+03</rscale>
<asrwt>0</asrwt>
<pdfrwt beam="2">  1        1 0.20427169E+00 0.23327129E+03</pdfrwt>
<pdfrwt beam="1">  1       -1 0.60830748E-02 0.23327129E+03</pdfrwt>
<totfact> 0.12248860E+03</totfact>
</mgrwt>
</event>
<event>
 6    1  0.4705246E-006  0.1366885E+03  0.7546771E-02  0.1232532E+00
          1   -1    0    0  501    0  0.00000000000E+00  0.00000000000E+00  0.85932002838E+03  0.85932002838E+03  0.00000000000E+00 0. -1.
         -1   -1    0    0    0  501 -0.00000000000E+00 -0.00000000000E+00 -0.21435396786E+02  0.21435396786E+02  0.00000000000E+00 0.  1.
          5    1    1    2  502    0  0.90191051459E+01 -0.61471804909E+01  0.61396558973E+03  0.61408058710E+03  0.47000000000E+01 0. -1.
         -5    1    1    2    0  502  0.20712184542E+02  0.38627027936E+02  0.65197841010E+02  0.78701272849E+02  0.47000000000E+01 0.  1.
        -11    1    1    2    0    0 -0.54923249491E+02 -0.34949840431E+02  0.69484980295E+02  0.95216685341E+02  0.00000000000E+00 0.  1.
         11    1    1    2    0    0  0.25191959804E+02  0.24699929859E+01  0.89236220560E+02  0.92756879874E+02  0.00000000000E+00 0. -1.
<mgrwt>
<rscale>  0 0.12663754E+03</rscale>
<asrwt>0</asrwt>
<pdfrwt beam="1">  1        1 0.13220305E+00 0.13668848E+03</pdfrwt>
<pdfrwt beam="2">  1       -1 0.32977540E-02 0.13668848E+03</pdfrwt>
<totfact> 0.65392430E+03</totfact>
</mgrwt>
</event>
<event>
 6    1  0.4705246E-006  0.1303630E+03  0.7546771E-02  0.1240828E+00
          2   -1    0    0  501    0  0.00000000000E+00  0.00000000000E+00  0.58927766641E+03  0.58927766641E+03  0.00000000000E+00 0. -1.
         -2   -1    0    0    0  501 -0.00000000000E+00 -0.00000000000E+00 -0.22224655698E+02  0.22224655698E+02  0.00000000000E+00 0.  1.
          5    1    1    2  502    0 -0.48880026901E+02 -0.32815531458E+02  0.27688324048E+03  0.28311223039E+03  0.47000000000E+01 0.  1.
         -5    1    1    2    0  502  0.15642374536E+02  0.49105443603E+02  0.67050691155E+02  0.84698959008E+02  0.47000000000E+01 0.  1.
        -11    1    1    2    0    0  0.12048165480E+01  0.26620643401E+02  0.15383371577E+03  0.15612470127E+03  0.00000000000E+00 0.  1.
         11    1    1    2    0    0  0.32032835816E+02 -0.42910555546E+02  0.69285363300E+02  0.87566431441E+02  0.00000000000E+00 0. -1.
<mgrwt>
<rscale>  0 0.12138586E+03</rscale>
<asrwt>0</asrwt>
<pdfrwt beam="1">  1        2 0.90658091E-01 0.13036304E+03</pdfrwt>
<pdfrwt beam="2">  1       -2 0.34191782E-02 0.13036304E+03</pdfrwt>
<totfact> 0.16918385E+04</totfact>
</mgrwt>
</event>
<event>
 6    1  0.4705246E-006  0.1301394E+03  0.7546771E-02  0.1240520E+00
          2   -1    0    0  501    0  0.00000000000E+00  0.00000000000E+00  0.57628430685E+03  0.57628430685E+03  0.00000000000E+00 0. -1.
         -2   -1    0    0    0  501 -0.00000000000E+00 -0.00000000000E+00 -0.27515526514E+02  0.27515526514E+02  0.00000000000E+00 0.  1.
          5    1    1    2  502    0 -0.27361716251E+01  0.74011444789E+02  0.26515267308E+03  0.27534198851E+03  0.47000000000E+01 0.  1.
         -5    1    1    2    0  502  0.27685548821E+02 -0.47772126980E+02  0.16400990670E+03  0.17311847164E+03  0.47000000000E+01 0.  1.
        -11    1    1    2    0    0 -0.56265233107E+02 -0.65183290499E+01  0.46054468055E+02  0.73001911606E+02  0.00000000000E+00 0.  1.
         11    1    1    2    0    0  0.31315855912E+02 -0.19720988759E+02  0.73551732508E+02  0.82337461608E+02  0.00000000000E+00 0. -1.
<mgrwt>
<rscale>  0 0.12157559E+03</rscale>
<asrwt>0</asrwt>
<pdfrwt beam="1">  1        2 0.88659115E-01 0.13013940E+03</pdfrwt>
<pdfrwt beam="2">  1       -2 0.42331584E-02 0.13013940E+03</pdfrwt>
<totfact> 0.12642609E+04</totfact>
</mgrwt>
</event>
<event>
 6    1  0.4705246E-006  0.2551190E+03  0.7546771E-02  0.1149068E+00
          2   -1    0    0  501    0  0.00000000000E+00  0.00000000000E+00  0.45101296745E+03  0.45101296745E+03  0.00000000000E+00 0. -1.
         -2   -1    0    0    0  501 -0.00000000000E+00 -0.00000000000E+00 -0.72880110904E+02  0.72880110904E+02  0.00000000000E+00 0.  1.
          5    1    1    2  502    0 -0.23266237715E+02 -0.97403211854E+02  0.32616771128E+03  0.34122744523E+03  0.47000000000E+01 0. -1.
         -5    1    1    2    0  502 -0.35771919892E+01  0.69856227860E+02 -0.34030880215E+01  0.70188032323E+02  0.47000000000E+01 0.  1.
        -11    1    1    2    0    0  0.21261147027E+02  0.49406998032E+02  0.12024078568E+01  0.53800869994E+02  0.00000000000E+00 0.  1.
         11    1    1    2    0    0  0.55822826772E+01 -0.21860014038E+02  0.54165825438E+02  0.58676730814E+02  0.00000000000E+00 0. -1.
<mgrwt>
<rscale>  0 0.20079797E+03</rscale>
<asrwt>0</asrwt>
<pdfrwt beam="1">  1        2 0.69386609E-01 0.25511898E+03</pdfrwt>
<pdfrwt beam="2">  1       -2 0.11212325E-01 0.25511898E+03</pdfrwt>
<totfact> 0.38317089E+03</totfact>
</mgrwt>
</event>
<event>
 6    1  0.4705246E-006  0.1393039E+03  0.7546771E-02  0.1220423E+00
          2   -1    0    0  501    0  0.00000000000E+00  0.00000000000E+00  0.15019503498E+04  0.15019503498E+04  0.00000000000E+00 0. -1.
         -2   -1    0    0    0  501 -0.00000000000E+00 -0.00000000000E+00 -0.35908793559E+02  0.35908793559E+02  0.00000000000E+00 0.  1.
          5    1    1    2  502    0  0.97459570255E+02 -0.20363174522E+02  0.12556369281E+04  0.12595869211E+04  0.47000000000E+01 0. -1.
         -5    1    1    2    0  502 -0.16333156620E+02  0.22288742795E+02  0.12735071577E+03  0.13039883001E+03  0.47000000000E+01 0.  1.
        -11    1    1    2    0    0 -0.10052749608E+03  0.72521430965E+01  0.66212307021E+02  0.12059204223E+03  0.00000000000E+00 0.  1.
         11    1    1    2    0    0  0.19401082448E+02 -0.91777113700E+01  0.16841605374E+02  0.27281349998E+02  0.00000000000E+00 0. -1.
<mgrwt>
<rscale>  0 0.13485590E+03</rscale>
<asrwt>0</asrwt>
<pdfrwt beam="1">  1        2 0.23106924E+00 0.13930386E+03</pdfrwt>
<pdfrwt beam="2">  1       -2 0.55244309E-02 0.13930386E+03</pdfrwt>
<totfact> 0.22873322E+03</totfact>
</mgrwt>
</event>
<event>
 6    1  0.4705246E-006  0.1180942E+03  0.7546771E-02  0.1258379E+00
         -1   -1    0    0    0  501 -0.00000000000E+00  0.00000000000E+00  0.33022290638E+02  0.33022290638E+02  0.00000000000E+00 0.  1.
          1   -1    0    0  501    0  0.00000000000E+00 -0.00000000000E+00 -0.13199065119E+04  0.13199065119E+04  0.00000000000E+00 0. -1.
          5    1    1    2  502    0  0.21822949801E+02 -0.35707264011E+02 -0.91937757785E+03  0.92034149667E+03  0.47000000000E+01 0. -1.
         -5    1    1    2    0  502 -0.44916909711E+02  0.31605733341E+02 -0.32649867476E+03  0.33111920177E+03  0.47000000000E+01 0.  1.
        -11    1    1    2    0    0  0.49028590140E+01  0.30808765763E+02  0.16658109020E+02  0.35365388029E+02  0.00000000000E+00 0.  1.
         11    1    1    2    0    0  0.18191100897E+02 -0.26707235093E+02 -0.57666077684E+02  0.66102716083E+02  0.00000000000E+00 0. -1.
<mgrwt>
<rscale>  0 0.11119182E+03</rscale>
<asrwt>0</asrwt>
<pdfrwt beam="2">  1        1 0.20306254E+00 0.11809421E+03</pdfrwt>
<pdfrwt beam="1">  1       -1 0.50803524E-02 0.11809421E+03</pdfrwt>
<totfact> 0.16245946E+03</totfact>
</mgrwt>
</event>
<event>
 6    1  0.4705246E-006  0.3771409E+03  0.7546771E-02  0.1052966E+00
          1   -1    0    0  501    0  0.00000000000E+00  0.00000000000E+00  0.19100393459E+04  0.19100393459E+04  0.00000000000E+00 0. -1.
         -1   -1    0    0    0  501 -0.00000000000E+00 -0.00000000000E+00 -0.77568332970E+02  0.77568332970E+02  0.00000000000E+00 0.  1.
          5    1    1    2  502    0 -0.10686078438E+03 -0.13651006344E+03  0.37362363161E+03  0.41191131662E+03  0.47000000000E+01 0.  1.
         -5    1    1    2    0  502 -0.10244515946E+03 -0.15124006415E+03  0.80951556943E+03  0.82988319349E+03  0.47000000000E+01 0.  1.
        -11    1    1    2    0    0  0.15661502268E+03  0.24726987216E+03  0.58065424791E+03  0.65025380477E+03  0.00000000000E+00 0.  1.
         11    1    1    2    0    0  0.52690921161E+02  0.40480255432E+02  0.68677564022E+02  0.95559364024E+02  0.00000000000E+00 0. -1.
<mgrwt>
<rscale>  0 0.37455064E+03</rscale>
<asrwt>0</asrwt>
<pdfrwt beam="1">  1        1 0.29385217E+00 0.37714087E+03</pdfrwt>
<pdfrwt beam="2">  1       -1 0.11933591E-01 0.37714087E+03</pdfrwt>
<totfact> 0.17527682E+02</totfact>
</mgrwt>
</event>
<event>
 6    1  0.4705246E-006  0.1776306E+03  0.7546771E-02  0.1176008E+00
          2   -1    0    0  501    0  0.00000000000E+00  0.00000000000E+00  0.60388824423E+03  0.60388824423E+03  0.00000000000E+00 0.  1.
         -2   -1    0    0    0  501 -0.00000000000E+00 -0.00000000000E+00 -0.58561307481E+02  0.58561307481E+02  0.00000000000E+00 0. -1.
          5    1    1    2  502    0 -0.39365616018E+02  0.37864194406E+02  0.13855681154E+03  0.14900815067E+03  0.47000000000E+01 0. -1.
         -5    1    1    2    0  502  0.97937832138E+02  0.73926969432E+02  0.30215265678E+03  0.32615231683E+03  0.47000000000E+01 0. -1.
        -11    1    1    2    0    0 -0.77664970931E+02 -0.72713070277E+02  0.95249334998E+02  0.14279871889E+03  0.00000000000E+00 0.  1.
         11    1    1    2    0    0  0.19092754811E+02 -0.39078093561E+02  0.93681334318E+01  0.44490365323E+02  0.00000000000E+00 0. -1.
<mgrwt>
<rscale>  0 0.17177636E+03</rscale>
<asrwt>0</asrwt>
<pdfrwt beam="1">  1        2 0.92905879E-01 0.17763061E+03</pdfrwt>
<pdfrwt beam="2">  1       -2 0.90094324E-02 0.17763061E+03</pdfrwt>
<totfact> 0.38544082E+03</totfact>
</mgrwt>
</event>
<event>
 6    1  0.4705246E-006  0.1859197E+03  0.7546771E-02  0.1167237E+00
         -1   -1    0    0    0  501 -0.00000000000E+00  0.00000000000E+00  0.11243533134E+03  0.11243533134E+03  0.00000000000E+00 0.  1.
          1   -1    0    0  501    0  0.00000000000E+00 -0.00000000000E+00 -0.30213838407E+03  0.30213838407E+03  0.00000000000E+00 0. -1.
          5    1    1    2  502    0  0.52138745901E+02  0.68592780743E+02 -0.17183544019E+03  0.19228345457E+03  0.47000000000E+01 0. -1.
         -5    1    1    2    0  502  0.15588516649E+02  0.51214931636E+02  0.94521630598E+01  0.54565597773E+02  0.47000000000E+01 0. -1.
        -11    1    1    2    0    0  0.11774371351E+02 -0.40938134958E+02  0.18865542311E+02  0.46588361221E+02  0.00000000000E+00 0.  1.
         11    1    1    2    0    0 -0.79501633900E+02 -0.78869577421E+02 -0.46185317907E+02  0.12113630185E+03  0.00000000000E+00 0. -1.
<mgrwt>
<rscale>  0 0.18058576E+03</rscale>
<asrwt>0</asrwt>
<pdfrwt beam="2">  1        1 0.46482828E-01 0.18591968E+03</pdfrwt>
<pdfrwt beam="1">  1       -1 0.17297743E-01 0.18591968E+03</pdfrwt>
<totfact> 0.21888301E+03</totfact>
</mgrwt>
</event>
<event>
 6    1  0.4705246E-006  0.1276711E+03  0.7546771E-02  0.1245524E+00
          3   -1    0    0  501    0  0.00000000000E+00  0.00000000000E+00  0.86910556400E+02  0.86910556400E+02  0.00000000000E+00 0. -1.
         -3   -1    0    0    0  501 -0.00000000000E+00 -0.00000000000E+00 -0.16024770265E+03  0.16024770265E+03  0.00000000000E+00 0.  1.
          5    1    1    2  502    0 -0.56443523247E+02 -0.28394258869E+02  0.12735871615E+02  0.64625054577E+02  0.47000000000E+01 0.  1.
         -5    1    1    2    0  502  0.61349853242E+02  0.28658884503E+01 -0.13451812509E+02  0.63048069512E+02  0.47000000000E+01 0.  1.
        -11    1    1    2    0    0  0.32454324966E+02 -0.15572747133E+02 -0.44473867760E+02  0.57216418761E+02  0.00000000000E+00 0. -1.
         11    1    1    2    0    0 -0.37360654961E+02  0.41101117552E+02 -0.28147337592E+02  0.62268716195E+02  0.00000000000E+00 0.  1.
<mgrwt>
<rscale>  0 0.11854058E+03</rscale>
<asrwt>0</asrwt>
<pdfrwt beam="1">  1        3 0.13370855E-01 0.12767112E+03</pdfrwt>
<pdfrwt beam="2">  1       -3 0.24653492E-01 0.12767112E+03</pdfrwt>
<totfact> 0.15836032E+03</totfact>
</mgrwt>
</event>
<event>
 6    1  0.4705246E-006  0.4472599E+03  0.7546771E-02  0.1028542E+00
          2   -1    0    0  501    0  0.00000000000E+00  0.00000000000E+00  0.60034545739E+02  0.60034545739E+02  0.00000000000E+00 0. -1.
         -2   -1    0    0    0  501 -0.00000000000E+00 -0.00000000000E+00 -0.83302645100E+03  0.83302645100E+03  0.00000000000E+00 0.  1.
          5    1    1    2  502    0 -0.20405016899E+02  0.26455652140E+02 -0.24246474292E+02  0.41548137869E+02  0.47000000000E+01 0.  1.
         -5    1    1    2    0  502 -0.89426157695E+02 -0.14423451568E+03 -0.15631440233E+03  0.23077459905E+03  0.47000000000E+01 0.  1.
        -11    1    1    2    0    0  0.88547505018E+02  0.52617272521E+02 -0.23186150857E+03  0.25371045932E+03  0.00000000000E+00 0.  1.
         11    1    1    2    0    0  0.21283669575E+02  0.65161591014E+02 -0.36056952007E+03  0.36702780050E+03  0.00000000000E+00 0. -1.
<mgrwt>
<rscale>  0 0.44725994E+03</rscale>
<asrwt>0</asrwt>
<pdfrwt beam="1">  1        2 0.92360843E-02 0.44725994E+03</pdfrwt>
<pdfrwt beam="2">  1       -2 0.12815791E+00 0.44725994E+03</pdfrwt>
<totfact> 0.33557567E+02</totfact>
</mgrwt>
</event>
<event>
 6    1  0.4705246E-006  0.1531718E+03  0.7546771E-02  0.1209114E+00
          2   -1    0    0  501    0  0.00000000000E+00  0.00000000000E+00  0.91484372201E+03  0.91484372201E+03  0.00000000000E+00 0. -1.
         -2   -1    0    0    0  501 -0.00000000000E+00 -0.00000000000E+00 -0.20367830143E+02  0.20367830143E+02  0.00000000000E+00 0.  1.
          5    1    1    2  502    0 -0.16221790638E+02  0.48248399512E+02  0.53483360104E+03  0.53727099805E+03  0.47000000000E+01 0. -1.
         -5    1    1    2    0  502 -0.40202305126E+02 -0.55873747693E+01  0.38393446092E+02  0.56067734010E+02  0.47000000000E+01 0.  1.
        -11    1    1    2    0    0 -0.10422056186E+02 -0.48579540431E+02  0.14536162800E+03  0.15361833842E+03  0.00000000000E+00 0.  1.
         11    1    1    2    0    0  0.66846151950E+02  0.59185156882E+01  0.17588721674E+03  0.18825448167E+03  0.00000000000E+00 0. -1.
<mgrwt>
<rscale>  0 0.14317917E+03</rscale>
<asrwt>0</asrwt>
<pdfrwt beam="1">  1        2 0.14074516E+00 0.15317181E+03</pdfrwt>
<pdfrwt beam="2">  1       -2 0.31335130E-02 0.15317181E+03</pdfrwt>
<totfact> 0.11407456E+04</totfact>
</mgrwt>
</event>
<event>
 6    1  0.4705246E-006  0.4241765E+03  0.7546771E-02  0.1035716E+00
         -1   -1    0    0    0  501 -0.00000000000E+00  0.00000000000E+00  0.14290261114E+03  0.14290261114E+03  0.00000000000E+00 0.  1.
          1   -1    0    0  501    0  0.00000000000E+00 -0.00000000000E+00 -0.31476978569E+03  0.31476978569E+03  0.00000000000E+00 0. -1.
          5    1    1    2  502    0  0.12541977959E+03 -0.10930912570E+03 -0.14830571798E+03  0.22292438642E+03  0.47000000000E+01 0.  1.
         -5    1    1    2    0  502 -0.26650134263E+02 -0.29971431274E+02 -0.10712098720E+02  0.41777450949E+02  0.47000000000E+01 0.  1.
        -11    1    1    2    0    0 -0.39793366981E+02  0.90478084651E+02 -0.46641061718E+02  0.10929402772E+03  0.00000000000E+00 0. -1.
         11    1    1    2    0    0 -0.58976278345E+02  0.48802472323E+02  0.33791703872E+02  0.83676531733E+02  0.00000000000E+00 0.  1.
<mgrwt>
<rscale>  0 0.42417649E+03</rscale>
<asrwt>0</asrwt>
<pdfrwt beam="2">  1        1 0.48426120E-01 0.42417649E+03</pdfrwt>
<pdfrwt beam="1">  1       -1 0.21985017E-01 0.42417649E+03</pdfrwt>
<totfact> 0.14287324E+03</totfact>
</mgrwt>
</event>
<event>
 6    1  0.4705246E-006  0.3927691E+03  0.7546771E-02  0.1098491E+00
         -2   -1    0    0    0  501 -0.00000000000E+00  0.00000000000E+00  0.65084395846E+03  0.65084395846E+03  0.00000000000E+00 0.  1.
          2   -1    0    0  501    0  0.00000000000E+00 -0.00000000000E+00 -0.91127264706E+02  0.91127264706E+02  0.00000000000E+00 0. -1.
          5    1    1    2  502    0 -0.84763848295E+02 -0.43221854469E+02 -0.31841997317E+02  0.10044422071E+03  0.47000000000E+01 0. -1.
         -5    1    1    2    0  502  0.96741515642E+02  0.67914504451E+02  0.48509751425E+03  0.49931251646E+03  0.47000000000E+01 0.  1.
        -11    1    1    2    0    0  0.34304239071E+02 -0.18462704353E+01  0.73065826819E+02  0.80739114322E+02  0.00000000000E+00 0. -1.
         11    1    1    2    0    0 -0.46281906417E+02 -0.22846379548E+02  0.33395349999E+02  0.61475371667E+02  0.00000000000E+00 0.  1.
<mgrwt>
<rscale>  0 0.27492972E+03</rscale>
<asrwt>0</asrwt>
<pdfrwt beam="2">  1        2 0.14019580E-01 0.39276912E+03</pdfrwt>
<pdfrwt beam="1">  1       -2 0.10012984E+00 0.39276912E+03</pdfrwt>
<totfact> 0.36260159E+02</totfact>
</mgrwt>
</event>
<event>
 6    1  0.4705246E-006  0.1388677E+03  0.7546771E-02  0.1226150E+00
          2   -1    0    0  501    0  0.00000000000E+00  0.00000000000E+00  0.11907865325E+03  0.11907865325E+03  0.00000000000E+00 0. -1.
         -2   -1    0    0    0  501 -0.00000000000E+00 -0.00000000000E+00 -0.13461230704E+03  0.13461230704E+03  0.00000000000E+00 0.  1.
          5    1    1    2  502    0 -0.64745422961E+02 -0.53598511222E+02 -0.14499691327E+02  0.85423072107E+02  0.47000000000E+01 0. -1.
         -5    1    1    2    0  502  0.44792215085E+02 -0.35117305050E+01  0.30176510316E+02  0.54326665259E+02  0.47000000000E+01 0. -1.
        -11    1    1    2    0    0  0.39832284365E+02  0.41890566848E+02 -0.54720001866E+02  0.79597167493E+02  0.00000000000E+00 0.  1.
         11    1    1    2    0    0 -0.19879076489E+02  0.15219674878E+02  0.23509529087E+02  0.34344055430E+02  0.00000000000E+00 0. -1.
<mgrwt>
<rscale>  0 0.13088412E+03</rscale>
<asrwt>0</asrwt>
<pdfrwt beam="1">  1        2 0.18319793E-01 0.13886766E+03</pdfrwt>
<pdfrwt beam="2">  1       -2 0.20709586E-01 0.13886766E+03</pdfrwt>
<totfact> 0.57950015E+03</totfact>
</mgrwt>
</event>
<event>
 6    1  0.4705246E-006  0.1323565E+03  0.7546771E-02  0.1238282E+00
         -1   -1    0    0    0  501 -0.00000000000E+00  0.00000000000E+00  0.52064595967E+03  0.52064595967E+03  0.00000000000E+00 0.  1.
          1   -1    0    0  501    0  0.00000000000E+00 -0.00000000000E+00 -0.75371870829E+02  0.75371870829E+02  0.00000000000E+00 0. -1.
          5    1    1    2  502    0 -0.14679106054E+01 -0.22140794875E+02 -0.63711327367E+02  0.67628343127E+02  0.47000000000E+01 0. -1.
         -5    1    1    2    0  502 -0.31741798554E+02 -0.59216228699E+01  0.56151619435E+02  0.64943835412E+02  0.47000000000E+01 0. -1.
        -11    1    1    2    0    0  0.30651787656E+02 -0.27254937727E+02  0.14587425993E+03  0.15153106423E+03  0.00000000000E+00 0. -1.
         11    1    1    2    0    0  0.25579215036E+01  0.55317355472E+02  0.30695953685E+03  0.31191458773E+03  0.00000000000E+00 0.  1.
<mgrwt>
<rscale>  0 0.12296635E+03</rscale>
<asrwt>0</asrwt>
<pdfrwt beam="2">  1        1 0.11595673E-01 0.13235646E+03</pdfrwt>
<pdfrwt beam="1">  1       -1 0.80099376E-01 0.13235646E+03</pdfrwt>
<totfact> 0.84522316E+02</totfact>
</mgrwt>
</event>
<event>
 6    1  0.4705246E-006  0.2795951E+03  0.7546771E-02  0.1095910E+00
          1   -1    0    0  501    0  0.00000000000E+00  0.00000000000E+00  0.81250518619E+03  0.81250518619E+03  0.00000000000E+00 0. -1.
         -1   -1    0    0    0  501 -0.00000000000E+00 -0.00000000000E+00 -0.24053199480E+02  0.24053199480E+02  0.00000000000E+00 0.  1.
          5    1    1    2  502    0  0.29630823725E+02 -0.13359004361E+02  0.38189296913E+03  0.38330246357E+03  0.47000000000E+01 0. -1.
         -5    1    1    2    0  502 -0.76619932404E+02 -0.27770879523E+02  0.22169801356E+03  0.23624973017E+03  0.47000000000E+01 0. -1.
        -11    1    1    2    0    0  0.11939237116E+02  0.37483343388E+02  0.12792881328E+02  0.41366704330E+02  0.00000000000E+00 0.  1.
         11    1    1    2    0    0  0.35049871563E+02  0.36465404961E+01  0.17206812269E+03  0.17563948759E+03  0.00000000000E+00 0. -1.
<mgrwt>
<rscale>  0 0.27959506E+03</rscale>
<asrwt>0</asrwt>
<pdfrwt beam="1">  1        1 0.12500078E+00 0.27959506E+03</pdfrwt>
<pdfrwt beam="2">  1       -1 0.37004929E-02 0.27959506E+03</pdfrwt>
<totfact> 0.62045208E+03</totfact>
</mgrwt>
</event>
<event>
 6    1  0.4705246E-006  0.2380491E+03  0.7546771E-02  0.1124322E+00
          2   -1    0    0  501    0  0.00000000000E+00  0.00000000000E+00  0.18269703341E+04  0.18269703341E+04  0.00000000000E+00 0. -1.
         -2   -1    0    0    0  501 -0.00000000000E+00 -0.00000000000E+00 -0.34305204583E+02  0.34305204583E+02  0.00000000000E+00 0.  1.
          5    1    1    2  502    0 -0.87476779848E+02 -0.17200070843E+03  0.94321992107E+03  0.96276806149E+03  0.47000000000E+01 0. -1.
         -5    1    1    2    0  502 -0.36078279248E+02  0.11451311527E+02  0.35997790730E+03  0.36199303655E+03  0.47000000000E+01 0. -1.
        -11    1    1    2    0    0  0.62797056145E+02  0.41549181797E+02  0.26302709941E+03  0.27359287234E+03  0.00000000000E+00 0.  1.
         11    1    1    2    0    0  0.60758002950E+02  0.11900021511E+03  0.22644020170E+03  0.26292156828E+03  0.00000000000E+00 0. -1.
<mgrwt>
<rscale>  0 0.23332381E+03</rscale>
<asrwt>0</asrwt>
<pdfrwt beam="1">  1        2 0.28107228E+00 0.23804913E+03</pdfrwt>
<pdfrwt beam="2">  1       -2 0.52777252E-02 0.23804913E+03</pdfrwt>
<totfact> 0.16548479E+03</totfact>
</mgrwt>
</event>
<event>
 6    1  0.4705246E-006  0.1303397E+03  0.7546771E-02  0.1239775E+00
         -1   -1    0    0    0  501 -0.00000000000E+00  0.00000000000E+00  0.52993182515E+02  0.52993182515E+02  0.00000000000E+00 0.  1.
          1   -1    0    0  501    0  0.00000000000E+00 -0.00000000000E+00 -0.26137319160E+03  0.26137319160E+03  0.00000000000E+00 0. -1.
          5    1    1    2  502    0 -0.26941918549E+02 -0.66783912479E+02 -0.13802764713E+03  0.15575519032E+03  0.47000000000E+01 0. -1.
         -5    1    1    2    0  502  0.54845469520E+00  0.40393434594E+02 -0.10801737523E+02  0.42079661291E+02  0.47000000000E+01 0. -1.
        -11    1    1    2    0    0  0.12570521287E+02  0.28465444487E+02 -0.83328748500E+02  0.88949310632E+02  0.00000000000E+00 0. -1.
         11    1    1    2    0    0  0.13822942567E+02 -0.20749666023E+01  0.23778124064E+02  0.27582211870E+02  0.00000000000E+00 0.  1.
<mgrwt>
<rscale>  0 0.12203606E+03</rscale>
<asrwt>0</asrwt>
<pdfrwt beam="2">  1        1 0.40211260E-01 0.13033972E+03</pdfrwt>
<pdfrwt beam="1">  1       -1 0.81527975E-02 0.13033972E+03</pdfrwt>
<totfact> 0.82515192E+03</totfact>
</mgrwt>
</event>
<event>
 6    1  0.4705246E-006  0.1795970E+03  0.7546771E-02  0.1173795E+00
          2   -1    0    0  501    0  0.00000000000E+00  0.00000000000E+00  0.41487805023E+03  0.41487805023E+03  0.00000000000E+00 0. -1.
         -2   -1    0    0    0  501 -0.00000000000E+00 -0.00000000000E+00 -0.69940100524E+02  0.69940100524E+02  0.00000000000E+00 0.  1.
          5    1    1    2  502    0 -0.64691381822E+02  0.21980404148E+02  0.12401410055E+03  0.14166756927E+03  0.47000000000E+01 0. -1.
         -5    1    1    2    0  502  0.26076296155E+02  0.10106045553E+03  0.91585827510E+02  0.13893611012E+03  0.47000000000E+01 0. -1.
        -11    1    1    2    0    0  0.64821240912E+02 -0.56076775931E+02  0.62934714317E+02  0.10633520743E+03  0.00000000000E+00 0. -1.
         11    1    1    2    0    0 -0.26206155245E+02 -0.66964083748E+02  0.66403307329E+02  0.97879263939E+02  0.00000000000E+00 0.  1.
<mgrwt>
<rscale>  0 0.17394544E+03</rscale>
<asrwt>0</asrwt>
<pdfrwt beam="1">  1        2 0.63827391E-01 0.17959704E+03</pdfrwt>
<pdfrwt beam="2">  1       -2 0.10760016E-01 0.17959704E+03</pdfrwt>
<totfact> 0.44220351E+03</totfact>
</mgrwt>
</event>
<event>
 6    1  0.4705246E-006  0.2418518E+03  0.7546771E-02  0.1121381E+00
          2   -1    0    0  501    0  0.00000000000E+00  0.00000000000E+00  0.13133775990E+04  0.13133775990E+04  0.00000000000E+00 0. -1.
         -2   -1    0    0    0  501 -0.00000000000E+00 -0.00000000000E+00 -0.43388921256E+02  0.43388921256E+02  0.00000000000E+00 0.  1.
          5    1    1    2  502    0 -0.14970470258E+02 -0.68156725737E+01  0.13079021113E+03  0.13190427476E+03  0.47000000000E+01 0. -1.
         -5    1    1    2    0  502  0.82665437937E+02  0.20167697062E+03  0.66484794367E+03  0.69967996492E+03  0.47000000000E+01 0.  1.
        -11    1    1    2    0    0 -0.22719180061E+02 -0.12423721799E+03  0.37252849553E+03  0.39335547213E+03  0.00000000000E+00 0.  1.
         11    1    1    2    0    0 -0.44975787618E+02 -0.70624080062E+02  0.10182202740E+03  0.13182680842E+03  0.00000000000E+00 0. -1.
<mgrwt>
<rscale>  0 0.23763120E+03</rscale>
<asrwt>0</asrwt>
<pdfrwt beam="1">  1        2 0.20205806E+00 0.24185176E+03</pdfrwt>
<pdfrwt beam="2">  1       -2 0.66752197E-02 0.24185176E+03</pdfrwt>
<totfact> 0.21640198E+03</totfact>
</mgrwt>
</event>
<event>
 6    1  0.4705246E-006  0.1253746E+03  0.7546771E-02  0.1250445E+00
          3   -1    0    0  501    0  0.00000000000E+00  0.00000000000E+00  0.37901783592E+02  0.37901783592E+02  0.00000000000E+00 0. -1.
         -3   -1    0    0    0  501 -0.00000000000E+00 -0.00000000000E+00 -0.30874783631E+03  0.30874783631E+03  0.00000000000E+00 0.  1.
          5    1    1    2  502    0  0.37112779418E+02  0.55463982949E+02 -0.75145113128E+02  0.10061058507E+03  0.47000000000E+01 0.  1.
         -5    1    1    2    0  502 -0.30219052497E+02 -0.48629851963E+02 -0.89183211266E+02  0.10608387628E+03  0.47000000000E+01 0.  1.
        -11    1    1    2    0    0 -0.32791125111E+02  0.24413018443E+02 -0.84295203226E+02  0.93685295765E+02  0.00000000000E+00 0.  1.
         11    1    1    2    0    0  0.25897398190E+02 -0.31247149429E+02 -0.22222525098E+02  0.46269862785E+02  0.00000000000E+00 0. -1.
<mgrwt>
<rscale>  0 0.11565317E+03</rscale>
<asrwt>0</asrwt>
<pdfrwt beam="1">  1        3 0.58310437E-02 0.12537465E+03</pdfrwt>
<pdfrwt beam="2">  1       -3 0.47499667E-01 0.12537465E+03</pdfrwt>
<totfact> 0.17865781E+03</totfact>
</mgrwt>
</event>
<event>
 6    1  0.4705246E-006  0.1573525E+03  0.7546771E-02  0.1199569E+00
         -2   -1    0    0    0  501 -0.00000000000E+00  0.00000000000E+00  0.14175070285E+02  0.14175070285E+02  0.00000000000E+00 0.  1.
          2   -1    0    0  501    0  0.00000000000E+00 -0.00000000000E+00 -0.15179644864E+04  0.15179644864E+04  0.00000000000E+00 0. -1.
          5    1    1    2  502    0  0.17036161535E+02 -0.23682250529E+02 -0.59324091570E+02  0.66276071328E+02  0.47000000000E+01 0.  1.
         -5    1    1    2    0  502 -0.10271345639E+03 -0.18678986628E+02 -0.87309929534E+03  0.87933123918E+03  0.47000000000E+01 0.  1.
        -11    1    1    2    0    0  0.10205358148E+03  0.49205265759E+02 -0.51958416009E+03  0.53179299647E+03  0.00000000000E+00 0. -1.
         11    1    1    2    0    0 -0.16376286623E+02 -0.68440286009E+01 -0.51781869113E+02  0.54739249720E+02  0.00000000000E+00 0.  1.
<mgrwt>
<rscale>  0 0.15073834E+03</rscale>
<asrwt>0</asrwt>
<pdfrwt beam="2">  1        2 0.23353288E+00 0.15735251E+03</pdfrwt>
<pdfrwt beam="1">  1       -2 0.21807812E-02 0.15735251E+03</pdfrwt>
<totfact> 0.89214581E+03</totfact>
</mgrwt>
</event>
<event>
 6    1  0.4705246E-006  0.1469434E+03  0.7546771E-02  0.1213927E+00
         -2   -1    0    0    0  501 -0.00000000000E+00  0.00000000000E+00  0.76605169955E+02  0.76605169955E+02  0.00000000000E+00 0.  1.
          2   -1    0    0  501    0  0.00000000000E+00 -0.00000000000E+00 -0.23401465577E+03  0.23401465577E+03  0.00000000000E+00 0. -1.
          5    1    1    2  502    0 -0.36003538785E+01  0.59580338098E+02 -0.41652744246E+02  0.72937098510E+02  0.47000000000E+01 0.  1.
         -5    1    1    2    0  502  0.77227235848E+02 -0.36205993614E+02 -0.29926438509E+02  0.90512991621E+02  0.47000000000E+01 0.  1.
        -11    1    1    2    0    0 -0.24162652272E+02 -0.18978757083E+02  0.15434694480E+02  0.34383961071E+02  0.00000000000E+00 0.  1.
         11    1    1    2    0    0 -0.49464229698E+02 -0.43955874013E+01 -0.10126499754E+03  0.11278577453E+03  0.00000000000E+00 0. -1.
<mgrwt>
<rscale>  0 0.13955630E+03</rscale>
<asrwt>0</asrwt>
<pdfrwt beam="2">  1        2 0.36002254E-01 0.14694337E+03</pdfrwt>
<pdfrwt beam="1">  1       -2 0.11785411E-01 0.14694337E+03</pdfrwt>
<totfact> 0.69779131E+03</totfact>
</mgrwt>
</event>
<event>
 6    1  0.4705246E-006  0.1379996E+03  0.7546771E-02  0.1242407E+00
          1   -1    0    0  501    0  0.00000000000E+00  0.00000000000E+00  0.68657429072E+03  0.68657429072E+03  0.00000000000E+00 0. -1.
         -1   -1    0    0    0  501 -0.00000000000E+00 -0.00000000000E+00 -0.18260591878E+02  0.18260591878E+02  0.00000000000E+00 0.  1.
          5    1    1    2  502    0 -0.54312785740E+02 -0.16112230266E+02  0.28169697248E+03  0.28737563739E+03  0.47000000000E+01 0. -1.
         -5    1    1    2    0  502  0.63750344535E+02 -0.41591337227E+02  0.21450360384E+03  0.22765726833E+03  0.47000000000E+01 0. -1.
        -11    1    1    2    0    0 -0.17867920235E+02  0.31482929308E+01  0.15908649038E+02  0.24130052551E+02  0.00000000000E+00 0.  1.
         11    1    1    2    0    0  0.84303614401E+01  0.54555274562E+02  0.15620447349E+03  0.16567192434E+03  0.00000000000E+00 0. -1.
<mgrwt>
<rscale>  0 0.12041944E+03</rscale>
<asrwt>0</asrwt>
<pdfrwt beam="1">  1        1 0.10562679E+00 0.13799957E+03</pdfrwt>
<pdfrwt beam="2">  1       -1 0.28093224E-02 0.13799957E+03</pdfrwt>
<totfact> 0.11530545E+04</totfact>
</mgrwt>
</event>
<event>
 6    1  0.4705246E-006  0.1370655E+03  0.7546771E-02  0.1229294E+00
         -2   -1    0    0    0  501 -0.00000000000E+00  0.00000000000E+00  0.51481089113E+02  0.51481089113E+02  0.00000000000E+00 0.  1.
          2   -1    0    0  501    0  0.00000000000E+00 -0.00000000000E+00 -0.29068792378E+03  0.29068792378E+03  0.00000000000E+00 0. -1.
          5    1    1    2  502    0 -0.12020599529E+02  0.65762957116E+02 -0.83571605025E+02  0.10712406129E+03  0.47000000000E+01 0.  1.
         -5    1    1    2    0  502 -0.42979063120E+02 -0.54138961714E+02 -0.64726244298E+02  0.94814575584E+02  0.47000000000E+01 0.  1.
        -11    1    1    2    0    0  0.34720904862E+02  0.71587747952E+01  0.89937995791E+01  0.36574276778E+02  0.00000000000E+00 0.  1.
         11    1    1    2    0    0  0.20278757787E+02 -0.18782770196E+02 -0.99902784927E+02  0.10365609924E+03  0.00000000000E+00 0. -1.
<mgrwt>
<rscale>  0 0.12876856E+03</rscale>
<asrwt>0</asrwt>
<pdfrwt beam="2">  1        2 0.44721218E-01 0.13706554E+03</pdfrwt>
<pdfrwt beam="1">  1       -2 0.79201677E-02 0.13706554E+03</pdfrwt>
<totfact> 0.10283654E+04</totfact>
</mgrwt>
</event>
<event>
 6    1  0.4705246E-006  0.1305251E+03  0.7546771E-02  0.1240313E+00
         -2   -1    0    0    0  501 -0.00000000000E+00  0.00000000000E+00  0.52184213594E+02  0.52184213594E+02  0.00000000000E+00 0.  1.
          2   -1    0    0  501    0  0.00000000000E+00 -0.00000000000E+00 -0.25185343390E+03  0.25185343390E+03  0.00000000000E+00 0. -1.
          5    1    1    2  502    0  0.80098584125E+02  0.37886615769E+01 -0.76729621106E+02  0.11108403076E+03  0.47000000000E+01 0. -1.
         -5    1    1    2    0  502 -0.45528545466E+02 -0.18530903863E+02 -0.32493427175E+02  0.59111383505E+02  0.47000000000E+01 0. -1.
        -11    1    1    2    0    0 -0.51361695480E+02 -0.20841830910E+02 -0.70641508977E+02  0.89792140351E+02  0.00000000000E+00 0. -1.
         11    1    1    2    0    0  0.16791656821E+02  0.35584073197E+02 -0.19804663051E+02  0.44050092879E+02  0.00000000000E+00 0.  1.
<mgrwt>
<rscale>  0 0.12170340E+03</rscale>
<asrwt>0</asrwt>
<pdfrwt beam="2">  1        2 0.38746682E-01 0.13052511E+03</pdfrwt>
<pdfrwt beam="1">  1       -2 0.80283407E-02 0.13052511E+03</pdfrwt>
<totfact> 0.11680872E+04</totfact>
</mgrwt>
</event>
<event>
 6    1  0.4705246E-006  0.1273068E+03  0.7546771E-02  0.1246310E+00
          2   -1    0    0  501    0  0.00000000000E+00  0.00000000000E+00  0.50738989756E+03  0.50738989756E+03  0.00000000000E+00 0. -1.
         -2   -1    0    0    0  501 -0.00000000000E+00 -0.00000000000E+00 -0.24478173626E+02  0.24478173626E+02  0.00000000000E+00 0.  1.
          5    1    1    2  502    0  0.19565908739E+02  0.16688780941E+02  0.26807566001E+03  0.26934734022E+03  0.47000000000E+01 0.  1.
         -5    1    1    2    0  502 -0.31404327583E+02 -0.37697009818E+02  0.38283504219E+02  0.62410039541E+02  0.47000000000E+01 0.  1.
        -11    1    1    2    0    0  0.21329241534E+02 -0.11438960664E+02  0.43124748410E+01  0.24584218612E+02  0.00000000000E+00 0.  1.
         11    1    1    2    0    0 -0.94908226903E+01  0.32447189541E+02  0.17224008486E+03  0.17552647281E+03  0.00000000000E+00 0. -1.
<mgrwt>
<rscale>  0 0.11807296E+03</rscale>
<asrwt>0</asrwt>
<pdfrwt beam="1">  1        2 0.78059976E-01 0.12730680E+03</pdfrwt>
<pdfrwt beam="2">  1       -2 0.37658732E-02 0.12730680E+03</pdfrwt>
<totfact> 0.17293341E+04</totfact>
</mgrwt>
</event>
<event>
 6    1  0.4705246E-006  0.1384483E+03  0.7546771E-02  0.1227821E+00
          1   -1    0    0  501    0  0.00000000000E+00  0.00000000000E+00  0.26067191409E+03  0.26067191409E+03  0.00000000000E+00 0. -1.
         -1   -1    0    0    0  501 -0.00000000000E+00 -0.00000000000E+00 -0.58409454520E+02  0.58409454520E+02  0.00000000000E+00 0.  1.
          5    1    1    2  502    0  0.24382536102E+02 -0.45742732016E+02 -0.51889460297E+01  0.52306029862E+02  0.47000000000E+01 0. -1.
         -5    1    1    2    0  502  0.21258533648E+02  0.75401548419E+01  0.13676371065E+03  0.13869095767E+03  0.47000000000E+01 0. -1.
        -11    1    1    2    0    0 -0.50703457660E+01  0.59966668984E+02  0.33323854722E+02  0.68790908474E+02  0.00000000000E+00 0. -1.
         11    1    1    2    0    0 -0.40570723985E+02 -0.21764091810E+02  0.37363840225E+02  0.59293472602E+02  0.00000000000E+00 0.  1.
<mgrwt>
<rscale>  0 0.12975407E+03</rscale>
<asrwt>0</asrwt>
<pdfrwt beam="1">  1        1 0.40103371E-01 0.13844830E+03</pdfrwt>
<pdfrwt beam="2">  1       -1 0.89860701E-02 0.13844830E+03</pdfrwt>
<totfact> 0.71753487E+03</totfact>
</mgrwt>
</event>
<event>
 6    1  0.4705246E-006  0.1316667E+03  0.7546771E-02  0.1238644E+00
         -2   -1    0    0    0  501 -0.00000000000E+00  0.00000000000E+00  0.55769728491E+02  0.55769728491E+02  0.00000000000E+00 0.  1.
          2   -1    0    0  501    0  0.00000000000E+00 -0.00000000000E+00 -0.23961252850E+03  0.23961252850E+03  0.00000000000E+00 0. -1.
          5    1    1    2  502    0  0.12038595758E+02 -0.53849658257E+01 -0.12917953646E+03  0.12993601612E+03  0.47000000000E+01 0. -1.
         -5    1    1    2    0  502  0.23592850386E+02  0.26434511722E+02  0.20134271805E+02  0.41022980150E+02  0.47000000000E+01 0. -1.
        -11    1    1    2    0    0 -0.34567506749E+02 -0.48457197223E+02 -0.19395689266E+02  0.62603556190E+02  0.00000000000E+00 0.  1.
         11    1    1    2    0    0 -0.10639393941E+01  0.27407651327E+02 -0.55401846081E+02  0.61819704524E+02  0.00000000000E+00 0. -1.
<mgrwt>
<rscale>  0 0.12274026E+03</rscale>
<asrwt>0</asrwt>
<pdfrwt beam="2">  1        2 0.36863466E-01 0.13166666E+03</pdfrwt>
<pdfrwt beam="1">  1       -2 0.85799583E-02 0.13166666E+03</pdfrwt>
<totfact> 0.11122396E+04</totfact>
</mgrwt>
</event>
<event>
 6    1  0.4705246E-006  0.4044390E+03  0.7546771E-02  0.1043015E+00
          2   -1    0    0  501    0  0.00000000000E+00  0.00000000000E+00  0.96989821762E+03  0.96989821762E+03  0.00000000000E+00 0. -1.
         -2   -1    0    0    0  501 -0.00000000000E+00 -0.00000000000E+00 -0.29551468976E+03  0.29551468976E+03  0.00000000000E+00 0.  1.
          5    1    1    2  502    0 -0.27751298602E+02 -0.42070807401E+02  0.62211735117E+02  0.80202726860E+02  0.47000000000E+01 0.  1.
         -5    1    1    2    0  502 -0.34759156743E+03 -0.41977866762E+02  0.69753612176E+03  0.78048752085E+03  0.47000000000E+01 0.  1.
        -11    1    1    2    0    0  0.22915692573E+03  0.67501891390E+01 -0.35389096398E+02  0.23197165733E+03  0.00000000000E+00 0.  1.
         11    1    1    2    0    0  0.14618594031E+03  0.77298485024E+02 -0.49975232615E+02  0.17275100233E+03  0.00000000000E+00 0. -1.
<mgrwt>
<rscale>  0 0.40221540E+03</rscale>
<asrwt>0</asrwt>
<pdfrwt beam="1">  1        2 0.14921511E+00 0.40443899E+03</pdfrwt>
<pdfrwt beam="2">  1       -2 0.45463799E-01 0.40443899E+03</pdfrwt>
<totfact> 0.12626217E+02</totfact>
</mgrwt>
</event>
<event>
 6    1  0.4705246E-006  0.1314483E+03  0.7546771E-02  0.1234612E+00
         -1   -1    0    0    0  501 -0.00000000000E+00  0.00000000000E+00  0.45726798652E+02  0.45726798652E+02  0.00000000000E+00 0.  1.
          1   -1    0    0  501    0  0.00000000000E+00 -0.00000000000E+00 -0.36483511093E+03  0.36483511093E+03  0.00000000000E+00 0. -1.
          5    1    1    2  502    0 -0.38919888837E+02 -0.49653124594E+02 -0.71628491474E+02  0.95566318962E+02  0.47000000000E+01 0.  1.
         -5    1    1    2    0  502  0.54594047505E+02  0.12121961810E+02 -0.17682123966E+03  0.18551359189E+03  0.47000000000E+01 0.  1.
        -11    1    1    2    0    0 -0.35627554487E+01  0.45991784912E+02  0.10234165623E+02  0.47251197358E+02  0.00000000000E+00 0.  1.
         11    1    1    2    0    0 -0.12111403220E+02 -0.84606221284E+01 -0.80892746770E+02  0.82230801375E+02  0.00000000000E+00 0. -1.
<mgrwt>
<rscale>  0 0.12529301E+03</rscale>
<asrwt>0</asrwt>
<pdfrwt beam="2">  1        1 0.56128480E-01 0.13144827E+03</pdfrwt>
<pdfrwt beam="1">  1       -1 0.70348919E-02 0.13144827E+03</pdfrwt>
<totfact> 0.68174804E+03</totfact>
</mgrwt>
</event>
<event>
 6    1  0.4705246E-006  0.1270252E+03  0.7546771E-02  0.1248503E+00
          2   -1    0    0  501    0  0.00000000000E+00  0.00000000000E+00  0.93585794356E+02  0.93585794356E+02  0.00000000000E+00 0. -1.
         -2   -1    0    0    0  501 -0.00000000000E+00 -0.00000000000E+00 -0.12706317521E+03  0.12706317521E+03  0.00000000000E+00 0.  1.
          5    1    1    2  502    0 -0.40549121571E+02 -0.32604727992E+02 -0.33968748187E+01  0.52353875751E+02  0.47000000000E+01 0.  1.
         -5    1    1    2    0  502  0.58160431084E+02  0.46647226671E+02 -0.10194382837E+02  0.75396385466E+02  0.47000000000E+01 0.  1.
        -11    1    1    2    0    0 -0.26727408537E+02 -0.25814512243E+02 -0.48228834579E+02  0.60883198785E+02  0.00000000000E+00 0.  1.
         11    1    1    2    0    0  0.91160990240E+01  0.11772013564E+02  0.28342711376E+02  0.32015509568E+02  0.00000000000E+00 0. -1.
<mgrwt>
<rscale>  0 0.11678136E+03</rscale>
<asrwt>0</asrwt>
<pdfrwt beam="1">  1        2 0.14397815E-01 0.12702522E+03</pdfrwt>
<pdfrwt beam="2">  1       -2 0.19548181E-01 0.12702522E+03</pdfrwt>
<totfact> 0.83919798E+03</totfact>
</mgrwt>
</event>
<event>
 6    1  0.4705246E-006  0.1254462E+03  0.7546771E-02  0.1251566E+00
         -2   -1    0    0    0  501 -0.00000000000E+00  0.00000000000E+00  0.86540921264E+02  0.86540921264E+02  0.00000000000E+00 0.  1.
          2   -1    0    0  501    0  0.00000000000E+00 -0.00000000000E+00 -0.13341248112E+03  0.13341248112E+03  0.00000000000E+00 0. -1.
          5    1    1    2  502    0 -0.23583539312E+01 -0.49875421855E+02  0.13779681358E+02  0.52010471607E+02  0.47000000000E+01 0.  1.
         -5    1    1    2    0  502 -0.42698025006E+00  0.60063413931E+02 -0.50737286861E+02  0.78766479439E+02  0.47000000000E+01 0.  1.
        -11    1    1    2    0    0  0.14431243474E+02 -0.34772969487E+02 -0.35561694356E+02  0.51788553760E+02  0.00000000000E+00 0.  1.
         11    1    1    2    0    0 -0.11645909293E+02  0.24584977410E+02  0.25647740006E+02  0.37387897573E+02  0.00000000000E+00 0. -1.
<mgrwt>
<rscale>  0 0.11500865E+03</rscale>
<asrwt>0</asrwt>
<pdfrwt beam="2">  1        2 0.20524997E-01 0.12544619E+03</pdfrwt>
<pdfrwt beam="1">  1       -2 0.13313988E-01 0.12544619E+03</pdfrwt>
<totfact> 0.10493085E+04</totfact>
</mgrwt>
</event>
<event>
 6    1  0.4705246E-006  0.3001545E+03  0.7546771E-02  0.1085163E+00
          3   -1    0    0  501    0  0.00000000000E+00  0.00000000000E+00  0.26575287235E+03  0.26575287235E+03  0.00000000000E+00 0. -1.
         -3   -1    0    0    0  501 -0.00000000000E+00 -0.00000000000E+00 -0.84752357935E+02  0.84752357935E+02  0.00000000000E+00 0.  1.
          5    1    1    2  502    0  0.15802545373E+02 -0.15150344682E+02 -0.56726918276E+01  0.23098112841E+02  0.47000000000E+01 0.  1.
         -5    1    1    2    0  502 -0.86674450967E+02  0.79288003544E+02  0.14853085367E+03  0.18942690530E+03  0.47000000000E+01 0.  1.
        -11    1    1    2    0    0  0.79966652319E+02 -0.19784917398E+02  0.42136308914E+02  0.92528789943E+02  0.00000000000E+00 0. -1.
         11    1    1    2    0    0 -0.90947467243E+01 -0.44352741464E+02 -0.39939563447E+01  0.45451422207E+02  0.00000000000E+00 0.  1.
<mgrwt>
<rscale>  0 0.30015451E+03</rscale>
<asrwt>0</asrwt>
<pdfrwt beam="1">  1        3 0.40885057E-01 0.30015451E+03</pdfrwt>
<pdfrwt beam="2">  1       -3 0.13038824E-01 0.30015451E+03</pdfrwt>
<totfact> 0.72003445E+02</totfact>
</mgrwt>
</event>
<event>
 6    1  0.4705246E-006  0.1412929E+03  0.7546771E-02  0.1222288E+00
         -2   -1    0    0    0  501 -0.00000000000E+00  0.00000000000E+00  0.30832074443E+03  0.30832074443E+03  0.00000000000E+00 0.  1.
          2   -1    0    0  501    0  0.00000000000E+00 -0.00000000000E+00 -0.52341185351E+02  0.52341185351E+02  0.00000000000E+00 0. -1.
          5    1    1    2  502    0 -0.23012819995E+02  0.14241295941E+02  0.15462414843E+03  0.15704496704E+03  0.47000000000E+01 0.  1.
         -5    1    1    2    0  502 -0.42663963910E+02 -0.91787915292E+01 -0.10133575283E+02  0.45047123975E+02  0.47000000000E+01 0.  1.
        -11    1    1    2    0    0  0.69232746646E+02 -0.36985251103E+02  0.92266596933E+02  0.12113714095E+03  0.00000000000E+00 0.  1.
         11    1    1    2    0    0 -0.35559627413E+01  0.31922746691E+02  0.19222388998E+02  0.37432697820E+02  0.00000000000E+00 0. -1.
<mgrwt>
<rscale>  0 0.13354515E+03</rscale>
<asrwt>0</asrwt>
<pdfrwt beam="2">  1        2 0.80524902E-02 0.14129291E+03</pdfrwt>
<pdfrwt beam="1">  1       -2 0.47433960E-01 0.14129291E+03</pdfrwt>
<totfact> 0.34504535E+03</totfact>
</mgrwt>
</event>
<event>
 6    1  0.4705246E-006  0.1354501E+03  0.7546771E-02  0.1231728E+00
         -1   -1    0    0    0  501 -0.00000000000E+00  0.00000000000E+00  0.28512905637E+03  0.28512905637E+03  0.00000000000E+00 0.  1.
          1   -1    0    0  501    0  0.00000000000E+00 -0.00000000000E+00 -0.51060756073E+02  0.51060756073E+02  0.00000000000E+00 0. -1.
          5    1    1    2  502    0  0.28693343101E+02 -0.76730977910E+02  0.36965445212E+02  0.89997139116E+02  0.47000000000E+01 0.  1.
         -5    1    1    2    0  502 -0.27941429638E+02  0.24556859521E+02  0.82454702808E+02  0.90579417391E+02  0.47000000000E+01 0.  1.
        -11    1    1    2    0    0  0.43087295530E+02  0.42048643703E+02  0.64029750731E+02  0.87888636649E+02  0.00000000000E+00 0. -1.
         11    1    1    2    0    0 -0.43839208992E+02  0.10125474686E+02  0.50618401551E+02  0.67724619292E+02  0.00000000000E+00 0.  1.
<mgrwt>
<rscale>  0 0.12716254E+03</rscale>
<asrwt>0</asrwt>
<pdfrwt beam="2">  1        1 0.78555011E-02 0.13545007E+03</pdfrwt>
<pdfrwt beam="1">  1       -1 0.43866008E-01 0.13545007E+03</pdfrwt>
<totfact> 0.44551521E+03</totfact>
</mgrwt>
</event>
<event>
 6    1  0.4705246E-006  0.1290157E+03  0.7546771E-02  0.1243548E+00
         -1   -1    0    0    0  501 -0.00000000000E+00  0.00000000000E+00  0.12156503940E+04  0.12156503940E+04  0.00000000000E+00 0.  1.
          1   -1    0    0  501    0  0.00000000000E+00 -0.00000000000E+00 -0.10428016345E+02  0.10428016345E+02  0.00000000000E+00 0. -1.
          5    1    1    2  502    0  0.22544947038E+02 -0.67651288229E+02  0.24740075885E+03  0.25751543044E+03  0.47000000000E+01 0. -1.
         -5    1    1    2    0  502  0.52084839499E-01  0.45058002270E+02  0.40452445118E+03  0.40705324944E+03  0.47000000000E+01 0. -1.
        -11    1    1    2    0    0 -0.27815053043E+02  0.55650421663E+02  0.35763825617E+03  0.36300932341E+03  0.00000000000E+00 0.  1.
         11    1    1    2    0    0  0.52180211652E+01 -0.33057135704E+02  0.19565891143E+03  0.19850040702E+03  0.00000000000E+00 0. -1.
<mgrwt>
<rscale>  0 0.11972689E+03</rscale>
<asrwt>0</asrwt>
<pdfrwt beam="2">  1        1 0.16043112E-02 0.12901570E+03</pdfrwt>
<pdfrwt beam="1">  1       -1 0.18702303E+00 0.12901570E+03</pdfrwt>
<totfact> 0.16412023E+03</totfact>
</mgrwt>
</event>
<event>
 6    1  0.4705246E-006  0.1372662E+03  0.7546771E-02  0.1227406E+00
          1   -1    0    0  501    0  0.00000000000E+00  0.00000000000E+00  0.67757175931E+02  0.67757175931E+02  0.00000000000E+00 0. -1.
         -1   -1    0    0    0  501 -0.00000000000E+00 -0.00000000000E+00 -0.23979193737E+03  0.23979193737E+03  0.00000000000E+00 0.  1.
          5    1    1    2  502    0 -0.11277769000E+02  0.34661689353E+02  0.36278229510E+02  0.51641269531E+02  0.47000000000E+01 0. -1.
         -5    1    1    2    0  502 -0.14172019535E+02  0.16456332795E+02 -0.95161832182E+02  0.97721652315E+02  0.47000000000E+01 0. -1.
        -11    1    1    2    0    0 -0.17034848373E+02  0.20784429966E+02 -0.24049271613E+02  0.36063084355E+02  0.00000000000E+00 0.  1.
         11    1    1    2    0    0  0.42484636908E+02 -0.71902452114E+02 -0.89101887150E+02  0.12212310710E+03  0.00000000000E+00 0. -1.
<mgrwt>
<rscale>  0 0.13003347E+03</rscale>
<asrwt>0</asrwt>
<pdfrwt beam="1">  1        1 0.10424181E-01 0.13726618E+03</pdfrwt>
<pdfrwt beam="2">  1       -1 0.36891068E-01 0.13726618E+03</pdfrwt>
<totfact> 0.41441370E+03</totfact>
</mgrwt>
</event>
<event>
 6    1  0.4705246E-006  0.1442353E+03  0.7546771E-02  0.1217984E+00
          2   -1    0    0  501    0  0.00000000000E+00  0.00000000000E+00  0.15440679343E+04  0.15440679343E+04  0.00000000000E+00 0. -1.
         -2   -1    0    0    0  501 -0.00000000000E+00 -0.00000000000E+00 -0.15170875465E+02  0.15170875465E+02  0.00000000000E+00 0.  1.
          5    1    1    2  502    0 -0.27587092998E+02 -0.64403990996E+02  0.37130412376E+03  0.37788591410E+03  0.47000000000E+01 0. -1.
         -5    1    1    2    0  502  0.55898290393E+02 -0.17516971609E+01  0.86171291848E+03  0.86353861013E+03  0.47000000000E+01 0. -1.
        -11    1    1    2    0    0 -0.34230195697E+02  0.84195859692E+02  0.19471083717E+03  0.21487894080E+03  0.00000000000E+00 0.  1.
         11    1    1    2    0    0  0.59189983022E+01 -0.18040171536E+02  0.10116917948E+03  0.10293534478E+03  0.00000000000E+00 0. -1.
<mgrwt>
<rscale>  0 0.13659603E+03</rscale>
<asrwt>0</asrwt>
<pdfrwt beam="1">  1        2 0.23754879E+00 0.14423530E+03</pdfrwt>
<pdfrwt beam="2">  1       -2 0.23339821E-02 0.14423530E+03</pdfrwt>
<totfact> 0.78061780E+03</totfact>
</mgrwt>
</event>
<event>
 6    1  0.4705246E-006  0.1357366E+03  0.7546771E-02  0.1230703E+00
          1   -1    0    0  501    0  0.00000000000E+00  0.00000000000E+00  0.57736287998E+02  0.57736287998E+02  0.00000000000E+00 0. -1.
         -1   -1    0    0    0  501 -0.00000000000E+00 -0.00000000000E+00 -0.30365080457E+03  0.30365080457E+03  0.00000000000E+00 0.  1.
          5    1    1    2  502    0  0.33409409400E+01  0.44296984387E+02  0.13557611197E+02  0.46682796976E+02  0.47000000000E+01 0.  1.
         -5    1    1    2    0  502 -0.56033152724E+02 -0.39609633713E+02 -0.76697167227E+02  0.10302030260E+03  0.47000000000E+01 0.  1.
        -11    1    1    2    0    0  0.79147135528E+02 -0.24785211159E+01 -0.12308484268E+03  0.14635672388E+03  0.00000000000E+00 0.  1.
         11    1    1    2    0    0 -0.26454923744E+02 -0.22088295581E+01 -0.59690117867E+02  0.65327269109E+02  0.00000000000E+00 0. -1.
<mgrwt>
<rscale>  0 0.12783567E+03</rscale>
<asrwt>0</asrwt>
<pdfrwt beam="1">  1        1 0.88825057E-02 0.13573656E+03</pdfrwt>
<pdfrwt beam="2">  1       -1 0.46715509E-01 0.13573656E+03</pdfrwt>
<totfact> 0.33771581E+03</totfact>
</mgrwt>
</event>
<event>
 6    1  0.4705246E-006  0.1554094E+03  0.7546771E-02  0.1202286E+00
          2   -1    0    0  501    0  0.00000000000E+00  0.00000000000E+00  0.34157965074E+03  0.34157965074E+03  0.00000000000E+00 0. -1.
         -2   -1    0    0    0  501 -0.00000000000E+00 -0.00000000000E+00 -0.62149248288E+02  0.62149248288E+02  0.00000000000E+00 0.  1.
          5    1    1    2  502    0 -0.63551489990E+02  0.75020667667E+02  0.11513577478E+03  0.15147682691E+03  0.47000000000E+01 0.  1.
         -5    1    1    2    0  502 -0.18894248922E+02 -0.33437585317E+02 -0.49810504559E+01  0.39012377752E+02  0.47000000000E+01 0.  1.
        -11    1    1    2    0    0  0.73087061145E+02 -0.18672051345E+02  0.17250869287E+03  0.18828067645E+03  0.00000000000E+00 0. -1.
         11    1    1    2    0    0  0.93586777674E+01 -0.22911031004E+02 -0.32330147377E+01  0.24959017920E+02  0.00000000000E+00 0.  1.
<mgrwt>
<rscale>  0 0.14853411E+03</rscale>
<asrwt>0</asrwt>
<pdfrwt beam="1">  1        2 0.52550714E-01 0.15540937E+03</pdfrwt>
<pdfrwt beam="2">  1       -2 0.95614230E-02 0.15540937E+03</pdfrwt>
<totfact> 0.65171004E+03</totfact>
</mgrwt>
</event>
<event>
 6    1  0.4705246E-006  0.2040909E+03  0.7546771E-02  0.1173410E+00
         -1   -1    0    0    0  501 -0.00000000000E+00  0.00000000000E+00  0.69946646394E+03  0.69946646394E+03  0.00000000000E+00 0.  1.
          1   -1    0    0  501    0  0.00000000000E+00 -0.00000000000E+00 -0.35016685323E+02  0.35016685323E+02  0.00000000000E+00 0. -1.
          5    1    1    2  502    0  0.38766231536E+02  0.29389408003E+02  0.24451756976E+02  0.54649212524E+02  0.47000000000E+01 0. -1.
         -5    1    1    2    0  502 -0.80835815099E+02 -0.74698955614E+02  0.42368039790E+03  0.43776881175E+03  0.47000000000E+01 0.  1.
        -11    1    1    2    0    0  0.61709035103E+01  0.59002703988E+02  0.17871753666E+03  0.18830655070E+03  0.00000000000E+00 0.  1.
         11    1    1    2    0    0  0.35898680053E+02 -0.13693156378E+02  0.37600087080E+02  0.53758574289E+02  0.00000000000E+00 0. -1.
<mgrwt>
<rscale>  0 0.17432637E+03</rscale>
<asrwt>0</asrwt>
<pdfrwt beam="2">  1        1 0.53871829E-02 0.20409087E+03</pdfrwt>
<pdfrwt beam="1">  1       -1 0.10761021E+00 0.20409087E+03</pdfrwt>
<totfact> 0.12701246E+03</totfact>
</mgrwt>
</event>
<event>
 6    1  0.4705246E-006  0.3169274E+03  0.7546771E-02  0.1117592E+00
         -1   -1    0    0    0  501 -0.00000000000E+00  0.00000000000E+00  0.72087681052E+02  0.72087681052E+02  0.00000000000E+00 0.  1.
          1   -1    0    0  501    0  0.00000000000E+00 -0.00000000000E+00 -0.85616208523E+03  0.85616208523E+03  0.00000000000E+00 0. -1.
          5    1    1    2  502    0  0.57676355716E+02  0.31902792743E+02 -0.77556139083E+03  0.77837131957E+03  0.47000000000E+01 0. -1.
         -5    1    1    2    0  502 -0.19077273277E+02 -0.27808897563E+01  0.27583443564E+02  0.33979583022E+02  0.47000000000E+01 0.  1.
        -11    1    1    2    0    0 -0.62500031092E+02 -0.14132405691E+02 -0.52872770610E+02  0.83075319133E+02  0.00000000000E+00 0. -1.
         11    1    1    2    0    0  0.23900948654E+02 -0.14989497296E+02  0.16776313696E+02  0.32823544552E+02  0.00000000000E+00 0.  1.
<mgrwt>
<rscale>  0 0.24333278E+03</rscale>
<asrwt>0</asrwt>
<pdfrwt beam="2">  1        1 0.13171724E+00 0.31692740E+03</pdfrwt>
<pdfrwt beam="1">  1       -1 0.11090413E-01 0.31692740E+03</pdfrwt>
<totfact> 0.10741837E+03</totfact>
</mgrwt>
</event>
<event>
 6    1  0.4705246E-006  0.1442126E+03  0.7546771E-02  0.1223040E+00
          3   -1    0    0  501    0  0.00000000000E+00  0.00000000000E+00  0.18918813712E+03  0.18918813712E+03  0.00000000000E+00 0. -1.
         -3   -1    0    0    0  501 -0.00000000000E+00 -0.00000000000E+00 -0.11035482303E+03  0.11035482303E+03  0.00000000000E+00 0.  1.
          5    1    1    2  502    0 -0.63217798344E+01 -0.92718568114E+02  0.55989038916E+02  0.10859815952E+03  0.47000000000E+01 0. -1.
         -5    1    1    2    0  502 -0.14883709471E+02  0.43696357576E+02  0.63727289921E+02  0.78829905199E+02  0.47000000000E+01 0.  1.
        -11    1    1    2    0    0 -0.94958833299E+01  0.17002370213E+02 -0.60539419035E+02  0.63594603939E+02  0.00000000000E+00 0. -1.
         11    1    1    2    0    0  0.30701372635E+02  0.32019840325E+02  0.19656404291E+02  0.48520291485E+02  0.00000000000E+00 0.  1.
<mgrwt>
<rscale>  0 0.13302168E+03</rscale>
<asrwt>0</asrwt>
<pdfrwt beam="1">  1        3 0.29105867E-01 0.14421262E+03</pdfrwt>
<pdfrwt beam="2">  1       -3 0.16977665E-01 0.14421262E+03</pdfrwt>
<totfact> 0.79303301E+02</totfact>
</mgrwt>
</event>
<event>
 6    1  0.4705246E-006  0.2971435E+03  0.7546771E-02  0.1086677E+00
          2   -1    0    0  501    0  0.00000000000E+00  0.00000000000E+00  0.85727311472E+02  0.85727311472E+02  0.00000000000E+00 0. -1.
         -2   -1    0    0    0  501 -0.00000000000E+00 -0.00000000000E+00 -0.25748575430E+03  0.25748575430E+03  0.00000000000E+00 0.  1.
          5    1    1    2  502    0 -0.10440340083E+01 -0.26110122591E+01  0.33274307317E+02  0.33722053904E+02  0.47000000000E+01 0.  1.
         -5    1    1    2    0  502 -0.82335269313E+02  0.51353812938E+02 -0.94986706950E+02  0.13587080324E+03  0.47000000000E+01 0.  1.
        -11    1    1    2    0    0  0.52357739306E+01 -0.53096038092E+02 -0.28087592527E+02  0.60295235663E+02  0.00000000000E+00 0.  1.
         11    1    1    2    0    0  0.78143529391E+02  0.43532374123E+01 -0.81958450672E+02  0.11332497297E+03  0.00000000000E+00 0. -1.
<mgrwt>
<rscale>  0 0.29714348E+03</rscale>
<asrwt>0</asrwt>
<pdfrwt beam="1">  1        2 0.13188817E-01 0.29714348E+03</pdfrwt>
<pdfrwt beam="2">  1       -2 0.39613193E-01 0.29714348E+03</pdfrwt>
<totfact> 0.27612722E+03</totfact>
</mgrwt>
</event>
<event>
 6    1  0.4705246E-006  0.3263813E+03  0.7546771E-02  0.1072749E+00
          2   -1    0    0  501    0  0.00000000000E+00  0.00000000000E+00  0.56249503564E+03  0.56249503564E+03  0.00000000000E+00 0. -1.
         -2   -1    0    0    0  501 -0.00000000000E+00 -0.00000000000E+00 -0.47344763766E+02  0.47344763766E+02  0.00000000000E+00 0.  1.
          5    1    1    2  502    0  0.11440865916E+03 -0.19909473725E+02  0.16456490616E+03  0.20146817807E+03  0.47000000000E+01 0. -1.
         -5    1    1    2    0  502  0.31288562522E+01  0.30358253826E+02  0.19070501068E+03  0.19318877922E+03  0.47000000000E+01 0. -1.
        -11    1    1    2    0    0 -0.61749673218E+02 -0.24568280317E+02  0.29585699715E+02  0.72745695185E+02  0.00000000000E+00 0.  1.
         11    1    1    2    0    0 -0.55787842194E+02  0.14119500216E+02  0.13029465532E+03  0.14243714694E+03  0.00000000000E+00 0. -1.
<mgrwt>
<rscale>  0 0.32638134E+03</rscale>
<asrwt>0</asrwt>
<pdfrwt beam="1">  1        2 0.86537693E-01 0.32638134E+03</pdfrwt>
<pdfrwt beam="2">  1       -2 0.72838102E-02 0.32638134E+03</pdfrwt>
<totfact> 0.59705221E+03</totfact>
</mgrwt>
</event>
<event>
 6    1  0.4705246E-006  0.3581200E+03  0.7546771E-02  0.1110560E+00
          1   -1    0    0  501    0  0.00000000000E+00  0.00000000000E+00  0.66618254833E+03  0.66618254833E+03  0.00000000000E+00 0. -1.
         -1   -1    0    0    0  501 -0.00000000000E+00 -0.00000000000E+00 -0.40610770279E+03  0.40610770279E+03  0.00000000000E+00 0.  1.
          5    1    1    2  502    0 -0.13487671299E+03  0.64198144241E+02  0.48931273364E+03  0.51162698398E+03  0.47000000000E+01 0. -1.
         -5    1    1    2    0  502  0.14206951989E+03 -0.60926128720E+02  0.12250355063E+03  0.19729407380E+03  0.47000000000E+01 0.  1.
        -11    1    1    2    0    0  0.19830642119E+02 -0.36211071058E+02 -0.24473135500E+03  0.24818930709E+03  0.00000000000E+00 0.  1.
         11    1    1    2    0    0 -0.27023449015E+02  0.32939055537E+02 -0.10701008373E+03  0.11517988625E+03  0.00000000000E+00 0. -1.
<mgrwt>
<rscale>  0 0.25439292E+03</rscale>
<asrwt>0</asrwt>
<pdfrwt beam="1">  1        1 0.10248962E+00 0.35811995E+03</pdfrwt>
<pdfrwt beam="2">  1       -1 0.62478108E-01 0.35811995E+03</pdfrwt>
<totfact> 0.81213696E+01</totfact>
</mgrwt>
</event>
<event>
 6    1  0.4705246E-006  0.1766946E+03  0.7546771E-02  0.1177073E+00
          2   -1    0    0  501    0  0.00000000000E+00  0.00000000000E+00  0.18544871508E+04  0.18544871508E+04  0.00000000000E+00 0.  1.
         -2   -1    0    0    0  501 -0.00000000000E+00 -0.00000000000E+00 -0.15995244605E+02  0.15995244605E+02  0.00000000000E+00 0. -1.
          5    1    1    2  502    0 -0.10810041270E+03 -0.71760061275E+01  0.71949662933E+03  0.72762262465E+03  0.47000000000E+01 0. -1.
         -5    1    1    2    0  502  0.78134884019E+01 -0.67233040884E+02  0.51823191016E+03  0.52265450835E+03  0.47000000000E+01 0. -1.
        -11    1    1    2    0    0  0.85162145731E+02  0.77683082630E+02  0.59047760570E+03  0.60162368240E+03  0.00000000000E+00 0.  1.
         11    1    1    2    0    0  0.15124778563E+02 -0.32740356179E+01  0.10285760993E+02  0.18581579992E+02  0.00000000000E+00 0. -1.
<mgrwt>
<rscale>  0 0.17074492E+03</rscale>
<asrwt>0</asrwt>
<pdfrwt beam="1">  1        2 0.28530555E+00 0.17669457E+03</pdfrwt>
<pdfrwt beam="2">  1       -2 0.24608083E-02 0.17669457E+03</pdfrwt>
<totfact> 0.50167858E+03</totfact>
</mgrwt>
</event>
<event>
 6    1  0.4705246E-006  0.3789917E+03  0.7546771E-02  0.1052344E+00
          1   -1    0    0  501    0  0.00000000000E+00  0.00000000000E+00  0.43789070630E+03  0.43789070630E+03  0.00000000000E+00 0. -1.
         -1   -1    0    0    0  501 -0.00000000000E+00 -0.00000000000E+00 -0.35249597693E+03  0.35249597693E+03  0.00000000000E+00 0.  1.
          5    1    1    2  502    0 -0.45898923329E+02 -0.92408908349E+02  0.93757154193E+02  0.13949412700E+03  0.47000000000E+01 0.  1.
         -5    1    1    2    0  502 -0.21966963811E+03 -0.14735270578E+03  0.72128225398E+02  0.27421185370E+03  0.47000000000E+01 0.  1.
        -11    1    1    2    0    0  0.13533491141E+03  0.12295525824E+03 -0.85092641079E+02  0.20167868340E+03  0.00000000000E+00 0.  1.
         11    1    1    2    0    0  0.13023365003E+03  0.11680635589E+03  0.46019908658E+01  0.17500201913E+03  0.00000000000E+00 0. -1.
<mgrwt>
<rscale>  0 0.37620835E+03</rscale>
<asrwt>0</asrwt>
<pdfrwt beam="1">  1        1 0.67367801E-01 0.37899166E+03</pdfrwt>
<pdfrwt beam="2">  1       -1 0.54230151E-01 0.37899166E+03</pdfrwt>
<totfact> 0.18958989E+02</totfact>
</mgrwt>
</event>
<event>
 6    1  0.4705246E-006  0.1811349E+03  0.7546771E-02  0.1184897E+00
          1   -1    0    0  501    0  0.00000000000E+00  0.00000000000E+00  0.79883868836E+03  0.79883868836E+03  0.00000000000E+00 0. -1.
         -1   -1    0    0    0  501 -0.00000000000E+00 -0.00000000000E+00 -0.63854803557E+02  0.63854803557E+02  0.00000000000E+00 0.  1.
          5    1    1    2  502    0 -0.38759875452E+01 -0.42114655448E+02  0.62260762215E+02  0.75413261398E+02  0.47000000000E+01 0.  1.
         -5    1    1    2    0  502  0.69102041143E+02  0.86700991044E+02  0.65695555782E+03  0.66626184709E+03  0.47000000000E+01 0. -1.
        -11    1    1    2    0    0 -0.43541836569E+02 -0.68562941727E+02  0.28781808708E+02  0.86169374041E+02  0.00000000000E+00 0.  1.
         11    1    1    2    0    0 -0.21684217029E+02  0.23976606132E+02 -0.13014243942E+02  0.34849009385E+02  0.00000000000E+00 0. -1.
<mgrwt>
<rscale>  0 0.16341239E+03</rscale>
<asrwt>0</asrwt>
<pdfrwt beam="1">  1        1 0.12289825E+00 0.18113490E+03</pdfrwt>
<pdfrwt beam="2">  1       -1 0.98238165E-02 0.18113490E+03</pdfrwt>
<totfact> 0.14440349E+03</totfact>
</mgrwt>
</event>
<event>
 6    1  0.4705246E-006  0.1292815E+03  0.7546771E-02  0.1249785E+00
          2   -1    0    0  501    0  0.00000000000E+00  0.00000000000E+00  0.30477243909E+03  0.30477243909E+03  0.00000000000E+00 0. -1.
         -2   -1    0    0    0  501 -0.00000000000E+00 -0.00000000000E+00 -0.41305205242E+02  0.41305205242E+02  0.00000000000E+00 0.  1.
          5    1    1    2  502    0 -0.41011667360E+01 -0.56452904460E+02  0.13170319936E+03  0.14342793561E+03  0.47000000000E+01 0. -1.
         -5    1    1    2    0  502 -0.37100724041E+02  0.55818259182E+02  0.78257393066E+02  0.10314286864E+03  0.47000000000E+01 0.  1.
        -11    1    1    2    0    0 -0.15822321083E+02 -0.11729988751E+02 -0.91496057785E+00  0.19717394184E+02  0.00000000000E+00 0. -1.
         11    1    1    2    0    0  0.57024211859E+02  0.12364634029E+02  0.54421602001E+02  0.79789445901E+02  0.00000000000E+00 0.  1.
<mgrwt>
<rscale>  0 0.11603487E+03</rscale>
<asrwt>0</asrwt>
<pdfrwt beam="1">  1        2 0.46888066E-01 0.12928152E+03</pdfrwt>
<pdfrwt beam="2">  1       -2 0.63546471E-02 0.12928152E+03</pdfrwt>
<totfact> 0.13640695E+04</totfact>
</mgrwt>
</event>
<event>
 6    1  0.4705246E-006  0.1671299E+03  0.7546771E-02  0.1193107E+00
         -3   -1    0    0    0  501 -0.00000000000E+00  0.00000000000E+00  0.41134859613E+03  0.41134859613E+03  0.00000000000E+00 0.  1.
          3   -1    0    0  501    0  0.00000000000E+00 -0.00000000000E+00 -0.59762322593E+02  0.59762322593E+02  0.00000000000E+00 0. -1.
          5    1    1    2  502    0  0.97114948670E+02 -0.38357650855E+01  0.40565001844E+02  0.10542122995E+03  0.47000000000E+01 0. -1.
         -5    1    1    2    0  502 -0.39351954716E+02 -0.48256183725E+02  0.75898378230E+02  0.98284736484E+02  0.47000000000E+01 0.  1.
        -11    1    1    2    0    0 -0.74250737864E+02  0.65956439585E+02  0.15225568470E+03  0.18178343576E+03  0.00000000000E+00 0. -1.
         11    1    1    2    0    0  0.16487743910E+02 -0.13864490774E+02  0.82867208770E+02  0.85621516530E+02  0.00000000000E+00 0.  1.
<mgrwt>
<rscale>  0 0.15615496E+03</rscale>
<asrwt>0</asrwt>
<pdfrwt beam="2">  1        3 0.91942037E-02 0.16712990E+03</pdfrwt>
<pdfrwt beam="1">  1       -3 0.63284398E-01 0.16712990E+03</pdfrwt>
<totfact> 0.49869188E+02</totfact>
</mgrwt>
</event>
<event>
 6    1  0.4705246E-006  0.1635444E+03  0.7546771E-02  0.1191881E+00
         -2   -1    0    0    0  501 -0.00000000000E+00  0.00000000000E+00  0.41564008406E+02  0.41564008406E+02  0.00000000000E+00 0. -1.
          2   -1    0    0  501    0  0.00000000000E+00 -0.00000000000E+00 -0.16250501283E+04  0.16250501283E+04  0.00000000000E+00 0.  1.
          5    1    1    2  502    0 -0.28792466887E+02 -0.23867685092E+00 -0.31749157489E+03  0.31882919132E+03  0.47000000000E+01 0.  1.
         -5    1    1    2    0  502  0.13197417763E+03 -0.21573689620E+02 -0.11716256975E+04  0.11792419059E+04  0.47000000000E+01 0.  1.
        -11    1    1    2    0    0 -0.11846475180E+03  0.30109440562E+02 -0.83670251095E+02  0.14812557763E+03  0.00000000000E+00 0.  1.
         11    1    1    2    0    0  0.15283041060E+02 -0.82970740904E+01 -0.10698596429E+02  0.20417461842E+02  0.00000000000E+00 0. -1.
<mgrwt>
<rscale>  0 0.15721160E+03</rscale>
<asrwt>0</asrwt>
<pdfrwt beam="2">  1        2 0.25000772E+00 0.16354437E+03</pdfrwt>
<pdfrwt beam="1">  1       -2 0.63944626E-02 0.16354437E+03</pdfrwt>
<totfact> 0.15799946E+03</totfact>
</mgrwt>
</event>
<event>
 6    1  0.4705246E-006  0.1301174E+03  0.7546771E-02  0.1241586E+00
          4   -1    0    0  501    0  0.00000000000E+00  0.00000000000E+00  0.34218030052E+02  0.34218030052E+02  0.00000000000E+00 0. -1.
         -4   -1    0    0    0  501 -0.00000000000E+00 -0.00000000000E+00 -0.37818064383E+03  0.37818064383E+03  0.00000000000E+00 0.  1.
          5    1    1    2  502    0  0.49844184470E+02  0.49751986091E+02 -0.56792667800E+02  0.90593597794E+02  0.47000000000E+01 0.  1.
         -5    1    1    2    0  502 -0.14839784818E+02 -0.40979740586E+02 -0.12889283933E+03  0.13614335233E+03  0.47000000000E+01 0.  1.
        -11    1    1    2    0    0 -0.62126096221E+02  0.91312441613E+01 -0.86684917392E+02  0.10703880770E+03  0.00000000000E+00 0. -1.
         11    1    1    2    0    0  0.27121696569E+02 -0.17903489666E+02 -0.71592189254E+02  0.78622916056E+02  0.00000000000E+00 0.  1.
<mgrwt>
<rscale>  0 0.12092052E+03</rscale>
<asrwt>0</asrwt>
<pdfrwt beam="1">  1        4 0.52643126E-02 0.13011740E+03</pdfrwt>
<pdfrwt beam="2">  1       -4 0.58181635E-01 0.13011740E+03</pdfrwt>
<totfact> 0.10187443E+03</totfact>
</mgrwt>
</event>
<event>
 6    1  0.4705246E-006  0.1574801E+03  0.7546771E-02  0.1200097E+00
         -1   -1    0    0    0  501 -0.00000000000E+00  0.00000000000E+00  0.20182695915E+03  0.20182695915E+03  0.00000000000E+00 0.  1.
          1   -1    0    0  501    0  0.00000000000E+00 -0.00000000000E+00 -0.12457695572E+03  0.12457695572E+03  0.00000000000E+00 0. -1.
          5    1    1    2  502    0  0.16412732925E+02  0.33440801263E+02 -0.27821987512E+02  0.46731338311E+02  0.47000000000E+01 0.  1.
         -5    1    1    2    0  502  0.52684218345E+02 -0.99766232225E+02  0.15168934137E+01  0.11293059338E+03  0.47000000000E+01 0.  1.
        -11    1    1    2    0    0 -0.30641892280E+02  0.55359069356E+01  0.87727435202E+02  0.93089605839E+02  0.00000000000E+00 0.  1.
         11    1    1    2    0    0 -0.38455058989E+02  0.60789524026E+02  0.15827662322E+02  0.73652377340E+02  0.00000000000E+00 0. -1.
<mgrwt>
<rscale>  0 0.15030650E+03</rscale>
<asrwt>0</asrwt>
<pdfrwt beam="2">  1        1 0.19165685E-01 0.15748008E+03</pdfrwt>
<pdfrwt beam="1">  1       -1 0.31050301E-01 0.15748008E+03</pdfrwt>
<totfact> 0.25366326E+03</totfact>
</mgrwt>
</event>
<event>
 6    1  0.4705246E-006  0.1307765E+03  0.7546771E-02  0.1239911E+00
         -2   -1    0    0    0  501 -0.00000000000E+00  0.00000000000E+00  0.37551684831E+02  0.37551684831E+02  0.00000000000E+00 0.  1.
          2   -1    0    0  501    0  0.00000000000E+00 -0.00000000000E+00 -0.45790586989E+03  0.45790586989E+03  0.00000000000E+00 0. -1.
          5    1    1    2  502    0  0.28477488420E+02  0.78617624368E+02 -0.20267814691E+03  0.21929938313E+03  0.47000000000E+01 0. -1.
         -5    1    1    2    0  502 -0.19781189051E+02 -0.41170718357E+02 -0.14858850501E+03  0.15552156543E+03  0.47000000000E+01 0. -1.
        -11    1    1    2    0    0  0.25511599388E+02 -0.54061499007E+02 -0.33359158110E+02  0.68456707546E+02  0.00000000000E+00 0. -1.
         11    1    1    2    0    0 -0.34207898757E+02  0.16614592996E+02 -0.35728375033E+02  0.52179898623E+02  0.00000000000E+00 0.  1.
<mgrwt>
<rscale>  0 0.12195233E+03</rscale>
<asrwt>0</asrwt>
<pdfrwt beam="2">  1        2 0.70447057E-01 0.13077646E+03</pdfrwt>
<pdfrwt beam="1">  1       -2 0.57771823E-02 0.13077646E+03</pdfrwt>
<totfact> 0.10222555E+04</totfact>
</mgrwt>
</event>
<event>
 6    1  0.4705246E-006  0.1272788E+03  0.7546771E-02  0.1246030E+00
          2   -1    0    0  501    0  0.00000000000E+00  0.00000000000E+00  0.99959418333E+03  0.99959418333E+03  0.00000000000E+00 0.  1.
         -2   -1    0    0    0  501 -0.00000000000E+00 -0.00000000000E+00 -0.18083438365E+02  0.18083438365E+02  0.00000000000E+00 0. -1.
          5    1    1    2  502    0 -0.54162272349E+02 -0.13074097933E+02  0.21112339041E+03  0.21840251775E+03  0.47000000000E+01 0. -1.
         -5    1    1    2    0  502  0.54000937249E+02 -0.10898219183E+02  0.61340624972E+03  0.61589300174E+03  0.47000000000E+01 0. -1.
        -11    1    1    2    0    0  0.14624775721E+02  0.25831345933E+02  0.16437395459E+03  0.16703274962E+03  0.00000000000E+00 0.  1.
         11    1    1    2    0    0 -0.14463440622E+02 -0.18590288175E+01 -0.73928497414E+01  0.16349352589E+02  0.00000000000E+00 0. -1.
<mgrwt>
<rscale>  0 0.11823944E+03</rscale>
<asrwt>0</asrwt>
<pdfrwt beam="1">  1        2 0.15378368E+00 0.12727877E+03</pdfrwt>
<pdfrwt beam="2">  1       -2 0.27820682E-02 0.12727877E+03</pdfrwt>
<totfact> 0.11926994E+04</totfact>
</mgrwt>
</event>
<event>
 6    1  0.4705246E-006  0.1295880E+03  0.7546771E-02  0.1249162E+00
         -3   -1    0    0    0  501 -0.00000000000E+00  0.00000000000E+00  0.10323940377E+03  0.10323940377E+03  0.00000000000E+00 0.  1.
          3   -1    0    0  501    0  0.00000000000E+00 -0.00000000000E+00 -0.13071309974E+03  0.13071309974E+03  0.00000000000E+00 0. -1.
          5    1    1    2  502    0 -0.24580573957E+02  0.37908363057E+02 -0.42628598406E+02  0.62293948404E+02  0.47000000000E+01 0.  1.
         -5    1    1    2    0  502  0.35032602631E+02 -0.70439196743E+02 -0.18320494318E+02  0.80911644384E+02  0.47000000000E+01 0.  1.
        -11    1    1    2    0    0 -0.17121327911E+01 -0.20643533872E+02  0.30380344921E+02  0.36770263080E+02  0.00000000000E+00 0.  1.
         11    1    1    2    0    0 -0.87398958831E+01  0.53174367559E+02  0.30950518300E+01  0.53976647647E+02  0.00000000000E+00 0. -1.
<mgrwt>
<rscale>  0 0.11639676E+03</rscale>
<asrwt>0</asrwt>
<pdfrwt beam="2">  1        3 0.20109708E-01 0.12958800E+03</pdfrwt>
<pdfrwt beam="1">  1       -3 0.15882985E-01 0.12958800E+03</pdfrwt>
<totfact> 0.17017656E+03</totfact>
</mgrwt>
</event>
<event>
 6    1  0.4705246E-006  0.1376890E+03  0.7546771E-02  0.1228109E+00
         -1   -1    0    0    0  501 -0.00000000000E+00  0.00000000000E+00  0.26514747966E+02  0.26514747966E+02  0.00000000000E+00 0.  1.
          1   -1    0    0  501    0  0.00000000000E+00 -0.00000000000E+00 -0.10799180300E+04  0.10799180300E+04  0.00000000000E+00 0. -1.
          5    1    1    2  502    0  0.32662276225E+01 -0.40250358747E+02 -0.16879676089E+03  0.17362371989E+03  0.47000000000E+01 0.  1.
         -5    1    1    2    0  502 -0.50393657380E+02  0.74130635086E+02 -0.77059351830E+03  0.77580366859E+03  0.47000000000E+01 0.  1.
        -11    1    1    2    0    0  0.25531470877E+02  0.29385973157E+02 -0.57665567170E+02  0.69575204351E+02  0.00000000000E+00 0. -1.
         11    1    1    2    0    0  0.21595958880E+02 -0.63266249495E+02 -0.56347435690E+02  0.87430185142E+02  0.00000000000E+00 0.  1.
<mgrwt>
<rscale>  0 0.12956070E+03</rscale>
<asrwt>0</asrwt>
<pdfrwt beam="2">  1        1 0.16614124E+00 0.13768903E+03</pdfrwt>
<pdfrwt beam="1">  1       -1 0.40791919E-02 0.13768903E+03</pdfrwt>
<totfact> 0.32824075E+03</totfact>
</mgrwt>
</event>
<event>
 6    1  0.4705246E-006  0.1271851E+03  0.7546771E-02  0.1248687E+00
          1   -1    0    0  501    0  0.00000000000E+00  0.00000000000E+00  0.20181147097E+03  0.20181147097E+03  0.00000000000E+00 0. -1.
         -1   -1    0    0    0  501 -0.00000000000E+00 -0.00000000000E+00 -0.59296017489E+02  0.59296017489E+02  0.00000000000E+00 0.  1.
          5    1    1    2  502    0  0.18065761166E+02 -0.49996459650E+02  0.21070360706E+02  0.57376544026E+02  0.47000000000E+01 0. -1.
         -5    1    1    2    0  502 -0.41284181328E+02  0.54683246631E+02  0.77367591726E+02  0.10345276864E+03  0.47000000000E+01 0. -1.
        -11    1    1    2    0    0 -0.22239061644E+01 -0.40365330052E+02  0.35376725731E+01  0.40581039367E+02  0.00000000000E+00 0.  1.
         11    1    1    2    0    0  0.25442326326E+02  0.35678543071E+02  0.40539828472E+02  0.59697136423E+02  0.00000000000E+00 0. -1.
<mgrwt>
<rscale>  0 0.11667397E+03</rscale>
<asrwt>0</asrwt>
<pdfrwt beam="1">  1        1 0.31047918E-01 0.12718505E+03</pdfrwt>
<pdfrwt beam="2">  1       -1 0.91224643E-02 0.12718505E+03</pdfrwt>
<totfact> 0.95672738E+03</totfact>
</mgrwt>
</event>
<event>
 6    1  0.4705246E-006  0.1519704E+03  0.7546771E-02  0.1206897E+00
         -1   -1    0    0    0  501 -0.00000000000E+00  0.00000000000E+00  0.30773731283E+02  0.30773731283E+02  0.00000000000E+00 0.  1.
          1   -1    0    0  501    0  0.00000000000E+00 -0.00000000000E+00 -0.62825056581E+03  0.62825056581E+03  0.00000000000E+00 0. -1.
          5    1    1    2  502    0 -0.48987588008E+02  0.53180778519E+00 -0.65064211298E+02  0.81581298042E+02  0.47000000000E+01 0.  1.
         -5    1    1    2    0  502  0.46772276253E+02  0.85880812445E+02 -0.24126124190E+03  0.26036942335E+03  0.47000000000E+01 0.  1.
        -11    1    1    2    0    0 -0.26651576026E+02 -0.76045388601E+02 -0.12939215871E+03  0.15243207788E+03  0.00000000000E+00 0.  1.
         11    1    1    2    0    0  0.28866887781E+02 -0.10367231628E+02 -0.16175922262E+03  0.16464149782E+03  0.00000000000E+00 0. -1.
<mgrwt>
<rscale>  0 0.14488930E+03</rscale>
<asrwt>0</asrwt>
<pdfrwt beam="2">  1        1 0.96653916E-01 0.15197043E+03</pdfrwt>
<pdfrwt beam="1">  1       -1 0.47344210E-02 0.15197043E+03</pdfrwt>
<totfact> 0.61084545E+03</totfact>
</mgrwt>
</event>
<event>
 6    1  0.4705246E-006  0.1402955E+03  0.7546771E-02  0.1223329E+00
         -1   -1    0    0    0  501 -0.00000000000E+00  0.00000000000E+00  0.14238804627E+03  0.14238804627E+03  0.00000000000E+00 0.  1.
          1   -1    0    0  501    0  0.00000000000E+00 -0.00000000000E+00 -0.11244813568E+03  0.11244813568E+03  0.00000000000E+00 0. -1.
          5    1    1    2  502    0 -0.83041030502E+02 -0.32255384963E+02 -0.41824170254E+01  0.89307363740E+02  0.47000000000E+01 0.  1.
         -5    1    1    2    0  502  0.44409465463E+02 -0.18904378683E+02  0.17758995481E+02  0.51643470803E+02  0.47000000000E+01 0.  1.
        -11    1    1    2    0    0  0.46524452707E+02  0.32756150839E+02  0.49335169873E+02  0.75309024053E+02  0.00000000000E+00 0.  1.
         11    1    1    2    0    0 -0.78928876678E+01  0.18403612808E+02 -0.32971837734E+02  0.38576323356E+02  0.00000000000E+00 0. -1.
<mgrwt>
<rscale>  0 0.13282114E+03</rscale>
<asrwt>0</asrwt>
<pdfrwt beam="2">  1        1 0.17299713E-01 0.14029545E+03</pdfrwt>
<pdfrwt beam="1">  1       -1 0.21905853E-01 0.14029545E+03</pdfrwt>
<totfact> 0.51221777E+03</totfact>
</mgrwt>
</event>
<event>
 6    1  0.4705246E-006  0.1323375E+03  0.7546771E-02  0.1237790E+00
          1   -1    0    0  501    0  0.00000000000E+00  0.00000000000E+00  0.92344852396E+02  0.92344852396E+02  0.00000000000E+00 0. -1.
         -1   -1    0    0    0  501 -0.00000000000E+00 -0.00000000000E+00 -0.15216018606E+03  0.15216018606E+03  0.00000000000E+00 0.  1.
          5    1    1    2  502    0 -0.72567865134E+02  0.46200353374E+02 -0.16351099366E+01  0.86170361996E+02  0.47000000000E+01 0.  1.
         -5    1    1    2    0  502  0.43490174785E+02 -0.13862668956E+02 -0.73440981278E+01  0.46471439301E+02  0.47000000000E+01 0.  1.
        -11    1    1    2    0    0  0.12122565819E+02  0.10382331749E+02  0.21124939492E+02  0.26476640329E+02  0.00000000000E+00 0. -1.
         11    1    1    2    0    0  0.16955124530E+02 -0.42720016168E+02 -0.71961065093E+02  0.85386596831E+02  0.00000000000E+00 0.  1.
<mgrwt>
<rscale>  0 0.12327524E+03</rscale>
<asrwt>0</asrwt>
<pdfrwt beam="1">  1        1 0.14206900E-01 0.13233753E+03</pdfrwt>
<pdfrwt beam="2">  1       -1 0.23409259E-01 0.13233753E+03</pdfrwt>
<totfact> 0.59071874E+03</totfact>
</mgrwt>
</event>
<event>
 6    1  0.4705246E-006  0.3119528E+03  0.7546771E-02  0.1080870E+00
          2   -1    0    0  501    0  0.00000000000E+00  0.00000000000E+00  0.17692918104E+04  0.17692918104E+04  0.00000000000E+00 0.  1.
         -2   -1    0    0    0  501 -0.00000000000E+00 -0.00000000000E+00 -0.97372890709E+02  0.97372890709E+02  0.00000000000E+00 0. -1.
          5    1    1    2  502    0 -0.41884187620E+02 -0.20913421429E+02  0.84721068285E+02  0.96909265707E+02  0.47000000000E+01 0. -1.
         -5    1    1    2    0  502 -0.22374276033E+03 -0.84593822057E+02  0.13907920248E+04  0.14112198566E+04  0.47000000000E+01 0. -1.
        -11    1    1    2    0    0  0.64038864256E+02  0.67688935008E+02  0.79279452512E+02  0.12234377650E+03  0.00000000000E+00 0. -1.
         11    1    1    2    0    0  0.20158808369E+03  0.37818308479E+02  0.11712637408E+03  0.23619180225E+03  0.00000000000E+00 0.  1.
<mgrwt>
<rscale>  0 0.30890890E+03</rscale>
<asrwt>0</asrwt>
<pdfrwt beam="1">  1        2 0.27219872E+00 0.31195282E+03</pdfrwt>
<pdfrwt beam="2">  1       -2 0.14980446E-01 0.31195282E+03</pdfrwt>
<totfact> 0.33608766E+02</totfact>
</mgrwt>
</event>
<event>
 6    1  0.4705246E-006  0.1399525E+03  0.7546771E-02  0.1224646E+00
         -2   -1    0    0    0  501 -0.00000000000E+00  0.00000000000E+00  0.21212094693E+02  0.21212094693E+02  0.00000000000E+00 0.  1.
          2   -1    0    0  501    0  0.00000000000E+00 -0.00000000000E+00 -0.74091271252E+03  0.74091271252E+03  0.00000000000E+00 0. -1.
          5    1    1    2  502    0 -0.35493660763E+02  0.14033571512E+02 -0.36234699865E+03  0.36438191299E+03  0.47000000000E+01 0.  1.
         -5    1    1    2    0  502 -0.15535636256E+02 -0.50877530008E+02 -0.58903264394E+02  0.79508261268E+02  0.47000000000E+01 0.  1.
        -11    1    1    2    0    0  0.55150373555E+02  0.29520890687E+01 -0.26406395395E+03  0.26977777949E+03  0.00000000000E+00 0. -1.
         11    1    1    2    0    0 -0.41210765358E+01  0.33891869428E+02 -0.34386400835E+02  0.48456853463E+02  0.00000000000E+00 0.  1.
<mgrwt>
<rscale>  0 0.13191174E+03</rscale>
<asrwt>0</asrwt>
<pdfrwt beam="2">  1        2 0.11398657E+00 0.13995250E+03</pdfrwt>
<pdfrwt beam="1">  1       -2 0.32633991E-02 0.13995250E+03</pdfrwt>
<totfact> 0.13943547E+04</totfact>
</mgrwt>
</event>
<event>
 6    1  0.4705246E-006  0.1787283E+03  0.7546771E-02  0.1174888E+00
          3   -1    0    0  501    0  0.00000000000E+00  0.00000000000E+00  0.38149178610E+03  0.38149178610E+03  0.00000000000E+00 0. -1.
         -3   -1    0    0    0  501 -0.00000000000E+00 -0.00000000000E+00 -0.74612220240E+02  0.74612220240E+02  0.00000000000E+00 0.  1.
          5    1    1    2  502    0  0.98445058650E+02 -0.71389462179E+02  0.74360584559E+02  0.14261651874E+03  0.47000000000E+01 0. -1.
         -5    1    1    2    0  502  0.16859094568E+02  0.17511635907E+02  0.11554118540E+03  0.11816404693E+03  0.47000000000E+01 0. -1.
        -11    1    1    2    0    0 -0.11698326670E+03  0.31639652693E+02  0.62278526125E+02  0.13625258576E+03  0.00000000000E+00 0.  1.
         11    1    1    2    0    0  0.16791134786E+01  0.22238173579E+02  0.54699269775E+02  0.59070854912E+02  0.00000000000E+00 0. -1.
<mgrwt>
<rscale>  0 0.17286961E+03</rscale>
<asrwt>0</asrwt>
<pdfrwt beam="1">  1        3 0.58691043E-01 0.17872834E+03</pdfrwt>
<pdfrwt beam="2">  1       -3 0.11478803E-01 0.17872834E+03</pdfrwt>
<totfact> 0.40673073E+02</totfact>
</mgrwt>
</event>
<event>
 6    1  0.4705246E-006  0.2791027E+03  0.7546771E-02  0.1096180E+00
          1   -1    0    0  501    0  0.00000000000E+00  0.00000000000E+00  0.75151542911E+03  0.75151542911E+03  0.00000000000E+00 0. -1.
         -1   -1    0    0    0  501 -0.00000000000E+00 -0.00000000000E+00 -0.25913743965E+02  0.25913743965E+02  0.00000000000E+00 0.  1.
          5    1    1    2  502    0 -0.84068585543E+02 -0.38099092078E+02  0.49891321821E+03  0.50740078557E+03  0.47000000000E+01 0. -1.
         -5    1    1    2    0  502  0.14315620675E+02 -0.12635248729E+01  0.22491964266E+01  0.15286673117E+02  0.47000000000E+01 0. -1.
        -11    1    1    2    0    0  0.37187923696E+02  0.66452303957E+02  0.16529957958E+03  0.18199670706E+03  0.00000000000E+00 0.  1.
         11    1    1    2    0    0  0.32565041171E+02 -0.27089687007E+02  0.59139690932E+02  0.72745007335E+02  0.00000000000E+00 0. -1.
<mgrwt>
<rscale>  0 0.27910269E+03</rscale>
<asrwt>0</asrwt>
<pdfrwt beam="1">  1        1 0.11561774E+00 0.27910269E+03</pdfrwt>
<pdfrwt beam="2">  1       -1 0.39867304E-02 0.27910269E+03</pdfrwt>
<totfact> 0.62560201E+03</totfact>
</mgrwt>
</event>
<event>
 6    1  0.4705246E-006  0.1384995E+03  0.7546771E-02  0.1226862E+00
         -4   -1    0    0    0  501 -0.00000000000E+00  0.00000000000E+00  0.28233044203E+02  0.28233044203E+02  0.00000000000E+00 0.  1.
          4   -1    0    0  501    0  0.00000000000E+00 -0.00000000000E+00 -0.54366457976E+03  0.54366457976E+03  0.00000000000E+00 0. -1.
          5    1    1    2  502    0 -0.67883334730E+02  0.63424652431E+02 -0.19422535846E+03  0.21535183663E+03  0.47000000000E+01 0. -1.
         -5    1    1    2    0  502  0.44010646038E+02 -0.87768239530E+01 -0.11135951111E+03  0.12015406908E+03  0.47000000000E+01 0. -1.
        -11    1    1    2    0    0 -0.17401097270E+02 -0.58890576765E+01 -0.14547556864E+01  0.18428117121E+02  0.00000000000E+00 0.  1.
         11    1    1    2    0    0  0.41273785962E+02 -0.48758770801E+02 -0.20839191030E+03  0.21796360113E+03  0.00000000000E+00 0. -1.
<mgrwt>
<rscale>  0 0.13040068E+03</rscale>
<asrwt>0</asrwt>
<pdfrwt beam="2">  1        4 0.83640699E-01 0.13849946E+03</pdfrwt>
<pdfrwt beam="1">  1       -4 0.43435456E-02 0.13849946E+03</pdfrwt>
<totfact> 0.64198039E+02</totfact>
</mgrwt>
</event>
<event>
 6    1  0.4705246E-006  0.1205324E+03  0.7546771E-02  0.1305644E+00
         -2   -1    0    0    0  501 -0.00000000000E+00  0.00000000000E+00  0.77229626796E+01  0.77229626796E+01  0.00000000000E+00 0.  1.
          2   -1    0    0  501    0  0.00000000000E+00 -0.00000000000E+00 -0.88950047263E+03  0.88950047263E+03  0.00000000000E+00 0. -1.
          5    1    1    2  502    0 -0.55487201255E+02  0.12273385241E+02 -0.38799169594E+03  0.39215954866E+03  0.47000000000E+01 0. -1.
         -5    1    1    2    0  502  0.58176545359E+02 -0.24749886357E+02 -0.39508640481E+03  0.40014050604E+03  0.47000000000E+01 0.  1.
        -11    1    1    2    0    0 -0.20493886103E+01 -0.11465779988E+02 -0.32735874681E+02  0.34746245776E+02  0.00000000000E+00 0. -1.
         11    1    1    2    0    0 -0.63995549372E+00  0.23942281104E+02 -0.65963534516E+02  0.70177134833E+02  0.00000000000E+00 0.  1.
<mgrwt>
<rscale>  0 0.88856594E+02</rscale>
<asrwt>0</asrwt>
<pdfrwt beam="2">  1        2 0.13684614E+00 0.12053242E+03</pdfrwt>
<pdfrwt beam="1">  1       -2 0.11881489E-02 0.12053242E+03</pdfrwt>
<totfact> 0.47444162E+04</totfact>
</mgrwt>
</event>
<event>
 6    1  0.4705246E-006  0.1319343E+03  0.7546771E-02  0.1237513E+00
          2   -1    0    0  501    0  0.00000000000E+00  0.00000000000E+00  0.24805031927E+03  0.24805031927E+03  0.00000000000E+00 0. -1.
         -2   -1    0    0    0  501 -0.00000000000E+00 -0.00000000000E+00 -0.73133789219E+02  0.73133789219E+02  0.00000000000E+00 0.  1.
          5    1    1    2  502    0  0.28534365960E+02  0.65506292463E+02  0.12860593886E+03  0.14719667763E+03  0.47000000000E+01 0.  1.
         -5    1    1    2    0  502  0.11987010932E+02 -0.53711974626E+02  0.47503329522E+02  0.72851362135E+02  0.47000000000E+01 0.  1.
        -11    1    1    2    0    0  0.27265378499E+02  0.48775810328E+01  0.11840602805E+02  0.30122940364E+02  0.00000000000E+00 0.  1.
         11    1    1    2    0    0 -0.67786755390E+02 -0.16671898870E+02 -0.13033341142E+02  0.71013128361E+02  0.00000000000E+00 0. -1.
<mgrwt>
<rscale>  0 0.12344892E+03</rscale>
<asrwt>0</asrwt>
<pdfrwt beam="1">  1        2 0.38161587E-01 0.13193432E+03</pdfrwt>
<pdfrwt beam="2">  1       -2 0.11251352E-01 0.13193432E+03</pdfrwt>
<totfact> 0.70088629E+03</totfact>
</mgrwt>
</event>
<event>
 6    1  0.4705246E-006  0.1609719E+03  0.7546771E-02  0.1214615E+00
         -1   -1    0    0    0  501 -0.00000000000E+00  0.00000000000E+00  0.74054724087E+02  0.74054724087E+02  0.00000000000E+00 0.  1.
          1   -1    0    0  501    0  0.00000000000E+00 -0.00000000000E+00 -0.23912669889E+03  0.23912669889E+03  0.00000000000E+00 0. -1.
          5    1    1    2  502    0  0.73289212296E+02 -0.35965005042E+02 -0.15152426377E+03  0.17218154006E+03  0.47000000000E+01 0. -1.
         -5    1    1    2    0  502 -0.42365156151E+02  0.27356769879E+02 -0.26588823110E+01  0.50718428298E+02  0.47000000000E+01 0.  1.
        -11    1    1    2    0    0  0.15270542636E+02  0.20015951725E+02 -0.29859698013E+02  0.39056745401E+02  0.00000000000E+00 0. -1.
         11    1    1    2    0    0 -0.46194598781E+02 -0.11407716562E+02  0.18970869285E+02  0.51224709224E+02  0.00000000000E+00 0.  1.
<mgrwt>
<rscale>  0 0.13904863E+03</rscale>
<asrwt>0</asrwt>
<pdfrwt beam="2">  1        1 0.36788722E-01 0.16097190E+03</pdfrwt>
<pdfrwt beam="1">  1       -1 0.11393035E-01 0.16097190E+03</pdfrwt>
<totfact> 0.56056609E+03</totfact>
</mgrwt>
</event>
<event>
 6    1  0.4705246E-006  0.1364217E+03  0.7546771E-02  0.1230944E+00
          1   -1    0    0  501    0  0.00000000000E+00  0.00000000000E+00  0.75154983058E+02  0.75154983058E+02  0.00000000000E+00 0. -1.
         -1   -1    0    0    0  501 -0.00000000000E+00 -0.00000000000E+00 -0.19908190622E+03  0.19908190622E+03  0.00000000000E+00 0.  1.
          5    1    1    2  502    0  0.53944999718E+02 -0.39701209826E+02 -0.69650310546E+02  0.96744533775E+02  0.47000000000E+01 0.  1.
         -5    1    1    2    0  502  0.69311473530E+00  0.41356237733E+02  0.22842961691E+02  0.47483783614E+02  0.47000000000E+01 0.  1.
        -11    1    1    2    0    0  0.81816788333E+01  0.22520165447E+02 -0.53591753913E+02  0.58704120876E+02  0.00000000000E+00 0.  1.
         11    1    1    2    0    0 -0.62819793286E+02 -0.24175193354E+02 -0.23527820398E+02  0.71304451018E+02  0.00000000000E+00 0. -1.
<mgrwt>
<rscale>  0 0.12767714E+03</rscale>
<asrwt>0</asrwt>
<pdfrwt beam="1">  1        1 0.11562305E-01 0.13642170E+03</pdfrwt>
<pdfrwt beam="2">  1       -1 0.30627985E-01 0.13642170E+03</pdfrwt>
<totfact> 0.49636787E+03</totfact>
</mgrwt>
</event>
<event>
 6    1  0.1091029E-005  0.9857298E+03  0.7546771E-02  0.9398693E-01
         -1   -1    0    0    0  501 -0.00000000000E+00  0.00000000000E+00  0.27037257656E+04  0.27037257656E+04  0.00000000000E+00 0.  1.
          1   -1    0    0  501    0  0.00000000000E+00 -0.00000000000E+00 -0.27988606199E+03  0.27988606199E+03  0.00000000000E+00 0. -1.
          5    1    1    2  502    0 -0.13465668545E+03  0.70191490530E+03  0.14612192898E+04  0.16266532698E+04  0.47000000000E+01 0. -1.
         -5    1    1    2    0  502 -0.25998648227E+02  0.28990043361E+02 -0.68900125913E+02  0.79282215373E+02  0.47000000000E+01 0.  1.
        -11    1    1    2    0    0  0.13045177434E+03 -0.69271022221E+03  0.97412585745E+03  0.12024085427E+04  0.00000000000E+00 0.  1.
         11    1    1    2    0    0  0.30203559336E+02 -0.38194726453E+02  0.57394682273E+02  0.75267799746E+02  0.00000000000E+00 0. -1.
<mgrwt>
<rscale>  0 0.92183309E+03</rscale>
<asrwt>0</asrwt>
<pdfrwt beam="2">  1        1 0.43059396E-01 0.98572979E+03</pdfrwt>
<pdfrwt beam="1">  1       -1 0.41595779E+00 0.98572979E+03</pdfrwt>
<totfact> 0.54920576E-01</totfact>
</mgrwt>
</event>
<event>
 6    1  0.4705246E-006  0.1320357E+03  0.7546771E-02  0.1234925E+00
         -2   -1    0    0    0  501 -0.00000000000E+00  0.00000000000E+00  0.11819535195E+02  0.11819535195E+02  0.00000000000E+00 0.  1.
          2   -1    0    0  501    0  0.00000000000E+00 -0.00000000000E+00 -0.13696571095E+04  0.13696571095E+04  0.00000000000E+00 0. -1.
          5    1    1    2  502    0  0.43065820511E+02 -0.12081874951E+02 -0.49798743692E+03  0.50001421372E+03  0.47000000000E+01 0.  1.
         -5    1    1    2    0  502 -0.81080999475E+02 -0.69801693403E+01 -0.48532265746E+03  0.49212094355E+03  0.47000000000E+01 0.  1.
        -11    1    1    2    0    0 -0.32513387737E+02  0.13510360213E+02 -0.10864041713E+03  0.11420328563E+03  0.00000000000E+00 0. -1.
         11    1    1    2    0    0  0.70528566700E+02  0.55516840779E+01 -0.26588706276E+03  0.27513820174E+03  0.00000000000E+00 0.  1.
<mgrwt>
<rscale>  0 0.12509213E+03</rscale>
<asrwt>0</asrwt>
<pdfrwt beam="2">  1        2 0.21071646E+00 0.13203571E+03</pdfrwt>
<pdfrwt beam="1">  1       -2 0.18183902E-02 0.13203571E+03</pdfrwt>
<totfact> 0.13797959E+04</totfact>
</mgrwt>
</event>
<event>
 6    1  0.4705246E-006  0.1531753E+03  0.7546771E-02  0.1205444E+00
          4   -1    0    0  501    0  0.00000000000E+00  0.00000000000E+00  0.97069030751E+02  0.97069030751E+02  0.00000000000E+00 0. -1.
         -4   -1    0    0    0  501 -0.00000000000E+00 -0.00000000000E+00 -0.21495226185E+03  0.21495226185E+03  0.00000000000E+00 0.  1.
          5    1    1    2  502    0 -0.14281090741E+02 -0.25939620869E+02  0.49915370950E+02  0.58227551388E+02  0.47000000000E+01 0.  1.
         -5    1    1    2    0  502 -0.50467109399E+02 -0.34438980085E+02 -0.75224303175E+02  0.97024524057E+02  0.47000000000E+01 0.  1.
        -11    1    1    2    0    0 -0.22626376358E+02  0.54909646978E+01 -0.18772569334E+02  0.29908409516E+02  0.00000000000E+00 0.  1.
         11    1    1    2    0    0  0.87374576498E+02  0.54887636256E+02 -0.73801729541E+02  0.12686080764E+03  0.00000000000E+00 0. -1.
<mgrwt>
<rscale>  0 0.14602555E+03</rscale>
<asrwt>0</asrwt>
<pdfrwt beam="1">  1        4 0.14933697E-01 0.15317528E+03</pdfrwt>
<pdfrwt beam="2">  1       -4 0.33069578E-01 0.15317528E+03</pdfrwt>
<totfact> 0.56859492E+02</totfact>
</mgrwt>
</event>
<event>
 6    1  0.4705246E-006  0.1702060E+03  0.7546771E-02  0.1191769E+00
         -2   -1    0    0    0  501 -0.00000000000E+00  0.00000000000E+00  0.40395525865E+02  0.40395525865E+02  0.00000000000E+00 0.  1.
          2   -1    0    0  501    0  0.00000000000E+00 -0.00000000000E+00 -0.58155371770E+03  0.58155371770E+03  0.00000000000E+00 0. -1.
          5    1    1    2  502    0  0.13598931921E+02 -0.21614122880E+02 -0.37315224820E+03  0.37405453024E+03  0.47000000000E+01 0. -1.
         -5    1    1    2    0  502  0.48756403512E+02 -0.16800720605E+02 -0.22127844727E+02  0.56313254289E+02  0.47000000000E+01 0.  1.
        -11    1    1    2    0    0 -0.59534651941E+02 -0.17156663934E+02 -0.10719808997E+03  0.12381500876E+03  0.00000000000E+00 0. -1.
         11    1    1    2    0    0 -0.28206834923E+01  0.55571507419E+02 -0.38680008931E+02  0.67766450276E+02  0.00000000000E+00 0.  1.
<mgrwt>
<rscale>  0 0.15730856E+03</rscale>
<asrwt>0</asrwt>
<pdfrwt beam="2">  1        2 0.89469797E-01 0.17020599E+03</pdfrwt>
<pdfrwt beam="1">  1       -2 0.62146967E-02 0.17020599E+03</pdfrwt>
<totfact> 0.71346398E+03</totfact>
</mgrwt>
</event>
<event>
 6    1  0.4705246E-006  0.1277634E+03  0.7546771E-02  0.1243861E+00
         -1   -1    0    0    0  501 -0.00000000000E+00  0.00000000000E+00  0.12168925012E+03  0.12168925012E+03  0.00000000000E+00 0.  1.
          1   -1    0    0  501    0  0.00000000000E+00 -0.00000000000E+00 -0.11801397995E+03  0.11801397995E+03  0.00000000000E+00 0. -1.
          5    1    1    2  502    0  0.22005551258E+02 -0.70174184712E+02 -0.94550837178E+01  0.74297705848E+02  0.47000000000E+01 0. -1.
         -5    1    1    2    0  502 -0.35086715476E+01  0.51296935657E+02 -0.28547559985E+02  0.58997792882E+02  0.47000000000E+01 0. -1.
        -11    1    1    2    0    0  0.14036288452E+02  0.50091689628E+02  0.29068195396E+02  0.59591566072E+02  0.00000000000E+00 0.  1.
         11    1    1    2    0    0 -0.32533168163E+02 -0.31214440574E+02  0.12609718477E+02  0.46816165276E+02  0.00000000000E+00 0. -1.
<mgrwt>
<rscale>  0 0.11953829E+03</rscale>
<asrwt>0</asrwt>
<pdfrwt beam="2">  1        1 0.18155997E-01 0.12776341E+03</pdfrwt>
<pdfrwt beam="1">  1       -1 0.18721423E-01 0.12776341E+03</pdfrwt>
<totfact> 0.61593235E+03</totfact>
</mgrwt>
</event>
<event>
 6    1  0.4705246E-006  0.3468981E+03  0.7546771E-02  0.1063895E+00
          2   -1    0    0  501    0  0.00000000000E+00  0.00000000000E+00  0.93890929647E+03  0.93890929647E+03  0.00000000000E+00 0.  1.
         -2   -1    0    0    0  501 -0.00000000000E+00 -0.00000000000E+00 -0.32042040137E+02  0.32042040137E+02  0.00000000000E+00 0. -1.
          5    1    1    2  502    0 -0.12517951951E+02  0.34923018762E+02  0.76064925435E+02  0.84760127665E+02  0.47000000000E+01 0.  1.
         -5    1    1    2    0  502 -0.10540342609E+03 -0.10040903635E+03  0.38398472436E+03  0.41068018622E+03  0.47000000000E+01 0.  1.
        -11    1    1    2    0    0  0.69258465139E+02  0.18749133638E+02  0.35138512654E+03  0.35863598838E+03  0.00000000000E+00 0.  1.
         11    1    1    2    0    0  0.48662912902E+02  0.46736883954E+02  0.95432480000E+02  0.11687503434E+03  0.00000000000E+00 0. -1.
<mgrwt>
<rscale>  0 0.34689808E+03</rscale>
<asrwt>0</asrwt>
<pdfrwt beam="1">  1        2 0.14444756E+00 0.34689808E+03</pdfrwt>
<pdfrwt beam="2">  1       -2 0.49295454E-02 0.34689808E+03</pdfrwt>
<totfact> 0.57612519E+03</totfact>
</mgrwt>
</event>
<event>
 6    1  0.4705246E-006  0.1674311E+03  0.7546771E-02  0.1187444E+00
          1   -1    0    0  501    0  0.00000000000E+00  0.00000000000E+00  0.13589577058E+04  0.13589577058E+04  0.00000000000E+00 0. -1.
         -1   -1    0    0    0  501 -0.00000000000E+00 -0.00000000000E+00 -0.38161982987E+02  0.38161982987E+02  0.00000000000E+00 0.  1.
          5    1    1    2  502    0  0.16285874285E+02 -0.77682312292E+01  0.80255695568E+03  0.80277352486E+03  0.47000000000E+01 0.  1.
         -5    1    1    2    0  502  0.55072986199E+02 -0.77768503832E+02  0.39114225794E+03  0.40261064311E+03  0.47000000000E+01 0.  1.
        -11    1    1    2    0    0 -0.19691423469E+02  0.10606829827E+02 -0.12095328803E+02  0.25427425667E+02  0.00000000000E+00 0.  1.
         11    1    1    2    0    0 -0.51667437016E+02  0.74929905234E+02  0.13919183799E+03  0.16630809514E+03  0.00000000000E+00 0. -1.
<mgrwt>
<rscale>  0 0.16111435E+03</rscale>
<asrwt>0</asrwt>
<pdfrwt beam="1">  1        1 0.20907038E+00 0.16743112E+03</pdfrwt>
<pdfrwt beam="2">  1       -1 0.58710753E-02 0.16743112E+03</pdfrwt>
<totfact> 0.12343294E+03</totfact>
</mgrwt>
</event>
<event>
 6    1  0.4705246E-006  0.1386721E+03  0.7546771E-02  0.1228115E+00
         -2   -1    0    0    0  501 -0.00000000000E+00  0.00000000000E+00  0.28794301677E+02  0.28794301677E+02  0.00000000000E+00 0.  1.
          2   -1    0    0  501    0  0.00000000000E+00 -0.00000000000E+00 -0.56166846323E+03  0.56166846323E+03  0.00000000000E+00 0. -1.
          5    1    1    2  502    0  0.35508150448E+02  0.93298619735E+01 -0.47036644084E+02  0.59853245187E+02  0.47000000000E+01 0. -1.
         -5    1    1    2    0  502 -0.62729611569E+02 -0.62841485228E+02 -0.33399134188E+03  0.34562459820E+03  0.47000000000E+01 0. -1.
        -11    1    1    2    0    0 -0.27004685558E+02  0.51678770554E+01 -0.71818058798E+02  0.76901193521E+02  0.00000000000E+00 0. -1.
         11    1    1    2    0    0  0.54226146679E+02  0.48343746199E+02 -0.80028116787E+02  0.10808372799E+03  0.00000000000E+00 0.  1.
<mgrwt>
<rscale>  0 0.12955685E+03</rscale>
<asrwt>0</asrwt>
<pdfrwt beam="2">  1        2 0.86410527E-01 0.13867211E+03</pdfrwt>
<pdfrwt beam="1">  1       -2 0.44298929E-02 0.13867211E+03</pdfrwt>
<totfact> 0.12216657E+04</totfact>
</mgrwt>
</event>
<event>
 6    1  0.4705246E-006  0.3160496E+03  0.7546771E-02  0.1077482E+00
         -2   -1    0    0    0  501 -0.00000000000E+00  0.00000000000E+00  0.13115425257E+03  0.13115425257E+03  0.00000000000E+00 0.  1.
          2   -1    0    0  501    0  0.00000000000E+00 -0.00000000000E+00 -0.19040048365E+03  0.19040048365E+03  0.00000000000E+00 0. -1.
          5    1    1    2  502    0 -0.10497819238E+02 -0.10077325405E+02 -0.10110011636E+03  0.10225008667E+03  0.47000000000E+01 0. -1.
         -5    1    1    2    0  502  0.75520170331E+02 -0.28405700677E+02 -0.10369502690E+02  0.81484946731E+02  0.47000000000E+01 0. -1.
        -11    1    1    2    0    0 -0.68849686564E+02 -0.46659738520E+01  0.62715773476E+02  0.93248693796E+02  0.00000000000E+00 0.  1.
         11    1    1    2    0    0  0.38273354703E+01  0.43148999934E+02 -0.10492385506E+02  0.44571009027E+02  0.00000000000E+00 0. -1.
<mgrwt>
<rscale>  0 0.31604957E+03</rscale>
<asrwt>0</asrwt>
<pdfrwt beam="2">  1        2 0.29292382E-01 0.31604957E+03</pdfrwt>
<pdfrwt beam="1">  1       -2 0.20177577E-01 0.31604957E+03</pdfrwt>
<totfact> 0.37285768E+03</totfact>
</mgrwt>
</event>
<event>
 6    1  0.4705246E-006  0.1873795E+03  0.7546771E-02  0.1166179E+00
         -2   -1    0    0    0  501 -0.00000000000E+00  0.00000000000E+00  0.19845300511E+02  0.19845300511E+02  0.00000000000E+00 0.  1.
          2   -1    0    0  501    0  0.00000000000E+00 -0.00000000000E+00 -0.15750779407E+04  0.15750779407E+04  0.00000000000E+00 0. -1.
          5    1    1    2  502    0  0.19496718769E+02  0.29555383534E+02 -0.57444600360E+03  0.57555533512E+03  0.47000000000E+01 0. -1.
         -5    1    1    2    0  502  0.93744702140E+02  0.52065139281E+02 -0.29678830506E+03  0.31560138772E+03  0.47000000000E+01 0. -1.
        -11    1    1    2    0    0 -0.58946176956E+02 -0.81571322211E+02 -0.55094239277E+03  0.56005897237E+03  0.00000000000E+00 0. -1.
         11    1    1    2    0    0 -0.54295243953E+02 -0.49200604161E-01 -0.13305593873E+03  0.14370754596E+03  0.00000000000E+00 0.  1.
<mgrwt>
<rscale>  0 0.18168829E+03</rscale>
<asrwt>0</asrwt>
<pdfrwt beam="2">  1        2 0.24231967E+00 0.18737952E+03</pdfrwt>
<pdfrwt beam="1">  1       -2 0.30531233E-02 0.18737952E+03</pdfrwt>
<totfact> 0.51003184E+03</totfact>
</mgrwt>
</event>
<event>
 6    1  0.4705246E-006  0.1303668E+03  0.7546771E-02  0.1240679E+00
         -2   -1    0    0    0  501 -0.00000000000E+00  0.00000000000E+00  0.23111459367E+02  0.23111459367E+02  0.00000000000E+00 0.  1.
          2   -1    0    0  501    0  0.00000000000E+00 -0.00000000000E+00 -0.65401881102E+03  0.65401881102E+03  0.00000000000E+00 0. -1.
          5    1    1    2  502    0 -0.21960716326E+02  0.76035029141E+02 -0.24724551083E+03  0.25964597309E+03  0.47000000000E+01 0.  1.
         -5    1    1    2    0  502  0.27977110816E+02 -0.39503493734E+02 -0.22994533085E+03  0.23503231677E+03  0.47000000000E+01 0.  1.
        -11    1    1    2    0    0  0.33979591060E+02  0.10053139105E+00 -0.23282008062E+02  0.41190710294E+02  0.00000000000E+00 0.  1.
         11    1    1    2    0    0 -0.39995985549E+02 -0.36632066797E+02 -0.13043450190E+03  0.14126127022E+03  0.00000000000E+00 0. -1.
<mgrwt>
<rscale>  0 0.12147789E+03</rscale>
<asrwt>0</asrwt>
<pdfrwt beam="2">  1        2 0.10061829E+00 0.13036683E+03</pdfrwt>
<pdfrwt beam="1">  1       -2 0.35556086E-02 0.13036683E+03</pdfrwt>
<totfact> 0.14170899E+04</totfact>
</mgrwt>
</event>
<event>
 6    1  0.4705246E-006  0.7418553E+03  0.7546771E-02  0.9648215E-01
         -1   -1    0    0    0  501 -0.00000000000E+00  0.00000000000E+00  0.52715612061E+02  0.52715612061E+02  0.00000000000E+00 0.  1.
          1   -1    0    0  501    0  0.00000000000E+00 -0.00000000000E+00 -0.26099921044E+04  0.26099921044E+04  0.00000000000E+00 0. -1.
          5    1    1    2  502    0 -0.59039611633E+01 -0.13303047144E+02 -0.17618499826E+04  0.17619163655E+04  0.47000000000E+01 0. -1.
         -5    1    1    2    0  502 -0.83504140828E+01 -0.98994904461E+02 -0.70421796554E+03  0.71120654772E+03  0.47000000000E+01 0.  1.
        -11    1    1    2    0    0  0.59919670595E+02  0.21090865211E+02 -0.26759644351E+02  0.68929457312E+02  0.00000000000E+00 0.  1.
         11    1    1    2    0    0 -0.45665295349E+02  0.91207086395E+02 -0.64448899819E+02  0.12065534591E+03  0.00000000000E+00 0. -1.
<mgrwt>
<rscale>  0 0.74185533E+03</rscale>
<asrwt>0</asrwt>
<pdfrwt beam="2">  1        1 0.40153731E+00 0.74185533E+03</pdfrwt>
<pdfrwt beam="1">  1       -1 0.81100929E-02 0.74185533E+03</pdfrwt>
<totfact> 0.10429684E+02</totfact>
</mgrwt>
</event>
<event>
 6    1  0.4705246E-006  0.2835752E+03  0.7546771E-02  0.1093752E+00
          1   -1    0    0  501    0  0.00000000000E+00  0.00000000000E+00  0.26013770788E+03  0.26013770788E+03  0.00000000000E+00 0. -1.
         -1   -1    0    0    0  501 -0.00000000000E+00 -0.00000000000E+00 -0.77281056484E+02  0.77281056484E+02  0.00000000000E+00 0.  1.
          5    1    1    2  502    0  0.27308227791E+02 -0.18475777237E+01  0.16536497378E+03  0.16768070074E+03  0.47000000000E+01 0.  1.
         -5    1    1    2    0  502 -0.45741700723E+02 -0.14764587385E+02  0.10365775728E+02  0.49394691335E+02  0.47000000000E+01 0.  1.
        -11    1    1    2    0    0  0.55325583546E+02  0.45162662544E+02 -0.65837864534E+01  0.71721213924E+02  0.00000000000E+00 0.  1.
         11    1    1    2    0    0 -0.36892110614E+02 -0.28550497435E+02  0.13709688342E+02  0.48622158362E+02  0.00000000000E+00 0. -1.
<mgrwt>
<rscale>  0 0.28357515E+03</rscale>
<asrwt>0</asrwt>
<pdfrwt beam="1">  1        1 0.40021185E-01 0.28357515E+03</pdfrwt>
<pdfrwt beam="2">  1       -1 0.11889393E-01 0.28357515E+03</pdfrwt>
<totfact> 0.48560488E+03</totfact>
</mgrwt>
</event>
<event>
 6    1  0.4705246E-006  0.1465032E+03  0.7546771E-02  0.1214675E+00
          2   -1    0    0  501    0  0.00000000000E+00  0.00000000000E+00  0.24158528058E+04  0.24158528058E+04  0.00000000000E+00 0. -1.
         -2   -1    0    0    0  501 -0.00000000000E+00 -0.00000000000E+00 -0.10310276038E+02  0.10310276038E+02  0.00000000000E+00 0.  1.
          5    1    1    2  502    0  0.23046527382E+02  0.33146357916E+02  0.14566296342E+04  0.14571965567E+04  0.47000000000E+01 0.  1.
         -5    1    1    2    0  502 -0.61257319019E+02  0.33021166075E+02  0.49015851955E+03  0.49509627431E+03  0.47000000000E+01 0.  1.
        -11    1    1    2    0    0  0.56995106507E+02 -0.77758633412E+02  0.36069893695E+03  0.37336117949E+03  0.00000000000E+00 0. -1.
         11    1    1    2    0    0 -0.18784314871E+02  0.11591109421E+02  0.98055439001E+02  0.10050907133E+03  0.00000000000E+00 0.  1.
<mgrwt>
<rscale>  0 0.13900416E+03</rscale>
<asrwt>0</asrwt>
<pdfrwt beam="1">  1        2 0.37166921E+00 0.14650318E+03</pdfrwt>
<pdfrwt beam="2">  1       -2 0.15861982E-02 0.14650318E+03</pdfrwt>
<totfact> 0.48488484E+03</totfact>
</mgrwt>
</event>
<event>
 6    1  0.4705246E-006  0.1346776E+03  0.7546771E-02  0.1230753E+00
          2   -1    0    0  501    0  0.00000000000E+00  0.00000000000E+00  0.10476421903E+04  0.10476421903E+04  0.00000000000E+00 0. -1.
         -2   -1    0    0    0  501 -0.00000000000E+00 -0.00000000000E+00 -0.14544611822E+02  0.14544611822E+02  0.00000000000E+00 0.  1.
          5    1    1    2  502    0  0.28767611871E+02  0.47567544097E+02  0.21747983226E+03  0.22452130006E+03  0.47000000000E+01 0. -1.
         -5    1    1    2    0  502  0.12842594084E+02 -0.75528712275E+02  0.43367872715E+03  0.44041894485E+03  0.47000000000E+01 0. -1.
        -11    1    1    2    0    0  0.75815062795E+01  0.49655492386E+02  0.12445512121E+03  0.13420962841E+03  0.00000000000E+00 0. -1.
         11    1    1    2    0    0 -0.49191712234E+02 -0.21694324208E+02  0.25748389786E+03  0.26303692880E+03  0.00000000000E+00 0.  1.
<mgrwt>
<rscale>  0 0.12780265E+03</rscale>
<asrwt>0</asrwt>
<pdfrwt beam="1">  1        2 0.16117566E+00 0.13467761E+03</pdfrwt>
<pdfrwt beam="2">  1       -2 0.22376334E-02 0.13467761E+03</pdfrwt>
<totfact> 0.15409661E+04</totfact>
</mgrwt>
</event>
<event>
 6    1  0.4705246E-006  0.1385161E+03  0.7546771E-02  0.1227117E+00
          1   -1    0    0  501    0  0.00000000000E+00  0.00000000000E+00  0.73411133141E+02  0.73411133141E+02  0.00000000000E+00 0. -1.
         -1   -1    0    0    0  501 -0.00000000000E+00 -0.00000000000E+00 -0.20911848780E+03  0.20911848780E+03  0.00000000000E+00 0.  1.
          5    1    1    2  502    0 -0.13098768572E+02  0.38446876656E+02 -0.15056737571E+02  0.43572186185E+02  0.47000000000E+01 0. -1.
         -5    1    1    2    0  502  0.56962717950E+02 -0.78912991930E+02 -0.48080494209E+02  0.10865466145E+03  0.47000000000E+01 0. -1.
        -11    1    1    2    0    0 -0.44501221933E+02  0.62911811876E+02 -0.31012045904E+02  0.83066249573E+02  0.00000000000E+00 0. -1.
         11    1    1    2    0    0  0.63727255515E+00 -0.22445696602E+02 -0.41558076971E+02  0.47236523727E+02  0.00000000000E+00 0.  1.
<mgrwt>
<rscale>  0 0.13022844E+03</rscale>
<asrwt>0</asrwt>
<pdfrwt beam="1">  1        1 0.11294021E-01 0.13851608E+03</pdfrwt>
<pdfrwt beam="2">  1       -1 0.32172075E-01 0.13851608E+03</pdfrwt>
<totfact> 0.47155407E+03</totfact>
</mgrwt>
</event>
<event>
 6    1  0.4705246E-006  0.1259409E+03  0.7546771E-02  0.1243244E+00
          1   -1    0    0  501    0  0.00000000000E+00  0.00000000000E+00  0.10721508185E+04  0.10721508185E+04  0.00000000000E+00 0. -1.
         -1   -1    0    0    0  501 -0.00000000000E+00 -0.00000000000E+00 -0.32023881766E+02  0.32023881766E+02  0.00000000000E+00 0.  1.
          5    1    1    2  502    0 -0.72186413811E+02 -0.19060775322E+02  0.70583057343E+03  0.70978382616E+03  0.47000000000E+01 0. -1.
         -5    1    1    2    0  502  0.43296529249E+02 -0.18513695308E+02  0.26648691212E+03  0.27065607455E+03  0.47000000000E+01 0.  1.
        -11    1    1    2    0    0  0.35142817502E+02  0.17535002858E+02 -0.12114030566E+02  0.41100409776E+02  0.00000000000E+00 0.  1.
         11    1    1    2    0    0 -0.62529329405E+01  0.20039467772E+02  0.79923481793E+02  0.82634389820E+02  0.00000000000E+00 0. -1.
<mgrwt>
<rscale>  0 0.11991121E+03</rscale>
<asrwt>0</asrwt>
<pdfrwt beam="1">  1        1 0.16494625E+00 0.12594088E+03</pdfrwt>
<pdfrwt beam="2">  1       -1 0.49267519E-02 0.12594088E+03</pdfrwt>
<totfact> 0.25120852E+03</totfact>
</mgrwt>
</event>
<event>
 6    1  0.4705246E-006  0.1323376E+03  0.7546771E-02  0.1239080E+00
         -2   -1    0    0    0  501 -0.00000000000E+00  0.00000000000E+00  0.54768122246E+02  0.54768122246E+02  0.00000000000E+00 0.  1.
          2   -1    0    0  501    0  0.00000000000E+00 -0.00000000000E+00 -0.24035870048E+03  0.24035870048E+03  0.00000000000E+00 0. -1.
          5    1    1    2  502    0  0.33809076311E+02 -0.20499267657E+02 -0.13010072512E+03  0.13605720228E+03  0.47000000000E+01 0. -1.
         -5    1    1    2    0  502 -0.82971986814E+01 -0.14745518291E+02  0.26651069271E+02  0.31916191955E+02  0.47000000000E+01 0. -1.
        -11    1    1    2    0    0 -0.11938586569E+02  0.26381049243E+02  0.12205834520E+02  0.31424067285E+02  0.00000000000E+00 0.  1.
         11    1    1    2    0    0 -0.13573291061E+02  0.88637367050E+01 -0.94346756903E+02  0.95729361205E+02  0.00000000000E+00 0. -1.
<mgrwt>
<rscale>  0 0.12246830E+03</rscale>
<asrwt>0</asrwt>
<pdfrwt beam="2">  1        2 0.36978262E-01 0.13233756E+03</pdfrwt>
<pdfrwt beam="1">  1       -2 0.84258648E-02 0.13233756E+03</pdfrwt>
<totfact> 0.11406111E+04</totfact>
</mgrwt>
</event>
<event>
 6    1  0.4705246E-006  0.1802927E+03  0.7546771E-02  0.1172735E+00
         -1   -1    0    0    0  501 -0.00000000000E+00  0.00000000000E+00  0.14140812671E+03  0.14140812671E+03  0.00000000000E+00 0.  1.
          1   -1    0    0  501    0  0.00000000000E+00 -0.00000000000E+00 -0.20786280166E+03  0.20786280166E+03  0.00000000000E+00 0. -1.
          5    1    1    2  502    0 -0.86143904657E+02 -0.49845513081E+02 -0.35632804258E+01  0.99700222925E+02  0.47000000000E+01 0. -1.
         -5    1    1    2    0  502 -0.43585987352E+02  0.56915514644E+02 -0.52935670230E+02  0.89237824287E+02  0.47000000000E+01 0. -1.
        -11    1    1    2    0    0  0.12436992957E+03 -0.20314419837E+02  0.19573033048E+02  0.12752905025E+03  0.00000000000E+00 0.  1.
         11    1    1    2    0    0  0.53599624415E+01  0.13244418274E+02 -0.29528757339E+02  0.32803830916E+02  0.00000000000E+00 0. -1.
<mgrwt>
<rscale>  0 0.17499656E+03</rscale>
<asrwt>0</asrwt>
<pdfrwt beam="2">  1        1 0.31978893E-01 0.18029269E+03</pdfrwt>
<pdfrwt beam="1">  1       -1 0.21755096E-01 0.18029269E+03</pdfrwt>
<totfact> 0.24096129E+03</totfact>
</mgrwt>
</event>
<event>
 6    1  0.4705246E-006  0.1283215E+03  0.7546771E-02  0.1244452E+00
          2   -1    0    0  501    0  0.00000000000E+00  0.00000000000E+00  0.54486961982E+03  0.54486961982E+03  0.00000000000E+00 0.  1.
         -2   -1    0    0    0  501 -0.00000000000E+00 -0.00000000000E+00 -0.24636903236E+02  0.24636903236E+02  0.00000000000E+00 0. -1.
          5    1    1    2  502    0  0.78745654499E+00 -0.67315674828E+02  0.12361476166E+03  0.14083578901E+03  0.47000000000E+01 0.  1.
         -5    1    1    2    0  502 -0.17308007618E+02  0.43463027767E+02  0.24513602174E+03  0.24960440914E+03  0.47000000000E+01 0.  1.
        -11    1    1    2    0    0  0.37669576145E+00  0.50097395240E+02  0.42137454884E+02  0.65463394455E+02  0.00000000000E+00 0. -1.
         11    1    1    2    0    0  0.16143855311E+02 -0.26244748180E+02  0.10934447831E+03  0.11360293045E+03  0.00000000000E+00 0.  1.
<mgrwt>
<rscale>  0 0.11918233E+03</rscale>
<asrwt>0</asrwt>
<pdfrwt beam="1">  1        2 0.83826086E-01 0.12832150E+03</pdfrwt>
<pdfrwt beam="2">  1       -2 0.37902932E-02 0.12832150E+03</pdfrwt>
<totfact> 0.15842104E+04</totfact>
</mgrwt>
</event>
<event>
 6    1  0.4705246E-006  0.1565473E+03  0.7546771E-02  0.1243473E+00
         -2   -1    0    0    0  501 -0.00000000000E+00  0.00000000000E+00  0.18688023767E+03  0.18688023767E+03  0.00000000000E+00 0.  1.
          2   -1    0    0  501    0  0.00000000000E+00 -0.00000000000E+00 -0.60008633935E+02  0.60008633935E+02  0.00000000000E+00 0. -1.
          5    1    1    2  502    0  0.17317392237E+01 -0.11483438382E+02 -0.44121473570E+02  0.45865702957E+02  0.47000000000E+01 0. -1.
         -5    1    1    2    0  502  0.39672743212E+01 -0.36639518716E+02  0.12487108618E+03  0.13028074209E+03  0.47000000000E+01 0.  1.
        -11    1    1    2    0    0 -0.11072050966E+02  0.13529851994E+02  0.88046728729E+01  0.19574715119E+02  0.00000000000E+00 0. -1.
         11    1    1    2    0    0  0.53730374210E+01  0.34593105104E+02  0.37317318253E+02  0.51167711434E+02  0.00000000000E+00 0.  1.
<mgrwt>
<rscale>  0 0.11977234E+03</rscale>
<asrwt>0</asrwt>
<pdfrwt beam="2">  1        2 0.92320976E-02 0.15654734E+03</pdfrwt>
<pdfrwt beam="1">  1       -2 0.28750806E-01 0.15654734E+03</pdfrwt>
<totfact> 0.74727645E+03</totfact>
</mgrwt>
</event>
<event>
 6    1  0.4705246E-006  0.1712048E+03  0.7546771E-02  0.1199854E+00
         -1   -1    0    0    0  501 -0.00000000000E+00  0.00000000000E+00  0.22515443729E+02  0.22515443729E+02  0.00000000000E+00 0.  1.
          1   -1    0    0  501    0  0.00000000000E+00 -0.00000000000E+00 -0.98651867961E+03  0.98651867961E+03  0.00000000000E+00 0. -1.
          5    1    1    2  502    0  0.24326737206E+02  0.95080215850E+02 -0.54765687687E+03  0.55640109846E+03  0.47000000000E+01 0. -1.
         -5    1    1    2    0  502 -0.43558519109E+02 -0.52335400028E+02 -0.23197064761E+03  0.24180324654E+03  0.47000000000E+01 0.  1.
        -11    1    1    2    0    0  0.93275059731E+01 -0.70091070773E+02 -0.14978833359E+03  0.16563908189E+03  0.00000000000E+00 0.  1.
         11    1    1    2    0    0  0.99042759298E+01  0.27346254951E+02 -0.34587377812E+02  0.45190696448E+02  0.00000000000E+00 0. -1.
<mgrwt>
<rscale>  0 0.15050519E+03</rscale>
<asrwt>0</asrwt>
<pdfrwt beam="2">  1        1 0.15177213E+00 0.17120485E+03</pdfrwt>
<pdfrwt beam="1">  1       -1 0.34639139E-02 0.17120485E+03</pdfrwt>
<totfact> 0.49121707E+03</totfact>
</mgrwt>
</event>
<event>
 6    1  0.4705246E-006  0.1373066E+03  0.7546771E-02  0.1228384E+00
          2   -1    0    0  501    0  0.00000000000E+00  0.00000000000E+00  0.88175646668E+03  0.88175646668E+03  0.00000000000E+00 0.  1.
         -2   -1    0    0    0  501 -0.00000000000E+00 -0.00000000000E+00 -0.17832418905E+02  0.17832418905E+02  0.00000000000E+00 0. -1.
          5    1    1    2  502    0 -0.54881405641E+02 -0.48516418075E+02  0.32127339357E+03  0.32955196089E+03  0.47000000000E+01 0. -1.
         -5    1    1    2    0  502  0.63080062441E+02 -0.76915634563E+01  0.25067961948E+03  0.25865153402E+03  0.47000000000E+01 0. -1.
        -11    1    1    2    0    0 -0.48347057499E+02  0.45891687328E+02  0.18702010688E+03  0.19854471867E+03  0.00000000000E+00 0.  1.
         11    1    1    2    0    0  0.40148400699E+02  0.10316294204E+02  0.10495092784E+03  0.11284067201E+03  0.00000000000E+00 0. -1.
<mgrwt>
<rscale>  0 0.12937658E+03</rscale>
<asrwt>0</asrwt>
<pdfrwt beam="1">  1        2 0.13565481E+00 0.13730660E+03</pdfrwt>
<pdfrwt beam="2">  1       -2 0.27434498E-02 0.13730660E+03</pdfrwt>
<totfact> 0.14457540E+04</totfact>
</mgrwt>
</event>
<event>
 6    1  0.4705246E-006  0.3324356E+03  0.7546771E-02  0.1070064E+00
          1   -1    0    0  501    0  0.00000000000E+00  0.00000000000E+00  0.11351434638E+04  0.11351434638E+04  0.00000000000E+00 0. -1.
         -1   -1    0    0    0  501 -0.00000000000E+00 -0.00000000000E+00 -0.24339085358E+02  0.24339085358E+02  0.00000000000E+00 0.  1.
          5    1    1    2  502    0 -0.57984233173E+02  0.12438742737E+03  0.69187651434E+03  0.70537196179E+03  0.47000000000E+01 0. -1.
         -5    1    1    2    0  502 -0.11690921974E+01 -0.28251123824E+02  0.91079456284E+02  0.95483245289E+02  0.47000000000E+01 0. -1.
        -11    1    1    2    0    0  0.19042744027E+02 -0.72165253806E+02  0.28705321688E+03  0.29659736896E+03  0.00000000000E+00 0.  1.
         11    1    1    2    0    0  0.40110581344E+02 -0.23971049739E+02  0.40795190957E+02  0.62029973130E+02  0.00000000000E+00 0. -1.
<mgrwt>
<rscale>  0 0.33243558E+03</rscale>
<asrwt>0</asrwt>
<pdfrwt beam="1">  1        1 0.17463742E+00 0.33243558E+03</pdfrwt>
<pdfrwt beam="2">  1       -1 0.37444755E-02 0.33243558E+03</pdfrwt>
<totfact> 0.34624926E+03</totfact>
</mgrwt>
</event>
<event>
 6    1  0.4705246E-006  0.3585809E+03  0.7546771E-02  0.1059147E+00
          4   -1    0    0  501    0  0.00000000000E+00  0.00000000000E+00  0.91903544236E+02  0.91903544236E+02  0.00000000000E+00 0. -1.
         -4   -1    0    0    0  501 -0.00000000000E+00 -0.00000000000E+00 -0.34976962812E+03  0.34976962812E+03  0.00000000000E+00 0.  1.
          5    1    1    2  502    0  0.12906787963E+03  0.32428463088E+02 -0.88894214844E+02  0.16010744581E+03  0.47000000000E+01 0. -1.
         -5    1    1    2    0  502 -0.17319790422E+01  0.10340081623E+02  0.24931439830E+02  0.27451479584E+02  0.47000000000E+01 0.  1.
        -11    1    1    2    0    0 -0.14648441175E+02 -0.18437031296E+02  0.51334973536E+01  0.24100907596E+02  0.00000000000E+00 0. -1.
         11    1    1    2    0    0 -0.11268745942E+03 -0.24331513415E+02 -0.19903680622E+03  0.23001333936E+03  0.00000000000E+00 0.  1.
<mgrwt>
<rscale>  0 0.35858092E+03</rscale>
<asrwt>0</asrwt>
<pdfrwt beam="1">  1        4 0.14139007E-01 0.35858092E+03</pdfrwt>
<pdfrwt beam="2">  1       -4 0.53810712E-01 0.35858092E+03</pdfrwt>
<totfact> 0.26838649E+02</totfact>
</mgrwt>
</event>
<event>
 6    1  0.4705246E-006  0.4074769E+03  0.7546771E-02  0.1041221E+00
         -1   -1    0    0    0  501 -0.00000000000E+00  0.00000000000E+00  0.14969657032E+03  0.14969657032E+03  0.00000000000E+00 0.  1.
          1   -1    0    0  501    0  0.00000000000E+00 -0.00000000000E+00 -0.27729001795E+03  0.27729001795E+03  0.00000000000E+00 0. -1.
          5    1    1    2  502    0 -0.10028875280E+03 -0.14128065925E+03 -0.12869778310E+03  0.21587790065E+03  0.47000000000E+01 0. -1.
         -5    1    1    2    0  502  0.12608426899E+02  0.18307112780E+01  0.14891313970E+02  0.20153539749E+02  0.47000000000E+01 0. -1.
        -11    1    1    2    0    0  0.10767777277E+02  0.52844332417E+02  0.36040644161E+02  0.64864447331E+02  0.00000000000E+00 0.  1.
         11    1    1    2    0    0  0.76912548621E+02  0.86605615555E+02 -0.49827622671E+02  0.12609070054E+03  0.00000000000E+00 0. -1.
<mgrwt>
<rscale>  0 0.40747694E+03</rscale>
<asrwt>0</asrwt>
<pdfrwt beam="2">  1        1 0.42660002E-01 0.40747694E+03</pdfrwt>
<pdfrwt beam="1">  1       -1 0.23030242E-01 0.40747694E+03</pdfrwt>
<totfact> 0.15542976E+03</totfact>
</mgrwt>
</event>
<event>
 6    1  0.4705246E-006  0.1697735E+03  0.7546771E-02  0.1185522E+00
         -2   -1    0    0    0  501 -0.00000000000E+00  0.00000000000E+00  0.32911365697E+02  0.32911365697E+02  0.00000000000E+00 0.  1.
          2   -1    0    0  501    0  0.00000000000E+00 -0.00000000000E+00 -0.75458367173E+03  0.75458367173E+03  0.00000000000E+00 0. -1.
          5    1    1    2  502    0  0.89694714032E+02  0.95334857294E+00 -0.18533655670E+03  0.20595577158E+03  0.47000000000E+01 0.  1.
         -5    1    1    2    0  502 -0.76478506694E+01  0.79445021605E+02 -0.16451477785E+03  0.18291310289E+03  0.47000000000E+01 0.  1.
        -11    1    1    2    0    0 -0.91332326780E+02 -0.61062076477E+02 -0.35425876875E+03  0.37090355396E+03  0.00000000000E+00 0. -1.
         11    1    1    2    0    0  0.92854634172E+01 -0.19336293702E+02 -0.17562202732E+02  0.27722609001E+02  0.00000000000E+00 0.  1.
<mgrwt>
<rscale>  0 0.16284434E+03</rscale>
<asrwt>0</asrwt>
<pdfrwt beam="2">  1        2 0.11608978E+00 0.16977351E+03</pdfrwt>
<pdfrwt beam="1">  1       -2 0.50632875E-02 0.16977351E+03</pdfrwt>
<totfact> 0.71609919E+03</totfact>
</mgrwt>
</event>
<event>
 6    1  0.4705246E-006  0.2236907E+03  0.7546771E-02  0.1134478E+00
          1   -1    0    0  501    0  0.00000000000E+00  0.00000000000E+00  0.69654967215E+03  0.69654967215E+03  0.00000000000E+00 0. -1.
         -1   -1    0    0    0  501 -0.00000000000E+00 -0.00000000000E+00 -0.92937862382E+02  0.92937862382E+02  0.00000000000E+00 0.  1.
          5    1    1    2  502    0 -0.18360928638E+02 -0.30664398508E+02  0.10854601602E+03  0.11437550712E+03  0.47000000000E+01 0. -1.
         -5    1    1    2    0  502 -0.14734338488E+03  0.11407795965E+03  0.41298453798E+03  0.45310282779E+03  0.47000000000E+01 0. -1.
        -11    1    1    2    0    0  0.11382985941E+03 -0.98996483978E+02  0.49348757261E+02  0.15872252700E+03  0.00000000000E+00 0.  1.
         11    1    1    2    0    0  0.51874454106E+02  0.15582922833E+02  0.32732498514E+02  0.63286672624E+02  0.00000000000E+00 0. -1.
<mgrwt>
<rscale>  0 0.21920446E+03</rscale>
<asrwt>0</asrwt>
<pdfrwt beam="1">  1        1 0.10716148E+00 0.22369073E+03</pdfrwt>
<pdfrwt beam="2">  1       -1 0.14298133E-01 0.22369073E+03</pdfrwt>
<totfact> 0.98744143E+02</totfact>
</mgrwt>
</event>
<event>
 6    1  0.4705246E-006  0.1394044E+03  0.7546771E-02  0.1225466E+00
          1   -1    0    0  501    0  0.00000000000E+00  0.00000000000E+00  0.24054518609E+03  0.24054518609E+03  0.00000000000E+00 0.  1.
         -1   -1    0    0    0  501 -0.00000000000E+00 -0.00000000000E+00 -0.15056104758E+03  0.15056104758E+03  0.00000000000E+00 0. -1.
          5    1    1    2  502    0 -0.21018263077E+02  0.39791340421E+02  0.19894469858E+03  0.20402500153E+03  0.47000000000E+01 0. -1.
         -5    1    1    2    0  502 -0.33197240851E+02 -0.10369928825E+02 -0.43358064918E+01  0.35362147021E+02  0.47000000000E+01 0. -1.
        -11    1    1    2    0    0  0.58634115620E+02 -0.71438334723E+01 -0.17387179266E+02  0.61573597216E+02  0.00000000000E+00 0.  1.
         11    1    1    2    0    0 -0.44186116915E+01 -0.22277578123E+02 -0.87237574314E+02  0.90145487898E+02  0.00000000000E+00 0. -1.
<mgrwt>
<rscale>  0 0.13135037E+03</rscale>
<asrwt>0</asrwt>
<pdfrwt beam="1">  1        1 0.37006952E-01 0.13940440E+03</pdfrwt>
<pdfrwt beam="2">  1       -1 0.23163238E-01 0.13940440E+03</pdfrwt>
<totfact> 0.17979780E+03</totfact>
</mgrwt>
</event>
<event>
 6    1  0.4705246E-006  0.2563167E+03  0.7546771E-02  0.1112433E+00
          1   -1    0    0  501    0  0.00000000000E+00  0.00000000000E+00  0.31703083559E+03  0.31703083559E+03  0.00000000000E+00 0. -1.
         -1   -1    0    0    0  501 -0.00000000000E+00 -0.00000000000E+00 -0.19291450419E+03  0.19291450419E+03  0.00000000000E+00 0.  1.
          5    1    1    2  502    0  0.14154194564E+03  0.14810611303E+03  0.10832721673E+03  0.23178960067E+03  0.47000000000E+01 0. -1.
         -5    1    1    2    0  502 -0.60194784241E+00  0.25700328837E+02 -0.26552387523E+02  0.37255718040E+02  0.47000000000E+01 0. -1.
        -11    1    1    2    0    0 -0.22976423453E+02 -0.42523539955E+02 -0.21917040611E+02  0.53070935117E+02  0.00000000000E+00 0.  1.
         11    1    1    2    0    0 -0.11796357434E+03 -0.13128290191E+03  0.64258542804E+02  0.18782908595E+03  0.00000000000E+00 0. -1.
<mgrwt>
<rscale>  0 0.25138443E+03</rscale>
<asrwt>0</asrwt>
<pdfrwt beam="1">  1        1 0.48773975E-01 0.25631672E+03</pdfrwt>
<pdfrwt beam="2">  1       -1 0.29679154E-01 0.25631672E+03</pdfrwt>
<totfact> 0.85174369E+02</totfact>
</mgrwt>
</event>
<event>
 6    1  0.4705246E-006  0.1460923E+03  0.7546771E-02  0.1215251E+00
         -1   -1    0    0    0  501 -0.00000000000E+00  0.00000000000E+00  0.57913192122E+02  0.57913192122E+02  0.00000000000E+00 0.  1.
          1   -1    0    0  501    0  0.00000000000E+00 -0.00000000000E+00 -0.30481900463E+03  0.30481900463E+03  0.00000000000E+00 0. -1.
          5    1    1    2  502    0 -0.18907426630E+02  0.10649994322E+02  0.96080291952E+01  0.24193333500E+02  0.47000000000E+01 0. -1.
         -5    1    1    2    0  502  0.92149189937E+02  0.81743213315E+01 -0.16407214877E+03  0.18841457677E+03  0.47000000000E+01 0. -1.
        -11    1    1    2    0    0  0.72836222814E+01 -0.28281551464E+02 -0.29295972901E+01  0.29350976935E+02  0.00000000000E+00 0. -1.
         11    1    1    2    0    0 -0.80525385588E+02  0.94572358110E+01 -0.89512095635E+02  0.12077330954E+03  0.00000000000E+00 0.  1.
<mgrwt>
<rscale>  0 0.13858136E+03</rscale>
<asrwt>0</asrwt>
<pdfrwt beam="2">  1        1 0.46895231E-01 0.14609230E+03</pdfrwt>
<pdfrwt beam="1">  1       -1 0.89097219E-02 0.14609230E+03</pdfrwt>
<totfact> 0.60093128E+03</totfact>
</mgrwt>
</event>
<event>
 6    1  0.4705246E-006  0.1583616E+03  0.7546771E-02  0.1197455E+00
         -2   -1    0    0    0  501 -0.00000000000E+00  0.00000000000E+00  0.13413314773E+03  0.13413314773E+03  0.00000000000E+00 0.  1.
          2   -1    0    0  501    0  0.00000000000E+00 -0.00000000000E+00 -0.16249689915E+03  0.16249689915E+03  0.00000000000E+00 0. -1.
          5    1    1    2  502    0  0.10059400107E+02 -0.10805200541E+03  0.21193741202E+02  0.11066929145E+03  0.47000000000E+01 0.  1.
         -5    1    1    2    0  502 -0.10590392869E+02  0.10860113480E+02 -0.47217335929E+02  0.49816315582E+02  0.47000000000E+01 0.  1.
        -11    1    1    2    0    0  0.12753224125E+01  0.11425002793E+03  0.10560887336E+02  0.11474418360E+03  0.00000000000E+00 0.  1.
         11    1    1    2    0    0 -0.74432965145E+00 -0.17058136002E+02 -0.12901044033E+02  0.21400256251E+02  0.00000000000E+00 0. -1.
<mgrwt>
<rscale>  0 0.15248299E+03</rscale>
<asrwt>0</asrwt>
<pdfrwt beam="2">  1        2 0.24999523E-01 0.15836162E+03</pdfrwt>
<pdfrwt beam="1">  1       -2 0.20635869E-01 0.15836162E+03</pdfrwt>
<totfact> 0.41429321E+03</totfact>
</mgrwt>
</event>
<event>
 6    1  0.4705246E-006  0.1605843E+03  0.7546771E-02  0.1195990E+00
         -1   -1    0    0    0  501 -0.00000000000E+00  0.00000000000E+00  0.69915107456E+02  0.69915107456E+02  0.00000000000E+00 0.  1.
          1   -1    0    0  501    0  0.00000000000E+00 -0.00000000000E+00 -0.31405616308E+03  0.31405616308E+03  0.00000000000E+00 0. -1.
          5    1    1    2  502    0  0.56719984257E+02  0.57101632986E+01 -0.74639387607E+01  0.57685032381E+02  0.47000000000E+01 0. -1.
         -5    1    1    2    0  502 -0.11743212247E+00  0.77708072650E+02 -0.14074038371E+03  0.16083688616E+03  0.47000000000E+01 0. -1.
        -11    1    1    2    0    0 -0.51268548561E+01  0.12891818356E+02  0.68573675875E+01  0.15476017300E+02  0.00000000000E+00 0.  1.
         11    1    1    2    0    0 -0.51475697278E+02 -0.96310054304E+02 -0.10279410074E+03  0.14997333469E+03  0.00000000000E+00 0. -1.
<mgrwt>
<rscale>  0 0.15370766E+03</rscale>
<asrwt>0</asrwt>
<pdfrwt beam="2">  1        1 0.48316333E-01 0.16058427E+03</pdfrwt>
<pdfrwt beam="1">  1       -1 0.10756170E-01 0.16058427E+03</pdfrwt>
<totfact> 0.43642423E+03</totfact>
</mgrwt>
</event>
<event>
 6    1  0.4705246E-006  0.4013078E+03  0.7546771E-02  0.1043328E+00
         -2   -1    0    0    0  501 -0.00000000000E+00  0.00000000000E+00  0.38400883845E+03  0.38400883845E+03  0.00000000000E+00 0. -1.
          2   -1    0    0  501    0  0.00000000000E+00 -0.00000000000E+00 -0.10484649182E+03  0.10484649182E+03  0.00000000000E+00 0.  1.
          5    1    1    2  502    0 -0.15340236582E+03  0.34422368592E+01 -0.14569793373E+01  0.15351986067E+03  0.47000000000E+01 0.  1.
         -5    1    1    2    0  502  0.20523434995E+02 -0.30287635183E+01  0.21112572791E+02  0.29970243948E+02  0.47000000000E+01 0.  1.
        -11    1    1    2    0    0  0.55707223289E+02  0.34663967814E+02  0.16934553578E+03  0.18161166229E+03  0.00000000000E+00 0. -1.
         11    1    1    2    0    0  0.77171707532E+02 -0.35077441155E+02  0.90161217397E+02  0.12375356336E+03  0.00000000000E+00 0.  1.
<mgrwt>
<rscale>  0 0.40130776E+03</rscale>
<asrwt>0</asrwt>
<pdfrwt beam="2">  1        2 0.16130230E-01 0.40130776E+03</pdfrwt>
<pdfrwt beam="1">  1       -2 0.59078282E-01 0.40130776E+03</pdfrwt>
<totfact> 0.98282942E+02</totfact>
</mgrwt>
</event>
<event>
 6    1  0.4705246E-006  0.1386839E+03  0.7546771E-02  0.1227121E+00
         -2   -1    0    0    0  501 -0.00000000000E+00  0.00000000000E+00  0.30666262185E+02  0.30666262185E+02  0.00000000000E+00 0.  1.
          2   -1    0    0  501    0  0.00000000000E+00 -0.00000000000E+00 -0.52627541743E+03  0.52627541743E+03  0.00000000000E+00 0. -1.
          5    1    1    2  502    0  0.15259054634E+02 -0.50351932970E+02 -0.32221643664E+03  0.32651750021E+03  0.47000000000E+01 0.  1.
         -5    1    1    2    0  502 -0.38022246307E+02 -0.52050234501E+01 -0.21765517467E+02  0.44369034629E+02  0.47000000000E+01 0.  1.
        -11    1    1    2    0    0 -0.22873213560E+02  0.38001859052E+01 -0.91941375492E+02  0.94820049772E+02  0.00000000000E+00 0. -1.
         11    1    1    2    0    0  0.45636405233E+02  0.51756770515E+02 -0.59685825639E+02  0.91235094996E+02  0.00000000000E+00 0.  1.
<mgrwt>
<rscale>  0 0.13022581E+03</rscale>
<asrwt>0</asrwt>
<pdfrwt beam="2">  1        2 0.80965450E-01 0.13868395E+03</pdfrwt>
<pdfrwt beam="1">  1       -2 0.47178864E-02 0.13868395E+03</pdfrwt>
<totfact> 0.11955137E+04</totfact>
</mgrwt>
</event>
<event>
 6    1  0.4705246E-006  0.1288669E+03  0.7546771E-02  0.1244524E+00
         -2   -1    0    0    0  501 -0.00000000000E+00  0.00000000000E+00  0.56518525387E+02  0.56518525387E+02  0.00000000000E+00 0.  1.
          2   -1    0    0  501    0  0.00000000000E+00 -0.00000000000E+00 -0.22104862339E+03  0.22104862339E+03  0.00000000000E+00 0. -1.
          5    1    1    2  502    0 -0.15944389702E+02 -0.10002700034E+02  0.22853833205E+02  0.29977746131E+02  0.47000000000E+01 0. -1.
         -5    1    1    2    0  502  0.46953816111E+02  0.56346430712E+01 -0.12736263924E+03  0.13594021452E+03  0.47000000000E+01 0. -1.
        -11    1    1    2    0    0 -0.36089860393E+02 -0.19229609719E+02 -0.73420947793E+02  0.84041010750E+02  0.00000000000E+00 0. -1.
         11    1    1    2    0    0  0.50804339838E+01  0.23597666682E+02  0.13399655817E+02  0.27608177381E+02  0.00000000000E+00 0.  1.
<mgrwt>
<rscale>  0 0.11913889E+03</rscale>
<asrwt>0</asrwt>
<pdfrwt beam="2">  1        2 0.34007480E-01 0.12886690E+03</pdfrwt>
<pdfrwt beam="1">  1       -2 0.86951579E-02 0.12886690E+03</pdfrwt>
<totfact> 0.11854405E+04</totfact>
</mgrwt>
</event>
<event>
 6    1  0.4705246E-006  0.1676039E+03  0.7546771E-02  0.1187360E+00
         -2   -1    0    0    0  501 -0.00000000000E+00  0.00000000000E+00  0.45750696701E+02  0.45750696701E+02  0.00000000000E+00 0.  1.
          2   -1    0    0  501    0  0.00000000000E+00 -0.00000000000E+00 -0.57370261086E+03  0.57370261086E+03  0.00000000000E+00 0. -1.
          5    1    1    2  502    0 -0.16763491521E+01  0.37721325377E+02 -0.14109742664E+02  0.40581810860E+02  0.47000000000E+01 0.  1.
         -5    1    1    2    0  502  0.62026645772E+02  0.56212439978E+02 -0.35551639032E+03  0.36526858198E+03  0.47000000000E+01 0.  1.
        -11    1    1    2    0    0 -0.69151206190E+02 -0.31182673803E+02 -0.60408869748E+02  0.96971542255E+02  0.00000000000E+00 0. -1.
         11    1    1    2    0    0  0.88009095705E+01 -0.62751091552E+02 -0.97916911425E+02  0.11663137247E+03  0.00000000000E+00 0.  1.
<mgrwt>
<rscale>  0 0.16119023E+03</rscale>
<asrwt>0</asrwt>
<pdfrwt beam="2">  1        2 0.88261937E-01 0.16760389E+03</pdfrwt>
<pdfrwt beam="1">  1       -2 0.70385690E-02 0.16760389E+03</pdfrwt>
<totfact> 0.59819904E+03</totfact>
</mgrwt>
</event>
<event>
 6    1  0.4705246E-006  0.4187936E+03  0.7546771E-02  0.1037460E+00
         -1   -1    0    0    0  501 -0.00000000000E+00  0.00000000000E+00  0.19459042437E+03  0.19459042437E+03  0.00000000000E+00 0. -1.
          1   -1    0    0  501    0  0.00000000000E+00 -0.00000000000E+00 -0.22532979421E+03  0.22532979421E+03  0.00000000000E+00 0.  1.
          5    1    1    2  502    0 -0.87637172284E+02  0.14673627981E+03  0.30259091833E+01  0.17100601131E+03  0.47000000000E+01 0. -1.
         -5    1    1    2    0  502  0.76004338216E+00 -0.31039118452E+01  0.42884368244E+02  0.43259345515E+02  0.47000000000E+01 0. -1.
        -11    1    1    2    0    0  0.39459255326E+02 -0.79898990619E+02 -0.88201906010E+02  0.12538124962E+03  0.00000000000E+00 0.  1.
         11    1    1    2    0    0  0.47417873576E+02 -0.63733377346E+02  0.11552258752E+02  0.80273612132E+02  0.00000000000E+00 0. -1.
<mgrwt>
<rscale>  0 0.41879360E+03</rscale>
<asrwt>0</asrwt>
<pdfrwt beam="2">  1        1 0.34666122E-01 0.41879360E+03</pdfrwt>
<pdfrwt beam="1">  1       -1 0.29936988E-01 0.41879360E+03</pdfrwt>
<totfact> 0.12987203E+03</totfact>
</mgrwt>
</event>
<event>
 6    1  0.4705246E-006  0.1319736E+03  0.7546771E-02  0.1225577E+00
         -2   -1    0    0    0  501 -0.00000000000E+00  0.00000000000E+00  0.23690863292E+02  0.23690863292E+02  0.00000000000E+00 0.  1.
          2   -1    0    0  501    0  0.00000000000E+00 -0.00000000000E+00 -0.77882196117E+03  0.77882196117E+03  0.00000000000E+00 0. -1.
          5    1    1    2  502    0  0.89439333786E+01  0.35954052703E+02 -0.40407002485E+03  0.40579226561E+03  0.47000000000E+01 0.  1.
         -5    1    1    2    0  502  0.32665389487E+02 -0.43654183999E+02 -0.87658720331E+02  0.10333855380E+03  0.47000000000E+01 0.  1.
        -11    1    1    2    0    0  0.20530310401E+02 -0.43310824757E+02 -0.82358993651E+02  0.95290739432E+02  0.00000000000E+00 0. -1.
         11    1    1    2    0    0 -0.62139633266E+02  0.51010956053E+02 -0.18104335905E+03  0.19809126562E+03  0.00000000000E+00 0.  1.
<mgrwt>
<rscale>  0 0.13127424E+03</rscale>
<asrwt>0</asrwt>
<pdfrwt beam="2">  1        2 0.11981877E+00 0.13197361E+03</pdfrwt>
<pdfrwt beam="1">  1       -2 0.36447480E-02 0.13197361E+03</pdfrwt>
<totfact> 0.11100273E+04</totfact>
</mgrwt>
</event>
<event>
 6    1  0.4705246E-006  0.1188038E+03  0.7546771E-02  0.1254985E+00
          3   -1    0    0  501    0  0.00000000000E+00  0.00000000000E+00  0.14763152724E+03  0.14763152724E+03  0.00000000000E+00 0. -1.
         -3   -1    0    0    0  501 -0.00000000000E+00 -0.00000000000E+00 -0.93854262547E+02  0.93854262547E+02  0.00000000000E+00 0.  1.
          5    1    1    2  502    0  0.35195514577E+02  0.32223338300E+02  0.63396830230E+02  0.79487834671E+02  0.47000000000E+01 0. -1.
         -5    1    1    2    0  502 -0.15161241974E+02 -0.58327366428E+02  0.13215944684E+02  0.61876458581E+02  0.47000000000E+01 0.  1.
        -11    1    1    2    0    0 -0.39848693602E+02  0.18907608662E+02 -0.49389272119E+02  0.66217189970E+02  0.00000000000E+00 0.  1.
         11    1    1    2    0    0  0.19814420999E+02  0.71964194664E+01  0.26553761901E+02  0.33904306566E+02  0.00000000000E+00 0. -1.
<mgrwt>
<rscale>  0 0.11307186E+03</rscale>
<asrwt>0</asrwt>
<pdfrwt beam="1">  1        3 0.22712543E-01 0.11880381E+03</pdfrwt>
<pdfrwt beam="2">  1       -3 0.14439117E-01 0.11880381E+03</pdfrwt>
<totfact> 0.15899965E+03</totfact>
</mgrwt>
</event>
<event>
 6    1  0.4705246E-006  0.1572657E+03  0.7546771E-02  0.1215833E+00
          3   -1    0    0  501    0  0.00000000000E+00  0.00000000000E+00  0.13082128905E+03  0.13082128905E+03  0.00000000000E+00 0. -1.
         -3   -1    0    0    0  501 -0.00000000000E+00 -0.00000000000E+00 -0.18858612563E+03  0.18858612563E+03  0.00000000000E+00 0.  1.
          5    1    1    2  502    0  0.66748790744E+01  0.75748050843E+02  0.58481978865E+01  0.76410814913E+02  0.47000000000E+01 0.  1.
         -5    1    1    2    0  502  0.21017658109E+02 -0.70910931643E+02  0.54690685729E+02  0.92104632263E+02  0.47000000000E+01 0. -1.
        -11    1    1    2    0    0 -0.39544931959E+02  0.19471854488E+02 -0.11559275611E+03  0.12371192354E+03  0.00000000000E+00 0.  1.
         11    1    1    2    0    0  0.11852394776E+02 -0.24308973689E+02 -0.27109640851E+01  0.27180043966E+02  0.00000000000E+00 0. -1.
<mgrwt>
<rscale>  0 0.13815501E+03</rscale>
<asrwt>0</asrwt>
<pdfrwt beam="1">  1        3 0.20126352E-01 0.15726570E+03</pdfrwt>
<pdfrwt beam="2">  1       -3 0.29013250E-01 0.15726570E+03</pdfrwt>
<totfact> 0.59971495E+02</totfact>
</mgrwt>
</event>
<event>
 6    1  0.4705246E-006  0.2779428E+03  0.7546771E-02  0.1096818E+00
          1   -1    0    0  501    0  0.00000000000E+00  0.00000000000E+00  0.16501119666E+02  0.16501119666E+02  0.00000000000E+00 0. -1.
         -1   -1    0    0    0  501 -0.00000000000E+00 -0.00000000000E+00 -0.11704083449E+04  0.11704083449E+04  0.00000000000E+00 0.  1.
          5    1    1    2  502    0 -0.46624894097E+01 -0.27378407143E+02 -0.36594570072E+02  0.46179741705E+02  0.47000000000E+01 0.  1.
         -5    1    1    2    0  502  0.55341422654E+02  0.46695703331E+02 -0.63247763413E+03  0.63662642848E+03  0.47000000000E+01 0.  1.
        -11    1    1    2    0    0 -0.78176857799E+02  0.17521441914E+01 -0.44271327637E+03  0.44956616441E+03  0.00000000000E+00 0.  1.
         11    1    1    2    0    0  0.27497924554E+02 -0.21069440379E+02 -0.42121744688E+02  0.54537129996E+02  0.00000000000E+00 0. -1.
<mgrwt>
<rscale>  0 0.27794279E+03</rscale>
<asrwt>0</asrwt>
<pdfrwt beam="1">  1        1 0.25386326E-02 0.27794279E+03</pdfrwt>
<pdfrwt beam="2">  1       -1 0.18006291E+00 0.27794279E+03</pdfrwt>
<totfact> 0.98594574E+02</totfact>
</mgrwt>
</event>
<event>
 6    1  0.4705246E-006  0.1305609E+03  0.7546771E-02  0.1242315E+00
          2   -1    0    0  501    0  0.00000000000E+00  0.00000000000E+00  0.10224665495E+03  0.10224665495E+03  0.00000000000E+00 0. -1.
         -2   -1    0    0    0  501 -0.00000000000E+00 -0.00000000000E+00 -0.12867129588E+03  0.12867129588E+03  0.00000000000E+00 0.  1.
          5    1    1    2  502    0 -0.48735869439E+02  0.92949550035E+01  0.52087218060E+02  0.72088483433E+02  0.47000000000E+01 0.  1.
         -5    1    1    2    0  502  0.28699995247E+02  0.22538491575E+02 -0.45649116442E+02  0.58631093812E+02  0.47000000000E+01 0.  1.
        -11    1    1    2    0    0  0.11608060918E+02  0.24990463493E+02 -0.32688158045E+02  0.42752614192E+02  0.00000000000E+00 0.  1.
         11    1    1    2    0    0  0.84278132749E+01 -0.56823910072E+02 -0.17458450231E+00  0.57445759393E+02  0.00000000000E+00 0. -1.
<mgrwt>
<rscale>  0 0.12047501E+03</rscale>
<asrwt>0</asrwt>
<pdfrwt beam="1">  1        2 0.15730255E-01 0.13056094E+03</pdfrwt>
<pdfrwt beam="2">  1       -2 0.19795584E-01 0.13056094E+03</pdfrwt>
<totfact> 0.74249288E+03</totfact>
</mgrwt>
</event>
<event>
 6    1  0.4705246E-006  0.1331451E+03  0.7546771E-02  0.1236101E+00
         -2   -1    0    0    0  501 -0.00000000000E+00  0.00000000000E+00  0.88106512732E+02  0.88106512732E+02  0.00000000000E+00 0.  1.
          2   -1    0    0  501    0  0.00000000000E+00 -0.00000000000E+00 -0.20058028045E+03  0.20058028045E+03  0.00000000000E+00 0. -1.
          5    1    1    2  502    0 -0.34550966779E+02 -0.12882917743E+02  0.15508437644E+02  0.40278288359E+02  0.47000000000E+01 0. -1.
         -5    1    1    2    0  502 -0.90861330357E+01  0.36967496759E+00 -0.14530338594E+03  0.14566351101E+03  0.47000000000E+01 0. -1.
        -11    1    1    2    0    0  0.69733122153E+02  0.17617645203E+02  0.17807087841E+01  0.71946234588E+02  0.00000000000E+00 0.  1.
         11    1    1    2    0    0 -0.26096022338E+02 -0.51044024284E+01  0.15540471799E+02  0.30798759224E+02  0.00000000000E+00 0. -1.
<mgrwt>
<rscale>  0 0.12434230E+03</rscale>
<asrwt>0</asrwt>
<pdfrwt beam="2">  1        2 0.30858504E-01 0.13314512E+03</pdfrwt>
<pdfrwt beam="1">  1       -2 0.13554848E-01 0.13314512E+03</pdfrwt>
<totfact> 0.65365677E+03</totfact>
</mgrwt>
</event>
<event>
 6    1  0.4705246E-006  0.2416742E+03  0.7546771E-02  0.1121269E+00
          1   -1    0    0  501    0  0.00000000000E+00  0.00000000000E+00  0.17444114224E+03  0.17444114224E+03  0.00000000000E+00 0.  1.
         -1   -1    0    0    0  501 -0.00000000000E+00 -0.00000000000E+00 -0.46877844342E+03  0.46877844342E+03  0.00000000000E+00 0. -1.
          5    1    1    2  502    0  0.81291916152E+02  0.12560983090E+03 -0.59741234553E+01  0.14981316832E+03  0.47000000000E+01 0. -1.
         -5    1    1    2    0  502 -0.39116831930E+02  0.75608051509E+02  0.40245982361E+02  0.94279017228E+02  0.47000000000E+01 0. -1.
        -11    1    1    2    0    0 -0.20895316298E+02 -0.98234277883E+02 -0.77402141563E+02  0.12679778828E+03  0.00000000000E+00 0. -1.
         11    1    1    2    0    0 -0.21279767923E+02 -0.10298360453E+03 -0.25120701852E+03  0.27232961183E+03  0.00000000000E+00 0.  1.
<mgrwt>
<rscale>  0 0.23779746E+03</rscale>
<asrwt>0</asrwt>
<pdfrwt beam="1">  1        1 0.26837099E-01 0.24167423E+03</pdfrwt>
<pdfrwt beam="2">  1       -1 0.72119761E-01 0.24167423E+03</pdfrwt>
<totfact> 0.35469896E+02</totfact>
</mgrwt>
</event>
<event>
 6    1  0.4705246E-006  0.1258992E+03  0.7546771E-02  0.1249385E+00
         -2   -1    0    0    0  501 -0.00000000000E+00  0.00000000000E+00  0.78550641179E+02  0.78550641179E+02  0.00000000000E+00 0.  1.
          2   -1    0    0  501    0  0.00000000000E+00 -0.00000000000E+00 -0.23621226626E+03  0.23621226626E+03  0.00000000000E+00 0. -1.
          5    1    1    2  502    0 -0.53055078592E+02  0.24451661318E+02 -0.12524657848E+03  0.13828058623E+03  0.47000000000E+01 0. -1.
         -5    1    1    2    0  502  0.59215674612E+02 -0.10725257362E+02 -0.55551164263E+02  0.82033829097E+02  0.47000000000E+01 0. -1.
        -11    1    1    2    0    0 -0.37242982041E+02  0.54291609997E+01 -0.16026121791E+02  0.40906626360E+02  0.00000000000E+00 0. -1.
         11    1    1    2    0    0  0.31082386021E+02 -0.19155564956E+02  0.39162239455E+02  0.53541865756E+02  0.00000000000E+00 0.  1.
<mgrwt>
<rscale>  0 0.11626707E+03</rscale>
<asrwt>0</asrwt>
<pdfrwt beam="2">  1        2 0.36340349E-01 0.12589924E+03</pdfrwt>
<pdfrwt beam="1">  1       -2 0.12084714E-01 0.12589924E+03</pdfrwt>
<totfact> 0.65692522E+03</totfact>
</mgrwt>
</event>
<event>
 6    1  0.4705246E-006  0.1364965E+03  0.7546771E-02  0.1231821E+00
         -1   -1    0    0    0  501 -0.00000000000E+00  0.00000000000E+00  0.42660906407E+02  0.42660906407E+02  0.00000000000E+00 0.  1.
          1   -1    0    0  501    0  0.00000000000E+00 -0.00000000000E+00 -0.80648201295E+03  0.80648201295E+03  0.00000000000E+00 0. -1.
          5    1    1    2  502    0  0.44997626634E+02  0.15380468225E+02 -0.90178926951E+02  0.10205720980E+03  0.47000000000E+01 0. -1.
         -5    1    1    2    0  502 -0.12963243760E+02  0.29117638963E+02 -0.63745857322E+03  0.63827220303E+03  0.47000000000E+01 0. -1.
        -11    1    1    2    0    0 -0.57950213657E+02 -0.14056377885E+02 -0.86129308962E+01  0.60249411622E+02  0.00000000000E+00 0.  1.
         11    1    1    2    0    0  0.25915830783E+02 -0.30441729303E+02 -0.27570675474E+02  0.48564094908E+02  0.00000000000E+00 0. -1.
<mgrwt>
<rscale>  0 0.12710148E+03</rscale>
<asrwt>0</asrwt>
<pdfrwt beam="2">  1        1 0.12407414E+00 0.13649655E+03</pdfrwt>
<pdfrwt beam="1">  1       -1 0.65632170E-02 0.13649655E+03</pdfrwt>
<totfact> 0.26090659E+03</totfact>
</mgrwt>
</event>
<event>
 6    1  0.4705246E-006  0.1401438E+03  0.7546771E-02  0.1224091E+00
          2   -1    0    0  501    0  0.00000000000E+00  0.00000000000E+00  0.74261048788E+03  0.74261048788E+03  0.00000000000E+00 0. -1.
         -2   -1    0    0    0  501 -0.00000000000E+00 -0.00000000000E+00 -0.24505988089E+02  0.24505988089E+02  0.00000000000E+00 0.  1.
          5    1    1    2  502    0 -0.44471937042E+02  0.73048990931E+02  0.24303884852E+03  0.25768950338E+03  0.47000000000E+01 0.  1.
         -5    1    1    2    0  502 -0.11429203728E+02 -0.43210467743E+02  0.29012411735E+03  0.29358451030E+03  0.47000000000E+01 0.  1.
        -11    1    1    2    0    0  0.69440412316E+01 -0.50328510201E+02  0.52001715761E+02  0.72700461414E+02  0.00000000000E+00 0. -1.
         11    1    1    2    0    0  0.48957099538E+02  0.20489987013E+02  0.13293981815E+03  0.14314200087E+03  0.00000000000E+00 0.  1.
<mgrwt>
<rscale>  0 0.13229417E+03</rscale>
<asrwt>0</asrwt>
<pdfrwt beam="1">  1        2 0.11424775E+00 0.14014382E+03</pdfrwt>
<pdfrwt beam="2">  1       -2 0.37701526E-02 0.14014382E+03</pdfrwt>
<totfact> 0.11232322E+04</totfact>
</mgrwt>
</event>
<event>
 6    1  0.4705246E-006  0.1624293E+03  0.7546771E-02  0.1193981E+00
         -1   -1    0    0    0  501 -0.00000000000E+00  0.00000000000E+00  0.14866805412E+03  0.14866805412E+03  0.00000000000E+00 0.  1.
          1   -1    0    0  501    0  0.00000000000E+00 -0.00000000000E+00 -0.16247827990E+03  0.16247827990E+03  0.00000000000E+00 0. -1.
          5    1    1    2  502    0  0.50227603270E+02  0.53110451545E+02 -0.36163006938E+02  0.81690790573E+02  0.47000000000E+01 0.  1.
         -5    1    1    2    0  502  0.52107309740E+02 -0.69831287104E+02 -0.14475306089E+02  0.88448882827E+02  0.47000000000E+01 0.  1.
        -11    1    1    2    0    0 -0.81158667106E+02  0.17631859274E+02  0.65203095972E+02  0.10558908766E+03  0.00000000000E+00 0.  1.
         11    1    1    2    0    0 -0.21176245904E+02 -0.91102371534E+00 -0.28375008719E+02  0.35417572964E+02  0.00000000000E+00 0. -1.
<mgrwt>
<rscale>  0 0.15540773E+03</rscale>
<asrwt>0</asrwt>
<pdfrwt beam="2">  1        1 0.24996658E-01 0.16242928E+03</pdfrwt>
<pdfrwt beam="1">  1       -1 0.22872009E-01 0.16242928E+03</pdfrwt>
<totfact> 0.30130784E+03</totfact>
</mgrwt>
</event>
<event>
 6    1  0.4705246E-006  0.2662897E+03  0.7546771E-02  0.1105556E+00
          2   -1    0    0  501    0  0.00000000000E+00  0.00000000000E+00  0.20668187723E+04  0.20668187723E+04  0.00000000000E+00 0. -1.
         -2   -1    0    0    0  501 -0.00000000000E+00 -0.00000000000E+00 -0.33817456103E+02  0.33817456103E+02  0.00000000000E+00 0.  1.
          5    1    1    2  502    0  0.91212721970E+02 -0.18133790143E+02  0.40868134762E+03  0.41915525630E+03  0.47000000000E+01 0.  1.
         -5    1    1    2    0  502  0.59730980757E+02 -0.16214465006E+03  0.84181487374E+03  0.85937945592E+03  0.47000000000E+01 0.  1.
        -11    1    1    2    0    0 -0.10989477964E+03  0.88835922005E+02  0.56829630360E+03  0.58560171816E+03  0.00000000000E+00 0. -1.
         11    1    1    2    0    0 -0.41048923089E+02  0.91442518194E+02  0.21420879124E+03  0.23649979803E+03  0.00000000000E+00 0.  1.
<mgrwt>
<rscale>  0 0.26265995E+03</rscale>
<asrwt>0</asrwt>
<pdfrwt beam="1">  1        2 0.31797202E+00 0.26628971E+03</pdfrwt>
<pdfrwt beam="2">  1       -2 0.52026872E-02 0.26628971E+03</pdfrwt>
<totfact> 0.12627869E+03</totfact>
</mgrwt>
</event>
<event>
 6    1  0.4705246E-006  0.1947337E+03  0.7546771E-02  0.1159420E+00
         -1   -1    0    0    0  501 -0.00000000000E+00  0.00000000000E+00  0.33634607768E+02  0.33634607768E+02  0.00000000000E+00 0.  1.
          1   -1    0    0  501    0  0.00000000000E+00 -0.00000000000E+00 -0.10560379724E+04  0.10560379724E+04  0.00000000000E+00 0. -1.
          5    1    1    2  502    0  0.78024780005E+02  0.66221467082E+02 -0.11387496647E+03  0.15317554304E+03  0.47000000000E+01 0.  1.
         -5    1    1    2    0  502  0.43198949185E+02  0.20969566222E+02 -0.30450204939E+03  0.30830092443E+03  0.47000000000E+01 0.  1.
        -11    1    1    2    0    0 -0.81590830132E+02 -0.97778586514E+02 -0.38973506789E+03  0.41001358354E+03  0.00000000000E+00 0.  1.
         11    1    1    2    0    0 -0.39632899057E+02  0.10587553210E+02 -0.21429128093E+03  0.21818252921E+03  0.00000000000E+00 0. -1.
<mgrwt>
<rscale>  0 0.18894090E+03</rscale>
<asrwt>0</asrwt>
<pdfrwt beam="2">  1        1 0.16246735E+00 0.19473367E+03</pdfrwt>
<pdfrwt beam="1">  1       -1 0.51745560E-02 0.19473367E+03</pdfrwt>
<totfact> 0.24170553E+03</totfact>
</mgrwt>
</event>
<event>
 6    1  0.4705246E-006  0.1613762E+03  0.7546771E-02  0.1194410E+00
          1   -1    0    0  501    0  0.00000000000E+00  0.00000000000E+00  0.73765492931E+03  0.73765492931E+03  0.00000000000E+00 0. -1.
         -1   -1    0    0    0  501 -0.00000000000E+00 -0.00000000000E+00 -0.39380345552E+02  0.39380345552E+02  0.00000000000E+00 0.  1.
          5    1    1    2  502    0 -0.60354769005E+02 -0.27165916131E+01  0.52254651344E+03  0.52604850225E+03  0.47000000000E+01 0. -1.
         -5    1    1    2    0  502 -0.40134506426E+02  0.89102974332E+01  0.34414313404E+02  0.53820135390E+02  0.47000000000E+01 0.  1.
        -11    1    1    2    0    0  0.33766727981E+02  0.26983536714E+02  0.73093328253E+01  0.43837535497E+02  0.00000000000E+00 0.  1.
         11    1    1    2    0    0  0.66722547450E+02 -0.33177242534E+02  0.13400442409E+03  0.15332910172E+03  0.00000000000E+00 0. -1.
<mgrwt>
<rscale>  0 0.15504293E+03</rscale>
<asrwt>0</asrwt>
<pdfrwt beam="1">  1        1 0.11348536E+00 0.16137619E+03</pdfrwt>
<pdfrwt beam="2">  1       -1 0.60585152E-02 0.16137619E+03</pdfrwt>
<totfact> 0.33754351E+03</totfact>
</mgrwt>
</event>
<event>
 6    1  0.4705246E-006  0.1820735E+03  0.7546771E-02  0.1171108E+00
          1   -1    0    0  501    0  0.00000000000E+00  0.00000000000E+00  0.39085733710E+02  0.39085733710E+02  0.00000000000E+00 0. -1.
         -1   -1    0    0    0  501 -0.00000000000E+00 -0.00000000000E+00 -0.79611965639E+03  0.79611965639E+03  0.00000000000E+00 0.  1.
          5    1    1    2  502    0  0.30439237280E+02 -0.65441631037E+02 -0.25947686444E+03  0.26936868307E+03  0.47000000000E+01 0.  1.
         -5    1    1    2    0  502 -0.27482234609E+02 -0.66921409037E+02 -0.44798891892E+02  0.85221939203E+02  0.47000000000E+01 0.  1.
        -11    1    1    2    0    0  0.18573565629E+02  0.10754842929E+03 -0.42101566157E+03  0.43493198235E+03  0.00000000000E+00 0.  1.
         11    1    1    2    0    0 -0.21530568301E+02  0.24814610784E+02 -0.31742504781E+02  0.45682785483E+02  0.00000000000E+00 0. -1.
<mgrwt>
<rscale>  0 0.17662739E+03</rscale>
<asrwt>0</asrwt>
<pdfrwt beam="1">  1        1 0.60131896E-02 0.18207354E+03</pdfrwt>
<pdfrwt beam="2">  1       -1 0.12247995E+00 0.18207354E+03</pdfrwt>
<totfact> 0.80574174E+02</totfact>
</mgrwt>
</event>
<event>
 6    1  0.4705246E-006  0.3279500E+03  0.7546771E-02  0.1072048E+00
          1   -1    0    0  501    0  0.00000000000E+00  0.00000000000E+00  0.11427706062E+04  0.11427706062E+04  0.00000000000E+00 0. -1.
         -1   -1    0    0    0  501 -0.00000000000E+00 -0.00000000000E+00 -0.23528600520E+02  0.23528600520E+02  0.00000000000E+00 0.  1.
          5    1    1    2  502    0  0.92111759473E+02 -0.48982241904E+02  0.81405161952E+03  0.82072283111E+03  0.47000000000E+01 0. -1.
         -5    1    1    2    0  502 -0.54281448453E+01 -0.83129762058E+01  0.17587436114E+01  0.11124455445E+02  0.47000000000E+01 0. -1.
        -11    1    1    2    0    0 -0.26233217616E+02 -0.11551813189E+02  0.16120222221E+02  0.32885979671E+02  0.00000000000E+00 0.  1.
         11    1    1    2    0    0 -0.60450397011E+02  0.68847031299E+02  0.28731142032E+03  0.30156594049E+03  0.00000000000E+00 0. -1.
<mgrwt>
<rscale>  0 0.32794995E+03</rscale>
<asrwt>0</asrwt>
<pdfrwt beam="1">  1        1 0.17581082E+00 0.32794995E+03</pdfrwt>
<pdfrwt beam="2">  1       -1 0.36197856E-02 0.32794995E+03</pdfrwt>
<totfact> 0.35960775E+03</totfact>
</mgrwt>
</event>
<event>
 6    1  0.4705246E-006  0.4041626E+03  0.7546771E-02  0.1042348E+00
         -1   -1    0    0    0  501 -0.00000000000E+00  0.00000000000E+00  0.14427707062E+03  0.14427707062E+03  0.00000000000E+00 0.  1.
          1   -1    0    0  501    0  0.00000000000E+00 -0.00000000000E+00 -0.28304470875E+03  0.28304470875E+03  0.00000000000E+00 0. -1.
          5    1    1    2  502    0 -0.13919449690E+03 -0.81391409376E+02 -0.12373341917E+03  0.20330203764E+03  0.47000000000E+01 0. -1.
         -5    1    1    2    0  502  0.23118511937E+02  0.33560715717E+01 -0.32720626227E+02  0.40477872860E+02  0.47000000000E+01 0.  1.
        -11    1    1    2    0    0  0.72533119265E+02  0.28395191281E+02 -0.47107829697E+02  0.91030148287E+02  0.00000000000E+00 0. -1.
         11    1    1    2    0    0  0.43542865702E+02  0.49640146523E+02  0.64794236973E+02  0.92511720584E+02  0.00000000000E+00 0.  1.
<mgrwt>
<rscale>  0 0.40416265E+03</rscale>
<asrwt>0</asrwt>
<pdfrwt beam="2">  1        1 0.43545340E-01 0.40416265E+03</pdfrwt>
<pdfrwt beam="1">  1       -1 0.22196472E-01 0.40416265E+03</pdfrwt>
<totfact> 0.16098911E+03</totfact>
</mgrwt>
</event>
<event>
 6    1  0.4705246E-006  0.1456202E+03  0.7546771E-02  0.1215822E+00
          3   -1    0    0  501    0  0.00000000000E+00  0.00000000000E+00  0.11667114029E+03  0.11667114029E+03  0.00000000000E+00 0. -1.
         -3   -1    0    0    0  501 -0.00000000000E+00 -0.00000000000E+00 -0.20379215798E+03  0.20379215798E+03  0.00000000000E+00 0.  1.
          5    1    1    2  502    0  0.81239690562E+01 -0.33583959075E+02  0.17763149781E+02  0.39134392425E+02  0.47000000000E+01 0.  1.
         -5    1    1    2    0  502 -0.26771735032E+02  0.10592105602E+03  0.18151274723E+02  0.11084924303E+03  0.47000000000E+01 0.  1.
        -11    1    1    2    0    0  0.90005335388E+01  0.88112525521E+01  0.88040897926E+01  0.15367490771E+02  0.00000000000E+00 0. -1.
         11    1    1    2    0    0  0.96472324366E+01 -0.81148349502E+02 -0.13183953199E+03  0.15511217205E+03  0.00000000000E+00 0.  1.
<mgrwt>
<rscale>  0 0.13816338E+03</rscale>
<asrwt>0</asrwt>
<pdfrwt beam="1">  1        3 0.17949407E-01 0.14562021E+03</pdfrwt>
<pdfrwt beam="2">  1       -3 0.31352639E-01 0.14562021E+03</pdfrwt>
<totfact> 0.62803023E+02</totfact>
</mgrwt>
</event>
<event>
 6    1  0.4705246E-006  0.3186029E+03  0.7546771E-02  0.1078730E+00
         -1   -1    0    0    0  501 -0.00000000000E+00  0.00000000000E+00  0.20588363846E+03  0.20588363846E+03  0.00000000000E+00 0.  1.
          1   -1    0    0  501    0  0.00000000000E+00 -0.00000000000E+00 -0.46395019535E+03  0.46395019535E+03  0.00000000000E+00 0. -1.
          5    1    1    2  502    0  0.64201894653E+02 -0.12600453326E+03 -0.58427138478E+02  0.15308444137E+03  0.47000000000E+01 0.  1.
         -5    1    1    2    0  502  0.15137502354E+03 -0.37916205517E+02 -0.87609499702E+02  0.17902388341E+03  0.47000000000E+01 0.  1.
        -11    1    1    2    0    0  0.21230663497E+02  0.46612103104E+02 -0.14162980845E+01  0.51239000074E+02  0.00000000000E+00 0.  1.
         11    1    1    2    0    0 -0.23680758169E+03  0.11730863567E+03 -0.11061362062E+03  0.28648650896E+03  0.00000000000E+00 0. -1.
<mgrwt>
<rscale>  0 0.31339517E+03</rscale>
<asrwt>0</asrwt>
<pdfrwt beam="2">  1        1 0.71376951E-01 0.31860291E+03</pdfrwt>
<pdfrwt beam="1">  1       -1 0.31674407E-01 0.31860291E+03</pdfrwt>
<totfact> 0.46584299E+02</totfact>
</mgrwt>
</event>
<event>
 6    1  0.8175112E-006  0.1318395E+03  0.7546771E-02  0.1237252E+00
          1   -1    0    0  501    0  0.00000000000E+00  0.00000000000E+00  0.11105790723E+04  0.11105790723E+04  0.00000000000E+00 0. -1.
         -1   -1    0    0    0  501 -0.00000000000E+00 -0.00000000000E+00 -0.12427653590E+02  0.12427653590E+02  0.00000000000E+00 0.  1.
          5    1    1    2  502    0  0.66829402801E+02  0.55753515211E+01  0.19509685828E+03  0.20635437416E+03  0.47000000000E+01 0.  1.
         -5    1    1    2    0  502 -0.32578153792E+02  0.18594840474E+02  0.48058568742E+03  0.48207032386E+03  0.47000000000E+01 0.  1.
        -11    1    1    2    0    0  0.16764088147E+02 -0.43462836812E+02  0.22135319518E+03  0.22620187853E+03  0.00000000000E+00 0. -1.
         11    1    1    2    0    0 -0.51015337155E+02  0.19292644817E+02  0.20111567786E+03  0.20838014937E+03  0.00000000000E+00 0.  1.
<mgrwt>
<rscale>  0 0.12361388E+03</rscale>
<asrwt>0</asrwt>
<pdfrwt beam="1">  1        1 0.17085824E+00 0.13183953E+03</pdfrwt>
<pdfrwt beam="2">  1       -1 0.19119476E-02 0.13183953E+03</pdfrwt>
<totfact> 0.93804760E+03</totfact>
</mgrwt>
</event>
<event>
 6    1  0.4705246E-006  0.1363211E+03  0.7546771E-02  0.1230317E+00
         -1   -1    0    0    0  501 -0.00000000000E+00  0.00000000000E+00  0.21048659364E+03  0.21048659364E+03  0.00000000000E+00 0. -1.
          1   -1    0    0  501    0  0.00000000000E+00 -0.00000000000E+00 -0.84963549079E+02  0.84963549079E+02  0.00000000000E+00 0.  1.
          5    1    1    2  502    0  0.31284502397E+02 -0.23928114307E+01 -0.52416300618E+02  0.61269929062E+02  0.47000000000E+01 0.  1.
         -5    1    1    2    0  502  0.24363151212E+01  0.45427751544E+02  0.59754883240E+02  0.75248603394E+02  0.47000000000E+01 0.  1.
        -11    1    1    2    0    0  0.17011538053E+02 -0.24266543671E+02  0.95993520194E+02  0.10046399100E+03  0.00000000000E+00 0. -1.
         11    1    1    2    0    0 -0.50732355571E+02 -0.18768396442E+02  0.22190941748E+02  0.58467619265E+02  0.00000000000E+00 0.  1.
<mgrwt>
<rscale>  0 0.12809061E+03</rscale>
<asrwt>0</asrwt>
<pdfrwt beam="2">  1        1 0.13071315E-01 0.13632115E+03</pdfrwt>
<pdfrwt beam="1">  1       -1 0.32382553E-01 0.13632115E+03</pdfrwt>
<totfact> 0.38464914E+03</totfact>
</mgrwt>
</event>
<event>
 6    1  0.4705246E-006  0.1563935E+03  0.7546771E-02  0.1200971E+00
          1   -1    0    0  501    0  0.00000000000E+00  0.00000000000E+00  0.31271256870E+03  0.31271256870E+03  0.00000000000E+00 0. -1.
         -1   -1    0    0    0  501 -0.00000000000E+00 -0.00000000000E+00 -0.80186776814E+02  0.80186776814E+02  0.00000000000E+00 0.  1.
          5    1    1    2  502    0  0.25846875050E+02  0.20682484197E+02  0.47473239991E+02  0.58065692261E+02  0.47000000000E+01 0. -1.
         -5    1    1    2    0  502 -0.53633669479E+02 -0.11046954479E+03  0.15964739335E+03  0.20146828790E+03  0.47000000000E+01 0. -1.
        -11    1    1    2    0    0  0.35980150967E+02 -0.37990829805E+00  0.23174904559E+02  0.42799436857E+02  0.00000000000E+00 0. -1.
         11    1    1    2    0    0 -0.81933565382E+01  0.90166968893E+02  0.22302539869E+01  0.90565928492E+02  0.00000000000E+00 0.  1.
<mgrwt>
<rscale>  0 0.14959540E+03</rscale>
<asrwt>0</asrwt>
<pdfrwt beam="1">  1        1 0.48109625E-01 0.15639351E+03</pdfrwt>
<pdfrwt beam="2">  1       -1 0.12336427E-01 0.15639351E+03</pdfrwt>
<totfact> 0.35456437E+03</totfact>
</mgrwt>
</event>
<event>
 6    1  0.4705246E-006  0.1317408E+03  0.7546771E-02  0.1238416E+00
          1   -1    0    0  501    0  0.00000000000E+00  0.00000000000E+00  0.16963068610E+02  0.16963068610E+02  0.00000000000E+00 0. -1.
         -1   -1    0    0    0  501 -0.00000000000E+00 -0.00000000000E+00 -0.79712112190E+03  0.79712112190E+03  0.00000000000E+00 0.  1.
          5    1    1    2  502    0 -0.17684644947E+02 -0.68220881046E+00  0.17280143029E+01  0.18392610179E+02  0.47000000000E+01 0.  1.
         -5    1    1    2    0  502 -0.22007273811E+02 -0.11939369224E+02 -0.40610124127E+03  0.40689946768E+03  0.47000000000E+01 0.  1.
        -11    1    1    2    0    0  0.11127039845E+02  0.50788421521E+02 -0.20273731863E+03  0.20929810114E+03  0.00000000000E+00 0. -1.
         11    1    1    2    0    0  0.28564878913E+02 -0.38166843487E+02 -0.17304750770E+03  0.17949401152E+03  0.00000000000E+00 0.  1.
<mgrwt>
<rscale>  0 0.12288285E+03</rscale>
<asrwt>0</asrwt>
<pdfrwt beam="1">  1        1 0.26097028E-02 0.13174082E+03</pdfrwt>
<pdfrwt beam="2">  1       -1 0.12263402E+00 0.13174082E+03</pdfrwt>
<totfact> 0.25124810E+03</totfact>
</mgrwt>
</event>
<event>
 6    1  0.4705246E-006  0.1461943E+03  0.7546771E-02  0.1213298E+00
          2   -1    0    0  501    0  0.00000000000E+00  0.00000000000E+00  0.22615591869E+03  0.22615591869E+03  0.00000000000E+00 0. -1.
         -2   -1    0    0    0  501 -0.00000000000E+00 -0.00000000000E+00 -0.94965734413E+02  0.94965734413E+02  0.00000000000E+00 0.  1.
          5    1    1    2  502    0 -0.32345243017E+01  0.10954828386E+03  0.10954376548E+03  0.15502649838E+03  0.47000000000E+01 0. -1.
         -5    1    1    2    0  502  0.96672958330E+01 -0.34009990095E+02  0.24092268245E+02  0.43042576876E+02  0.47000000000E+01 0. -1.
        -11    1    1    2    0    0 -0.37474743265E+02 -0.69417968305E+02  0.23305685840E+02  0.82257921800E+02  0.00000000000E+00 0. -1.
         11    1    1    2    0    0  0.31041971734E+02 -0.61203254643E+01 -0.25751535282E+02  0.40794656051E+02  0.00000000000E+00 0.  1.
<mgrwt>
<rscale>  0 0.14002289E+03</rscale>
<asrwt>0</asrwt>
<pdfrwt beam="1">  1        2 0.34793218E-01 0.14619429E+03</pdfrwt>
<pdfrwt beam="2">  1       -2 0.14610113E-01 0.14619429E+03</pdfrwt>
<totfact> 0.51155897E+03</totfact>
</mgrwt>
</event>
<event>
 6    1  0.4705246E-006  0.1336192E+03  0.7546771E-02  0.1235301E+00
          1   -1    0    0  501    0  0.00000000000E+00  0.00000000000E+00  0.14076586701E+03  0.14076586701E+03  0.00000000000E+00 0. -1.
         -1   -1    0    0    0  501 -0.00000000000E+00 -0.00000000000E+00 -0.10062462968E+03  0.10062462968E+03  0.00000000000E+00 0.  1.
          5    1    1    2  502    0  0.82521911992E+02  0.35334217123E+02  0.10585954999E+01  0.89897627794E+02  0.47000000000E+01 0.  1.
         -5    1    1    2    0  502 -0.37080515565E+02 -0.22495769421E+02  0.41746906372E+01  0.43823992496E+02  0.47000000000E+01 0.  1.
        -11    1    1    2    0    0 -0.53416534458E+02  0.25249325009E+02  0.35161020402E+02  0.68754286576E+02  0.00000000000E+00 0. -1.
         11    1    1    2    0    0  0.79751380298E+01 -0.38087772710E+02 -0.25306921270E+00  0.38914589817E+02  0.00000000000E+00 0.  1.
<mgrwt>
<rscale>  0 0.12485185E+03</rscale>
<asrwt>0</asrwt>
<pdfrwt beam="1">  1        1 0.21656287E-01 0.13361918E+03</pdfrwt>
<pdfrwt beam="2">  1       -1 0.15480712E-01 0.13361918E+03</pdfrwt>
<totfact> 0.66708434E+03</totfact>
</mgrwt>
</event>
<event>
 6    1  0.4705246E-006  0.1901160E+03  0.7546771E-02  0.1163295E+00
         -1   -1    0    0    0  501 -0.00000000000E+00  0.00000000000E+00  0.24870569626E+03  0.24870569626E+03  0.00000000000E+00 0. -1.
          1   -1    0    0  501    0  0.00000000000E+00 -0.00000000000E+00 -0.13223732978E+03  0.13223732978E+03  0.00000000000E+00 0.  1.
          5    1    1    2  502    0  0.13090194688E+02  0.81654587762E+02  0.82976564144E+02  0.11724344373E+03  0.47000000000E+01 0.  1.
         -5    1    1    2    0  502  0.55012363614E+01  0.60393659776E+02 -0.46219016030E+02  0.76393358255E+02  0.47000000000E+01 0.  1.
        -11    1    1    2    0    0  0.17402945416E+02 -0.94743918427E+02  0.11789563365E+02  0.97047753155E+02  0.00000000000E+00 0.  1.
         11    1    1    2    0    0 -0.35994376465E+02 -0.47304329111E+02  0.67921255000E+02  0.90258470907E+02  0.00000000000E+00 0. -1.
<mgrwt>
<rscale>  0 0.18473772E+03</rscale>
<asrwt>0</asrwt>
<pdfrwt beam="2">  1        1 0.20344205E-01 0.19011600E+03</pdfrwt>
<pdfrwt beam="1">  1       -1 0.38262415E-01 0.19011600E+03</pdfrwt>
<totfact> 0.16507198E+03</totfact>
</mgrwt>
</event>
<event>
 6    1  0.4705246E-006  0.1401498E+03  0.7546771E-02  0.1222275E+00
          3   -1    0    0  501    0  0.00000000000E+00  0.00000000000E+00  0.12711469496E+04  0.12711469496E+04  0.00000000000E+00 0. -1.
         -3   -1    0    0    0  501 -0.00000000000E+00 -0.00000000000E+00 -0.13781063475E+02  0.13781063475E+02  0.00000000000E+00 0.  1.
          5    1    1    2  502    0 -0.60725285868E+01 -0.37110438323E+02  0.14779499419E+03  0.15257624501E+03  0.47000000000E+01 0.  1.
         -5    1    1    2    0  502 -0.19554786079E+02  0.95086883533E+02  0.70254656170E+03  0.70923738370E+03  0.47000000000E+01 0.  1.
        -11    1    1    2    0    0 -0.36220964548E+02 -0.17354528413E+02  0.17620043433E+03  0.18072003482E+03  0.00000000000E+00 0. -1.
         11    1    1    2    0    0  0.61848279213E+02 -0.40621916797E+02  0.23082389594E+03  0.24239434957E+03  0.00000000000E+00 0.  1.
<mgrwt>
<rscale>  0 0.13355431E+03</rscale>
<asrwt>0</asrwt>
<pdfrwt beam="1">  1        3 0.19556098E+00 0.14014981E+03</pdfrwt>
<pdfrwt beam="2">  1       -3 0.21201646E-02 0.14014981E+03</pdfrwt>
<totfact> 0.35093338E+02</totfact>
</mgrwt>
</event>
<event>
 6    1  0.4705246E-006  0.1332934E+03  0.7546771E-02  0.1235733E+00
         -1   -1    0    0    0  501 -0.00000000000E+00  0.00000000000E+00  0.12587789690E+02  0.12587789690E+02  0.00000000000E+00 0.  1.
          1   -1    0    0  501    0  0.00000000000E+00 -0.00000000000E+00 -0.10984558299E+04  0.10984558299E+04  0.00000000000E+00 0. -1.
          5    1    1    2  502    0  0.76580287106E+02  0.41485319050E+02 -0.43069879334E+03  0.43944181942E+03  0.47000000000E+01 0. -1.
         -5    1    1    2    0  502 -0.43612715095E+02 -0.90034420808E+01 -0.16326312064E+03  0.16929284524E+03  0.47000000000E+01 0. -1.
        -11    1    1    2    0    0  0.26949025555E+02  0.78092546887E+01 -0.10279097150E+03  0.10655148173E+03  0.00000000000E+00 0.  1.
         11    1    1    2    0    0 -0.59916597566E+02 -0.40291131657E+02 -0.38911515469E+03  0.39575747317E+03  0.00000000000E+00 0. -1.
<mgrwt>
<rscale>  0 0.12457633E+03</rscale>
<asrwt>0</asrwt>
<pdfrwt beam="2">  1        1 0.16899321E+00 0.13329342E+03</pdfrwt>
<pdfrwt beam="1">  1       -1 0.19365830E-02 0.13329342E+03</pdfrwt>
<totfact> 0.93971429E+03</totfact>
</mgrwt>
</event>
<event>
 6    1  0.4705246E-006  0.1630223E+03  0.7546771E-02  0.1192489E+00
          4   -1    0    0  501    0  0.00000000000E+00  0.00000000000E+00  0.17801106300E+03  0.17801106300E+03  0.00000000000E+00 0. -1.
         -4   -1    0    0    0  501 -0.00000000000E+00 -0.00000000000E+00 -0.13021687386E+03  0.13021687386E+03  0.00000000000E+00 0.  1.
          5    1    1    2  502    0  0.43210527159E+02 -0.44021940366E+02  0.87476575814E+02  0.10714159886E+03  0.47000000000E+01 0. -1.
         -5    1    1    2    0  502  0.17846765209E+02 -0.40964545711E+02 -0.42631325117E+02  0.61936426398E+02  0.47000000000E+01 0. -1.
        -11    1    1    2    0    0  0.49439854922E+01  0.45700016362E+02 -0.30718718978E+02  0.55286292910E+02  0.00000000000E+00 0.  1.
         11    1    1    2    0    0 -0.66001277860E+02  0.39286469715E+02  0.33667657423E+02  0.83863618680E+02  0.00000000000E+00 0. -1.
<mgrwt>
<rscale>  0 0.15668654E+03</rscale>
<asrwt>0</asrwt>
<pdfrwt beam="1">  1        4 0.27386317E-01 0.16302234E+03</pdfrwt>
<pdfrwt beam="2">  1       -4 0.20033365E-01 0.16302234E+03</pdfrwt>
<totfact> 0.48802780E+02</totfact>
</mgrwt>
</event>
<event>
 6    1  0.4705246E-006  0.1440865E+03  0.7546771E-02  0.1218019E+00
          1   -1    0    0  501    0  0.00000000000E+00  0.00000000000E+00  0.86723220252E+03  0.86723220252E+03  0.00000000000E+00 0. -1.
         -1   -1    0    0    0  501 -0.00000000000E+00 -0.00000000000E+00 -0.36689685727E+02  0.36689685727E+02  0.00000000000E+00 0.  1.
          5    1    1    2  502    0  0.62590297624E+02 -0.47665503978E+02  0.59831278234E+03  0.60348141739E+03  0.47000000000E+01 0.  1.
         -5    1    1    2    0  502  0.90297874955E+01  0.50267284851E+02  0.14858641962E+03  0.15718890255E+03  0.47000000000E+01 0.  1.
        -11    1    1    2    0    0  0.93689530358E+01 -0.23031550470E+02 -0.25339528788E+00  0.24865514417E+02  0.00000000000E+00 0.  1.
         11    1    1    2    0    0 -0.80989038155E+02  0.20429769597E+02  0.83896710124E+02  0.11838605389E+03  0.00000000000E+00 0. -1.
<mgrwt>
<rscale>  0 0.13657111E+03</rscale>
<asrwt>0</asrwt>
<pdfrwt beam="1">  1        1 0.13342032E+00 0.14408649E+03</pdfrwt>
<pdfrwt beam="2">  1       -1 0.56445677E-02 0.14408649E+03</pdfrwt>
<totfact> 0.29259403E+03</totfact>
</mgrwt>
</event>
<event>
 6    1  0.4705246E-006  0.1366870E+03  0.7546771E-02  0.1229787E+00
          2   -1    0    0  501    0  0.00000000000E+00  0.00000000000E+00  0.95570567359E+03  0.95570567359E+03  0.00000000000E+00 0. -1.
         -2   -1    0    0    0  501 -0.00000000000E+00 -0.00000000000E+00 -0.15592255631E+02  0.15592255631E+02  0.00000000000E+00 0.  1.
          5    1    1    2  502    0 -0.36906121435E+02 -0.59767227016E+02  0.28503937859E+03  0.29360470121E+03  0.47000000000E+01 0. -1.
         -5    1    1    2    0  502 -0.18333578478E+02  0.62349544846E+02  0.20176544908E+03  0.21202587645E+03  0.47000000000E+01 0. -1.
        -11    1    1    2    0    0 -0.72146030426E+01  0.33345163774E+02  0.16519954284E+03  0.16868562297E+03  0.00000000000E+00 0. -1.
         11    1    1    2    0    0  0.62454302956E+02 -0.35927481605E+02  0.28810904745E+03  0.29698172858E+03  0.00000000000E+00 0.  1.
<mgrwt>
<rscale>  0 0.12844149E+03</rscale>
<asrwt>0</asrwt>
<pdfrwt beam="1">  1        2 0.14703160E+00 0.13668702E+03</pdfrwt>
<pdfrwt beam="2">  1       -2 0.23988093E-02 0.13668702E+03</pdfrwt>
<totfact> 0.15815447E+04</totfact>
</mgrwt>
</event>
<event>
 6    1  0.4705246E-006  0.1308579E+03  0.7546771E-02  0.1239265E+00
         -2   -1    0    0    0  501 -0.00000000000E+00  0.00000000000E+00  0.32275443669E+03  0.32275443669E+03  0.00000000000E+00 0.  1.
          2   -1    0    0  501    0  0.00000000000E+00 -0.00000000000E+00 -0.49922875735E+02  0.49922875735E+02  0.00000000000E+00 0. -1.
          5    1    1    2  502    0  0.62158740325E+02 -0.34991933655E+02  0.63430997359E+02  0.95570528123E+02  0.47000000000E+01 0.  1.
         -5    1    1    2    0  502 -0.53627144260E+02 -0.27097010236E+01  0.11127501199E+02  0.55037481447E+02  0.47000000000E+01 0.  1.
        -11    1    1    2    0    0 -0.24776250938E+02  0.44497808737E+02  0.19801342424E+03  0.20445839130E+03  0.00000000000E+00 0.  1.
         11    1    1    2    0    0  0.16244654873E+02 -0.67961740586E+01  0.25963815403E+00  0.17610911553E+02  0.00000000000E+00 0. -1.
<mgrwt>
<rscale>  0 0.12235283E+03</rscale>
<asrwt>0</asrwt>
<pdfrwt beam="2">  1        2 0.76804426E-02 0.13085795E+03</pdfrwt>
<pdfrwt beam="1">  1       -2 0.49654527E-01 0.13085795E+03</pdfrwt>
<totfact> 0.33304786E+03</totfact>
</mgrwt>
</event>
<event>
 6    1  0.4705246E-006  0.1952315E+03  0.7546771E-02  0.1158307E+00
          1   -1    0    0  501    0  0.00000000000E+00  0.00000000000E+00  0.54653366706E+02  0.54653366706E+02  0.00000000000E+00 0. -1.
         -1   -1    0    0    0  501 -0.00000000000E+00 -0.00000000000E+00 -0.66008628532E+03  0.66008628532E+03  0.00000000000E+00 0.  1.
          5    1    1    2  502    0 -0.11600389204E+02  0.16222235234E+03 -0.35909117566E+03  0.39423244801E+03  0.47000000000E+01 0.  1.
         -5    1    1    2    0  502  0.25837968782E+02 -0.12932482465E+02 -0.35485866173E+02  0.46002026385E+02  0.47000000000E+01 0.  1.
        -11    1    1    2    0    0 -0.27233313396E+02 -0.21876184992E+02 -0.97148465831E+02  0.10323780917E+03  0.00000000000E+00 0.  1.
         11    1    1    2    0    0  0.12995733817E+02 -0.12741368489E+03 -0.11370741095E+03  0.17126736846E+03  0.00000000000E+00 0. -1.
<mgrwt>
<rscale>  0 0.19017122E+03</rscale>
<asrwt>0</asrwt>
<pdfrwt beam="1">  1        1 0.84082100E-02 0.19523153E+03</pdfrwt>
<pdfrwt beam="2">  1       -1 0.10155174E+00 0.19523153E+03</pdfrwt>
<totfact> 0.78737731E+02</totfact>
</mgrwt>
</event>
<event>
 6    1  0.4705246E-006  0.1955346E+03  0.7546771E-02  0.1158967E+00
         -1   -1    0    0    0  501 -0.00000000000E+00  0.00000000000E+00  0.90948255437E+02  0.90948255437E+02  0.00000000000E+00 0.  1.
          1   -1    0    0  501    0  0.00000000000E+00 -0.00000000000E+00 -0.52775359209E+03  0.52775359209E+03  0.00000000000E+00 0. -1.
          5    1    1    2  502    0  0.13234444172E+03  0.27508292049E+02 -0.26064682838E+03  0.29365050065E+03  0.47000000000E+01 0. -1.
         -5    1    1    2    0  502  0.15491381873E+02 -0.57615114415E+02 -0.13537942814E+03  0.14801744453E+03  0.47000000000E+01 0.  1.
        -11    1    1    2    0    0 -0.13368633244E+03 -0.19169898262E+01 -0.46507344123E+02  0.14155791532E+03  0.00000000000E+00 0.  1.
         11    1    1    2    0    0 -0.14149491147E+02  0.32023812192E+02  0.57282640008E+01  0.35475987026E+02  0.00000000000E+00 0. -1.
<mgrwt>
<rscale>  0 0.18944021E+03</rscale>
<asrwt>0</asrwt>
<pdfrwt beam="2">  1        1 0.81192861E-01 0.19553460E+03</pdfrwt>
<pdfrwt beam="1">  1       -1 0.13992039E-01 0.19553460E+03</pdfrwt>
<totfact> 0.15009491E+03</totfact>
</mgrwt>
</event>
<event>
 6    1  0.4705246E-006  0.1380283E+03  0.7546771E-02  0.1229038E+00
         -1   -1    0    0    0  501 -0.00000000000E+00  0.00000000000E+00  0.16100578743E+03  0.16100578743E+03  0.00000000000E+00 0.  1.
          1   -1    0    0  501    0  0.00000000000E+00 -0.00000000000E+00 -0.92054365245E+02  0.92054365245E+02  0.00000000000E+00 0. -1.
          5    1    1    2  502    0 -0.14868430892E+02 -0.90644696637E+02  0.87673910795E+01  0.92393118856E+02  0.47000000000E+01 0. -1.
         -5    1    1    2    0  502 -0.68765820355E+01  0.37024532927E+02  0.37060797349E+02  0.53044284509E+02  0.47000000000E+01 0. -1.
        -11    1    1    2    0    0 -0.20368088792E+02 -0.30444897467E+00  0.32709444395E+02  0.38533874485E+02  0.00000000000E+00 0.  1.
         11    1    1    2    0    0  0.42113101719E+02  0.53924612685E+02 -0.95862106410E+01  0.69088874822E+02  0.00000000000E+00 0. -1.
<mgrwt>
<rscale>  0 0.12893964E+03</rscale>
<asrwt>0</asrwt>
<pdfrwt beam="2">  1        1 0.14162210E-01 0.13802831E+03</pdfrwt>
<pdfrwt beam="1">  1       -1 0.24770121E-01 0.13802831E+03</pdfrwt>
<totfact> 0.54227876E+03</totfact>
</mgrwt>
</event>
<event>
 6    1  0.4705246E-006  0.1466708E+03  0.7546771E-02  0.1214107E+00
         -2   -1    0    0    0  501 -0.00000000000E+00  0.00000000000E+00  0.61459403762E+02  0.61459403762E+02  0.00000000000E+00 0.  1.
          2   -1    0    0  501    0  0.00000000000E+00 -0.00000000000E+00 -0.31956519262E+03  0.31956519262E+03  0.00000000000E+00 0. -1.
          5    1    1    2  502    0  0.47063139957E+02 -0.84734657853E+02 -0.13069576871E+03  0.16278321579E+03  0.47000000000E+01 0.  1.
         -5    1    1    2    0  502 -0.48739343808E+02  0.80234252302E+01 -0.69023367638E+02  0.85007142449E+02  0.47000000000E+01 0.  1.
        -11    1    1    2    0    0 -0.12767336072E+02 -0.16063631012E+02  0.34514456808E+01  0.20807632950E+02  0.00000000000E+00 0.  1.
         11    1    1    2    0    0  0.14443539924E+02  0.92774863635E+02 -0.61838098195E+02  0.11242660520E+03  0.00000000000E+00 0. -1.
<mgrwt>
<rscale>  0 0.13942330E+03</rscale>
<asrwt>0</asrwt>
<pdfrwt beam="2">  1        2 0.49163875E-01 0.14667082E+03</pdfrwt>
<pdfrwt beam="1">  1       -2 0.94552930E-02 0.14667082E+03</pdfrwt>
<totfact> 0.70939954E+03</totfact>
</mgrwt>
</event>
<event>
 6    1  0.4705246E-006  0.1410487E+03  0.7546771E-02  0.1222486E+00
          2   -1    0    0  501    0  0.00000000000E+00  0.00000000000E+00  0.40936093347E+03  0.40936093347E+03  0.00000000000E+00 0. -1.
         -2   -1    0    0    0  501 -0.00000000000E+00 -0.00000000000E+00 -0.70625906757E+02  0.70625906757E+02  0.00000000000E+00 0.  1.
          5    1    1    2  502    0 -0.97415799271E+02 -0.17571746613E+02  0.19218246000E+03  0.21622856462E+03  0.47000000000E+01 0. -1.
         -5    1    1    2    0  502  0.34742151838E+02 -0.81329472357E+00  0.14674718529E+03  0.15087910708E+03  0.47000000000E+01 0. -1.
        -11    1    1    2    0    0  0.24133916730E+02 -0.14878873671E+02 -0.39457924705E+02  0.48587597599E+02  0.00000000000E+00 0.  1.
         11    1    1    2    0    0  0.38539730703E+02  0.33263915007E+02  0.39263306130E+02  0.64291570929E+02  0.00000000000E+00 0. -1.
<mgrwt>
<rscale>  0 0.13340746E+03</rscale>
<asrwt>0</asrwt>
<pdfrwt beam="1">  1        2 0.62978603E-01 0.14104871E+03</pdfrwt>
<pdfrwt beam="2">  1       -2 0.10865524E-01 0.14104871E+03</pdfrwt>
<totfact> 0.43668094E+03</totfact>
</mgrwt>
</event>
<event>
 6    1  0.4705246E-006  0.1433310E+03  0.7546771E-02  0.1219076E+00
          2   -1    0    0  501    0  0.00000000000E+00  0.00000000000E+00  0.14682037760E+04  0.14682037760E+04  0.00000000000E+00 0. -1.
         -2   -1    0    0    0  501 -0.00000000000E+00 -0.00000000000E+00 -0.11934225546E+02  0.11934225546E+02  0.00000000000E+00 0.  1.
          5    1    1    2  502    0  0.23538643472E+00 -0.26073030038E+02  0.75787668367E+03  0.75833964419E+03  0.47000000000E+01 0.  1.
         -5    1    1    2    0  502  0.64387392373E+02 -0.11767281072E+01  0.19902688225E+03  0.20923888463E+03  0.47000000000E+01 0.  1.
        -11    1    1    2    0    0 -0.12543486000E+01  0.46913950447E+02  0.25832827291E+03  0.26255663907E+03  0.00000000000E+00 0. -1.
         11    1    1    2    0    0 -0.63368430208E+02 -0.19664192302E+02  0.24103771168E+03  0.25000283370E+03  0.00000000000E+00 0.  1.
<mgrwt>
<rscale>  0 0.13581371E+03</rscale>
<asrwt>0</asrwt>
<pdfrwt beam="1">  1        2 0.22587736E+00 0.14333100E+03</pdfrwt>
<pdfrwt beam="2">  1       -2 0.18360359E-02 0.14333100E+03</pdfrwt>
<totfact> 0.12122340E+04</totfact>
</mgrwt>
</event>
<event>
 6    1  0.4705246E-006  0.1383215E+03  0.7546771E-02  0.1227008E+00
         -1   -1    0    0    0  501 -0.00000000000E+00  0.00000000000E+00  0.13523243780E+02  0.13523243780E+02  0.00000000000E+00 0.  1.
          1   -1    0    0  501    0  0.00000000000E+00 -0.00000000000E+00 -0.14820793514E+04  0.14820793514E+04  0.00000000000E+00 0. -1.
          5    1    1    2  502    0  0.33215613093E+02  0.47996447321E+02 -0.10545696587E+04  0.10561942014E+04  0.47000000000E+01 0.  1.
         -5    1    1    2    0  502 -0.36409368980E+02  0.11137822799E+02 -0.10871948895E+03  0.11528968091E+03  0.47000000000E+01 0.  1.
        -11    1    1    2    0    0  0.22941992806E+02  0.10508416472E+02 -0.28610818239E+02  0.38148928832E+02  0.00000000000E+00 0.  1.
         11    1    1    2    0    0 -0.19748236919E+02 -0.69642686591E+02 -0.27665614170E+03  0.28596978407E+03  0.00000000000E+00 0. -1.
<mgrwt>
<rscale>  0 0.13030195E+03</rscale>
<asrwt>0</asrwt>
<pdfrwt beam="2">  1        1 0.22801216E+00 0.13832153E+03</pdfrwt>
<pdfrwt beam="1">  1       -1 0.20804995E-02 0.13832153E+03</pdfrwt>
<totfact> 0.46868626E+03</totfact>
</mgrwt>
</event>
<event>
 6    1  0.4705246E-006  0.4032999E+03  0.7546771E-02  0.1042643E+00
          2   -1    0    0  501    0  0.00000000000E+00  0.00000000000E+00  0.15600236570E+04  0.15600236570E+04  0.00000000000E+00 0. -1.
         -2   -1    0    0    0  501 -0.00000000000E+00 -0.00000000000E+00 -0.26065436382E+02  0.26065436382E+02  0.00000000000E+00 0.  1.
          5    1    1    2  502    0 -0.11462537883E+03  0.10460574325E+03  0.11270915206E+04  0.11377340307E+04  0.47000000000E+01 0. -1.
         -5    1    1    2    0  502  0.40556309966E+01 -0.70673789084E+01  0.48322519537E+01  0.10575284694E+02  0.47000000000E+01 0. -1.
        -11    1    1    2    0    0  0.47946795923E+02 -0.35265774036E+02  0.59946172338E+02  0.84475520926E+02  0.00000000000E+00 0.  1.
         11    1    1    2    0    0  0.62622951915E+02 -0.62272590307E+02  0.34208827573E+03  0.35330425698E+03  0.00000000000E+00 0. -1.
<mgrwt>
<rscale>  0 0.40329988E+03</rscale>
<asrwt>0</asrwt>
<pdfrwt beam="1">  1        2 0.24000357E+00 0.40329988E+03</pdfrwt>
<pdfrwt beam="2">  1       -2 0.40100683E-02 0.40329988E+03</pdfrwt>
<totfact> 0.34703785E+03</totfact>
</mgrwt>
</event>
<event>
 6    1  0.4705246E-006  0.2929338E+03  0.7546771E-02  0.1090569E+00
          1   -1    0    0  501    0  0.00000000000E+00  0.00000000000E+00  0.82720151387E+03  0.82720151387E+03  0.00000000000E+00 0. -1.
         -1   -1    0    0    0  501 -0.00000000000E+00 -0.00000000000E+00 -0.99220971347E+02  0.99220971347E+02  0.00000000000E+00 0.  1.
          5    1    1    2  502    0 -0.24451053999E+02 -0.26467616283E+03  0.31268437325E+03  0.41042043381E+03  0.47000000000E+01 0. -1.
         -5    1    1    2    0  502 -0.25122719440E+02  0.44267982200E+01  0.44652954061E+02  0.51640331921E+02  0.47000000000E+01 0. -1.
        -11    1    1    2    0    0 -0.14001247106E+02  0.38198594453E+02  0.22282367527E+02  0.46386112592E+02  0.00000000000E+00 0.  1.
         11    1    1    2    0    0  0.63575020545E+02  0.22205077015E+03  0.34836084768E+03  0.41797560690E+03  0.00000000000E+00 0. -1.
<mgrwt>
<rscale>  0 0.28957853E+03</rscale>
<asrwt>0</asrwt>
<pdfrwt beam="1">  1        1 0.12726177E+00 0.29293376E+03</pdfrwt>
<pdfrwt beam="2">  1       -1 0.15264765E-01 0.29293376E+03</pdfrwt>
<totfact> 0.68505790E+02</totfact>
</mgrwt>
</event>
<event>
 6    1  0.4705246E-006  0.1433265E+03  0.7546771E-02  0.1215090E+00
          1   -1    0    0  501    0  0.00000000000E+00  0.00000000000E+00  0.10176440241E+04  0.10176440241E+04  0.00000000000E+00 0. -1.
         -1   -1    0    0    0  501 -0.00000000000E+00 -0.00000000000E+00 -0.20097927634E+02  0.20097927634E+02  0.00000000000E+00 0.  1.
          5    1    1    2  502    0 -0.32801118376E+02  0.37648626052E+02  0.88055989474E+02  0.10133745454E+03  0.47000000000E+01 0. -1.
         -5    1    1    2    0  502 -0.33999299680E+02 -0.16178503863E+02  0.61553745022E+03  0.61670587721E+03  0.47000000000E+01 0. -1.
        -11    1    1    2    0    0  0.57690262863E+02 -0.50044867251E+02  0.11370352526E+03  0.13697133578E+03  0.00000000000E+00 0.  1.
         11    1    1    2    0    0  0.91101551924E+01  0.28574745062E+02  0.18024913151E+03  0.18272728420E+03  0.00000000000E+00 0. -1.
<mgrwt>
<rscale>  0 0.13869916E+03</rscale>
<asrwt>0</asrwt>
<pdfrwt beam="1">  1        1 0.15656058E+00 0.14332654E+03</pdfrwt>
<pdfrwt beam="2">  1       -1 0.30919897E-02 0.14332654E+03</pdfrwt>
<totfact> 0.54669655E+03</totfact>
</mgrwt>
</event>
<event>
 6    1  0.4705246E-006  0.1279843E+03  0.7546771E-02  0.1245531E+00
         -3   -1    0    0    0  501 -0.00000000000E+00  0.00000000000E+00  0.39858969654E+02  0.39858969654E+02  0.00000000000E+00 0.  1.
          3   -1    0    0  501    0  0.00000000000E+00 -0.00000000000E+00 -0.30971877037E+03  0.30971877037E+03  0.00000000000E+00 0. -1.
          5    1    1    2  502    0  0.20945316906E+02  0.42093122580E+02 -0.11572225900E+03  0.12499707395E+03  0.47000000000E+01 0. -1.
         -5    1    1    2    0  502 -0.40205301417E+01 -0.63732303245E+02 -0.35860242185E+02  0.73389495905E+02  0.47000000000E+01 0. -1.
        -11    1    1    2    0    0  0.14661834023E+02  0.16190893736E+02 -0.11709652285E+03  0.11911637201E+03  0.00000000000E+00 0. -1.
         11    1    1    2    0    0 -0.31586620787E+02  0.54482869288E+01 -0.11807766809E+01  0.32074798157E+02  0.00000000000E+00 0.  1.
<mgrwt>
<rscale>  0 0.11853684E+03</rscale>
<asrwt>0</asrwt>
<pdfrwt beam="2">  1        3 0.47649041E-01 0.12798428E+03</pdfrwt>
<pdfrwt beam="1">  1       -3 0.61321493E-02 0.12798428E+03</pdfrwt>
<totfact> 0.16452816E+03</totfact>
</mgrwt>
</event>
<event>
 6    1  0.4705246E-006  0.1657021E+03  0.7546771E-02  0.1190005E+00
          2   -1    0    0  501    0  0.00000000000E+00  0.00000000000E+00  0.51814809478E+02  0.51814809478E+02  0.00000000000E+00 0. -1.
         -2   -1    0    0    0  501 -0.00000000000E+00 -0.00000000000E+00 -0.80761089084E+03  0.80761089084E+03  0.00000000000E+00 0.  1.
          5    1    1    2  502    0  0.38974080337E+02 -0.31733664149E+02 -0.65088208470E+02  0.82368496770E+02  0.47000000000E+01 0. -1.
         -5    1    1    2    0  502 -0.81580797443E+02 -0.70038754058E+02 -0.45497394391E+02  0.11684586633E+03  0.47000000000E+01 0.  1.
        -11    1    1    2    0    0  0.62468524130E+02  0.76331088113E+02 -0.56840816886E+03  0.57690258965E+03  0.00000000000E+00 0. -1.
         11    1    1    2    0    0 -0.19861807023E+02  0.25441330094E+02 -0.76802309640E+02  0.83308747567E+02  0.00000000000E+00 0.  1.
<mgrwt>
<rscale>  0 0.15884714E+03</rscale>
<asrwt>0</asrwt>
<pdfrwt beam="1">  1        2 0.79715100E-02 0.16570210E+03</pdfrwt>
<pdfrwt beam="2">  1       -2 0.12424782E+00 0.16570210E+03</pdfrwt>
<totfact> 0.43151788E+02</totfact>
</mgrwt>
</event>
<event>
 6    1  0.4705246E-006  0.1277423E+03  0.7546771E-02  0.1245876E+00
         -2   -1    0    0    0  501 -0.00000000000E+00  0.00000000000E+00  0.45077966800E+02  0.45077966800E+02  0.00000000000E+00 0.  1.
          2   -1    0    0  501    0  0.00000000000E+00 -0.00000000000E+00 -0.31960578663E+03  0.31960578663E+03  0.00000000000E+00 0. -1.
          5    1    1    2  502    0 -0.18579059467E+02 -0.60982585790E+02 -0.17408157321E+03  0.18544686935E+03  0.47000000000E+01 0.  1.
         -5    1    1    2    0  502  0.34028955385E+02  0.39694740260E+02 -0.50044379788E+02  0.72527044316E+02  0.47000000000E+01 0.  1.
        -11    1    1    2    0    0 -0.50976927070E+01 -0.29380049435E+02  0.57541652056E+01  0.30369132239E+02  0.00000000000E+00 0.  1.
         11    1    1    2    0    0 -0.10352203211E+02  0.50667894965E+02 -0.56156032046E+02  0.76340707533E+02  0.00000000000E+00 0. -1.
<mgrwt>
<rscale>  0 0.11833096E+03</rscale>
<asrwt>0</asrwt>
<pdfrwt beam="2">  1        2 0.49170121E-01 0.12774231E+03</pdfrwt>
<pdfrwt beam="1">  1       -2 0.69350717E-02 0.12774231E+03</pdfrwt>
<totfact> 0.11343630E+04</totfact>
</mgrwt>
</event>
<event>
 6    1  0.4705246E-006  0.1415331E+03  0.7546771E-02  0.1223532E+00
          1   -1    0    0  501    0  0.00000000000E+00  0.00000000000E+00  0.62222867552E+02  0.62222867552E+02  0.00000000000E+00 0. -1.
         -1   -1    0    0    0  501 -0.00000000000E+00 -0.00000000000E+00 -0.41594058109E+03  0.41594058109E+03  0.00000000000E+00 0.  1.
          5    1    1    2  502    0 -0.15144653465E+02 -0.49061445955E+02  0.15326824394E+02  0.53790218012E+02  0.47000000000E+01 0.  1.
         -5    1    1    2    0  502  0.72577288349E+02  0.15792415090E+02 -0.57019656061E+02  0.93756036263E+02  0.47000000000E+01 0.  1.
        -11    1    1    2    0    0  0.13270214718E+02  0.30306686567E+02 -0.56494702074E+02  0.65469421959E+02  0.00000000000E+00 0. -1.
         11    1    1    2    0    0 -0.70702849601E+02  0.29623442977E+01 -0.25553017979E+03  0.26514777241E+03  0.00000000000E+00 0.  1.
<mgrwt>
<rscale>  0 0.13268023E+03</rscale>
<asrwt>0</asrwt>
<pdfrwt beam="1">  1        1 0.95727485E-02 0.14153305E+03</pdfrwt>
<pdfrwt beam="2">  1       -1 0.63990861E-01 0.14153305E+03</pdfrwt>
<totfact> 0.17043882E+03</totfact>
</mgrwt>
</event>
<event>
 6    1  0.4705246E-006  0.2647875E+03  0.7546771E-02  0.1106434E+00
          2   -1    0    0  501    0  0.00000000000E+00  0.00000000000E+00  0.17283134492E+03  0.17283134492E+03  0.00000000000E+00 0. -1.
         -2   -1    0    0    0  501 -0.00000000000E+00 -0.00000000000E+00 -0.47072730421E+03  0.47072730421E+03  0.00000000000E+00 0.  1.
          5    1    1    2  502    0 -0.87944460753E+02 -0.29526013913E+02 -0.29467731152E+02  0.97449735012E+02  0.47000000000E+01 0.  1.
         -5    1    1    2    0  502 -0.13521825416E+03  0.97993326325E+02  0.15010298355E+02  0.16773212966E+03  0.47000000000E+01 0.  1.
        -11    1    1    2    0    0  0.15719008011E+02 -0.35822293407E+02 -0.61055672944E+02  0.72512889312E+02  0.00000000000E+00 0.  1.
         11    1    1    2    0    0  0.20744370691E+03 -0.32645019004E+02 -0.22238285355E+03  0.30586389515E+03  0.00000000000E+00 0. -1.
<mgrwt>
<rscale>  0 0.26118326E+03</rscale>
<asrwt>0</asrwt>
<pdfrwt beam="1">  1        2 0.26589438E-01 0.26478747E+03</pdfrwt>
<pdfrwt beam="2">  1       -2 0.72419585E-01 0.26478747E+03</pdfrwt>
<totfact> 0.35704238E+02</totfact>
</mgrwt>
</event>
<event>
 6    1  0.4705246E-006  0.2392597E+03  0.7546771E-02  0.1122903E+00
         -1   -1    0    0    0  501 -0.00000000000E+00  0.00000000000E+00  0.73055731267E+03  0.73055731267E+03  0.00000000000E+00 0.  1.
          1   -1    0    0  501    0  0.00000000000E+00 -0.00000000000E+00 -0.89461441283E+02  0.89461441283E+02  0.00000000000E+00 0. -1.
          5    1    1    2  502    0  0.63576119299E+02  0.74071072004E+01  0.16542111245E+02  0.66276086386E+02  0.47000000000E+01 0.  1.
         -5    1    1    2    0  502  0.86763027211E+02 -0.14531617829E+03  0.13941699223E+03  0.21932579029E+03  0.47000000000E+01 0.  1.
        -11    1    1    2    0    0 -0.46275298126E+02  0.65608704197E+02  0.29645397688E+03  0.30713330280E+03  0.00000000000E+00 0.  1.
         11    1    1    2    0    0 -0.10406384838E+03  0.72300366894E+02  0.18868279103E+03  0.22728357447E+03  0.00000000000E+00 0. -1.
<mgrwt>
<rscale>  0 0.23538964E+03</rscale>
<asrwt>0</asrwt>
<pdfrwt beam="2">  1        1 0.13763299E-01 0.23925967E+03</pdfrwt>
<pdfrwt beam="1">  1       -1 0.11239343E+00 0.23925967E+03</pdfrwt>
<totfact> 0.32356067E+02</totfact>
</mgrwt>
</event>
<event>
 6    1  0.4705246E-006  0.1393675E+03  0.7546771E-02  0.1225666E+00
          1   -1    0    0  501    0  0.00000000000E+00  0.00000000000E+00  0.51049713986E+03  0.51049713986E+03  0.00000000000E+00 0. -1.
         -1   -1    0    0    0  501 -0.00000000000E+00 -0.00000000000E+00 -0.32034442593E+02  0.32034442593E+02  0.00000000000E+00 0.  1.
          5    1    1    2  502    0  0.14502583167E+02  0.74663523491E+02  0.13393418111E+03  0.15409549483E+03  0.47000000000E+01 0. -1.
         -5    1    1    2    0  502  0.37950337539E+02 -0.42274633100E+02  0.19459425138E+03  0.20277175689E+03  0.47000000000E+01 0. -1.
        -11    1    1    2    0    0 -0.74293375791E+01 -0.23635177435E+02 -0.39515833653E+01  0.25088477043E+02  0.00000000000E+00 0. -1.
         11    1    1    2    0    0 -0.45023583127E+02 -0.87537129568E+01  0.15388584815E+03  0.16057585369E+03  0.00000000000E+00 0.  1.
<mgrwt>
<rscale>  0 0.13121332E+03</rscale>
<asrwt>0</asrwt>
<pdfrwt beam="1">  1        1 0.78538015E-01 0.13936752E+03</pdfrwt>
<pdfrwt beam="2">  1       -1 0.49283762E-02 0.13936752E+03</pdfrwt>
<totfact> 0.75729643E+03</totfact>
</mgrwt>
</event>
<event>
 6    1  0.4705246E-006  0.1781376E+03  0.7546771E-02  0.1188720E+00
          2   -1    0    0  501    0  0.00000000000E+00  0.00000000000E+00  0.19001843155E+04  0.19001843155E+04  0.00000000000E+00 0. -1.
         -2   -1    0    0    0  501 -0.00000000000E+00 -0.00000000000E+00 -0.14057972879E+02  0.14057972879E+02  0.00000000000E+00 0.  1.
          5    1    1    2  502    0 -0.30409858016E+02  0.19865613009E+02  0.12443850374E+04  0.12449239388E+04  0.47000000000E+01 0. -1.
         -5    1    1    2    0  502 -0.20320676962E+02 -0.70880870479E+02  0.27086584312E+03  0.28076221733E+03  0.47000000000E+01 0.  1.
        -11    1    1    2    0    0 -0.50556992515E+01  0.53094462177E+02  0.11651671017E+03  0.12814337968E+03  0.00000000000E+00 0.  1.
         11    1    1    2    0    0  0.55786234230E+02 -0.20792047069E+01  0.25435875190E+03  0.26041275255E+03  0.00000000000E+00 0. -1.
<mgrwt>
<rscale>  0 0.15997981E+03</rscale>
<asrwt>0</asrwt>
<pdfrwt beam="1">  1        2 0.29233584E+00 0.17813763E+03</pdfrwt>
<pdfrwt beam="2">  1       -2 0.21627666E-02 0.17813763E+03</pdfrwt>
<totfact> 0.57430583E+03</totfact>
</mgrwt>
</event>
<event>
 6    1  0.4705246E-006  0.2857874E+03  0.7546771E-02  0.1094374E+00
         -2   -1    0    0    0  501 -0.00000000000E+00  0.00000000000E+00  0.11253366669E+03  0.11253366669E+03  0.00000000000E+00 0.  1.
          2   -1    0    0  501    0  0.00000000000E+00 -0.00000000000E+00 -0.76114088450E+03  0.76114088450E+03  0.00000000000E+00 0. -1.
          5    1    1    2  502    0 -0.22987215579E+02  0.70625953927E+02 -0.25950657909E+03  0.26996702028E+03  0.47000000000E+01 0.  1.
         -5    1    1    2    0  502 -0.85864704199E+02  0.16219557639E+03 -0.20288333298E+03  0.27361266277E+03  0.47000000000E+01 0.  1.
        -11    1    1    2    0    0  0.34326650108E+02 -0.10334002580E+03 -0.27885208754E+02  0.11240580371E+03  0.00000000000E+00 0.  1.
         11    1    1    2    0    0  0.74525269670E+02 -0.12948150452E+03 -0.15833209699E+03  0.21768906442E+03  0.00000000000E+00 0. -1.
<mgrwt>
<rscale>  0 0.28242003E+03</rscale>
<asrwt>0</asrwt>
<pdfrwt beam="2">  1        2 0.11709860E+00 0.28578741E+03</pdfrwt>
<pdfrwt beam="1">  1       -2 0.17312872E-01 0.28578741E+03</pdfrwt>
<totfact> 0.10185334E+03</totfact>
</mgrwt>
</event>
<event>
 6    1  0.4705246E-006  0.2539037E+03  0.7546771E-02  0.1110862E+00
         -2   -1    0    0    0  501 -0.00000000000E+00  0.00000000000E+00  0.16519634171E+03  0.16519634171E+03  0.00000000000E+00 0. -1.
          2   -1    0    0  501    0  0.00000000000E+00 -0.00000000000E+00 -0.97561345558E+02  0.97561345558E+02  0.00000000000E+00 0.  1.
          5    1    1    2  502    0 -0.60055577001E+01 -0.12788832457E+02 -0.37054788681E+02  0.39934550493E+02  0.47000000000E+01 0. -1.
         -5    1    1    2    0  502  0.25393859584E+02  0.75737446390E+02  0.67301237445E+02  0.10455886118E+03  0.47000000000E+01 0. -1.
        -11    1    1    2    0    0 -0.39532382141E+02 -0.19165050082E+02  0.51836986629E+02  0.67949845954E+02  0.00000000000E+00 0. -1.
         11    1    1    2    0    0  0.20144080258E+02 -0.43783563851E+02 -0.14448439243E+02  0.50314429635E+02  0.00000000000E+00 0.  1.
<mgrwt>
<rscale>  0 0.25390374E+03</rscale>
<asrwt>0</asrwt>
<pdfrwt beam="2">  1        2 0.15009438E-01 0.25390374E+03</pdfrwt>
<pdfrwt beam="1">  1       -2 0.25414822E-01 0.25390374E+03</pdfrwt>
<totfact> 0.53151729E+03</totfact>
</mgrwt>
</event>
<event>
 6    1  0.4705246E-006  0.3473094E+03  0.7546771E-02  0.1063725E+00
         -1   -1    0    0    0  501 -0.00000000000E+00  0.00000000000E+00  0.10093155470E+03  0.10093155470E+03  0.00000000000E+00 0.  1.
          1   -1    0    0  501    0  0.00000000000E+00 -0.00000000000E+00 -0.29877624456E+03  0.29877624456E+03  0.00000000000E+00 0. -1.
          5    1    1    2  502    0 -0.51466698578E+01 -0.25666075885E+01 -0.62480555091E+02  0.62920469242E+02  0.47000000000E+01 0. -1.
         -5    1    1    2    0  502 -0.11493169247E+03 -0.36403271884E+02  0.13362253830E+02  0.12138835185E+03  0.47000000000E+01 0. -1.
        -11    1    1    2    0    0  0.10109144559E+03 -0.10239679976E+02 -0.83512122290E+02  0.13152416503E+03  0.00000000000E+00 0.  1.
         11    1    1    2    0    0  0.18986916736E+02  0.49209559448E+02 -0.65214266313E+02  0.83874813138E+02  0.00000000000E+00 0. -1.
<mgrwt>
<rscale>  0 0.34730938E+03</rscale>
<asrwt>0</asrwt>
<pdfrwt beam="2">  1        1 0.45965576E-01 0.34730938E+03</pdfrwt>
<pdfrwt beam="1">  1       -1 0.15527931E-01 0.34730938E+03</pdfrwt>
<totfact> 0.26855508E+03</totfact>
</mgrwt>
</event>
<event>
 6    1  0.4705246E-006  0.1279688E+03  0.7546771E-02  0.1242429E+00
         -1   -1    0    0    0  501 -0.00000000000E+00  0.00000000000E+00  0.27056631020E+02  0.27056631020E+02  0.00000000000E+00 0.  1.
          1   -1    0    0  501    0  0.00000000000E+00 -0.00000000000E+00 -0.48651536746E+03  0.48651536746E+03  0.00000000000E+00 0. -1.
          5    1    1    2  502    0 -0.69331162517E+02 -0.20851891761E+02 -0.11719453690E+03  0.13783417924E+03  0.47000000000E+01 0.  1.
         -5    1    1    2    0  502  0.48085237882E+02  0.35381691493E+01 -0.16614422688E+03  0.17306271369E+03  0.47000000000E+01 0.  1.
        -11    1    1    2    0    0 -0.98360934580E+01  0.45156425369E+02 -0.42845436004E+02  0.63020495658E+02  0.00000000000E+00 0.  1.
         11    1    1    2    0    0  0.31082018093E+02 -0.27842702757E+02 -0.13327453665E+03  0.13965460990E+03  0.00000000000E+00 0. -1.
<mgrwt>
<rscale>  0 0.12040576E+03</rscale>
<asrwt>0</asrwt>
<pdfrwt beam="2">  1        1 0.74848513E-01 0.12796884E+03</pdfrwt>
<pdfrwt beam="1">  1       -1 0.41625589E-02 0.12796884E+03</pdfrwt>
<totfact> 0.10282111E+04</totfact>
</mgrwt>
</event>
<event>
 6    1  0.4705246E-006  0.1335336E+03  0.7546771E-02  0.1235765E+00
         -2   -1    0    0    0  501 -0.00000000000E+00  0.00000000000E+00  0.13866469053E+02  0.13866469053E+02  0.00000000000E+00 0.  1.
          2   -1    0    0  501    0  0.00000000000E+00 -0.00000000000E+00 -0.10845364517E+04  0.10845364517E+04  0.00000000000E+00 0. -1.
          5    1    1    2  502    0  0.27063004670E+02 -0.71733278142E+02 -0.35766358355E+03  0.36581880544E+03  0.47000000000E+01 0. -1.
         -5    1    1    2    0  502  0.14907373944E+02  0.50638682075E+02 -0.40407140871E+03  0.40753196102E+03  0.47000000000E+01 0. -1.
        -11    1    1    2    0    0 -0.34801459660E+02  0.42827004171E+02 -0.29041838384E+03  0.29561483649E+03  0.00000000000E+00 0. -1.
         11    1    1    2    0    0 -0.71689189531E+01 -0.21732408104E+02 -0.18516606537E+02  0.29437317789E+02  0.00000000000E+00 0.  1.
<mgrwt>
<rscale>  0 0.12455579E+03</rscale>
<asrwt>0</asrwt>
<pdfrwt beam="2">  1        2 0.16685179E+00 0.13353355E+03</pdfrwt>
<pdfrwt beam="1">  1       -2 0.21333025E-02 0.13353355E+03</pdfrwt>
<totfact> 0.15715671E+04</totfact>
</mgrwt>
</event>
<event>
 6    1  0.4705246E-006  0.1646922E+03  0.7546771E-02  0.1209311E+00
          4   -1    0    0  501    0  0.00000000000E+00  0.00000000000E+00  0.78017649054E+02  0.78017649054E+02  0.00000000000E+00 0. -1.
         -4   -1    0    0    0  501 -0.00000000000E+00 -0.00000000000E+00 -0.21481638966E+03  0.21481638966E+03  0.00000000000E+00 0.  1.
          5    1    1    2  502    0 -0.32696615367E+02 -0.55899298204E+01  0.41275310820E+02  0.53160673952E+02  0.47000000000E+01 0. -1.
         -5    1    1    2    0  502  0.46264787766E+02  0.16255868499E+02 -0.11931700682E+03  0.12908649025E+03  0.47000000000E+01 0.  1.
        -11    1    1    2    0    0 -0.18558330740E+01  0.33842435512E+02 -0.54746382229E+02  0.64388826088E+02  0.00000000000E+00 0. -1.
         11    1    1    2    0    0 -0.11712339325E+02 -0.44508374191E+02 -0.40106623742E+01  0.46198048424E+02  0.00000000000E+00 0.  1.
<mgrwt>
<rscale>  0 0.14302879E+03</rscale>
<asrwt>0</asrwt>
<pdfrwt beam="1">  1        4 0.12002715E-01 0.16469221E+03</pdfrwt>
<pdfrwt beam="2">  1       -4 0.33048675E-01 0.16469221E+03</pdfrwt>
<totfact> 0.84290667E+02</totfact>
</mgrwt>
</event>
<event>
 6    1  0.4705246E-006  0.1952549E+03  0.7546771E-02  0.1158393E+00
          2   -1    0    0  501    0  0.00000000000E+00  0.00000000000E+00  0.10011751007E+04  0.10011751007E+04  0.00000000000E+00 0. -1.
         -2   -1    0    0    0  501 -0.00000000000E+00 -0.00000000000E+00 -0.43354946120E+02  0.43354946120E+02  0.00000000000E+00 0.  1.
          5    1    1    2  502    0 -0.36306424611E+02 -0.11881303688E+02  0.72912109166E+02  0.82447483336E+02  0.47000000000E+01 0. -1.
         -5    1    1    2    0  502  0.48962299439E+02 -0.13758258822E+03  0.66480741920E+03  0.68067412906E+03  0.47000000000E+01 0. -1.
        -11    1    1    2    0    0  0.25398997365E+02  0.21386126225E+02  0.14555927954E+02  0.36253972205E+02  0.00000000000E+00 0.  1.
         11    1    1    2    0    0 -0.38054872193E+02  0.12807776568E+03  0.20554469821E+03  0.24515446217E+03  0.00000000000E+00 0. -1.
<mgrwt>
<rscale>  0 0.19007537E+03</rscale>
<asrwt>0</asrwt>
<pdfrwt beam="1">  1        2 0.15402692E+00 0.19525494E+03</pdfrwt>
<pdfrwt beam="2">  1       -2 0.66699925E-02 0.19525494E+03</pdfrwt>
<totfact> 0.32673684E+03</totfact>
</mgrwt>
</event>
<event>
 6    1  0.4705246E-006  0.1310191E+03  0.7546771E-02  0.1235946E+00
         -4   -1    0    0    0  501 -0.00000000000E+00  0.00000000000E+00  0.12455669508E+03  0.12455669508E+03  0.00000000000E+00 0.  1.
          4   -1    0    0  501    0  0.00000000000E+00 -0.00000000000E+00 -0.11507573387E+03  0.11507573387E+03  0.00000000000E+00 0. -1.
          5    1    1    2  502    0 -0.73660913469E+02 -0.25214768673E+02  0.19532201610E+01  0.78023200404E+02  0.47000000000E+01 0. -1.
         -5    1    1    2    0  502  0.36255893824E+02  0.37136799721E+02 -0.11337238271E+02  0.53331554469E+02  0.47000000000E+01 0. -1.
        -11    1    1    2    0    0 -0.14050684764E+02 -0.10192149116E+02 -0.31683137964E+02  0.36126484428E+02  0.00000000000E+00 0. -1.
         11    1    1    2    0    0  0.51455704409E+02 -0.17298819321E+01  0.50548117282E+02  0.72151189654E+02  0.00000000000E+00 0.  1.
<mgrwt>
<rscale>  0 0.12444067E+03</rscale>
<asrwt>0</asrwt>
<pdfrwt beam="2">  1        4 0.17703959E-01 0.13101913E+03</pdfrwt>
<pdfrwt beam="1">  1       -4 0.19162569E-01 0.13101913E+03</pdfrwt>
<totfact> 0.11212200E+03</totfact>
</mgrwt>
</event>
<event>
 6    1  0.4705246E-006  0.1675093E+03  0.7546771E-02  0.1187781E+00
          2   -1    0    0  501    0  0.00000000000E+00  0.00000000000E+00  0.26883535516E+03  0.26883535516E+03  0.00000000000E+00 0.  1.
         -2   -1    0    0    0  501 -0.00000000000E+00 -0.00000000000E+00 -0.95625432459E+02  0.95625432459E+02  0.00000000000E+00 0. -1.
          5    1    1    2  502    0 -0.49906397241E+02 -0.30521424002E+02  0.29336714072E+02  0.65612030918E+02  0.47000000000E+01 0. -1.
         -5    1    1    2    0  502  0.68905870857E+02 -0.79359959358E+02  0.11075278770E+03  0.15275566167E+03  0.47000000000E+01 0. -1.
        -11    1    1    2    0    0  0.83410818740E+01 -0.69640194264E+01  0.23277312554E+02  0.25688606290E+02  0.00000000000E+00 0.  1.
         11    1    1    2    0    0 -0.27340555490E+02  0.11684540279E+03  0.98431083731E+01  0.12040448874E+03  0.00000000000E+00 0. -1.
<mgrwt>
<rscale>  0 0.16081342E+03</rscale>
<asrwt>0</asrwt>
<pdfrwt beam="1">  1        2 0.41359285E-01 0.16750934E+03</pdfrwt>
<pdfrwt beam="2">  1       -2 0.14711605E-01 0.16750934E+03</pdfrwt>
<totfact> 0.42344722E+03</totfact>
</mgrwt>
</event>
<event>
 6    1  0.4705246E-006  0.1994813E+03  0.7546771E-02  0.1181508E+00
         -1   -1    0    0    0  501 -0.00000000000E+00  0.00000000000E+00  0.55878055763E+02  0.55878055763E+02  0.00000000000E+00 0.  1.
          1   -1    0    0  501    0  0.00000000000E+00 -0.00000000000E+00 -0.51851793305E+03  0.51851793305E+03  0.00000000000E+00 0. -1.
          5    1    1    2  502    0 -0.39816986263E+02  0.41536876427E+02 -0.34316357873E+03  0.34798568399E+03  0.47000000000E+01 0. -1.
         -5    1    1    2    0  502  0.51087526040E+02 -0.74365488243E+02 -0.83565285728E+02  0.12306668167E+03  0.47000000000E+01 0.  1.
        -11    1    1    2    0    0  0.33039057820E+02  0.80054050182E+01  0.94102104433E+01  0.35273473202E+02  0.00000000000E+00 0.  1.
         11    1    1    2    0    0 -0.44309597597E+02  0.24823206798E+02 -0.45321223272E+02  0.68070149947E+02  0.00000000000E+00 0. -1.
<mgrwt>
<rscale>  0 0.16653736E+03</rscale>
<asrwt>0</asrwt>
<pdfrwt beam="2">  1        1 0.79771992E-01 0.19948135E+03</pdfrwt>
<pdfrwt beam="1">  1       -1 0.85966237E-02 0.19948135E+03</pdfrwt>
<totfact> 0.32701819E+03</totfact>
</mgrwt>
</event>
<event>
 6    1  0.4705246E-006  0.3281678E+03  0.7546771E-02  0.1071950E+00
          2   -1    0    0  501    0  0.00000000000E+00  0.00000000000E+00  0.89602224558E+03  0.89602224558E+03  0.00000000000E+00 0. -1.
         -2   -1    0    0    0  501 -0.00000000000E+00 -0.00000000000E+00 -0.30047827543E+02  0.30047827543E+02  0.00000000000E+00 0.  1.
          5    1    1    2  502    0  0.88781795665E+02  0.19534693771E+02  0.34388846049E+03  0.35573188606E+03  0.47000000000E+01 0.  1.
         -5    1    1    2    0  502 -0.23920048460E+02 -0.17888305324E+02  0.41595601579E+03  0.41705354244E+03  0.47000000000E+01 0.  1.
        -11    1    1    2    0    0 -0.38654200507E+02 -0.11329768570E+02  0.11666665033E+03  0.12342454445E+03  0.00000000000E+00 0. -1.
         11    1    1    2    0    0 -0.26207546697E+02  0.96833801219E+01 -0.10536708582E+02  0.29860100171E+02  0.00000000000E+00 0.  1.
<mgrwt>
<rscale>  0 0.32816777E+03</rscale>
<asrwt>0</asrwt>
<pdfrwt beam="1">  1        2 0.13784956E+00 0.32816777E+03</pdfrwt>
<pdfrwt beam="2">  1       -2 0.46227434E-02 0.32816777E+03</pdfrwt>
<totfact> 0.67655263E+03</totfact>
</mgrwt>
</event>
<event>
 6    1  0.4705246E-006  0.1409652E+03  0.7546771E-02  0.1223695E+00
         -3   -1    0    0    0  501 -0.00000000000E+00  0.00000000000E+00  0.52423715148E+02  0.52423715148E+02  0.00000000000E+00 0.  1.
          3   -1    0    0  501    0  0.00000000000E+00 -0.00000000000E+00 -0.42566642131E+03  0.42566642131E+03  0.00000000000E+00 0. -1.
          5    1    1    2  502    0 -0.68267443920E+02 -0.30312007694E+02 -0.90703246789E+02  0.11759434803E+03  0.47000000000E+01 0.  1.
         -5    1    1    2    0  502  0.23805441713E+02 -0.17342568428E+02 -0.24073771415E+03  0.24257823635E+03  0.47000000000E+01 0.  1.
        -11    1    1    2    0    0  0.15163484953E+02 -0.15279253112E+02  0.16612389199E+02  0.27191144266E+02  0.00000000000E+00 0.  1.
         11    1    1    2    0    0  0.29298517254E+02  0.62933829234E+02 -0.58414134420E+02  0.90726407817E+02  0.00000000000E+00 0. -1.
<mgrwt>
<rscale>  0 0.13256776E+03</rscale>
<asrwt>0</asrwt>
<pdfrwt beam="2">  1        3 0.65487143E-01 0.14096517E+03</pdfrwt>
<pdfrwt beam="1">  1       -3 0.80651868E-02 0.14096517E+03</pdfrwt>
<totfact> 0.56268586E+02</totfact>
</mgrwt>
</event>
<event>
 6    1  0.4705246E-006  0.1368877E+03  0.7546771E-02  0.1229204E+00
          2   -1    0    0  501    0  0.00000000000E+00  0.00000000000E+00  0.43355887687E+03  0.43355887687E+03  0.00000000000E+00 0. -1.
         -2   -1    0    0    0  501 -0.00000000000E+00 -0.00000000000E+00 -0.35738532212E+02  0.35738532212E+02  0.00000000000E+00 0.  1.
          5    1    1    2  502    0  0.45814629823E+02  0.13959005850E+02  0.98486832141E+02  0.10961560224E+03  0.47000000000E+01 0.  1.
         -5    1    1    2    0  502 -0.84629424623E+02  0.26126508835E+02  0.16851377723E+03  0.19043034709E+03  0.47000000000E+01 0.  1.
        -11    1    1    2    0    0  0.19932902183E+01 -0.28706702187E+02  0.12734479038E+03  0.13055551920E+03  0.00000000000E+00 0. -1.
         11    1    1    2    0    0  0.36821504582E+02 -0.11378812498E+02  0.34749449139E+01  0.38695940558E+02  0.00000000000E+00 0.  1.
<mgrwt>
<rscale>  0 0.12882870E+03</rscale>
<asrwt>0</asrwt>
<pdfrwt beam="1">  1        2 0.66701362E-01 0.13688771E+03</pdfrwt>
<pdfrwt beam="2">  1       -2 0.54982360E-02 0.13688771E+03</pdfrwt>
<totfact> 0.11724165E+04</totfact>
</mgrwt>
</event>
<event>
 6    1  0.4705246E-006  0.1433534E+03  0.7546771E-02  0.1229042E+00
          2   -1    0    0  501    0  0.00000000000E+00  0.00000000000E+00  0.37112467838E+03  0.37112467838E+03  0.00000000000E+00 0.  1.
         -2   -1    0    0    0  501 -0.00000000000E+00 -0.00000000000E+00 -0.79214520891E+02  0.79214520891E+02  0.00000000000E+00 0. -1.
          5    1    1    2  502    0 -0.38713886186E+02  0.17205805549E+02  0.22548569977E+02  0.48221703995E+02  0.47000000000E+01 0. -1.
         -5    1    1    2    0  502  0.53607872465E+02 -0.47261848392E+01  0.29891333996E+03  0.30375551948E+03  0.47000000000E+01 0.  1.
        -11    1    1    2    0    0 -0.12330429103E+02  0.22240451636E+02 -0.51339049329E+02  0.57292016519E+02  0.00000000000E+00 0.  1.
         11    1    1    2    0    0 -0.25635571770E+01 -0.34720072345E+02  0.21787296882E+02  0.41069959270E+02  0.00000000000E+00 0. -1.
<mgrwt>
<rscale>  0 0.12893693E+03</rscale>
<asrwt>0</asrwt>
<pdfrwt beam="1">  1        2 0.57096103E-01 0.14335343E+03</pdfrwt>
<pdfrwt beam="2">  1       -2 0.12186850E-01 0.14335343E+03</pdfrwt>
<totfact> 0.40425552E+03</totfact>
</mgrwt>
</event>
<event>
 6    1  0.4705246E-006  0.1250445E+03  0.7546771E-02  0.1250750E+00
         -1   -1    0    0    0  501 -0.00000000000E+00  0.00000000000E+00  0.18523861208E+02  0.18523861208E+02  0.00000000000E+00 0.  1.
          1   -1    0    0  501    0  0.00000000000E+00 -0.00000000000E+00 -0.68463653786E+03  0.68463653786E+03  0.00000000000E+00 0. -1.
          5    1    1    2  502    0 -0.34959024141E+02  0.35850429092E+02 -0.91377416548E+02  0.10430392557E+03  0.47000000000E+01 0. -1.
         -5    1    1    2    0  502  0.36417187371E+02 -0.32673201380E+02 -0.38853710427E+03  0.39163365664E+03  0.47000000000E+01 0. -1.
        -11    1    1    2    0    0  0.26209268534E+01 -0.31646974695E+02 -0.17835288362E+02  0.36421117170E+02  0.00000000000E+00 0.  1.
         11    1    1    2    0    0 -0.40790900835E+01  0.28469746983E+02 -0.16836286747E+03  0.17080169968E+03  0.00000000000E+00 0. -1.
<mgrwt>
<rscale>  0 0.11547737E+03</rscale>
<asrwt>0</asrwt>
<pdfrwt beam="2">  1        1 0.10532867E+00 0.12504454E+03</pdfrwt>
<pdfrwt beam="1">  1       -1 0.28498254E-02 0.12504454E+03</pdfrwt>
<totfact> 0.11261128E+04</totfact>
</mgrwt>
</event>
<event>
 6    1  0.4705246E-006  0.1308086E+03  0.7546771E-02  0.1243691E+00
         -2   -1    0    0    0  501 -0.00000000000E+00  0.00000000000E+00  0.54999371229E+02  0.54999371229E+02  0.00000000000E+00 0.  1.
          2   -1    0    0  501    0  0.00000000000E+00 -0.00000000000E+00 -0.22473003032E+03  0.22473003032E+03  0.00000000000E+00 0. -1.
          5    1    1    2  502    0  0.70626686387E+02  0.15778556903E+01 -0.45643290780E+02  0.84237868277E+02  0.47000000000E+01 0. -1.
         -5    1    1    2    0  502 -0.50167934509E+02  0.31090914606E+02 -0.54937675107E+02  0.80769454437E+02  0.47000000000E+01 0. -1.
        -11    1    1    2    0    0 -0.28953359448E+02  0.10064965460E+02  0.26176368141E+01  0.30764469368E+02  0.00000000000E+00 0.  1.
         11    1    1    2    0    0  0.84946075693E+01 -0.42733735756E+02 -0.71767330021E+02  0.83957609469E+02  0.00000000000E+00 0. -1.
<mgrwt>
<rscale>  0 0.11964079E+03</rscale>
<asrwt>0</asrwt>
<pdfrwt beam="2">  1        2 0.34573851E-01 0.13080858E+03</pdfrwt>
<pdfrwt beam="1">  1       -2 0.84614416E-02 0.13080858E+03</pdfrwt>
<totfact> 0.12164364E+04</totfact>
</mgrwt>
</event>
<event>
 6    1  0.4705246E-006  0.1281066E+03  0.7546771E-02  0.1244325E+00
         -1   -1    0    0    0  501 -0.00000000000E+00  0.00000000000E+00  0.14109534809E+02  0.14109534809E+02  0.00000000000E+00 0.  1.
          1   -1    0    0  501    0  0.00000000000E+00 -0.00000000000E+00 -0.15496663483E+04  0.15496663483E+04  0.00000000000E+00 0. -1.
          5    1    1    2  502    0 -0.62979597931E+02 -0.34910085234E+02 -0.55905908787E+03  0.56369699088E+03  0.47000000000E+01 0. -1.
         -5    1    1    2    0  502  0.35056693698E+02  0.32585212529E+02 -0.77806269047E+03  0.77954756631E+03  0.47000000000E+01 0. -1.
        -11    1    1    2    0    0 -0.22290368010E+02 -0.25226777480E+02 -0.41290037366E+02  0.53273989843E+02  0.00000000000E+00 0.  1.
         11    1    1    2    0    0  0.50213272244E+02  0.27551650185E+02 -0.15714499776E+03  0.16725733604E+03  0.00000000000E+00 0. -1.
<mgrwt>
<rscale>  0 0.11925891E+03</rscale>
<asrwt>0</asrwt>
<pdfrwt beam="2">  1        1 0.23841014E+00 0.12810656E+03</pdfrwt>
<pdfrwt beam="1">  1       -1 0.21706982E-02 0.12810656E+03</pdfrwt>
<totfact> 0.39782464E+03</totfact>
</mgrwt>
</event>
<event>
 6    1  0.4705246E-006  0.1710863E+03  0.7546771E-02  0.1182587E+00
         -1   -1    0    0    0  501 -0.00000000000E+00  0.00000000000E+00  0.95619618952E+02  0.95619618952E+02  0.00000000000E+00 0.  1.
          1   -1    0    0  501    0  0.00000000000E+00 -0.00000000000E+00 -0.27546235902E+03  0.27546235902E+03  0.00000000000E+00 0. -1.
          5    1    1    2  502    0 -0.22147989130E+02 -0.20293635097E+02 -0.96132212676E+01  0.31888384580E+02  0.47000000000E+01 0. -1.
         -5    1    1    2    0  502  0.13807063844E+03  0.58375175779E+01 -0.11347774173E+03  0.17887667730E+03  0.47000000000E+01 0. -1.
        -11    1    1    2    0    0 -0.20348733503E+02  0.19030199804E+02  0.22707402060E+02  0.35942253242E+02  0.00000000000E+00 0.  1.
         11    1    1    2    0    0 -0.95573915811E+02 -0.45740822842E+01 -0.79459179127E+02  0.12437466285E+03  0.00000000000E+00 0. -1.
<mgrwt>
<rscale>  0 0.16553422E+03</rscale>
<asrwt>0</asrwt>
<pdfrwt beam="2">  1        1 0.42378824E-01 0.17108631E+03</pdfrwt>
<pdfrwt beam="1">  1       -1 0.14710711E-01 0.17108631E+03</pdfrwt>
<totfact> 0.31659286E+03</totfact>
</mgrwt>
</event>
<event>
 6    1  0.4705246E-006  0.1342629E+03  0.7546771E-02  0.1233330E+00
          1   -1    0    0  501    0  0.00000000000E+00  0.00000000000E+00  0.14771614181E+03  0.14771614181E+03  0.00000000000E+00 0. -1.
         -1   -1    0    0    0  501 -0.00000000000E+00 -0.00000000000E+00 -0.96828277481E+02  0.96828277481E+02  0.00000000000E+00 0.  1.
          5    1    1    2  502    0  0.65081439711E+02 -0.51792229170E+02  0.41559109464E+02  0.93098218977E+02  0.47000000000E+01 0. -1.
         -5    1    1    2    0  502 -0.17087454066E+02  0.41796113528E+02 -0.60021876414E+01  0.45793148494E+02  0.47000000000E+01 0. -1.
        -11    1    1    2    0    0 -0.64562147309E+02  0.52183893794E+00  0.38859773279E+02  0.75356653060E+02  0.00000000000E+00 0. -1.
         11    1    1    2    0    0  0.16568161664E+02  0.94742767038E+01 -0.23528830776E+02  0.30296398758E+02  0.00000000000E+00 0.  1.
<mgrwt>
<rscale>  0 0.12611948E+03</rscale>
<asrwt>0</asrwt>
<pdfrwt beam="1">  1        1 0.22725560E-01 0.13426287E+03</pdfrwt>
<pdfrwt beam="2">  1       -1 0.14896658E-01 0.13426287E+03</pdfrwt>
<totfact> 0.66692838E+03</totfact>
</mgrwt>
</event>
<event>
 6    1  0.4705246E-006  0.2579113E+03  0.7546771E-02  0.1110717E+00
          1   -1    0    0  501    0  0.00000000000E+00  0.00000000000E+00  0.83755250332E+03  0.83755250332E+03  0.00000000000E+00 0. -1.
         -1   -1    0    0    0  501 -0.00000000000E+00 -0.00000000000E+00 -0.13333119252E+03  0.13333119252E+03  0.00000000000E+00 0.  1.
          5    1    1    2  502    0  0.47497681178E+02  0.10034248565E+02  0.18524791462E+03  0.19156094522E+03  0.47000000000E+01 0.  1.
         -5    1    1    2    0  502  0.23942090174E+02  0.20395055641E+03  0.49386687266E+03  0.53487908078E+03  0.47000000000E+01 0.  1.
        -11    1    1    2    0    0 -0.83314110354E+02 -0.16701944329E+03 -0.62276110601E+01  0.18674988236E+03  0.00000000000E+00 0. -1.
         11    1    1    2    0    0  0.11874339002E+02 -0.46965361684E+02  0.31334134575E+02  0.57693787485E+02  0.00000000000E+00 0.  1.
<mgrwt>
<rscale>  0 0.25413923E+03</rscale>
<asrwt>0</asrwt>
<pdfrwt beam="1">  1        1 0.12885423E+00 0.25791126E+03</pdfrwt>
<pdfrwt beam="2">  1       -1 0.20512492E-01 0.25791126E+03</pdfrwt>
<totfact> 0.41786046E+02</totfact>
</mgrwt>
</event>
<event>
 6    1  0.4705246E-006  0.1955666E+03  0.7546771E-02  0.1166842E+00
          2   -1    0    0  501    0  0.00000000000E+00  0.00000000000E+00  0.28339882190E+04  0.28339882190E+04  0.00000000000E+00 0. -1.
         -2   -1    0    0    0  501 -0.00000000000E+00 -0.00000000000E+00 -0.12432680478E+02  0.12432680478E+02  0.00000000000E+00 0.  1.
          5    1    1    2  502    0  0.73295306549E+02  0.51496852163E+02  0.18919997553E+04  0.18941249409E+04  0.47000000000E+01 0. -1.
         -5    1    1    2    0  502  0.38742557419E+02 -0.49766633494E+02  0.30070103096E+03  0.30727984572E+03  0.47000000000E+01 0.  1.
        -11    1    1    2    0    0 -0.46959785808E+02 -0.42673755483E+02  0.35248314271E+03  0.35814890309E+03  0.00000000000E+00 0.  1.
         11    1    1    2    0    0 -0.65078078160E+02  0.40943536814E+02  0.27637160952E+03  0.28686720972E+03  0.00000000000E+00 0. -1.
<mgrwt>
<rscale>  0 0.18099702E+03</rscale>
<asrwt>0</asrwt>
<pdfrwt beam="1">  1        2 0.43599767E+00 0.19556660E+03</pdfrwt>
<pdfrwt beam="2">  1       -2 0.19127223E-02 0.19556660E+03</pdfrwt>
<totfact> 0.21705300E+03</totfact>
</mgrwt>
</event>
<event>
 6    1  0.4705246E-006  0.1252187E+03  0.7546771E-02  0.1249349E+00
         -2   -1    0    0    0  501 -0.00000000000E+00  0.00000000000E+00  0.13164588736E+02  0.13164588736E+02  0.00000000000E+00 0.  1.
          2   -1    0    0  501    0  0.00000000000E+00 -0.00000000000E+00 -0.10323444163E+04  0.10323444163E+04  0.00000000000E+00 0. -1.
          5    1    1    2  502    0  0.13517699397E+02 -0.20467571754E+02 -0.73853001944E+03  0.73895218337E+03  0.47000000000E+01 0. -1.
         -5    1    1    2    0  502 -0.15941066877E+02  0.13456274581E+02 -0.18237046310E+02  0.28104604550E+02  0.47000000000E+01 0. -1.
        -11    1    1    2    0    0 -0.34742561329E+02 -0.22208777783E+02 -0.79861968275E+02  0.89878859334E+02  0.00000000000E+00 0.  1.
         11    1    1    2    0    0  0.37165928810E+02  0.29220074955E+02 -0.18255079354E+03  0.18857335779E+03  0.00000000000E+00 0. -1.
<mgrwt>
<rscale>  0 0.11628849E+03</rscale>
<asrwt>0</asrwt>
<pdfrwt beam="2">  1        2 0.15882219E+00 0.12521871E+03</pdfrwt>
<pdfrwt beam="1">  1       -2 0.20253217E-02 0.12521871E+03</pdfrwt>
<totfact> 0.18091316E+04</totfact>
</mgrwt>
</event>
<event>
 6    1  0.4705246E-006  0.1878252E+03  0.7546771E-02  0.1169514E+00
          3   -1    0    0  501    0  0.00000000000E+00  0.00000000000E+00  0.23196323398E+03  0.23196323398E+03  0.00000000000E+00 0. -1.
         -3   -1    0    0    0  501 -0.00000000000E+00 -0.00000000000E+00 -0.41785729549E+03  0.41785729549E+03  0.00000000000E+00 0.  1.
          5    1    1    2  502    0  0.10701499145E+03  0.94658123999E+02  0.15730017588E+03  0.21255070964E+03  0.47000000000E+01 0. -1.
         -5    1    1    2    0  502 -0.39697158377E+02  0.77685841597E+01  0.18558600715E+02  0.44751837321E+02  0.47000000000E+01 0.  1.
        -11    1    1    2    0    0 -0.87573101797E+02 -0.97582687151E+02 -0.32117961777E+03  0.34691176956E+03  0.00000000000E+00 0.  1.
         11    1    1    2    0    0  0.20255268722E+02 -0.48440210072E+01 -0.40573220344E+02  0.45606212950E+02  0.00000000000E+00 0. -1.
<mgrwt>
<rscale>  0 0.17824346E+03</rscale>
<asrwt>0</asrwt>
<pdfrwt beam="1">  1        3 0.35686652E-01 0.18782516E+03</pdfrwt>
<pdfrwt beam="2">  1       -3 0.64285737E-01 0.18782516E+03</pdfrwt>
<totfact> 0.44837696E+01</totfact>
</mgrwt>
</event>
<event>
 6    1  0.4705246E-006  0.2017663E+03  0.7546771E-02  0.1152087E+00
          2   -1    0    0  501    0  0.00000000000E+00  0.00000000000E+00  0.69865376393E+03  0.69865376393E+03  0.00000000000E+00 0. -1.
         -2   -1    0    0    0  501 -0.00000000000E+00 -0.00000000000E+00 -0.98990791549E+02  0.98990791549E+02  0.00000000000E+00 0.  1.
          5    1    1    2  502    0 -0.16115485859E+02  0.12087241405E+03  0.26825171053E+03  0.29470480071E+03  0.47000000000E+01 0. -1.
         -5    1    1    2    0  502  0.62517724142E+02  0.30552646463E+02  0.30963200626E+03  0.31738934975E+03  0.47000000000E+01 0. -1.
        -11    1    1    2    0    0 -0.59918775667E+02 -0.50209529573E+02 -0.95082640194E+01  0.78750642042E+02  0.00000000000E+00 0.  1.
         11    1    1    2    0    0  0.13516537383E+02 -0.10121553094E+03  0.31287519613E+02  0.10679976297E+03  0.00000000000E+00 0. -1.
<mgrwt>
<rscale>  0 0.19724178E+03</rscale>
<asrwt>0</asrwt>
<pdfrwt beam="1">  1        2 0.10748519E+00 0.20176635E+03</pdfrwt>
<pdfrwt beam="2">  1       -2 0.15229353E-01 0.20176635E+03</pdfrwt>
<totfact> 0.14005716E+03</totfact>
</mgrwt>
</event>
<event>
 6    1  0.4705246E-006  0.1365209E+03  0.7546771E-02  0.1231035E+00
         -1   -1    0    0    0  501 -0.00000000000E+00  0.00000000000E+00  0.31915606074E+02  0.31915606074E+02  0.00000000000E+00 0.  1.
          1   -1    0    0  501    0  0.00000000000E+00 -0.00000000000E+00 -0.59646529899E+03  0.59646529899E+03  0.00000000000E+00 0. -1.
          5    1    1    2  502    0 -0.23341495425E+01  0.25885359359E+02 -0.35923562895E+03  0.36020525703E+03  0.47000000000E+01 0.  1.
         -5    1    1    2    0  502 -0.50385106969E+02 -0.41161277708E+02 -0.10431602304E+03  0.12303183510E+03  0.47000000000E+01 0.  1.
        -11    1    1    2    0    0  0.44215932524E+01  0.16543312296E+02  0.12888803603E+02  0.21432520313E+02  0.00000000000E+00 0.  1.
         11    1    1    2    0    0  0.48297663259E+02 -0.12673939476E+01 -0.11388684453E+03  0.12371129261E+03  0.00000000000E+00 0. -1.
<mgrwt>
<rscale>  0 0.12761704E+03</rscale>
<asrwt>0</asrwt>
<pdfrwt beam="2">  1        1 0.91763884E-01 0.13652089E+03</pdfrwt>
<pdfrwt beam="1">  1       -1 0.49100937E-02 0.13652089E+03</pdfrwt>
<totfact> 0.61800326E+03</totfact>
</mgrwt>
</event>
<event>
 6    1  0.4705246E-006  0.1791893E+03  0.7546771E-02  0.1174048E+00
         -2   -1    0    0    0  501 -0.00000000000E+00  0.00000000000E+00  0.13190971822E+02  0.13190971822E+02  0.00000000000E+00 0.  1.
          2   -1    0    0  501    0  0.00000000000E+00 -0.00000000000E+00 -0.25345399865E+04  0.25345399865E+04  0.00000000000E+00 0. -1.
          5    1    1    2  502    0  0.12653593828E+03 -0.26282245436E+02 -0.14277476686E+04  0.14335925486E+04  0.47000000000E+01 0.  1.
         -5    1    1    2    0  502 -0.19103706136E+02 -0.43995423812E+02 -0.39024448206E+03  0.39320909791E+03  0.47000000000E+01 0.  1.
        -11    1    1    2    0    0 -0.58397157333E+01  0.11477131429E+02 -0.68217787258E+01  0.14572696753E+02  0.00000000000E+00 0.  1.
         11    1    1    2    0    0 -0.10159251641E+03  0.58800537820E+02 -0.69653508523E+03  0.70635661503E+03  0.00000000000E+00 0. -1.
<mgrwt>
<rscale>  0 0.17369515E+03</rscale>
<asrwt>0</asrwt>
<pdfrwt beam="2">  1        2 0.38992862E+00 0.17918927E+03</pdfrwt>
<pdfrwt beam="1">  1       -2 0.20293835E-02 0.17918927E+03</pdfrwt>
<totfact> 0.29236134E+03</totfact>
</mgrwt>
</event>
<event>
 6    1  0.4705246E-006  0.1502566E+03  0.7546771E-02  0.1209320E+00
          1   -1    0    0  501    0  0.00000000000E+00  0.00000000000E+00  0.13958665841E+03  0.13958665841E+03  0.00000000000E+00 0. -1.
         -1   -1    0    0    0  501 -0.00000000000E+00 -0.00000000000E+00 -0.14256435291E+03  0.14256435291E+03  0.00000000000E+00 0.  1.
          5    1    1    2  502    0  0.25746358070E+02 -0.78208211897E+02  0.57503786960E+02  0.10053941952E+03  0.47000000000E+01 0.  1.
         -5    1    1    2    0  502 -0.46774256130E+02 -0.24470814154E+01 -0.24841748648E+02  0.53226137563E+02  0.47000000000E+01 0.  1.
        -11    1    1    2    0    0  0.37188708768E+02  0.90096509357E+02 -0.45117950820E+02  0.10740582174E+03  0.00000000000E+00 0.  1.
         11    1    1    2    0    0 -0.16160810708E+02 -0.94412160449E+01  0.94782180064E+01  0.20979632498E+02  0.00000000000E+00 0. -1.
<mgrwt>
<rscale>  0 0.14302128E+03</rscale>
<asrwt>0</asrwt>
<pdfrwt beam="1">  1        1 0.21474871E-01 0.15025657E+03</pdfrwt>
<pdfrwt beam="2">  1       -1 0.21932977E-01 0.15025657E+03</pdfrwt>
<totfact> 0.38945056E+03</totfact>
</mgrwt>
</event>
<event>
 6    1  0.4705246E-006  0.1364848E+03  0.7546771E-02  0.1230077E+00
          1   -1    0    0  501    0  0.00000000000E+00  0.00000000000E+00  0.11856932317E+03  0.11856932317E+03  0.00000000000E+00 0. -1.
         -1   -1    0    0    0  501 -0.00000000000E+00 -0.00000000000E+00 -0.13240156274E+03  0.13240156274E+03  0.00000000000E+00 0.  1.
          5    1    1    2  502    0 -0.90628723423E+02 -0.24795060460E+02  0.25790804407E+02  0.97548019583E+02  0.47000000000E+01 0. -1.
         -5    1    1    2    0  502  0.40367128262E+02  0.29622861410E+01 -0.28677658462E+01  0.40848430377E+02  0.47000000000E+01 0. -1.
        -11    1    1    2    0    0 -0.14579453203E+00  0.36156598813E+02 -0.46878750932E+02  0.59202518382E+02  0.00000000000E+00 0.  1.
         11    1    1    2    0    0  0.50407389694E+02 -0.14323824494E+02  0.10123472800E+02  0.53371917573E+02  0.00000000000E+00 0. -1.
<mgrwt>
<rscale>  0 0.12824899E+03</rscale>
<asrwt>0</asrwt>
<pdfrwt beam="1">  1        1 0.18241434E-01 0.13648484E+03</pdfrwt>
<pdfrwt beam="2">  1       -1 0.20369471E-01 0.13648484E+03</pdfrwt>
<totfact> 0.53727983E+03</totfact>
</mgrwt>
</event>
<event>
 6    1  0.4705246E-006  0.3208484E+03  0.7546771E-02  0.1075260E+00
         -1   -1    0    0    0  501 -0.00000000000E+00  0.00000000000E+00  0.13124543782E+03  0.13124543782E+03  0.00000000000E+00 0.  1.
          1   -1    0    0  501    0  0.00000000000E+00 -0.00000000000E+00 -0.19608999380E+03  0.19608999380E+03  0.00000000000E+00 0. -1.
          5    1    1    2  502    0  0.55672974585E+02 -0.10650311093E+03 -0.76748465391E+02  0.14267028309E+03  0.47000000000E+01 0.  1.
         -5    1    1    2    0  502  0.19309094076E+02  0.36130447272E+02 -0.19162412959E+02  0.45470192484E+02  0.47000000000E+01 0.  1.
        -11    1    1    2    0    0 -0.30764195406E+02  0.51013532463E+02 -0.25528149698E+02  0.64811284822E+02  0.00000000000E+00 0. -1.
         11    1    1    2    0    0 -0.44217873255E+02  0.19359131193E+02  0.56594472071E+02  0.74383671224E+02  0.00000000000E+00 0.  1.
<mgrwt>
<rscale>  0 0.32084836E+03</rscale>
<asrwt>0</asrwt>
<pdfrwt beam="2">  1        1 0.30167691E-01 0.32084836E+03</pdfrwt>
<pdfrwt beam="1">  1       -1 0.20191606E-01 0.32084836E+03</pdfrwt>
<totfact> 0.29876300E+03</totfact>
</mgrwt>
</event>
<event>
 6    1  0.4705246E-006  0.7015138E+03  0.7546771E-02  0.9714647E-01
          1   -1    0    0  501    0  0.00000000000E+00  0.00000000000E+00  0.11208769802E+04  0.11208769802E+04  0.00000000000E+00 0. -1.
         -1   -1    0    0    0  501 -0.00000000000E+00 -0.00000000000E+00 -0.10976262098E+03  0.10976262098E+03  0.00000000000E+00 0.  1.
          5    1    1    2  502    0  0.25748876296E+03  0.15677740448E+03  0.76581250240E+03  0.82302521009E+03  0.47000000000E+01 0. -1.
         -5    1    1    2    0  502 -0.14408464479E+02 -0.42885621046E+01  0.40218006959E+02  0.43192287475E+02  0.47000000000E+01 0.  1.
        -11    1    1    2    0    0 -0.23887462094E+03 -0.12221178151E+03  0.16890172127E+03  0.31705613938E+03  0.00000000000E+00 0.  1.
         11    1    1    2    0    0 -0.42056775461E+01 -0.30277060872E+02  0.36182128555E+02  0.47365964209E+02  0.00000000000E+00 0. -1.
<mgrwt>
<rscale>  0 0.70151378E+03</rscale>
<asrwt>0</asrwt>
<pdfrwt beam="1">  1        1 0.17244260E+00 0.70151378E+03</pdfrwt>
<pdfrwt beam="2">  1       -1 0.16886558E-01 0.70151378E+03</pdfrwt>
<totfact> 0.33597656E+02</totfact>
</mgrwt>
</event>
<event>
 6    1  0.4705246E-006  0.1335597E+03  0.7546771E-02  0.1235112E+00
          2   -1    0    0  501    0  0.00000000000E+00  0.00000000000E+00  0.13614425184E+04  0.13614425184E+04  0.00000000000E+00 0. -1.
         -2   -1    0    0    0  501 -0.00000000000E+00 -0.00000000000E+00 -0.11877227250E+02  0.11877227250E+02  0.00000000000E+00 0.  1.
          5    1    1    2  502    0  0.47782482351E+02 -0.13995228215E+01  0.89273498162E+03  0.89402626454E+03  0.47000000000E+01 0.  1.
         -5    1    1    2    0  502 -0.20023557003E+02 -0.36597352577E+02  0.11314974268E+03  0.12068663272E+03  0.47000000000E+01 0.  1.
        -11    1    1    2    0    0 -0.24608035069E+02  0.54221914625E+02  0.33438256899E+03  0.33964286222E+03  0.00000000000E+00 0. -1.
         11    1    1    2    0    0 -0.31508902783E+01 -0.16225039226E+02  0.92979978994E+01  0.18963986194E+02  0.00000000000E+00 0.  1.
<mgrwt>
<rscale>  0 0.12497260E+03</rscale>
<asrwt>0</asrwt>
<pdfrwt beam="1">  1        2 0.20945257E+00 0.13355967E+03</pdfrwt>
<pdfrwt beam="2">  1       -2 0.18272668E-02 0.13355967E+03</pdfrwt>
<totfact> 0.13848092E+04</totfact>
</mgrwt>
</event>
<event>
 6    1  0.4705246E-006  0.3784337E+03  0.7546771E-02  0.1051514E+00
         -2   -1    0    0    0  501 -0.00000000000E+00  0.00000000000E+00  0.45268807714E+02  0.45268807714E+02  0.00000000000E+00 0.  1.
          2   -1    0    0  501    0  0.00000000000E+00 -0.00000000000E+00 -0.79089815986E+03  0.79089815986E+03  0.00000000000E+00 0. -1.
          5    1    1    2  502    0 -0.17886499073E+02  0.12586223901E+02 -0.20516193452E+02  0.30353650109E+02  0.47000000000E+01 0. -1.
         -5    1    1    2    0  502  0.13104146358E+02 -0.15776823340E+03 -0.48939622182E+03  0.51438631985E+03  0.47000000000E+01 0. -1.
        -11    1    1    2    0    0  0.35209350890E+02  0.16122887604E+02 -0.50489524510E+02  0.63630479960E+02  0.00000000000E+00 0.  1.
         11    1    1    2    0    0 -0.30426998175E+02  0.12905912190E+03 -0.18522741237E+03  0.22779651766E+03  0.00000000000E+00 0. -1.
<mgrwt>
<rscale>  0 0.37843370E+03</rscale>
<asrwt>0</asrwt>
<pdfrwt beam="2">  1        2 0.12167664E+00 0.37843370E+03</pdfrwt>
<pdfrwt beam="1">  1       -2 0.69644322E-02 0.37843370E+03</pdfrwt>
<totfact> 0.42497710E+03</totfact>
</mgrwt>
</event>
<event>
 6    1  0.4705246E-006  0.2994075E+03  0.7546771E-02  0.1085537E+00
          2   -1    0    0  501    0  0.00000000000E+00  0.00000000000E+00  0.28443248325E+03  0.28443248325E+03  0.00000000000E+00 0. -1.
         -2   -1    0    0    0  501 -0.00000000000E+00 -0.00000000000E+00 -0.78792720003E+02  0.78792720003E+02  0.00000000000E+00 0.  1.
          5    1    1    2  502    0 -0.77883855141E+02 -0.68037497189E+02  0.13374112465E+03  0.16912650395E+03  0.47000000000E+01 0. -1.
         -5    1    1    2    0  502 -0.15002963284E+01  0.25870819332E+01 -0.25187241163E+02  0.25795949283E+02  0.47000000000E+01 0. -1.
        -11    1    1    2    0    0  0.46605284536E+02 -0.10129214197E+02  0.63314325742E+02  0.79267631295E+02  0.00000000000E+00 0. -1.
         11    1    1    2    0    0  0.32778866933E+02  0.75579629453E+02  0.33771554018E+02  0.89035118725E+02  0.00000000000E+00 0.  1.
<mgrwt>
<rscale>  0 0.29940747E+03</rscale>
<asrwt>0</asrwt>
<pdfrwt beam="1">  1        2 0.43758843E-01 0.29940747E+03</pdfrwt>
<pdfrwt beam="2">  1       -2 0.12121957E-01 0.29940747E+03</pdfrwt>
<totfact> 0.56186123E+03</totfact>
</mgrwt>
</event>
<event>
 6    1  0.4705246E-006  0.1658068E+03  0.7546771E-02  0.1189137E+00
         -2   -1    0    0    0  501 -0.00000000000E+00  0.00000000000E+00  0.32988625725E+02  0.32988625725E+02  0.00000000000E+00 0.  1.
          2   -1    0    0  501    0  0.00000000000E+00 -0.00000000000E+00 -0.75419494474E+03  0.75419494474E+03  0.00000000000E+00 0. -1.
          5    1    1    2  502    0  0.44415368161E+02  0.82266188945E+02 -0.15905547044E+03  0.18455672150E+03  0.47000000000E+01 0.  1.
         -5    1    1    2    0  502  0.39862793438E+02 -0.13228967415E+02 -0.31155282042E+03  0.31440626233E+03  0.47000000000E+01 0.  1.
        -11    1    1    2    0    0  0.19982124254E+01 -0.53803493285E+02 -0.79821264355E+02  0.96282101066E+02  0.00000000000E+00 0.  1.
         11    1    1    2    0    0 -0.86276374024E+02 -0.15233728245E+02 -0.17077676381E+03  0.19193848558E+03  0.00000000000E+00 0. -1.
<mgrwt>
<rscale>  0 0.15961111E+03</rscale>
<asrwt>0</asrwt>
<pdfrwt beam="2">  1        2 0.11603000E+00 0.16580680E+03</pdfrwt>
<pdfrwt beam="1">  1       -2 0.50751730E-02 0.16580680E+03</pdfrwt>
<totfact> 0.71320862E+03</totfact>
</mgrwt>
</event>
<event>
 6    1  0.4705246E-006  0.1313552E+03  0.7546771E-02  0.1239517E+00
          2   -1    0    0  501    0  0.00000000000E+00  0.00000000000E+00  0.45147584424E+03  0.45147584424E+03  0.00000000000E+00 0. -1.
         -2   -1    0    0    0  501 -0.00000000000E+00 -0.00000000000E+00 -0.36500545597E+02  0.36500545597E+02  0.00000000000E+00 0.  1.
          5    1    1    2  502    0 -0.32794892430E+01 -0.81200203804E+02  0.17022805497E+03  0.18868998078E+03  0.47000000000E+01 0. -1.
         -5    1    1    2    0  502  0.15535926867E+02  0.42749754328E+02  0.16914152330E+03  0.17521373069E+03  0.47000000000E+01 0. -1.
        -11    1    1    2    0    0 -0.40884133250E+02  0.25722086926E+02  0.72032868736E+01  0.48836722343E+02  0.00000000000E+00 0.  1.
         11    1    1    2    0    0  0.28627695626E+02  0.12728362550E+02  0.68402433497E+02  0.75235956020E+02  0.00000000000E+00 0. -1.
<mgrwt>
<rscale>  0 0.12219619E+03</rscale>
<asrwt>0</asrwt>
<pdfrwt beam="1">  1        2 0.69457818E-01 0.13135525E+03</pdfrwt>
<pdfrwt beam="2">  1       -2 0.56154689E-02 0.13135525E+03</pdfrwt>
<totfact> 0.10838451E+04</totfact>
</mgrwt>
</event>
<event>
 6    1  0.4705246E-006  0.1991474E+03  0.7546771E-02  0.1154821E+00
          2   -1    0    0  501    0  0.00000000000E+00  0.00000000000E+00  0.24002513886E+03  0.24002513886E+03  0.00000000000E+00 0. -1.
         -2   -1    0    0    0  501 -0.00000000000E+00 -0.00000000000E+00 -0.15133176392E+03  0.15133176392E+03  0.00000000000E+00 0.  1.
          5    1    1    2  502    0 -0.75396726766E+02  0.10788704425E+03  0.40645464516E+02  0.13783477250E+03  0.47000000000E+01 0. -1.
         -5    1    1    2    0  502  0.49731834408E+02  0.45006728210E+02  0.27588006466E+02  0.72677706613E+02  0.47000000000E+01 0. -1.
        -11    1    1    2    0    0 -0.12409470054E+02 -0.55830991663E+02  0.46117504803E+02  0.73470530326E+02  0.00000000000E+00 0. -1.
         11    1    1    2    0    0  0.38074362413E+02 -0.97062780798E+02 -0.25657600841E+02  0.10737389334E+03  0.00000000000E+00 0.  1.
<mgrwt>
<rscale>  0 0.19409215E+03</rscale>
<asrwt>0</asrwt>
<pdfrwt beam="1">  1        2 0.36926945E-01 0.19914743E+03</pdfrwt>
<pdfrwt beam="2">  1       -2 0.23281810E-01 0.19914743E+03</pdfrwt>
<totfact> 0.22202588E+03</totfact>
</mgrwt>
</event>
<event>
 6    1  0.4705246E-006  0.2715414E+03  0.7546771E-02  0.1100401E+00
          2   -1    0    0  501    0  0.00000000000E+00  0.00000000000E+00  0.14273580692E+03  0.14273580692E+03  0.00000000000E+00 0. -1.
         -2   -1    0    0    0  501 -0.00000000000E+00 -0.00000000000E+00 -0.12914548269E+03  0.12914548269E+03  0.00000000000E+00 0.  1.
          5    1    1    2  502    0 -0.81735751619E+02 -0.47246783942E+02 -0.19457201386E+02  0.96507328071E+02  0.47000000000E+01 0. -1.
         -5    1    1    2    0  502  0.13659506280E+02 -0.99640282406E+01  0.44893622178E+02  0.48201569299E+02  0.47000000000E+01 0.  1.
        -11    1    1    2    0    0  0.47235687111E+02  0.57914887220E+02 -0.45562465758E+02  0.87528752902E+02  0.00000000000E+00 0.  1.
         11    1    1    2    0    0  0.20840558229E+02 -0.70407503736E+00  0.33716369192E+02  0.39643639344E+02  0.00000000000E+00 0. -1.
<mgrwt>
<rscale>  0 0.27154141E+03</rscale>
<asrwt>0</asrwt>
<pdfrwt beam="1">  1        2 0.21959355E-01 0.27154141E+03</pdfrwt>
<pdfrwt beam="2">  1       -2 0.19868536E-01 0.27154141E+03</pdfrwt>
<totfact> 0.52600857E+03</totfact>
</mgrwt>
</event>
<event>
 6    1  0.4705246E-006  0.2226142E+03  0.7546771E-02  0.1158970E+00
          2   -1    0    0  501    0  0.00000000000E+00  0.00000000000E+00  0.13334180313E+03  0.13334180313E+03  0.00000000000E+00 0. -1.
         -2   -1    0    0    0  501 -0.00000000000E+00 -0.00000000000E+00 -0.31046350161E+03  0.31046350161E+03  0.00000000000E+00 0.  1.
          5    1    1    2  502    0  0.22634654584E+02  0.21964225629E+02  0.10868014762E+03  0.11326172911E+03  0.47000000000E+01 0. -1.
         -5    1    1    2    0  502  0.47673909936E+02  0.84329246003E+01 -0.98213045735E+02  0.10959839533E+03  0.47000000000E+01 0.  1.
        -11    1    1    2    0    0 -0.11418238022E+02  0.29553145088E+02 -0.39089989269E+02  0.50316913709E+02  0.00000000000E+00 0. -1.
         11    1    1    2    0    0 -0.58890326498E+02 -0.59950295317E+02 -0.14849881109E+03  0.17062826659E+03  0.00000000000E+00 0.  1.
<mgrwt>
<rscale>  0 0.18943731E+03</rscale>
<asrwt>0</asrwt>
<pdfrwt beam="1">  1        2 0.20514124E-01 0.22261418E+03</pdfrwt>
<pdfrwt beam="2">  1       -2 0.47763615E-01 0.22261418E+03</pdfrwt>
<totfact> 0.11294917E+03</totfact>
</mgrwt>
</event>
<event>
 6    1  0.4705246E-006  0.1282374E+03  0.7546771E-02  0.1242970E+00
          1   -1    0    0  501    0  0.00000000000E+00  0.00000000000E+00  0.17754134424E+03  0.17754134424E+03  0.00000000000E+00 0. -1.
         -1   -1    0    0    0  501 -0.00000000000E+00 -0.00000000000E+00 -0.78165453665E+02  0.78165453665E+02  0.00000000000E+00 0.  1.
          5    1    1    2  502    0 -0.46876935180E+02 -0.38751589165E+02  0.83040484695E+02  0.10303855984E+03  0.47000000000E+01 0.  1.
         -5    1    1    2    0  502  0.51915759497E+02  0.10565094021E+02  0.69865473683E+01  0.53644842622E+02  0.47000000000E+01 0.  1.
        -11    1    1    2    0    0  0.10418480017E+02 -0.29899082327E+02  0.20734692396E+02  0.37847421558E+02  0.00000000000E+00 0. -1.
         11    1    1    2    0    0 -0.15457304334E+02  0.58085577470E+02 -0.11385833888E+02  0.61175973884E+02  0.00000000000E+00 0.  1.
<mgrwt>
<rscale>  0 0.12007687E+03</rscale>
<asrwt>0</asrwt>
<pdfrwt beam="1">  1        1 0.27314053E-01 0.12823737E+03</pdfrwt>
<pdfrwt beam="2">  1       -1 0.12025454E-01 0.12823737E+03</pdfrwt>
<totfact> 0.73601316E+03</totfact>
</mgrwt>
</event>
<event>
 6    1  0.4705246E-006  0.2805776E+03  0.7546771E-02  0.1095374E+00
          2   -1    0    0  501    0  0.00000000000E+00  0.00000000000E+00  0.15545821564E+03  0.15545821564E+03  0.00000000000E+00 0. -1.
         -2   -1    0    0    0  501 -0.00000000000E+00 -0.00000000000E+00 -0.12659958644E+03  0.12659958644E+03  0.00000000000E+00 0.  1.
          5    1    1    2  502    0  0.12113563315E+02 -0.19977380522E+02 -0.36694179393E+02  0.43753707843E+02  0.47000000000E+01 0.  1.
         -5    1    1    2    0  502 -0.13419196175E+02  0.10340867458E+03  0.23857049390E+02  0.10707323479E+03  0.47000000000E+01 0.  1.
        -11    1    1    2    0    0  0.98962048845E+01 -0.23800006622E+02 -0.28699188954E+02  0.38574844562E+02  0.00000000000E+00 0.  1.
         11    1    1    2    0    0 -0.85905720243E+01 -0.59631287433E+02  0.70394948153E+02  0.92656014883E+02  0.00000000000E+00 0. -1.
<mgrwt>
<rscale>  0 0.28057759E+03</rscale>
<asrwt>0</asrwt>
<pdfrwt beam="1">  1        2 0.23916649E-01 0.28057759E+03</pdfrwt>
<pdfrwt beam="2">  1       -2 0.19476859E-01 0.28057759E+03</pdfrwt>
<totfact> 0.49479649E+03</totfact>
</mgrwt>
</event>
<event>
 6    1  0.4705246E-006  0.2109689E+03  0.7546771E-02  0.1144603E+00
          1   -1    0    0  501    0  0.00000000000E+00  0.00000000000E+00  0.21688878131E+04  0.21688878131E+04  0.00000000000E+00 0. -1.
         -1   -1    0    0    0  501 -0.00000000000E+00 -0.00000000000E+00 -0.20152226568E+02  0.20152226568E+02  0.00000000000E+00 0.  1.
          5    1    1    2  502    0  0.36993386599E+02 -0.92759834450E+02  0.58678913401E+03  0.59524488686E+03  0.47000000000E+01 0.  1.
         -5    1    1    2    0  502  0.10920874701E+03  0.61061839426E+01  0.81957466527E+03  0.82685461713E+03  0.47000000000E+01 0.  1.
        -11    1    1    2    0    0 -0.11631675782E+03  0.10389146601E+03  0.55883401281E+03  0.58018831316E+03  0.00000000000E+00 0.  1.
         11    1    1    2    0    0 -0.29885375789E+02 -0.17237815501E+02  0.18353777442E+03  0.18675222250E+03  0.00000000000E+00 0. -1.
<mgrwt>
<rscale>  0 0.20620968E+03</rscale>
<asrwt>0</asrwt>
<pdfrwt beam="1">  1        1 0.33367486E+00 0.21096887E+03</pdfrwt>
<pdfrwt beam="2">  1       -1 0.31003443E-02 0.21096887E+03</pdfrwt>
<totfact> 0.94692350E+02</totfact>
</mgrwt>
</event>
<event>
 6    1  0.4705246E-006  0.1543465E+03  0.7546771E-02  0.1203725E+00
          1   -1    0    0  501    0  0.00000000000E+00  0.00000000000E+00  0.24857905192E+02  0.24857905192E+02  0.00000000000E+00 0. -1.
         -1   -1    0    0    0  501 -0.00000000000E+00 -0.00000000000E+00 -0.82096254263E+03  0.82096254263E+03  0.00000000000E+00 0.  1.
          5    1    1    2  502    0 -0.14201781673E+00 -0.20214115855E+02 -0.14708654748E+01  0.20805866820E+02  0.47000000000E+01 0. -1.
         -5    1    1    2    0  502 -0.90390691714E+02  0.19293699420E+02 -0.37120461233E+03  0.38256722050E+03  0.47000000000E+01 0. -1.
        -11    1    1    2    0    0  0.95281905610E+01 -0.37040696949E+01  0.10562595768E+01  0.10277267729E+02  0.00000000000E+00 0. -1.
         11    1    1    2    0    0  0.81004518970E+02  0.46244861305E+01 -0.42448541921E+03  0.43217009278E+03  0.00000000000E+00 0.  1.
<mgrwt>
<rscale>  0 0.14738413E+03</rscale>
<asrwt>0</asrwt>
<pdfrwt beam="1">  1        1 0.38242934E-02 0.15434648E+03</pdfrwt>
<pdfrwt beam="2">  1       -1 0.12630192E+00 0.15434648E+03</pdfrwt>
<totfact> 0.13891639E+03</totfact>
</mgrwt>
</event>
<event>
 6    1  0.4705246E-006  0.1598517E+03  0.7546771E-02  0.1196274E+00
          2   -1    0    0  501    0  0.00000000000E+00  0.00000000000E+00  0.14826108356E+04  0.14826108356E+04  0.00000000000E+00 0. -1.
         -2   -1    0    0    0  501 -0.00000000000E+00 -0.00000000000E+00 -0.15723653693E+02  0.15723653693E+02  0.00000000000E+00 0.  1.
          5    1    1    2  502    0  0.11887727346E+02 -0.15335559537E+02  0.18805371150E+02  0.27426801342E+02  0.47000000000E+01 0. -1.
         -5    1    1    2    0  502  0.86577597572E+02  0.29808966001E+02  0.95734345870E+03  0.96172389113E+03  0.47000000000E+01 0. -1.
        -11    1    1    2    0    0 -0.87110352259E+02 -0.47164342968E+02  0.39963091626E+03  0.41172509998E+03  0.00000000000E+00 0. -1.
         11    1    1    2    0    0 -0.11354972659E+02  0.32690936504E+02  0.91107435797E+02  0.97458696847E+02  0.00000000000E+00 0.  1.
<mgrwt>
<rscale>  0 0.15346869E+03</rscale>
<asrwt>0</asrwt>
<pdfrwt beam="1">  1        2 0.22809387E+00 0.15985166E+03</pdfrwt>
<pdfrwt beam="2">  1       -2 0.24190248E-02 0.15985166E+03</pdfrwt>
<totfact> 0.80045206E+03</totfact>
</mgrwt>
</event>
<event>
 6    1  0.4705246E-006  0.1542806E+03  0.7546771E-02  0.1203685E+00
         -2   -1    0    0    0  501 -0.00000000000E+00  0.00000000000E+00  0.45246052568E+02  0.45246052568E+02  0.00000000000E+00 0.  1.
          2   -1    0    0  501    0  0.00000000000E+00 -0.00000000000E+00 -0.53591525241E+03  0.53591525241E+03  0.00000000000E+00 0. -1.
          5    1    1    2  502    0 -0.24576615390E+02 -0.42756124944E+01 -0.15852336433E+03  0.16054294729E+03  0.47000000000E+01 0. -1.
         -5    1    1    2    0  502  0.11317864653E+03  0.22388539550E+02 -0.22632388213E+03  0.25407723699E+03  0.47000000000E+01 0. -1.
        -11    1    1    2    0    0 -0.70011331592E+02 -0.99871456250E+01 -0.12171471523E+03  0.14076860990E+03  0.00000000000E+00 0. -1.
         11    1    1    2    0    0 -0.18590699550E+02 -0.81257814307E+01  0.15892761850E+02  0.25772510798E+02  0.00000000000E+00 0.  1.
<mgrwt>
<rscale>  0 0.14741534E+03</rscale>
<asrwt>0</asrwt>
<pdfrwt beam="2">  1        2 0.82448505E-01 0.15428057E+03</pdfrwt>
<pdfrwt beam="1">  1       -2 0.69609308E-02 0.15428057E+03</pdfrwt>
<totfact> 0.65418101E+03</totfact>
</mgrwt>
</event>
<event>
 6    1  0.4705246E-006  0.1898984E+03  0.7546771E-02  0.1163509E+00
          2   -1    0    0  501    0  0.00000000000E+00  0.00000000000E+00  0.11479809407E+03  0.11479809407E+03  0.00000000000E+00 0. -1.
         -2   -1    0    0    0  501 -0.00000000000E+00 -0.00000000000E+00 -0.28089360068E+03  0.28089360068E+03  0.00000000000E+00 0.  1.
          5    1    1    2  502    0 -0.10800218214E+03 -0.29940566820E+02 -0.40576104477E+02  0.11928712899E+03  0.47000000000E+01 0. -1.
         -5    1    1    2    0  502 -0.28991102954E+02  0.70782051762E+02 -0.46360422488E+02  0.89565404456E+02  0.47000000000E+01 0. -1.
        -11    1    1    2    0    0  0.11467743539E+03 -0.12671835233E+02 -0.93138954126E+02  0.14827796320E+03  0.00000000000E+00 0.  1.
         11    1    1    2    0    0  0.22315849707E+02 -0.28169649709E+02  0.13979974480E+02  0.38561198105E+02  0.00000000000E+00 0. -1.
<mgrwt>
<rscale>  0 0.18450913E+03</rscale>
<asrwt>0</asrwt>
<pdfrwt beam="1">  1        2 0.17661245E-01 0.18989845E+03</pdfrwt>
<pdfrwt beam="2">  1       -2 0.43214400E-01 0.18989845E+03</pdfrwt>
<totfact> 0.16243111E+03</totfact>
</mgrwt>
</event>
<event>
 6    1  0.4705246E-006  0.1873848E+03  0.7546771E-02  0.1174886E+00
          2   -1    0    0  501    0  0.00000000000E+00  0.00000000000E+00  0.36836950906E+03  0.36836950906E+03  0.00000000000E+00 0. -1.
         -2   -1    0    0    0  501 -0.00000000000E+00 -0.00000000000E+00 -0.11114484752E+03  0.11114484752E+03  0.00000000000E+00 0.  1.
          5    1    1    2  502    0 -0.10444480321E+03  0.66604521845E+02  0.21174497275E+03  0.24536279819E+03  0.47000000000E+01 0. -1.
         -5    1    1    2    0  502  0.31319864854E+01 -0.61341327065E+02  0.73141919319E+02  0.95626346302E+02  0.47000000000E+01 0.  1.
        -11    1    1    2    0    0  0.40947444146E+02 -0.32772129834E+02  0.20747697577E+02  0.56401884992E+02  0.00000000000E+00 0. -1.
         11    1    1    2    0    0  0.60365372582E+02  0.27508935055E+02 -0.48409928107E+02  0.82123327101E+02  0.00000000000E+00 0.  1.
<mgrwt>
<rscale>  0 0.17287167E+03</rscale>
<asrwt>0</asrwt>
<pdfrwt beam="1">  1        2 0.56672231E-01 0.18738478E+03</pdfrwt>
<pdfrwt beam="2">  1       -2 0.17099208E-01 0.18738478E+03</pdfrwt>
<totfact> 0.23679427E+03</totfact>
</mgrwt>
</event>
<event>
 6    1  0.4705246E-006  0.1299993E+03  0.7546771E-02  0.1241271E+00
         -2   -1    0    0    0  501 -0.00000000000E+00  0.00000000000E+00  0.14662862450E+03  0.14662862450E+03  0.00000000000E+00 0.  1.
          2   -1    0    0  501    0  0.00000000000E+00 -0.00000000000E+00 -0.88624861818E+02  0.88624861818E+02  0.00000000000E+00 0. -1.
          5    1    1    2  502    0  0.13880127824E+02  0.35640520375E+02 -0.29875142608E+02  0.48759807084E+02  0.47000000000E+01 0.  1.
         -5    1    1    2    0  502  0.14333440923E+02 -0.57515777810E+02  0.60437303776E+02  0.84783665369E+02  0.47000000000E+01 0.  1.
        -11    1    1    2    0    0 -0.46174908607E+02  0.50652908480E+01  0.50059936285E+02  0.68291848541E+02  0.00000000000E+00 0.  1.
         11    1    1    2    0    0  0.17961339860E+02  0.16809966587E+02 -0.22618334768E+02  0.33418165328E+02  0.00000000000E+00 0. -1.
<mgrwt>
<rscale>  0 0.12111382E+03</rscale>
<asrwt>0</asrwt>
<pdfrwt beam="2">  1        2 0.13634594E-01 0.12999928E+03</pdfrwt>
<pdfrwt beam="1">  1       -2 0.22558250E-01 0.12999928E+03</pdfrwt>
<totfact> 0.70260855E+03</totfact>
</mgrwt>
</event>
<event>
 6    1  0.4705246E-006  0.1308064E+03  0.7546771E-02  0.1239927E+00
          2   -1    0    0  501    0  0.00000000000E+00  0.00000000000E+00  0.26886502656E+02  0.26886502656E+02  0.00000000000E+00 0. -1.
         -2   -1    0    0    0  501 -0.00000000000E+00 -0.00000000000E+00 -0.56576707627E+03  0.56576707627E+03  0.00000000000E+00 0.  1.
          5    1    1    2  502    0  0.97726439334E+01 -0.21099632194E+02 -0.20570639379E+03  0.20706981792E+03  0.47000000000E+01 0. -1.
         -5    1    1    2    0  502 -0.18245107698E+02 -0.16494571126E+02  0.11117592257E+02  0.27397913956E+02  0.47000000000E+01 0. -1.
        -11    1    1    2    0    0 -0.29275015662E+02 -0.11717979651E+02 -0.17598172938E+03  0.17878452580E+03  0.00000000000E+00 0.  1.
         11    1    1    2    0    0  0.37747479426E+02  0.49312182971E+02 -0.16831004270E+03  0.17940132125E+03  0.00000000000E+00 0. -1.
<mgrwt>
<rscale>  0 0.12194234E+03</rscale>
<asrwt>0</asrwt>
<pdfrwt beam="1">  1        2 0.41363851E-02 0.13080641E+03</pdfrwt>
<pdfrwt beam="2">  1       -2 0.87041087E-01 0.13080641E+03</pdfrwt>
<totfact> 0.22842256E+03</totfact>
</mgrwt>
</event>
<event>
 6    1  0.4705246E-006  0.1734647E+03  0.7546771E-02  0.1180620E+00
         -2   -1    0    0    0  501 -0.00000000000E+00  0.00000000000E+00  0.36557425448E+03  0.36557425448E+03  0.00000000000E+00 0.  1.
          2   -1    0    0  501    0  0.00000000000E+00 -0.00000000000E+00 -0.72150199511E+02  0.72150199511E+02  0.00000000000E+00 0. -1.
          5    1    1    2  502    0 -0.81998469476E+02  0.62162276441E+02  0.34045063642E+02  0.10848527074E+03  0.47000000000E+01 0.  1.
         -5    1    1    2    0  502 -0.33149981902E+02 -0.27462186046E+02  0.10583695593E+03  0.11435315563E+03  0.47000000000E+01 0.  1.
        -11    1    1    2    0    0  0.69126714219E+01  0.25537769821E+02  0.27961557386E+02  0.38494303540E+02  0.00000000000E+00 0. -1.
         11    1    1    2    0    0  0.10823577996E+03 -0.60237860217E+02  0.12558047801E+03  0.17639172408E+03  0.00000000000E+00 0.  1.
<mgrwt>
<rscale>  0 0.16736854E+03</rscale>
<asrwt>0</asrwt>
<pdfrwt beam="2">  1        2 0.11100031E-01 0.17346465E+03</pdfrwt>
<pdfrwt beam="1">  1       -2 0.56242192E-01 0.17346465E+03</pdfrwt>
<totfact> 0.16680587E+03</totfact>
</mgrwt>
</event>
<event>
 6    1  0.5509174E-006  0.1291667E+03  0.7546771E-02  0.1244882E+00
         -1   -1    0    0    0  501 -0.00000000000E+00  0.00000000000E+00  0.96772524430E+02  0.96772524430E+02  0.00000000000E+00 0.  1.
          1   -1    0    0  501    0  0.00000000000E+00 -0.00000000000E+00 -0.13113195729E+03  0.13113195729E+03  0.00000000000E+00 0. -1.
          5    1    1    2  502    0 -0.27029279979E+02 -0.28136448729E+02  0.37174784033E+02  0.54095252020E+02  0.47000000000E+01 0.  1.
         -5    1    1    2    0  502 -0.54263943808E+01  0.25797390719E+02 -0.76307050285E+02  0.80869073489E+02  0.47000000000E+01 0.  1.
        -11    1    1    2    0    0  0.59892661163E+01 -0.28489180765E+02  0.32590264255E+02  0.43699314107E+02  0.00000000000E+00 0.  1.
         11    1    1    2    0    0  0.26466408243E+02  0.30828238775E+02 -0.27817430862E+02  0.49240842103E+02  0.00000000000E+00 0. -1.
<mgrwt>
<rscale>  0 0.11892424E+03</rscale>
<asrwt>0</asrwt>
<pdfrwt beam="2">  1        1 0.20174147E-01 0.12916669E+03</pdfrwt>
<pdfrwt beam="1">  1       -1 0.14888081E-01 0.12916669E+03</pdfrwt>
<totfact> 0.77385506E+03</totfact>
</mgrwt>
</event>
<event>
 6    1  0.4705246E-006  0.1599221E+03  0.7546771E-02  0.1196333E+00
         -2   -1    0    0    0  501 -0.00000000000E+00  0.00000000000E+00  0.30065754535E+02  0.30065754535E+02  0.00000000000E+00 0.  1.
          2   -1    0    0  501    0  0.00000000000E+00 -0.00000000000E+00 -0.89035028991E+03  0.89035028991E+03  0.00000000000E+00 0. -1.
          5    1    1    2  502    0  0.26389389304E+02 -0.71094364377E+02 -0.50569640100E+03  0.51137241664E+03  0.47000000000E+01 0. -1.
         -5    1    1    2    0  502  0.60941560755E+02  0.22976536976E+02 -0.15096316274E+03  0.16448027719E+03  0.47000000000E+01 0. -1.
        -11    1    1    2    0    0 -0.63552529465E+02  0.48112216527E+02 -0.20578851320E+03  0.22068670451E+03  0.00000000000E+00 0. -1.
         11    1    1    2    0    0 -0.23778420594E+02  0.56108745799E-02  0.21635415696E+01  0.23876646111E+02  0.00000000000E+00 0.  1.
<mgrwt>
<rscale>  0 0.15341940E+03</rscale>
<asrwt>0</asrwt>
<pdfrwt beam="2">  1        2 0.13697695E+00 0.15992211E+03</pdfrwt>
<pdfrwt beam="1">  1       -2 0.46255014E-02 0.15992211E+03</pdfrwt>
<totfact> 0.66360715E+03</totfact>
</mgrwt>
</event>
<event>
 6    1  0.4705246E-006  0.1489921E+03  0.7546771E-02  0.1211082E+00
          2   -1    0    0  501    0  0.00000000000E+00  0.00000000000E+00  0.88909617019E+03  0.88909617019E+03  0.00000000000E+00 0. -1.
         -2   -1    0    0    0  501 -0.00000000000E+00 -0.00000000000E+00 -0.20883378543E+02  0.20883378543E+02  0.00000000000E+00 0.  1.
          5    1    1    2  502    0  0.61892593919E+02  0.18952761479E+02  0.12896033907E+03  0.14437021647E+03  0.47000000000E+01 0.  1.
         -5    1    1    2    0  502 -0.31689983440E+02  0.56286583811E+02  0.39852828922E+03  0.40375651311E+03  0.47000000000E+01 0.  1.
        -11    1    1    2    0    0 -0.52332032475E+02 -0.13512893182E+02  0.18873767606E+03  0.19632409498E+03  0.00000000000E+00 0.  1.
         11    1    1    2    0    0  0.22129421997E+02 -0.61726452109E+02  0.15198648729E+03  0.16552872418E+03  0.00000000000E+00 0. -1.
<mgrwt>
<rscale>  0 0.14168316E+03</rscale>
<asrwt>0</asrwt>
<pdfrwt beam="1">  1        2 0.13678400E+00 0.14899214E+03</pdfrwt>
<pdfrwt beam="2">  1       -2 0.32128282E-02 0.14899214E+03</pdfrwt>
<totfact> 0.11395725E+04</totfact>
</mgrwt>
</event>
<event>
 6    1  0.4705246E-006  0.1275507E+03  0.7546771E-02  0.1246284E+00
         -2   -1    0    0    0  501 -0.00000000000E+00  0.00000000000E+00  0.31045787012E+02  0.31045787012E+02  0.00000000000E+00 0.  1.
          2   -1    0    0  501    0  0.00000000000E+00 -0.00000000000E+00 -0.48569041097E+03  0.48569041097E+03  0.00000000000E+00 0. -1.
          5    1    1    2  502    0  0.62044044339E+02 -0.98847343538E+01 -0.16879923635E+03  0.18017337096E+03  0.47000000000E+01 0. -1.
         -5    1    1    2    0  502 -0.62199921276E+02 -0.15509759788E+02 -0.19779407764E+03  0.20797588804E+03  0.47000000000E+01 0. -1.
        -11    1    1    2    0    0 -0.16579310154E+02  0.55650591437E+02 -0.64299305339E+02  0.86638689507E+02  0.00000000000E+00 0.  1.
         11    1    1    2    0    0  0.16735187091E+02 -0.30256097295E+02 -0.23752004634E+02  0.41948249482E+02  0.00000000000E+00 0. -1.
<mgrwt>
<rscale>  0 0.11808880E+03</rscale>
<asrwt>0</asrwt>
<pdfrwt beam="2">  1        2 0.74721604E-01 0.12755073E+03</pdfrwt>
<pdfrwt beam="1">  1       -2 0.47762748E-02 0.12755073E+03</pdfrwt>
<totfact> 0.12739932E+04</totfact>
</mgrwt>
</event>
<event>
 6    1  0.4705246E-006  0.4057000E+03  0.7546771E-02  0.1041824E+00
         -1   -1    0    0    0  501 -0.00000000000E+00  0.00000000000E+00  0.14413863984E+03  0.14413863984E+03  0.00000000000E+00 0.  1.
          1   -1    0    0  501    0  0.00000000000E+00 -0.00000000000E+00 -0.28547604307E+03  0.28547604307E+03  0.00000000000E+00 0. -1.
          5    1    1    2  502    0  0.11316612835E+03  0.12540660292E+02 -0.67876403014E+02  0.13263912263E+03  0.47000000000E+01 0.  1.
         -5    1    1    2    0  502  0.10696137019E+02 -0.20076354159E+02 -0.13093484053E+03  0.13297928338E+03  0.47000000000E+01 0.  1.
        -11    1    1    2    0    0 -0.45922370590E+02  0.26384000637E+02  0.64551732627E+02  0.83497938869E+02  0.00000000000E+00 0.  1.
         11    1    1    2    0    0 -0.77939894779E+02 -0.18848306769E+02 -0.70778923102E+01  0.80498338032E+02  0.00000000000E+00 0. -1.
<mgrwt>
<rscale>  0 0.40570003E+03</rscale>
<asrwt>0</asrwt>
<pdfrwt beam="2">  1        1 0.43919391E-01 0.40570003E+03</pdfrwt>
<pdfrwt beam="1">  1       -1 0.22175175E-01 0.40570003E+03</pdfrwt>
<totfact> 0.15950475E+03</totfact>
</mgrwt>
</event>
<event>
 6    1  0.4705246E-006  0.1363616E+03  0.7546771E-02  0.1233298E+00
         -2   -1    0    0    0  501 -0.00000000000E+00  0.00000000000E+00  0.23339404894E+03  0.23339404894E+03  0.00000000000E+00 0.  1.
          2   -1    0    0  501    0  0.00000000000E+00 -0.00000000000E+00 -0.73498133308E+02  0.73498133308E+02  0.00000000000E+00 0. -1.
          5    1    1    2  502    0  0.91618016753E+01  0.38043487810E+02 -0.70021651529E+01  0.40029562719E+02  0.47000000000E+01 0.  1.
         -5    1    1    2    0  502 -0.31143019320E+02 -0.87898362862E+02  0.31318060470E+02  0.98483098843E+02  0.47000000000E+01 0.  1.
        -11    1    1    2    0    0 -0.29131662290E+02  0.33793599213E+02  0.77009530466E+02  0.89000724032E+02  0.00000000000E+00 0. -1.
         11    1    1    2    0    0  0.51112879935E+02  0.16061275839E+02  0.58570489846E+02  0.79378796650E+02  0.00000000000E+00 0.  1.
<mgrwt>
<rscale>  0 0.12614049E+03</rscale>
<asrwt>0</asrwt>
<pdfrwt beam="2">  1        2 0.11307405E-01 0.13636163E+03</pdfrwt>
<pdfrwt beam="1">  1       -2 0.35906776E-01 0.13636163E+03</pdfrwt>
<totfact> 0.38494660E+03</totfact>
</mgrwt>
</event>
<event>
 6    1  0.4705246E-006  0.1551368E+03  0.7546771E-02  0.1202954E+00
         -2   -1    0    0    0  501 -0.00000000000E+00  0.00000000000E+00  0.28344796151E+02  0.28344796151E+02  0.00000000000E+00 0.  1.
          2   -1    0    0  501    0  0.00000000000E+00 -0.00000000000E+00 -0.71723480271E+03  0.71723480271E+03  0.00000000000E+00 0. -1.
          5    1    1    2  502    0  0.28448648862E+02 -0.80540311598E+02 -0.37925856943E+03  0.38878685665E+03  0.47000000000E+01 0. -1.
         -5    1    1    2    0  502  0.37149983636E+02  0.16184885561E+02 -0.35649664934E+02  0.54176197862E+02  0.47000000000E+01 0. -1.
        -11    1    1    2    0    0 -0.19508288011E+02  0.28313672309E+02 -0.15714200881E+02  0.37804410457E+02  0.00000000000E+00 0.  1.
         11    1    1    2    0    0 -0.46090344488E+02  0.36041753728E+02 -0.25826757131E+03  0.26481213390E+03  0.00000000000E+00 0. -1.
<mgrwt>
<rscale>  0 0.14799839E+03</rscale>
<asrwt>0</asrwt>
<pdfrwt beam="2">  1        2 0.11034380E+00 0.15513679E+03</pdfrwt>
<pdfrwt beam="1">  1       -2 0.43607383E-02 0.15513679E+03</pdfrwt>
<totfact> 0.94894159E+03</totfact>
</mgrwt>
</event>
<event>
 6    1  0.4705246E-006  0.1533940E+03  0.7546771E-02  0.1204875E+00
          1   -1    0    0  501    0  0.00000000000E+00  0.00000000000E+00  0.28843248167E+02  0.28843248167E+02  0.00000000000E+00 0. -1.
         -1   -1    0    0    0  501 -0.00000000000E+00 -0.00000000000E+00 -0.73127467568E+03  0.73127467568E+03  0.00000000000E+00 0.  1.
          5    1    1    2  502    0 -0.24290758070E+02 -0.20840557410E+02 -0.94310228749E+02  0.99703956829E+02  0.47000000000E+01 0. -1.
         -5    1    1    2    0  502  0.51298423783E+02  0.10555731619E+03 -0.19091970262E+03  0.22415686055E+03  0.47000000000E+01 0. -1.
        -11    1    1    2    0    0  0.70227247073E+01  0.16515484031E+02 -0.33929938457E+02  0.38383858571E+02  0.00000000000E+00 0.  1.
         11    1    1    2    0    0 -0.34030390420E+02 -0.10123224282E+03 -0.38327155769E+03  0.39787324790E+03  0.00000000000E+00 0. -1.
<mgrwt>
<rscale>  0 0.14647278E+03</rscale>
<asrwt>0</asrwt>
<pdfrwt beam="1">  1        1 0.44374230E-02 0.15339399E+03</pdfrwt>
<pdfrwt beam="2">  1       -1 0.11250379E+00 0.15339399E+03</pdfrwt>
<totfact> 0.14849109E+03</totfact>
</mgrwt>
</event>
<event>
 6    1  0.4705246E-006  0.1346839E+03  0.7546771E-02  0.1232638E+00
         -1   -1    0    0    0  501 -0.00000000000E+00  0.00000000000E+00  0.45656713392E+02  0.45656713392E+02  0.00000000000E+00 0.  1.
          1   -1    0    0  501    0  0.00000000000E+00 -0.00000000000E+00 -0.32138035000E+03  0.32138035000E+03  0.00000000000E+00 0. -1.
          5    1    1    2  502    0  0.22763685976E+02  0.48112348668E+02 -0.14101399638E+03  0.15079794650E+03  0.47000000000E+01 0.  1.
         -5    1    1    2    0  502  0.26544789913E+02 -0.57152278142E+02 -0.39857493974E+02  0.74710900103E+02  0.47000000000E+01 0.  1.
        -11    1    1    2    0    0 -0.60897642738E+02 -0.27276387942E+02 -0.64429964149E+02  0.92756371805E+02  0.00000000000E+00 0. -1.
         11    1    1    2    0    0  0.11589166850E+02  0.36316317416E+02 -0.30422182099E+02  0.48771844978E+02  0.00000000000E+00 0.  1.
<mgrwt>
<rscale>  0 0.12656828E+03</rscale>
<asrwt>0</asrwt>
<pdfrwt beam="2">  1        1 0.49443130E-01 0.13468387E+03</pdfrwt>
<pdfrwt beam="1">  1       -1 0.70241098E-02 0.13468387E+03</pdfrwt>
<totfact> 0.80148345E+03</totfact>
</mgrwt>
</event>
<event>
 6    1  0.4705246E-006  0.2750511E+03  0.7546771E-02  0.1098423E+00
          1   -1    0    0  501    0  0.00000000000E+00  0.00000000000E+00  0.13101744195E+04  0.13101744195E+04  0.00000000000E+00 0. -1.
         -1   -1    0    0    0  501 -0.00000000000E+00 -0.00000000000E+00 -0.14435689043E+02  0.14435689043E+02  0.00000000000E+00 0.  1.
          5    1    1    2  502    0  0.31316363976E+02 -0.85627818069E+01  0.35180331462E+03  0.35332944693E+03  0.47000000000E+01 0. -1.
         -5    1    1    2    0  502 -0.57085172267E+02  0.47730345999E+02  0.24321944558E+03  0.25439082438E+03  0.47000000000E+01 0.  1.
        -11    1    1    2    0    0  0.28388797122E+02  0.49297688853E+02  0.18218498281E+03  0.19086003744E+03  0.00000000000E+00 0.  1.
         11    1    1    2    0    0 -0.26199888304E+01 -0.88465253045E+02  0.51853098739E+03  0.52602979975E+03  0.00000000000E+00 0. -1.
<mgrwt>
<rscale>  0 0.27505105E+03</rscale>
<asrwt>0</asrwt>
<pdfrwt beam="1">  1        1 0.20156520E+00 0.27505105E+03</pdfrwt>
<pdfrwt beam="2">  1       -1 0.22208763E-02 0.27505105E+03</pdfrwt>
<totfact> 0.56462918E+03</totfact>
</mgrwt>
</event>
<event>
 6    1  0.4705246E-006  0.1501747E+03  0.7546771E-02  0.1219862E+00
          1   -1    0    0  501    0  0.00000000000E+00  0.00000000000E+00  0.10618376039E+03  0.10618376039E+03  0.00000000000E+00 0. -1.
         -1   -1    0    0    0  501 -0.00000000000E+00 -0.00000000000E+00 -0.16040944943E+03  0.16040944943E+03  0.00000000000E+00 0.  1.
          5    1    1    2  502    0  0.65274319230E+01  0.80873074338E+02  0.44989313810E+02  0.92893432908E+02  0.47000000000E+01 0. -1.
         -5    1    1    2    0  502  0.40978043430E+02 -0.12539986865E+02 -0.37966262813E+02  0.57445438687E+02  0.47000000000E+01 0. -1.
        -11    1    1    2    0    0 -0.14584935247E+02 -0.21402760403E+02  0.72863160798E+01  0.26905183349E+02  0.00000000000E+00 0.  1.
         11    1    1    2    0    0 -0.32920540106E+02 -0.46930327070E+02 -0.68535056116E+02  0.89349154873E+02  0.00000000000E+00 0. -1.
<mgrwt>
<rscale>  0 0.13525374E+03</rscale>
<asrwt>0</asrwt>
<pdfrwt beam="1">  1        1 0.16335963E-01 0.15017474E+03</pdfrwt>
<pdfrwt beam="2">  1       -1 0.24678377E-01 0.15017474E+03</pdfrwt>
<totfact> 0.45583475E+03</totfact>
</mgrwt>
</event>
<event>
 6    1  0.4705246E-006  0.1250077E+03  0.7546771E-02  0.1249257E+00
          2   -1    0    0  501    0  0.00000000000E+00  0.00000000000E+00  0.13042386240E+03  0.13042386240E+03  0.00000000000E+00 0. -1.
         -2   -1    0    0    0  501 -0.00000000000E+00 -0.00000000000E+00 -0.11299881686E+03  0.11299881686E+03  0.00000000000E+00 0.  1.
          5    1    1    2  502    0  0.60659079765E+02 -0.10194464740E+01  0.17494229435E+02  0.63314305592E+02  0.47000000000E+01 0.  1.
         -5    1    1    2    0  502 -0.61693397327E+02  0.25709843852E+00  0.44557334007E+02  0.76246884442E+02  0.47000000000E+01 0.  1.
        -11    1    1    2    0    0 -0.11927703188E+02 -0.39222904363E+02 -0.46240011268E+02  0.61796803898E+02  0.00000000000E+00 0.  1.
         11    1    1    2    0    0  0.12962020750E+02  0.39985252398E+02  0.16134933614E+01  0.42064685332E+02  0.00000000000E+00 0. -1.
<mgrwt>
<rscale>  0 0.11634194E+03</rscale>
<asrwt>0</asrwt>
<pdfrwt beam="1">  1        2 0.20065210E-01 0.12500772E+03</pdfrwt>
<pdfrwt beam="2">  1       -2 0.17384433E-01 0.12500772E+03</pdfrwt>
<totfact> 0.69597623E+03</totfact>
</mgrwt>
</event>
<event>
 6    1  0.4705246E-006  0.1322361E+03  0.7546771E-02  0.1236577E+00
         -1   -1    0    0    0  501 -0.00000000000E+00  0.00000000000E+00  0.13036614442E+03  0.13036614442E+03  0.00000000000E+00 0.  1.
          1   -1    0    0  501    0  0.00000000000E+00 -0.00000000000E+00 -0.14017474256E+03  0.14017474256E+03  0.00000000000E+00 0. -1.
          5    1    1    2  502    0  0.60615704290E+02  0.31915951105E+02 -0.91576695266E+02  0.11446079092E+03  0.47000000000E+01 0. -1.
         -5    1    1    2    0  502 -0.18132276706E+02 -0.24154353529E+02  0.19387773446E+02  0.36196519337E+02  0.47000000000E+01 0. -1.
        -11    1    1    2    0    0  0.16034989830E+02 -0.23885672009E+02  0.50371231662E+02  0.58007820208E+02  0.00000000000E+00 0.  1.
         11    1    1    2    0    0 -0.58518417414E+02  0.16124074432E+02  0.12009092022E+02  0.61875756514E+02  0.00000000000E+00 0. -1.
<mgrwt>
<rscale>  0 0.12403997E+03</rscale>
<asrwt>0</asrwt>
<pdfrwt beam="2">  1        1 0.21565345E-01 0.13223609E+03</pdfrwt>
<pdfrwt beam="1">  1       -1 0.20056330E-01 0.13223609E+03</pdfrwt>
<totfact> 0.44437476E+03</totfact>
</mgrwt>
</event>
<event>
 6    1  0.4705246E-006  0.1685009E+03  0.7546771E-02  0.1186522E+00
          2   -1    0    0  501    0  0.00000000000E+00  0.00000000000E+00  0.13154108616E+04  0.13154108616E+04  0.00000000000E+00 0. -1.
         -2   -1    0    0    0  501 -0.00000000000E+00 -0.00000000000E+00 -0.18660755543E+02  0.18660755543E+02  0.00000000000E+00 0.  1.
          5    1    1    2  502    0  0.40311927706E+02  0.22058944949E+02  0.25674493334E+03  0.26086720638E+03  0.47000000000E+01 0.  1.
         -5    1    1    2    0  502 -0.91765531986E+02  0.78529623661E+02  0.49807470191E+03  0.51253128035E+03  0.47000000000E+01 0.  1.
        -11    1    1    2    0    0  0.76712406768E+02 -0.78328910261E+02  0.43255887367E+03  0.44623692219E+03  0.00000000000E+00 0. -1.
         11    1    1    2    0    0 -0.25258802488E+02 -0.22259658349E+02  0.10937159715E+03  0.11443620824E+03  0.00000000000E+00 0.  1.
<mgrwt>
<rscale>  0 0.16194141E+03</rscale>
<asrwt>0</asrwt>
<pdfrwt beam="1">  1        2 0.20237083E+00 0.16850085E+03</pdfrwt>
<pdfrwt beam="2">  1       -2 0.28708865E-02 0.16850085E+03</pdfrwt>
<totfact> 0.76553224E+03</totfact>
</mgrwt>
</event>
<event>
 6    1  0.4705246E-006  0.1569106E+03  0.7546771E-02  0.1199582E+00
         -2   -1    0    0    0  501 -0.00000000000E+00  0.00000000000E+00  0.19552865516E+03  0.19552865516E+03  0.00000000000E+00 0.  1.
          2   -1    0    0  501    0  0.00000000000E+00 -0.00000000000E+00 -0.10990905398E+03  0.10990905398E+03  0.00000000000E+00 0. -1.
          5    1    1    2  502    0 -0.17974105837E+02 -0.27833959175E+02  0.95858820784E+02  0.10153226722E+03  0.47000000000E+01 0.  1.
         -5    1    1    2    0  502 -0.20449660316E+02 -0.58884550781E+02 -0.29145227158E+02  0.68971828987E+02  0.47000000000E+01 0.  1.
        -11    1    1    2    0    0  0.51173405829E+02  0.43589729711E+02 -0.25343962875E+02  0.71840785454E+02  0.00000000000E+00 0.  1.
         11    1    1    2    0    0 -0.12749639675E+02  0.43128780245E+02  0.44249970423E+02  0.63092827482E+02  0.00000000000E+00 0. -1.
<mgrwt>
<rscale>  0 0.15072766E+03</rscale>
<asrwt>0</asrwt>
<pdfrwt beam="2">  1        2 0.16909085E-01 0.15691062E+03</pdfrwt>
<pdfrwt beam="1">  1       -2 0.30081332E-01 0.15691062E+03</pdfrwt>
<totfact> 0.33309422E+03</totfact>
</mgrwt>
</event>
<event>
 6    1  0.4705246E-006  0.1536607E+03  0.7546771E-02  0.1205172E+00
         -2   -1    0    0    0  501 -0.00000000000E+00  0.00000000000E+00  0.74403226078E+02  0.74403226078E+02  0.00000000000E+00 0.  1.
          2   -1    0    0  501    0  0.00000000000E+00 -0.00000000000E+00 -0.29420151503E+03  0.29420151503E+03  0.00000000000E+00 0. -1.
          5    1    1    2  502    0  0.34150326190E+02  0.43211057638E+02 -0.15542708230E+03  0.16496396029E+03  0.47000000000E+01 0.  1.
         -5    1    1    2    0  502 -0.49762856938E+02  0.44788596519E+02 -0.24021271249E+02  0.71284442771E+02  0.47000000000E+01 0.  1.
        -11    1    1    2    0    0 -0.17430095054E+02 -0.25598654364E+02  0.22137168037E+02  0.38067749178E+02  0.00000000000E+00 0.  1.
         11    1    1    2    0    0  0.33042625802E+02 -0.62400999793E+02 -0.62487103441E+02  0.94288588872E+02  0.00000000000E+00 0. -1.
<mgrwt>
<rscale>  0 0.14623885E+03</rscale>
<asrwt>0</asrwt>
<pdfrwt beam="2">  1        2 0.45261771E-01 0.15366065E+03</pdfrwt>
<pdfrwt beam="1">  1       -2 0.11446650E-01 0.15366065E+03</pdfrwt>
<totfact> 0.57428407E+03</totfact>
</mgrwt>
</event>
<event>
 6    1  0.4705246E-006  0.1731409E+03  0.7546771E-02  0.1181490E+00
         -1   -1    0    0    0  501 -0.00000000000E+00  0.00000000000E+00  0.25285153812E+03  0.25285153812E+03  0.00000000000E+00 0.  1.
          1   -1    0    0  501    0  0.00000000000E+00 -0.00000000000E+00 -0.11724352748E+03  0.11724352748E+03  0.00000000000E+00 0. -1.
          5    1    1    2  502    0  0.71181377580E+02 -0.10852192067E+03  0.39381961590E+02  0.13570860208E+03  0.47000000000E+01 0.  1.
         -5    1    1    2    0  502  0.49290380889E+01  0.16012545373E+02 -0.33263959528E+02  0.37540352014E+02  0.47000000000E+01 0.  1.
        -11    1    1    2    0    0 -0.63845975455E+02  0.71743425083E+02  0.39780772909E+02  0.10395161142E+03  0.00000000000E+00 0. -1.
         11    1    1    2    0    0 -0.12264440214E+02  0.20765950216E+02  0.89709235667E+02  0.92894500085E+02  0.00000000000E+00 0.  1.
<mgrwt>
<rscale>  0 0.16655398E+03</rscale>
<asrwt>0</asrwt>
<pdfrwt beam="2">  1        1 0.18037466E-01 0.17314090E+03</pdfrwt>
<pdfrwt beam="1">  1       -1 0.38900236E-01 0.17314090E+03</pdfrwt>
<totfact> 0.18662463E+03</totfact>
</mgrwt>
</event>
<event>
 6    1  0.4705246E-006  0.1317578E+03  0.7546771E-02  0.1239602E+00
         -2   -1    0    0    0  501 -0.00000000000E+00  0.00000000000E+00  0.14534606300E+02  0.14534606300E+02  0.00000000000E+00 0.  1.
          2   -1    0    0  501    0  0.00000000000E+00 -0.00000000000E+00 -0.90253996366E+03  0.90253996366E+03  0.00000000000E+00 0. -1.
          5    1    1    2  502    0  0.10348750351E+02 -0.47800597153E+02 -0.50519153274E+03  0.50757518505E+03  0.47000000000E+01 0. -1.
         -5    1    1    2    0  502 -0.16769344787E+02  0.66446813944E+01 -0.49211659145E+01  0.19278760058E+02  0.47000000000E+01 0. -1.
        -11    1    1    2    0    0 -0.17145678240E+02  0.62861406620E+02 -0.24432087576E+03  0.25286008198E+03  0.00000000000E+00 0. -1.
         11    1    1    2    0    0  0.23566272675E+02 -0.21705490861E+02 -0.13357178294E+03  0.13736054288E+03  0.00000000000E+00 0.  1.
<mgrwt>
<rscale>  0 0.12214391E+03</rscale>
<asrwt>0</asrwt>
<pdfrwt beam="2">  1        2 0.13885234E+00 0.13175779E+03</pdfrwt>
<pdfrwt beam="1">  1       -2 0.22360926E-02 0.13175779E+03</pdfrwt>
<totfact> 0.18851794E+04</totfact>
</mgrwt>
</event>
<event>
 6    1  0.4705246E-006  0.1356168E+03  0.7546771E-02  0.1231223E+00
         -1   -1    0    0    0  501 -0.00000000000E+00  0.00000000000E+00  0.57645598321E+02  0.57645598321E+02  0.00000000000E+00 0.  1.
          1   -1    0    0  501    0  0.00000000000E+00 -0.00000000000E+00 -0.27907713633E+03  0.27907713633E+03  0.00000000000E+00 0. -1.
          5    1    1    2  502    0  0.27875668029E+02 -0.16769613921E+02 -0.13427072832E+03  0.13823527518E+03  0.47000000000E+01 0. -1.
         -5    1    1    2    0  502 -0.70732006997E+02 -0.13733127953E+02 -0.39864895848E+02  0.82479788665E+02  0.47000000000E+01 0. -1.
        -11    1    1    2    0    0 -0.77898311560E+00 -0.30671808164E+02 -0.11392805186E+02  0.32728621125E+02  0.00000000000E+00 0. -1.
         11    1    1    2    0    0  0.43635322084E+02  0.61174550037E+02 -0.35903108657E+02  0.83279049687E+02  0.00000000000E+00 0.  1.
<mgrwt>
<rscale>  0 0.12749364E+03</rscale>
<asrwt>0</asrwt>
<pdfrwt beam="2">  1        1 0.42934945E-01 0.13561683E+03</pdfrwt>
<pdfrwt beam="1">  1       -1 0.88685534E-02 0.13561683E+03</pdfrwt>
<totfact> 0.67191860E+03</totfact>
</mgrwt>
</event>
<event>
 6    1  0.4705246E-006  0.1254983E+03  0.7546771E-02  0.1249456E+00
         -4   -1    0    0    0  501 -0.00000000000E+00  0.00000000000E+00  0.57735309271E+02  0.57735309271E+02  0.00000000000E+00 0.  1.
          4   -1    0    0  501    0  0.00000000000E+00 -0.00000000000E+00 -0.20546017023E+03  0.20546017023E+03  0.00000000000E+00 0. -1.
          5    1    1    2  502    0 -0.23938370382E+02  0.51096614652E+02 -0.79891205452E+01  0.57182389357E+02  0.47000000000E+01 0. -1.
         -5    1    1    2    0  502  0.13052795119E+02 -0.53262439499E+02 -0.75963158469E+02  0.93807005956E+02  0.47000000000E+01 0. -1.
        -11    1    1    2    0    0  0.13237024794E+02 -0.20211986074E+02 -0.80577799567E+02  0.84122083839E+02  0.00000000000E+00 0. -1.
         11    1    1    2    0    0 -0.23514495311E+01  0.22377810920E+02  0.16805217619E+02  0.28084000351E+02  0.00000000000E+00 0.  1.
<mgrwt>
<rscale>  0 0.11622619E+03</rscale>
<asrwt>0</asrwt>
<pdfrwt beam="2">  1        4 0.31609257E-01 0.12549826E+03</pdfrwt>
<pdfrwt beam="1">  1       -4 0.88823553E-02 0.12549826E+03</pdfrwt>
<totfact> 0.14435930E+03</totfact>
</mgrwt>
</event>
<event>
 6    1  0.4705246E-006  0.1579527E+03  0.7546771E-02  0.1198996E+00
          1   -1    0    0  501    0  0.00000000000E+00  0.00000000000E+00  0.32006750745E+03  0.32006750745E+03  0.00000000000E+00 0. -1.
         -1   -1    0    0    0  501 -0.00000000000E+00 -0.00000000000E+00 -0.11466822617E+03  0.11466822617E+03  0.00000000000E+00 0.  1.
          5    1    1    2  502    0  0.20869156904E+02 -0.47164099838E+02  0.13331426403E+02  0.53477013317E+02  0.47000000000E+01 0.  1.
         -5    1    1    2    0  502 -0.16379187072E+02 -0.49289995841E+02  0.23586411431E+03  0.24156107277E+03  0.47000000000E+01 0.  1.
        -11    1    1    2    0    0  0.30359690154E+02  0.67936744951E+02 -0.55899381525E+02  0.93069076258E+02  0.00000000000E+00 0.  1.
         11    1    1    2    0    0 -0.34849659987E+02  0.28517350728E+02  0.12103122086E+02  0.46628571262E+02  0.00000000000E+00 0. -1.
<mgrwt>
<rscale>  0 0.15120846E+03</rscale>
<asrwt>0</asrwt>
<pdfrwt beam="1">  1        1 0.49241155E-01 0.15795270E+03</pdfrwt>
<pdfrwt beam="2">  1       -1 0.17641266E-01 0.15795270E+03</pdfrwt>
<totfact> 0.19641883E+03</totfact>
</mgrwt>
</event>
<event>
 6    1  0.4705246E-006  0.1958253E+03  0.7546771E-02  0.1158272E+00
          2   -1    0    0  501    0  0.00000000000E+00  0.00000000000E+00  0.16360926168E+04  0.16360926168E+04  0.00000000000E+00 0. -1.
         -2   -1    0    0    0  501 -0.00000000000E+00 -0.00000000000E+00 -0.24398843087E+02  0.24398843087E+02  0.00000000000E+00 0.  1.
          5    1    1    2  502    0  0.13102873221E+03 -0.25086151865E+02  0.75551101197E+03  0.76721367486E+03  0.47000000000E+01 0.  1.
         -5    1    1    2    0  502 -0.75177894167E+01 -0.61296141394E+02  0.40292706441E+03  0.40765922452E+03  0.47000000000E+01 0.  1.
        -11    1    1    2    0    0 -0.34319082972E+02 -0.26522008388E+01  0.19774491276E+03  0.20071842005E+03  0.00000000000E+00 0. -1.
         11    1    1    2    0    0 -0.89191859822E+02  0.89034494098E+02  0.25551078459E+03  0.28490014047E+03  0.00000000000E+00 0.  1.
<mgrwt>
<rscale>  0 0.19021003E+03</rscale>
<asrwt>0</asrwt>
<pdfrwt beam="1">  1        2 0.25170647E+00 0.19582531E+03</pdfrwt>
<pdfrwt beam="2">  1       -2 0.37536695E-02 0.19582531E+03</pdfrwt>
<totfact> 0.34861916E+03</totfact>
</mgrwt>
</event>
<event>
 6    1  0.4705246E-006  0.1376750E+03  0.7546771E-02  0.1227449E+00
         -1   -1    0    0    0  501 -0.00000000000E+00  0.00000000000E+00  0.32474987833E+02  0.32474987833E+02  0.00000000000E+00 0.  1.
          1   -1    0    0  501    0  0.00000000000E+00 -0.00000000000E+00 -0.51957086289E+03  0.51957086289E+03  0.00000000000E+00 0. -1.
          5    1    1    2  502    0 -0.53934637140E+02  0.38734510787E+01 -0.70863291224E+02  0.89261664503E+02  0.47000000000E+01 0. -1.
         -5    1    1    2    0  502  0.39447725777E+02  0.51983012216E+02 -0.28243776041E+03  0.28991642785E+03  0.47000000000E+01 0. -1.
        -11    1    1    2    0    0 -0.29232105606E+02 -0.27305525583E+02 -0.14331100022E+02  0.42491036154E+02  0.00000000000E+00 0.  1.
         11    1    1    2    0    0  0.43719016969E+02 -0.28550937711E+02 -0.11946372339E+03  0.13037672221E+03  0.00000000000E+00 0. -1.
<mgrwt>
<rscale>  0 0.13000448E+03</rscale>
<asrwt>0</asrwt>
<pdfrwt beam="2">  1        1 0.79933978E-01 0.13767495E+03</pdfrwt>
<pdfrwt beam="1">  1       -1 0.49961520E-02 0.13767495E+03</pdfrwt>
<totfact> 0.72463971E+03</totfact>
</mgrwt>
</event>
<event>
 6    1  0.4705246E-006  0.1818655E+03  0.7546771E-02  0.1171379E+00
         -1   -1    0    0    0  501 -0.00000000000E+00  0.00000000000E+00  0.56593768467E+02  0.56593768467E+02  0.00000000000E+00 0.  1.
          1   -1    0    0  501    0  0.00000000000E+00 -0.00000000000E+00 -0.57617334724E+03  0.57617334724E+03  0.00000000000E+00 0. -1.
          5    1    1    2  502    0  0.27826865808E+02 -0.29566539063E+02 -0.12675688594E+02  0.42793431438E+02  0.47000000000E+01 0.  1.
         -5    1    1    2    0  502  0.40274513450E+02 -0.83628934961E+02 -0.36124295744E+03  0.37300723786E+03  0.47000000000E+01 0.  1.
        -11    1    1    2    0    0 -0.22750638923E+01  0.43287781516E+02 -0.10264937513E+01  0.43359677509E+02  0.00000000000E+00 0.  1.
         11    1    1    2    0    0 -0.65826315365E+02  0.69907692508E+02 -0.14463443898E+03  0.17360676889E+03  0.00000000000E+00 0. -1.
<mgrwt>
<rscale>  0 0.17635412E+03</rscale>
<asrwt>0</asrwt>
<pdfrwt beam="2">  1        1 0.88642058E-01 0.18186545E+03</pdfrwt>
<pdfrwt beam="1">  1       -1 0.87067331E-02 0.18186545E+03</pdfrwt>
<totfact> 0.27748489E+03</totfact>
</mgrwt>
</event>
<event>
 6    1  0.4705246E-006  0.1308878E+03  0.7546771E-02  0.1240542E+00
          1   -1    0    0  501    0  0.00000000000E+00  0.00000000000E+00  0.12829925479E+03  0.12829925479E+03  0.00000000000E+00 0. -1.
         -1   -1    0    0    0  501 -0.00000000000E+00 -0.00000000000E+00 -0.10462508107E+03  0.10462508107E+03  0.00000000000E+00 0.  1.
          5    1    1    2  502    0  0.17226367810E+02 -0.34034029169E+02 -0.28788878995E+02  0.48020333643E+02  0.47000000000E+01 0.  1.
         -5    1    1    2    0  502 -0.55122737826E+02  0.25657565274E+02  0.62107356683E+02  0.87041602900E+02  0.47000000000E+01 0.  1.
        -11    1    1    2    0    0  0.16274723758E+02  0.34643366204E+01  0.40091896756E+02  0.43407700320E+02  0.00000000000E+00 0. -1.
         11    1    1    2    0    0  0.21621646258E+02  0.49121272745E+01 -0.49736200715E+02  0.54454698997E+02  0.00000000000E+00 0.  1.
<mgrwt>
<rscale>  0 0.12156217E+03</rscale>
<asrwt>0</asrwt>
<pdfrwt beam="1">  1        1 0.19738347E-01 0.13088776E+03</pdfrwt>
<pdfrwt beam="2">  1       -1 0.16096166E-01 0.13088776E+03</pdfrwt>
<totfact> 0.70464110E+03</totfact>
</mgrwt>
</event>
<event>
 6    1  0.4705246E-006  0.1355951E+03  0.7546771E-02  0.1231613E+00
          1   -1    0    0  501    0  0.00000000000E+00  0.00000000000E+00  0.16202213853E+03  0.16202213853E+03  0.00000000000E+00 0. -1.
         -1   -1    0    0    0  501 -0.00000000000E+00 -0.00000000000E+00 -0.93693883675E+02  0.93693883675E+02  0.00000000000E+00 0.  1.
          5    1    1    2  502    0 -0.22678152535E+02  0.28797411743E+02 -0.62397561818E+01  0.37478181422E+02  0.47000000000E+01 0.  1.
         -5    1    1    2    0  502  0.35793366892E+02 -0.79674961088E+02  0.71640784523E+02  0.11306527559E+03  0.47000000000E+01 0.  1.
        -11    1    1    2    0    0 -0.19390360956E+02  0.75377647834E+02 -0.66811152226E+01  0.78117944108E+02  0.00000000000E+00 0.  1.
         11    1    1    2    0    0  0.62751465997E+01 -0.24500098490E+02  0.96083417324E+01  0.27054621079E+02  0.00000000000E+00 0. -1.
<mgrwt>
<rscale>  0 0.12723793E+03</rscale>
<asrwt>0</asrwt>
<pdfrwt beam="1">  1        1 0.24926483E-01 0.13559513E+03</pdfrwt>
<pdfrwt beam="2">  1       -1 0.14414444E-01 0.13559513E+03</pdfrwt>
<totfact> 0.62546812E+03</totfact>
</mgrwt>
</event>
<event>
 6    1  0.4705246E-006  0.1830442E+03  0.7546771E-02  0.1170599E+00
          1   -1    0    0  501    0  0.00000000000E+00  0.00000000000E+00  0.65524053845E+02  0.65524053845E+02  0.00000000000E+00 0. -1.
         -1   -1    0    0    0  501 -0.00000000000E+00 -0.00000000000E+00 -0.46716677180E+03  0.46716677180E+03  0.00000000000E+00 0.  1.
          5    1    1    2  502    0  0.97258297427E+02  0.48566537079E+01 -0.16032214487E+03  0.18763806554E+03  0.47000000000E+01 0.  1.
         -5    1    1    2    0  502  0.28756883545E+02 -0.49589702282E+02 -0.28671855851E+01  0.57588259887E+02  0.47000000000E+01 0.  1.
        -11    1    1    2    0    0 -0.13549637120E+03  0.55247358946E+02 -0.21964052072E+03  0.26391948700E+03  0.00000000000E+00 0. -1.
         11    1    1    2    0    0  0.94811902288E+01 -0.10514310372E+02 -0.18812866785E+02  0.23545013218E+02  0.00000000000E+00 0.  1.
<mgrwt>
<rscale>  0 0.17714080E+03</rscale>
<asrwt>0</asrwt>
<pdfrwt beam="1">  1        1 0.10080624E-01 0.18304424E+03</pdfrwt>
<pdfrwt beam="2">  1       -1 0.71871810E-01 0.18304424E+03</pdfrwt>
<totfact> 0.12766937E+03</totfact>
</mgrwt>
</event>
<event>
 6    1  0.4705246E-006  0.1509219E+03  0.7546771E-02  0.1208263E+00
          2   -1    0    0  501    0  0.00000000000E+00  0.00000000000E+00  0.30362019430E+03  0.30362019430E+03  0.00000000000E+00 0. -1.
         -2   -1    0    0    0  501 -0.00000000000E+00 -0.00000000000E+00 -0.80690964559E+02  0.80690964559E+02  0.00000000000E+00 0.  1.
          5    1    1    2  502    0 -0.11338839655E+02 -0.89066752357E+02  0.69079010912E+02  0.11338190071E+03  0.47000000000E+01 0. -1.
         -5    1    1    2    0  502  0.33460166672E+02  0.74377468263E+01  0.14166975203E+03  0.14583316314E+03  0.47000000000E+01 0. -1.
        -11    1    1    2    0    0  0.49265771421E+01  0.87668941945E+02 -0.11609849802E+02  0.88571457911E+02  0.00000000000E+00 0.  1.
         11    1    1    2    0    0 -0.27047904159E+02 -0.60399364142E+01  0.23790316607E+02  0.36524637103E+02  0.00000000000E+00 0. -1.
<mgrwt>
<rscale>  0 0.14383280E+03</rscale>
<asrwt>0</asrwt>
<pdfrwt beam="1">  1        2 0.46710798E-01 0.15092186E+03</pdfrwt>
<pdfrwt beam="2">  1       -2 0.12413995E-01 0.15092186E+03</pdfrwt>
<totfact> 0.48725058E+03</totfact>
</mgrwt>
</event>
<event>
 6    1  0.4705246E-006  0.5042820E+03  0.7546771E-02  0.1012667E+00
         -2   -1    0    0    0  501 -0.00000000000E+00  0.00000000000E+00  0.59910839154E+02  0.59910839154E+02  0.00000000000E+00 0.  1.
          2   -1    0    0  501    0  0.00000000000E+00 -0.00000000000E+00 -0.10611615604E+04  0.10611615604E+04  0.00000000000E+00 0. -1.
          5    1    1    2  502    0 -0.15608203603E+03  0.21252321410E+02 -0.51566561986E+03  0.53920903613E+03  0.47000000000E+01 0. -1.
         -5    1    1    2    0  502 -0.46487238745E+01 -0.26830915987E+01 -0.35765680742E+03  0.35772795740E+03  0.47000000000E+01 0. -1.
        -11    1    1    2    0    0  0.14042551835E+03  0.11828654910E+02 -0.74515200105E+02  0.15941065939E+03  0.00000000000E+00 0.  1.
         11    1    1    2    0    0  0.20305241551E+02 -0.30397884721E+02 -0.53413093835E+02  0.64724746604E+02  0.00000000000E+00 0. -1.
<mgrwt>
<rscale>  0 0.50428198E+03</rscale>
<asrwt>0</asrwt>
<pdfrwt beam="2">  1        2 0.16325563E+00 0.50428198E+03</pdfrwt>
<pdfrwt beam="1">  1       -2 0.92170521E-02 0.50428198E+03</pdfrwt>
<totfact> 0.18187078E+03</totfact>
</mgrwt>
</event>
<event>
 6    1  0.4705246E-006  0.1875626E+03  0.7546771E-02  0.1178480E+00
          2   -1    0    0  501    0  0.00000000000E+00  0.00000000000E+00  0.76225952909E+03  0.76225952909E+03  0.00000000000E+00 0. -1.
         -2   -1    0    0    0  501 -0.00000000000E+00 -0.00000000000E+00 -0.38451356699E+02  0.38451356699E+02  0.00000000000E+00 0.  1.
          5    1    1    2  502    0 -0.19838258883E+02 -0.52755706863E+02  0.57733667802E+03  0.58010038003E+03  0.47000000000E+01 0. -1.
         -5    1    1    2    0  502  0.29265966267E+01 -0.31873584267E+02  0.63320120572E+01  0.32964749635E+02  0.47000000000E+01 0.  1.
        -11    1    1    2    0    0 -0.93750782008E+01  0.87819835555E+02  0.70066631850E+02  0.11273663338E+03  0.00000000000E+00 0.  1.
         11    1    1    2    0    0  0.26286740457E+02 -0.31905444249E+01  0.70072850469E+02  0.74909122745E+02  0.00000000000E+00 0. -1.
<mgrwt>
<rscale>  0 0.16939561E+03</rscale>
<asrwt>0</asrwt>
<pdfrwt beam="1">  1        2 0.11727069E+00 0.18756256E+03</pdfrwt>
<pdfrwt beam="2">  1       -2 0.59155939E-02 0.18756256E+03</pdfrwt>
<totfact> 0.56088036E+03</totfact>
</mgrwt>
</event>
<event>
 6    1  0.4705246E-006  0.1657109E+03  0.7546771E-02  0.1189691E+00
         -2   -1    0    0    0  501 -0.00000000000E+00  0.00000000000E+00  0.11856031461E+02  0.11856031461E+02  0.00000000000E+00 0.  1.
          2   -1    0    0  501    0  0.00000000000E+00 -0.00000000000E+00 -0.21186097850E+04  0.21186097850E+04  0.00000000000E+00 0. -1.
          5    1    1    2  502    0  0.23693725692E+02 -0.74912110623E+02 -0.79723836097E+03  0.80111441826E+03  0.47000000000E+01 0.  1.
         -5    1    1    2    0  502  0.77188890381E+02  0.34241935931E+02 -0.60545027389E+03  0.61132868338E+03  0.47000000000E+01 0.  1.
        -11    1    1    2    0    0 -0.10039784504E+03  0.59402618016E+02 -0.65853049859E+03  0.66878308583E+03  0.00000000000E+00 0. -1.
         11    1    1    2    0    0 -0.48477103491E+00 -0.18732443324E+02 -0.45534620111E+02  0.49239629004E+02  0.00000000000E+00 0.  1.
<mgrwt>
<rscale>  0 0.15912209E+03</rscale>
<asrwt>0</asrwt>
<pdfrwt beam="2">  1        2 0.32593997E+00 0.16571092E+03</pdfrwt>
<pdfrwt beam="1">  1       -2 0.18240048E-02 0.16571092E+03</pdfrwt>
<totfact> 0.56719740E+03</totfact>
</mgrwt>
</event>
<event>
 6    1  0.4705246E-006  0.1462436E+03  0.7546771E-02  0.1214848E+00
         -2   -1    0    0    0  501 -0.00000000000E+00  0.00000000000E+00  0.10098930183E+03  0.10098930183E+03  0.00000000000E+00 0.  1.
          2   -1    0    0  501    0  0.00000000000E+00 -0.00000000000E+00 -0.26839324046E+03  0.26839324046E+03  0.00000000000E+00 0. -1.
          5    1    1    2  502    0  0.13923904725E+02  0.80995983885E+02 -0.64170656849E+02  0.10437522565E+03  0.47000000000E+01 0.  1.
         -5    1    1    2    0  502 -0.44893690519E+02 -0.11704211540E+02 -0.13423433886E+03  0.14210341215E+03  0.47000000000E+01 0.  1.
        -11    1    1    2    0    0  0.10220086850E+02 -0.25029217942E+02 -0.32814063577E+02  0.42516757808E+02  0.00000000000E+00 0. -1.
         11    1    1    2    0    0  0.20749698944E+02 -0.44262554402E+02  0.63815120656E+02  0.80387146689E+02  0.00000000000E+00 0.  1.
<mgrwt>
<rscale>  0 0.13887697E+03</rscale>
<asrwt>0</asrwt>
<pdfrwt beam="2">  1        2 0.41291267E-01 0.14624355E+03</pdfrwt>
<pdfrwt beam="1">  1       -2 0.15536816E-01 0.14624355E+03</pdfrwt>
<totfact> 0.38520163E+03</totfact>
</mgrwt>
</event>
<event>
 6    1  0.4705246E-006  0.1506383E+03  0.7546771E-02  0.1219221E+00
         -1   -1    0    0    0  501 -0.00000000000E+00  0.00000000000E+00  0.28846873849E+02  0.28846873849E+02  0.00000000000E+00 0.  1.
          1   -1    0    0  501    0  0.00000000000E+00 -0.00000000000E+00 -0.86430631789E+03  0.86430631789E+03  0.00000000000E+00 0. -1.
          5    1    1    2  502    0  0.34758827712E+02 -0.81078214849E+02 -0.42907173579E+03  0.43807133835E+03  0.47000000000E+01 0. -1.
         -5    1    1    2    0  502 -0.47158168387E+02  0.40411022805E+02 -0.31191554851E+03  0.31807285803E+03  0.47000000000E+01 0.  1.
        -11    1    1    2    0    0 -0.28985773116E+02 -0.12733609996E+02 -0.29249142335E+02  0.43102577579E+02  0.00000000000E+00 0.  1.
         11    1    1    2    0    0  0.41385113790E+02  0.53400802040E+02 -0.65223017403E+02  0.93906417785E+02  0.00000000000E+00 0. -1.
<mgrwt>
<rscale>  0 0.13570992E+03</rscale>
<asrwt>0</asrwt>
<pdfrwt beam="2">  1        1 0.13297017E+00 0.15063828E+03</pdfrwt>
<pdfrwt beam="1">  1       -1 0.44379816E-02 0.15063828E+03</pdfrwt>
<totfact> 0.42075809E+03</totfact>
</mgrwt>
</event>
<event>
 6    1  0.4705246E-006  0.1369953E+03  0.7546771E-02  0.1230688E+00
         -2   -1    0    0    0  501 -0.00000000000E+00  0.00000000000E+00  0.25899372063E+02  0.25899372063E+02  0.00000000000E+00 0.  1.
          2   -1    0    0  501    0  0.00000000000E+00 -0.00000000000E+00 -0.58468000994E+03  0.58468000994E+03  0.00000000000E+00 0. -1.
          5    1    1    2  502    0 -0.15843371333E+02 -0.56010214379E+02 -0.75099770709E+02  0.95132655227E+02  0.47000000000E+01 0.  1.
         -5    1    1    2    0  502 -0.35715172473E+02  0.33978810558E+02 -0.30301248140E+03  0.30703222469E+03  0.47000000000E+01 0.  1.
        -11    1    1    2    0    0  0.35821331902E+02  0.55595293014E+02 -0.10388178701E+03  0.12314800079E+03  0.00000000000E+00 0. -1.
         11    1    1    2    0    0  0.15737211904E+02 -0.33563889194E+02 -0.76786598756E+02  0.85266501306E+02  0.00000000000E+00 0.  1.
<mgrwt>
<rscale>  0 0.12784532E+03</rscale>
<asrwt>0</asrwt>
<pdfrwt beam="2">  1        2 0.89950769E-01 0.13699531E+03</pdfrwt>
<pdfrwt beam="1">  1       -2 0.39845189E-02 0.13699531E+03</pdfrwt>
<totfact> 0.13660991E+04</totfact>
</mgrwt>
</event>
<event>
 6    1  0.4705246E-006  0.1383706E+03  0.7546771E-02  0.1226560E+00
          1   -1    0    0  501    0  0.00000000000E+00  0.00000000000E+00  0.42560824438E+03  0.42560824438E+03  0.00000000000E+00 0. -1.
         -1   -1    0    0    0  501 -0.00000000000E+00 -0.00000000000E+00 -0.40391898519E+02  0.40391898519E+02  0.00000000000E+00 0.  1.
          5    1    1    2  502    0  0.31721698161E+02 -0.76195544476E+02  0.16449907140E+03  0.18410339927E+03  0.47000000000E+01 0. -1.
         -5    1    1    2    0  502 -0.51189221689E+02  0.21068803530E+02  0.12269816084E+03  0.13468912196E+03  0.47000000000E+01 0. -1.
        -11    1    1    2    0    0 -0.24845934747E+00  0.61786821617E+02  0.17752361310E+02  0.64287007938E+02  0.00000000000E+00 0.  1.
         11    1    1    2    0    0  0.19715982876E+02 -0.66600806710E+01  0.80266752309E+02  0.82920613731E+02  0.00000000000E+00 0. -1.
<mgrwt>
<rscale>  0 0.13060560E+03</rscale>
<asrwt>0</asrwt>
<pdfrwt beam="1">  1        1 0.65478188E-01 0.13837059E+03</pdfrwt>
<pdfrwt beam="2">  1       -1 0.62141385E-02 0.13837059E+03</pdfrwt>
<totfact> 0.67815863E+03</totfact>
</mgrwt>
</event>
<event>
 6    1  0.4705246E-006  0.1414382E+03  0.7546771E-02  0.1221325E+00
          3   -1    0    0  501    0  0.00000000000E+00  0.00000000000E+00  0.32299593022E+03  0.32299593022E+03  0.00000000000E+00 0. -1.
         -3   -1    0    0    0  501 -0.00000000000E+00 -0.00000000000E+00 -0.50982643583E+02  0.50982643583E+02  0.00000000000E+00 0.  1.
          5    1    1    2  502    0 -0.51910395131E+02  0.44365605170E+02  0.83531968325E+02  0.10799386916E+03  0.47000000000E+01 0.  1.
         -5    1    1    2    0  502  0.70078244307E+02  0.19268149117E+02  0.78332151973E+02  0.10695904790E+03  0.47000000000E+01 0.  1.
        -11    1    1    2    0    0  0.29708398567E+02 -0.48833693377E+02  0.30142869467E+02  0.64621290099E+02  0.00000000000E+00 0.  1.
         11    1    1    2    0    0 -0.47876247744E+02 -0.14800060910E+02  0.80006296874E+02  0.94404366638E+02  0.00000000000E+00 0. -1.
<mgrwt>
<rscale>  0 0.13421988E+03</rscale>
<asrwt>0</asrwt>
<pdfrwt beam="1">  1        3 0.49691681E-01 0.14143820E+03</pdfrwt>
<pdfrwt beam="2">  1       -3 0.78434838E-02 0.14143820E+03</pdfrwt>
<totfact> 0.10349550E+03</totfact>
</mgrwt>
</event>
<event>
 6    1  0.4705246E-006  0.1393694E+03  0.7546771E-02  0.1225895E+00
         -1   -1    0    0    0  501 -0.00000000000E+00  0.00000000000E+00  0.46195372879E+03  0.46195372879E+03  0.00000000000E+00 0.  1.
          1   -1    0    0  501    0  0.00000000000E+00 -0.00000000000E+00 -0.42430513790E+02  0.42430513790E+02  0.00000000000E+00 0. -1.
          5    1    1    2  502    0 -0.35503640276E+02  0.14826727477E+02  0.12388005712E+03  0.12980253800E+03  0.47000000000E+01 0. -1.
         -5    1    1    2    0  502  0.20142628962E+02  0.44866671107E+02 -0.97224376354E+01  0.50352353186E+02  0.47000000000E+01 0. -1.
        -11    1    1    2    0    0 -0.26501121558E+02  0.68568398846E+01  0.49598746818E+02  0.56651225785E+02  0.00000000000E+00 0. -1.
         11    1    1    2    0    0  0.41862132872E+02 -0.66550238469E+02  0.25576684869E+03  0.26757812560E+03  0.00000000000E+00 0.  1.
<mgrwt>
<rscale>  0 0.13105744E+03</rscale>
<asrwt>0</asrwt>
<pdfrwt beam="2">  1        1 0.65277717E-02 0.13936938E+03</pdfrwt>
<pdfrwt beam="1">  1       -1 0.71069801E-01 0.13936938E+03</pdfrwt>
<totfact> 0.23197005E+03</totfact>
</mgrwt>
</event>
<event>
 6    1  0.4705246E-006  0.1388175E+03  0.7546771E-02  0.1226397E+00
          2   -1    0    0  501    0  0.00000000000E+00  0.00000000000E+00  0.24602764061E+03  0.24602764061E+03  0.00000000000E+00 0. -1.
         -2   -1    0    0    0  501 -0.00000000000E+00 -0.00000000000E+00 -0.14076256458E+03  0.14076256458E+03  0.00000000000E+00 0.  1.
          5    1    1    2  502    0  0.75131096161E+02  0.58814767530E+02  0.15336049582E+03  0.18068035357E+03  0.47000000000E+01 0.  1.
         -5    1    1    2    0  502 -0.18760140402E+02 -0.37192615376E+02  0.45835876993E+02  0.62114822113E+02  0.47000000000E+01 0.  1.
        -11    1    1    2    0    0 -0.24516142995E+02 -0.52735732566E+02 -0.76686226236E+02  0.96243836431E+02  0.00000000000E+00 0.  1.
         11    1    1    2    0    0 -0.31854812764E+02  0.31113580413E+02 -0.17245070543E+02  0.47751193078E+02  0.00000000000E+00 0. -1.
<mgrwt>
<rscale>  0 0.13071605E+03</rscale>
<asrwt>0</asrwt>
<pdfrwt beam="1">  1        2 0.37850406E-01 0.13881751E+03</pdfrwt>
<pdfrwt beam="2">  1       -2 0.21655779E-01 0.13881751E+03</pdfrwt>
<totfact> 0.24168352E+03</totfact>
</mgrwt>
</event>
<event>
 6    1  0.4705246E-006  0.2859975E+03  0.7546771E-02  0.1092458E+00
          2   -1    0    0  501    0  0.00000000000E+00  0.00000000000E+00  0.10729083837E+04  0.10729083837E+04  0.00000000000E+00 0. -1.
         -2   -1    0    0    0  501 -0.00000000000E+00 -0.00000000000E+00 -0.19059070715E+02  0.19059070715E+02  0.00000000000E+00 0.  1.
          5    1    1    2  502    0 -0.31601740977E+02  0.78998259619E+01  0.26744747380E+03  0.26946487438E+03  0.47000000000E+01 0.  1.
         -5    1    1    2    0  502  0.11059052146E+03 -0.43191292466E+00  0.49464758537E+03  0.50688141976E+03  0.47000000000E+01 0.  1.
        -11    1    1    2    0    0 -0.38751629193E+02  0.35180414089E+02  0.19997975080E+03  0.20671538654E+03  0.00000000000E+00 0. -1.
         11    1    1    2    0    0 -0.40237151291E+02 -0.42648327126E+02  0.91774503036E+02  0.10890577376E+03  0.00000000000E+00 0.  1.
<mgrwt>
<rscale>  0 0.28599746E+03</rscale>
<asrwt>0</asrwt>
<pdfrwt beam="1">  1        2 0.16506278E+00 0.28599746E+03</pdfrwt>
<pdfrwt beam="2">  1       -2 0.29321656E-02 0.28599746E+03</pdfrwt>
<totfact> 0.10385832E+04</totfact>
</mgrwt>
</event>
<event>
 6    1  0.4705246E-006  0.1260802E+03  0.7546771E-02  0.1254269E+00
          4   -1    0    0  501    0  0.00000000000E+00  0.00000000000E+00  0.59242159482E+03  0.59242159482E+03  0.00000000000E+00 0. -1.
         -4   -1    0    0    0  501 -0.00000000000E+00 -0.00000000000E+00 -0.25745571171E+02  0.25745571171E+02  0.00000000000E+00 0.  1.
          5    1    1    2  502    0 -0.51828794030E+02  0.35078987707E+02  0.16473288020E+03  0.17628321272E+03  0.47000000000E+01 0.  1.
         -5    1    1    2    0  502  0.50418259342E+02 -0.18686940781E+02  0.32319307037E+03  0.32766912178E+03  0.47000000000E+01 0.  1.
        -11    1    1    2    0    0  0.12548459711E+01 -0.37913076953E+02  0.60714172210E+01  0.38416638967E+02  0.00000000000E+00 0.  1.
         11    1    1    2    0    0  0.15568871691E+00  0.21521030027E+02  0.72678655855E+02  0.75798192520E+02  0.00000000000E+00 0. -1.
<mgrwt>
<rscale>  0 0.11347355E+03</rscale>
<asrwt>0</asrwt>
<pdfrwt beam="1">  1        4 0.91141774E-01 0.12608022E+03</pdfrwt>
<pdfrwt beam="2">  1       -4 0.39608575E-02 0.12608022E+03</pdfrwt>
<totfact> 0.60157273E+02</totfact>
</mgrwt>
</event>
<event>
 6    1  0.4705246E-006  0.1809803E+03  0.7546771E-02  0.1172463E+00
         -2   -1    0    0    0  501 -0.00000000000E+00  0.00000000000E+00  0.21466713528E+02  0.21466713528E+02  0.00000000000E+00 0.  1.
          2   -1    0    0  501    0  0.00000000000E+00 -0.00000000000E+00 -0.13481712898E+04  0.13481712898E+04  0.00000000000E+00 0. -1.
          5    1    1    2  502    0 -0.11536911684E+03  0.21257407008E+02 -0.37024755577E+03  0.38841633980E+03  0.47000000000E+01 0. -1.
         -5    1    1    2    0  502 -0.11566210071E+02 -0.53152256804E+02 -0.34934749471E+03  0.35358832232E+03  0.47000000000E+01 0. -1.
        -11    1    1    2    0    0  0.41664690713E+02 -0.15277005961E+01 -0.60936475197E+02  0.73834506369E+02  0.00000000000E+00 0.  1.
         11    1    1    2    0    0  0.85270636196E+02  0.33422550393E+02 -0.54617305056E+03  0.55379883481E+03  0.00000000000E+00 0. -1.
<mgrwt>
<rscale>  0 0.17526810E+03</rscale>
<asrwt>0</asrwt>
<pdfrwt beam="2">  1        2 0.20741102E+00 0.18098034E+03</pdfrwt>
<pdfrwt beam="1">  1       -2 0.33025705E-02 0.18098034E+03</pdfrwt>
<totfact> 0.59861801E+03</totfact>
</mgrwt>
</event>
<event>
 6    1  0.5174710E-006  0.2183748E+03  0.7546771E-02  0.1138761E+00
          1   -1    0    0  501    0  0.00000000000E+00  0.00000000000E+00  0.16710061656E+04  0.16710061656E+04  0.00000000000E+00 0. -1.
         -1   -1    0    0    0  501 -0.00000000000E+00 -0.00000000000E+00 -0.26328893308E+02  0.26328893308E+02  0.00000000000E+00 0.  1.
          5    1    1    2  502    0  0.10518334141E+02  0.56194354984E+01  0.30281933686E+01  0.13170928726E+02  0.47000000000E+01 0.  1.
         -5    1    1    2    0  502  0.92665610260E+02  0.14071741918E+03  0.92236021571E+03  0.93763466494E+03  0.47000000000E+01 0.  1.
        -11    1    1    2    0    0 -0.93339536747E+02 -0.68382006786E+02  0.33884463444E+03  0.35805593733E+03  0.00000000000E+00 0. -1.
         11    1    1    2    0    0 -0.98444076540E+01 -0.77954847897E+02  0.38044422881E+03  0.38847352794E+03  0.00000000000E+00 0.  1.
<mgrwt>
<rscale>  0 0.21358171E+03</rscale>
<asrwt>0</asrwt>
<pdfrwt beam="1">  1        1 0.25707779E+00 0.21837484E+03</pdfrwt>
<pdfrwt beam="2">  1       -1 0.40506003E-02 0.21837484E+03</pdfrwt>
<totfact> 0.13364217E+03</totfact>
</mgrwt>
</event>
<event>
 6    1  0.4705246E-006  0.1983882E+03  0.7546771E-02  0.1155601E+00
          2   -1    0    0  501    0  0.00000000000E+00  0.00000000000E+00  0.73411956124E+03  0.73411956124E+03  0.00000000000E+00 0. -1.
         -2   -1    0    0    0  501 -0.00000000000E+00 -0.00000000000E+00 -0.56847397840E+02  0.56847397840E+02  0.00000000000E+00 0.  1.
          5    1    1    2  502    0 -0.59606910541E+02  0.15952286108E+02  0.58222640117E+02  0.84967199780E+02  0.47000000000E+01 0. -1.
         -5    1    1    2    0  502 -0.66186481729E+02  0.72981068213E+02  0.44826029225E+03  0.45898394992E+03  0.47000000000E+01 0. -1.
        -11    1    1    2    0    0  0.17473369472E+02 -0.92246833398E+01 -0.96353947651E+01  0.21983044733E+02  0.00000000000E+00 0.  1.
         11    1    1    2    0    0  0.10832002280E+03 -0.79708670981E+02  0.18042462580E+03  0.22503276464E+03  0.00000000000E+00 0. -1.
<mgrwt>
<rscale>  0 0.19320660E+03</rscale>
<asrwt>0</asrwt>
<pdfrwt beam="1">  1        2 0.11294146E+00 0.19838824E+03</pdfrwt>
<pdfrwt beam="2">  1       -2 0.87457541E-02 0.19838824E+03</pdfrwt>
<totfact> 0.32148911E+03</totfact>
</mgrwt>
</event>
<event>
 6    1  0.4705246E-006  0.1348096E+03  0.7546771E-02  0.1233661E+00
          1   -1    0    0  501    0  0.00000000000E+00  0.00000000000E+00  0.50297792188E+03  0.50297792188E+03  0.00000000000E+00 0. -1.
         -1   -1    0    0    0  501 -0.00000000000E+00 -0.00000000000E+00 -0.28037331702E+02  0.28037331702E+02  0.00000000000E+00 0.  1.
          5    1    1    2  502    0 -0.46211962799E+02  0.52597618860E+02  0.25738806671E+03  0.26678223685E+03  0.47000000000E+01 0. -1.
         -5    1    1    2    0  502 -0.16684544257E+01 -0.36594403045E+02  0.20892765987E+02  0.42432673084E+02  0.47000000000E+01 0. -1.
        -11    1    1    2    0    0  0.53164309373E+02  0.13353349676E+02  0.17884541348E+03  0.18705731117E+03  0.00000000000E+00 0.  1.
         11    1    1    2    0    0 -0.52838921482E+01 -0.29356565491E+02  0.17814344005E+02  0.34743032481E+02  0.00000000000E+00 0. -1.
<mgrwt>
<rscale>  0 0.12590541E+03</rscale>
<asrwt>0</asrwt>
<pdfrwt beam="1">  1        1 0.77381212E-01 0.13480964E+03</pdfrwt>
<pdfrwt beam="2">  1       -1 0.43134360E-02 0.13480964E+03</pdfrwt>
<totfact> 0.93793857E+03</totfact>
</mgrwt>
</event>
<event>
 6    1  0.4705246E-006  0.1389346E+03  0.7546771E-02  0.1227148E+00
          2   -1    0    0  501    0  0.00000000000E+00  0.00000000000E+00  0.58834232406E+02  0.58834232406E+02  0.00000000000E+00 0. -1.
         -2   -1    0    0    0  501 -0.00000000000E+00 -0.00000000000E+00 -0.30564081947E+03  0.30564081947E+03  0.00000000000E+00 0.  1.
          5    1    1    2  502    0  0.61683635075E+02  0.26454098480E+01 -0.76375806458E+01  0.62388233405E+02  0.47000000000E+01 0.  1.
         -5    1    1    2    0  502 -0.43747497299E+02  0.55298345817E+02 -0.57272933622E+02  0.90961692463E+02  0.47000000000E+01 0.  1.
        -11    1    1    2    0    0 -0.18797520405E+02 -0.12138843081E+02  0.11766506934E+01  0.22407204011E+02  0.00000000000E+00 0. -1.
         11    1    1    2    0    0  0.86138262955E+00 -0.45804912585E+02 -0.18307272349E+03  0.18871792200E+03  0.00000000000E+00 0.  1.
<mgrwt>
<rscale>  0 0.13020770E+03</rscale>
<asrwt>0</asrwt>
<pdfrwt beam="1">  1        2 0.90514205E-02 0.13893461E+03</pdfrwt>
<pdfrwt beam="2">  1       -2 0.47021664E-01 0.13893461E+03</pdfrwt>
<totfact> 0.30299992E+03</totfact>
</mgrwt>
</event>
<event>
 6    1  0.4705246E-006  0.1739757E+03  0.7546771E-02  0.1179921E+00
         -2   -1    0    0    0  501 -0.00000000000E+00  0.00000000000E+00  0.21866246315E+02  0.21866246315E+02  0.00000000000E+00 0.  1.
          2   -1    0    0  501    0  0.00000000000E+00 -0.00000000000E+00 -0.13444731214E+04  0.13444731214E+04  0.00000000000E+00 0. -1.
          5    1    1    2  502    0  0.19707386114E+02 -0.59826751100E+01 -0.15513546333E+02  0.26209417940E+02  0.47000000000E+01 0. -1.
         -5    1    1    2    0  502  0.10090695018E+03 -0.37582609228E+01 -0.90254662346E+03  0.90818986707E+03  0.47000000000E+01 0. -1.
        -11    1    1    2    0    0 -0.11704946245E+03  0.37762054246E+02 -0.32158461981E+03  0.34430105591E+03  0.00000000000E+00 0.  1.
         11    1    1    2    0    0 -0.35648738445E+01 -0.28021118214E+02 -0.82962085506E+02  0.87639026826E+02  0.00000000000E+00 0. -1.
<mgrwt>
<rscale>  0 0.16802718E+03</rscale>
<asrwt>0</asrwt>
<pdfrwt beam="2">  1        2 0.20684211E+00 0.17397571E+03</pdfrwt>
<pdfrwt beam="1">  1       -2 0.33640364E-02 0.17397571E+03</pdfrwt>
<totfact> 0.58448715E+03</totfact>
</mgrwt>
</event>
<event>
 6    1  0.4705246E-006  0.2694361E+03  0.7546771E-02  0.1126219E+00
          1   -1    0    0  501    0  0.00000000000E+00  0.00000000000E+00  0.13003145264E+04  0.13003145264E+04  0.00000000000E+00 0. -1.
         -1   -1    0    0    0  501 -0.00000000000E+00 -0.00000000000E+00 -0.33146306443E+02  0.33146306443E+02  0.00000000000E+00 0.  1.
          5    1    1    2  502    0 -0.27898478341E+02 -0.14035293364E+03  0.73615817922E+03  0.74995214908E+03  0.47000000000E+01 0. -1.
         -5    1    1    2    0  502  0.78527138505E+02  0.42935532306E+02  0.13598423484E+03  0.16286120944E+03  0.47000000000E+01 0.  1.
        -11    1    1    2    0    0  0.23923186494E+02  0.98258040160E+01  0.11591020950E+03  0.11876043930E+03  0.00000000000E+00 0. -1.
         11    1    1    2    0    0 -0.74551846658E+02  0.87591597322E+02  0.27911559641E+03  0.30188703504E+03  0.00000000000E+00 0.  1.
<mgrwt>
<rscale>  0 0.23059896E+03</rscale>
<asrwt>0</asrwt>
<pdfrwt beam="1">  1        1 0.20004835E+00 0.26943615E+03</pdfrwt>
<pdfrwt beam="2">  1       -1 0.50994328E-02 0.26943615E+03</pdfrwt>
<totfact> 0.16667582E+03</totfact>
</mgrwt>
</event>
<event>
 6    1  0.4705246E-006  0.1281194E+03  0.7546771E-02  0.1254621E+00
         -2   -1    0    0    0  501 -0.00000000000E+00  0.00000000000E+00  0.71229227376E+02  0.71229227376E+02  0.00000000000E+00 0. -1.
          2   -1    0    0  501    0  0.00000000000E+00 -0.00000000000E+00 -0.15016491158E+03  0.15016491158E+03  0.00000000000E+00 0.  1.
          5    1    1    2  502    0  0.37384364081E+02 -0.59094527579E+02 -0.22817610956E+02  0.73705408467E+02  0.47000000000E+01 0.  1.
         -5    1    1    2    0  502 -0.46771692803E+02  0.32585850068E+02 -0.33107047933E+02  0.66087786278E+02  0.47000000000E+01 0.  1.
        -11    1    1    2    0    0  0.23247544132E+02 -0.19423799110E+02 -0.80776151399E+01  0.31352514196E+02  0.00000000000E+00 0.  1.
         11    1    1    2    0    0 -0.13860215410E+02  0.45932476621E+02 -0.14933410178E+02  0.50248430019E+02  0.00000000000E+00 0. -1.
<mgrwt>
<rscale>  0 0.11327566E+03</rscale>
<asrwt>0</asrwt>
<pdfrwt beam="2">  1        2 0.23102294E-01 0.12811936E+03</pdfrwt>
<pdfrwt beam="1">  1       -2 0.10958343E-01 0.12811936E+03</pdfrwt>
<totfact> 0.12565856E+04</totfact>
</mgrwt>
</event>
<event>
 6    1  0.4705246E-006  0.1415655E+03  0.7546771E-02  0.1221753E+00
         -2   -1    0    0    0  501 -0.00000000000E+00  0.00000000000E+00  0.57578385260E+02  0.57578385260E+02  0.00000000000E+00 0. -1.
          2   -1    0    0  501    0  0.00000000000E+00 -0.00000000000E+00 -0.28646527950E+03  0.28646527950E+03  0.00000000000E+00 0.  1.
          5    1    1    2  502    0  0.70737420753E+02 -0.51691563331E+02 -0.72701259213E+02  0.11394456330E+03  0.47000000000E+01 0. -1.
         -5    1    1    2    0  502 -0.43011985760E+01  0.50486629305E+02 -0.75095709397E+02  0.90713039954E+02  0.47000000000E+01 0. -1.
        -11    1    1    2    0    0 -0.23466973904E+02 -0.43207214709E+02 -0.21933142310E+02  0.53838879992E+02  0.00000000000E+00 0. -1.
         11    1    1    2    0    0 -0.42969248273E+02  0.44412148735E+02 -0.59156783321E+02  0.85547181515E+02  0.00000000000E+00 0.  1.
<mgrwt>
<rscale>  0 0.13391931E+03</rscale>
<asrwt>0</asrwt>
<pdfrwt beam="2">  1        2 0.44071582E-01 0.14156550E+03</pdfrwt>
<pdfrwt beam="1">  1       -2 0.88582129E-02 0.14156550E+03</pdfrwt>
<totfact> 0.88010206E+03</totfact>
</mgrwt>
</event>
<event>
 6    1  0.4705246E-006  0.1274942E+03  0.7546771E-02  0.1245192E+00
          2   -1    0    0  501    0  0.00000000000E+00  0.00000000000E+00  0.18303381133E+04  0.18303381133E+04  0.00000000000E+00 0. -1.
         -2   -1    0    0    0  501 -0.00000000000E+00 -0.00000000000E+00 -0.88094510209E+01  0.88094510209E+01  0.00000000000E+00 0.  1.
          5    1    1    2  502    0  0.22294811007E+02  0.42013338392E+02  0.33851646814E+03  0.34187376091E+03  0.47000000000E+01 0. -1.
         -5    1    1    2    0  502 -0.43308496368E+02 -0.55709025753E+02  0.11057405157E+04  0.11079996839E+04  0.47000000000E+01 0. -1.
        -11    1    1    2    0    0 -0.12006282471E+02 -0.35020574516E+02  0.15152998367E+03  0.15598694628E+03  0.00000000000E+00 0.  1.
         11    1    1    2    0    0  0.33019967832E+02  0.48716261877E+02  0.22574169480E+03  0.23328717328E+03  0.00000000000E+00 0. -1.
<mgrwt>
<rscale>  0 0.11873911E+03</rscale>
<asrwt>0</asrwt>
<pdfrwt beam="1">  1        2 0.28159018E+00 0.12749420E+03</pdfrwt>
<pdfrwt beam="2">  1       -2 0.13553016E-02 0.12749420E+03</pdfrwt>
<totfact> 0.12169889E+04</totfact>
</mgrwt>
</event>
<event>
 6    1  0.4705246E-006  0.1262322E+03  0.7546771E-02  0.1247032E+00
         -2   -1    0    0    0  501 -0.00000000000E+00  0.00000000000E+00  0.39062677951E+02  0.39062677951E+02  0.00000000000E+00 0.  1.
          2   -1    0    0  501    0  0.00000000000E+00 -0.00000000000E+00 -0.31456474613E+03  0.31456474613E+03  0.00000000000E+00 0. -1.
          5    1    1    2  502    0 -0.67751146279E+02  0.93006050908E+01 -0.15073569252E+03  0.16559003013E+03  0.47000000000E+01 0. -1.
         -5    1    1    2    0  502  0.39334017188E+02 -0.21937293812E+01 -0.14268861091E+02  0.42162397388E+02  0.47000000000E+01 0.  1.
        -11    1    1    2    0    0 -0.29283494780E+02  0.13396796621E+02 -0.25290127934E+02  0.40946157294E+02  0.00000000000E+00 0. -1.
         11    1    1    2    0    0  0.57700623871E+02 -0.20503672330E+02 -0.85207386632E+02  0.10492883927E+03  0.00000000000E+00 0.  1.
<mgrwt>
<rscale>  0 0.11764607E+03</rscale>
<asrwt>0</asrwt>
<pdfrwt beam="2">  1        2 0.48394577E-01 0.12623220E+03</pdfrwt>
<pdfrwt beam="1">  1       -2 0.60096427E-02 0.12623220E+03</pdfrwt>
<totfact> 0.14328273E+04</totfact>
</mgrwt>
</event>
<event>
 6    1  0.4705246E-006  0.1295009E+03  0.7546771E-02  0.1242480E+00
          3   -1    0    0  501    0  0.00000000000E+00  0.00000000000E+00  0.54206919509E+02  0.54206919509E+02  0.00000000000E+00 0. -1.
         -3   -1    0    0    0  501 -0.00000000000E+00 -0.00000000000E+00 -0.26355585419E+03  0.26355585419E+03  0.00000000000E+00 0.  1.
          5    1    1    2  502    0  0.57967341717E+02  0.75987998020E+01 -0.46306126996E+02  0.74728186526E+02  0.47000000000E+01 0. -1.
         -5    1    1    2    0  502 -0.62796468193E+02  0.25808602882E+02 -0.21017423938E+02  0.71227119198E+02  0.47000000000E+01 0. -1.
        -11    1    1    2    0    0 -0.33153294432E+02 -0.29810983751E+02 -0.11939569927E+03  0.12744869041E+03  0.00000000000E+00 0.  1.
         11    1    1    2    0    0  0.37982420908E+02 -0.35964189328E+01 -0.22629684479E+02  0.44358777562E+02  0.00000000000E+00 0. -1.
<mgrwt>
<rscale>  0 0.12037501E+03</rscale>
<asrwt>0</asrwt>
<pdfrwt beam="1">  1        3 0.83395261E-02 0.12950093E+03</pdfrwt>
<pdfrwt beam="2">  1       -3 0.40547054E-01 0.12950093E+03</pdfrwt>
<totfact> 0.13753370E+03</totfact>
</mgrwt>
</event>
<event>
 6    1  0.4705246E-006  0.1314634E+03  0.7546771E-02  0.1240131E+00
         -1   -1    0    0    0  501 -0.00000000000E+00  0.00000000000E+00  0.58511934023E+02  0.58511934023E+02  0.00000000000E+00 0.  1.
          1   -1    0    0  501    0  0.00000000000E+00 -0.00000000000E+00 -0.22369886816E+03  0.22369886816E+03  0.00000000000E+00 0. -1.
          5    1    1    2  502    0  0.16554828319E+02 -0.57588682900E+02 -0.15962237718E+02  0.62188437606E+02  0.47000000000E+01 0. -1.
         -5    1    1    2    0  502  0.23876470246E+02  0.52836138122E+02 -0.87654304655E+02  0.10520033483E+03  0.47000000000E+01 0. -1.
        -11    1    1    2    0    0  0.26704625617E+02  0.75933951575E+01 -0.29004652250E+02  0.40150548334E+02  0.00000000000E+00 0.  1.
         11    1    1    2    0    0 -0.67135924182E+02 -0.28408503789E+01 -0.32565739511E+02  0.74671481414E+02  0.00000000000E+00 0. -1.
<mgrwt>
<rscale>  0 0.12181623E+03</rscale>
<asrwt>0</asrwt>
<pdfrwt beam="2">  1        1 0.34415210E-01 0.13146335E+03</pdfrwt>
<pdfrwt beam="1">  1       -1 0.90018361E-02 0.13146335E+03</pdfrwt>
<totfact> 0.86156881E+03</totfact>
</mgrwt>
</event>
<event>
 6    1  0.4705246E-006  0.1316306E+03  0.7546771E-02  0.1252243E+00
         -2   -1    0    0    0  501 -0.00000000000E+00  0.00000000000E+00  0.58989992145E+02  0.58989992145E+02  0.00000000000E+00 0.  1.
          2   -1    0    0  501    0  0.00000000000E+00 -0.00000000000E+00 -0.18219697210E+03  0.18219697210E+03  0.00000000000E+00 0. -1.
          5    1    1    2  502    0 -0.33286651904E+02  0.29681059778E+02 -0.36293359575E+02  0.57691112433E+02  0.47000000000E+01 0.  1.
         -5    1    1    2    0  502  0.66645730617E+02 -0.53947676525E+02 -0.43891282193E+02  0.96439306636E+02  0.47000000000E+01 0.  1.
        -11    1    1    2    0    0 -0.26498168053E+02 -0.18523185408E+02 -0.17493365920E+02  0.36759749170E+02  0.00000000000E+00 0.  1.
         11    1    1    2    0    0 -0.68609106600E+01  0.42789802156E+02 -0.25528972271E+02  0.50296796010E+02  0.00000000000E+00 0. -1.
<mgrwt>
<rscale>  0 0.11462180E+03</rscale>
<asrwt>0</asrwt>
<pdfrwt beam="2">  1        2 0.28030303E-01 0.13163058E+03</pdfrwt>
<pdfrwt beam="1">  1       -2 0.90753835E-02 0.13163058E+03</pdfrwt>
<totfact> 0.13689541E+04</totfact>
</mgrwt>
</event>
<event>
 6    1  0.4705246E-006  0.1106303E+03  0.7546771E-02  0.1266408E+00
         -3   -1    0    0    0  501 -0.00000000000E+00  0.00000000000E+00  0.13397234953E+02  0.13397234953E+02  0.00000000000E+00 0.  1.
          3   -1    0    0  501    0  0.00000000000E+00 -0.00000000000E+00 -0.13030640145E+04  0.13030640145E+04  0.00000000000E+00 0. -1.
          5    1    1    2  502    0 -0.30612160009E+02  0.37371220398E+02 -0.34574902151E+03  0.34913921053E+03  0.47000000000E+01 0. -1.
         -5    1    1    2    0  502  0.40692536285E+02 -0.40587062708E+02 -0.73440908991E+03  0.73666952802E+03  0.47000000000E+01 0.  1.
        -11    1    1    2    0    0 -0.42638143729E+02 -0.16707475388E+02 -0.55349360629E+02  0.71838031408E+02  0.00000000000E+00 0.  1.
         11    1    1    2    0    0  0.32557767452E+02  0.19923317698E+02 -0.15415930749E+03  0.15881447949E+03  0.00000000000E+00 0. -1.
<mgrwt>
<rscale>  0 0.10690675E+03</rscale>
<asrwt>0</asrwt>
<pdfrwt beam="2">  1        3 0.20047145E+00 0.11063034E+03</pdfrwt>
<pdfrwt beam="1">  1       -3 0.20611124E-02 0.11063034E+03</pdfrwt>
<totfact> 0.33210032E+02</totfact>
</mgrwt>
</event>
<event>
 6    1  0.4705246E-006  0.2445692E+03  0.7546771E-02  0.1116786E+00
         -1   -1    0    0    0  501 -0.00000000000E+00  0.00000000000E+00  0.47977321418E+02  0.47977321418E+02  0.00000000000E+00 0.  1.
          1   -1    0    0  501    0  0.00000000000E+00 -0.00000000000E+00 -0.31167905974E+03  0.31167905974E+03  0.00000000000E+00 0. -1.
          5    1    1    2  502    0 -0.94049222329E+02 -0.17076655356E+02 -0.11029467060E+03  0.14602695895E+03  0.47000000000E+01 0.  1.
         -5    1    1    2    0  502  0.40568282857E+02 -0.84640036384E+00 -0.35358874033E+02  0.54026307854E+02  0.47000000000E+01 0.  1.
        -11    1    1    2    0    0  0.16981298562E+02  0.44740278810E+02 -0.20514923050E+02  0.52066487461E+02  0.00000000000E+00 0.  1.
         11    1    1    2    0    0  0.36499640910E+02 -0.26817223090E+02 -0.97533270639E+02  0.10753662689E+03  0.00000000000E+00 0. -1.
<mgrwt>
<rscale>  0 0.24456922E+03</rscale>
<asrwt>0</asrwt>
<pdfrwt beam="2">  1        1 0.47950623E-01 0.24456922E+03</pdfrwt>
<pdfrwt beam="1">  1       -1 0.73811266E-02 0.24456922E+03</pdfrwt>
<totfact> 0.80187815E+03</totfact>
</mgrwt>
</event>
<event>
 6    1  0.4705246E-006  0.1175252E+03  0.7546771E-02  0.1255968E+00
          1   -1    0    0  501    0  0.00000000000E+00  0.00000000000E+00  0.98008003704E+03  0.98008003704E+03  0.00000000000E+00 0. -1.
         -1   -1    0    0    0  501 -0.00000000000E+00 -0.00000000000E+00 -0.12533660609E+02  0.12533660609E+02  0.00000000000E+00 0.  1.
          5    1    1    2  502    0 -0.57799657305E+02 -0.18321067460E+02  0.35562088684E+03  0.36078354599E+03  0.47000000000E+01 0. -1.
         -5    1    1    2    0  502  0.32337921268E+02  0.45821642416E+02  0.27645355470E+03  0.28212412511E+03  0.47000000000E+01 0.  1.
        -11    1    1    2    0    0 -0.66176968913E+01  0.30318405423E+02  0.13842746478E+03  0.14186318276E+03  0.00000000000E+00 0. -1.
         11    1    1    2    0    0  0.32079432928E+02 -0.57818980379E+02  0.19704447011E+03  0.20784284378E+03  0.00000000000E+00 0.  1.
<mgrwt>
<rscale>  0 0.11252264E+03</rscale>
<asrwt>0</asrwt>
<pdfrwt beam="1">  1        1 0.15078148E+00 0.11752521E+03</pdfrwt>
<pdfrwt beam="2">  1       -1 0.19282562E-02 0.11752521E+03</pdfrwt>
<totfact> 0.11414319E+04</totfact>
</mgrwt>
</event>
<event>
 6    1  0.4705246E-006  0.3322304E+03  0.7546771E-02  0.1071804E+00
          2   -1    0    0  501    0  0.00000000000E+00  0.00000000000E+00  0.19156166861E+04  0.19156166861E+04  0.00000000000E+00 0. -1.
         -2   -1    0    0    0  501 -0.00000000000E+00 -0.00000000000E+00 -0.60966490893E+02  0.60966490893E+02  0.00000000000E+00 0.  1.
          5    1    1    2  502    0 -0.61445262872E+02  0.26899696342E+03  0.11567935974E+04  0.11892553988E+04  0.47000000000E+01 0.  1.
         -5    1    1    2    0  502  0.28363855592E+02  0.37038409711E+02  0.95944889069E+02  0.10678887506E+03  0.47000000000E+01 0.  1.
        -11    1    1    2    0    0  0.39837460543E+02 -0.11251662903E+03  0.28736357659E+03  0.31116690091E+03  0.00000000000E+00 0.  1.
         11    1    1    2    0    0 -0.67560532636E+01 -0.19351874410E+03  0.31454813219E+03  0.36937200224E+03  0.00000000000E+00 0. -1.
<mgrwt>
<rscale>  0 0.32849685E+03</rscale>
<asrwt>0</asrwt>
<pdfrwt beam="1">  1        2 0.29471021E+00 0.33223041E+03</pdfrwt>
<pdfrwt beam="2">  1       -2 0.93794616E-02 0.33223041E+03</pdfrwt>
<totfact> 0.60064768E+02</totfact>
</mgrwt>
</event>
<event>
 6    1  0.4705246E-006  0.1319186E+03  0.7546771E-02  0.1237500E+00
         -1   -1    0    0    0  501 -0.00000000000E+00  0.00000000000E+00  0.15756685097E+03  0.15756685097E+03  0.00000000000E+00 0.  1.
          1   -1    0    0  501    0  0.00000000000E+00 -0.00000000000E+00 -0.89063108282E+02  0.89063108282E+02  0.00000000000E+00 0. -1.
          5    1    1    2  502    0  0.83298445447E+02 -0.20279370641E+02  0.58441358608E+01  0.86058862480E+02  0.47000000000E+01 0.  1.
         -5    1    1    2    0  502 -0.41152153070E+02  0.19148014742E+02  0.10926346073E+02  0.46921436566E+02  0.47000000000E+01 0.  1.
        -11    1    1    2    0    0  0.17827242694E+02 -0.23120686755E+02  0.37300501838E+02  0.47367754596E+02  0.00000000000E+00 0.  1.
         11    1    1    2    0    0 -0.59973535071E+02  0.24252042654E+02  0.14432758920E+02  0.66281905614E+02  0.00000000000E+00 0. -1.
<mgrwt>
<rscale>  0 0.12345723E+03</rscale>
<asrwt>0</asrwt>
<pdfrwt beam="2">  1        1 0.13702017E-01 0.13191858E+03</pdfrwt>
<pdfrwt beam="1">  1       -1 0.24241054E-01 0.13191858E+03</pdfrwt>
<totfact> 0.58470553E+03</totfact>
</mgrwt>
</event>
<event>
 6    1  0.4705246E-006  0.1819042E+03  0.7546771E-02  0.1171924E+00
          1   -1    0    0  501    0  0.00000000000E+00  0.00000000000E+00  0.13682166038E+03  0.13682166038E+03  0.00000000000E+00 0. -1.
         -1   -1    0    0    0  501 -0.00000000000E+00 -0.00000000000E+00 -0.28253175631E+03  0.28253175631E+03  0.00000000000E+00 0.  1.
          5    1    1    2  502    0 -0.35061862908E+02  0.15788257303E+02  0.65104077509E+02  0.75757733649E+02  0.47000000000E+01 0.  1.
         -5    1    1    2    0  502 -0.38298917242E+02  0.94137531208E+02 -0.37094562127E+02  0.10829025064E+03  0.47000000000E+01 0.  1.
        -11    1    1    2    0    0  0.36062429788E+02 -0.10385933881E+03 -0.85309561360E+02  0.13915811999E+03  0.00000000000E+00 0. -1.
         11    1    1    2    0    0  0.37298350362E+02 -0.60664497012E+01 -0.88410049952E+02  0.96147312413E+02  0.00000000000E+00 0.  1.
<mgrwt>
<rscale>  0 0.17580686E+03</rscale>
<asrwt>0</asrwt>
<pdfrwt beam="1">  1        1 0.21049487E-01 0.18190417E+03</pdfrwt>
<pdfrwt beam="2">  1       -1 0.43466423E-01 0.18190417E+03</pdfrwt>
<totfact> 0.12591267E+03</totfact>
</mgrwt>
</event>
<event>
 6    1  0.4705246E-006  0.1324710E+03  0.7546771E-02  0.1236053E+00
          2   -1    0    0  501    0  0.00000000000E+00  0.00000000000E+00  0.67347384941E+03  0.67347384941E+03  0.00000000000E+00 0. -1.
         -2   -1    0    0    0  501 -0.00000000000E+00 -0.00000000000E+00 -0.21383711366E+02  0.21383711366E+02  0.00000000000E+00 0.  1.
          5    1    1    2  502    0 -0.47351898126E+02  0.38025764750E+02  0.41554881537E+03  0.41998936772E+03  0.47000000000E+01 0. -1.
         -5    1    1    2    0  502  0.27214999897E+02  0.92271153150E+00  0.17124931369E+02  0.32509396955E+02  0.47000000000E+01 0. -1.
        -11    1    1    2    0    0  0.46683224069E+02 -0.30240327572E+02  0.20181200719E+03  0.20933677906E+03  0.00000000000E+00 0. -1.
         11    1    1    2    0    0 -0.26546325839E+02 -0.87081487097E+01  0.17604384112E+02  0.33022017041E+02  0.00000000000E+00 0.  1.
<mgrwt>
<rscale>  0 0.12437247E+03</rscale>
<asrwt>0</asrwt>
<pdfrwt beam="1">  1        2 0.10361135E+00 0.13247098E+03</pdfrwt>
<pdfrwt beam="2">  1       -2 0.32898023E-02 0.13247098E+03</pdfrwt>
<totfact> 0.15376663E+04</totfact>
</mgrwt>
</event>
<event>
 6    1  0.4705246E-006  0.1465640E+03  0.7546771E-02  0.1214761E+00
          2   -1    0    0  501    0  0.00000000000E+00  0.00000000000E+00  0.17018606630E+04  0.17018606630E+04  0.00000000000E+00 0. -1.
         -2   -1    0    0    0  501 -0.00000000000E+00 -0.00000000000E+00 -0.13014792514E+02  0.13014792514E+02  0.00000000000E+00 0.  1.
          5    1    1    2  502    0 -0.11391930058E+02  0.45904282481E+02  0.71943850879E+03  0.72100682185E+03  0.47000000000E+01 0.  1.
         -5    1    1    2    0  502 -0.63578790956E+02 -0.61234327747E+02  0.58525438798E+03  0.59189246845E+03  0.47000000000E+01 0.  1.
        -11    1    1    2    0    0  0.48448730936E+02  0.45228258768E+02  0.14400796166E+03  0.15852812982E+03  0.00000000000E+00 0.  1.
         11    1    1    2    0    0  0.26521990079E+02 -0.29898213503E+02  0.24014501205E+03  0.24344803540E+03  0.00000000000E+00 0. -1.
<mgrwt>
<rscale>  0 0.13894096E+03</rscale>
<asrwt>0</asrwt>
<pdfrwt beam="1">  1        2 0.26182454E+00 0.14656395E+03</pdfrwt>
<pdfrwt beam="2">  1       -2 0.20022771E-02 0.14656395E+03</pdfrwt>
<totfact> 0.80948625E+03</totfact>
</mgrwt>
</event>
<event>
 6    1  0.4705246E-006  0.1772555E+03  0.7546771E-02  0.1176124E+00
          2   -1    0    0  501    0  0.00000000000E+00  0.00000000000E+00  0.74051282764E+03  0.74051282764E+03  0.00000000000E+00 0. -1.
         -2   -1    0    0    0  501 -0.00000000000E+00 -0.00000000000E+00 -0.40013324048E+02  0.40013324048E+02  0.00000000000E+00 0.  1.
          5    1    1    2  502    0  0.12499320561E+02 -0.21691604329E+02  0.34193223555E+02  0.42638307306E+02  0.47000000000E+01 0. -1.
         -5    1    1    2    0  502  0.57262053764E+01  0.14603864026E+03  0.43511895309E+03  0.45903231609E+03  0.47000000000E+01 0. -1.
        -11    1    1    2    0    0 -0.24718581135E+02 -0.13701404387E+03  0.19202468062E+03  0.23718628636E+03  0.00000000000E+00 0.  1.
         11    1    1    2    0    0  0.64930551980E+01  0.12667007932E+02  0.39162646330E+02  0.41669241934E+02  0.00000000000E+00 0. -1.
<mgrwt>
<rscale>  0 0.17166396E+03</rscale>
<asrwt>0</asrwt>
<pdfrwt beam="1">  1        2 0.11392504E+00 0.17725545E+03</pdfrwt>
<pdfrwt beam="2">  1       -2 0.61558965E-02 0.17725545E+03</pdfrwt>
<totfact> 0.54563581E+03</totfact>
</mgrwt>
</event>
<event>
 6    1  0.4705246E-006  0.1439488E+03  0.7546771E-02  0.1229518E+00
          2   -1    0    0  501    0  0.00000000000E+00  0.00000000000E+00  0.54394305367E+03  0.54394305367E+03  0.00000000000E+00 0. -1.
         -2   -1    0    0    0  501 -0.00000000000E+00 -0.00000000000E+00 -0.25553790105E+02  0.25553790105E+02  0.00000000000E+00 0.  1.
          5    1    1    2  502    0  0.52900197276E+02 -0.11103223754E+02  0.30028583552E+03  0.30514813692E+03  0.47000000000E+01 0.  1.
         -5    1    1    2    0  502 -0.61337013922E+01 -0.42836441910E+02  0.24127108375E+02  0.49767362868E+02  0.47000000000E+01 0.  1.
        -11    1    1    2    0    0 -0.59900178442E+02  0.40406253454E+02  0.16331429924E+03  0.17858403353E+03  0.00000000000E+00 0. -1.
         11    1    1    2    0    0  0.13133682559E+02  0.13533412210E+02  0.30662020427E+02  0.35997310459E+02  0.00000000000E+00 0.  1.
<mgrwt>
<rscale>  0 0.12862024E+03</rscale>
<asrwt>0</asrwt>
<pdfrwt beam="1">  1        2 0.83683538E-01 0.14394879E+03</pdfrwt>
<pdfrwt beam="2">  1       -2 0.39313527E-02 0.14394879E+03</pdfrwt>
<totfact> 0.15170683E+04</totfact>
</mgrwt>
</event>
<event>
 6    1  0.4705246E-006  0.1264185E+03  0.7546771E-02  0.1247808E+00
         -3   -1    0    0    0  501 -0.00000000000E+00  0.00000000000E+00  0.53998569865E+02  0.53998569865E+02  0.00000000000E+00 0.  1.
          3   -1    0    0  501    0  0.00000000000E+00 -0.00000000000E+00 -0.22446687691E+03  0.22446687691E+03  0.00000000000E+00 0. -1.
          5    1    1    2  502    0 -0.47109271159E+02  0.29372877941E+02 -0.40265387299E+02  0.68741841712E+02  0.47000000000E+01 0.  1.
         -5    1    1    2    0  502  0.52066384110E+02 -0.47591929676E+02 -0.49230793964E+02  0.86149063831E+02  0.47000000000E+01 0.  1.
        -11    1    1    2    0    0  0.20489741646E+02  0.48948883962E+02 -0.40606447439E+02  0.66818457985E+02  0.00000000000E+00 0. -1.
         11    1    1    2    0    0 -0.25446854596E+02 -0.30729832227E+02 -0.40365678344E+02  0.56756083249E+02  0.00000000000E+00 0.  1.
<mgrwt>
<rscale>  0 0.11718882E+03</rscale>
<asrwt>0</asrwt>
<pdfrwt beam="2">  1        3 0.34533366E-01 0.12641846E+03</pdfrwt>
<pdfrwt beam="1">  1       -3 0.83074722E-02 0.12641846E+03</pdfrwt>
<totfact> 0.18715612E+03</totfact>
</mgrwt>
</event>
<event>
 6    1  0.4705246E-006  0.1764063E+03  0.7546771E-02  0.1177922E+00
          1   -1    0    0  501    0  0.00000000000E+00  0.00000000000E+00  0.85176138750E+03  0.85176138750E+03  0.00000000000E+00 0. -1.
         -1   -1    0    0    0  501 -0.00000000000E+00 -0.00000000000E+00 -0.32305925308E+02  0.32305925308E+02  0.00000000000E+00 0.  1.
          5    1    1    2  502    0  0.29600392250E+02 -0.65159049213E+02  0.24029312221E+03  0.25076833831E+03  0.47000000000E+01 0. -1.
         -5    1    1    2    0  502 -0.94682370949E+02 -0.40934891445E+02  0.26297354356E+03  0.28252007242E+03  0.47000000000E+01 0. -1.
        -11    1    1    2    0    0 -0.18999209301E+02  0.36040219946E+02  0.11078559973E+03  0.11803947016E+03  0.00000000000E+00 0.  1.
         11    1    1    2    0    0  0.84081188001E+02  0.70053720713E+02  0.20540319669E+03  0.23273943192E+03  0.00000000000E+00 0. -1.
<mgrwt>
<rscale>  0 0.16992908E+03</rscale>
<asrwt>0</asrwt>
<pdfrwt beam="1">  1        1 0.13104020E+00 0.17640633E+03</pdfrwt>
<pdfrwt beam="2">  1       -1 0.49701430E-02 0.17640633E+03</pdfrwt>
<totfact> 0.36585688E+03</totfact>
</mgrwt>
</event>
<event>
 6    1  0.4705246E-006  0.2634259E+03  0.7546771E-02  0.1105102E+00
          1   -1    0    0  501    0  0.00000000000E+00  0.00000000000E+00  0.73694956599E+03  0.73694956599E+03  0.00000000000E+00 0. -1.
         -1   -1    0    0    0  501 -0.00000000000E+00 -0.00000000000E+00 -0.23540686767E+02  0.23540686767E+02  0.00000000000E+00 0.  1.
          5    1    1    2  502    0 -0.40071076822E+02  0.76270126936E+02  0.31471463011E+03  0.32632838042E+03  0.47000000000E+01 0.  1.
         -5    1    1    2    0  502  0.30083500964E+02 -0.30429954300E+02  0.88451561098E+02  0.98370563736E+02  0.47000000000E+01 0.  1.
        -11    1    1    2    0    0 -0.51689849990E+02 -0.31465361018E+02  0.10719219052E+03  0.12309376607E+03  0.00000000000E+00 0. -1.
         11    1    1    2    0    0  0.61677425849E+02 -0.14374811617E+02  0.20305049749E+03  0.21269754253E+03  0.00000000000E+00 0.  1.
<mgrwt>
<rscale>  0 0.26342588E+03</rscale>
<asrwt>0</asrwt>
<pdfrwt beam="1">  1        1 0.11337684E+00 0.26342588E+03</pdfrwt>
<pdfrwt beam="2">  1       -1 0.36216447E-02 0.26342588E+03</pdfrwt>
<totfact> 0.74166999E+03</totfact>
</mgrwt>
</event>
<event>
 6    1  0.4705246E-006  0.3145394E+03  0.7546771E-02  0.1101018E+00
          1   -1    0    0  501    0  0.00000000000E+00  0.00000000000E+00  0.39600657898E+03  0.39600657898E+03  0.00000000000E+00 0. -1.
         -1   -1    0    0    0  501 -0.00000000000E+00 -0.00000000000E+00 -0.48128234458E+03  0.48128234458E+03  0.00000000000E+00 0.  1.
          5    1    1    2  502    0 -0.15799177460E+03  0.88293855869E+02  0.30453411000E+03  0.35428847000E+03  0.47000000000E+01 0. -1.
         -5    1    1    2    0  502  0.11872334477E+02 -0.88031148293E+02  0.83090953750E+01  0.89339613060E+02  0.47000000000E+01 0.  1.
        -11    1    1    2    0    0  0.11550559771E+02 -0.31480636157E+02 -0.68607518868E+02  0.76363849622E+02  0.00000000000E+00 0. -1.
         11    1    1    2    0    0  0.13456888036E+03  0.31217928581E+02 -0.32951145210E+03  0.35729699087E+03  0.00000000000E+00 0.  1.
<mgrwt>
<rscale>  0 0.27045799E+03</rscale>
<asrwt>0</asrwt>
<pdfrwt beam="1">  1        1 0.60924089E-01 0.31453935E+03</pdfrwt>
<pdfrwt beam="2">  1       -1 0.74043437E-01 0.31453935E+03</pdfrwt>
<totfact> 0.11799109E+02</totfact>
</mgrwt>
</event>
<event>
 6    1  0.4705246E-006  0.1647921E+03  0.7546771E-02  0.1191174E+00
         -1   -1    0    0    0  501 -0.00000000000E+00  0.00000000000E+00  0.19916249526E+03  0.19916249526E+03  0.00000000000E+00 0.  1.
          1   -1    0    0  501    0  0.00000000000E+00 -0.00000000000E+00 -0.18835934666E+03  0.18835934666E+03  0.00000000000E+00 0. -1.
          5    1    1    2  502    0 -0.10630509915E+03  0.12758309345E+02 -0.93147162116E+02  0.14199307157E+03  0.47000000000E+01 0. -1.
         -5    1    1    2    0  502  0.19713140913E+02  0.50748667062E+02 -0.21336554013E+02  0.58663222468E+02  0.47000000000E+01 0. -1.
        -11    1    1    2    0    0  0.33082771590E+02 -0.32593597032E+01 -0.50570533700E+01  0.33625392050E+02  0.00000000000E+00 0. -1.
         11    1    1    2    0    0  0.53509186652E+02 -0.60247616704E+02  0.13034391809E+03  0.15324015583E+03  0.00000000000E+00 0.  1.
<mgrwt>
<rscale>  0 0.15782539E+03</rscale>
<asrwt>0</asrwt>
<pdfrwt beam="2">  1        1 0.28978361E-01 0.16479207E+03</pdfrwt>
<pdfrwt beam="1">  1       -1 0.30640384E-01 0.16479207E+03</pdfrwt>
<totfact> 0.15397852E+03</totfact>
</mgrwt>
</event>
<event>
 6    1  0.4705246E-006  0.1451959E+03  0.7546771E-02  0.1223479E+00
         -2   -1    0    0    0  501 -0.00000000000E+00  0.00000000000E+00  0.16311302583E+02  0.16311302583E+02  0.00000000000E+00 0.  1.
          2   -1    0    0  501    0  0.00000000000E+00 -0.00000000000E+00 -0.10196381805E+04  0.10196381805E+04  0.00000000000E+00 0. -1.
          5    1    1    2  502    0 -0.47762508315E+02  0.71890725013E+02 -0.59475324776E+03  0.60100170487E+03  0.47000000000E+01 0. -1.
         -5    1    1    2    0  502  0.15113400207E+02 -0.44996061157E+02 -0.13834688531E+03  0.14633868613E+03  0.47000000000E+01 0.  1.
        -11    1    1    2    0    0  0.31738001708E+02 -0.58052038671E+02 -0.21768212875E+03  0.22751450310E+03  0.00000000000E+00 0.  1.
         11    1    1    2    0    0  0.91110640064E+00  0.31157374815E+02 -0.52544616119E+02  0.61094588986E+02  0.00000000000E+00 0. -1.
<mgrwt>
<rscale>  0 0.13271697E+03</rscale>
<asrwt>0</asrwt>
<pdfrwt beam="2">  1        2 0.15686742E+00 0.14519592E+03</pdfrwt>
<pdfrwt beam="1">  1       -2 0.25094310E-02 0.14519592E+03</pdfrwt>
<totfact> 0.13603544E+04</totfact>
</mgrwt>
</event>
<event>
 6    1  0.4705246E-006  0.1426470E+03  0.7546771E-02  0.1220400E+00
         -1   -1    0    0    0  501 -0.00000000000E+00  0.00000000000E+00  0.95694690554E+02  0.95694690554E+02  0.00000000000E+00 0.  1.
          1   -1    0    0  501    0  0.00000000000E+00 -0.00000000000E+00 -0.33248821913E+03  0.33248821913E+03  0.00000000000E+00 0. -1.
          5    1    1    2  502    0  0.20923814317E+02  0.46109584774E+02 -0.35587091080E+02  0.62067953608E+02  0.47000000000E+01 0.  1.
         -5    1    1    2    0  502  0.47713654762E+02 -0.42562014260E+02 -0.23787544855E+03  0.24636342450E+03  0.47000000000E+01 0.  1.
        -11    1    1    2    0    0 -0.63613248843E+02  0.18088511679E+02  0.58728362057E+02  0.88446934334E+02  0.00000000000E+00 0.  1.
         11    1    1    2    0    0 -0.50242202365E+01 -0.21636082192E+02 -0.22059350999E+02  0.31304597236E+02  0.00000000000E+00 0. -1.
<mgrwt>
<rscale>  0 0.13487216E+03</rscale>
<asrwt>0</asrwt>
<pdfrwt beam="2">  1        1 0.51152034E-01 0.14264696E+03</pdfrwt>
<pdfrwt beam="1">  1       -1 0.14722260E-01 0.14264696E+03</pdfrwt>
<totfact> 0.24840708E+03</totfact>
</mgrwt>
</event>
<event>
 6    1  0.4705246E-006  0.1290179E+03  0.7546771E-02  0.1241480E+00
         -2   -1    0    0    0  501 -0.00000000000E+00  0.00000000000E+00  0.31185721190E+02  0.31185721190E+02  0.00000000000E+00 0.  1.
          2   -1    0    0  501    0  0.00000000000E+00 -0.00000000000E+00 -0.45964433417E+03  0.45964433417E+03  0.00000000000E+00 0. -1.
          5    1    1    2  502    0  0.52628705883E+02  0.16649478987E+02 -0.87112466415E+02  0.10323593192E+03  0.47000000000E+01 0. -1.
         -5    1    1    2    0  502 -0.45461561311E+02 -0.47840489259E+02 -0.22401527121E+03  0.23358167245E+03  0.47000000000E+01 0. -1.
        -11    1    1    2    0    0 -0.15391637010E+02  0.54304818466E+02 -0.11651338469E+03  0.12946537997E+03  0.00000000000E+00 0. -1.
         11    1    1    2    0    0  0.82244924377E+01 -0.23113808194E+02 -0.81749066792E+00  0.24547071029E+02  0.00000000000E+00 0.  1.
<mgrwt>
<rscale>  0 0.12098554E+03</rscale>
<asrwt>0</asrwt>
<pdfrwt beam="2">  1        2 0.70714511E-01 0.12901794E+03</pdfrwt>
<pdfrwt beam="1">  1       -2 0.47978034E-02 0.12901794E+03</pdfrwt>
<totfact> 0.13447607E+04</totfact>
</mgrwt>
</event>
<event>
 6    1  0.4705246E-006  0.1278384E+03  0.7546771E-02  0.1244983E+00
         -2   -1    0    0    0  501 -0.00000000000E+00  0.00000000000E+00  0.75362183444E+02  0.75362183444E+02  0.00000000000E+00 0.  1.
          2   -1    0    0  501    0  0.00000000000E+00 -0.00000000000E+00 -0.16724383224E+03  0.16724383224E+03  0.00000000000E+00 0. -1.
          5    1    1    2  502    0 -0.43352421330E+02  0.53087190031E+02  0.27965318422E+00  0.68701167286E+02  0.47000000000E+01 0.  1.
         -5    1    1    2    0  502  0.43670077129E+02 -0.26263220853E+02 -0.40664271724E+02  0.65364404693E+02  0.47000000000E+01 0.  1.
        -11    1    1    2    0    0 -0.96474646218E+01 -0.16129015222E+02  0.24697590881E+02  0.31035297663E+02  0.00000000000E+00 0.  1.
         11    1    1    2    0    0  0.93298088225E+01 -0.10694953956E+02 -0.76194621143E+02  0.77505146047E+02  0.00000000000E+00 0. -1.
<mgrwt>
<rscale>  0 0.11886375E+03</rscale>
<asrwt>0</asrwt>
<pdfrwt beam="2">  1        2 0.25729820E-01 0.12783841E+03</pdfrwt>
<pdfrwt beam="1">  1       -2 0.11594182E-01 0.12783841E+03</pdfrwt>
<totfact> 0.10200671E+04</totfact>
</mgrwt>
</event>
<event>
 6    1  0.4705246E-006  0.1335685E+03  0.7546771E-02  0.1234036E+00
         -1   -1    0    0    0  501 -0.00000000000E+00  0.00000000000E+00  0.56468429116E+02  0.56468429116E+02  0.00000000000E+00 0.  1.
          1   -1    0    0  501    0  0.00000000000E+00 -0.00000000000E+00 -0.25139583162E+03  0.25139583162E+03  0.00000000000E+00 0. -1.
          5    1    1    2  502    0 -0.96941853682E+01  0.81066893910E+02 -0.65297730383E+02  0.10465038037E+03  0.47000000000E+01 0.  1.
         -5    1    1    2    0  502 -0.22151274271E+02 -0.46405667446E+02 -0.47935969899E+02  0.70456455582E+02  0.47000000000E+01 0.  1.
        -11    1    1    2    0    0  0.57496213083E+02  0.37047081965E+01 -0.36749936227E+02  0.68338109385E+02  0.00000000000E+00 0.  1.
         11    1    1    2    0    0 -0.25650753444E+02 -0.38365934660E+02 -0.44943765992E+02  0.64419315396E+02  0.00000000000E+00 0. -1.
<mgrwt>
<rscale>  0 0.12566318E+03</rscale>
<asrwt>0</asrwt>
<pdfrwt beam="2">  1        1 0.38676282E-01 0.13356846E+03</pdfrwt>
<pdfrwt beam="1">  1       -1 0.86874506E-02 0.13356846E+03</pdfrwt>
<totfact> 0.78793497E+03</totfact>
</mgrwt>
</event>
<event>
 6    1  0.4705246E-006  0.1298524E+03  0.7546771E-02  0.1241501E+00
         -2   -1    0    0    0  501 -0.00000000000E+00  0.00000000000E+00  0.19859501849E+03  0.19859501849E+03  0.00000000000E+00 0.  1.
          2   -1    0    0  501    0  0.00000000000E+00 -0.00000000000E+00 -0.67735013996E+02  0.67735013996E+02  0.00000000000E+00 0. -1.
          5    1    1    2  502    0  0.16385934741E+02  0.44100391986E+02  0.11450613495E+02  0.48647199098E+02  0.47000000000E+01 0.  1.
         -5    1    1    2    0  502 -0.34861356582E+02 -0.74013708861E+02  0.37577190536E+02  0.90152529252E+02  0.47000000000E+01 0.  1.
        -11    1    1    2    0    0 -0.45032181492E+01 -0.15036237613E+02  0.74955876943E+02  0.76581661666E+02  0.00000000000E+00 0.  1.
         11    1    1    2    0    0  0.22978639990E+02  0.44949554488E+02  0.68763235214E+01  0.50948642471E+02  0.00000000000E+00 0. -1.
<mgrwt>
<rscale>  0 0.12097261E+03</rscale>
<asrwt>0</asrwt>
<pdfrwt beam="2">  1        2 0.10420771E-01 0.12985237E+03</pdfrwt>
<pdfrwt beam="1">  1       -2 0.30553079E-01 0.12985237E+03</pdfrwt>
<totfact> 0.56914643E+03</totfact>
</mgrwt>
</event>
<event>
 6    1  0.4705246E-006  0.2802756E+03  0.7546771E-02  0.1095539E+00
         -1   -1    0    0    0  501 -0.00000000000E+00  0.00000000000E+00  0.18819002280E+03  0.18819002280E+03  0.00000000000E+00 0.  1.
          1   -1    0    0  501    0  0.00000000000E+00 -0.00000000000E+00 -0.10435514155E+03  0.10435514155E+03  0.00000000000E+00 0. -1.
          5    1    1    2  502    0 -0.43463671161E+02  0.31666355805E+01  0.21942178814E+02  0.49017012382E+02  0.47000000000E+01 0.  1.
         -5    1    1    2    0  502  0.66265733431E+02  0.75041613246E+02 -0.96997359469E+01  0.10069044653E+03  0.47000000000E+01 0.  1.
        -11    1    1    2    0    0  0.26018165425E+02 -0.49292322617E+02  0.65139110864E+02  0.85730868217E+02  0.00000000000E+00 0.  1.
         11    1    1    2    0    0 -0.48820227695E+02 -0.28915926209E+02  0.64533275274E+01  0.57106837217E+02  0.00000000000E+00 0. -1.
<mgrwt>
<rscale>  0 0.28027555E+03</rscale>
<asrwt>0</asrwt>
<pdfrwt beam="2">  1        1 0.16054637E-01 0.28027555E+03</pdfrwt>
<pdfrwt beam="1">  1       -1 0.28952311E-01 0.28027555E+03</pdfrwt>
<totfact> 0.36820537E+03</totfact>
</mgrwt>
</event>
<event>
 6    1  0.4705246E-006  0.6237704E+03  0.7546771E-02  0.1044687E+00
          2   -1    0    0  501    0  0.00000000000E+00  0.00000000000E+00  0.86641139577E+03  0.86641139577E+03  0.00000000000E+00 0. -1.
         -2   -1    0    0    0  501 -0.00000000000E+00 -0.00000000000E+00 -0.15648812532E+03  0.15648812532E+03  0.00000000000E+00 0.  1.
          5    1    1    2  502    0  0.15340373048E+03  0.25874916658E+02  0.73896795293E+03  0.75518073419E+03  0.47000000000E+01 0. -1.
         -5    1    1    2    0  502 -0.13268560829E+03  0.14642785873E+02 -0.77159945446E+02  0.15425831909E+03  0.47000000000E+01 0.  1.
        -11    1    1    2    0    0  0.25927155602E+02 -0.24494258490E+02 -0.10188000314E+02  0.37094223903E+02  0.00000000000E+00 0.  1.
         11    1    1    2    0    0 -0.46645277790E+02 -0.16023444041E+02  0.58303263278E+02  0.76366243903E+02  0.00000000000E+00 0. -1.
<mgrwt>
<rscale>  0 0.39739035E+03</rscale>
<asrwt>0</asrwt>
<pdfrwt beam="1">  1        2 0.13329406E+00 0.62377043E+03</pdfrwt>
<pdfrwt beam="2">  1       -2 0.24075097E-01 0.62377043E+03</pdfrwt>
<totfact> 0.47915485E+02</totfact>
</mgrwt>
</event>
<event>
 6    1  0.4705246E-006  0.1332803E+03  0.7546771E-02  0.1235589E+00
          1   -1    0    0  501    0  0.00000000000E+00  0.00000000000E+00  0.72442997750E+03  0.72442997750E+03  0.00000000000E+00 0. -1.
         -1   -1    0    0    0  501 -0.00000000000E+00 -0.00000000000E+00 -0.22579914314E+02  0.22579914314E+02  0.00000000000E+00 0.  1.
          5    1    1    2  502    0 -0.66757608489E+01  0.65358437589E+02  0.23593875901E+03  0.24496015829E+03  0.47000000000E+01 0. -1.
         -5    1    1    2    0  502  0.48441267526E+02 -0.45463142708E+02  0.29978919438E+03  0.30709787497E+03  0.47000000000E+01 0. -1.
        -11    1    1    2    0    0 -0.53967469947E+02 -0.35732580810E+02  0.64478640770E+02  0.91360824534E+02  0.00000000000E+00 0.  1.
         11    1    1    2    0    0  0.12201963270E+02  0.15837285930E+02  0.10164346903E+03  0.10359103402E+03  0.00000000000E+00 0. -1.
<mgrwt>
<rscale>  0 0.12466773E+03</rscale>
<asrwt>0</asrwt>
<pdfrwt beam="1">  1        1 0.11145075E+00 0.13328028E+03</pdfrwt>
<pdfrwt beam="2">  1       -1 0.34738335E-02 0.13328028E+03</pdfrwt>
<totfact> 0.78177887E+03</totfact>
</mgrwt>
</event>
<event>
 6    1  0.4705246E-006  0.1362721E+03  0.7546771E-02  0.1229586E+00
         -1   -1    0    0    0  501 -0.00000000000E+00  0.00000000000E+00  0.51349970624E+02  0.51349970624E+02  0.00000000000E+00 0.  1.
          1   -1    0    0  501    0  0.00000000000E+00 -0.00000000000E+00 -0.33844388006E+03  0.33844388006E+03  0.00000000000E+00 0. -1.
          5    1    1    2  502    0  0.11614902977E+02 -0.15156522698E+01 -0.19708447569E+03  0.19748818630E+03  0.47000000000E+01 0.  1.
         -5    1    1    2    0  502 -0.36708111687E+02  0.49665716851E+02 -0.33663838079E+02  0.70494772062E+02  0.47000000000E+01 0.  1.
        -11    1    1    2    0    0  0.37164610030E+02 -0.62026770760E+02 -0.11340338468E+02  0.73192429979E+02  0.00000000000E+00 0.  1.
         11    1    1    2    0    0 -0.12071401320E+02  0.13876706179E+02 -0.45005257202E+02  0.48618462337E+02  0.00000000000E+00 0. -1.
<mgrwt>
<rscale>  0 0.12857507E+03</rscale>
<asrwt>0</asrwt>
<pdfrwt beam="2">  1        1 0.52068291E-01 0.13627209E+03</pdfrwt>
<pdfrwt beam="1">  1       -1 0.78999952E-02 0.13627209E+03</pdfrwt>
<totfact> 0.63033519E+03</totfact>
</mgrwt>
</event>
<event>
 6    1  0.4705246E-006  0.2040254E+03  0.7546771E-02  0.1179976E+00
          2   -1    0    0  501    0  0.00000000000E+00  0.00000000000E+00  0.17629309066E+03  0.17629309066E+03  0.00000000000E+00 0. -1.
         -2   -1    0    0    0  501 -0.00000000000E+00 -0.00000000000E+00 -0.13906259491E+03  0.13906259491E+03  0.00000000000E+00 0.  1.
          5    1    1    2  502    0 -0.94680494080E+01 -0.10274628117E+03  0.27222279956E+02  0.10681565793E+03  0.47000000000E+01 0. -1.
         -5    1    1    2    0  502  0.26785757922E+02  0.96322959145E+02  0.43315199972E+02  0.10905909331E+03  0.47000000000E+01 0.  1.
        -11    1    1    2    0    0 -0.27710801254E+02 -0.28875316366E+02  0.11366840697E+02  0.41603815556E+02  0.00000000000E+00 0. -1.
         11    1    1    2    0    0  0.10393092740E+02  0.35298638389E+02 -0.44673824869E+02  0.57877118771E+02  0.00000000000E+00 0.  1.
<mgrwt>
<rscale>  0 0.16797472E+03</rscale>
<asrwt>0</asrwt>
<pdfrwt beam="1">  1        2 0.27122014E-01 0.20402542E+03</pdfrwt>
<pdfrwt beam="2">  1       -2 0.21394245E-01 0.20402542E+03</pdfrwt>
<totfact> 0.36038521E+03</totfact>
</mgrwt>
</event>
<event>
 6    1  0.4705246E-006  0.3938806E+03  0.7546771E-02  0.1045919E+00
         -2   -1    0    0    0  501 -0.00000000000E+00  0.00000000000E+00  0.42649314264E+02  0.42649314264E+02  0.00000000000E+00 0. -1.
          2   -1    0    0  501    0  0.00000000000E+00 -0.00000000000E+00 -0.90940449920E+03  0.90940449920E+03  0.00000000000E+00 0.  1.
          5    1    1    2  502    0 -0.12378989800E+03  0.10308311156E+03 -0.55319508484E+03  0.57619177244E+03  0.47000000000E+01 0. -1.
         -5    1    1    2    0  502 -0.28928990422E+01 -0.29637875946E+02 -0.74524013178E+02  0.80390864504E+02  0.47000000000E+01 0. -1.
        -11    1    1    2    0    0  0.10042556726E+03 -0.14903835307E+02 -0.10077741600E+03  0.14305071283E+03  0.00000000000E+00 0. -1.
         11    1    1    2    0    0  0.26257229779E+02 -0.58541400309E+02 -0.13825867092E+03  0.15242046368E+03  0.00000000000E+00 0.  1.
<mgrwt>
<rscale>  0 0.39388058E+03</rscale>
<asrwt>0</asrwt>
<pdfrwt beam="2">  1        2 0.13990838E+00 0.39388058E+03</pdfrwt>
<pdfrwt beam="1">  1       -2 0.65614333E-02 0.39388058E+03</pdfrwt>
<totfact> 0.38785494E+03</totfact>
</mgrwt>
</event>
<event>
 6    1  0.4705246E-006  0.1392013E+03  0.7546771E-02  0.1246219E+00
          1   -1    0    0  501    0  0.00000000000E+00  0.00000000000E+00  0.17802512444E+03  0.17802512444E+03  0.00000000000E+00 0. -1.
         -1   -1    0    0    0  501 -0.00000000000E+00 -0.00000000000E+00 -0.63266690458E+02  0.63266690458E+02  0.00000000000E+00 0.  1.
          5    1    1    2  502    0  0.69004493605E+02  0.15285220414E+02  0.10800107665E+03  0.12915719360E+03  0.47000000000E+01 0.  1.
         -5    1    1    2    0  502 -0.84231353157E+01 -0.24306037741E+02 -0.22251550583E+02  0.34335902239E+02  0.47000000000E+01 0.  1.
        -11    1    1    2    0    0 -0.30553306611E+01 -0.99018445129E+01 -0.61941191554E+00  0.10381003869E+02  0.00000000000E+00 0.  1.
         11    1    1    2    0    0 -0.57526027628E+02  0.18922661840E+02  0.29628319831E+02  0.67417715192E+02  0.00000000000E+00 0. -1.
<mgrwt>
<rscale>  0 0.11812694E+03</rscale>
<asrwt>0</asrwt>
<pdfrwt beam="1">  1        1 0.27388481E-01 0.13920133E+03</pdfrwt>
<pdfrwt beam="2">  1       -1 0.97333370E-02 0.13920133E+03</pdfrwt>
<totfact> 0.10205762E+04</totfact>
</mgrwt>
</event>
<event>
 6    1  0.4705246E-006  0.1716637E+03  0.7546771E-02  0.1182510E+00
         -2   -1    0    0    0  501 -0.00000000000E+00  0.00000000000E+00  0.43389079881E+02  0.43389079881E+02  0.00000000000E+00 0.  1.
          2   -1    0    0  501    0  0.00000000000E+00 -0.00000000000E+00 -0.60050646821E+03  0.60050646821E+03  0.00000000000E+00 0. -1.
          5    1    1    2  502    0 -0.26613462947E+02 -0.16998401203E+01  0.32667513722E+01  0.27275034940E+02  0.47000000000E+01 0. -1.
         -5    1    1    2    0  502 -0.35899294903E+02  0.10137877753E+03 -0.26170836364E+03  0.28298369831E+03  0.47000000000E+01 0. -1.
        -11    1    1    2    0    0  0.30741860589E+02 -0.94136400923E+02 -0.27853075344E+03  0.29561140808E+03  0.00000000000E+00 0. -1.
         11    1    1    2    0    0  0.31770897261E+02 -0.55425364893E+01 -0.20145022615E+02  0.38025406765E+02  0.00000000000E+00 0.  1.
<mgrwt>
<rscale>  0 0.16560495E+03</rscale>
<asrwt>0</asrwt>
<pdfrwt beam="2">  1        2 0.92385620E-01 0.17166367E+03</pdfrwt>
<pdfrwt beam="1">  1       -2 0.66752424E-02 0.17166367E+03</pdfrwt>
<totfact> 0.61670790E+03</totfact>
</mgrwt>
</event>
<event>
 6    1  0.4705246E-006  0.4066546E+03  0.7546771E-02  0.1041499E+00
         -1   -1    0    0    0  501 -0.00000000000E+00  0.00000000000E+00  0.39701143179E+02  0.39701143179E+02  0.00000000000E+00 0.  1.
          1   -1    0    0  501    0  0.00000000000E+00 -0.00000000000E+00 -0.10413301264E+04  0.10413301264E+04  0.00000000000E+00 0. -1.
          5    1    1    2  502    0  0.12128643956E+03 -0.66219027739E+02 -0.64788918906E+03  0.66247856672E+03  0.47000000000E+01 0. -1.
         -5    1    1    2    0  502 -0.13759579336E+02 -0.38050354806E+02 -0.93202519053E+02  0.10171506812E+03  0.47000000000E+01 0.  1.
        -11    1    1    2    0    0 -0.89401379335E+02  0.45714932975E+02 -0.87228061778E+02  0.13300825721E+03  0.00000000000E+00 0.  1.
         11    1    1    2    0    0 -0.18125480890E+02  0.58554449570E+02 -0.17330921336E+03  0.18382937757E+03  0.00000000000E+00 0. -1.
<mgrwt>
<rscale>  0 0.40665463E+03</rscale>
<asrwt>0</asrwt>
<pdfrwt beam="2">  1        1 0.16020463E+00 0.40665463E+03</pdfrwt>
<pdfrwt beam="1">  1       -1 0.61078684E-02 0.40665463E+03</pdfrwt>
<totfact> 0.19381741E+03</totfact>
</mgrwt>
</event>
<event>
 6    1  0.4705246E-006  0.1311598E+03  0.7546771E-02  0.1238981E+00
         -2   -1    0    0    0  501 -0.00000000000E+00  0.00000000000E+00  0.34222189066E+02  0.34222189066E+02  0.00000000000E+00 0. -1.
          2   -1    0    0  501    0  0.00000000000E+00 -0.00000000000E+00 -0.85309787142E+03  0.85309787142E+03  0.00000000000E+00 0.  1.
          5    1    1    2  502    0 -0.21968886799E+02 -0.27731844253E+02 -0.57872027991E+02  0.67992270124E+02  0.47000000000E+01 0. -1.
         -5    1    1    2    0  502  0.38302830129E+02 -0.84921262595E+01 -0.70239320569E+03  0.70350375152E+03  0.47000000000E+01 0. -1.
        -11    1    1    2    0    0 -0.30553706474E+02 -0.14486342892E+02 -0.52988846096E+02  0.62858578732E+02  0.00000000000E+00 0.  1.
         11    1    1    2    0    0  0.14219763144E+02  0.50710313404E+02 -0.56216025815E+01  0.52965460113E+02  0.00000000000E+00 0. -1.
<mgrwt>
<rscale>  0 0.12252986E+03</rscale>
<asrwt>0</asrwt>
<pdfrwt beam="2">  1        2 0.13124582E+00 0.13115977E+03</pdfrwt>
<pdfrwt beam="1">  1       -2 0.52649525E-02 0.13115977E+03</pdfrwt>
<totfact> 0.57214010E+03</totfact>
</mgrwt>
</event>
<event>
 6    1  0.4705246E-006  0.1376922E+03  0.7546771E-02  0.1228645E+00
          1   -1    0    0  501    0  0.00000000000E+00  0.00000000000E+00  0.17863392030E+03  0.17863392030E+03  0.00000000000E+00 0. -1.
         -1   -1    0    0    0  501 -0.00000000000E+00 -0.00000000000E+00 -0.21487938593E+03  0.21487938593E+03  0.00000000000E+00 0.  1.
          5    1    1    2  502    0  0.22301553880E+02 -0.32845242411E+02  0.11749989784E+02  0.41669191430E+02  0.47000000000E+01 0. -1.
         -5    1    1    2    0  502 -0.79969507517E+02  0.35599317544E+02  0.12253291396E+03  0.15066133727E+03  0.47000000000E+01 0. -1.
        -11    1    1    2    0    0  0.22044234365E+02  0.22401345621E+02 -0.14949938350E+03  0.15276725507E+03  0.00000000000E+00 0.  1.
         11    1    1    2    0    0  0.35623719271E+02 -0.25155420754E+02 -0.21028985882E+02  0.48415522462E+02  0.00000000000E+00 0. -1.
<mgrwt>
<rscale>  0 0.12920200E+03</rscale>
<asrwt>0</asrwt>
<pdfrwt beam="1">  1        1 0.27482142E-01 0.13769217E+03</pdfrwt>
<pdfrwt beam="2">  1       -1 0.33058367E-01 0.13769217E+03</pdfrwt>
<totfact> 0.14390382E+03</totfact>
</mgrwt>
</event>
<event>
 6    1  0.1183313E-005  0.2231371E+03  0.7546771E-02  0.1134838E+00
         -1   -1    0    0    0  501 -0.00000000000E+00  0.00000000000E+00  0.42817740521E+02  0.42817740521E+02  0.00000000000E+00 0.  1.
          1   -1    0    0  501    0  0.00000000000E+00 -0.00000000000E+00 -0.12089643653E+04  0.12089643653E+04  0.00000000000E+00 0. -1.
          5    1    1    2  502    0 -0.78668788617E+02 -0.63998621725E+02 -0.22904644843E+03  0.25053735734E+03  0.47000000000E+01 0. -1.
         -5    1    1    2    0  502 -0.99422995576E+02  0.14521049161E+02 -0.58274875065E+03  0.59136620575E+03  0.47000000000E+01 0. -1.
        -11    1    1    2    0    0  0.86470793759E+02  0.20113754278E+02 -0.26154121057E+03  0.27619841801E+03  0.00000000000E+00 0. -1.
         11    1    1    2    0    0  0.91620990434E+02  0.29363818286E+02 -0.92810215117E+02  0.13368012471E+03  0.00000000000E+00 0.  1.
<mgrwt>
<rscale>  0 0.21872327E+03</rscale>
<asrwt>0</asrwt>
<pdfrwt beam="2">  1        1 0.18599451E+00 0.22313710E+03</pdfrwt>
<pdfrwt beam="1">  1       -1 0.65873451E-02 0.22313710E+03</pdfrwt>
<totfact> 0.13104873E+03</totfact>
</mgrwt>
</event>
<event>
 6    1  0.4705246E-006  0.1475643E+03  0.7546771E-02  0.1212427E+00
          2   -1    0    0  501    0  0.00000000000E+00  0.00000000000E+00  0.17883906645E+03  0.17883906645E+03  0.00000000000E+00 0. -1.
         -2   -1    0    0    0  501 -0.00000000000E+00 -0.00000000000E+00 -0.10201934282E+03  0.10201934282E+03  0.00000000000E+00 0.  1.
          5    1    1    2  502    0 -0.53078121825E+02  0.22273480966E+02 -0.29159671813E+02  0.64697538060E+02  0.47000000000E+01 0. -1.
         -5    1    1    2    0  502  0.75899722771E+01  0.41610593110E+02  0.81376872975E+02  0.91833188953E+02  0.47000000000E+01 0. -1.
        -11    1    1    2    0    0  0.40656093678E+02 -0.27166189341E+02  0.57016307494E+02  0.75111777483E+02  0.00000000000E+00 0. -1.
         11    1    1    2    0    0  0.48320558698E+01 -0.36717884735E+02 -0.32413785023E+02  0.49215904776E+02  0.00000000000E+00 0.  1.
<mgrwt>
<rscale>  0 0.14067259E+03</rscale>
<asrwt>0</asrwt>
<pdfrwt beam="1">  1        2 0.27513703E-01 0.14756433E+03</pdfrwt>
<pdfrwt beam="2">  1       -2 0.15695284E-01 0.14756433E+03</pdfrwt>
<totfact> 0.58694194E+03</totfact>
</mgrwt>
</event>
<event>
 6    1  0.4705246E-006  0.1282306E+03  0.7546771E-02  0.1242088E+00
          4   -1    0    0  501    0  0.00000000000E+00  0.00000000000E+00  0.46298150860E+03  0.46298150860E+03  0.00000000000E+00 0. -1.
         -4   -1    0    0    0  501 -0.00000000000E+00 -0.00000000000E+00 -0.34743497829E+02  0.34743497829E+02  0.00000000000E+00 0.  1.
          5    1    1    2  502    0 -0.35034916183E+01  0.61147289596E+02  0.21066971705E+03  0.21944266941E+03  0.47000000000E+01 0. -1.
         -5    1    1    2    0  502 -0.35351679789E+02 -0.52395805438E+02  0.13183342534E+03  0.14627783061E+03  0.47000000000E+01 0.  1.
        -11    1    1    2    0    0  0.34015703924E+02 -0.48036547509E+02  0.38300847710E+02  0.70224874121E+02  0.00000000000E+00 0.  1.
         11    1    1    2    0    0  0.48394674831E+01  0.39285063351E+02  0.47434020681E+02  0.61779632291E+02  0.00000000000E+00 0. -1.
<mgrwt>
<rscale>  0 0.12061403E+03</rscale>
<asrwt>0</asrwt>
<pdfrwt beam="1">  1        4 0.71227920E-01 0.12823058E+03</pdfrwt>
<pdfrwt beam="2">  1       -4 0.53451538E-02 0.12823058E+03</pdfrwt>
<totfact> 0.64483858E+02</totfact>
</mgrwt>
</event>
<event>
 6    1  0.4705246E-006  0.1689861E+03  0.7546771E-02  0.1188086E+00
          1   -1    0    0  501    0  0.00000000000E+00  0.00000000000E+00  0.29975769737E+03  0.29975769737E+03  0.00000000000E+00 0. -1.
         -1   -1    0    0    0  501 -0.00000000000E+00 -0.00000000000E+00 -0.81752521072E+02  0.81752521072E+02  0.00000000000E+00 0.  1.
          5    1    1    2  502    0 -0.82872680128E+02 -0.88767721744E+01  0.15736995034E+03  0.17814058904E+03  0.47000000000E+01 0. -1.
         -5    1    1    2    0  502  0.85833890585E+01  0.52286298905E+02  0.62107195093E+00  0.53197813407E+02  0.47000000000E+01 0.  1.
        -11    1    1    2    0    0  0.28787519165E+02  0.13743695753E+02 -0.23196939188E+02  0.39442469754E+02  0.00000000000E+00 0.  1.
         11    1    1    2    0    0  0.45501771905E+02 -0.57153222484E+02  0.83211093197E+02  0.11072934624E+03  0.00000000000E+00 0. -1.
<mgrwt>
<rscale>  0 0.16054212E+03</rscale>
<asrwt>0</asrwt>
<pdfrwt beam="1">  1        1 0.46116568E-01 0.16898607E+03</pdfrwt>
<pdfrwt beam="2">  1       -1 0.12577311E-01 0.16898607E+03</pdfrwt>
<totfact> 0.36395079E+03</totfact>
</mgrwt>
</event>
<event>
 6    1  0.4705246E-006  0.1736852E+03  0.7546771E-02  0.1201279E+00
          1   -1    0    0  501    0  0.00000000000E+00  0.00000000000E+00  0.75810472979E+03  0.75810472979E+03  0.00000000000E+00 0. -1.
         -1   -1    0    0    0  501 -0.00000000000E+00 -0.00000000000E+00 -0.23804338772E+02  0.23804338772E+02  0.00000000000E+00 0.  1.
          5    1    1    2  502    0  0.69846773299E+02 -0.19177238803E+02  0.26791381706E+03  0.27757204759E+03  0.47000000000E+01 0. -1.
         -5    1    1    2    0  502 -0.92917406099E+02  0.24770557038E+02  0.21313225315E+03  0.23386892095E+03  0.47000000000E+01 0.  1.
        -11    1    1    2    0    0  0.42959947089E+02  0.25420009425E+02  0.88143881495E+02  0.10129697813E+03  0.00000000000E+00 0. -1.
         11    1    1    2    0    0 -0.19889314289E+02 -0.31013327660E+02  0.16511043931E+03  0.16917112190E+03  0.00000000000E+00 0.  1.
<mgrwt>
<rscale>  0 0.14934623E+03</rscale>
<asrwt>0</asrwt>
<pdfrwt beam="1">  1        1 0.11663148E+00 0.17368518E+03</pdfrwt>
<pdfrwt beam="2">  1       -1 0.36622065E-02 0.17368518E+03</pdfrwt>
<totfact> 0.68643077E+03</totfact>
</mgrwt>
</event>
<event>
 6    1  0.4705246E-006  0.2004720E+03  0.7546771E-02  0.1153480E+00
          2   -1    0    0  501    0  0.00000000000E+00  0.00000000000E+00  0.51697621731E+03  0.51697621731E+03  0.00000000000E+00 0. -1.
         -2   -1    0    0    0  501 -0.00000000000E+00 -0.00000000000E+00 -0.77199192203E+02  0.77199192203E+02  0.00000000000E+00 0.  1.
          5    1    1    2  502    0 -0.47096065899E+02 -0.25634174189E+02  0.16484124481E+02  0.56293575739E+02  0.47000000000E+01 0. -1.
         -5    1    1    2    0  502 -0.10631846154E+03 -0.64184339372E+01  0.29958489314E+03  0.31799058124E+03  0.47000000000E+01 0. -1.
        -11    1    1    2    0    0  0.78177821320E+01 -0.21425385223E+02  0.23080790671E+01  0.22923613990E+02  0.00000000000E+00 0.  1.
         11    1    1    2    0    0  0.14559674530E+03  0.53477993349E+02  0.12139992842E+03  0.19696763855E+03  0.00000000000E+00 0. -1.
<mgrwt>
<rscale>  0 0.19562943E+03</rscale>
<asrwt>0</asrwt>
<pdfrwt beam="1">  1        2 0.79534800E-01 0.20047196E+03</pdfrwt>
<pdfrwt beam="2">  1       -2 0.11876799E-01 0.20047196E+03</pdfrwt>
<totfact> 0.29767026E+03</totfact>
</mgrwt>
</event>
<event>
 6    1  0.4705246E-006  0.1718704E+03  0.7546771E-02  0.1181781E+00
         -2   -1    0    0    0  501 -0.00000000000E+00  0.00000000000E+00  0.17734706665E+03  0.17734706665E+03  0.00000000000E+00 0.  1.
          2   -1    0    0  501    0  0.00000000000E+00 -0.00000000000E+00 -0.19110029359E+03  0.19110029359E+03  0.00000000000E+00 0. -1.
          5    1    1    2  502    0  0.27977045757E+02  0.10944987588E+03 -0.70112764649E+02  0.13304089667E+03  0.47000000000E+01 0. -1.
         -5    1    1    2    0  502  0.53076877272E+02 -0.23748862108E+02 -0.25888519035E+02  0.63823732029E+02  0.47000000000E+01 0. -1.
        -11    1    1    2    0    0  0.19037454791E+02 -0.12633206695E+02 -0.87880082791E-03  0.22847813836E+02  0.00000000000E+00 0. -1.
         11    1    1    2    0    0 -0.10009137782E+03 -0.73067807080E+02  0.82248935551E+02  0.14873491770E+03  0.00000000000E+00 0.  1.
<mgrwt>
<rscale>  0 0.16628243E+03</rscale>
<asrwt>0</asrwt>
<pdfrwt beam="2">  1        2 0.29400045E-01 0.17187040E+03</pdfrwt>
<pdfrwt beam="1">  1       -2 0.27284164E-01 0.17187040E+03</pdfrwt>
<totfact> 0.21395348E+03</totfact>
</mgrwt>
</event>
<event>
 6    1  0.4705246E-006  0.2354519E+03  0.7546771E-02  0.1122860E+00
         -2   -1    0    0    0  501 -0.00000000000E+00  0.00000000000E+00  0.23955901087E+02  0.23955901087E+02  0.00000000000E+00 0.  1.
          2   -1    0    0  501    0  0.00000000000E+00 -0.00000000000E+00 -0.57853818063E+03  0.57853818063E+03  0.00000000000E+00 0. -1.
          5    1    1    2  502    0  0.76848602717E+00  0.25370637313E+01  0.10291837278E+02  0.11620635857E+02  0.47000000000E+01 0. -1.
         -5    1    1    2    0  502  0.31774141611E+02 -0.28741865112E+02 -0.35199453748E+03  0.35462365305E+03  0.47000000000E+01 0. -1.
        -11    1    1    2    0    0  0.21087854735E+02  0.24038731493E+02 -0.24250439683E+02  0.40132805209E+02  0.00000000000E+00 0.  1.
         11    1    1    2    0    0 -0.53630482373E+02  0.21660698871E+01 -0.18862913966E+03  0.19611698760E+03  0.00000000000E+00 0. -1.
<mgrwt>
<rscale>  0 0.23545194E+03</rscale>
<asrwt>0</asrwt>
<pdfrwt beam="2">  1        2 0.89005871E-01 0.23545194E+03</pdfrwt>
<pdfrwt beam="1">  1       -2 0.36855234E-02 0.23545194E+03</pdfrwt>
<totfact> 0.16130385E+04</totfact>
</mgrwt>
</event>
<event>
 6    1  0.4705246E-006  0.1405257E+03  0.7546771E-02  0.1217499E+00
         -2   -1    0    0    0  501 -0.00000000000E+00  0.00000000000E+00  0.31316396847E+02  0.31316396847E+02  0.00000000000E+00 0.  1.
          2   -1    0    0  501    0  0.00000000000E+00 -0.00000000000E+00 -0.92125895984E+03  0.92125895984E+03  0.00000000000E+00 0. -1.
          5    1    1    2  502    0 -0.34822778908E+02  0.70085893328E+02 -0.64614831479E+03  0.65088738894E+03  0.47000000000E+01 0. -1.
         -5    1    1    2    0  502 -0.37100903733E+02 -0.20837853912E+02 -0.10677880426E+03  0.11504128064E+03  0.47000000000E+01 0.  1.
        -11    1    1    2    0    0 -0.13915352475E+02  0.14290003931E+02 -0.21332149685E+02  0.29204483509E+02  0.00000000000E+00 0. -1.
         11    1    1    2    0    0  0.85839035115E+02 -0.63538043347E+02 -0.11568329426E+03  0.15744220359E+03  0.00000000000E+00 0.  1.
<mgrwt>
<rscale>  0 0.13694550E+03</rscale>
<asrwt>0</asrwt>
<pdfrwt beam="2">  1        2 0.14173215E+00 0.14052573E+03</pdfrwt>
<pdfrwt beam="1">  1       -2 0.48179070E-02 0.14052573E+03</pdfrwt>
<totfact> 0.59342949E+03</totfact>
</mgrwt>
</event>
<event>
 6    1  0.4705246E-006  0.1431572E+03  0.7546771E-02  0.1218902E+00
         -1   -1    0    0    0  501 -0.00000000000E+00  0.00000000000E+00  0.69628627109E+03  0.69628627109E+03  0.00000000000E+00 0.  1.
          1   -1    0    0  501    0  0.00000000000E+00 -0.00000000000E+00 -0.26895654920E+02  0.26895654920E+02  0.00000000000E+00 0. -1.
          5    1    1    2  502    0 -0.28231430604E+02 -0.73601272371E+02  0.26064093415E+03  0.27234160079E+03  0.47000000000E+01 0.  1.
         -5    1    1    2    0  502  0.12468840212E+02  0.56285879362E+01 -0.90956094636E+01  0.17087220075E+02  0.47000000000E+01 0.  1.
        -11    1    1    2    0    0  0.64724787838E+01  0.72443712952E+02  0.41712438630E+03  0.42341792377E+03  0.00000000000E+00 0.  1.
         11    1    1    2    0    0  0.92901116080E+01 -0.44710285171E+01  0.72090518931E+00  0.10335181371E+02  0.00000000000E+00 0. -1.
<mgrwt>
<rscale>  0 0.13593792E+03</rscale>
<asrwt>0</asrwt>
<pdfrwt beam="2">  1        1 0.41377936E-02 0.14315723E+03</pdfrwt>
<pdfrwt beam="1">  1       -1 0.10712095E+00 0.14315723E+03</pdfrwt>
<totfact> 0.18228328E+03</totfact>
</mgrwt>
</event>
<event>
 6    1  0.4705246E-006  0.1592754E+03  0.7546771E-02  0.1197610E+00
         -2   -1    0    0    0  501 -0.00000000000E+00  0.00000000000E+00  0.45220809564E+02  0.45220809564E+02  0.00000000000E+00 0.  1.
          2   -1    0    0  501    0  0.00000000000E+00 -0.00000000000E+00 -0.47507216702E+03  0.47507216702E+03  0.00000000000E+00 0. -1.
          5    1    1    2  502    0  0.37257743257E+02  0.50807408635E+01  0.12166739145E+01  0.37914689181E+02  0.47000000000E+01 0.  1.
         -5    1    1    2    0  502  0.60210923365E+02  0.10461870379E+02 -0.25063862146E+03  0.25802444572E+03  0.47000000000E+01 0.  1.
        -11    1    1    2    0    0 -0.62795717201E+02  0.19888537943E+02 -0.15547581064E+03  0.16885373473E+03  0.00000000000E+00 0. -1.
         11    1    1    2    0    0 -0.34672949420E+02 -0.35431149185E+02 -0.24953599273E+02  0.55500106944E+02  0.00000000000E+00 0.  1.
<mgrwt>
<rscale>  0 0.15235359E+03</rscale>
<asrwt>0</asrwt>
<pdfrwt beam="2">  1        2 0.73088028E-01 0.15927543E+03</pdfrwt>
<pdfrwt beam="1">  1       -2 0.69570474E-02 0.15927543E+03</pdfrwt>
<totfact> 0.74946009E+03</totfact>
</mgrwt>
</event>
<event>
 6    1  0.4705246E-006  0.2632255E+03  0.7546771E-02  0.1105221E+00
         -1   -1    0    0    0  501 -0.00000000000E+00  0.00000000000E+00  0.15441348655E+03  0.15441348655E+03  0.00000000000E+00 0.  1.
          1   -1    0    0  501    0  0.00000000000E+00 -0.00000000000E+00 -0.11217881584E+03  0.11217881584E+03  0.00000000000E+00 0. -1.
          5    1    1    2  502    0  0.10723782216E+02  0.95051423550E+01 -0.37330393697E+02  0.40261588764E+02  0.47000000000E+01 0.  1.
         -5    1    1    2    0  502 -0.61639782777E+02 -0.63476075954E+02  0.59628844376E+02  0.10680058109E+03  0.47000000000E+01 0.  1.
        -11    1    1    2    0    0 -0.20354534102E+02  0.33325311151E+02 -0.86797180043E+01  0.40002761485E+02  0.00000000000E+00 0.  1.
         11    1    1    2    0    0  0.71270534663E+02  0.20645622448E+02  0.28615938030E+02  0.79527371054E+02  0.00000000000E+00 0. -1.
<mgrwt>
<rscale>  0 0.26322555E+03</rscale>
<asrwt>0</asrwt>
<pdfrwt beam="2">  1        1 0.17258279E-01 0.26322555E+03</pdfrwt>
<pdfrwt beam="1">  1       -1 0.23755921E-01 0.26322555E+03</pdfrwt>
<totfact> 0.46561153E+03</totfact>
</mgrwt>
</event>
<event>
 6    1  0.4705246E-006  0.1575121E+03  0.7546771E-02  0.1199808E+00
         -1   -1    0    0    0  501 -0.00000000000E+00  0.00000000000E+00  0.11113523212E+02  0.11113523212E+02  0.00000000000E+00 0.  1.
          1   -1    0    0  501    0  0.00000000000E+00 -0.00000000000E+00 -0.21348108978E+04  0.21348108978E+04  0.00000000000E+00 0. -1.
          5    1    1    2  502    0 -0.50381979871E+00  0.22548957221E+02 -0.72907747802E+02  0.76461356225E+02  0.47000000000E+01 0. -1.
         -5    1    1    2    0  502  0.55456143947E+02 -0.10106952450E+03 -0.14440191575E+04  0.14486213618E+04  0.47000000000E+01 0. -1.
        -11    1    1    2    0    0 -0.69471526539E+02  0.89081421689E+02 -0.54071370010E+03  0.55238853913E+03  0.00000000000E+00 0. -1.
         11    1    1    2    0    0  0.14519202391E+02 -0.10560854411E+02 -0.66056769146E+02  0.68453163798E+02  0.00000000000E+00 0.  1.
<mgrwt>
<rscale>  0 0.15054267E+03</rscale>
<asrwt>0</asrwt>
<pdfrwt beam="2">  1        1 0.32843235E+00 0.15751210E+03</pdfrwt>
<pdfrwt beam="1">  1       -1 0.17097733E-02 0.15751210E+03</pdfrwt>
<totfact> 0.23809265E+03</totfact>
</mgrwt>
</event>
<event>
 6    1  0.4705246E-006  0.1280862E+03  0.7546771E-02  0.1239283E+00
          4   -1    0    0  501    0  0.00000000000E+00  0.00000000000E+00  0.38783739055E+03  0.38783739055E+03  0.00000000000E+00 0. -1.
         -4   -1    0    0    0  501 -0.00000000000E+00 -0.00000000000E+00 -0.35511453401E+02  0.35511453401E+02  0.00000000000E+00 0.  1.
          5    1    1    2  502    0  0.12652861623E+01  0.33262430108E+02  0.18922635418E+03  0.19218921230E+03  0.47000000000E+01 0.  1.
         -5    1    1    2    0  502 -0.27501722922E+02 -0.23680741312E+02  0.34421116687E+00  0.36596868092E+02  0.47000000000E+01 0.  1.
        -11    1    1    2    0    0  0.38843608288E+02 -0.39746788655E+02  0.14912010717E+03  0.15913968542E+03  0.00000000000E+00 0. -1.
         11    1    1    2    0    0 -0.12607171528E+02  0.30165099860E+02  0.13635264627E+02  0.35423078140E+02  0.00000000000E+00 0.  1.
<mgrwt>
<rscale>  0 0.12234173E+03</rscale>
<asrwt>0</asrwt>
<pdfrwt beam="1">  1        4 0.59667288E-01 0.12808619E+03</pdfrwt>
<pdfrwt beam="2">  1       -4 0.54633008E-02 0.12808619E+03</pdfrwt>
<totfact> 0.90720475E+02</totfact>
</mgrwt>
</event>
<event>
 6    1  0.4705246E-006  0.1486277E+03  0.7546771E-02  0.1211448E+00
         -1   -1    0    0    0  501 -0.00000000000E+00  0.00000000000E+00  0.15838732349E+02  0.15838732349E+02  0.00000000000E+00 0.  1.
          1   -1    0    0  501    0  0.00000000000E+00 -0.00000000000E+00 -0.11549379866E+04  0.11549379866E+04  0.00000000000E+00 0. -1.
          5    1    1    2  502    0  0.19265006234E+02  0.27709311379E+02 -0.51289588329E+03  0.51402648132E+03  0.47000000000E+01 0. -1.
         -5    1    1    2    0  502  0.58811027806E+02 -0.84857832162E+01 -0.98116166515E+02  0.11480251583E+03  0.47000000000E+01 0. -1.
        -11    1    1    2    0    0 -0.61363989395E+02 -0.49393026632E+02 -0.44610228197E+03  0.45300381483E+03  0.00000000000E+00 0.  1.
         11    1    1    2    0    0 -0.16712044645E+02  0.30169498469E+02 -0.81984922502E+02  0.88943906996E+02  0.00000000000E+00 0. -1.
<mgrwt>
<rscale>  0 0.14140733E+03</rscale>
<asrwt>0</asrwt>
<pdfrwt beam="2">  1        1 0.17768281E+00 0.14862766E+03</pdfrwt>
<pdfrwt beam="1">  1       -1 0.24367274E-02 0.14862766E+03</pdfrwt>
<totfact> 0.61858561E+03</totfact>
</mgrwt>
</event>
<event>
 6    1  0.4705246E-006  0.4446038E+03  0.7546771E-02  0.1029344E+00
          1   -1    0    0  501    0  0.00000000000E+00  0.00000000000E+00  0.34828099750E+03  0.34828099750E+03  0.00000000000E+00 0. -1.
         -1   -1    0    0    0  501 -0.00000000000E+00 -0.00000000000E+00 -0.14189158829E+03  0.14189158829E+03  0.00000000000E+00 0.  1.
          5    1    1    2  502    0 -0.40564988551E+02  0.18872902805E+02  0.14387591234E+02  0.47231319460E+02  0.47000000000E+01 0.  1.
         -5    1    1    2    0  502  0.41275674505E+02  0.15187845695E+03  0.19273971829E+03  0.24888036483E+03  0.47000000000E+01 0.  1.
        -11    1    1    2    0    0 -0.13918727508E+02 -0.65678003894E+02  0.42735990173E+02  0.79584521278E+02  0.00000000000E+00 0. -1.
         11    1    1    2    0    0  0.13208041554E+02 -0.10507335586E+03 -0.43473890488E+02  0.11447638022E+03  0.00000000000E+00 0.  1.
<mgrwt>
<rscale>  0 0.44460384E+03</rscale>
<asrwt>0</asrwt>
<pdfrwt beam="1">  1        1 0.53581692E-01 0.44460384E+03</pdfrwt>
<pdfrwt beam="2">  1       -1 0.21829475E-01 0.44460384E+03</pdfrwt>
<totfact> 0.12696997E+03</totfact>
</mgrwt>
</event>
<event>
 6    1  0.4705246E-006  0.1775204E+03  0.7546771E-02  0.1176275E+00
          1   -1    0    0  501    0  0.00000000000E+00  0.00000000000E+00  0.10128379595E+04  0.10128379595E+04  0.00000000000E+00 0. -1.
         -1   -1    0    0    0  501 -0.00000000000E+00 -0.00000000000E+00 -0.28151492783E+02  0.28151492783E+02  0.00000000000E+00 0.  1.
          5    1    1    2  502    0  0.67164087010E+02 -0.32985344702E+02  0.12664124180E+03  0.14717045109E+03  0.47000000000E+01 0. -1.
         -5    1    1    2    0  502 -0.34450459603E+02 -0.88745365614E+02  0.30512228648E+03  0.31966275008E+03  0.47000000000E+01 0. -1.
        -11    1    1    2    0    0  0.19073118131E+02  0.70655221280E+02  0.18188990299E+03  0.19606091130E+03  0.00000000000E+00 0.  1.
         11    1    1    2    0    0 -0.51786745538E+02  0.51075489037E+02  0.37103303545E+03  0.37809533982E+03  0.00000000000E+00 0. -1.
<mgrwt>
<rscale>  0 0.17151722E+03</rscale>
<asrwt>0</asrwt>
<pdfrwt beam="1">  1        1 0.15582120E+00 0.17752040E+03</pdfrwt>
<pdfrwt beam="2">  1       -1 0.43309997E-02 0.17752040E+03</pdfrwt>
<totfact> 0.33812490E+03</totfact>
</mgrwt>
</event>
<event>
 6    1  0.4705246E-006  0.1301849E+03  0.7546771E-02  0.1241270E+00
         -2   -1    0    0    0  501 -0.00000000000E+00  0.00000000000E+00  0.38726254608E+02  0.38726254608E+02  0.00000000000E+00 0. -1.
          2   -1    0    0  501    0  0.00000000000E+00 -0.00000000000E+00 -0.54581028655E+03  0.54581028655E+03  0.00000000000E+00 0.  1.
          5    1    1    2  502    0 -0.38829286954E+02 -0.64592975126E+02 -0.39147209987E+03  0.39868842589E+03  0.47000000000E+01 0. -1.
         -5    1    1    2    0  502  0.21464294497E+02  0.32643756863E+02 -0.64981132939E+02  0.75966890409E+02  0.47000000000E+01 0. -1.
        -11    1    1    2    0    0  0.41929137988E+02  0.38340216478E+02 -0.42063661488E+01  0.56971206133E+02  0.00000000000E+00 0. -1.
         11    1    1    2    0    0 -0.24564145531E+02 -0.63909982151E+01 -0.46424432985E+02  0.52910018728E+02  0.00000000000E+00 0.  1.
<mgrwt>
<rscale>  0 0.12111430E+03</rscale>
<asrwt>0</asrwt>
<pdfrwt beam="2">  1        2 0.83970807E-01 0.13018493E+03</pdfrwt>
<pdfrwt beam="1">  1       -2 0.59578858E-02 0.13018493E+03</pdfrwt>
<totfact> 0.80451536E+03</totfact>
</mgrwt>
</event>
<event>
 6    1  0.4705246E-006  0.2606120E+03  0.7546771E-02  0.1106776E+00
         -2   -1    0    0    0  501 -0.00000000000E+00  0.00000000000E+00  0.38897778602E+02  0.38897778602E+02  0.00000000000E+00 0.  1.
          2   -1    0    0  501    0  0.00000000000E+00 -0.00000000000E+00 -0.43651973807E+03  0.43651973807E+03  0.00000000000E+00 0. -1.
          5    1    1    2  502    0 -0.36884249019E+02 -0.14446450710E+02 -0.92363132079E+02  0.10060907480E+03  0.47000000000E+01 0.  1.
         -5    1    1    2    0  502  0.83108812341E+02  0.53129597162E+02 -0.20528090689E+03  0.22779852835E+03  0.47000000000E+01 0.  1.
        -11    1    1    2    0    0 -0.54997113809E+02  0.12034017894E+02 -0.53252972405E+02  0.77494381629E+02  0.00000000000E+00 0. -1.
         11    1    1    2    0    0  0.87725504865E+01 -0.50717164346E+02 -0.46724948096E+02  0.69515531904E+02  0.00000000000E+00 0.  1.
<mgrwt>
<rscale>  0 0.26061196E+03</rscale>
<asrwt>0</asrwt>
<pdfrwt beam="2">  1        2 0.67156884E-01 0.26061196E+03</pdfrwt>
<pdfrwt beam="1">  1       -2 0.59842735E-02 0.26061196E+03</pdfrwt>
<totfact> 0.10667969E+04</totfact>
</mgrwt>
</event>
<event>
 6    1  0.4705246E-006  0.1508013E+03  0.7546771E-02  0.1208002E+00
         -2   -1    0    0    0  501 -0.00000000000E+00  0.00000000000E+00  0.96693291804E+02  0.96693291804E+02  0.00000000000E+00 0.  1.
          2   -1    0    0  501    0  0.00000000000E+00 -0.00000000000E+00 -0.20664671161E+03  0.20664671161E+03  0.00000000000E+00 0. -1.
          5    1    1    2  502    0 -0.87142185317E+02  0.61789666255E+01 -0.17259749919E+02  0.89173589462E+02  0.47000000000E+01 0. -1.
         -5    1    1    2    0  502  0.17721937862E+02  0.41752850771E+02 -0.74508002948E+02  0.87355023510E+02  0.47000000000E+01 0. -1.
        -11    1    1    2    0    0  0.24216620251E+02 -0.55355240282E+02  0.23543254428E+02  0.64845448199E+02  0.00000000000E+00 0. -1.
         11    1    1    2    0    0  0.45203627204E+02  0.74234228858E+01 -0.41728921368E+02  0.61965942244E+02  0.00000000000E+00 0.  1.
<mgrwt>
<rscale>  0 0.14403409E+03</rscale>
<asrwt>0</asrwt>
<pdfrwt beam="2">  1        2 0.31791802E-01 0.15080130E+03</pdfrwt>
<pdfrwt beam="1">  1       -2 0.14875891E-01 0.15080130E+03</pdfrwt>
<totfact> 0.54844230E+03</totfact>
</mgrwt>
</event>
<event>
 6    1  0.4705246E-006  0.5243383E+03  0.7546771E-02  0.1007614E+00
         -3   -1    0    0    0  501 -0.00000000000E+00  0.00000000000E+00  0.29485493862E+03  0.29485493862E+03  0.00000000000E+00 0.  1.
          3   -1    0    0  501    0  0.00000000000E+00 -0.00000000000E+00 -0.23310672015E+03  0.23310672015E+03  0.00000000000E+00 0. -1.
          5    1    1    2  502    0 -0.12941738948E+03 -0.85879254826E+02 -0.68841997714E+02  0.16995710564E+03  0.47000000000E+01 0. -1.
         -5    1    1    2    0  502 -0.41651758475E+02 -0.80065813683E+01  0.46194267489E+02  0.62888589411E+02  0.47000000000E+01 0. -1.
        -11    1    1    2    0    0  0.69165543678E+02  0.11862329014E+03 -0.29341483697E+02  0.14041467181E+03  0.00000000000E+00 0.  1.
         11    1    1    2    0    0  0.10190360427E+03 -0.24737453941E+02  0.11373743238E+03  0.15470129190E+03  0.00000000000E+00 0. -1.
<mgrwt>
<rscale>  0 0.52433832E+03</rscale>
<asrwt>0</asrwt>
<pdfrwt beam="2">  1        3 0.35862572E-01 0.52433832E+03</pdfrwt>
<pdfrwt beam="1">  1       -3 0.45362298E-01 0.52433832E+03</pdfrwt>
<totfact> 0.97186886E+01</totfact>
</mgrwt>
</event>
<event>
 6    1  0.4705246E-006  0.1360008E+03  0.7546771E-02  0.1231701E+00
         -1   -1    0    0    0  501 -0.00000000000E+00  0.00000000000E+00  0.11783795482E+03  0.11783795482E+03  0.00000000000E+00 0.  1.
          1   -1    0    0  501    0  0.00000000000E+00 -0.00000000000E+00 -0.13145303930E+03  0.13145303930E+03  0.00000000000E+00 0. -1.
          5    1    1    2  502    0  0.29724219025E+02  0.44773075821E+02 -0.72825459610E+02  0.90629989973E+02  0.47000000000E+01 0. -1.
         -5    1    1    2    0  502 -0.38609186095E+02  0.80614879518E+01  0.32391847731E+02  0.51254059726E+02  0.47000000000E+01 0. -1.
        -11    1    1    2    0    0  0.19003908274E+02 -0.36415289301E+02 -0.27722887054E+02  0.49555830042E+02  0.00000000000E+00 0. -1.
         11    1    1    2    0    0 -0.10118941204E+02 -0.16419274471E+02  0.54541414451E+02  0.57851114385E+02  0.00000000000E+00 0.  1.
<mgrwt>
<rscale>  0 0.12718018E+03</rscale>
<asrwt>0</asrwt>
<pdfrwt beam="2">  1        1 0.20223545E-01 0.13600076E+03</pdfrwt>
<pdfrwt beam="1">  1       -1 0.18128916E-01 0.13600076E+03</pdfrwt>
<totfact> 0.56751164E+03</totfact>
</mgrwt>
</event>
<event>
 6    1  0.4705246E-006  0.1264337E+03  0.7546771E-02  0.1247871E+00
          1   -1    0    0  501    0  0.00000000000E+00  0.00000000000E+00  0.38788642334E+02  0.38788642334E+02  0.00000000000E+00 0. -1.
         -1   -1    0    0    0  501 -0.00000000000E+00 -0.00000000000E+00 -0.34149629888E+03  0.34149629888E+03  0.00000000000E+00 0.  1.
          5    1    1    2  502    0  0.41226557490E+02 -0.54235738419E+01 -0.13473057017E+03  0.14107962551E+03  0.47000000000E+01 0.  1.
         -5    1    1    2    0  502 -0.22308555814E+02  0.71802800268E+01  0.18837720633E+02  0.30433169444E+02  0.47000000000E+01 0.  1.
        -11    1    1    2    0    0  0.23839904671E+02 -0.26766395514E+02 -0.12223795299E+03  0.12738484264E+03  0.00000000000E+00 0.  1.
         11    1    1    2    0    0 -0.42757906347E+02  0.25009689329E+02 -0.64576854021E+02  0.81387303621E+02  0.00000000000E+00 0. -1.
<mgrwt>
<rscale>  0 0.11715205E+03</rscale>
<asrwt>0</asrwt>
<pdfrwt beam="1">  1        1 0.59674835E-02 0.12643372E+03</pdfrwt>
<pdfrwt beam="2">  1       -1 0.52537891E-01 0.12643372E+03</pdfrwt>
<totfact> 0.46358631E+03</totfact>
</mgrwt>
</event>
<event>
 6    1  0.4705246E-006  0.1899749E+03  0.7546771E-02  0.1163366E+00
         -2   -1    0    0    0  501 -0.00000000000E+00  0.00000000000E+00  0.27921100401E+02  0.27921100401E+02  0.00000000000E+00 0.  1.
          2   -1    0    0  501    0  0.00000000000E+00 -0.00000000000E+00 -0.11712610347E+04  0.11712610347E+04  0.00000000000E+00 0. -1.
          5    1    1    2  502    0 -0.82217538447E+01 -0.38363035307E+02 -0.20067012986E+03  0.20452361901E+03  0.47000000000E+01 0.  1.
         -5    1    1    2    0  502  0.14139194765E+03 -0.13891718199E+02 -0.33850377321E+03  0.36713969708E+03  0.47000000000E+01 0.  1.
        -11    1    1    2    0    0  0.38418095690E+01 -0.11006403739E+02 -0.13302718279E+02  0.17687926324E+02  0.00000000000E+00 0.  1.
         11    1    1    2    0    0 -0.13701200338E+03  0.63261157245E+02 -0.59086331298E+03  0.60983089272E+03  0.00000000000E+00 0. -1.
<mgrwt>
<rscale>  0 0.18466173E+03</rscale>
<asrwt>0</asrwt>
<pdfrwt beam="2">  1        2 0.18019405E+00 0.18997486E+03</pdfrwt>
<pdfrwt beam="1">  1       -2 0.42955529E-02 0.18997486E+03</pdfrwt>
<totfact> 0.50690115E+03</totfact>
</mgrwt>
</event>
<event>
 6    1  0.4705246E-006  0.1431128E+03  0.7546771E-02  0.1219508E+00
         -2   -1    0    0    0  501 -0.00000000000E+00  0.00000000000E+00  0.21074831315E+02  0.21074831315E+02  0.00000000000E+00 0.  1.
          2   -1    0    0  501    0  0.00000000000E+00 -0.00000000000E+00 -0.11248821467E+04  0.11248821467E+04  0.00000000000E+00 0. -1.
          5    1    1    2  502    0  0.35665609636E+02  0.19585291980E+02 -0.69736899387E+03  0.69857084321E+03  0.47000000000E+01 0.  1.
         -5    1    1    2    0  502  0.19428928230E+02 -0.62252646485E+02 -0.20785053333E+03  0.21789173792E+03  0.47000000000E+01 0.  1.
        -11    1    1    2    0    0 -0.24768484466E+02  0.67068032469E+02 -0.15711270597E+03  0.17261518235E+03  0.00000000000E+00 0. -1.
         11    1    1    2    0    0 -0.30326053399E+02 -0.24400677965E+02 -0.41475082171E+02  0.56879214490E+02  0.00000000000E+00 0.  1.
<mgrwt>
<rscale>  0 0.13550526E+03</rscale>
<asrwt>0</asrwt>
<pdfrwt beam="2">  1        2 0.17305879E+00 0.14311279E+03</pdfrwt>
<pdfrwt beam="1">  1       -2 0.32422817E-02 0.14311279E+03</pdfrwt>
<totfact> 0.81041895E+03</totfact>
</mgrwt>
</event>
<event>
 6    1  0.4705246E-006  0.1269821E+03  0.7546771E-02  0.1254047E+00
          1   -1    0    0  501    0  0.00000000000E+00  0.00000000000E+00  0.48115204807E+03  0.48115204807E+03  0.00000000000E+00 0. -1.
         -1   -1    0    0    0  501 -0.00000000000E+00 -0.00000000000E+00 -0.26601965419E+02  0.26601965419E+02  0.00000000000E+00 0.  1.
          5    1    1    2  502    0  0.49408422708E+01 -0.29532089917E+02  0.12221969763E+02  0.32680618141E+02  0.47000000000E+01 0. -1.
         -5    1    1    2    0  502  0.15197402798E+02  0.19860428689E+02  0.35434098960E+03  0.35525346528E+03  0.47000000000E+01 0. -1.
        -11    1    1    2    0    0  0.28432632458E+02  0.66887197188E+01  0.17127828005E+02  0.33860242942E+02  0.00000000000E+00 0.  1.
         11    1    1    2    0    0 -0.48570877526E+02  0.29829415094E+01  0.70859295288E+02  0.85959687135E+02  0.00000000000E+00 0. -1.
<mgrwt>
<rscale>  0 0.11359880E+03</rscale>
<asrwt>0</asrwt>
<pdfrwt beam="1">  1        1 0.74023385E-01 0.12698208E+03</pdfrwt>
<pdfrwt beam="2">  1       -1 0.40926104E-02 0.12698208E+03</pdfrwt>
<totfact> 0.10687014E+04</totfact>
</mgrwt>
</event>
<event>
 6    1  0.4705246E-006  0.3834196E+03  0.7546771E-02  0.1049677E+00
          2   -1    0    0  501    0  0.00000000000E+00  0.00000000000E+00  0.57280429356E+03  0.57280429356E+03  0.00000000000E+00 0. -1.
         -2   -1    0    0    0  501 -0.00000000000E+00 -0.00000000000E+00 -0.64162660062E+02  0.64162660062E+02  0.00000000000E+00 0.  1.
          5    1    1    2  502    0 -0.15344927736E+02 -0.10108206906E+02  0.87671283975E+02  0.89699424122E+02  0.47000000000E+01 0.  1.
         -5    1    1    2    0  502  0.29617607526E+02  0.16564939551E+03  0.21406895616E+03  0.27233165975E+03  0.47000000000E+01 0.  1.
        -11    1    1    2    0    0  0.20506471144E+02 -0.20925028471E+02  0.48920887142E+01  0.29703614381E+02  0.00000000000E+00 0.  1.
         11    1    1    2    0    0 -0.34779150934E+02 -0.13461616014E+03  0.20200930465E+03  0.24523225537E+03  0.00000000000E+00 0. -1.
<mgrwt>
<rscale>  0 0.38341960E+03</rscale>
<asrwt>0</asrwt>
<pdfrwt beam="1">  1        2 0.88123734E-01 0.38341960E+03</pdfrwt>
<pdfrwt beam="2">  1       -2 0.98711789E-02 0.38341960E+03</pdfrwt>
<totfact> 0.36283465E+03</totfact>
</mgrwt>
</event>
<event>
 6    1  0.4705246E-006  0.1810493E+03  0.7546771E-02  0.1172045E+00
         -3   -1    0    0    0  501 -0.00000000000E+00  0.00000000000E+00  0.16005822740E+03  0.16005822740E+03  0.00000000000E+00 0.  1.
          3   -1    0    0  501    0  0.00000000000E+00 -0.00000000000E+00 -0.20043966325E+03  0.20043966325E+03  0.00000000000E+00 0. -1.
          5    1    1    2  502    0 -0.83604767614E+01  0.16526184788E+02  0.16421863532E+02  0.25194839892E+02  0.47000000000E+01 0. -1.
         -5    1    1    2    0  502 -0.38439557727E+02 -0.13884924838E+03 -0.91940143958E+02  0.17097307813E+03  0.47000000000E+01 0. -1.
        -11    1    1    2    0    0  0.57161354048E+02  0.12584353912E+03  0.49019943554E+02  0.14665255403E+03  0.00000000000E+00 0.  1.
         11    1    1    2    0    0 -0.10361319560E+02 -0.35204755286E+01 -0.13883098984E+02  0.17677418600E+02  0.00000000000E+00 0. -1.
<mgrwt>
<rscale>  0 0.17568568E+03</rscale>
<asrwt>0</asrwt>
<pdfrwt beam="2">  1        3 0.30836871E-01 0.18104928E+03</pdfrwt>
<pdfrwt beam="1">  1       -3 0.24624343E-01 0.18104928E+03</pdfrwt>
<totfact> 0.38004144E+02</totfact>
</mgrwt>
</event>
<event>
 6    1  0.4705246E-006  0.1516476E+03  0.7546771E-02  0.1207153E+00
         -1   -1    0    0    0  501 -0.00000000000E+00  0.00000000000E+00  0.41815659313E+02  0.41815659313E+02  0.00000000000E+00 0.  1.
          1   -1    0    0  501    0  0.00000000000E+00 -0.00000000000E+00 -0.49562578392E+03  0.49562578392E+03  0.00000000000E+00 0. -1.
          5    1    1    2  502    0  0.17347937040E+02  0.10261883236E+02  0.40567407599E+00  0.20700525079E+02  0.47000000000E+01 0. -1.
         -5    1    1    2    0  502  0.90618403177E+01 -0.91955275610E+02 -0.31896693505E+03  0.33211426546E+03  0.47000000000E+01 0. -1.
        -11    1    1    2    0    0  0.56390435536E+01 -0.15856635086E+02 -0.28359350494E+01  0.17066757632E+02  0.00000000000E+00 0.  1.
         11    1    1    2    0    0 -0.32048820911E+02  0.97550027460E+02 -0.13241292858E+03  0.16755989507E+03  0.00000000000E+00 0. -1.
<mgrwt>
<rscale>  0 0.14469075E+03</rscale>
<asrwt>0</asrwt>
<pdfrwt beam="2">  1        1 0.76250122E-01 0.15164762E+03</pdfrwt>
<pdfrwt beam="1">  1       -1 0.64331782E-02 0.15164762E+03</pdfrwt>
<totfact> 0.53196576E+03</totfact>
</mgrwt>
</event>
<event>
 6    1  0.4705246E-006  0.1521768E+03  0.7546771E-02  0.1208710E+00
          2   -1    0    0  501    0  0.00000000000E+00  0.00000000000E+00  0.21287719729E+04  0.21287719729E+04  0.00000000000E+00 0. -1.
         -2   -1    0    0    0  501 -0.00000000000E+00 -0.00000000000E+00 -0.17766324321E+02  0.17766324321E+02  0.00000000000E+00 0.  1.
          5    1    1    2  502    0 -0.21022427658E+01  0.11404867324E+03  0.17062743416E+04  0.17100893947E+04  0.47000000000E+01 0.  1.
         -5    1    1    2    0  502  0.66455293810E+01 -0.27353599059E+02  0.17319125821E+03  0.17552687647E+03  0.47000000000E+01 0.  1.
        -11    1    1    2    0    0  0.31855367338E+02 -0.69772704009E+02  0.17949526480E+03  0.19519616989E+03  0.00000000000E+00 0. -1.
         11    1    1    2    0    0 -0.36398653953E+02 -0.16922370169E+02  0.52044783974E+02  0.65725856104E+02  0.00000000000E+00 0.  1.
<mgrwt>
<rscale>  0 0.14348883E+03</rscale>
<asrwt>0</asrwt>
<pdfrwt beam="1">  1        2 0.32750318E+00 0.15217681E+03</pdfrwt>
<pdfrwt beam="2">  1       -2 0.27332823E-02 0.15217681E+03</pdfrwt>
<totfact> 0.31008670E+03</totfact>
</mgrwt>
</event>
<event>
 6    1  0.4705246E-006  0.1477366E+03  0.7546771E-02  0.1213568E+00
         -2   -1    0    0    0  501 -0.00000000000E+00  0.00000000000E+00  0.14799796880E+02  0.14799796880E+02  0.00000000000E+00 0.  1.
          2   -1    0    0  501    0  0.00000000000E+00 -0.00000000000E+00 -0.13754827483E+04  0.13754827483E+04  0.00000000000E+00 0. -1.
          5    1    1    2  502    0 -0.97260256453E+01 -0.32947106018E+02 -0.26487535011E+03  0.26713507532E+03  0.47000000000E+01 0. -1.
         -5    1    1    2    0  502  0.16269788056E+02  0.11142452379E+03 -0.72906068562E+03  0.73772061366E+03  0.47000000000E+01 0. -1.
        -11    1    1    2    0    0 -0.47215213186E+01  0.10176118718E+02 -0.38604162915E+01  0.11863767094E+02  0.00000000000E+00 0.  1.
         11    1    1    2    0    0 -0.18222410924E+01 -0.88653536490E+02 -0.36288649938E+03  0.37356308908E+03  0.00000000000E+00 0. -1.
<mgrwt>
<rscale>  0 0.13982276E+03</rscale>
<asrwt>0</asrwt>
<pdfrwt beam="2">  1        2 0.21161277E+00 0.14773663E+03</pdfrwt>
<pdfrwt beam="1">  1       -2 0.22768914E-02 0.14773663E+03</pdfrwt>
<totfact> 0.99346911E+03</totfact>
</mgrwt>
</event>
<event>
 6    1  0.4705246E-006  0.4259231E+03  0.7546771E-02  0.1035156E+00
         -1   -1    0    0    0  501 -0.00000000000E+00  0.00000000000E+00  0.46124214370E+03  0.46124214370E+03  0.00000000000E+00 0.  1.
          1   -1    0    0  501    0  0.00000000000E+00 -0.00000000000E+00 -0.98327145096E+02  0.98327145096E+02  0.00000000000E+00 0. -1.
          5    1    1    2  502    0  0.13323803654E+02  0.16338372322E+03  0.70517843983E+02  0.17851224349E+03  0.47000000000E+01 0. -1.
         -5    1    1    2    0  502 -0.44880153469E+02  0.90479360943E+01  0.51018275674E+02  0.68709881209E+02  0.47000000000E+01 0. -1.
        -11    1    1    2    0    0  0.25327845344E+02 -0.68148724641E+02  0.17255402130E+03  0.18724486291E+03  0.00000000000E+00 0.  1.
         11    1    1    2    0    0  0.62285044715E+01 -0.10428293467E+03  0.68824857649E+02  0.12510230119E+03  0.00000000000E+00 0. -1.
<mgrwt>
<rscale>  0 0.42592311E+03</rscale>
<asrwt>0</asrwt>
<pdfrwt beam="2">  1        1 0.15127253E-01 0.42592311E+03</pdfrwt>
<pdfrwt beam="1">  1       -1 0.70960329E-01 0.42592311E+03</pdfrwt>
<totfact> 0.77069965E+02</totfact>
</mgrwt>
</event>
<event>
 6    1  0.4705246E-006  0.2510634E+03  0.7546771E-02  0.1112635E+00
          1   -1    0    0  501    0  0.00000000000E+00  0.00000000000E+00  0.12665748158E+03  0.12665748158E+03  0.00000000000E+00 0. -1.
         -1   -1    0    0    0  501 -0.00000000000E+00 -0.00000000000E+00 -0.12441594155E+03  0.12441594155E+03  0.00000000000E+00 0.  1.
          5    1    1    2  502    0 -0.29520060780E+01 -0.34753626982E+02  0.48881316070E+02  0.60232897896E+02  0.47000000000E+01 0.  1.
         -5    1    1    2    0  502 -0.10422483911E+02  0.79469070650E+02 -0.45789860999E+01  0.80417774618E+02  0.47000000000E+01 0.  1.
        -11    1    1    2    0    0 -0.33201051858E+02 -0.28438191463E+02 -0.42659956558E+02  0.61081195729E+02  0.00000000000E+00 0.  1.
         11    1    1    2    0    0  0.46575541847E+02 -0.16277252205E+02  0.59916662281E+00  0.49341554884E+02  0.00000000000E+00 0. -1.
<mgrwt>
<rscale>  0 0.25106342E+03</rscale>
<asrwt>0</asrwt>
<pdfrwt beam="1">  1        1 0.19485766E-01 0.25106342E+03</pdfrwt>
<pdfrwt beam="2">  1       -1 0.19140914E-01 0.25106342E+03</pdfrwt>
<totfact> 0.56539590E+03</totfact>
</mgrwt>
</event>
<event>
 6    1  0.4705246E-006  0.1257751E+03  0.7546771E-02  0.1256023E+00
         -2   -1    0    0    0  501 -0.00000000000E+00  0.00000000000E+00  0.72203457246E+02  0.72203457246E+02  0.00000000000E+00 0.  1.
          2   -1    0    0  501    0  0.00000000000E+00 -0.00000000000E+00 -0.14774956591E+03  0.14774956591E+03  0.00000000000E+00 0. -1.
          5    1    1    2  502    0 -0.18292588761E+01  0.84725170351E+01 -0.93330420145E+02  0.93849811174E+02  0.47000000000E+01 0. -1.
         -5    1    1    2    0  502 -0.64403914416E+01  0.27313120245E+01  0.41381733619E+02  0.42231227600E+02  0.47000000000E+01 0. -1.
        -11    1    1    2    0    0 -0.27586582046E+02  0.18579091950E+02 -0.47650332944E+01  0.33599221851E+02  0.00000000000E+00 0.  1.
         11    1    1    2    0    0  0.35856232364E+02 -0.29782921010E+02 -0.18832388845E+02  0.50272762534E+02  0.00000000000E+00 0. -1.
<mgrwt>
<rscale>  0 0.11249247E+03</rscale>
<asrwt>0</asrwt>
<pdfrwt beam="2">  1        2 0.22730702E-01 0.12577513E+03</pdfrwt>
<pdfrwt beam="1">  1       -2 0.11108224E-01 0.12577513E+03</pdfrwt>
<totfact> 0.12501929E+04</totfact>
</mgrwt>
</event>
<event>
 6    1  0.4705246E-006  0.1254155E+03  0.7546771E-02  0.1249429E+00
          2   -1    0    0  501    0  0.00000000000E+00  0.00000000000E+00  0.51189054041E+03  0.51189054041E+03  0.00000000000E+00 0. -1.
         -2   -1    0    0    0  501 -0.00000000000E+00 -0.00000000000E+00 -0.29082763055E+02  0.29082763055E+02  0.00000000000E+00 0.  1.
          5    1    1    2  502    0  0.45506538150E+02  0.49361684506E+02  0.18296000931E+03  0.19494582817E+03  0.47000000000E+01 0.  1.
         -5    1    1    2    0  502 -0.31911205606E+02 -0.46853433550E+02  0.20798658596E+03  0.21562485761E+03  0.47000000000E+01 0.  1.
        -11    1    1    2    0    0 -0.17211706486E+02 -0.27788277221E+02  0.98694744074E+02  0.10396674324E+03  0.00000000000E+00 0. -1.
         11    1    1    2    0    0  0.36163739413E+01  0.25280026265E+02 -0.68335619973E+01  0.26435874452E+02  0.00000000000E+00 0.  1.
<mgrwt>
<rscale>  0 0.11624198E+03</rscale>
<asrwt>0</asrwt>
<pdfrwt beam="1">  1        2 0.78752384E-01 0.12541550E+03</pdfrwt>
<pdfrwt beam="2">  1       -2 0.44742716E-02 0.12541550E+03</pdfrwt>
<totfact> 0.13242535E+04</totfact>
</mgrwt>
</event>
<event>
 6    1  0.4705246E-006  0.2018131E+03  0.7546771E-02  0.1152490E+00
         -2   -1    0    0    0  501 -0.00000000000E+00  0.00000000000E+00  0.49112519930E+03  0.49112519930E+03  0.00000000000E+00 0.  1.
          2   -1    0    0  501    0  0.00000000000E+00 -0.00000000000E+00 -0.99426050156E+02  0.99426050156E+02  0.00000000000E+00 0. -1.
          5    1    1    2  502    0  0.51943368498E+02 -0.12285375609E+03  0.75431815937E+02  0.15330755941E+03  0.47000000000E+01 0.  1.
         -5    1    1    2    0  502 -0.40242776561E+02 -0.35160344169E+02 -0.17888012938E+02  0.56549110287E+02  0.47000000000E+01 0.  1.
        -11    1    1    2    0    0 -0.10785022989E+02  0.56329197706E+02  0.22206198276E+03  0.22934868524E+03  0.00000000000E+00 0.  1.
         11    1    1    2    0    0 -0.91556894912E+00  0.10168490255E+03  0.11209336338E+03  0.15134589452E+03  0.00000000000E+00 0. -1.
<mgrwt>
<rscale>  0 0.19677336E+03</rscale>
<asrwt>0</asrwt>
<pdfrwt beam="2">  1        2 0.15296316E-01 0.20181311E+03</pdfrwt>
<pdfrwt beam="1">  1       -2 0.75557721E-01 0.20181311E+03</pdfrwt>
<totfact> 0.61264323E+02</totfact>
</mgrwt>
</event>
<event>
 6    1  0.4705246E-006  0.2624679E+03  0.7546771E-02  0.1105669E+00
         -1   -1    0    0    0  501 -0.00000000000E+00  0.00000000000E+00  0.42610065483E+02  0.42610065483E+02  0.00000000000E+00 0.  1.
          1   -1    0    0  501    0  0.00000000000E+00 -0.00000000000E+00 -0.40418503036E+03  0.40418503036E+03  0.00000000000E+00 0. -1.
          5    1    1    2  502    0  0.12969903269E+02 -0.23301595554E+02 -0.77543179997E+01  0.28167395935E+02  0.47000000000E+01 0.  1.
         -5    1    1    2    0  502 -0.53126873248E+02  0.34934791699E+02 -0.29870928557E+03  0.30543777045E+03  0.47000000000E+01 0.  1.
        -11    1    1    2    0    0  0.82315058289E+01 -0.40110384250E+02 -0.57215256927E+02  0.70357559922E+02  0.00000000000E+00 0. -1.
         11    1    1    2    0    0  0.31925464150E+02  0.28477188105E+02  0.21038956158E+01  0.42832369539E+02  0.00000000000E+00 0.  1.
<mgrwt>
<rscale>  0 0.26246791E+03</rscale>
<asrwt>0</asrwt>
<pdfrwt beam="2">  1        1 0.62182313E-01 0.26246791E+03</pdfrwt>
<pdfrwt beam="1">  1       -1 0.65553946E-02 0.26246791E+03</pdfrwt>
<totfact> 0.69234335E+03</totfact>
</mgrwt>
</event>
<event>
 6    1  0.4705246E-006  0.1414282E+03  0.7546771E-02  0.1226911E+00
         -3   -1    0    0    0  501 -0.00000000000E+00  0.00000000000E+00  0.40203480767E+03  0.40203480767E+03  0.00000000000E+00 0.  1.
          3   -1    0    0  501    0  0.00000000000E+00 -0.00000000000E+00 -0.46290088039E+02  0.46290088039E+02  0.00000000000E+00 0. -1.
          5    1    1    2  502    0  0.12806682889E+02 -0.33445353465E+02 -0.25172093127E+02  0.44026436006E+02  0.47000000000E+01 0.  1.
         -5    1    1    2    0  502  0.90163805390E+01 -0.29002227639E+02  0.12592218546E+03  0.12961832863E+03  0.47000000000E+01 0.  1.
        -11    1    1    2    0    0 -0.25859067058E+02  0.27828481084E+02  0.22649287972E+03  0.22965657028E+03  0.00000000000E+00 0.  1.
         11    1    1    2    0    0  0.40360036303E+01  0.34619100020E+02  0.28501747579E+02  0.45023560794E+02  0.00000000000E+00 0. -1.
<mgrwt>
<rscale>  0 0.13036811E+03</rscale>
<asrwt>0</asrwt>
<pdfrwt beam="2">  1        3 0.71215523E-02 0.14142816E+03</pdfrwt>
<pdfrwt beam="1">  1       -3 0.61851507E-01 0.14142816E+03</pdfrwt>
<totfact> 0.77514600E+02</totfact>
</mgrwt>
</event>
<event>
 6    1  0.4705246E-006  0.1277794E+03  0.7546771E-02  0.1248179E+00
         -2   -1    0    0    0  501 -0.00000000000E+00  0.00000000000E+00  0.12673364745E+02  0.12673364745E+02  0.00000000000E+00 0.  1.
          2   -1    0    0  501    0  0.00000000000E+00 -0.00000000000E+00 -0.93641939139E+03  0.93641939139E+03  0.00000000000E+00 0. -1.
          5    1    1    2  502    0 -0.37940298451E+02  0.65446811953E+01 -0.56901908688E+03  0.57033946938E+03  0.47000000000E+01 0.  1.
         -5    1    1    2    0  502  0.12488904300E+02  0.82737514089E+00 -0.54358136809E+00  0.13380686116E+02  0.47000000000E+01 0.  1.
        -11    1    1    2    0    0  0.46293699655E+02 -0.31263687915E+02 -0.18522744672E+03  0.19346765060E+03  0.00000000000E+00 0.  1.
         11    1    1    2    0    0 -0.20842305504E+02  0.23891631579E+02 -0.16895591168E+03  0.17190495005E+03  0.00000000000E+00 0. -1.
<mgrwt>
<rscale>  0 0.11697119E+03</rscale>
<asrwt>0</asrwt>
<pdfrwt beam="2">  1        2 0.14406451E+00 0.12777945E+03</pdfrwt>
<pdfrwt beam="1">  1       -2 0.19497486E-02 0.12777945E+03</pdfrwt>
<totfact> 0.21859943E+04</totfact>
</mgrwt>
</event>
<event>
 6    1  0.4705246E-006  0.1379142E+03  0.7546771E-02  0.1228171E+00
         -2   -1    0    0    0  501 -0.00000000000E+00  0.00000000000E+00  0.10396510168E+03  0.10396510168E+03  0.00000000000E+00 0.  1.
          2   -1    0    0  501    0  0.00000000000E+00 -0.00000000000E+00 -0.14709812542E+03  0.14709812542E+03  0.00000000000E+00 0. -1.
          5    1    1    2  502    0  0.54964143904E+02  0.26834159749E+02  0.44950065453E+02  0.76050822670E+02  0.47000000000E+01 0.  1.
         -5    1    1    2    0  502 -0.23458648129E+02  0.22197610747E+02 -0.52817945342E+02  0.62087578831E+02  0.47000000000E+01 0.  1.
        -11    1    1    2    0    0  0.65377405332E+01 -0.51261389450E+02 -0.50152005740E+02  0.72011775283E+02  0.00000000000E+00 0. -1.
         11    1    1    2    0    0 -0.38043236308E+02  0.22296189542E+01  0.14886861884E+02  0.40913050317E+02  0.00000000000E+00 0.  1.
<mgrwt>
<rscale>  0 0.12951899E+03</rscale>
<asrwt>0</asrwt>
<pdfrwt beam="2">  1        2 0.22630481E-01 0.13791416E+03</pdfrwt>
<pdfrwt beam="1">  1       -2 0.15994631E-01 0.13791416E+03</pdfrwt>
<totfact> 0.70290876E+03</totfact>
</mgrwt>
</event>
<event>
 6    1  0.4705246E-006  0.3194033E+03  0.7546771E-02  0.1075924E+00
          4   -1    0    0  501    0  0.00000000000E+00  0.00000000000E+00  0.17971725706E+03  0.17971725706E+03  0.00000000000E+00 0. -1.
         -4   -1    0    0    0  501 -0.00000000000E+00 -0.00000000000E+00 -0.14191526169E+03  0.14191526169E+03  0.00000000000E+00 0.  1.
          5    1    1    2  502    0  0.44156581539E+02 -0.90286672474E+02  0.93235452010E+02  0.13717297996E+03  0.47000000000E+01 0.  1.
         -5    1    1    2    0  502 -0.22042789532E+02 -0.16174401371E+02 -0.29355342386E+02  0.40389626845E+02  0.47000000000E+01 0.  1.
        -11    1    1    2    0    0 -0.39081154223E+02  0.34464244599E+02 -0.43728255225E+02  0.68024121282E+02  0.00000000000E+00 0.  1.
         11    1    1    2    0    0  0.16967362217E+02  0.71996829246E+02  0.17650140971E+02  0.76045790668E+02  0.00000000000E+00 0. -1.
<mgrwt>
<rscale>  0 0.31940333E+03</rscale>
<asrwt>0</asrwt>
<pdfrwt beam="1">  1        4 0.27648809E-01 0.31940333E+03</pdfrwt>
<pdfrwt beam="2">  1       -4 0.21833117E-01 0.31940333E+03</pdfrwt>
<totfact> 0.45536337E+02</totfact>
</mgrwt>
</event>
<event>
 6    1  0.4705246E-006  0.2322225E+03  0.7546771E-02  0.1127947E+00
          2   -1    0    0  501    0  0.00000000000E+00  0.00000000000E+00  0.12963702764E+04  0.12963702764E+04  0.00000000000E+00 0. -1.
         -2   -1    0    0    0  501 -0.00000000000E+00 -0.00000000000E+00 -0.38822190609E+02  0.38822190609E+02  0.00000000000E+00 0.  1.
          5    1    1    2  502    0  0.85588171597E+01 -0.50942751331E+02  0.37854429741E+03  0.38208152581E+03  0.47000000000E+01 0.  1.
         -5    1    1    2    0  502  0.32886129792E+02 -0.14032728703E+03  0.25900761511E+03  0.29644608229E+03  0.47000000000E+01 0.  1.
        -11    1    1    2    0    0  0.24221673524E+00  0.85379562019E+02  0.14539162114E+03  0.16860738945E+03  0.00000000000E+00 0.  1.
         11    1    1    2    0    0 -0.41687163687E+02  0.10589047634E+03  0.47460455213E+03  0.48805746946E+03  0.00000000000E+00 0. -1.
<mgrwt>
<rscale>  0 0.22815214E+03</rscale>
<asrwt>0</asrwt>
<pdfrwt beam="1">  1        2 0.19944155E+00 0.23222247E+03</pdfrwt>
<pdfrwt beam="2">  1       -2 0.59726457E-02 0.23222247E+03</pdfrwt>
<totfact> 0.26243897E+03</totfact>
</mgrwt>
</event>
<event>
 6    1  0.4705246E-006  0.1184188E+03  0.7546771E-02  0.1257825E+00
         -3   -1    0    0    0  501 -0.00000000000E+00  0.00000000000E+00  0.29965373109E+03  0.29965373109E+03  0.00000000000E+00 0.  1.
          3   -1    0    0  501    0  0.00000000000E+00 -0.00000000000E+00 -0.38758667188E+02  0.38758667188E+02  0.00000000000E+00 0. -1.
          5    1    1    2  502    0 -0.41729967322E+02 -0.36340669334E+02  0.15070918417E+02  0.57543522679E+02  0.47000000000E+01 0. -1.
         -5    1    1    2    0  502  0.58032247167E+01  0.40212978657E+02  0.97980903302E+02  0.10617489572E+03  0.47000000000E+01 0.  1.
        -11    1    1    2    0    0 -0.21106923072E+02 -0.24093729123E+02  0.42668075656E+02  0.53353300412E+02  0.00000000000E+00 0. -1.
         11    1    1    2    0    0  0.57033665678E+02  0.20221419800E+02  0.10517516653E+03  0.12134067947E+03  0.00000000000E+00 0.  1.
<mgrwt>
<rscale>  0 0.11149552E+03</rscale>
<asrwt>0</asrwt>
<pdfrwt beam="2">  1        3 0.59628721E-02 0.11841877E+03</pdfrwt>
<pdfrwt beam="1">  1       -3 0.46100572E-01 0.11841877E+03</pdfrwt>
<totfact> 0.18100967E+03</totfact>
</mgrwt>
</event>
<event>
 6    1  0.4705246E-006  0.1254552E+03  0.7546771E-02  0.1250659E+00
         -2   -1    0    0    0  501 -0.00000000000E+00  0.00000000000E+00  0.70328057155E+02  0.70328057155E+02  0.00000000000E+00 0.  1.
          2   -1    0    0  501    0  0.00000000000E+00 -0.00000000000E+00 -0.16773513394E+03  0.16773513394E+03  0.00000000000E+00 0. -1.
          5    1    1    2  502    0  0.32575486993E+02  0.47313694598E+02 -0.42222839183E+02  0.71446526844E+02  0.47000000000E+01 0.  1.
         -5    1    1    2    0  502 -0.32560108776E+02 -0.58045399603E+02 -0.28317331753E+02  0.72480275774E+02  0.47000000000E+01 0.  1.
        -11    1    1    2    0    0  0.13112773952E+02  0.48398493916E+02 -0.17979006049E+02  0.53269162867E+02  0.00000000000E+00 0.  1.
         11    1    1    2    0    0 -0.13128152170E+02 -0.37666788911E+02 -0.88878997998E+01  0.40867225610E+02  0.00000000000E+00 0. -1.
<mgrwt>
<rscale>  0 0.11552964E+03</rscale>
<asrwt>0</asrwt>
<pdfrwt beam="2">  1        2 0.25805405E-01 0.12545521E+03</pdfrwt>
<pdfrwt beam="1">  1       -2 0.10819701E-01 0.12545521E+03</pdfrwt>
<totfact> 0.11326718E+04</totfact>
</mgrwt>
</event>
<event>
 6    1  0.4705246E-006  0.1765258E+03  0.7546771E-02  0.1176876E+00
          1   -1    0    0  501    0  0.00000000000E+00  0.00000000000E+00  0.28162797285E+03  0.28162797285E+03  0.00000000000E+00 0. -1.
         -1   -1    0    0    0  501 -0.00000000000E+00 -0.00000000000E+00 -0.12621505543E+03  0.12621505543E+03  0.00000000000E+00 0.  1.
          5    1    1    2  502    0  0.25348918016E+02  0.71208772099E+02  0.56237152483E+02  0.94329020920E+02  0.47000000000E+01 0. -1.
         -5    1    1    2    0  502 -0.91754567898E+02  0.34257551106E+02  0.12213027870E+03  0.15662175939E+03  0.47000000000E+01 0. -1.
        -11    1    1    2    0    0  0.42911219495E+01 -0.24347063870E+02 -0.45939705598E+02  0.52169433551E+02  0.00000000000E+00 0.  1.
         11    1    1    2    0    0  0.62114527933E+02 -0.81119259336E+02  0.22985191836E+02  0.10472281442E+03  0.00000000000E+00 0. -1.
<mgrwt>
<rscale>  0 0.17093532E+03</rscale>
<asrwt>0</asrwt>
<pdfrwt beam="1">  1        1 0.43327380E-01 0.17652579E+03</pdfrwt>
<pdfrwt beam="2">  1       -1 0.19417701E-01 0.17652579E+03</pdfrwt>
<totfact> 0.19819056E+03</totfact>
</mgrwt>
</event>
<event>
 6    1  0.4705246E-006  0.1250679E+03  0.7546771E-02  0.1251436E+00
         -2   -1    0    0    0  501 -0.00000000000E+00  0.00000000000E+00  0.27679608381E+02  0.27679608381E+02  0.00000000000E+00 0. -1.
          2   -1    0    0  501    0  0.00000000000E+00 -0.00000000000E+00 -0.43588694610E+03  0.43588694610E+03  0.00000000000E+00 0.  1.
          5    1    1    2  502    0 -0.20608398504E+01 -0.32826690490E+02 -0.27916316677E+03  0.28113342446E+03  0.47000000000E+01 0.  1.
         -5    1    1    2    0  502  0.30230755028E+01  0.28660952763E+02 -0.53925807435E+01  0.29694429206E+02  0.47000000000E+01 0.  1.
        -11    1    1    2    0    0 -0.11659259106E+01  0.39920641595E+02 -0.23368584098E+02  0.46272105326E+02  0.00000000000E+00 0. -1.
         11    1    1    2    0    0  0.20369025824E+00 -0.35754903868E+02 -0.10028300611E+03  0.10646659548E+03  0.00000000000E+00 0.  1.
<mgrwt>
<rscale>  0 0.11508331E+03</rscale>
<asrwt>0</asrwt>
<pdfrwt beam="2">  1        2 0.67059527E-01 0.12506791E+03</pdfrwt>
<pdfrwt beam="1">  1       -2 0.42584015E-02 0.12506791E+03</pdfrwt>
<totfact> 0.16968315E+04</totfact>
</mgrwt>
</event>
<event>
 6    1  0.4705246E-006  0.1337076E+03  0.7546771E-02  0.1235473E+00
         -1   -1    0    0    0  501 -0.00000000000E+00  0.00000000000E+00  0.24234318995E+02  0.24234318995E+02  0.00000000000E+00 0.  1.
          1   -1    0    0  501    0  0.00000000000E+00 -0.00000000000E+00 -0.57013565034E+03  0.57013565034E+03  0.00000000000E+00 0. -1.
          5    1    1    2  502    0 -0.54521175454E+02 -0.21342241168E+02 -0.57641858032E+02  0.82296559030E+02  0.47000000000E+01 0.  1.
         -5    1    1    2    0  502  0.35364997149E+02 -0.22187772937E+02 -0.24485343410E+03  0.24843162939E+03  0.47000000000E+01 0.  1.
        -11    1    1    2    0    0 -0.20433485009E+02  0.47366739174E+02 -0.77962668409E+02  0.93484292558E+02  0.00000000000E+00 0.  1.
         11    1    1    2    0    0  0.39589663314E+02 -0.38367250695E+01 -0.16544337081E+03  0.17015748836E+03  0.00000000000E+00 0. -1.
<mgrwt>
<rscale>  0 0.12474213E+03</rscale>
<asrwt>0</asrwt>
<pdfrwt beam="2">  1        1 0.87713165E-01 0.13370764E+03</pdfrwt>
<pdfrwt beam="1">  1       -1 0.37283573E-02 0.13370764E+03</pdfrwt>
<totfact> 0.98368788E+03</totfact>
</mgrwt>
</event>
<event>
 6    1  0.4815045E-006  0.1801325E+03  0.7546771E-02  0.1173128E+00
          1   -1    0    0  501    0  0.00000000000E+00  0.00000000000E+00  0.64272503714E+02  0.64272503714E+02  0.00000000000E+00 0. -1.
         -1   -1    0    0    0  501 -0.00000000000E+00 -0.00000000000E+00 -0.44998360408E+03  0.44998360408E+03  0.00000000000E+00 0.  1.
          5    1    1    2  502    0  0.58409908229E+02 -0.14790207481E+02 -0.96137334675E+02  0.11355591017E+03  0.47000000000E+01 0. -1.
         -5    1    1    2    0  502 -0.26609453593E+02 -0.11095353202E+03 -0.89284350895E+02  0.14495700950E+03  0.47000000000E+01 0. -1.
        -11    1    1    2    0    0 -0.29638784508E+02 -0.30746699022E+00 -0.61335020939E+02  0.68121486160E+02  0.00000000000E+00 0.  1.
         11    1    1    2    0    0 -0.21616701275E+01  0.12605120649E+03 -0.13895439386E+03  0.18762170196E+03  0.00000000000E+00 0. -1.
<mgrwt>
<rscale>  0 0.17460633E+03</rscale>
<asrwt>0</asrwt>
<pdfrwt beam="1">  1        1 0.98880771E-02 0.18013253E+03</pdfrwt>
<pdfrwt beam="2">  1       -1 0.69228250E-01 0.18013253E+03</pdfrwt>
<totfact> 0.14108690E+03</totfact>
</mgrwt>
</event>
<event>
 6    1  0.4705246E-006  0.1293591E+03  0.7546771E-02  0.1237386E+00
          2   -1    0    0  501    0  0.00000000000E+00  0.00000000000E+00  0.72144309077E+02  0.72144309077E+02  0.00000000000E+00 0. -1.
         -2   -1    0    0    0  501 -0.00000000000E+00 -0.00000000000E+00 -0.19514372917E+03  0.19514372917E+03  0.00000000000E+00 0.  1.
          5    1    1    2  502    0  0.64553354569E+02 -0.27564158516E+02 -0.59209988184E+02  0.91950155636E+02  0.47000000000E+01 0.  1.
         -5    1    1    2    0  502 -0.32930328841E+02  0.37981158133E+02 -0.41728302416E+00  0.50489989660E+02  0.47000000000E+01 0.  1.
        -11    1    1    2    0    0 -0.22457955318E+02  0.40768513733E+02 -0.55209366389E+02  0.72211533747E+02  0.00000000000E+00 0.  1.
         11    1    1    2    0    0 -0.91650704103E+01 -0.51185513350E+02 -0.81627824986E+01  0.52636359208E+02  0.00000000000E+00 0. -1.
<mgrwt>
<rscale>  0 0.12352902E+03</rscale>
<asrwt>0</asrwt>
<pdfrwt beam="1">  1        2 0.11099124E-01 0.12935913E+03</pdfrwt>
<pdfrwt beam="2">  1       -2 0.30022112E-01 0.12935913E+03</pdfrwt>
<totfact> 0.54388908E+03</totfact>
</mgrwt>
</event>
<event>
 6    1  0.4705246E-006  0.1343811E+03  0.7546771E-02  0.1234715E+00
          2   -1    0    0  501    0  0.00000000000E+00  0.00000000000E+00  0.12650350744E+04  0.12650350744E+04  0.00000000000E+00 0. -1.
         -2   -1    0    0    0  501 -0.00000000000E+00 -0.00000000000E+00 -0.11939069135E+02  0.11939069135E+02  0.00000000000E+00 0.  1.
          5    1    1    2  502    0 -0.30617524726E+02  0.43154274785E+02  0.48070209700E+03  0.48362828733E+03  0.47000000000E+01 0. -1.
         -5    1    1    2    0  502 -0.57984335123E+01 -0.76426119769E+02  0.40587829397E+03  0.41307850722E+03  0.47000000000E+01 0. -1.
        -11    1    1    2    0    0  0.64863774903E+02  0.21468366418E+02  0.28636038532E+03  0.29439848901E+03  0.00000000000E+00 0.  1.
         11    1    1    2    0    0 -0.28447816665E+02  0.11803478567E+02  0.80155228962E+02  0.85868859951E+02  0.00000000000E+00 0. -1.
<mgrwt>
<rscale>  0 0.12522691E+03</rscale>
<asrwt>0</asrwt>
<pdfrwt beam="1">  1        2 0.19462067E+00 0.13438112E+03</pdfrwt>
<pdfrwt beam="2">  1       -2 0.18367809E-02 0.13438112E+03</pdfrwt>
<totfact> 0.15491028E+04</totfact>
</mgrwt>
</event>
<event>
 6    1  0.4705246E-006  0.3032615E+03  0.7546771E-02  0.1083621E+00
         -2   -1    0    0    0  501 -0.00000000000E+00  0.00000000000E+00  0.57026376027E+02  0.57026376027E+02  0.00000000000E+00 0.  1.
          2   -1    0    0  501    0  0.00000000000E+00 -0.00000000000E+00 -0.40317983931E+03  0.40317983931E+03  0.00000000000E+00 0. -1.
          5    1    1    2  502    0 -0.11715195205E+03  0.56225093590E+02 -0.19380791552E+03  0.23338688724E+03  0.47000000000E+01 0.  1.
         -5    1    1    2    0  502  0.18915922120E+02 -0.20817064305E+02 -0.17686621607E+02  0.33556949501E+02  0.47000000000E+01 0.  1.
        -11    1    1    2    0    0  0.68573621247E+02 -0.13431754312E+02 -0.19816352691E+02  0.72632233814E+02  0.00000000000E+00 0.  1.
         11    1    1    2    0    0  0.29662408679E+02 -0.21976274972E+02 -0.11484257346E+03  0.12063014478E+03  0.00000000000E+00 0. -1.
<mgrwt>
<rscale>  0 0.30326151E+03</rscale>
<asrwt>0</asrwt>
<pdfrwt beam="2">  1        2 0.62027668E-01 0.30326151E+03</pdfrwt>
<pdfrwt beam="1">  1       -2 0.87732886E-02 0.30326151E+03</pdfrwt>
<totfact> 0.64577297E+03</totfact>
</mgrwt>
</event>
<event>
 6    1  0.4705246E-006  0.3215208E+03  0.7546771E-02  0.1074951E+00
         -1   -1    0    0    0  501 -0.00000000000E+00  0.00000000000E+00  0.22252630657E+02  0.22252630657E+02  0.00000000000E+00 0.  1.
          1   -1    0    0  501    0  0.00000000000E+00 -0.00000000000E+00 -0.11613868454E+04  0.11613868454E+04  0.00000000000E+00 0. -1.
          5    1    1    2  502    0 -0.15022982304E+02  0.28109135965E+02 -0.37981751333E+03  0.38118138328E+03  0.47000000000E+01 0.  1.
         -5    1    1    2    0  502  0.11165168421E+03 -0.15757927814E+02 -0.47702466652E+03  0.49019285321E+03  0.47000000000E+01 0.  1.
        -11    1    1    2    0    0 -0.59216759535E+02  0.25911806410E+02 -0.79134368219E+02  0.10217775959E+03  0.00000000000E+00 0.  1.
         11    1    1    2    0    0 -0.37411942370E+02 -0.38263014560E+02 -0.20315766666E+03  0.21008747996E+03  0.00000000000E+00 0. -1.
<mgrwt>
<rscale>  0 0.32152084E+03</rscale>
<asrwt>0</asrwt>
<pdfrwt beam="2">  1        1 0.17867493E+00 0.32152084E+03</pdfrwt>
<pdfrwt beam="1">  1       -1 0.34234810E-02 0.32152084E+03</pdfrwt>
<totfact> 0.37892256E+03</totfact>
</mgrwt>
</event>
<event>
 6    1  0.4705246E-006  0.1258170E+03  0.7546771E-02  0.1249605E+00
         -2   -1    0    0    0  501 -0.00000000000E+00  0.00000000000E+00  0.48852995436E+02  0.48852995436E+02  0.00000000000E+00 0.  1.
          2   -1    0    0  501    0  0.00000000000E+00 -0.00000000000E+00 -0.31812443163E+03  0.31812443163E+03  0.00000000000E+00 0. -1.
          5    1    1    2  502    0 -0.40671064862E+02 -0.46655447310E+02 -0.68153748624E+02  0.92183999329E+02  0.47000000000E+01 0. -1.
         -5    1    1    2    0  502  0.36373620473E+02  0.32986624598E+02 -0.17197478221E+03  0.17890939993E+03  0.47000000000E+01 0. -1.
        -11    1    1    2    0    0  0.21365053720E+02  0.18854087948E+02  0.25601741533E+02  0.38306544120E+02  0.00000000000E+00 0.  1.
         11    1    1    2    0    0 -0.17067609331E+02 -0.51852652355E+01 -0.54744646891E+02  0.57577483681E+02  0.00000000000E+00 0. -1.
<mgrwt>
<rscale>  0 0.11613929E+03</rscale>
<asrwt>0</asrwt>
<pdfrwt beam="2">  1        2 0.48942222E-01 0.12581701E+03</pdfrwt>
<pdfrwt beam="1">  1       -2 0.75158452E-02 0.12581701E+03</pdfrwt>
<totfact> 0.10066888E+04</totfact>
</mgrwt>
</event>
<event>
 6    1  0.4705246E-006  0.2574892E+03  0.7546771E-02  0.1108661E+00
         -2   -1    0    0    0  501 -0.00000000000E+00  0.00000000000E+00  0.36778777556E+02  0.36778777556E+02  0.00000000000E+00 0.  1.
          2   -1    0    0  501    0  0.00000000000E+00 -0.00000000000E+00 -0.45067213444E+03  0.45067213444E+03  0.00000000000E+00 0. -1.
          5    1    1    2  502    0  0.19170480271E+02  0.16218892575E+01  0.87823454642E+01  0.21664658558E+02  0.47000000000E+01 0. -1.
         -5    1    1    2    0  502 -0.43982075909E+01  0.65154163611E+02 -0.25059122624E+03  0.25900282226E+03  0.47000000000E+01 0. -1.
        -11    1    1    2    0    0  0.19712555813E+02 -0.29082117901E+02 -0.14452785903E+03  0.14873686992E+03  0.00000000000E+00 0.  1.
         11    1    1    2    0    0 -0.34484828494E+02 -0.37693934968E+02 -0.27556617072E+02  0.58046561260E+02  0.00000000000E+00 0. -1.
<mgrwt>
<rscale>  0 0.25748919E+03</rscale>
<asrwt>0</asrwt>
<pdfrwt beam="2">  1        2 0.69334174E-01 0.25748919E+03</pdfrwt>
<pdfrwt beam="1">  1       -2 0.56582735E-02 0.25748919E+03</pdfrwt>
<totfact> 0.11216630E+04</totfact>
</mgrwt>
</event>
<event>
 6    1  0.4705246E-006  0.1289304E+03  0.7546771E-02  0.1242973E+00
         -1   -1    0    0    0  501 -0.00000000000E+00  0.00000000000E+00  0.14423588801E+02  0.14423588801E+02  0.00000000000E+00 0.  1.
          1   -1    0    0  501    0  0.00000000000E+00 -0.00000000000E+00 -0.10034117091E+04  0.10034117091E+04  0.00000000000E+00 0. -1.
          5    1    1    2  502    0  0.15731158007E+02  0.35503721667E+02 -0.98114988301E+02  0.10562492373E+03  0.47000000000E+01 0.  1.
         -5    1    1    2    0  502 -0.38350154774E+02 -0.57563510679E+02 -0.63150334129E+03  0.63529745175E+03  0.47000000000E+01 0.  1.
        -11    1    1    2    0    0 -0.14323400212E+02  0.45675086570E+02 -0.89744555811E+02  0.10171262765E+03  0.00000000000E+00 0.  1.
         11    1    1    2    0    0  0.36942396979E+02 -0.23615297558E+02 -0.16962523494E+03  0.17520029481E+03  0.00000000000E+00 0. -1.
<mgrwt>
<rscale>  0 0.12007545E+03</rscale>
<asrwt>0</asrwt>
<pdfrwt beam="2">  1        1 0.15437105E+00 0.12893044E+03</pdfrwt>
<pdfrwt beam="1">  1       -1 0.22190134E-02 0.12893044E+03</pdfrwt>
<totfact> 0.90157998E+03</totfact>
</mgrwt>
</event>
<event>
 6    1  0.4705246E-006  0.1273172E+03  0.7546771E-02  0.1252636E+00
          1   -1    0    0  501    0  0.00000000000E+00  0.00000000000E+00  0.19186501701E+04  0.19186501701E+04  0.00000000000E+00 0. -1.
         -1   -1    0    0    0  501 -0.00000000000E+00 -0.00000000000E+00 -0.89539501732E+01  0.89539501732E+01  0.00000000000E+00 0.  1.
          5    1    1    2  502    0  0.37195227360E+02  0.33045997244E+02  0.43020082657E+03  0.43309394368E+03  0.47000000000E+01 0.  1.
         -5    1    1    2    0  502 -0.61382182651E+02 -0.33421218743E+02  0.12212703194E+04  0.12232775781E+04  0.47000000000E+01 0.  1.
        -11    1    1    2    0    0 -0.30215873287E+01 -0.36794518169E+02  0.11338297192E+03  0.11924204325E+03  0.00000000000E+00 0.  1.
         11    1    1    2    0    0  0.27208542620E+02  0.37169739669E+02  0.14484210206E+03  0.15199055519E+03  0.00000000000E+00 0. -1.
<mgrwt>
<rscale>  0 0.11439804E+03</rscale>
<asrwt>0</asrwt>
<pdfrwt beam="1">  1        1 0.29517662E+00 0.12731721E+03</pdfrwt>
<pdfrwt beam="2">  1       -1 0.13775323E-02 0.12731721E+03</pdfrwt>
<totfact> 0.44494041E+03</totfact>
</mgrwt>
</event>
<event>
 6    1  0.4705246E-006  0.3945218E+03  0.7546771E-02  0.1046527E+00
         -2   -1    0    0    0  501 -0.00000000000E+00  0.00000000000E+00  0.27025961015E+03  0.27025961015E+03  0.00000000000E+00 0.  1.
          2   -1    0    0  501    0  0.00000000000E+00 -0.00000000000E+00 -0.56251292389E+03  0.56251292389E+03  0.00000000000E+00 0. -1.
          5    1    1    2  502    0  0.88686353072E+02  0.21222117946E+03 -0.10540026711E+03  0.25305020162E+03  0.47000000000E+01 0.  1.
         -5    1    1    2    0  502 -0.35110621134E+02  0.15812016779E+03 -0.35543380951E+02  0.16589202846E+03  0.47000000000E+01 0.  1.
        -11    1    1    2    0    0 -0.42828736960E+02 -0.27699308337E+03 -0.68383407142E+02  0.28850608194E+03  0.00000000000E+00 0.  1.
         11    1    1    2    0    0 -0.10746994978E+02 -0.93348263878E+02 -0.82926258539E+02  0.12532422202E+03  0.00000000000E+00 0. -1.
<mgrwt>
<rscale>  0 0.39216445E+03</rscale>
<asrwt>0</asrwt>
<pdfrwt beam="2">  1        2 0.86540449E-01 0.39452184E+03</pdfrwt>
<pdfrwt beam="1">  1       -2 0.41578402E-01 0.39452184E+03</pdfrwt>
<totfact> 0.30068952E+02</totfact>
</mgrwt>
</event>
<event>
 6    1  0.4705246E-006  0.2350704E+03  0.7546771E-02  0.1123121E+00
          1   -1    0    0  501    0  0.00000000000E+00  0.00000000000E+00  0.12696233090E+04  0.12696233090E+04  0.00000000000E+00 0. -1.
         -1   -1    0    0    0  501 -0.00000000000E+00 -0.00000000000E+00 -0.10880800263E+02  0.10880800263E+02  0.00000000000E+00 0.  1.
          5    1    1    2  502    0 -0.69769698960E+02  0.21184294417E+02  0.74052422713E+03  0.74412015574E+03  0.47000000000E+01 0. -1.
         -5    1    1    2    0  502  0.28960644798E+02 -0.17641905246E+02  0.82063353823E+02  0.88918163547E+02  0.47000000000E+01 0. -1.
        -11    1    1    2    0    0  0.18016621499E+02 -0.47219578538E+02  0.20796154252E+03  0.21401469673E+03  0.00000000000E+00 0.  1.
         11    1    1    2    0    0  0.22792432663E+02  0.43677189367E+02  0.22819338523E+03  0.23345109320E+03  0.00000000000E+00 0. -1.
<mgrwt>
<rscale>  0 0.23507035E+03</rscale>
<asrwt>0</asrwt>
<pdfrwt beam="1">  1        1 0.19532655E+00 0.23507035E+03</pdfrwt>
<pdfrwt beam="2">  1       -1 0.16739703E-02 0.23507035E+03</pdfrwt>
<totfact> 0.90605923E+03</totfact>
</mgrwt>
</event>
<event>
 6    1  0.4705246E-006  0.1437613E+03  0.7546771E-02  0.1218254E+00
         -2   -1    0    0    0  501 -0.00000000000E+00  0.00000000000E+00  0.25669910853E+02  0.25669910853E+02  0.00000000000E+00 0.  1.
          2   -1    0    0  501    0  0.00000000000E+00 -0.00000000000E+00 -0.86887345959E+03  0.86887345959E+03  0.00000000000E+00 0. -1.
          5    1    1    2  502    0 -0.18447260773E+02 -0.27675888178E+02 -0.35701171702E+02  0.49019586670E+02  0.47000000000E+01 0.  1.
         -5    1    1    2    0  502 -0.48281735036E+02  0.33803547767E+01 -0.63794674803E+03  0.63979738672E+03  0.47000000000E+01 0.  1.
        -11    1    1    2    0    0  0.49869145439E+02  0.40958142618E+01 -0.20019755565E+02  0.53893394532E+02  0.00000000000E+00 0.  1.
         11    1    1    2    0    0  0.16859850370E+02  0.20199719139E+02 -0.14953587345E+03  0.15183300252E+03  0.00000000000E+00 0. -1.
<mgrwt>
<rscale>  0 0.13640204E+03</rscale>
<asrwt>0</asrwt>
<pdfrwt beam="2">  1        2 0.13367284E+00 0.14376127E+03</pdfrwt>
<pdfrwt beam="1">  1       -2 0.39492170E-02 0.14376127E+03</pdfrwt>
<totfact> 0.86300373E+03</totfact>
</mgrwt>
</event>
<event>
 6    1  0.4705246E-006  0.1539544E+03  0.7546771E-02  0.1204311E+00
         -3   -1    0    0    0  501 -0.00000000000E+00  0.00000000000E+00  0.16211046475E+02  0.16211046475E+02  0.00000000000E+00 0.  1.
          3   -1    0    0  501    0  0.00000000000E+00 -0.00000000000E+00 -0.12386481198E+04  0.12386481198E+04  0.00000000000E+00 0. -1.
          5    1    1    2  502    0  0.61510411811E+00  0.65389913625E+02 -0.22078529835E+03  0.23031382313E+03  0.47000000000E+01 0. -1.
         -5    1    1    2    0  502  0.78175994928E+02 -0.22176200692E+02 -0.51643320699E+03  0.52280839448E+03  0.47000000000E+01 0. -1.
        -11    1    1    2    0    0 -0.61508264976E+02  0.13128551537E+02 -0.32485404427E+03  0.33088634847E+03  0.00000000000E+00 0. -1.
         11    1    1    2    0    0 -0.17282834071E+02 -0.56342264470E+02 -0.16036452371E+03  0.17085060018E+03  0.00000000000E+00 0.  1.
<mgrwt>
<rscale>  0 0.14691873E+03</rscale>
<asrwt>0</asrwt>
<pdfrwt beam="2">  1        3 0.19056125E+00 0.15395438E+03</pdfrwt>
<pdfrwt beam="1">  1       -3 0.24940071E-02 0.15395438E+03</pdfrwt>
<totfact> 0.29684835E+02</totfact>
</mgrwt>
</event>
<event>
 6    1  0.4705246E-006  0.1252749E+03  0.7546771E-02  0.1247937E+00
          1   -1    0    0  501    0  0.00000000000E+00  0.00000000000E+00  0.10377702046E+04  0.10377702046E+04  0.00000000000E+00 0. -1.
         -1   -1    0    0    0  501 -0.00000000000E+00 -0.00000000000E+00 -0.14038922158E+02  0.14038922158E+02  0.00000000000E+00 0.  1.
          5    1    1    2  502    0  0.17912482882E+02 -0.53806603430E+02  0.51968103675E+03  0.52278722017E+03  0.47000000000E+01 0. -1.
         -5    1    1    2    0  502 -0.11465145383E+02  0.58972810739E+02  0.25985275537E+03  0.26674854534E+03  0.47000000000E+01 0. -1.
        -11    1    1    2    0    0  0.12166769466E+02  0.40033078607E+02  0.15513223198E+03  0.16067572020E+03  0.00000000000E+00 0. -1.
         11    1    1    2    0    0 -0.18614106966E+02 -0.45199285916E+02  0.89065258385E+02  0.10159764110E+03  0.00000000000E+00 0.  1.
<mgrwt>
<rscale>  0 0.11711288E+03</rscale>
<asrwt>0</asrwt>
<pdfrwt beam="1">  1        1 0.15965689E+00 0.12527487E+03</pdfrwt>
<pdfrwt beam="2">  1       -1 0.21598350E-02 0.12527487E+03</pdfrwt>
<totfact> 0.88383859E+03</totfact>
</mgrwt>
</event>
<event>
 6    1  0.4705246E-006  0.2274356E+03  0.7546771E-02  0.1131501E+00
          1   -1    0    0  501    0  0.00000000000E+00  0.00000000000E+00  0.11491222812E+03  0.11491222812E+03  0.00000000000E+00 0. -1.
         -1   -1    0    0    0  501 -0.00000000000E+00 -0.00000000000E+00 -0.47364699021E+03  0.47364699021E+03  0.00000000000E+00 0.  1.
          5    1    1    2  502    0 -0.41000288127E+02 -0.11635695303E+03 -0.36871889001E+02  0.12884715885E+03  0.47000000000E+01 0. -1.
         -5    1    1    2    0  502 -0.10291713915E+03 -0.76725416644E+01 -0.47889274525E+02  0.11386956591E+03  0.47000000000E+01 0. -1.
        -11    1    1    2    0    0  0.82353086551E+02  0.27570038792E+02 -0.17149645504E+03  0.19223207848E+03  0.00000000000E+00 0.  1.
         11    1    1    2    0    0  0.61564340728E+02  0.96459455900E+02 -0.10247714352E+03  0.15361041509E+03  0.00000000000E+00 0. -1.
<mgrwt>
<rscale>  0 0.22322576E+03</rscale>
<asrwt>0</asrwt>
<pdfrwt beam="1">  1        1 0.17678804E-01 0.22743560E+03</pdfrwt>
<pdfrwt beam="2">  1       -1 0.72868767E-01 0.22743560E+03</pdfrwt>
<totfact> 0.59400276E+02</totfact>
</mgrwt>
</event>
<event>
 6    1  0.4705246E-006  0.1482280E+03  0.7546771E-02  0.1212075E+00
         -1   -1    0    0    0  501 -0.00000000000E+00  0.00000000000E+00  0.57637520456E+02  0.57637520456E+02  0.00000000000E+00 0.  1.
          1   -1    0    0  501    0  0.00000000000E+00 -0.00000000000E+00 -0.42211796464E+03  0.42211796464E+03  0.00000000000E+00 0. -1.
          5    1    1    2  502    0  0.52089011494E+02 -0.49974034109E+02 -0.65455519481E+02  0.97556056881E+02  0.47000000000E+01 0.  1.
         -5    1    1    2    0  502 -0.10370782106E+02 -0.17913602315E+02 -0.25098394721E+03  0.25187989604E+03  0.47000000000E+01 0.  1.
        -11    1    1    2    0    0 -0.52930242990E+01 -0.22723495750E+02 -0.67313863068E+01  0.24283429061E+02  0.00000000000E+00 0.  1.
         11    1    1    2    0    0 -0.36425205089E+02  0.90611132175E+02 -0.41309591179E+02  0.10603610311E+03  0.00000000000E+00 0. -1.
<mgrwt>
<rscale>  0 0.14093567E+03</rscale>
<asrwt>0</asrwt>
<pdfrwt beam="2">  1        1 0.64941224E-01 0.14822803E+03</pdfrwt>
<pdfrwt beam="1">  1       -1 0.88673110E-02 0.14822803E+03</pdfrwt>
<totfact> 0.40272692E+03</totfact>
</mgrwt>
</event>
<event>
 6    1  0.4705246E-006  0.1371402E+03  0.7546771E-02  0.1228328E+00
         -1   -1    0    0    0  501 -0.00000000000E+00  0.00000000000E+00  0.12396196423E+03  0.12396196423E+03  0.00000000000E+00 0.  1.
          1   -1    0    0  501    0  0.00000000000E+00 -0.00000000000E+00 -0.12475183115E+03  0.12475183115E+03  0.00000000000E+00 0. -1.
          5    1    1    2  502    0 -0.40801471614E+02 -0.32625791652E+02 -0.47893203035E+02  0.71028524297E+02  0.47000000000E+01 0. -1.
         -5    1    1    2    0  502  0.56815758844E+02 -0.21460416403E+02  0.28895682366E+02  0.67421290292E+02  0.47000000000E+01 0. -1.
        -11    1    1    2    0    0  0.11681641674E+02 -0.19202117671E+01 -0.29412339997E+02  0.31705420823E+02  0.00000000000E+00 0. -1.
         11    1    1    2    0    0 -0.27695928904E+02  0.56006419822E+02  0.47619993747E+02  0.78558559964E+02  0.00000000000E+00 0.  1.
<mgrwt>
<rscale>  0 0.12941401E+03</rscale>
<asrwt>0</asrwt>
<pdfrwt beam="2">  1        1 0.19192589E-01 0.13714024E+03</pdfrwt>
<pdfrwt beam="1">  1       -1 0.19071072E-01 0.13714024E+03</pdfrwt>
<totfact> 0.55978981E+03</totfact>
</mgrwt>
</event>
<event>
 6    1  0.4705246E-006  0.1510182E+03  0.7546771E-02  0.1218764E+00
         -4   -1    0    0    0  501 -0.00000000000E+00  0.00000000000E+00  0.42947659491E+03  0.42947659491E+03  0.00000000000E+00 0.  1.
          4   -1    0    0  501    0  0.00000000000E+00 -0.00000000000E+00 -0.39553229912E+02  0.39553229912E+02  0.00000000000E+00 0. -1.
          5    1    1    2  502    0 -0.14716173884E+01  0.42013706527E+02 -0.10021836730E+02  0.43472340693E+02  0.47000000000E+01 0. -1.
         -5    1    1    2    0  502 -0.29820787543E+02 -0.25514355824E+02  0.17832243121E+03  0.18265059867E+03  0.47000000000E+01 0.  1.
        -11    1    1    2    0    0  0.34767165977E+02 -0.43700904157E+02  0.20094967633E+03  0.20856485148E+03  0.00000000000E+00 0.  1.
         11    1    1    2    0    0 -0.34747610455E+01  0.27201553454E+02  0.20673094191E+02  0.34342033982E+02  0.00000000000E+00 0. -1.
<mgrwt>
<rscale>  0 0.13603654E+03</rscale>
<asrwt>0</asrwt>
<pdfrwt beam="2">  1        4 0.60851126E-02 0.15101819E+03</pdfrwt>
<pdfrwt beam="1">  1       -4 0.66073319E-01 0.15101819E+03</pdfrwt>
<totfact> 0.63442603E+02</totfact>
</mgrwt>
</event>
<event>
 6    1  0.4705246E-006  0.1694780E+03  0.7546771E-02  0.1185397E+00
          2   -1    0    0  501    0  0.00000000000E+00  0.00000000000E+00  0.35396167068E+03  0.35396167068E+03  0.00000000000E+00 0.  1.
         -2   -1    0    0    0  501 -0.00000000000E+00 -0.00000000000E+00 -0.69806386680E+02  0.69806386680E+02  0.00000000000E+00 0. -1.
          5    1    1    2  502    0 -0.16400454489E+02 -0.10307141683E+03  0.11586529940E+03  0.15601137612E+03  0.47000000000E+01 0.  1.
         -5    1    1    2    0  502 -0.59896231193E+02  0.17762784300E+02  0.40652658796E+02  0.74684695115E+02  0.47000000000E+01 0.  1.
        -11    1    1    2    0    0  0.58052445328E+02  0.67729955646E+02  0.33017083615E+02  0.95118668571E+02  0.00000000000E+00 0. -1.
         11    1    1    2    0    0  0.18244240354E+02  0.17578676885E+02  0.94620242190E+02  0.97953317550E+02  0.00000000000E+00 0.  1.
<mgrwt>
<rscale>  0 0.16295774E+03</rscale>
<asrwt>0</asrwt>
<pdfrwt beam="1">  1        2 0.54455641E-01 0.16947804E+03</pdfrwt>
<pdfrwt beam="2">  1       -2 0.10739444E-01 0.16947804E+03</pdfrwt>
<totfact> 0.52469284E+03</totfact>
</mgrwt>
</event>
<event>
 6    1  0.4705246E-006  0.3591049E+03  0.7546771E-02  0.1058939E+00
          2   -1    0    0  501    0  0.00000000000E+00  0.00000000000E+00  0.17108903024E+03  0.17108903024E+03  0.00000000000E+00 0. -1.
         -2   -1    0    0    0  501 -0.00000000000E+00 -0.00000000000E+00 -0.18843455163E+03  0.18843455163E+03  0.00000000000E+00 0.  1.
          5    1    1    2  502    0 -0.10797068876E+02 -0.51101795948E+01 -0.27223830201E+02  0.30098464457E+02  0.47000000000E+01 0.  1.
         -5    1    1    2    0  502  0.31357285710E+02  0.13456769319E+03  0.74717742512E+02  0.15715143799E+03  0.47000000000E+01 0.  1.
        -11    1    1    2    0    0 -0.22482634937E+01 -0.86764617576E+02 -0.85136502952E+02  0.12157868928E+03  0.00000000000E+00 0.  1.
         11    1    1    2    0    0 -0.18311953340E+02 -0.42692896014E+02  0.20297069249E+02  0.50694990140E+02  0.00000000000E+00 0. -1.
<mgrwt>
<rscale>  0 0.35910491E+03</rscale>
<asrwt>0</asrwt>
<pdfrwt beam="1">  1        2 0.26321389E-01 0.35910491E+03</pdfrwt>
<pdfrwt beam="2">  1       -2 0.28989931E-01 0.35910491E+03</pdfrwt>
<totfact> 0.22208903E+03</totfact>
</mgrwt>
</event>
<event>
 6    1  0.4705246E-006  0.1393095E+03  0.7546771E-02  0.1229398E+00
          1   -1    0    0  501    0  0.00000000000E+00  0.00000000000E+00  0.36155722684E+03  0.36155722684E+03  0.00000000000E+00 0. -1.
         -1   -1    0    0    0  501 -0.00000000000E+00 -0.00000000000E+00 -0.42155880676E+02  0.42155880676E+02  0.00000000000E+00 0.  1.
          5    1    1    2  502    0  0.12063381891E+02 -0.56350290069E+02  0.23708207992E+03  0.24403049603E+03  0.47000000000E+01 0. -1.
         -5    1    1    2    0  502 -0.16861658667E+02  0.11478661246E+02 -0.93550700179E+01  0.22927767707E+02  0.47000000000E+01 0.  1.
        -11    1    1    2    0    0 -0.26812911805E+02 -0.11838498187E+02  0.71437162754E+01  0.30168111658E+02  0.00000000000E+00 0. -1.
         11    1    1    2    0    0  0.31611188581E+02  0.56710127010E+02  0.84530619985E+02  0.10658673212E+03  0.00000000000E+00 0.  1.
<mgrwt>
<rscale>  0 0.12869983E+03</rscale>
<asrwt>0</asrwt>
<pdfrwt beam="1">  1        1 0.55624187E-01 0.13930945E+03</pdfrwt>
<pdfrwt beam="2">  1       -1 0.64855203E-02 0.13930945E+03</pdfrwt>
<totfact> 0.78166175E+03</totfact>
</mgrwt>
</event>
<event>
 6    1  0.4705246E-006  0.3365023E+03  0.7546771E-02  0.1068295E+00
          2   -1    0    0  501    0  0.00000000000E+00  0.00000000000E+00  0.18226842930E+03  0.18226842930E+03  0.00000000000E+00 0. -1.
         -2   -1    0    0    0  501 -0.00000000000E+00 -0.00000000000E+00 -0.15531186799E+03  0.15531186799E+03  0.00000000000E+00 0.  1.
          5    1    1    2  502    0 -0.32418551904E+02 -0.15448306651E+02  0.44707417144E+02  0.57536560842E+02  0.47000000000E+01 0. -1.
         -5    1    1    2    0  502  0.10681121272E+03 -0.51584037340E+02  0.52351944034E+02  0.12973960118E+03  0.47000000000E+01 0. -1.
        -11    1    1    2    0    0 -0.28170032523E+02  0.51980909062E+02 -0.81198093129E+02  0.10044250080E+03  0.00000000000E+00 0.  1.
         11    1    1    2    0    0 -0.46222628291E+02  0.15051434929E+02  0.11095293263E+02  0.49861634471E+02  0.00000000000E+00 0. -1.
<mgrwt>
<rscale>  0 0.33650230E+03</rscale>
<asrwt>0</asrwt>
<pdfrwt beam="1">  1        2 0.28041297E-01 0.33650230E+03</pdfrwt>
<pdfrwt beam="2">  1       -2 0.23894134E-01 0.33650230E+03</pdfrwt>
<totfact> 0.29207106E+03</totfact>
</mgrwt>
</event>
<event>
 6    1  0.4705246E-006  0.1678728E+03  0.7546771E-02  0.1186811E+00
         -1   -1    0    0    0  501 -0.00000000000E+00  0.00000000000E+00  0.79127101629E+02  0.79127101629E+02  0.00000000000E+00 0.  1.
          1   -1    0    0  501    0  0.00000000000E+00 -0.00000000000E+00 -0.33842403584E+03  0.33842403584E+03  0.00000000000E+00 0. -1.
          5    1    1    2  502    0 -0.77605187387E+02  0.61877092263E+02 -0.19214635478E+03  0.21631840262E+03  0.47000000000E+01 0.  1.
         -5    1    1    2    0  502  0.24593098614E+02  0.36850275322E+02 -0.86086833517E+01  0.45375794426E+02  0.47000000000E+01 0.  1.
        -11    1    1    2    0    0  0.55491143745E+02 -0.24466677695E+02  0.98037042448E+00  0.60653495181E+02  0.00000000000E+00 0.  1.
         11    1    1    2    0    0 -0.24790549722E+01 -0.74260689889E+02 -0.59522266503E+02  0.95203445242E+02  0.00000000000E+00 0. -1.
<mgrwt>
<rscale>  0 0.16168156E+03</rscale>
<asrwt>0</asrwt>
<pdfrwt beam="2">  1        1 0.52065237E-01 0.16787277E+03</pdfrwt>
<pdfrwt beam="1">  1       -1 0.12173400E-01 0.16787277E+03</pdfrwt>
<totfact> 0.32894172E+03</totfact>
</mgrwt>
</event>
<event>
 6    1  0.4705246E-006  0.1149497E+03  0.7546771E-02  0.1263948E+00
          1   -1    0    0  501    0  0.00000000000E+00  0.00000000000E+00  0.40024722438E+03  0.40024722438E+03  0.00000000000E+00 0. -1.
         -1   -1    0    0    0  501 -0.00000000000E+00 -0.00000000000E+00 -0.77743533689E+02  0.77743533689E+02  0.00000000000E+00 0.  1.
          5    1    1    2  502    0 -0.62455357976E+02  0.26225643279E+02  0.22308187883E+03  0.23318677228E+03  0.47000000000E+01 0. -1.
         -5    1    1    2    0  502  0.44577874767E+02 -0.13826126498E+02  0.13868856731E+03  0.14640682155E+03  0.47000000000E+01 0.  1.
        -11    1    1    2    0    0  0.34673129072E+02 -0.28836507178E+02  0.78213690711E+01  0.45770556475E+02  0.00000000000E+00 0.  1.
         11    1    1    2    0    0 -0.16795645863E+02  0.16436990396E+02 -0.47088124524E+02  0.52626607761E+02  0.00000000000E+00 0. -1.
<mgrwt>
<rscale>  0 0.10819566E+03</rscale>
<asrwt>0</asrwt>
<pdfrwt beam="1">  1        1 0.61576495E-01 0.11494973E+03</pdfrwt>
<pdfrwt beam="2">  1       -1 0.11960544E-01 0.11494973E+03</pdfrwt>
<totfact> 0.26964521E+03</totfact>
</mgrwt>
</event>
<event>
 6    1  0.4705246E-006  0.1287676E+03  0.7546771E-02  0.1251435E+00
         -1   -1    0    0    0  501 -0.00000000000E+00  0.00000000000E+00  0.83560157799E+02  0.83560157799E+02  0.00000000000E+00 0.  1.
          1   -1    0    0  501    0  0.00000000000E+00 -0.00000000000E+00 -0.13539725343E+03  0.13539725343E+03  0.00000000000E+00 0. -1.
          5    1    1    2  502    0 -0.32459299844E+02  0.43201124438E+02 -0.60921997879E+02  0.81569130954E+02  0.47000000000E+01 0. -1.
         -5    1    1    2    0  502  0.49562748660E+02 -0.17482593068E+02  0.15467160972E+02  0.54985727090E+02  0.47000000000E+01 0. -1.
        -11    1    1    2    0    0  0.12666600747E+02  0.13384653114E+02  0.19523513095E+02  0.26846960294E+02  0.00000000000E+00 0.  1.
         11    1    1    2    0    0 -0.29770049563E+02 -0.39103184484E+02 -0.25905771821E+02  0.55555592891E+02  0.00000000000E+00 0. -1.
<mgrwt>
<rscale>  0 0.11508359E+03</rscale>
<asrwt>0</asrwt>
<pdfrwt beam="2">  1        1 0.20830347E-01 0.12876757E+03</pdfrwt>
<pdfrwt beam="1">  1       -1 0.12855409E-01 0.12876757E+03</pdfrwt>
<totfact> 0.93353192E+03</totfact>
</mgrwt>
</event>
<event>
 6    1  0.4705246E-006  0.1508624E+03  0.7546771E-02  0.1208111E+00
          1   -1    0    0  501    0  0.00000000000E+00  0.00000000000E+00  0.29336962470E+03  0.29336962470E+03  0.00000000000E+00 0. -1.
         -1   -1    0    0    0  501 -0.00000000000E+00 -0.00000000000E+00 -0.78311136866E+02  0.78311136866E+02  0.00000000000E+00 0.  1.
          5    1    1    2  502    0 -0.83205801759E+02  0.31422607150E+02  0.20585792963E+03  0.22429927079E+03  0.47000000000E+01 0. -1.
         -5    1    1    2    0  502  0.97097048942E+01  0.10940791984E+02 -0.13298232934E+02  0.20320243540E+02  0.47000000000E+01 0. -1.
        -11    1    1    2    0    0  0.87425767931E+02 -0.51818996952E+02  0.33432143816E+02  0.10698682902E+03  0.00000000000E+00 0. -1.
         11    1    1    2    0    0 -0.13929671067E+02  0.94555978190E+01 -0.10933352674E+02  0.20074418219E+02  0.00000000000E+00 0.  1.
<mgrwt>
<rscale>  0 0.14394935E+03</rscale>
<asrwt>0</asrwt>
<pdfrwt beam="1">  1        1 0.45133788E-01 0.15086242E+03</pdfrwt>
<pdfrwt beam="2">  1       -1 0.12047867E-01 0.15086242E+03</pdfrwt>
<totfact> 0.39750174E+03</totfact>
</mgrwt>
</event>
<event>
 6    1  0.4705246E-006  0.4088021E+03  0.7546771E-02  0.1040774E+00
          1   -1    0    0  501    0  0.00000000000E+00  0.00000000000E+00  0.33370923361E+03  0.33370923361E+03  0.00000000000E+00 0. -1.
         -1   -1    0    0    0  501 -0.00000000000E+00 -0.00000000000E+00 -0.12519816155E+03  0.12519816155E+03  0.00000000000E+00 0.  1.
          5    1    1    2  502    0 -0.11024280016E+03  0.10071564813E+03  0.15888918743E+03  0.21809397206E+03  0.47000000000E+01 0.  1.
         -5    1    1    2    0  502  0.18462365693E+02 -0.68000468737E+01  0.75877350206E+02  0.78527459266E+02  0.47000000000E+01 0.  1.
        -11    1    1    2    0    0  0.46520374870E+02 -0.33682290993E+02 -0.56994751574E+02  0.80913804209E+02  0.00000000000E+00 0.  1.
         11    1    1    2    0    0  0.45260059595E+02 -0.60233310264E+02  0.30739285992E+02  0.81372159632E+02  0.00000000000E+00 0. -1.
<mgrwt>
<rscale>  0 0.40880207E+03</rscale>
<asrwt>0</asrwt>
<pdfrwt beam="1">  1        1 0.51339882E-01 0.40880207E+03</pdfrwt>
<pdfrwt beam="2">  1       -1 0.19261256E-01 0.40880207E+03</pdfrwt>
<totfact> 0.16486266E+03</totfact>
</mgrwt>
</event>
<event>
 6    1  0.4705246E-006  0.1266587E+03  0.7546771E-02  0.1246960E+00
          2   -1    0    0  501    0  0.00000000000E+00  0.00000000000E+00  0.48117564038E+03  0.48117564038E+03  0.00000000000E+00 0. -1.
         -2   -1    0    0    0  501 -0.00000000000E+00 -0.00000000000E+00 -0.26681074403E+02  0.26681074403E+02  0.00000000000E+00 0.  1.
          5    1    1    2  502    0  0.22664922339E+01  0.49604243691E+02  0.74990155743E+02  0.90062930429E+02  0.47000000000E+01 0. -1.
         -5    1    1    2    0  502  0.73475916083E+01 -0.67525951490E+02  0.23904868532E+03  0.24855604032E+03  0.47000000000E+01 0. -1.
        -11    1    1    2    0    0 -0.31298875492E+02  0.23982093621E+02  0.15658745345E+02  0.42425896894E+02  0.00000000000E+00 0.  1.
         11    1    1    2    0    0  0.21684791650E+02 -0.60603858217E+01  0.12479697956E+03  0.12681184713E+03  0.00000000000E+00 0. -1.
<mgrwt>
<rscale>  0 0.11768817E+03</rscale>
<asrwt>0</asrwt>
<pdfrwt beam="1">  1        2 0.74027015E-01 0.12665865E+03</pdfrwt>
<pdfrwt beam="2">  1       -2 0.41047810E-02 0.12665865E+03</pdfrwt>
<totfact> 0.16121376E+04</totfact>
</mgrwt>
</event>
<event>
 6    1  0.4705246E-006  0.1581557E+03  0.7546771E-02  0.1198653E+00
          2   -1    0    0  501    0  0.00000000000E+00  0.00000000000E+00  0.83648300374E+03  0.83648300374E+03  0.00000000000E+00 0.  1.
         -2   -1    0    0    0  501 -0.00000000000E+00 -0.00000000000E+00 -0.29146941378E+02  0.29146941378E+02  0.00000000000E+00 0. -1.
          5    1    1    2  502    0  0.44701764610E+02  0.14178642113E+02  0.52383634789E+03  0.52595236573E+03  0.47000000000E+01 0.  1.
         -5    1    1    2    0  502  0.37498101333E+02  0.37122455231E+02  0.65522700884E+02  0.84258522519E+02  0.47000000000E+01 0.  1.
        -11    1    1    2    0    0 -0.49962134012E+02 -0.39370123596E+02  0.21095213986E+03  0.22033389838E+03  0.00000000000E+00 0.  1.
         11    1    1    2    0    0 -0.32237731931E+02 -0.11930973748E+02  0.70248737324E+01  0.35085158480E+02  0.00000000000E+00 0. -1.
<mgrwt>
<rscale>  0 0.15149097E+03</rscale>
<asrwt>0</asrwt>
<pdfrwt beam="1">  1        2 0.12868967E+00 0.15815575E+03</pdfrwt>
<pdfrwt beam="2">  1       -2 0.44841455E-02 0.15815575E+03</pdfrwt>
<totfact> 0.75321172E+03</totfact>
</mgrwt>
</event>
<event>
 6    1  0.1104979E-005  0.1989273E+03  0.7546771E-02  0.1155120E+00
         -1   -1    0    0    0  501 -0.00000000000E+00  0.00000000000E+00  0.26411953911E+03  0.26411953911E+03  0.00000000000E+00 0.  1.
          1   -1    0    0  501    0  0.00000000000E+00 -0.00000000000E+00 -0.14513764801E+03  0.14513764801E+03  0.00000000000E+00 0. -1.
          5    1    1    2  502    0  0.62101142371E+01  0.13449226683E+03  0.56627693539E+02  0.14613528332E+03  0.47000000000E+01 0.  1.
         -5    1    1    2    0  502  0.12091597606E+02  0.19170967299E+02 -0.47670655725E+02  0.52993529201E+02  0.47000000000E+01 0.  1.
        -11    1    1    2    0    0 -0.10345326221E+02 -0.12008764144E+03  0.31838614475E+02  0.12466661451E+03  0.00000000000E+00 0. -1.
         11    1    1    2    0    0 -0.79563856220E+01 -0.33575592691E+02  0.78186238817E+02  0.85461760087E+02  0.00000000000E+00 0.  1.
<mgrwt>
<rscale>  0 0.19375220E+03</rscale>
<asrwt>0</asrwt>
<pdfrwt beam="2">  1        1 0.22328869E-01 0.19892726E+03</pdfrwt>
<pdfrwt beam="1">  1       -1 0.40633775E-01 0.19892726E+03</pdfrwt>
<totfact> 0.13194143E+03</totfact>
</mgrwt>
</event>
<event>
 6    1  0.4705246E-006  0.1346265E+03  0.7546771E-02  0.1232909E+00
          2   -1    0    0  501    0  0.00000000000E+00  0.00000000000E+00  0.32958863965E+02  0.32958863965E+02  0.00000000000E+00 0.  1.
         -2   -1    0    0    0  501 -0.00000000000E+00 -0.00000000000E+00 -0.45545817896E+03  0.45545817896E+03  0.00000000000E+00 0. -1.
          5    1    1    2  502    0 -0.11966692439E+02 -0.40635422875E+02 -0.55140980919E+02  0.69692589971E+02  0.47000000000E+01 0. -1.
         -5    1    1    2    0  502  0.15704441617E+02  0.90472721214E+02 -0.12885489324E+03  0.15829597684E+03  0.47000000000E+01 0. -1.
        -11    1    1    2    0    0  0.12126592802E+02 -0.41010090928E+02 -0.23846935758E+03  0.24227363933E+03  0.00000000000E+00 0. -1.
         11    1    1    2    0    0 -0.15864341981E+02 -0.88272074111E+01 -0.34083258428E-01  0.18154836789E+02  0.00000000000E+00 0.  1.
<mgrwt>
<rscale>  0 0.12639233E+03</rscale>
<asrwt>0</asrwt>
<pdfrwt beam="1">  1        2 0.50705948E-02 0.13462654E+03</pdfrwt>
<pdfrwt beam="2">  1       -2 0.70070485E-01 0.13462654E+03</pdfrwt>
<totfact> 0.28080679E+03</totfact>
</mgrwt>
</event>
<event>
 6    1  0.4705246E-006  0.2576068E+03  0.7546771E-02  0.1108590E+00
         -2   -1    0    0    0  501 -0.00000000000E+00  0.00000000000E+00  0.64518326984E+02  0.64518326984E+02  0.00000000000E+00 0.  1.
          2   -1    0    0  501    0  0.00000000000E+00 -0.00000000000E+00 -0.25714104240E+03  0.25714104240E+03  0.00000000000E+00 0. -1.
          5    1    1    2  502    0 -0.12256793598E+01  0.91214243144E+01 -0.10620251746E+03  0.10670411138E+03  0.47000000000E+01 0. -1.
         -5    1    1    2    0  502  0.64814753188E+02 -0.22204351899E+02  0.16751094266E+01  0.68694115219E+02  0.47000000000E+01 0. -1.
        -11    1    1    2    0    0 -0.13498717974E+02  0.11075562739E+02  0.20335165316E+02  0.26803030153E+02  0.00000000000E+00 0.  1.
         11    1    1    2    0    0 -0.50090355854E+02  0.20073648448E+01 -0.10843047270E+03  0.11945811263E+03  0.00000000000E+00 0. -1.
<mgrwt>
<rscale>  0 0.25760675E+03</rscale>
<asrwt>0</asrwt>
<pdfrwt beam="2">  1        2 0.39560159E-01 0.25760675E+03</pdfrwt>
<pdfrwt beam="1">  1       -2 0.99258968E-02 0.25760675E+03</pdfrwt>
<totfact> 0.85810030E+03</totfact>
</mgrwt>
</event>
<event>
 6    1  0.4705246E-006  0.1612638E+03  0.7546771E-02  0.1200596E+00
          2   -1    0    0  501    0  0.00000000000E+00  0.00000000000E+00  0.14574506670E+03  0.14574506670E+03  0.00000000000E+00 0.  1.
         -2   -1    0    0    0  501 -0.00000000000E+00 -0.00000000000E+00 -0.18349157600E+03  0.18349157600E+03  0.00000000000E+00 0. -1.
          5    1    1    2  502    0 -0.11635636350E+02 -0.31458832575E+02 -0.37921264674E+02  0.50844453923E+02  0.47000000000E+01 0. -1.
         -5    1    1    2    0  502 -0.44313072181E+02 -0.53690624574E+02  0.10004179252E+03  0.12197041356E+03  0.47000000000E+01 0. -1.
        -11    1    1    2    0    0  0.11056978213E+02  0.17073948901E+02  0.74287740226E+01  0.21655557757E+02  0.00000000000E+00 0.  1.
         11    1    1    2    0    0  0.44891730317E+02  0.68075508247E+02 -0.10729581117E+03  0.13476621746E+03  0.00000000000E+00 0. -1.
<mgrwt>
<rscale>  0 0.14990031E+03</rscale>
<asrwt>0</asrwt>
<pdfrwt beam="1">  1        2 0.22422318E-01 0.16126382E+03</pdfrwt>
<pdfrwt beam="2">  1       -2 0.28229473E-01 0.16126382E+03</pdfrwt>
<totfact> 0.27103761E+03</totfact>
</mgrwt>
</event>
<event>
 6    1  0.4705246E-006  0.1564177E+03  0.7546771E-02  0.1211053E+00
         -2   -1    0    0    0  501 -0.00000000000E+00  0.00000000000E+00  0.51249134747E+02  0.51249134747E+02  0.00000000000E+00 0.  1.
          2   -1    0    0  501    0  0.00000000000E+00 -0.00000000000E+00 -0.36020762237E+03  0.36020762237E+03  0.00000000000E+00 0. -1.
          5    1    1    2  502    0 -0.38458209320E+02 -0.28648339564E+02 -0.25661239114E+03  0.26109724340E+03  0.47000000000E+01 0. -1.
         -5    1    1    2    0  502 -0.84190474977E+01  0.41453193042E+01  0.19974786001E+02  0.22564266190E+02  0.47000000000E+01 0.  1.
        -11    1    1    2    0    0  0.67236523210E+02  0.11202288383E+01 -0.69429829134E+02  0.96656640431E+02  0.00000000000E+00 0.  1.
         11    1    1    2    0    0 -0.20359266392E+02  0.23382791421E+02 -0.28910533557E+01  0.31138607101E+02  0.00000000000E+00 0. -1.
<mgrwt>
<rscale>  0 0.14170534E+03</rscale>
<asrwt>0</asrwt>
<pdfrwt beam="2">  1        2 0.55416558E-01 0.15641770E+03</pdfrwt>
<pdfrwt beam="1">  1       -2 0.78844822E-02 0.15641770E+03</pdfrwt>
<totfact> 0.83210572E+03</totfact>
</mgrwt>
</event>
<event>
 6    1  0.4705246E-006  0.2070043E+03  0.7546771E-02  0.1147981E+00
         -1   -1    0    0    0  501 -0.00000000000E+00  0.00000000000E+00  0.25864664415E+03  0.25864664415E+03  0.00000000000E+00 0.  1.
          1   -1    0    0  501    0  0.00000000000E+00 -0.00000000000E+00 -0.15103621674E+03  0.15103621674E+03  0.00000000000E+00 0. -1.
          5    1    1    2  502    0 -0.21530582139E+02  0.21511156527E+02  0.76962861756E+01  0.31743009361E+02  0.47000000000E+01 0. -1.
         -5    1    1    2    0  502 -0.56833159519E+02 -0.16672300903E+03  0.41732853701E+02  0.18108089584E+03  0.47000000000E+01 0. -1.
        -11    1    1    2    0    0  0.61642130752E+02  0.14575677419E+03  0.25709030980E+02  0.16033010877E+03  0.00000000000E+00 0. -1.
         11    1    1    2    0    0  0.16721610906E+02 -0.54492168782E+00  0.32472256556E+02  0.36528846913E+02  0.00000000000E+00 0.  1.
<mgrwt>
<rscale>  0 0.20209772E+03</rscale>
<asrwt>0</asrwt>
<pdfrwt beam="2">  1        1 0.23236341E-01 0.20700429E+03</pdfrwt>
<pdfrwt beam="1">  1       -1 0.39791791E-01 0.20700429E+03</pdfrwt>
<totfact> 0.13025016E+03</totfact>
</mgrwt>
</event>
<event>
 6    1  0.4705246E-006  0.1220079E+03  0.7546771E-02  0.1293974E+00
          3   -1    0    0  501    0  0.00000000000E+00  0.00000000000E+00  0.41416673117E+03  0.41416673117E+03  0.00000000000E+00 0. -1.
         -3   -1    0    0    0  501 -0.00000000000E+00 -0.00000000000E+00 -0.16648569811E+02  0.16648569811E+02  0.00000000000E+00 0.  1.
          5    1    1    2  502    0  0.35057481782E+01  0.36341916778E+02  0.30897334264E+03  0.31115854744E+03  0.47000000000E+01 0. -1.
         -5    1    1    2    0  502 -0.27528791505E+02 -0.43229730757E+01  0.93833979959E+01  0.29776846977E+02  0.47000000000E+01 0.  1.
        -11    1    1    2    0    0  0.17510933137E+01 -0.13163582372E+02  0.27755373835E+02  0.30768604216E+02  0.00000000000E+00 0. -1.
         11    1    1    2    0    0  0.22271950013E+02 -0.18855361330E+02  0.51406046895E+02  0.59111302351E+02  0.00000000000E+00 0.  1.
<mgrwt>
<rscale>  0 0.93768457E+02</rscale>
<asrwt>0</asrwt>
<pdfrwt beam="1">  1        3 0.63717951E-01 0.12200790E+03</pdfrwt>
<pdfrwt beam="2">  1       -3 0.25613187E-02 0.12200790E+03</pdfrwt>
<totfact> 0.35425370E+03</totfact>
</mgrwt>
</event>
<event>
 6    1  0.4705246E-006  0.1357794E+03  0.7546771E-02  0.1235821E+00
          1   -1    0    0  501    0  0.00000000000E+00  0.00000000000E+00  0.94453529926E+03  0.94453529926E+03  0.00000000000E+00 0. -1.
         -1   -1    0    0    0  501 -0.00000000000E+00 -0.00000000000E+00 -0.17008641024E+02  0.17008641024E+02  0.00000000000E+00 0.  1.
          5    1    1    2  502    0  0.62347214688E+02 -0.27363920213E+02  0.46054426475E+03  0.46557391369E+03  0.47000000000E+01 0.  1.
         -5    1    1    2    0  502 -0.20564669049E+02  0.60028919596E+02  0.26182005793E+03  0.26944054917E+03  0.47000000000E+01 0.  1.
        -11    1    1    2    0    0 -0.64259295294E+02 -0.15553577395E+02  0.12294651138E+03  0.13959590060E+03  0.00000000000E+00 0.  1.
         11    1    1    2    0    0  0.22476749655E+02 -0.17111421987E+02  0.82215824166E+02  0.86933576831E+02  0.00000000000E+00 0. -1.
<mgrwt>
<rscale>  0 0.12452038E+03</rscale>
<asrwt>0</asrwt>
<pdfrwt beam="1">  1        1 0.14531308E+00 0.13577940E+03</pdfrwt>
<pdfrwt beam="2">  1       -1 0.26167147E-02 0.13577940E+03</pdfrwt>
<totfact> 0.78732741E+03</totfact>
</mgrwt>
</event>
<event>
 6    1  0.4705246E-006  0.1323987E+03  0.7546771E-02  0.1236659E+00
         -1   -1    0    0    0  501 -0.00000000000E+00  0.00000000000E+00  0.31129185220E+02  0.31129185220E+02  0.00000000000E+00 0.  1.
          1   -1    0    0  501    0  0.00000000000E+00 -0.00000000000E+00 -0.45967041739E+03  0.45967041739E+03  0.00000000000E+00 0. -1.
          5    1    1    2  502    0 -0.24851226252E+02 -0.31651719538E+02 -0.18071429540E+03  0.18520032764E+03  0.47000000000E+01 0. -1.
         -5    1    1    2    0  502  0.17736340992E+02  0.74719531423E+02 -0.10993497946E+03  0.13418411186E+03  0.47000000000E+01 0. -1.
        -11    1    1    2    0    0 -0.30493204618E+02 -0.19007828604E+02 -0.11648749533E+03  0.12190352597E+03  0.00000000000E+00 0. -1.
         11    1    1    2    0    0  0.37608089879E+02 -0.24059983281E+02 -0.21404461993E+02  0.49511637147E+02  0.00000000000E+00 0.  1.
<mgrwt>
<rscale>  0 0.12398803E+03</rscale>
<asrwt>0</asrwt>
<pdfrwt beam="2">  1        1 0.70718520E-01 0.13239871E+03</pdfrwt>
<pdfrwt beam="1">  1       -1 0.47891058E-02 0.13239871E+03</pdfrwt>
<totfact> 0.90216049E+03</totfact>
</mgrwt>
</event>
<event>
 6    1  0.4705246E-006  0.2164241E+03  0.7546771E-02  0.1163846E+00
         -2   -1    0    0    0  501 -0.00000000000E+00  0.00000000000E+00  0.33576547185E+02  0.33576547185E+02  0.00000000000E+00 0.  1.
          2   -1    0    0  501    0  0.00000000000E+00 -0.00000000000E+00 -0.82218306115E+03  0.82218306115E+03  0.00000000000E+00 0. -1.
          5    1    1    2  502    0  0.97518278244E+02 -0.50943169134E+02 -0.32322883334E+03  0.34147326363E+03  0.47000000000E+01 0. -1.
         -5    1    1    2    0  502 -0.10369081820E+03 -0.15311449716E+02 -0.24155571684E+03  0.26335808438E+03  0.47000000000E+01 0.  1.
        -11    1    1    2    0    0  0.33464797960E+02 -0.67726322521E+01 -0.51481158624E+02  0.61774355063E+02  0.00000000000E+00 0.  1.
         11    1    1    2    0    0 -0.27292258006E+02  0.73027251102E+02 -0.17234080516E+03  0.18915390526E+03  0.00000000000E+00 0. -1.
<mgrwt>
<rscale>  0 0.18414972E+03</rscale>
<asrwt>0</asrwt>
<pdfrwt beam="2">  1        2 0.12648969E+00 0.21642405E+03</pdfrwt>
<pdfrwt beam="1">  1       -2 0.51656231E-02 0.21642405E+03</pdfrwt>
<totfact> 0.63044352E+03</totfact>
</mgrwt>
</event>
<event>
 6    1  0.4705246E-006  0.1447949E+03  0.7546771E-02  0.1217581E+00
          1   -1    0    0  501    0  0.00000000000E+00  0.00000000000E+00  0.45211181965E+03  0.45211181965E+03  0.00000000000E+00 0. -1.
         -1   -1    0    0    0  501 -0.00000000000E+00 -0.00000000000E+00 -0.49346464861E+02  0.49346464861E+02  0.00000000000E+00 0.  1.
          5    1    1    2  502    0  0.30757816893E+02  0.65161587933E+02  0.23504896711E+03  0.24589059108E+03  0.47000000000E+01 0. -1.
         -5    1    1    2    0  502  0.41564732468E+02 -0.50390218600E+02  0.10566303544E+03  0.12431238142E+03  0.47000000000E+01 0. -1.
        -11    1    1    2    0    0 -0.37101988440E+02  0.35948241325E+02  0.15538971500E+02  0.53947133713E+02  0.00000000000E+00 0. -1.
         11    1    1    2    0    0 -0.35220560920E+02 -0.50719610658E+02  0.46514380744E+02  0.77308178305E+02  0.00000000000E+00 0.  1.
<mgrwt>
<rscale>  0 0.13688669E+03</rscale>
<asrwt>0</asrwt>
<pdfrwt beam="1">  1        1 0.69555662E-01 0.14479493E+03</pdfrwt>
<pdfrwt beam="2">  1       -1 0.75917641E-02 0.14479493E+03</pdfrwt>
<totfact> 0.46610481E+03</totfact>
</mgrwt>
</event>
<event>
 6    1  0.9320172E-006  0.3817219E+03  0.7546771E-02  0.1051113E+00
         -1   -1    0    0    0  501 -0.00000000000E+00  0.00000000000E+00  0.65475463791E+02  0.65475463791E+02  0.00000000000E+00 0.  1.
          1   -1    0    0  501    0  0.00000000000E+00 -0.00000000000E+00 -0.27383650698E+04  0.27383650698E+04  0.00000000000E+00 0. -1.
          5    1    1    2  502    0  0.14997751386E+02  0.46235868468E+02 -0.23595401308E+03  0.24095450685E+03  0.47000000000E+01 0.  1.
         -5    1    1    2    0  502  0.32311363318E+03  0.79329832098E+02 -0.17487934278E+04  0.17801674600E+04  0.47000000000E+01 0.  1.
        -11    1    1    2    0    0 -0.25557162387E+03 -0.54702352279E+02 -0.43987477299E+03  0.51166299279E+03  0.00000000000E+00 0.  1.
         11    1    1    2    0    0 -0.82539760688E+02 -0.70863348286E+02 -0.24826739212E+03  0.27105557404E+03  0.00000000000E+00 0. -1.
<mgrwt>
<rscale>  0 0.37951556E+03</rscale>
<asrwt>0</asrwt>
<pdfrwt beam="2">  1        1 0.42128689E+00 0.38172189E+03</pdfrwt>
<pdfrwt beam="1">  1       -1 0.10073149E-01 0.38172189E+03</pdfrwt>
<totfact> 0.64174286E+01</totfact>
</mgrwt>
</event>
<event>
 6    1  0.4705246E-006  0.3863884E+03  0.7546771E-02  0.1048598E+00
          2   -1    0    0  501    0  0.00000000000E+00  0.00000000000E+00  0.32026913120E+03  0.32026913120E+03  0.00000000000E+00 0. -1.
         -2   -1    0    0    0  501 -0.00000000000E+00 -0.00000000000E+00 -0.11653947672E+03  0.11653947672E+03  0.00000000000E+00 0.  1.
          5    1    1    2  502    0  0.10668782835E+03 -0.90234416836E+02  0.15530806926E+03  0.20896705261E+03  0.47000000000E+01 0. -1.
         -5    1    1    2    0  502 -0.29476897273E+02 -0.33367921300E+01  0.67259311254E+02  0.73660889249E+02  0.47000000000E+01 0. -1.
        -11    1    1    2    0    0  0.13986269403E+02  0.49853984025E+02 -0.91824651177E+01  0.52586624921E+02  0.00000000000E+00 0. -1.
         11    1    1    2    0    0 -0.91197200479E+02  0.43717224941E+02 -0.96552609213E+01  0.10159404114E+03  0.00000000000E+00 0.  1.
<mgrwt>
<rscale>  0 0.38638839E+03</rscale>
<asrwt>0</asrwt>
<pdfrwt beam="1">  1        2 0.49272174E-01 0.38638839E+03</pdfrwt>
<pdfrwt beam="2">  1       -2 0.17929150E-01 0.38638839E+03</pdfrwt>
<totfact> 0.25961930E+03</totfact>
</mgrwt>
</event>
<event>
 6    1  0.4705246E-006  0.1302069E+03  0.7546771E-02  0.1240851E+00
          2   -1    0    0  501    0  0.00000000000E+00  0.00000000000E+00  0.29605167775E+03  0.29605167775E+03  0.00000000000E+00 0. -1.
         -2   -1    0    0    0  501 -0.00000000000E+00 -0.00000000000E+00 -0.63006758386E+02  0.63006758386E+02  0.00000000000E+00 0.  1.
          5    1    1    2  502    0  0.43630426322E+02  0.20938313510E+02  0.18811059262E+03  0.19429285146E+03  0.47000000000E+01 0. -1.
         -5    1    1    2    0  502 -0.52379579739E+02  0.14460357321E+02  0.37481621027E+02  0.66179182696E+02  0.47000000000E+01 0. -1.
        -11    1    1    2    0    0 -0.14677576529E+02 -0.76119304969E+01 -0.37379494009E+02  0.40872965528E+02  0.00000000000E+00 0.  1.
         11    1    1    2    0    0  0.23426729946E+02 -0.27786740335E+02  0.44832199723E+02  0.57713436446E+02  0.00000000000E+00 0. -1.
<mgrwt>
<rscale>  0 0.12137203E+03</rscale>
<asrwt>0</asrwt>
<pdfrwt beam="1">  1        2 0.45546411E-01 0.13020689E+03</pdfrwt>
<pdfrwt beam="2">  1       -2 0.96933476E-02 0.13020689E+03</pdfrwt>
<totfact> 0.73414637E+03</totfact>
</mgrwt>
</event>
<event>
 6    1  0.4705246E-006  0.1253775E+03  0.7546771E-02  0.1250200E+00
          3   -1    0    0  501    0  0.00000000000E+00  0.00000000000E+00  0.21000898670E+02  0.21000898670E+02  0.00000000000E+00 0. -1.
         -3   -1    0    0    0  501 -0.00000000000E+00 -0.00000000000E+00 -0.55864542323E+03  0.55864542323E+03  0.00000000000E+00 0.  1.
          5    1    1    2  502    0 -0.11377718737E+02  0.98640659115E+01 -0.32016758351E+03  0.32055596050E+03  0.47000000000E+01 0. -1.
         -5    1    1    2    0  502  0.53861409005E+01 -0.17536514035E+02  0.41827257883E+01  0.19393943212E+02  0.47000000000E+01 0. -1.
        -11    1    1    2    0    0 -0.30255842724E+02 -0.22909890408E+02 -0.14203964487E+03  0.14702224258E+03  0.00000000000E+00 0.  1.
         11    1    1    2    0    0  0.36247420560E+02  0.30582338532E+02 -0.79620021968E+02  0.92674175613E+02  0.00000000000E+00 0. -1.
<mgrwt>
<rscale>  0 0.11579476E+03</rscale>
<asrwt>0</asrwt>
<pdfrwt beam="1">  1        3 0.32309081E-02 0.12537746E+03</pdfrwt>
<pdfrwt beam="2">  1       -3 0.85945432E-01 0.12537746E+03</pdfrwt>
<totfact> 0.13130702E+03</totfact>
</mgrwt>
</event>
<event>
 6    1  0.4705246E-006  0.1292119E+03  0.7546771E-02  0.1242913E+00
         -2   -1    0    0    0  501 -0.00000000000E+00  0.00000000000E+00  0.73032897014E+02  0.73032897014E+02  0.00000000000E+00 0.  1.
          2   -1    0    0  501    0  0.00000000000E+00 -0.00000000000E+00 -0.25371343382E+03  0.25371343382E+03  0.00000000000E+00 0. -1.
          5    1    1    2  502    0 -0.35090515968E+02 -0.26548070718E+02 -0.18165424494E+03  0.18696657207E+03  0.47000000000E+01 0.  1.
         -5    1    1    2    0  502  0.41448395006E+02 -0.50299905301E+01 -0.83939731109E+01  0.42846458872E+02  0.47000000000E+01 0.  1.
        -11    1    1    2    0    0 -0.32225668453E+02  0.33846897155E+02  0.36558590179E+02  0.59334953191E+02  0.00000000000E+00 0.  1.
         11    1    1    2    0    0  0.25867789415E+02 -0.22688359074E+01 -0.27190908941E+02  0.37598346701E+02  0.00000000000E+00 0. -1.
<mgrwt>
<rscale>  0 0.12011179E+03</rscale>
<asrwt>0</asrwt>
<pdfrwt beam="2">  1        2 0.39032836E-01 0.12921186E+03</pdfrwt>
<pdfrwt beam="1">  1       -2 0.11235830E-01 0.12921186E+03</pdfrwt>
<totfact> 0.68475171E+03</totfact>
</mgrwt>
</event>
<event>
 6    1  0.4705246E-006  0.1414411E+03  0.7546771E-02  0.1221533E+00
          1   -1    0    0  501    0  0.00000000000E+00  0.00000000000E+00  0.33124167287E+03  0.33124167287E+03  0.00000000000E+00 0. -1.
         -1   -1    0    0    0  501 -0.00000000000E+00 -0.00000000000E+00 -0.66859135081E+02  0.66859135081E+02  0.00000000000E+00 0.  1.
          5    1    1    2  502    0  0.44510959494E+02 -0.83833714653E+02  0.16517970839E+03  0.19056689978E+03  0.47000000000E+01 0. -1.
         -5    1    1    2    0  502  0.92444660032E+01  0.45228119209E+02  0.78920374909E+02  0.91550851960E+02  0.47000000000E+01 0. -1.
        -11    1    1    2    0    0 -0.60046242627E+02  0.22219014635E+02 -0.23978930742E+02  0.68368303946E+02  0.00000000000E+00 0.  1.
         11    1    1    2    0    0  0.62908171289E+01  0.16386580809E+02  0.44261385237E+02  0.47614752271E+02  0.00000000000E+00 0. -1.
<mgrwt>
<rscale>  0 0.13407389E+03</rscale>
<asrwt>0</asrwt>
<pdfrwt beam="1">  1        1 0.50960257E-01 0.14144107E+03</pdfrwt>
<pdfrwt beam="2">  1       -1 0.10286021E-01 0.14144107E+03</pdfrwt>
<totfact> 0.43455070E+03</totfact>
</mgrwt>
</event>
<event>
 6    1  0.4705246E-006  0.1701085E+03  0.7546771E-02  0.1182680E+00
         -2   -1    0    0    0  501 -0.00000000000E+00  0.00000000000E+00  0.72121225268E+02  0.72121225268E+02  0.00000000000E+00 0. -1.
          2   -1    0    0  501    0  0.00000000000E+00 -0.00000000000E+00 -0.49069612656E+03  0.49069612656E+03  0.00000000000E+00 0.  1.
          5    1    1    2  502    0  0.36809001320E+02  0.92295650627E+01 -0.25380068857E+02  0.45894720226E+02  0.47000000000E+01 0.  1.
         -5    1    1    2    0  502  0.24856294913E+02 -0.10674579726E+03 -0.33742663519E+03  0.35481167507E+03  0.47000000000E+01 0.  1.
        -11    1    1    2    0    0 -0.55301280538E+00  0.37097679613E+02 -0.65852100215E+02  0.75584672775E+02  0.00000000000E+00 0.  1.
         11    1    1    2    0    0 -0.61112283428E+02  0.60418552583E+02  0.10083902969E+02  0.86526283759E+02  0.00000000000E+00 0. -1.
<mgrwt>
<rscale>  0 0.16544743E+03</rscale>
<asrwt>0</asrwt>
<pdfrwt beam="2">  1        2 0.75491710E-01 0.17010853E+03</pdfrwt>
<pdfrwt beam="1">  1       -2 0.11095573E-01 0.17010853E+03</pdfrwt>
<totfact> 0.34975195E+03</totfact>
</mgrwt>
</event>
<event>
 6    1  0.4705246E-006  0.2631536E+03  0.7546771E-02  0.1107657E+00
         -2   -1    0    0    0  501 -0.00000000000E+00  0.00000000000E+00  0.12968164865E+03  0.12968164865E+03  0.00000000000E+00 0.  1.
          2   -1    0    0  501    0  0.00000000000E+00 -0.00000000000E+00 -0.57144879028E+03  0.57144879028E+03  0.00000000000E+00 0. -1.
          5    1    1    2  502    0 -0.78295716230E+02  0.66562449196E+02 -0.75698732267E+02  0.12772300846E+03  0.47000000000E+01 0.  1.
         -5    1    1    2    0  502 -0.18470381435E+02  0.14382215160E+03 -0.27270190074E+03  0.30889218661E+03  0.47000000000E+01 0.  1.
        -11    1    1    2    0    0  0.37839325907E+02 -0.78562057458E+02  0.87847234134E+01  0.87641216460E+02  0.00000000000E+00 0.  1.
         11    1    1    2    0    0  0.58926771757E+02 -0.13182254333E+03 -0.10215123204E+03  0.17687402740E+03  0.00000000000E+00 0. -1.
<mgrwt>
<rscale>  0 0.25914699E+03</rscale>
<asrwt>0</asrwt>
<pdfrwt beam="2">  1        2 0.87915199E-01 0.26315362E+03</pdfrwt>
<pdfrwt beam="1">  1       -2 0.19951023E-01 0.26315362E+03</pdfrwt>
<totfact> 0.11287179E+03</totfact>
</mgrwt>
</event>
<event>
 6    1  0.4705246E-006  0.1620254E+03  0.7546771E-02  0.1197490E+00
          1   -1    0    0  501    0  0.00000000000E+00  0.00000000000E+00  0.85133418119E+03  0.85133418119E+03  0.00000000000E+00 0. -1.
         -1   -1    0    0    0  501 -0.00000000000E+00 -0.00000000000E+00 -0.27524740303E+02  0.27524740303E+02  0.00000000000E+00 0.  1.
          5    1    1    2  502    0  0.19990191397E+02  0.34841720932E+02  0.47570021811E+03  0.47741631809E+03  0.47000000000E+01 0. -1.
         -5    1    1    2    0  502 -0.56050591946E+02  0.46418907231E+02  0.12467594137E+03  0.14443879037E+03  0.47000000000E+01 0.  1.
        -11    1    1    2    0    0  0.81833418578E+01 -0.95000846201E+02  0.17845756546E+03  0.20233445217E+03  0.00000000000E+00 0.  1.
         11    1    1    2    0    0  0.27877058691E+02  0.13740218038E+02  0.44975715935E+02  0.54669360860E+02  0.00000000000E+00 0. -1.
<mgrwt>
<rscale>  0 0.15245327E+03</rscale>
<asrwt>0</asrwt>
<pdfrwt beam="1">  1        1 0.13097447E+00 0.16202544E+03</pdfrwt>
<pdfrwt beam="2">  1       -1 0.42345761E-02 0.16202544E+03</pdfrwt>
<totfact> 0.46300174E+03</totfact>
</mgrwt>
</event>
<event>
 6    1  0.4705246E-006  0.1686329E+03  0.7546771E-02  0.1185996E+00
          2   -1    0    0  501    0  0.00000000000E+00  0.00000000000E+00  0.11395926212E+04  0.11395926212E+04  0.00000000000E+00 0. -1.
         -2   -1    0    0    0  501 -0.00000000000E+00 -0.00000000000E+00 -0.31500395264E+02  0.31500395264E+02  0.00000000000E+00 0.  1.
          5    1    1    2  502    0 -0.12731263253E+02  0.42764023702E+02  0.74962717516E+03  0.75096860023E+03  0.47000000000E+01 0.  1.
         -5    1    1    2    0  502 -0.26543754963E+02  0.63392743772E+02  0.16064099329E+03  0.17478795615E+03  0.47000000000E+01 0.  1.
        -11    1    1    2    0    0  0.33126097443E+02 -0.45498520953E+02  0.16856100074E+03  0.17770836984E+03  0.00000000000E+00 0. -1.
         11    1    1    2    0    0  0.61489207730E+01 -0.60658246521E+02  0.29263056713E+02  0.67628090213E+02  0.00000000000E+00 0.  1.
<mgrwt>
<rscale>  0 0.16241562E+03</rscale>
<asrwt>0</asrwt>
<pdfrwt beam="1">  1        2 0.17532191E+00 0.16863292E+03</pdfrwt>
<pdfrwt beam="2">  1       -2 0.48462155E-02 0.16863292E+03</pdfrwt>
<totfact> 0.43920609E+03</totfact>
</mgrwt>
</event>
<event>
 6    1  0.4705246E-006  0.1462079E+03  0.7546771E-02  0.1215270E+00
         -1   -1    0    0    0  501 -0.00000000000E+00  0.00000000000E+00  0.12282904155E+03  0.12282904155E+03  0.00000000000E+00 0.  1.
          1   -1    0    0  501    0  0.00000000000E+00 -0.00000000000E+00 -0.14226499074E+03  0.14226499074E+03  0.00000000000E+00 0. -1.
          5    1    1    2  502    0 -0.51150398102E+02  0.10686812526E+01  0.83794256739E+01  0.52055836179E+02  0.47000000000E+01 0.  1.
         -5    1    1    2    0  502  0.49983961016E+02 -0.76897363900E+02 -0.24439337729E+02  0.95031427234E+02  0.47000000000E+01 0.  1.
        -11    1    1    2    0    0 -0.39758458533E+02  0.28793175747E+02 -0.20733405250E+02  0.53288423581E+02  0.00000000000E+00 0. -1.
         11    1    1    2    0    0  0.40924895619E+02  0.47035506900E+02  0.17357368112E+02  0.64718345302E+02  0.00000000000E+00 0.  1.
<mgrwt>
<rscale>  0 0.13856717E+03</rscale>
<asrwt>0</asrwt>
<pdfrwt beam="2">  1        1 0.21886922E-01 0.14620787E+03</pdfrwt>
<pdfrwt beam="1">  1       -1 0.18896776E-01 0.14620787E+03</pdfrwt>
<totfact> 0.48264156E+03</totfact>
</mgrwt>
</event>
<event>
 6    1  0.4705246E-006  0.1253246E+03  0.7546771E-02  0.1249863E+00
          1   -1    0    0  501    0  0.00000000000E+00  0.00000000000E+00  0.11108539809E+03  0.11108539809E+03  0.00000000000E+00 0. -1.
         -1   -1    0    0    0  501 -0.00000000000E+00 -0.00000000000E+00 -0.10683994987E+03  0.10683994987E+03  0.00000000000E+00 0.  1.
          5    1    1    2  502    0  0.30027511031E+02  0.51465647240E+02  0.13879292371E+02  0.61360321229E+02  0.47000000000E+01 0.  1.
         -5    1    1    2    0  502 -0.24699374125E+02 -0.59192412552E+02 -0.34068541679E+01  0.64401067082E+02  0.47000000000E+01 0.  1.
        -11    1    1    2    0    0  0.23855903296E+02 -0.10952780477E+02  0.31457116664E+02  0.40970937395E+02  0.00000000000E+00 0. -1.
         11    1    1    2    0    0 -0.29184040202E+02  0.18679545789E+02 -0.37684106647E+02  0.51193022251E+02  0.00000000000E+00 0.  1.
<mgrwt>
<rscale>  0 0.11598962E+03</rscale>
<asrwt>0</asrwt>
<pdfrwt beam="1">  1        1 0.17090061E-01 0.12532460E+03</pdfrwt>
<pdfrwt beam="2">  1       -1 0.16436915E-01 0.12532460E+03</pdfrwt>
<totfact> 0.81662830E+03</totfact>
</mgrwt>
</event>
<event>
 6    1  0.4705246E-006  0.1308314E+03  0.7546771E-02  0.1254541E+00
         -4   -1    0    0    0  501 -0.00000000000E+00  0.00000000000E+00  0.20949520145E+02  0.20949520145E+02  0.00000000000E+00 0.  1.
          4   -1    0    0  501    0  0.00000000000E+00 -0.00000000000E+00 -0.49946205689E+03  0.49946205689E+03  0.00000000000E+00 0. -1.
          5    1    1    2  502    0  0.52213550487E+02  0.59188960228E+01 -0.23275610134E+03  0.23866038820E+03  0.47000000000E+01 0. -1.
         -5    1    1    2    0  502 -0.51208931224E+02  0.32693463153E+02 -0.81666540368E+02  0.10189568679E+03  0.47000000000E+01 0. -1.
        -11    1    1    2    0    0  0.27683065263E+02 -0.24994489027E+02 -0.56687547804E+02  0.67856868924E+02  0.00000000000E+00 0. -1.
         11    1    1    2    0    0 -0.28687684526E+02 -0.13617870148E+02 -0.10740234723E+03  0.11199863312E+03  0.00000000000E+00 0.  1.
<mgrwt>
<rscale>  0 0.11332061E+03</rscale>
<asrwt>0</asrwt>
<pdfrwt beam="2">  1        4 0.76840313E-01 0.13083135E+03</pdfrwt>
<pdfrwt beam="1">  1       -4 0.32230032E-02 0.13083135E+03</pdfrwt>
<totfact> 0.12274197E+03</totfact>
</mgrwt>
</event>
<event>
 6    1  0.4705246E-006  0.1418776E+03  0.7546771E-02  0.1221581E+00
          1   -1    0    0  501    0  0.00000000000E+00  0.00000000000E+00  0.48675416373E+03  0.48675416373E+03  0.00000000000E+00 0. -1.
         -1   -1    0    0    0  501 -0.00000000000E+00 -0.00000000000E+00 -0.33797641242E+02  0.33797641242E+02  0.00000000000E+00 0.  1.
          5    1    1    2  502    0  0.53848136001E+02 -0.64364026585E+02  0.26696852917E+03  0.27988682576E+03  0.47000000000E+01 0. -1.
         -5    1    1    2    0  502  0.44756707877E+01  0.31156103148E+02  0.13790849912E+02  0.34684462424E+02  0.47000000000E+01 0. -1.
        -11    1    1    2    0    0 -0.77555512140E+02  0.20690998233E+02  0.16215244859E+03  0.18093200782E+03  0.00000000000E+00 0. -1.
         11    1    1    2    0    0  0.19231705351E+02  0.12516925204E+02  0.10044694817E+02  0.25048508962E+02  0.00000000000E+00 0.  1.
<mgrwt>
<rscale>  0 0.13404028E+03</rscale>
<asrwt>0</asrwt>
<pdfrwt beam="1">  1        1 0.74885251E-01 0.14187765E+03</pdfrwt>
<pdfrwt beam="2">  1       -1 0.51996374E-02 0.14187765E+03</pdfrwt>
<totfact> 0.74518277E+03</totfact>
</mgrwt>
</event>
<event>
 6    1  0.4705246E-006  0.1930276E+03  0.7546771E-02  0.1161012E+00
          2   -1    0    0  501    0  0.00000000000E+00  0.00000000000E+00  0.26977184847E+03  0.26977184847E+03  0.00000000000E+00 0. -1.
         -2   -1    0    0    0  501 -0.00000000000E+00 -0.00000000000E+00 -0.12335188347E+03  0.12335188347E+03  0.00000000000E+00 0.  1.
          5    1    1    2  502    0 -0.59671074726E+02 -0.45687342829E+02  0.94177959267E+02  0.12058005003E+03  0.47000000000E+01 0.  1.
         -5    1    1    2    0  502 -0.74633517747E+02 -0.14247800253E+02 -0.31474549299E+02  0.82376568495E+02  0.47000000000E+01 0.  1.
        -11    1    1    2    0    0  0.16431041859E+02  0.19309218960E+02 -0.16461088121E+02  0.30229000903E+02  0.00000000000E+00 0.  1.
         11    1    1    2    0    0  0.11787355061E+03  0.40625924122E+02  0.10017764315E+03  0.15993811251E+03  0.00000000000E+00 0. -1.
<mgrwt>
<rscale>  0 0.18719916E+03</rscale>
<asrwt>0</asrwt>
<pdfrwt beam="1">  1        2 0.41503361E-01 0.19302764E+03</pdfrwt>
<pdfrwt beam="2">  1       -2 0.18977213E-01 0.19302764E+03</pdfrwt>
<totfact> 0.27785192E+03</totfact>
</mgrwt>
</event>
<event>
 6    1  0.4705246E-006  0.2600392E+03  0.7546771E-02  0.1107120E+00
         -2   -1    0    0    0  501 -0.00000000000E+00  0.00000000000E+00  0.41018357771E+02  0.41018357771E+02  0.00000000000E+00 0.  1.
          2   -1    0    0  501    0  0.00000000000E+00 -0.00000000000E+00 -0.41213475455E+03  0.41213475455E+03  0.00000000000E+00 0. -1.
          5    1    1    2  502    0 -0.70150752146E+02 -0.20577545477E+02 -0.76279089459E+02  0.10575988319E+03  0.47000000000E+01 0.  1.
         -5    1    1    2    0  502  0.21544076275E+02  0.49367299781E+01 -0.20506862649E+03  0.20630984004E+03  0.47000000000E+01 0.  1.
        -11    1    1    2    0    0  0.59641807429E+02 -0.15483457904E+02 -0.21525758935E+02  0.65270521369E+02  0.00000000000E+00 0.  1.
         11    1    1    2    0    0 -0.11035131558E+02  0.31124273403E+02 -0.68242921889E+02  0.75812867716E+02  0.00000000000E+00 0. -1.
<mgrwt>
<rscale>  0 0.26003916E+03</rscale>
<asrwt>0</asrwt>
<pdfrwt beam="2">  1        2 0.63405344E-01 0.26003916E+03</pdfrwt>
<pdfrwt beam="1">  1       -2 0.63105169E-02 0.26003916E+03</pdfrwt>
<totfact> 0.10469205E+04</totfact>
</mgrwt>
</event>
<event>
 6    1  0.4705246E-006  0.1281623E+03  0.7546771E-02  0.1246516E+00
          3   -1    0    0  501    0  0.00000000000E+00  0.00000000000E+00  0.39162760213E+02  0.39162760213E+02  0.00000000000E+00 0. -1.
         -3   -1    0    0    0  501 -0.00000000000E+00 -0.00000000000E+00 -0.31060182995E+03  0.31060182995E+03  0.00000000000E+00 0.  1.
          5    1    1    2  502    0 -0.53536104691E+02  0.20758257128E+02 -0.71559392148E+02  0.91868690798E+02  0.47000000000E+01 0.  1.
         -5    1    1    2    0  502  0.50387672230E+02 -0.48859245253E+02 -0.75096837802E+02  0.10289688240E+03  0.47000000000E+01 0.  1.
        -11    1    1    2    0    0  0.25308156410E+02 -0.10389303449E+02 -0.10095758214E+03  0.10459863192E+03  0.00000000000E+00 0.  1.
         11    1    1    2    0    0 -0.22159723949E+02  0.38490291574E+02 -0.23825257641E+02  0.50400385044E+02  0.00000000000E+00 0. -1.
<mgrwt>
<rscale>  0 0.11795127E+03</rscale>
<asrwt>0</asrwt>
<pdfrwt beam="1">  1        3 0.60250404E-02 0.12816231E+03</pdfrwt>
<pdfrwt beam="2">  1       -3 0.47784894E-01 0.12816231E+03</pdfrwt>
<totfact> 0.16823549E+03</totfact>
</mgrwt>
</event>
<event>
 6    1  0.4705246E-006  0.1282864E+03  0.7546771E-02  0.1242975E+00
         -1   -1    0    0    0  501 -0.00000000000E+00  0.00000000000E+00  0.17364646937E+02  0.17364646937E+02  0.00000000000E+00 0.  1.
          1   -1    0    0  501    0  0.00000000000E+00 -0.00000000000E+00 -0.85936410530E+03  0.85936410530E+03  0.00000000000E+00 0. -1.
          5    1    1    2  502    0  0.50472812931E+02 -0.24564747178E+02 -0.35113396667E+03  0.35562351469E+03  0.47000000000E+01 0. -1.
         -5    1    1    2    0  502 -0.68588109694E+02 -0.74448900501E+01 -0.27958182914E+03  0.28800667417E+03  0.47000000000E+01 0.  1.
        -11    1    1    2    0    0 -0.53318793714E+01  0.58319258286E+02 -0.95076379801E+02  0.11166504744E+03  0.00000000000E+00 0.  1.
         11    1    1    2    0    0  0.23447176134E+02 -0.26309621057E+02 -0.11620728275E+03  0.12143351593E+03  0.00000000000E+00 0. -1.
<mgrwt>
<rscale>  0 0.12007407E+03</rscale>
<asrwt>0</asrwt>
<pdfrwt beam="2">  1        1 0.13220990E+00 0.12828642E+03</pdfrwt>
<pdfrwt beam="1">  1       -1 0.26714834E-02 0.12828642E+03</pdfrwt>
<totfact> 0.88524188E+03</totfact>
</mgrwt>
</event>
<event>
 6    1  0.4705246E-006  0.3534551E+03  0.7546771E-02  0.1062587E+00
          2   -1    0    0  501    0  0.00000000000E+00  0.00000000000E+00  0.19930332737E+04  0.19930332737E+04  0.00000000000E+00 0. -1.
         -2   -1    0    0    0  501 -0.00000000000E+00 -0.00000000000E+00 -0.63954546895E+02  0.63954546895E+02  0.00000000000E+00 0.  1.
          5    1    1    2  502    0  0.23735853535E+03 -0.72224959976E+02  0.93531280380E+03  0.96767125105E+03  0.47000000000E+01 0.  1.
         -5    1    1    2    0  502  0.51462212937E+02 -0.88673448162E+02  0.29130719392E+03  0.30885807582E+03  0.47000000000E+01 0.  1.
        -11    1    1    2    0    0 -0.23349206916E+03  0.12425073430E+03  0.47685131921E+03  0.54529255631E+03  0.00000000000E+00 0.  1.
         11    1    1    2    0    0 -0.55328679127E+02  0.36647673837E+02  0.22560740983E+03  0.23516593738E+03  0.00000000000E+00 0. -1.
<mgrwt>
<rscale>  0 0.35006763E+03</rscale>
<asrwt>0</asrwt>
<pdfrwt beam="1">  1        2 0.30662046E+00 0.35345509E+03</pdfrwt>
<pdfrwt beam="2">  1       -2 0.98391626E-02 0.35345509E+03</pdfrwt>
<totfact> 0.50476359E+02</totfact>
</mgrwt>
</event>
<event>
 6    1  0.4705246E-006  0.1845256E+03  0.7546771E-02  0.1172385E+00
          2   -1    0    0  501    0  0.00000000000E+00  0.00000000000E+00  0.18356604841E+03  0.18356604841E+03  0.00000000000E+00 0. -1.
         -2   -1    0    0    0  501 -0.00000000000E+00 -0.00000000000E+00 -0.17691110675E+03  0.17691110675E+03  0.00000000000E+00 0.  1.
          5    1    1    2  502    0 -0.46108533416E+02 -0.40298139135E+02  0.99399144649E+02  0.11684270122E+03  0.47000000000E+01 0. -1.
         -5    1    1    2    0  502 -0.50946896307E+02 -0.54593697091E+02 -0.29572071421E+02  0.80452814827E+02  0.47000000000E+01 0. -1.
        -11    1    1    2    0    0  0.87861091734E+02  0.66177151823E+02 -0.22038940480E+02  0.11218155714E+03  0.00000000000E+00 0. -1.
         11    1    1    2    0    0  0.91943379895E+01  0.28714684403E+02 -0.41133191089E+02  0.51000081967E+02  0.00000000000E+00 0.  1.
<mgrwt>
<rscale>  0 0.17534610E+03</rscale>
<asrwt>0</asrwt>
<pdfrwt beam="1">  1        2 0.28240930E-01 0.18452561E+03</pdfrwt>
<pdfrwt beam="2">  1       -2 0.27217094E-01 0.18452561E+03</pdfrwt>
<totfact> 0.22518189E+03</totfact>
</mgrwt>
</event>
<event>
 6    1  0.4705246E-006  0.1825336E+03  0.7546771E-02  0.1170684E+00
         -1   -1    0    0    0  501 -0.00000000000E+00  0.00000000000E+00  0.17859143831E+03  0.17859143831E+03  0.00000000000E+00 0.  1.
          1   -1    0    0  501    0  0.00000000000E+00 -0.00000000000E+00 -0.17523448072E+03  0.17523448072E+03  0.00000000000E+00 0. -1.
          5    1    1    2  502    0 -0.29628317175E+02 -0.66901341427E+01 -0.72310435954E+02  0.78571522967E+02  0.47000000000E+01 0. -1.
         -5    1    1    2    0  502 -0.10246103570E+03 -0.90927237892E+01  0.33033647547E+02  0.10813997102E+03  0.47000000000E+01 0. -1.
        -11    1    1    2    0    0  0.37328552993E+02 -0.35519529091E+02  0.83310721931E+00  0.51533987649E+02  0.00000000000E+00 0.  1.
         11    1    1    2    0    0  0.94760799878E+02  0.51302387023E+02  0.41800638777E+02  0.11558043740E+03  0.00000000000E+00 0. -1.
<mgrwt>
<rscale>  0 0.17705457E+03</rscale>
<asrwt>0</asrwt>
<pdfrwt beam="2">  1        1 0.26959151E-01 0.18253360E+03</pdfrwt>
<pdfrwt beam="1">  1       -1 0.27475606E-01 0.18253360E+03</pdfrwt>
<totfact> 0.20317898E+03</totfact>
</mgrwt>
</event>
<event>
 6    1  0.4705246E-006  0.1373614E+03  0.7546771E-02  0.1232706E+00
          1   -1    0    0  501    0  0.00000000000E+00  0.00000000000E+00  0.62412796165E+03  0.62412796165E+03  0.00000000000E+00 0. -1.
         -1   -1    0    0    0  501 -0.00000000000E+00 -0.00000000000E+00 -0.22371070218E+02  0.22371070218E+02  0.00000000000E+00 0.  1.
          5    1    1    2  502    0  0.23865918041E+02  0.91743025632E+02  0.27170946404E+03  0.28780981159E+03  0.47000000000E+01 0.  1.
         -5    1    1    2    0  502  0.18969642311E+01 -0.40954122106E+02  0.86689436911E+02  0.96010348727E+02  0.47000000000E+01 0.  1.
        -11    1    1    2    0    0 -0.22815640585E+02 -0.63168624611E+02  0.24041117266E+03  0.24961642680E+03  0.00000000000E+00 0. -1.
         11    1    1    2    0    0 -0.29472416877E+01  0.12379721084E+02  0.29468178259E+01  0.13062444756E+02  0.00000000000E+00 0.  1.
<mgrwt>
<rscale>  0 0.12652448E+03</rscale>
<asrwt>0</asrwt>
<pdfrwt beam="1">  1        1 0.96019673E-01 0.13736136E+03</pdfrwt>
<pdfrwt beam="2">  1       -1 0.34417036E-02 0.13736136E+03</pdfrwt>
<totfact> 0.97962585E+03</totfact>
</mgrwt>
</event>
<event>
 6    1  0.4705246E-006  0.1275624E+03  0.7546771E-02  0.1247682E+00
         -2   -1    0    0    0  501 -0.00000000000E+00  0.00000000000E+00  0.13757497259E+02  0.13757497259E+02  0.00000000000E+00 0.  1.
          2   -1    0    0  501    0  0.00000000000E+00 -0.00000000000E+00 -0.88019668506E+03  0.88019668506E+03  0.00000000000E+00 0. -1.
          5    1    1    2  502    0 -0.50163744863E+02  0.27469424398E+02 -0.21798320743E+03  0.22541015793E+03  0.47000000000E+01 0.  1.
         -5    1    1    2    0  502  0.68423756623E+02 -0.97191113403E+01 -0.33676671567E+03  0.34381707691E+03  0.47000000000E+01 0.  1.
        -11    1    1    2    0    0 -0.33322914884E+01  0.35283080803E+02 -0.13990857862E+03  0.14432744136E+03  0.00000000000E+00 0.  1.
         11    1    1    2    0    0 -0.14927720272E+02 -0.53033393861E+02 -0.17178068608E+03  0.18039950611E+03  0.00000000000E+00 0. -1.
<mgrwt>
<rscale>  0 0.11726266E+03</rscale>
<asrwt>0</asrwt>
<pdfrwt beam="2">  1        2 0.13541485E+00 0.12756241E+03</pdfrwt>
<pdfrwt beam="1">  1       -2 0.21165385E-02 0.12756241E+03</pdfrwt>
<totfact> 0.21041700E+04</totfact>
</mgrwt>
</event>
<event>
 6    1  0.4705246E-006  0.1768847E+03  0.7546771E-02  0.1172662E+00
          1   -1    0    0  501    0  0.00000000000E+00  0.00000000000E+00  0.18475259995E+03  0.18475259995E+03  0.00000000000E+00 0. -1.
         -1   -1    0    0    0  501 -0.00000000000E+00 -0.00000000000E+00 -0.16553885785E+03  0.16553885785E+03  0.00000000000E+00 0.  1.
          5    1    1    2  502    0  0.43974170686E+01 -0.88892739289E+02  0.34361616898E+00  0.89126115405E+02  0.47000000000E+01 0.  1.
         -5    1    1    2    0  502 -0.84228459056E+02 -0.74954671997E+01  0.32887150398E+02  0.90853013185E+02  0.47000000000E+01 0.  1.
        -11    1    1    2    0    0  0.10447315992E+02  0.43171462337E+01 -0.48641504913E+02  0.49937762897E+02  0.00000000000E+00 0.  1.
         11    1    1    2    0    0  0.69383725996E+02  0.92071060255E+02  0.34624480446E+02  0.12037456632E+03  0.00000000000E+00 0. -1.
<mgrwt>
<rscale>  0 0.17506942E+03</rscale>
<asrwt>0</asrwt>
<pdfrwt beam="1">  1        1 0.28423477E-01 0.17688472E+03</pdfrwt>
<pdfrwt beam="2">  1       -1 0.25467517E-01 0.17688472E+03</pdfrwt>
<totfact> 0.21547085E+03</totfact>
</mgrwt>
</event>
<event>
 6    1  0.4705246E-006  0.1203338E+03  0.7546771E-02  0.1248629E+00
          2   -1    0    0  501    0  0.00000000000E+00  0.00000000000E+00  0.26101132629E+02  0.26101132629E+02  0.00000000000E+00 0. -1.
         -2   -1    0    0    0  501 -0.00000000000E+00 -0.00000000000E+00 -0.56386355938E+03  0.56386355938E+03  0.00000000000E+00 0.  1.
          5    1    1    2  502    0 -0.52282048704E+02 -0.51615923082E+02 -0.87149527219E+02  0.11408219066E+03  0.47000000000E+01 0. -1.
         -5    1    1    2    0  502  0.37556683602E+02  0.21452152798E+02 -0.91476800265E+02  0.10129557902E+03  0.47000000000E+01 0.  1.
        -11    1    1    2    0    0  0.86301075125E+01  0.67693255041E+02 -0.21912709675E+03  0.22950716778E+03  0.00000000000E+00 0.  1.
         11    1    1    2    0    0  0.60952575893E+01 -0.37529484757E+02 -0.14000900252E+03  0.14507975454E+03  0.00000000000E+00 0. -1.
<mgrwt>
<rscale>  0 0.11670814E+03</rscale>
<asrwt>0</asrwt>
<pdfrwt beam="1">  1        2 0.40155594E-02 0.12033378E+03</pdfrwt>
<pdfrwt beam="2">  1       -2 0.86748229E-01 0.12033378E+03</pdfrwt>
<totfact> 0.23792301E+03</totfact>
</mgrwt>
</event>
<event>
 6    1  0.4705246E-006  0.1345345E+03  0.7546771E-02  0.1233459E+00
         -1   -1    0    0    0  501 -0.00000000000E+00  0.00000000000E+00  0.12221893081E+03  0.12221893081E+03  0.00000000000E+00 0.  1.
          1   -1    0    0  501    0  0.00000000000E+00 -0.00000000000E+00 -0.11628533709E+03  0.11628533709E+03  0.00000000000E+00 0. -1.
          5    1    1    2  502    0 -0.30315857572E+02 -0.24525059071E+02  0.21170138616E+02  0.44618320360E+02  0.47000000000E+01 0. -1.
         -5    1    1    2    0  502  0.52357015674E+02  0.69108593526E+02 -0.23430369011E+02  0.89935126516E+02  0.47000000000E+01 0. -1.
        -11    1    1    2    0    0 -0.31988545993E+02 -0.33299856458E+02 -0.35175383361E+02  0.58047007756E+02  0.00000000000E+00 0. -1.
         11    1    1    2    0    0  0.99473878914E+01 -0.11283677998E+02  0.43369207473E+02  0.45903813260E+02  0.00000000000E+00 0.  1.
<mgrwt>
<rscale>  0 0.12603576E+03</rscale>
<asrwt>0</asrwt>
<pdfrwt beam="2">  1        1 0.17890052E-01 0.13453446E+03</pdfrwt>
<pdfrwt beam="1">  1       -1 0.18802912E-01 0.13453446E+03</pdfrwt>
<totfact> 0.62559001E+03</totfact>
</mgrwt>
</event>
<event>
 6    1  0.4705246E-006  0.1282103E+03  0.7546771E-02  0.1245266E+00
          2   -1    0    0  501    0  0.00000000000E+00  0.00000000000E+00  0.64088587493E+03  0.64088587493E+03  0.00000000000E+00 0.  1.
         -2   -1    0    0    0  501 -0.00000000000E+00 -0.00000000000E+00 -0.20172846425E+02  0.20172846425E+02  0.00000000000E+00 0. -1.
          5    1    1    2  502    0 -0.67113758214E+01  0.48335119035E+02  0.20291280780E+03  0.20875110507E+03  0.47000000000E+01 0. -1.
         -5    1    1    2    0  502  0.67118862569E+01 -0.76860595085E+02  0.22112990708E+03  0.23425013617E+03  0.47000000000E+01 0. -1.
        -11    1    1    2    0    0  0.30999582104E+02  0.40822044597E+02  0.68116799050E+02  0.85248529187E+02  0.00000000000E+00 0. -1.
         11    1    1    2    0    0 -0.31000092539E+02 -0.12296568547E+02  0.12855351458E+03  0.13280895093E+03  0.00000000000E+00 0.  1.
<mgrwt>
<rscale>  0 0.11869480E+03</rscale>
<asrwt>0</asrwt>
<pdfrwt beam="1">  1        2 0.98597811E-01 0.12821028E+03</pdfrwt>
<pdfrwt beam="2">  1       -2 0.31035153E-02 0.12821028E+03</pdfrwt>
<totfact> 0.17702870E+04</totfact>
</mgrwt>
</event>
<event>
 6    1  0.4705246E-006  0.1365676E+03  0.7546771E-02  0.1230177E+00
         -2   -1    0    0    0  501 -0.00000000000E+00  0.00000000000E+00  0.22087032082E+03  0.22087032082E+03  0.00000000000E+00 0.  1.
          2   -1    0    0  501    0  0.00000000000E+00 -0.00000000000E+00 -0.86788295652E+02  0.86788295652E+02  0.00000000000E+00 0. -1.
          5    1    1    2  502    0  0.83938876834E+01 -0.42886869882E+02 -0.60655546155E+02  0.74906116159E+02  0.47000000000E+01 0.  1.
         -5    1    1    2    0  502  0.20688003225E+01 -0.11117791491E+02  0.60433298134E+02  0.61661647284E+02  0.47000000000E+01 0.  1.
        -11    1    1    2    0    0  0.29330569363E+02 -0.94891036722E+01  0.34123264378E+02  0.45986112680E+02  0.00000000000E+00 0. -1.
         11    1    1    2    0    0 -0.39793257368E+02  0.63493765045E+02  0.10018100882E+03  0.12510474035E+03  0.00000000000E+00 0.  1.
<mgrwt>
<rscale>  0 0.12818277E+03</rscale>
<asrwt>0</asrwt>
<pdfrwt beam="2">  1        2 0.13352046E-01 0.13656758E+03</pdfrwt>
<pdfrwt beam="1">  1       -2 0.33980049E-01 0.13656758E+03</pdfrwt>
<totfact> 0.34922789E+03</totfact>
</mgrwt>
</event>
<event>
 6    1  0.4705246E-006  0.1648260E+03  0.7546771E-02  0.1192244E+00
          2   -1    0    0  501    0  0.00000000000E+00  0.00000000000E+00  0.35739090979E+02  0.35739090979E+02  0.00000000000E+00 0. -1.
         -2   -1    0    0    0  501 -0.00000000000E+00 -0.00000000000E+00 -0.63557259152E+03  0.63557259152E+03  0.00000000000E+00 0.  1.
          5    1    1    2  502    0 -0.54412659010E+02 -0.48919094563E+02 -0.16463997228E+03  0.18022826012E+03  0.47000000000E+01 0. -1.
         -5    1    1    2    0  502 -0.39199182757E+02  0.82501758670E+02 -0.19515230450E+03  0.21552175775E+03  0.47000000000E+01 0.  1.
        -11    1    1    2    0    0 -0.97192824503E+01 -0.61630983877E+01  0.13195898335E+01  0.11584021340E+02  0.00000000000E+00 0. -1.
         11    1    1    2    0    0  0.10333112422E+03 -0.27419565720E+02 -0.24136081359E+03  0.26397764328E+03  0.00000000000E+00 0.  1.
<mgrwt>
<rscale>  0 0.15689836E+03</rscale>
<asrwt>0</asrwt>
<pdfrwt beam="1">  1        2 0.54983223E-02 0.16482595E+03</pdfrwt>
<pdfrwt beam="2">  1       -2 0.97780388E-01 0.16482595E+03</pdfrwt>
<totfact> 0.12246826E+03</totfact>
</mgrwt>
</event>
<event>
 6    1  0.4705246E-006  0.3019804E+03  0.7546771E-02  0.1084255E+00
         -4   -1    0    0    0  501 -0.00000000000E+00  0.00000000000E+00  0.14407297865E+03  0.14407297865E+03  0.00000000000E+00 0.  1.
          4   -1    0    0  501    0  0.00000000000E+00 -0.00000000000E+00 -0.15823952605E+03  0.15823952605E+03  0.00000000000E+00 0. -1.
          5    1    1    2  502    0 -0.10367902211E+03 -0.41260180469E+01  0.54335004551E+01  0.10400950235E+03  0.47000000000E+01 0.  1.
         -5    1    1    2    0  502  0.98338403391E+01  0.14521838934E+02 -0.58715192219E+02  0.61458539026E+02  0.47000000000E+01 0.  1.
        -11    1    1    2    0    0  0.36998561793E+02 -0.43509487483E+02  0.42155504277E+02  0.70986305838E+02  0.00000000000E+00 0.  1.
         11    1    1    2    0    0  0.56846619983E+02  0.33113666596E+02 -0.30403599102E+01  0.65858157485E+02  0.00000000000E+00 0. -1.
<mgrwt>
<rscale>  0 0.30198040E+03</rscale>
<asrwt>0</asrwt>
<pdfrwt beam="2">  1        4 0.24344542E-01 0.30198040E+03</pdfrwt>
<pdfrwt beam="1">  1       -4 0.22165074E-01 0.30198040E+03</pdfrwt>
<totfact> 0.55847016E+02</totfact>
</mgrwt>
</event>
<event>
 6    1  0.4705246E-006  0.1339507E+03  0.7546771E-02  0.1234386E+00
         -2   -1    0    0    0  501 -0.00000000000E+00  0.00000000000E+00  0.32740551787E+02  0.32740551787E+02  0.00000000000E+00 0.  1.
          2   -1    0    0  501    0  0.00000000000E+00 -0.00000000000E+00 -0.48831945700E+03  0.48831945700E+03  0.00000000000E+00 0. -1.
          5    1    1    2  502    0  0.71439808646E+02 -0.91740768832E+01 -0.30328184606E+03  0.31175275154E+03  0.47000000000E+01 0. -1.
         -5    1    1    2    0  502 -0.34170251618E+02 -0.21290721568E+02 -0.40930329267E+02  0.57604537794E+02  0.47000000000E+01 0. -1.
        -11    1    1    2    0    0  0.30435333855E+02  0.79988441464E+01 -0.38605151486E+02  0.49806111832E+02  0.00000000000E+00 0.  1.
         11    1    1    2    0    0 -0.67704890883E+02  0.22465954304E+02 -0.72761578400E+02  0.10189660762E+03  0.00000000000E+00 0. -1.
<mgrwt>
<rscale>  0 0.12543799E+03</rscale>
<asrwt>0</asrwt>
<pdfrwt beam="2">  1        2 0.75126075E-01 0.13395068E+03</pdfrwt>
<pdfrwt beam="1">  1       -2 0.50370077E-02 0.13395068E+03</pdfrwt>
<totfact> 0.11738952E+04</totfact>
</mgrwt>
</event>
<event>
 6    1  0.4705246E-006  0.2643209E+03  0.7546771E-02  0.1143694E+00
         -2   -1    0    0    0  501 -0.00000000000E+00  0.00000000000E+00  0.55788100456E+02  0.55788100456E+02  0.00000000000E+00 0.  1.
          2   -1    0    0  501    0  0.00000000000E+00 -0.00000000000E+00 -0.64794242576E+03  0.64794242576E+03  0.00000000000E+00 0. -1.
          5    1    1    2  502    0  0.60289464195E+02 -0.68439617120E+02 -0.39070015050E+03  0.40123247412E+03  0.47000000000E+01 0. -1.
         -5    1    1    2    0  502 -0.75938286252E+02  0.99644734365E+02 -0.11863570996E+03  0.17260422383E+03  0.47000000000E+01 0.  1.
        -11    1    1    2    0    0 -0.30686747424E+01  0.32998137049E+02 -0.29407671951E+02  0.44306940573E+02  0.00000000000E+00 0.  1.
         11    1    1    2    0    0  0.18717496799E+02 -0.64203254295E+02 -0.53410792895E+02  0.85586887700E+02  0.00000000000E+00 0. -1.
<mgrwt>
<rscale>  0 0.20733466E+03</rscale>
<asrwt>0</asrwt>
<pdfrwt beam="2">  1        2 0.99683447E-01 0.26432090E+03</pdfrwt>
<pdfrwt beam="1">  1       -2 0.85827850E-02 0.26432090E+03</pdfrwt>
<totfact> 0.38810781E+03</totfact>
</mgrwt>
</event>
<event>
 6    1  0.4705246E-006  0.1423304E+03  0.7546771E-02  0.1217570E+00
         -3   -1    0    0    0  501 -0.00000000000E+00  0.00000000000E+00  0.87604569417E+02  0.87604569417E+02  0.00000000000E+00 0.  1.
          3   -1    0    0  501    0  0.00000000000E+00 -0.00000000000E+00 -0.10206823246E+04  0.10206823246E+04  0.00000000000E+00 0. -1.
          5    1    1    2  502    0 -0.73949807313E+02  0.72073873751E+02 -0.60000986209E+03  0.60884903045E+03  0.47000000000E+01 0. -1.
         -5    1    1    2    0  502  0.28956819195E+02 -0.16868953639E+02 -0.37047830565E+03  0.37202059611E+03  0.47000000000E+01 0.  1.
        -11    1    1    2    0    0  0.32895056328E+02 -0.51764857415E+02  0.69653515132E+02  0.92807851846E+02  0.00000000000E+00 0.  1.
         11    1    1    2    0    0  0.12097931791E+02 -0.34400626969E+01 -0.32243102600E+02  0.34609415630E+02  0.00000000000E+00 0. -1.
<mgrwt>
<rscale>  0 0.13689464E+03</rscale>
<asrwt>0</asrwt>
<pdfrwt beam="2">  1        3 0.15702804E+00 0.14233039E+03</pdfrwt>
<pdfrwt beam="1">  1       -3 0.13477627E-01 0.14233039E+03</pdfrwt>
<totfact> 0.32592582E+01</totfact>
</mgrwt>
</event>
<event>
 6    1  0.4705246E-006  0.1350725E+03  0.7546771E-02  0.1232611E+00
          3   -1    0    0  501    0  0.00000000000E+00  0.00000000000E+00  0.86842720083E+02  0.86842720083E+02  0.00000000000E+00 0. -1.
         -3   -1    0    0    0  501 -0.00000000000E+00 -0.00000000000E+00 -0.16492896658E+03  0.16492896658E+03  0.00000000000E+00 0.  1.
          5    1    1    2  502    0 -0.68933596751E+02  0.10199286510E+02 -0.78128750467E+02  0.10479531409E+03  0.47000000000E+01 0.  1.
         -5    1    1    2    0  502  0.21134480090E+02  0.80218898949E+01  0.30654576554E+02  0.38377207166E+02  0.47000000000E+01 0.  1.
        -11    1    1    2    0    0  0.55698471355E+02  0.25492681622E+01  0.15105748271E+02  0.57766790722E+02  0.00000000000E+00 0. -1.
         11    1    1    2    0    0 -0.78993546941E+01 -0.20770444567E+02 -0.45717820854E+02  0.50832374681E+02  0.00000000000E+00 0.  1.
<mgrwt>
<rscale>  0 0.12658647E+03</rscale>
<asrwt>0</asrwt>
<pdfrwt beam="1">  1        3 0.13360419E-01 0.13507248E+03</pdfrwt>
<pdfrwt beam="2">  1       -3 0.25373687E-01 0.13507248E+03</pdfrwt>
<totfact> 0.15199309E+03</totfact>
</mgrwt>
</event>
<event>
 6    1  0.4705246E-006  0.1540462E+03  0.7546771E-02  0.1204021E+00
         -1   -1    0    0    0  501 -0.00000000000E+00  0.00000000000E+00  0.43548758990E+02  0.43548758990E+02  0.00000000000E+00 0.  1.
          1   -1    0    0  501    0  0.00000000000E+00 -0.00000000000E+00 -0.50465806115E+03  0.50465806115E+03  0.00000000000E+00 0. -1.
          5    1    1    2  502    0  0.22491591763E+02 -0.95225547718E+02 -0.24578210415E+03  0.26458403081E+03  0.47000000000E+01 0.  1.
         -5    1    1    2    0  502 -0.52309665411E+02  0.10276152509E+02 -0.87340602709E+02  0.10243227659E+03  0.47000000000E+01 0.  1.
        -11    1    1    2    0    0 -0.21222435767E+02  0.59583518400E+02 -0.35443835260E+02  0.72504157830E+02  0.00000000000E+00 0.  1.
         11    1    1    2    0    0  0.51040509415E+02  0.25365876808E+02 -0.92542760036E+02  0.10868635491E+03  0.00000000000E+00 0. -1.
<mgrwt>
<rscale>  0 0.14714893E+03</rscale>
<asrwt>0</asrwt>
<pdfrwt beam="2">  1        1 0.77639702E-01 0.15404620E+03</pdfrwt>
<pdfrwt beam="1">  1       -1 0.66998091E-02 0.15404620E+03</pdfrwt>
<totfact> 0.48922231E+03</totfact>
</mgrwt>
</event>
<event>
 6    1  0.4705246E-006  0.1381369E+03  0.7546771E-02  0.1227703E+00
          1   -1    0    0  501    0  0.00000000000E+00  0.00000000000E+00  0.38410919223E+03  0.38410919223E+03  0.00000000000E+00 0.  1.
         -1   -1    0    0    0  501 -0.00000000000E+00 -0.00000000000E+00 -0.59578029065E+02  0.59578029065E+02  0.00000000000E+00 0. -1.
          5    1    1    2  502    0 -0.71778807093E+02  0.12799078570E+02  0.28089148487E+03  0.29023805717E+03  0.47000000000E+01 0.  1.
         -5    1    1    2    0  502  0.16571888892E+02 -0.32839611810E+02  0.23158693981E+02  0.43720506769E+02  0.47000000000E+01 0.  1.
        -11    1    1    2    0    0 -0.80689919914E+01  0.23007455251E+02 -0.22500920939E+02  0.33177448244E+02  0.00000000000E+00 0. -1.
         11    1    1    2    0    0  0.63275910193E+02 -0.29669220116E+01  0.42981905259E+02  0.76551209113E+02  0.00000000000E+00 0.  1.
<mgrwt>
<rscale>  0 0.12983368E+03</rscale>
<asrwt>0</asrwt>
<pdfrwt beam="1">  1        1 0.59093720E-01 0.13813693E+03</pdfrwt>
<pdfrwt beam="2">  1       -1 0.91658509E-02 0.13813693E+03</pdfrwt>
<totfact> 0.43000370E+03</totfact>
</mgrwt>
</event>
<event>
 6    1  0.4705246E-006  0.2916327E+03  0.7546771E-02  0.1089500E+00
         -1   -1    0    0    0  501 -0.00000000000E+00  0.00000000000E+00  0.50700809019E+02  0.50700809019E+02  0.00000000000E+00 0.  1.
          1   -1    0    0  501    0  0.00000000000E+00 -0.00000000000E+00 -0.41937011332E+03  0.41937011332E+03  0.00000000000E+00 0. -1.
          5    1    1    2  502    0  0.32367666201E+02 -0.11734194864E+01 -0.36188041088E+02  0.48792489652E+02  0.47000000000E+01 0. -1.
         -5    1    1    2    0  502 -0.11417193559E+03 -0.51153477924E+02 -0.17292529283E+03  0.21348807012E+03  0.47000000000E+01 0. -1.
        -11    1    1    2    0    0  0.44300365036E+02  0.59416446486E+02 -0.44220598023E+02  0.86303521046E+02  0.00000000000E+00 0.  1.
         11    1    1    2    0    0  0.37503904351E+02 -0.70895490754E+01 -0.11533537236E+03  0.12148684153E+03  0.00000000000E+00 0. -1.
<mgrwt>
<rscale>  0 0.29163267E+03</rscale>
<asrwt>0</asrwt>
<pdfrwt beam="2">  1        1 0.64518480E-01 0.29163267E+03</pdfrwt>
<pdfrwt beam="1">  1       -1 0.78001244E-02 0.29163267E+03</pdfrwt>
<totfact> 0.50855429E+03</totfact>
</mgrwt>
</event>
<event>
 6    1  0.4705246E-006  0.1466937E+03  0.7546771E-02  0.1214493E+00
          1   -1    0    0  501    0  0.00000000000E+00  0.00000000000E+00  0.46132870605E+03  0.46132870605E+03  0.00000000000E+00 0. -1.
         -1   -1    0    0    0  501 -0.00000000000E+00 -0.00000000000E+00 -0.62754350716E+02  0.62754350716E+02  0.00000000000E+00 0.  1.
          5    1    1    2  502    0 -0.18316307516E+02  0.24939577319E+02  0.17895582532E+03  0.18167208661E+03  0.47000000000E+01 0. -1.
         -5    1    1    2    0  502  0.10982232438E+02 -0.10136179593E+03  0.19653885705E+03  0.22145978289E+03  0.47000000000E+01 0. -1.
        -11    1    1    2    0    0 -0.16874781871E+02  0.88705208309E+02  0.10093818407E+02  0.90858447127E+02  0.00000000000E+00 0.  1.
         11    1    1    2    0    0  0.24208856949E+02 -0.12282989694E+02  0.12985854552E+02  0.30092740139E+02  0.00000000000E+00 0. -1.
<mgrwt>
<rscale>  0 0.13913860E+03</rscale>
<asrwt>0</asrwt>
<pdfrwt beam="1">  1        1 0.70973645E-01 0.14669372E+03</pdfrwt>
<pdfrwt beam="2">  1       -1 0.96545158E-02 0.14669372E+03</pdfrwt>
<totfact> 0.31561718E+03</totfact>
</mgrwt>
</event>
<event>
 6    1  0.4705246E-006  0.1554347E+03  0.7546771E-02  0.1202451E+00
         -2   -1    0    0    0  501 -0.00000000000E+00  0.00000000000E+00  0.18588731877E+02  0.18588731877E+02  0.00000000000E+00 0.  1.
          2   -1    0    0  501    0  0.00000000000E+00 -0.00000000000E+00 -0.12805420236E+04  0.12805420236E+04  0.00000000000E+00 0. -1.
          5    1    1    2  502    0 -0.45765325553E+02 -0.18451132953E+02 -0.18681474240E+03  0.19327893654E+03  0.47000000000E+01 0.  1.
         -5    1    1    2    0  502 -0.13105471742E+01  0.97867453393E+02 -0.74386399000E+03  0.75029026489E+03  0.47000000000E+01 0.  1.
        -11    1    1    2    0    0  0.24530675165E+02 -0.87714125408E+02 -0.31120030240E+03  0.32425476100E+03  0.00000000000E+00 0. -1.
         11    1    1    2    0    0  0.22545197562E+02  0.82978049682E+01 -0.20074256943E+02  0.31306793069E+02  0.00000000000E+00 0.  1.
<mgrwt>
<rscale>  0 0.14840184E+03</rscale>
<asrwt>0</asrwt>
<pdfrwt beam="2">  1        2 0.19700650E+00 0.15543466E+03</pdfrwt>
<pdfrwt beam="1">  1       -2 0.28598043E-02 0.15543466E+03</pdfrwt>
<totfact> 0.80182311E+03</totfact>
</mgrwt>
</event>
<event>
 6    1  0.4705246E-006  0.3485254E+03  0.7546771E-02  0.1063222E+00
          1   -1    0    0  501    0  0.00000000000E+00  0.00000000000E+00  0.48289114209E+02  0.48289114209E+02  0.00000000000E+00 0. -1.
         -1   -1    0    0    0  501 -0.00000000000E+00 -0.00000000000E+00 -0.62886819949E+03  0.62886819949E+03  0.00000000000E+00 0.  1.
          5    1    1    2  502    0 -0.20127577262E+02  0.12641886651E+03 -0.83197258661E+02  0.15274397869E+03  0.47000000000E+01 0. -1.
         -5    1    1    2    0  502  0.52255090043E+01 -0.14804895916E+02 -0.79942079750E+02  0.81604638362E+02  0.47000000000E+01 0. -1.
        -11    1    1    2    0    0 -0.96633166942E+01 -0.11531859012E+03 -0.38458649563E+03  0.40161988189E+03  0.00000000000E+00 0.  1.
         11    1    1    2    0    0  0.24565384952E+02  0.37046195200E+01 -0.32853251249E+02  0.41188814759E+02  0.00000000000E+00 0. -1.
<mgrwt>
<rscale>  0 0.34852540E+03</rscale>
<asrwt>0</asrwt>
<pdfrwt beam="1">  1        1 0.74290950E-02 0.34852540E+03</pdfrwt>
<pdfrwt beam="2">  1       -1 0.96748947E-01 0.34852540E+03</pdfrwt>
<totfact> 0.10470797E+03</totfact>
</mgrwt>
</event>
<event>
 6    1  0.4705246E-006  0.2245168E+03  0.7546771E-02  0.1133642E+00
          3   -1    0    0  501    0  0.00000000000E+00  0.00000000000E+00  0.10327300420E+03  0.10327300420E+03  0.00000000000E+00 0. -1.
         -3   -1    0    0    0  501 -0.00000000000E+00 -0.00000000000E+00 -0.46684238568E+03  0.46684238568E+03  0.00000000000E+00 0.  1.
          5    1    1    2  502    0 -0.68766410665E+01 -0.51693666780E+02 -0.33309062206E+01  0.52466258813E+02  0.47000000000E+01 0.  1.
         -5    1    1    2    0  502 -0.15842732271E+03 -0.34660207720E+02 -0.13657408596E+03  0.21207337772E+03  0.47000000000E+01 0.  1.
        -11    1    1    2    0    0  0.99209580348E+02  0.91274164401E+02 -0.10997066882E+03  0.17397431397E+03  0.00000000000E+00 0. -1.
         11    1    1    2    0    0  0.66094383430E+02 -0.49202899007E+01 -0.11369372046E+03  0.13160143938E+03  0.00000000000E+00 0.  1.
<mgrwt>
<rscale>  0 0.22032375E+03</rscale>
<asrwt>0</asrwt>
<pdfrwt beam="1">  1        3 0.15888155E-01 0.22451684E+03</pdfrwt>
<pdfrwt beam="2">  1       -3 0.71821905E-01 0.22451684E+03</pdfrwt>
<totfact> 0.15627406E+02</totfact>
</mgrwt>
</event>
<event>
 6    1  0.4705246E-006  0.1444868E+03  0.7546771E-02  0.1217467E+00
         -2   -1    0    0    0  501 -0.00000000000E+00  0.00000000000E+00  0.44906080042E+02  0.44906080042E+02  0.00000000000E+00 0. -1.
          2   -1    0    0  501    0  0.00000000000E+00 -0.00000000000E+00 -0.38107520807E+03  0.38107520807E+03  0.00000000000E+00 0.  1.
          5    1    1    2  502    0 -0.97737966780E+02 -0.55134897872E+01 -0.77775484031E+02  0.12511684394E+03  0.47000000000E+01 0.  1.
         -5    1    1    2    0  502  0.26113614369E+02  0.16530597000E+02 -0.95548680356E+02  0.10053269026E+03  0.47000000000E+01 0.  1.
        -11    1    1    2    0    0  0.73254901737E+02  0.25059752219E+02 -0.13107230697E+03  0.15223081641E+03  0.00000000000E+00 0. -1.
         11    1    1    2    0    0 -0.16305493253E+01 -0.36076859432E+02 -0.31772656671E+02  0.48100937511E+02  0.00000000000E+00 0.  1.
<mgrwt>
<rscale>  0 0.13696851E+03</rscale>
<asrwt>0</asrwt>
<pdfrwt beam="2">  1        2 0.58626952E-01 0.14448684E+03</pdfrwt>
<pdfrwt beam="1">  1       -2 0.69086280E-02 0.14448684E+03</pdfrwt>
<totfact> 0.95515455E+03</totfact>
</mgrwt>
</event>
<event>
 6    1  0.4705246E-006  0.1444181E+03  0.7546771E-02  0.1218001E+00
          1   -1    0    0  501    0  0.00000000000E+00  0.00000000000E+00  0.44074827813E+03  0.44074827813E+03  0.00000000000E+00 0. -1.
         -1   -1    0    0    0  501 -0.00000000000E+00 -0.00000000000E+00 -0.39034911847E+02  0.39034911847E+02  0.00000000000E+00 0.  1.
          5    1    1    2  502    0  0.10057155720E+02 -0.46061905637E+02  0.12575249963E+03  0.13438238983E+03  0.47000000000E+01 0. -1.
         -5    1    1    2    0  502 -0.82207407332E+02  0.41087935446E+02  0.12902617604E+03  0.15848066243E+03  0.47000000000E+01 0. -1.
        -11    1    1    2    0    0 -0.29040391441E+01 -0.31651284245E+02  0.35245003266E+02  0.47459956732E+02  0.00000000000E+00 0. -1.
         11    1    1    2    0    0  0.75054290756E+02  0.36625254436E+02  0.11168968735E+03  0.13946018100E+03  0.00000000000E+00 0.  1.
<mgrwt>
<rscale>  0 0.13658365E+03</rscale>
<asrwt>0</asrwt>
<pdfrwt beam="1">  1        1 0.67807424E-01 0.14441812E+03</pdfrwt>
<pdfrwt beam="2">  1       -1 0.60053714E-02 0.14441812E+03</pdfrwt>
<totfact> 0.68429266E+03</totfact>
</mgrwt>
</event>
<event>
 6    1  0.4705246E-006  0.1466924E+03  0.7546771E-02  0.1222179E+00
          2   -1    0    0  501    0  0.00000000000E+00  0.00000000000E+00  0.38409055346E+02  0.38409055346E+02  0.00000000000E+00 0. -1.
         -2   -1    0    0    0  501 -0.00000000000E+00 -0.00000000000E+00 -0.40817703754E+03  0.40817703754E+03  0.00000000000E+00 0.  1.
          5    1    1    2  502    0  0.63115610050E+01  0.28229859706E+02  0.10346678874E+02  0.31079004892E+02  0.47000000000E+01 0. -1.
         -5    1    1    2    0  502  0.26376750132E+02 -0.55631806514E+02 -0.19622461778E+03  0.20571052833E+03  0.47000000000E+01 0.  1.
        -11    1    1    2    0    0 -0.39681173497E+02 -0.22897259708E+02 -0.57049820082E+02  0.73168039496E+02  0.00000000000E+00 0.  1.
         11    1    1    2    0    0  0.69928623600E+01  0.50299206516E+02 -0.12684022321E+03  0.13662852017E+03  0.00000000000E+00 0. -1.
<mgrwt>
<rscale>  0 0.13362133E+03</rscale>
<asrwt>0</asrwt>
<pdfrwt beam="1">  1        2 0.59090859E-02 0.14669245E+03</pdfrwt>
<pdfrwt beam="2">  1       -2 0.62796463E-01 0.14669245E+03</pdfrwt>
<totfact> 0.29143307E+03</totfact>
</mgrwt>
</event>
<event>
 6    1  0.4705246E-006  0.3366550E+03  0.7546771E-02  0.1068230E+00
         -2   -1    0    0    0  501 -0.00000000000E+00  0.00000000000E+00  0.63293968299E+02  0.63293968299E+02  0.00000000000E+00 0.  1.
          2   -1    0    0  501    0  0.00000000000E+00 -0.00000000000E+00 -0.44765948859E+03  0.44765948859E+03  0.00000000000E+00 0. -1.
          5    1    1    2  502    0 -0.48190920263E+01  0.38458231874E+02 -0.21532324131E+02  0.44586884050E+02  0.47000000000E+01 0. -1.
         -5    1    1    2    0  502 -0.11763028407E+03 -0.38262611831E+02 -0.24066255562E+03  0.27063160730E+03  0.47000000000E+01 0. -1.
        -11    1    1    2    0    0  0.45177352338E+02 -0.37582983381E+02 -0.19523245461E+02  0.61924396787E+02  0.00000000000E+00 0.  1.
         11    1    1    2    0    0  0.77272023755E+02  0.37387363338E+02 -0.10264739508E+03  0.13381056875E+03  0.00000000000E+00 0. -1.
<mgrwt>
<rscale>  0 0.33665499E+03</rscale>
<asrwt>0</asrwt>
<pdfrwt beam="2">  1        2 0.68870692E-01 0.33665499E+03</pdfrwt>
<pdfrwt beam="1">  1       -2 0.97375334E-02 0.33665499E+03</pdfrwt>
<totfact> 0.48924787E+03</totfact>
</mgrwt>
</event>
<event>
 6    1  0.5489995E-006  0.1755747E+03  0.7546771E-02  0.1178261E+00
          1   -1    0    0  501    0  0.00000000000E+00  0.00000000000E+00  0.37297169113E+03  0.37297169113E+03  0.00000000000E+00 0. -1.
         -1   -1    0    0    0  501 -0.00000000000E+00 -0.00000000000E+00 -0.72378367491E+02  0.72378367491E+02  0.00000000000E+00 0.  1.
          5    1    1    2  502    0  0.23497542015E+02  0.97212257778E+02  0.68197166392E+02  0.12114165694E+03  0.47000000000E+01 0.  1.
         -5    1    1    2    0  502 -0.67587267793E+02  0.17927629897E+02  0.99093291868E+02  0.12137136884E+03  0.47000000000E+01 0.  1.
        -11    1    1    2    0    0  0.58607630055E+02 -0.37531716079E+02  0.38756153860E+02  0.79658794081E+02  0.00000000000E+00 0.  1.
         11    1    1    2    0    0 -0.14517904276E+02 -0.77608171597E+02  0.94546711518E+02  0.12317823875E+03  0.00000000000E+00 0. -1.
<mgrwt>
<rscale>  0 0.16960405E+03</rscale>
<asrwt>0</asrwt>
<pdfrwt beam="1">  1        1 0.57380259E-01 0.17557469E+03</pdfrwt>
<pdfrwt beam="2">  1       -1 0.11135134E-01 0.17557469E+03</pdfrwt>
<totfact> 0.33477639E+03</totfact>
</mgrwt>
</event>
<event>
 6    1  0.4705246E-006  0.1396508E+03  0.7546771E-02  0.1224669E+00
         -2   -1    0    0    0  501 -0.00000000000E+00  0.00000000000E+00  0.11162422887E+03  0.11162422887E+03  0.00000000000E+00 0.  1.
          2   -1    0    0  501    0  0.00000000000E+00 -0.00000000000E+00 -0.14116627303E+03  0.14116627303E+03  0.00000000000E+00 0. -1.
          5    1    1    2  502    0 -0.73790016173E+01 -0.25392902997E+02  0.48170259786E+02  0.55151728127E+02  0.47000000000E+01 0. -1.
         -5    1    1    2    0  502 -0.54864230473E+02  0.27165384843E+02 -0.58618060137E+02  0.84889392113E+02  0.47000000000E+01 0. -1.
        -11    1    1    2    0    0 -0.66459318618E+01 -0.10975865400E+02 -0.38506529039E+02  0.40588062410E+02  0.00000000000E+00 0. -1.
         11    1    1    2    0    0  0.68889163952E+02  0.92033835530E+01  0.19412285231E+02  0.72161319256E+02  0.00000000000E+00 0.  1.
<mgrwt>
<rscale>  0 0.13189597E+03</rscale>
<asrwt>0</asrwt>
<pdfrwt beam="2">  1        2 0.21717888E-01 0.13965085E+03</pdfrwt>
<pdfrwt beam="1">  1       -2 0.17172958E-01 0.13965085E+03</pdfrwt>
<totfact> 0.65497444E+03</totfact>
</mgrwt>
</event>
<event>
 6    1  0.4705246E-006  0.2094878E+03  0.7546771E-02  0.1145803E+00
         -2   -1    0    0    0  501 -0.00000000000E+00  0.00000000000E+00  0.27119728009E+02  0.27119728009E+02  0.00000000000E+00 0.  1.
          2   -1    0    0  501    0  0.00000000000E+00 -0.00000000000E+00 -0.16388847970E+04  0.16388847970E+04  0.00000000000E+00 0. -1.
          5    1    1    2  502    0 -0.32840824579E+02 -0.49963757600E+01 -0.16289922285E+03  0.16631815996E+03  0.47000000000E+01 0. -1.
         -5    1    1    2    0  502  0.80637602512E+02 -0.15617103379E+03 -0.93592794161E+03  0.95229985647E+03  0.47000000000E+01 0. -1.
        -11    1    1    2    0    0 -0.56305146183E+02  0.43767400705E+02 -0.15567762840E+03  0.17123486455E+03  0.00000000000E+00 0.  1.
         11    1    1    2    0    0  0.85083682499E+01  0.11740000885E+03 -0.35726027615E+03  0.37615164405E+03  0.00000000000E+00 0. -1.
<mgrwt>
<rscale>  0 0.20473652E+03</rscale>
<asrwt>0</asrwt>
<pdfrwt beam="2">  1        2 0.25213616E+00 0.20948778E+03</pdfrwt>
<pdfrwt beam="1">  1       -2 0.41722653E-02 0.20948778E+03</pdfrwt>
<totfact> 0.29658888E+03</totfact>
</mgrwt>
</event>
<event>
 6    1  0.4705246E-006  0.1616778E+03  0.7546771E-02  0.1194275E+00
          2   -1    0    0  501    0  0.00000000000E+00  0.00000000000E+00  0.11998052585E+04  0.11998052585E+04  0.00000000000E+00 0. -1.
         -2   -1    0    0    0  501 -0.00000000000E+00 -0.00000000000E+00 -0.26094425499E+02  0.26094425499E+02  0.00000000000E+00 0.  1.
          5    1    1    2  502    0 -0.69080395231E+02  0.29340732939E+02  0.73760829003E+03  0.74143176297E+03  0.47000000000E+01 0. -1.
         -5    1    1    2    0  502 -0.29340232634E+02 -0.58105525893E+02  0.21121550133E+03  0.22106826863E+03  0.47000000000E+01 0. -1.
        -11    1    1    2    0    0  0.46805366851E+02  0.59095088391E+02  0.10340328194E+03  0.12796566162E+03  0.00000000000E+00 0.  1.
         11    1    1    2    0    0  0.51615261014E+02 -0.30330295436E+02  0.12148375974E+03  0.13543399083E+03  0.00000000000E+00 0. -1.
<mgrwt>
<rscale>  0 0.15515744E+03</rscale>
<asrwt>0</asrwt>
<pdfrwt beam="1">  1        2 0.18458538E+00 0.16167784E+03</pdfrwt>
<pdfrwt beam="2">  1       -2 0.40145279E-02 0.16167784E+03</pdfrwt>
<totfact> 0.53809454E+03</totfact>
</mgrwt>
</event>
<event>
 6    1  0.4705246E-006  0.1584207E+03  0.7546771E-02  0.1198393E+00
          2   -1    0    0  501    0  0.00000000000E+00  0.00000000000E+00  0.93507144754E+02  0.93507144754E+02  0.00000000000E+00 0. -1.
         -2   -1    0    0    0  501 -0.00000000000E+00 -0.00000000000E+00 -0.22854452801E+03  0.22854452801E+03  0.00000000000E+00 0.  1.
          5    1    1    2  502    0  0.98334956887E+02  0.94658609483E+01 -0.43426407251E+02  0.10801531890E+03  0.47000000000E+01 0.  1.
         -5    1    1    2    0  502 -0.13675593382E+02 -0.57469734365E+02 -0.18543327296E+02  0.62094582772E+02  0.47000000000E+01 0.  1.
        -11    1    1    2    0    0 -0.47840196666E+02  0.39638359330E+02 -0.90965360743E+02  0.11015707332E+03  0.00000000000E+00 0.  1.
         11    1    1    2    0    0 -0.36819166839E+02  0.83655140869E+01  0.17897712030E+02  0.41784697779E+02  0.00000000000E+00 0. -1.
<mgrwt>
<rscale>  0 0.15170536E+03</rscale>
<asrwt>0</asrwt>
<pdfrwt beam="1">  1        2 0.14385715E-01 0.15842074E+03</pdfrwt>
<pdfrwt beam="2">  1       -2 0.35160696E-01 0.15842074E+03</pdfrwt>
<totfact> 0.30270224E+03</totfact>
</mgrwt>
</event>
<event>
 6    1  0.4705246E-006  0.1431560E+03  0.7546771E-02  0.1220107E+00
          2   -1    0    0  501    0  0.00000000000E+00  0.00000000000E+00  0.29496938081E+03  0.29496938081E+03  0.00000000000E+00 0. -1.
         -2   -1    0    0    0  501 -0.00000000000E+00 -0.00000000000E+00 -0.97905041131E+02  0.97905041131E+02  0.00000000000E+00 0.  1.
          5    1    1    2  502    0  0.37830997028E+01 -0.25655947492E+02  0.13958395769E+03  0.14205038095E+03  0.47000000000E+01 0.  1.
         -5    1    1    2    0  502 -0.51096015818E+02  0.76954822832E+02  0.93737720112E+02  0.13168788009E+03  0.47000000000E+01 0.  1.
        -11    1    1    2    0    0  0.11977125692E+02 -0.12952303276E+02 -0.59489550548E+02  0.62050143629E+02  0.00000000000E+00 0.  1.
         11    1    1    2    0    0  0.35335790423E+02 -0.38346572065E+02  0.23232212427E+02  0.57086017274E+02  0.00000000000E+00 0. -1.
<mgrwt>
<rscale>  0 0.13508018E+03</rscale>
<asrwt>0</asrwt>
<pdfrwt beam="1">  1        2 0.45379904E-01 0.14315596E+03</pdfrwt>
<pdfrwt beam="2">  1       -2 0.15062314E-01 0.14315596E+03</pdfrwt>
<totfact> 0.36623322E+03</totfact>
</mgrwt>
</event>
<event>
 6    1  0.4705246E-006  0.2665795E+03  0.7546771E-02  0.1103253E+00
          1   -1    0    0  501    0  0.00000000000E+00  0.00000000000E+00  0.23566793167E+04  0.23566793167E+04  0.00000000000E+00 0. -1.
         -1   -1    0    0    0  501 -0.00000000000E+00 -0.00000000000E+00 -0.75386380534E+01  0.75386380534E+01  0.00000000000E+00 0.  1.
          5    1    1    2  502    0  0.15213357753E+02 -0.82521769009E+01  0.13862871273E+04  0.13864031282E+04  0.47000000000E+01 0.  1.
         -5    1    1    2    0  502 -0.61483365442E+02 -0.17898803518E+02  0.40830343413E+03  0.41332112904E+03  0.47000000000E+01 0.  1.
        -11    1    1    2    0    0  0.43900766685E+02 -0.27331607236E+02  0.29142091269E+03  0.29597371914E+03  0.00000000000E+00 0.  1.
         11    1    1    2    0    0  0.23692410048E+01  0.53482587655E+02  0.26312920457E+03  0.26851997837E+03  0.00000000000E+00 0. -1.
<mgrwt>
<rscale>  0 0.26657946E+03</rscale>
<asrwt>0</asrwt>
<pdfrwt beam="1">  1        1 0.36256546E+00 0.26657946E+03</pdfrwt>
<pdfrwt beam="2">  1       -1 0.11597924E-02 0.26657946E+03</pdfrwt>
<totfact> 0.29940687E+03</totfact>
</mgrwt>
</event>
<event>
 6    1  0.4705246E-006  0.2133724E+03  0.7546771E-02  0.1142312E+00
          2   -1    0    0  501    0  0.00000000000E+00  0.00000000000E+00  0.11528017193E+04  0.11528017193E+04  0.00000000000E+00 0. -1.
         -2   -1    0    0    0  501 -0.00000000000E+00 -0.00000000000E+00 -0.36471719698E+02  0.36471719698E+02  0.00000000000E+00 0.  1.
          5    1    1    2  502    0  0.50596627056E+02  0.14834265639E+03  0.43299280239E+03  0.46051104144E+03  0.47000000000E+01 0.  1.
         -5    1    1    2    0  502 -0.50718002406E+02  0.24584430556E+02  0.15984661401E+03  0.16955748289E+03  0.47000000000E+01 0.  1.
        -11    1    1    2    0    0  0.10105891666E+02  0.93611066311E+01  0.45404322226E+02  0.47447990901E+02  0.00000000000E+00 0. -1.
         11    1    1    2    0    0 -0.99845163160E+01 -0.18228819357E+03  0.47808626100E+03  0.51175692378E+03  0.00000000000E+00 0.  1.
<mgrwt>
<rscale>  0 0.20906063E+03</rscale>
<asrwt>0</asrwt>
<pdfrwt beam="1">  1        2 0.17735408E+00 0.21337238E+03</pdfrwt>
<pdfrwt beam="2">  1       -2 0.56110347E-02 0.21337238E+03</pdfrwt>
<totfact> 0.34737088E+03</totfact>
</mgrwt>
</event>
<event>
 6    1  0.4705246E-006  0.2980276E+03  0.7546771E-02  0.1086231E+00
          2   -1    0    0  501    0  0.00000000000E+00  0.00000000000E+00  0.94359468395E+03  0.94359468395E+03  0.00000000000E+00 0. -1.
         -2   -1    0    0    0  501 -0.00000000000E+00 -0.00000000000E+00 -0.23532475388E+02  0.23532475388E+02  0.00000000000E+00 0.  1.
          5    1    1    2  502    0  0.57011287261E+02 -0.49811091802E+02  0.72990427567E+03  0.73383497695E+03  0.47000000000E+01 0. -1.
         -5    1    1    2    0  502  0.99143806450E+00  0.91141566529E+01  0.22765782910E+00  0.10304980787E+02  0.47000000000E+01 0. -1.
        -11    1    1    2    0    0  0.13004209341E+02  0.22041679267E+02  0.80177176898E+01  0.26818442954E+02  0.00000000000E+00 0.  1.
         11    1    1    2    0    0 -0.71006934666E+02  0.18655255881E+02  0.18191255737E+03  0.19616875865E+03  0.00000000000E+00 0. -1.
<mgrwt>
<rscale>  0 0.29802764E+03</rscale>
<asrwt>0</asrwt>
<pdfrwt beam="1">  1        2 0.14516838E+00 0.29802764E+03</pdfrwt>
<pdfrwt beam="2">  1       -2 0.36203815E-02 0.29802764E+03</pdfrwt>
<totfact> 0.91030039E+03</totfact>
</mgrwt>
</event>
<event>
 6    1  0.4705246E-006  0.1409725E+03  0.7546771E-02  0.1223196E+00
         -1   -1    0    0    0  501 -0.00000000000E+00  0.00000000000E+00  0.14830556406E+02  0.14830556406E+02  0.00000000000E+00 0.  1.
          1   -1    0    0  501    0  0.00000000000E+00 -0.00000000000E+00 -0.10861843864E+04  0.10861843864E+04  0.00000000000E+00 0. -1.
          5    1    1    2  502    0 -0.31775398641E+02 -0.28309923867E+02 -0.42170945190E+03  0.42387743461E+03  0.47000000000E+01 0. -1.
         -5    1    1    2    0  502  0.53667029525E+02 -0.33092207751E+02 -0.11720714472E+03  0.13317225329E+03  0.47000000000E+01 0. -1.
        -11    1    1    2    0    0 -0.49502691167E+02  0.58231324027E+02 -0.46135502391E+03  0.46764287830E+03  0.00000000000E+00 0.  1.
         11    1    1    2    0    0  0.27611060283E+02  0.31708075916E+01 -0.71082209493E+02  0.76322376648E+02  0.00000000000E+00 0. -1.
<mgrwt>
<rscale>  0 0.13291288E+03</rscale>
<asrwt>0</asrwt>
<pdfrwt beam="2">  1        1 0.16710532E+00 0.14097254E+03</pdfrwt>
<pdfrwt beam="1">  1       -1 0.22816237E-02 0.14097254E+03</pdfrwt>
<totfact> 0.75867045E+03</totfact>
</mgrwt>
</event>
<event>
 6    1  0.4705246E-006  0.1558251E+03  0.7546771E-02  0.1201418E+00
          2   -1    0    0  501    0  0.00000000000E+00  0.00000000000E+00  0.93891449534E+03  0.93891449534E+03  0.00000000000E+00 0. -1.
         -2   -1    0    0    0  501 -0.00000000000E+00 -0.00000000000E+00 -0.35430024828E+02  0.35430024828E+02  0.00000000000E+00 0.  1.
          5    1    1    2  502    0  0.31963738089E+02  0.56961721253E+01  0.13349884658E+03  0.13747057491E+03  0.47000000000E+01 0. -1.
         -5    1    1    2    0  502 -0.11912378048E+03  0.26869896975E+02  0.64249771314E+03  0.65401671831E+03  0.47000000000E+01 0. -1.
        -11    1    1    2    0    0  0.98584695704E+02 -0.29138287649E+02  0.70543616840E+02  0.12467711864E+03  0.00000000000E+00 0.  1.
         11    1    1    2    0    0 -0.11424653317E+02 -0.34277814515E+01  0.56944293953E+02  0.58180108310E+02  0.00000000000E+00 0. -1.
<mgrwt>
<rscale>  0 0.14923387E+03</rscale>
<asrwt>0</asrwt>
<pdfrwt beam="1">  1        2 0.14444836E+00 0.15582514E+03</pdfrwt>
<pdfrwt beam="2">  1       -2 0.54507738E-02 0.15582514E+03</pdfrwt>
<totfact> 0.48240045E+03</totfact>
</mgrwt>
</event>
<event>
 6    1  0.4705246E-006  0.4215313E+03  0.7546771E-02  0.1036569E+00
          2   -1    0    0  501    0  0.00000000000E+00  0.00000000000E+00  0.10936324676E+04  0.10936324676E+04  0.00000000000E+00 0. -1.
         -2   -1    0    0    0  501 -0.00000000000E+00 -0.00000000000E+00 -0.40618916049E+02  0.40618916049E+02  0.00000000000E+00 0.  1.
          5    1    1    2  502    0 -0.35104877019E+02 -0.37369614494E+02  0.15030422318E+03  0.15887822376E+03  0.47000000000E+01 0. -1.
         -5    1    1    2    0  502 -0.11797252009E+03  0.99599457341E+02  0.58660310021E+03  0.60659941854E+03  0.47000000000E+01 0. -1.
        -11    1    1    2    0    0  0.10543148908E+03 -0.19071432644E+02  0.11292532817E+03  0.15566517971E+03  0.00000000000E+00 0.  1.
         11    1    1    2    0    0  0.47645908029E+02 -0.43158410203E+02  0.20318089994E+03  0.21310856159E+03  0.00000000000E+00 0. -1.
<mgrwt>
<rscale>  0 0.42153133E+03</rscale>
<asrwt>0</asrwt>
<pdfrwt beam="1">  1        2 0.16825113E+00 0.42153133E+03</pdfrwt>
<pdfrwt beam="2">  1       -2 0.62490648E-02 0.42153133E+03</pdfrwt>
<totfact> 0.32128105E+03</totfact>
</mgrwt>
</event>
<event>
 6    1  0.4705246E-006  0.1433123E+03  0.7546771E-02  0.1220087E+00
          2   -1    0    0  501    0  0.00000000000E+00  0.00000000000E+00  0.24874325246E+03  0.24874325246E+03  0.00000000000E+00 0. -1.
         -2   -1    0    0    0  501 -0.00000000000E+00 -0.00000000000E+00 -0.67078801394E+02  0.67078801394E+02  0.00000000000E+00 0.  1.
          5    1    1    2  502    0 -0.86039432612E+02 -0.33412366163E+02  0.25108103379E+02  0.95768872982E+02  0.47000000000E+01 0.  1.
         -5    1    1    2    0  502  0.15984264375E+02  0.35650895071E+02  0.57410330349E+02  0.69602579390E+02  0.47000000000E+01 0.  1.
        -11    1    1    2    0    0  0.86905776547E+02  0.15914759184E+02  0.79103269024E+02  0.11858845107E+03  0.00000000000E+00 0. -1.
         11    1    1    2    0    0 -0.16850608310E+02 -0.18153288092E+02  0.20042748316E+02  0.31862150414E+02  0.00000000000E+00 0.  1.
<mgrwt>
<rscale>  0 0.13509430E+03</rscale>
<asrwt>0</asrwt>
<pdfrwt beam="1">  1        2 0.38268192E-01 0.14331233E+03</pdfrwt>
<pdfrwt beam="2">  1       -2 0.10319816E-01 0.14331233E+03</pdfrwt>
<totfact> 0.80567502E+03</totfact>
</mgrwt>
</event>
<event>
 6    1  0.4705246E-006  0.1481074E+03  0.7546771E-02  0.1212381E+00
          1   -1    0    0  501    0  0.00000000000E+00  0.00000000000E+00  0.24519727226E+03  0.24519727226E+03  0.00000000000E+00 0. -1.
         -1   -1    0    0    0  501 -0.00000000000E+00 -0.00000000000E+00 -0.79065476121E+02  0.79065476121E+02  0.00000000000E+00 0.  1.
          5    1    1    2  502    0 -0.13410773113E+02  0.44524721884E+02  0.15304214507E+03  0.16001964836E+03  0.47000000000E+01 0. -1.
         -5    1    1    2    0  502 -0.16723285924E+02  0.28982937093E+02 -0.19832440824E+02  0.39180283864E+02  0.47000000000E+01 0. -1.
        -11    1    1    2    0    0  0.16953234934E+02 -0.78223107066E+02 -0.93027023188E+01  0.80577955573E+02  0.00000000000E+00 0.  1.
         11    1    1    2    0    0  0.13180824103E+02  0.47154480887E+01  0.42224794206E+02  0.44484860576E+02  0.00000000000E+00 0. -1.
<mgrwt>
<rscale>  0 0.14070705E+03</rscale>
<asrwt>0</asrwt>
<pdfrwt beam="1">  1        1 0.37722657E-01 0.14810735E+03</pdfrwt>
<pdfrwt beam="2">  1       -1 0.12163919E-01 0.14810735E+03</pdfrwt>
<totfact> 0.48870195E+03</totfact>
</mgrwt>
</event>
<event>
 6    1  0.4705246E-006  0.1398543E+03  0.7546771E-02  0.1224419E+00
         -1   -1    0    0    0  501 -0.00000000000E+00  0.00000000000E+00  0.36750657092E+02  0.36750657092E+02  0.00000000000E+00 0.  1.
          1   -1    0    0  501    0  0.00000000000E+00 -0.00000000000E+00 -0.55741157509E+03  0.55741157509E+03  0.00000000000E+00 0. -1.
          5    1    1    2  502    0  0.28620070739E+02 -0.31831486400E+02 -0.11838257573E+03  0.12597172783E+03  0.47000000000E+01 0. -1.
         -5    1    1    2    0  502 -0.91349594841E+02  0.30776661036E+02 -0.30677504631E+03  0.32159752856E+03  0.47000000000E+01 0. -1.
        -11    1    1    2    0    0  0.44339938283E+02 -0.14981160103E+02  0.12414341131E+01  0.46818868458E+02  0.00000000000E+00 0.  1.
         11    1    1    2    0    0  0.18389585819E+02  0.16035985467E+02 -0.96744730075E+02  0.99774107332E+02  0.00000000000E+00 0. -1.
<mgrwt>
<rscale>  0 0.13206785E+03</rscale>
<asrwt>0</asrwt>
<pdfrwt beam="2">  1        1 0.85755629E-01 0.13985434E+03</pdfrwt>
<pdfrwt beam="1">  1       -1 0.56539471E-02 0.13985434E+03</pdfrwt>
<totfact> 0.54997576E+03</totfact>
</mgrwt>
</event>
<event>
 6    1  0.4705246E-006  0.1318254E+03  0.7546771E-02  0.1237117E+00
          1   -1    0    0  501    0  0.00000000000E+00  0.00000000000E+00  0.62288595035E+02  0.62288595035E+02  0.00000000000E+00 0. -1.
         -1   -1    0    0    0  501 -0.00000000000E+00 -0.00000000000E+00 -0.24157886384E+03  0.24157886384E+03  0.00000000000E+00 0.  1.
          5    1    1    2  502    0  0.54066484149E+02 -0.10054769593E+02 -0.54657020320E+02  0.77677300223E+02  0.47000000000E+01 0.  1.
         -5    1    1    2    0  502 -0.41381962738E+02  0.49967821152E+02 -0.49305280282E-01  0.65048769564E+02  0.47000000000E+01 0.  1.
        -11    1    1    2    0    0  0.14591892882E+02 -0.29298173803E+02  0.44335664805E+00  0.32733818769E+02  0.00000000000E+00 0. -1.
         11    1    1    2    0    0 -0.27276414293E+02 -0.10614877756E+02 -0.12502729986E+03  0.12840757032E+03  0.00000000000E+00 0.  1.
<mgrwt>
<rscale>  0 0.12369867E+03</rscale>
<asrwt>0</asrwt>
<pdfrwt beam="1">  1        1 0.95828608E-02 0.13182545E+03</pdfrwt>
<pdfrwt beam="2">  1       -1 0.37165979E-01 0.13182545E+03</pdfrwt>
<totfact> 0.45626547E+03</totfact>
</mgrwt>
</event>
<event>
 6    1  0.4705246E-006  0.1644837E+03  0.7546771E-02  0.1190913E+00
          1   -1    0    0  501    0  0.00000000000E+00  0.00000000000E+00  0.81366860948E+02  0.81366860948E+02  0.00000000000E+00 0. -1.
         -1   -1    0    0    0  501 -0.00000000000E+00 -0.00000000000E+00 -0.40579940062E+03  0.40579940062E+03  0.00000000000E+00 0.  1.
          5    1    1    2  502    0  0.92135804193E+01 -0.63266958995E+02 -0.34954623683E+02  0.73017216336E+02  0.47000000000E+01 0. -1.
         -5    1    1    2    0  502 -0.95795592969E+02  0.53983908286E+00 -0.38906667944E+01  0.95991220154E+02  0.47000000000E+01 0. -1.
        -11    1    1    2    0    0  0.36592957204E+02  0.76444283228E+02 -0.21044991947E+03  0.22687428581E+03  0.00000000000E+00 0.  1.
         11    1    1    2    0    0  0.49989055346E+02 -0.13717163316E+02 -0.75137329719E+02  0.91283539267E+02  0.00000000000E+00 0. -1.
<mgrwt>
<rscale>  0 0.15805276E+03</rscale>
<asrwt>0</asrwt>
<pdfrwt beam="1">  1        1 0.12517979E-01 0.16448372E+03</pdfrwt>
<pdfrwt beam="2">  1       -1 0.62430677E-01 0.16448372E+03</pdfrwt>
<totfact> 0.12594573E+03</totfact>
</mgrwt>
</event>
<event>
 6    1  0.4705246E-006  0.2964989E+03  0.7546771E-02  0.1087004E+00
         -1   -1    0    0    0  501 -0.00000000000E+00  0.00000000000E+00  0.32611353759E+02  0.32611353759E+02  0.00000000000E+00 0.  1.
          1   -1    0    0  501    0  0.00000000000E+00 -0.00000000000E+00 -0.67393409898E+03  0.67393409898E+03  0.00000000000E+00 0. -1.
          5    1    1    2  502    0  0.93666747459E+02  0.20309666626E+02 -0.12990575582E+03  0.16150398612E+03  0.47000000000E+01 0.  1.
         -5    1    1    2    0  502 -0.20218510966E+00  0.14299293985E+02 -0.25278830622E+03  0.25323611206E+03  0.47000000000E+01 0.  1.
        -11    1    1    2    0    0 -0.43340059670E+02 -0.37298578095E+02 -0.46157292316E+02  0.73484966721E+02  0.00000000000E+00 0.  1.
         11    1    1    2    0    0 -0.50124502679E+02  0.26896174833E+01 -0.21247139086E+03  0.21832038784E+03  0.00000000000E+00 0. -1.
<mgrwt>
<rscale>  0 0.29649893E+03</rscale>
<asrwt>0</asrwt>
<pdfrwt beam="2">  1        1 0.10368217E+00 0.29649893E+03</pdfrwt>
<pdfrwt beam="1">  1       -1 0.50171313E-02 0.29649893E+03</pdfrwt>
<totfact> 0.52155931E+03</totfact>
</mgrwt>
</event>
<event>
 6    1  0.4705246E-006  0.2204678E+03  0.7546771E-02  0.1136631E+00
         -2   -1    0    0    0  501 -0.00000000000E+00  0.00000000000E+00  0.32023711483E+02  0.32023711483E+02  0.00000000000E+00 0.  1.
          2   -1    0    0  501    0  0.00000000000E+00 -0.00000000000E+00 -0.14101447297E+04  0.14101447297E+04  0.00000000000E+00 0. -1.
          5    1    1    2  502    0 -0.42922079693E+02 -0.10168263006E+03 -0.27365675971E+03  0.29511315510E+03  0.47000000000E+01 0. -1.
         -5    1    1    2    0  502 -0.10089858931E+03 -0.92083539422E+01 -0.45493172789E+03  0.46610115442E+03  0.47000000000E+01 0. -1.
        -11    1    1    2    0    0  0.84726656833E+02  0.10832534978E+03 -0.53049246640E+03  0.54802850718E+03  0.00000000000E+00 0. -1.
         11    1    1    2    0    0  0.59094012168E+02  0.25656342239E+01 -0.11904006421E+03  0.13292562446E+03  0.00000000000E+00 0.  1.
<mgrwt>
<rscale>  0 0.21635339E+03</rscale>
<asrwt>0</asrwt>
<pdfrwt beam="2">  1        2 0.21694530E+00 0.22046778E+03</pdfrwt>
<pdfrwt beam="1">  1       -2 0.49267258E-02 0.22046778E+03</pdfrwt>
<totfact> 0.30511710E+03</totfact>
</mgrwt>
</event>
<event>
 6    1  0.6104333E-006  0.1263011E+03  0.7546771E-02  0.1247970E+00
          1   -1    0    0  501    0  0.00000000000E+00  0.00000000000E+00  0.92051498150E+03  0.92051498150E+03  0.00000000000E+00 0. -1.
         -1   -1    0    0    0  501 -0.00000000000E+00 -0.00000000000E+00 -0.15539983133E+02  0.15539983133E+02  0.00000000000E+00 0.  1.
          5    1    1    2  502    0  0.42796872072E+02 -0.29118294324E+02  0.13383491742E+03  0.14357340437E+03  0.47000000000E+01 0.  1.
         -5    1    1    2    0  502 -0.41533567612E+02  0.11084190931E+02  0.55971144922E+03  0.56137945537E+03  0.47000000000E+01 0.  1.
        -11    1    1    2    0    0  0.30746731855E+02  0.20426321883E+02  0.32085009681E+02  0.48908526779E+02  0.00000000000E+00 0.  1.
         11    1    1    2    0    0 -0.32010036315E+02 -0.23922184903E+01  0.17934362205E+03  0.18219357811E+03  0.00000000000E+00 0. -1.
<mgrwt>
<rscale>  0 0.11709368E+03</rscale>
<asrwt>0</asrwt>
<pdfrwt beam="1">  1        1 0.14161765E+00 0.12630112E+03</pdfrwt>
<pdfrwt beam="2">  1       -1 0.23907674E-02 0.12630112E+03</pdfrwt>
<totfact> 0.93176143E+03</totfact>
</mgrwt>
</event>
<event>
 6    1  0.4705246E-006  0.1285144E+03  0.7546771E-02  0.1243127E+00
          2   -1    0    0  501    0  0.00000000000E+00  0.00000000000E+00  0.38389265448E+03  0.38389265448E+03  0.00000000000E+00 0. -1.
         -2   -1    0    0    0  501 -0.00000000000E+00 -0.00000000000E+00 -0.38186180207E+02  0.38186180207E+02  0.00000000000E+00 0.  1.
          5    1    1    2  502    0  0.23887514898E+02 -0.27575402551E+02  0.20789719584E+02  0.42253031066E+02  0.47000000000E+01 0.  1.
         -5    1    1    2    0  502 -0.23757444195E+02  0.57442079415E+02  0.24747947420E+03  0.25521008756E+03  0.47000000000E+01 0.  1.
        -11    1    1    2    0    0  0.44869878795E+02 -0.19742052371E+02  0.53810684181E+02  0.72791787908E+02  0.00000000000E+00 0. -1.
         11    1    1    2    0    0 -0.44999949498E+02 -0.10124624493E+02  0.23626596305E+02  0.51823928150E+02  0.00000000000E+00 0.  1.
<mgrwt>
<rscale>  0 0.11998167E+03</rscale>
<asrwt>0</asrwt>
<pdfrwt beam="1">  1        2 0.59060406E-01 0.12851438E+03</pdfrwt>
<pdfrwt beam="2">  1       -2 0.58747972E-02 0.12851438E+03</pdfrwt>
<totfact> 0.12024321E+04</totfact>
</mgrwt>
</event>
<event>
 6    1  0.4705246E-006  0.1670090E+03  0.7546771E-02  0.1187818E+00
         -2   -1    0    0    0  501 -0.00000000000E+00  0.00000000000E+00  0.35939838181E+03  0.35939838181E+03  0.00000000000E+00 0.  1.
          2   -1    0    0  501    0  0.00000000000E+00 -0.00000000000E+00 -0.11732049253E+03  0.11732049253E+03  0.00000000000E+00 0. -1.
          5    1    1    2  502    0 -0.29020509577E+02 -0.10912458820E+02  0.69275159110E+00  0.31366249989E+02  0.47000000000E+01 0. -1.
         -5    1    1    2    0  502  0.76598322461E+02  0.11093323657E+03 -0.30180174980E+02  0.13822597057E+03  0.47000000000E+01 0. -1.
        -11    1    1    2    0    0 -0.45244354231E+02 -0.69351226372E+02  0.87347715365E+02  0.12035891146E+03  0.00000000000E+00 0. -1.
         11    1    1    2    0    0 -0.23334586519E+01 -0.30669551373E+02  0.18421759731E+03  0.18676774231E+03  0.00000000000E+00 0.  1.
<mgrwt>
<rscale>  0 0.16078042E+03</rscale>
<asrwt>0</asrwt>
<pdfrwt beam="2">  1        2 0.18049307E-01 0.16700902E+03</pdfrwt>
<pdfrwt beam="1">  1       -2 0.55292058E-01 0.16700902E+03</pdfrwt>
<totfact> 0.96865452E+02</totfact>
</mgrwt>
</event>
<event>
 6    1  0.4705246E-006  0.3935616E+03  0.7546771E-02  0.1046032E+00
          2   -1    0    0  501    0  0.00000000000E+00  0.00000000000E+00  0.80706369423E+03  0.80706369423E+03  0.00000000000E+00 0. -1.
         -2   -1    0    0    0  501 -0.00000000000E+00 -0.00000000000E+00 -0.47979708666E+02  0.47979708666E+02  0.00000000000E+00 0.  1.
          5    1    1    2  502    0 -0.13018050416E+03  0.69390463197E+02  0.41099976132E+03  0.43669771450E+03  0.47000000000E+01 0.  1.
         -5    1    1    2    0  502 -0.50423390822E+01  0.22521544584E+02  0.68065096377E+00  0.23562649248E+02  0.47000000000E+01 0.  1.
        -11    1    1    2    0    0  0.72309919066E+02 -0.12899886745E+02  0.78344452331E+02  0.10739173471E+03  0.00000000000E+00 0. -1.
         11    1    1    2    0    0  0.62912924173E+02 -0.79012121035E+02  0.26905912095E+03  0.28739130444E+03  0.00000000000E+00 0.  1.
<mgrwt>
<rscale>  0 0.39356159E+03</rscale>
<asrwt>0</asrwt>
<pdfrwt beam="1">  1        2 0.12416364E+00 0.39356159E+03</pdfrwt>
<pdfrwt beam="2">  1       -2 0.73814942E-02 0.39356159E+03</pdfrwt>
<totfact> 0.37817319E+03</totfact>
</mgrwt>
</event>
<event>
 6    1  0.4705246E-006  0.1251578E+03  0.7546771E-02  0.1249902E+00
          3   -1    0    0  501    0  0.00000000000E+00  0.00000000000E+00  0.25932704754E+03  0.25932704754E+03  0.00000000000E+00 0. -1.
         -3   -1    0    0    0  501 -0.00000000000E+00 -0.00000000000E+00 -0.69588302811E+02  0.69588302811E+02  0.00000000000E+00 0.  1.
          5    1    1    2  502    0 -0.42867803249E+02 -0.48360949180E+02  0.85861364510E+02  0.10756715984E+03  0.47000000000E+01 0. -1.
         -5    1    1    2    0  502  0.37690244771E+02  0.44785662421E+02  0.11430867370E+03  0.12851020579E+03  0.47000000000E+01 0. -1.
        -11    1    1    2    0    0 -0.18474147464E+02  0.41648783666E+02  0.40323621204E+01  0.45740302247E+02  0.00000000000E+00 0.  1.
         11    1    1    2    0    0  0.23651705942E+02 -0.38073496908E+02 -0.14463655602E+02  0.47097682471E+02  0.00000000000E+00 0. -1.
<mgrwt>
<rscale>  0 0.11596720E+03</rscale>
<asrwt>0</asrwt>
<pdfrwt beam="1">  1        3 0.39896468E-01 0.12515781E+03</pdfrwt>
<pdfrwt beam="2">  1       -3 0.10705893E-01 0.12515781E+03</pdfrwt>
<totfact> 0.93606914E+02</totfact>
</mgrwt>
</event>
<event>
 6    1  0.4705246E-006  0.1271318E+03  0.7546771E-02  0.1250770E+00
          2   -1    0    0  501    0  0.00000000000E+00  0.00000000000E+00  0.14090741911E+03  0.14090741911E+03  0.00000000000E+00 0. -1.
         -2   -1    0    0    0  501 -0.00000000000E+00 -0.00000000000E+00 -0.83983193168E+02  0.83983193168E+02  0.00000000000E+00 0.  1.
          5    1    1    2  502    0  0.56811825776E+02  0.15392761106E+02  0.74555430562E+02  0.95105850865E+02  0.47000000000E+01 0. -1.
         -5    1    1    2    0  502 -0.38022778258E+02 -0.17538575107E+01 -0.19980450128E+02  0.43244838651E+02  0.47000000000E+01 0. -1.
        -11    1    1    2    0    0 -0.42492047720E+02 -0.31865201893E+02 -0.10251242759E+02  0.54093004993E+02  0.00000000000E+00 0.  1.
         11    1    1    2    0    0  0.23703000202E+02  0.18226298298E+02  0.12600488268E+02  0.32446917771E+02  0.00000000000E+00 0. -1.
<mgrwt>
<rscale>  0 0.11546614E+03</rscale>
<asrwt>0</asrwt>
<pdfrwt beam="1">  1        2 0.21678064E-01 0.12713176E+03</pdfrwt>
<pdfrwt beam="2">  1       -2 0.12920491E-01 0.12713176E+03</pdfrwt>
<totfact> 0.10368864E+04</totfact>
</mgrwt>
</event>
<event>
 6    1  0.4705246E-006  0.1278942E+03  0.7546771E-02  0.1245040E+00
         -1   -1    0    0    0  501 -0.00000000000E+00  0.00000000000E+00  0.49930813924E+02  0.49930813924E+02  0.00000000000E+00 0.  1.
          1   -1    0    0  501    0  0.00000000000E+00 -0.00000000000E+00 -0.31749298603E+03  0.31749298603E+03  0.00000000000E+00 0. -1.
          5    1    1    2  502    0  0.28493274654E+02 -0.44654485248E+02 -0.72674560568E+02  0.90053159339E+02  0.47000000000E+01 0.  1.
         -5    1    1    2    0  502 -0.17845260298E+02  0.69526728995E+02 -0.16078263423E+03  0.17614075289E+03  0.47000000000E+01 0.  1.
        -11    1    1    2    0    0  0.12692505182E+02  0.21959764390E+02  0.15003100402E+02  0.29469033943E+02  0.00000000000E+00 0.  1.
         11    1    1    2    0    0 -0.23340519538E+02 -0.46832008138E+02 -0.49108077706E+02  0.71760853775E+02  0.00000000000E+00 0. -1.
<mgrwt>
<rscale>  0 0.11882968E+03</rscale>
<asrwt>0</asrwt>
<pdfrwt beam="2">  1        1 0.48845073E-01 0.12789424E+03</pdfrwt>
<pdfrwt beam="1">  1       -1 0.76816640E-02 0.12789424E+03</pdfrwt>
<totfact> 0.70885158E+03</totfact>
</mgrwt>
</event>
<event>
 6    1  0.4705246E-006  0.1839046E+03  0.7546771E-02  0.1169371E+00
          2   -1    0    0  501    0  0.00000000000E+00  0.00000000000E+00  0.10922085383E+04  0.10922085383E+04  0.00000000000E+00 0. -1.
         -2   -1    0    0    0  501 -0.00000000000E+00 -0.00000000000E+00 -0.40077298395E+02  0.40077298395E+02  0.00000000000E+00 0.  1.
          5    1    1    2  502    0 -0.79146897558E+02 -0.49238218705E+02  0.23656334896E+03  0.25430875259E+03  0.47000000000E+01 0.  1.
         -5    1    1    2    0  502 -0.44273542246E+02 -0.51794028637E+01  0.62801014604E+03  0.62960766060E+03  0.47000000000E+01 0.  1.
        -11    1    1    2    0    0  0.22234339671E+02  0.44086905794E+02  0.21982100148E+02  0.54048439848E+02  0.00000000000E+00 0.  1.
         11    1    1    2    0    0  0.10118610013E+03  0.10330715774E+02  0.16557564471E+03  0.19432098361E+03  0.00000000000E+00 0. -1.
<mgrwt>
<rscale>  0 0.17838960E+03</rscale>
<asrwt>0</asrwt>
<pdfrwt beam="1">  1        2 0.16803206E+00 0.18390459E+03</pdfrwt>
<pdfrwt beam="2">  1       -2 0.61657390E-02 0.18390459E+03</pdfrwt>
<totfact> 0.32510946E+03</totfact>
</mgrwt>
</event>
<event>
 6    1  0.4705246E-006  0.1271095E+03  0.7546771E-02  0.1246077E+00
          2   -1    0    0  501    0  0.00000000000E+00  0.00000000000E+00  0.34964695996E+03  0.34964695996E+03  0.00000000000E+00 0. -1.
         -2   -1    0    0    0  501 -0.00000000000E+00 -0.00000000000E+00 -0.81104744945E+02  0.81104744945E+02  0.00000000000E+00 0.  1.
          5    1    1    2  502    0  0.53191625068E+02  0.11914029527E+02  0.10460317980E+03  0.11804748325E+03  0.47000000000E+01 0. -1.
         -5    1    1    2    0  502 -0.61857933232E+02 -0.33283739210E+02  0.19921429150E+03  0.21128803832E+03  0.47000000000E+01 0. -1.
        -11    1    1    2    0    0 -0.48123734825E+01 -0.35246121401E+02 -0.53441334057E+01  0.35972319555E+02  0.00000000000E+00 0. -1.
         11    1    1    2    0    0  0.13478681646E+02  0.56615831084E+02 -0.29931122887E+02  0.65443863773E+02  0.00000000000E+00 0.  1.
<mgrwt>
<rscale>  0 0.11821158E+03</rscale>
<asrwt>0</asrwt>
<pdfrwt beam="1">  1        2 0.53791839E-01 0.12710952E+03</pdfrwt>
<pdfrwt beam="2">  1       -2 0.12477653E-01 0.12710952E+03</pdfrwt>
<totfact> 0.41224363E+03</totfact>
</mgrwt>
</event>
<event>
 6    1  0.4705246E-006  0.1945905E+03  0.7546771E-02  0.1159888E+00
         -2   -1    0    0    0  501 -0.00000000000E+00  0.00000000000E+00  0.22799949807E+02  0.22799949807E+02  0.00000000000E+00 0.  1.
          2   -1    0    0  501    0  0.00000000000E+00 -0.00000000000E+00 -0.15871503260E+04  0.15871503260E+04  0.00000000000E+00 0. -1.
          5    1    1    2  502    0 -0.43602426013E+02  0.56075360386E+02 -0.43103269115E+03  0.43687170707E+03  0.47000000000E+01 0. -1.
         -5    1    1    2    0  502 -0.10540437626E+03 -0.62599428321E+02 -0.61938740909E+03  0.63142032237E+03  0.47000000000E+01 0. -1.
        -11    1    1    2    0    0  0.39619355653E+02  0.12006604576E+02 -0.49702119002E+02  0.64685025540E+02  0.00000000000E+00 0.  1.
         11    1    1    2    0    0  0.10938744661E+03 -0.54825366414E+01 -0.46422815699E+03  0.47697322087E+03  0.00000000000E+00 0. -1.
<mgrwt>
<rscale>  0 0.18842688E+03</rscale>
<asrwt>0</asrwt>
<pdfrwt beam="2">  1        2 0.24417701E+00 0.19459053E+03</pdfrwt>
<pdfrwt beam="1">  1       -2 0.35076840E-02 0.19459053E+03</pdfrwt>
<totfact> 0.40916188E+03</totfact>
</mgrwt>
</event>
<event>
 6    1  0.4705246E-006  0.2499200E+03  0.7546771E-02  0.1113355E+00
          3   -1    0    0  501    0  0.00000000000E+00  0.00000000000E+00  0.56369538859E+03  0.56369538859E+03  0.00000000000E+00 0. -1.
         -3   -1    0    0    0  501 -0.00000000000E+00 -0.00000000000E+00 -0.27701136830E+02  0.27701136830E+02  0.00000000000E+00 0.  1.
          5    1    1    2  502    0 -0.11800530908E+02  0.13842182147E+02  0.29525968280E+03  0.29585677079E+03  0.47000000000E+01 0.  1.
         -5    1    1    2    0  502 -0.16686042416E+02 -0.61230713278E+02  0.72424327805E+02  0.96410567461E+02  0.47000000000E+01 0.  1.
        -11    1    1    2    0    0  0.58612875620E+02  0.13815160780E+02  0.81929768540E+02  0.10167996277E+03  0.00000000000E+00 0. -1.
         11    1    1    2    0    0 -0.30126302296E+02  0.33573370351E+02  0.86380472618E+02  0.97449224402E+02  0.00000000000E+00 0.  1.
<mgrwt>
<rscale>  0 0.24992001E+03</rscale>
<asrwt>0</asrwt>
<pdfrwt beam="1">  1        3 0.86722359E-01 0.24992001E+03</pdfrwt>
<pdfrwt beam="2">  1       -3 0.42617138E-02 0.24992001E+03</pdfrwt>
<totfact> 0.92340259E+02</totfact>
</mgrwt>
</event>
<event>
 6    1  0.4705246E-006  0.1296060E+03  0.7546771E-02  0.1240125E+00
          2   -1    0    0  501    0  0.00000000000E+00  0.00000000000E+00  0.13329342952E+04  0.13329342952E+04  0.00000000000E+00 0. -1.
         -2   -1    0    0    0  501 -0.00000000000E+00 -0.00000000000E+00 -0.23334433029E+02  0.23334433029E+02  0.00000000000E+00 0.  1.
          5    1    1    2  502    0 -0.72782235042E+02  0.36734653314E+02  0.80754318000E+03  0.81166173130E+03  0.47000000000E+01 0.  1.
         -5    1    1    2    0  502  0.40814578835E+02 -0.23788752471E+02  0.39300824981E+03  0.39586526624E+03  0.47000000000E+01 0.  1.
        -11    1    1    2    0    0  0.42131392304E+02 -0.41693850577E+02  0.35423691493E+02  0.69052656085E+02  0.00000000000E+00 0.  1.
         11    1    1    2    0    0 -0.10163736096E+02  0.28747949735E+02  0.73624740897E+02  0.79689074644E+02  0.00000000000E+00 0. -1.
<mgrwt>
<rscale>  0 0.12181949E+03</rscale>
<asrwt>0</asrwt>
<pdfrwt beam="1">  1        2 0.20506675E+00 0.12960600E+03</pdfrwt>
<pdfrwt beam="2">  1       -2 0.35899138E-02 0.12960600E+03</pdfrwt>
<totfact> 0.53379149E+03</totfact>
</mgrwt>
</event>
<event>
 6    1  0.4705246E-006  0.1482888E+03  0.7546771E-02  0.1217497E+00
          2   -1    0    0  501    0  0.00000000000E+00  0.00000000000E+00  0.42545835277E+03  0.42545835277E+03  0.00000000000E+00 0. -1.
         -2   -1    0    0    0  501 -0.00000000000E+00 -0.00000000000E+00 -0.41327451738E+02  0.41327451738E+02  0.00000000000E+00 0.  1.
          5    1    1    2  502    0  0.30325005646E+02 -0.57464035810E+02  0.28401502552E+03  0.29139036721E+03  0.47000000000E+01 0. -1.
         -5    1    1    2    0  502  0.12479476724E+02  0.21404422560E+02 -0.39347539297E+01  0.25523693560E+02  0.47000000000E+01 0.  1.
        -11    1    1    2    0    0 -0.56982291891E+02 -0.86920149465E+01  0.75277858534E+02  0.94811859482E+02  0.00000000000E+00 0.  1.
         11    1    1    2    0    0  0.14177809521E+02  0.44751628196E+02  0.28772770906E+02  0.55059884259E+02  0.00000000000E+00 0. -1.
<mgrwt>
<rscale>  0 0.13694685E+03</rscale>
<asrwt>0</asrwt>
<pdfrwt beam="1">  1        2 0.65455128E-01 0.14828878E+03</pdfrwt>
<pdfrwt beam="2">  1       -2 0.63580698E-02 0.14828878E+03</pdfrwt>
<totfact> 0.96528575E+03</totfact>
</mgrwt>
</event>
<event>
 6    1  0.4705246E-006  0.1484132E+03  0.7546771E-02  0.1212540E+00
          1   -1    0    0  501    0  0.00000000000E+00  0.00000000000E+00  0.53619776512E+03  0.53619776512E+03  0.00000000000E+00 0. -1.
         -1   -1    0    0    0  501 -0.00000000000E+00 -0.00000000000E+00 -0.34570555434E+02  0.34570555434E+02  0.00000000000E+00 0.  1.
          5    1    1    2  502    0  0.40727972941E+02 -0.91337207340E+02  0.25987598932E+03  0.27849393719E+03  0.47000000000E+01 0.  1.
         -5    1    1    2    0  502  0.20301890295E+02  0.39585767718E+02  0.67845119708E+02  0.81266536923E+02  0.47000000000E+01 0.  1.
        -11    1    1    2    0    0 -0.31155361350E+02 -0.22761913651E+02  0.66992972228E+02  0.77309893170E+02  0.00000000000E+00 0. -1.
         11    1    1    2    0    0 -0.29874501886E+02  0.74513353273E+02  0.10691312842E+03  0.13369795327E+03  0.00000000000E+00 0.  1.
<mgrwt>
<rscale>  0 0.14058828E+03</rscale>
<asrwt>0</asrwt>
<pdfrwt beam="1">  1        1 0.82491958E-01 0.14841318E+03</pdfrwt>
<pdfrwt beam="2">  1       -1 0.53185474E-02 0.14841318E+03</pdfrwt>
<totfact> 0.63629569E+03</totfact>
</mgrwt>
</event>
<event>
 6    1  0.4705246E-006  0.2050280E+03  0.7546771E-02  0.1148708E+00
          1   -1    0    0  501    0  0.00000000000E+00  0.00000000000E+00  0.16618367778E+04  0.16618367778E+04  0.00000000000E+00 0. -1.
         -1   -1    0    0    0  501 -0.00000000000E+00 -0.00000000000E+00 -0.23759427193E+02  0.23759427193E+02  0.00000000000E+00 0.  1.
          5    1    1    2  502    0 -0.92645038996E+02  0.15192002716E+02  0.59149153652E+03  0.59891420752E+03  0.47000000000E+01 0. -1.
         -5    1    1    2    0  502 -0.53205443542E+02 -0.86894557766E+02  0.34519996112E+03  0.35995358944E+03  0.47000000000E+01 0. -1.
        -11    1    1    2    0    0  0.53899512752E+02  0.47849716551E+02  0.14105460147E+03  0.15840187324E+03  0.00000000000E+00 0.  1.
         11    1    1    2    0    0  0.91950969787E+02  0.23852838498E+02  0.56033125147E+03  0.56832653477E+03  0.00000000000E+00 0. -1.
<mgrwt>
<rscale>  0 0.20122716E+03</rscale>
<asrwt>0</asrwt>
<pdfrwt beam="1">  1        1 0.25566711E+00 0.20502802E+03</pdfrwt>
<pdfrwt beam="2">  1       -1 0.36552978E-02 0.20502802E+03</pdfrwt>
<totfact> 0.15786633E+03</totfact>
</mgrwt>
</event>
<event>
 6    1  0.4705246E-006  0.1297113E+03  0.7546771E-02  0.1241889E+00
          2   -1    0    0  501    0  0.00000000000E+00  0.00000000000E+00  0.56587016367E+03  0.56587016367E+03  0.00000000000E+00 0. -1.
         -2   -1    0    0    0  501 -0.00000000000E+00 -0.00000000000E+00 -0.23004379791E+02  0.23004379791E+02  0.00000000000E+00 0.  1.
          5    1    1    2  502    0 -0.44844605054E+02 -0.46559387163E+02  0.99349199299E+02  0.11862195639E+03  0.47000000000E+01 0. -1.
         -5    1    1    2    0  502  0.10204619732E+02  0.46460177013E+02  0.23912094499E+03  0.24385159144E+03  0.47000000000E+01 0. -1.
        -11    1    1    2    0    0  0.33788239956E+02 -0.39267991477E+02  0.75037123840E+02  0.91182181747E+02  0.00000000000E+00 0.  1.
         11    1    1    2    0    0  0.85174536558E+00  0.39367201627E+02  0.12935851575E+03  0.13521881389E+03  0.00000000000E+00 0. -1.
<mgrwt>
<rscale>  0 0.12073511E+03</rscale>
<asrwt>0</asrwt>
<pdfrwt beam="1">  1        2 0.87056938E-01 0.12971135E+03</pdfrwt>
<pdfrwt beam="2">  1       -2 0.35391358E-02 0.12971135E+03</pdfrwt>
<totfact> 0.16822675E+04</totfact>
</mgrwt>
</event>
<event>
 6    1  0.4705246E-006  0.1359991E+03  0.7546771E-02  0.1230630E+00
         -3   -1    0    0    0  501 -0.00000000000E+00  0.00000000000E+00  0.54588326902E+02  0.54588326902E+02  0.00000000000E+00 0.  1.
          3   -1    0    0  501    0  0.00000000000E+00 -0.00000000000E+00 -0.28541497673E+03  0.28541497673E+03  0.00000000000E+00 0. -1.
          5    1    1    2  502    0 -0.11338168353E+02  0.41165995224E+02  0.16624363285E+00  0.42957081620E+02  0.47000000000E+01 0.  1.
         -5    1    1    2    0  502 -0.36390736486E+02 -0.16803752198E+02 -0.16945021104E+03  0.17418988436E+03  0.47000000000E+01 0.  1.
        -11    1    1    2    0    0  0.60468602802E+02 -0.31935404876E+02 -0.75941331972E+02  0.10219299345E+03  0.00000000000E+00 0. -1.
         11    1    1    2    0    0 -0.12739697964E+02  0.75731618508E+01  0.14398649553E+02  0.20663344201E+02  0.00000000000E+00 0.  1.
<mgrwt>
<rscale>  0 0.12788405E+03</rscale>
<asrwt>0</asrwt>
<pdfrwt beam="2">  1        3 0.43909996E-01 0.13599906E+03</pdfrwt>
<pdfrwt beam="1">  1       -3 0.83982043E-02 0.13599906E+03</pdfrwt>
<totfact> 0.11747341E+03</totfact>
</mgrwt>
</event>
<event>
 6    1  0.4705246E-006  0.1354940E+03  0.7546771E-02  0.1231943E+00
          1   -1    0    0  501    0  0.00000000000E+00  0.00000000000E+00  0.67207166563E+02  0.67207166563E+02  0.00000000000E+00 0. -1.
         -1   -1    0    0    0  501 -0.00000000000E+00 -0.00000000000E+00 -0.31362571505E+03  0.31362571505E+03  0.00000000000E+00 0.  1.
          5    1    1    2  502    0  0.74601430638E+02 -0.16634528590E+02 -0.37022129158E+02  0.85057680677E+02  0.47000000000E+01 0. -1.
         -5    1    1    2    0  502 -0.29441147656E+02  0.43065138027E+02  0.94216843928E+01  0.53218844646E+02  0.47000000000E+01 0. -1.
        -11    1    1    2    0    0  0.22336311253E+02  0.37985580141E+00 -0.10639401030E+03  0.10871403092E+03  0.00000000000E+00 0.  1.
         11    1    1    2    0    0 -0.67496594235E+02 -0.26810465238E+02 -0.11242409342E+03  0.13384232537E+03  0.00000000000E+00 0. -1.
<mgrwt>
<rscale>  0 0.12702165E+03</rscale>
<asrwt>0</asrwt>
<pdfrwt beam="1">  1        1 0.10339564E-01 0.13549396E+03</pdfrwt>
<pdfrwt beam="2">  1       -1 0.48250110E-01 0.13549396E+03</pdfrwt>
<totfact> 0.26031088E+03</totfact>
</mgrwt>
</event>
<event>
 6    1  0.4705246E-006  0.3222874E+03  0.7546771E-02  0.1093122E+00
          2   -1    0    0  501    0  0.00000000000E+00  0.00000000000E+00  0.15311640826E+03  0.15311640826E+03  0.00000000000E+00 0. -1.
         -2   -1    0    0    0  501 -0.00000000000E+00 -0.00000000000E+00 -0.54137442718E+03  0.54137442718E+03  0.00000000000E+00 0.  1.
          5    1    1    2  502    0 -0.95577115320E+02  0.16164371712E+03  0.45234142213E+01  0.18789951446E+03  0.47000000000E+01 0. -1.
         -5    1    1    2    0  502  0.11397250520E+03  0.98402492851E+01 -0.89718760978E+02  0.14545827072E+03  0.47000000000E+01 0.  1.
        -11    1    1    2    0    0 -0.50241356134E+02 -0.73542326158E+02 -0.10337795577E+03  0.13645390922E+03  0.00000000000E+00 0.  1.
         11    1    1    2    0    0  0.31845966252E+02 -0.97941640250E+02 -0.19968471639E+03  0.22467914105E+03  0.00000000000E+00 0. -1.
<mgrwt>
<rscale>  0 0.28475007E+03</rscale>
<asrwt>0</asrwt>
<pdfrwt beam="1">  1        2 0.23556371E-01 0.32228740E+03</pdfrwt>
<pdfrwt beam="2">  1       -2 0.83288373E-01 0.32228740E+03</pdfrwt>
<totfact> 0.30066073E+02</totfact>
</mgrwt>
</event>
<event>
 6    1  0.4705246E-006  0.1462174E+03  0.7546771E-02  0.1214417E+00
          1   -1    0    0  501    0  0.00000000000E+00  0.00000000000E+00  0.79257626513E+03  0.79257626513E+03  0.00000000000E+00 0. -1.
         -1   -1    0    0    0  501 -0.00000000000E+00 -0.00000000000E+00 -0.25369197210E+02  0.25369197210E+02  0.00000000000E+00 0.  1.
          5    1    1    2  502    0 -0.17212577893E+02 -0.99496717647E+02  0.30837446715E+03  0.32451929318E+03  0.47000000000E+01 0. -1.
         -5    1    1    2    0  502  0.27412365876E+02  0.24328107649E+02  0.24845513449E+03  0.25118785496E+03  0.47000000000E+01 0. -1.
        -11    1    1    2    0    0  0.28893260611E+02 -0.42906982470E+01  0.33609080390E+02  0.44528652403E+02  0.00000000000E+00 0.  1.
         11    1    1    2    0    0 -0.39093048594E+02  0.79459308246E+02  0.17676838589E+03  0.19770966179E+03  0.00000000000E+00 0. -1.
<mgrwt>
<rscale>  0 0.13919466E+03</rscale>
<asrwt>0</asrwt>
<pdfrwt beam="1">  1        1 0.12193479E+00 0.14621736E+03</pdfrwt>
<pdfrwt beam="2">  1       -1 0.39029540E-02 0.14621736E+03</pdfrwt>
<totfact> 0.58005595E+03</totfact>
</mgrwt>
</event>
<event>
 6    1  0.4705246E-006  0.1247614E+03  0.7546771E-02  0.1269571E+00
          2   -1    0    0  501    0  0.00000000000E+00  0.00000000000E+00  0.76553363563E+03  0.76553363563E+03  0.00000000000E+00 0. -1.
         -2   -1    0    0    0  501 -0.00000000000E+00 -0.00000000000E+00 -0.13742882969E+02  0.13742882969E+02  0.00000000000E+00 0.  1.
          5    1    1    2  502    0 -0.44374075084E+01  0.16091380323E+02  0.48019695034E+03  0.48050996267E+03  0.47000000000E+01 0. -1.
         -5    1    1    2    0  502  0.11733784482E+02 -0.59294735353E+02  0.14764461281E+03  0.15960754691E+03  0.47000000000E+01 0.  1.
        -11    1    1    2    0    0 -0.18959371038E+02  0.42020037329E+02  0.11644991212E+03  0.12524265775E+03  0.00000000000E+00 0. -1.
         11    1    1    2    0    0  0.11662994064E+02  0.11833177017E+01  0.74992773888E+01  0.13916351270E+02  0.00000000000E+00 0.  1.
<mgrwt>
<rscale>  0 0.10527915E+03</rscale>
<asrwt>0</asrwt>
<pdfrwt beam="1">  1        2 0.11777437E+00 0.12476136E+03</pdfrwt>
<pdfrwt beam="2">  1       -2 0.21142903E-02 0.12476136E+03</pdfrwt>
<totfact> 0.25055199E+04</totfact>
</mgrwt>
</event>
<event>
 6    1  0.4705246E-006  0.2050042E+03  0.7546771E-02  0.1150951E+00
          2   -1    0    0  501    0  0.00000000000E+00  0.00000000000E+00  0.42744454826E+03  0.42744454826E+03  0.00000000000E+00 0. -1.
         -2   -1    0    0    0  501 -0.00000000000E+00 -0.00000000000E+00 -0.95735002034E+02  0.95735002034E+02  0.00000000000E+00 0.  1.
          5    1    1    2  502    0  0.19912158206E+02 -0.29728306967E+02  0.17076744408E+03  0.17453903930E+03  0.47000000000E+01 0. -1.
         -5    1    1    2    0  502  0.88505009047E+02 -0.91296540898E+02  0.83999852176E+02  0.15246724295E+03  0.47000000000E+01 0. -1.
        -11    1    1    2    0    0 -0.32479321492E+02  0.50597732831E+02  0.70137025676E+02  0.92380946428E+02  0.00000000000E+00 0.  1.
         11    1    1    2    0    0 -0.75937845761E+02  0.70427115035E+02  0.68052242943E+01  0.10379232163E+03  0.00000000000E+00 0. -1.
<mgrwt>
<rscale>  0 0.19857020E+03</rscale>
<asrwt>0</asrwt>
<pdfrwt beam="1">  1        2 0.65760699E-01 0.20500423E+03</pdfrwt>
<pdfrwt beam="2">  1       -2 0.14728462E-01 0.20500423E+03</pdfrwt>
<totfact> 0.25890796E+03</totfact>
</mgrwt>
</event>
<event>
 6    1  0.4705246E-006  0.1275173E+03  0.7546771E-02  0.1245458E+00
         -4   -1    0    0    0  501 -0.00000000000E+00  0.00000000000E+00  0.19347676216E+03  0.19347676216E+03  0.00000000000E+00 0.  1.
          4   -1    0    0  501    0  0.00000000000E+00 -0.00000000000E+00 -0.73664422661E+02  0.73664422661E+02  0.00000000000E+00 0. -1.
          5    1    1    2  502    0 -0.10710608186E+01  0.58883538428E+02 -0.29093205572E+02  0.65855317777E+02  0.47000000000E+01 0. -1.
         -5    1    1    2    0  502  0.13798834127E+02 -0.37117186807E+02  0.49049394049E+02  0.63214131619E+02  0.47000000000E+01 0. -1.
        -11    1    1    2    0    0 -0.50583312158E+02 -0.10029692626E+02  0.35910044009E+02  0.62839457857E+02  0.00000000000E+00 0. -1.
         11    1    1    2    0    0  0.37855538850E+02 -0.11736658994E+02  0.63946107018E+02  0.75232277572E+02  0.00000000000E+00 0.  1.
<mgrwt>
<rscale>  0 0.11858034E+03</rscale>
<asrwt>0</asrwt>
<pdfrwt beam="2">  1        4 0.11332988E-01 0.12751735E+03</pdfrwt>
<pdfrwt beam="1">  1       -4 0.29765656E-01 0.12751735E+03</pdfrwt>
<totfact> 0.10771918E+03</totfact>
</mgrwt>
</event>
<event>
 6    1  0.4705246E-006  0.1919702E+03  0.7546771E-02  0.1183447E+00
          2   -1    0    0  501    0  0.00000000000E+00  0.00000000000E+00  0.19496851960E+04  0.19496851960E+04  0.00000000000E+00 0. -1.
         -2   -1    0    0    0  501 -0.00000000000E+00 -0.00000000000E+00 -0.11936838808E+02  0.11936838808E+02  0.00000000000E+00 0.  1.
          5    1    1    2  502    0 -0.94983787727E+02 -0.34447446603E+02  0.12065006366E+04  0.12107330104E+04  0.47000000000E+01 0. -1.
         -5    1    1    2    0  502  0.51056897837E+02  0.41759333610E+02  0.25992435926E+03  0.26820404788E+03  0.47000000000E+01 0.  1.
        -11    1    1    2    0    0 -0.18440089482E+02 -0.31545064917E+02  0.14136408367E+03  0.14601004134E+03  0.00000000000E+00 0. -1.
         11    1    1    2    0    0  0.62366979372E+02  0.24233177910E+02  0.32995927768E+03  0.33667493515E+03  0.00000000000E+00 0.  1.
<mgrwt>
<rscale>  0 0.16474012E+03</rscale>
<asrwt>0</asrwt>
<pdfrwt beam="1">  1        2 0.29995132E+00 0.19197019E+03</pdfrwt>
<pdfrwt beam="2">  1       -2 0.18364383E-02 0.19197019E+03</pdfrwt>
<totfact> 0.68854144E+03</totfact>
</mgrwt>
</event>
<event>
 6    1  0.4705246E-006  0.1317749E+03  0.7546771E-02  0.1237421E+00
          1   -1    0    0  501    0  0.00000000000E+00  0.00000000000E+00  0.20473250965E+03  0.20473250965E+03  0.00000000000E+00 0. -1.
         -1   -1    0    0    0  501 -0.00000000000E+00 -0.00000000000E+00 -0.82190860348E+02  0.82190860348E+02  0.00000000000E+00 0.  1.
          5    1    1    2  502    0  0.60621038969E+01 -0.48078166684E+02  0.11367612033E+02  0.49995718003E+02  0.47000000000E+01 0.  1.
         -5    1    1    2    0  502  0.35220046127E+02  0.54109416041E+02  0.11844392380E+03  0.13497901184E+03  0.47000000000E+01 0.  1.
        -11    1    1    2    0    0  0.85645706263E+01  0.13097566183E+02 -0.37471078814E+02  0.40607632994E+02  0.00000000000E+00 0.  1.
         11    1    1    2    0    0 -0.49846720650E+02 -0.19128815540E+02  0.30201192286E+02  0.61341007157E+02  0.00000000000E+00 0. -1.
<mgrwt>
<rscale>  0 0.12350742E+03</rscale>
<asrwt>0</asrwt>
<pdfrwt beam="1">  1        1 0.31497309E-01 0.13177487E+03</pdfrwt>
<pdfrwt beam="2">  1       -1 0.12644748E-01 0.13177487E+03</pdfrwt>
<totfact> 0.57160617E+03</totfact>
</mgrwt>
</event>
<event>
 6    1  0.4705246E-006  0.2394867E+03  0.7546771E-02  0.1122856E+00
          2   -1    0    0  501    0  0.00000000000E+00  0.00000000000E+00  0.19796169564E+03  0.19796169564E+03  0.00000000000E+00 0. -1.
         -2   -1    0    0    0  501 -0.00000000000E+00 -0.00000000000E+00 -0.28239896185E+03  0.28239896185E+03  0.00000000000E+00 0.  1.
          5    1    1    2  502    0 -0.12910244603E+02 -0.38573143829E+02 -0.20459937435E+02  0.45774019710E+02  0.47000000000E+01 0. -1.
         -5    1    1    2    0  502  0.16591084094E+03 -0.96777611873E+02  0.25043790892E+02  0.19375653476E+03  0.47000000000E+01 0. -1.
        -11    1    1    2    0    0 -0.68438234211E+02  0.10833961451E+03 -0.22985525801E+02  0.13019062321E+03  0.00000000000E+00 0. -1.
         11    1    1    2    0    0 -0.84562362123E+02  0.27011141188E+02 -0.66035593866E+02  0.11063947981E+03  0.00000000000E+00 0.  1.
<mgrwt>
<rscale>  0 0.23545775E+03</rscale>
<asrwt>0</asrwt>
<pdfrwt beam="1">  1        2 0.30455646E-01 0.23948669E+03</pdfrwt>
<pdfrwt beam="2">  1       -2 0.43445994E-01 0.23948669E+03</pdfrwt>
<totfact> 0.87484594E+02</totfact>
</mgrwt>
</event>
<event>
 6    1  0.4705246E-006  0.1561313E+03  0.7546771E-02  0.1203761E+00
          2   -1    0    0  501    0  0.00000000000E+00  0.00000000000E+00  0.58820233144E+03  0.58820233144E+03  0.00000000000E+00 0. -1.
         -2   -1    0    0    0  501 -0.00000000000E+00 -0.00000000000E+00 -0.33325844125E+02  0.33325844125E+02  0.00000000000E+00 0.  1.
          5    1    1    2  502    0  0.67764029987E+02  0.19594030632E+02  0.30375837894E+03  0.31187679069E+03  0.47000000000E+01 0.  1.
         -5    1    1    2    0  502  0.25643274166E+02 -0.19524607591E+02  0.34794291697E+01  0.32756438129E+02  0.47000000000E+01 0.  1.
        -11    1    1    2    0    0 -0.29715454449E+02 -0.24073614520E+02  0.16722444760E+03  0.17154172386E+03  0.00000000000E+00 0. -1.
         11    1    1    2    0    0 -0.63691849705E+02  0.24004191478E+02  0.80414231602E+02  0.10535322288E+03  0.00000000000E+00 0.  1.
<mgrwt>
<rscale>  0 0.14735558E+03</rscale>
<asrwt>0</asrwt>
<pdfrwt beam="1">  1        2 0.90492659E-01 0.15613133E+03</pdfrwt>
<pdfrwt beam="2">  1       -2 0.51270534E-02 0.15613133E+03</pdfrwt>
<totfact> 0.93852019E+03</totfact>
</mgrwt>
</event>
<event>
 6    1  0.4705246E-006  0.2654657E+03  0.7546771E-02  0.1103903E+00
          1   -1    0    0  501    0  0.00000000000E+00  0.00000000000E+00  0.60279554466E+03  0.60279554466E+03  0.00000000000E+00 0. -1.
         -1   -1    0    0    0  501 -0.00000000000E+00 -0.00000000000E+00 -0.29227168893E+02  0.29227168893E+02  0.00000000000E+00 0.  1.
          5    1    1    2  502    0  0.83193674912E+02  0.63497786854E+02  0.31728606218E+03  0.33413424209E+03  0.47000000000E+01 0.  1.
         -5    1    1    2    0  502 -0.29033287273E+02 -0.11745876068E+02  0.35558261044E+02  0.47616985446E+02  0.47000000000E+01 0.  1.
        -11    1    1    2    0    0  0.70039678430E+01 -0.53367613889E+02  0.13144193499E+03  0.14203569992E+03  0.00000000000E+00 0.  1.
         11    1    1    2    0    0 -0.61164355482E+02  0.16157031027E+01  0.89282117555E+02  0.10823578610E+03  0.00000000000E+00 0. -1.
<mgrwt>
<rscale>  0 0.26546568E+03</rscale>
<asrwt>0</asrwt>
<pdfrwt beam="1">  1        1 0.92737767E-01 0.26546568E+03</pdfrwt>
<pdfrwt beam="2">  1       -1 0.44964880E-02 0.26546568E+03</pdfrwt>
<totfact> 0.71752036E+03</totfact>
</mgrwt>
</event>
<event>
 6    1  0.4705246E-006  0.1242072E+03  0.7546771E-02  0.1243480E+00
         -2   -1    0    0    0  501 -0.00000000000E+00  0.00000000000E+00  0.47276256760E+02  0.47276256760E+02  0.00000000000E+00 0.  1.
          2   -1    0    0  501    0  0.00000000000E+00 -0.00000000000E+00 -0.53843816679E+03  0.53843816679E+03  0.00000000000E+00 0. -1.
          5    1    1    2  502    0  0.27806111210E+02  0.43410632631E+02 -0.30128183706E+03  0.30569674220E+03  0.47000000000E+01 0. -1.
         -5    1    1    2    0  502 -0.29241489930E+02 -0.55212530445E+02 -0.15488520397E+03  0.16707784012E+03  0.47000000000E+01 0.  1.
        -11    1    1    2    0    0 -0.49439942782E+02  0.20037783401E+02 -0.29891874723E+02  0.61150182995E+02  0.00000000000E+00 0.  1.
         11    1    1    2    0    0  0.50875321502E+02 -0.82358855875E+01 -0.51029942741E+01  0.51789658233E+02  0.00000000000E+00 0. -1.
<mgrwt>
<rscale>  0 0.11976845E+03</rscale>
<asrwt>0</asrwt>
<pdfrwt beam="2">  1        2 0.82836637E-01 0.12420723E+03</pdfrwt>
<pdfrwt beam="1">  1       -2 0.72732706E-02 0.12420723E+03</pdfrwt>
<totfact> 0.60112217E+03</totfact>
</mgrwt>
</event>
<event>
 6    1  0.4705246E-006  0.1596750E+03  0.7546771E-02  0.1197804E+00
          2   -1    0    0  501    0  0.00000000000E+00  0.00000000000E+00  0.42684198103E+03  0.42684198103E+03  0.00000000000E+00 0. -1.
         -2   -1    0    0    0  501 -0.00000000000E+00 -0.00000000000E+00 -0.56267360690E+02  0.56267360690E+02  0.00000000000E+00 0.  1.
          5    1    1    2  502    0  0.49776952626E+02  0.53956332987E+02  0.13202576915E+03  0.15113545117E+03  0.47000000000E+01 0.  1.
         -5    1    1    2    0  502  0.48043592841E+02 -0.71301471235E+02  0.15078509751E+03  0.17363848147E+03  0.47000000000E+01 0.  1.
        -11    1    1    2    0    0  0.14627208578E+02  0.60475524550E+01  0.23483641321E+02  0.28319772795E+02  0.00000000000E+00 0.  1.
         11    1    1    2    0    0 -0.11244775404E+03  0.11297585793E+02  0.64280112358E+02  0.13001563629E+03  0.00000000000E+00 0. -1.
<mgrwt>
<rscale>  0 0.15219323E+03</rscale>
<asrwt>0</asrwt>
<pdfrwt beam="1">  1        2 0.65667995E-01 0.15967505E+03</pdfrwt>
<pdfrwt beam="2">  1       -2 0.86565173E-02 0.15967505E+03</pdfrwt>
<totfact> 0.60055040E+03</totfact>
</mgrwt>
</event>
<event>
 6    1  0.4705246E-006  0.2433256E+03  0.7546771E-02  0.1120229E+00
         -2   -1    0    0    0  501 -0.00000000000E+00  0.00000000000E+00  0.29673322052E+03  0.29673322052E+03  0.00000000000E+00 0.  1.
          2   -1    0    0  501    0  0.00000000000E+00 -0.00000000000E+00 -0.19008497343E+03  0.19008497343E+03  0.00000000000E+00 0. -1.
          5    1    1    2  502    0 -0.93050641295E+02  0.72027310419E+02  0.59755132561E+02  0.13205726470E+03  0.47000000000E+01 0.  1.
         -5    1    1    2    0  502 -0.10611125014E+03 -0.94460788885E+01 -0.35706580707E+02  0.11245388263E+03  0.47000000000E+01 0.  1.
        -11    1    1    2    0    0  0.14270988484E+03 -0.77396589802E+02  0.32893325322E+02  0.16564514540E+03  0.00000000000E+00 0.  1.
         11    1    1    2    0    0  0.56452006589E+02  0.14815358272E+02  0.49706369912E+02  0.76661901219E+02  0.00000000000E+00 0. -1.
<mgrwt>
<rscale>  0 0.23934610E+03</rscale>
<asrwt>0</asrwt>
<pdfrwt beam="2">  1        2 0.29243842E-01 0.24332564E+03</pdfrwt>
<pdfrwt beam="1">  1       -2 0.45651265E-01 0.24332564E+03</pdfrwt>
<totfact> 0.83071906E+02</totfact>
</mgrwt>
</event>
<event>
 6    1  0.4705246E-006  0.1374019E+03  0.7546771E-02  0.1228998E+00
          2   -1    0    0  501    0  0.00000000000E+00  0.00000000000E+00  0.31801168904E+03  0.31801168904E+03  0.00000000000E+00 0. -1.
         -2   -1    0    0    0  501 -0.00000000000E+00 -0.00000000000E+00 -0.49259251739E+02  0.49259251739E+02  0.00000000000E+00 0.  1.
          5    1    1    2  502    0 -0.55851242841E+01  0.42068200122E+02 -0.65105320131E+00  0.42701767470E+02  0.47000000000E+01 0. -1.
         -5    1    1    2    0  502 -0.14334261444E+02  0.11380705173E+02  0.19168099047E+03  0.19261018563E+03  0.47000000000E+01 0. -1.
        -11    1    1    2    0    0  0.27254855294E+02 -0.74077182424E+02  0.40354344231E+02  0.88649473723E+02  0.00000000000E+00 0.  1.
         11    1    1    2    0    0 -0.73354695657E+01  0.20628277129E+02  0.37368155805E+02  0.43309513958E+02  0.00000000000E+00 0. -1.
<mgrwt>
<rscale>  0 0.12896622E+03</rscale>
<asrwt>0</asrwt>
<pdfrwt beam="1">  1        2 0.48924874E-01 0.13740189E+03</pdfrwt>
<pdfrwt beam="2">  1       -2 0.75783466E-02 0.13740189E+03</pdfrwt>
<totfact> 0.10009344E+04</totfact>
</mgrwt>
</event>
<event>
 6    1  0.4705246E-006  0.1404771E+03  0.7546771E-02  0.1223802E+00
          2   -1    0    0  501    0  0.00000000000E+00  0.00000000000E+00  0.15733669285E+04  0.15733669285E+04  0.00000000000E+00 0. -1.
         -2   -1    0    0    0  501 -0.00000000000E+00 -0.00000000000E+00 -0.13230083731E+02  0.13230083731E+02  0.00000000000E+00 0.  1.
          5    1    1    2  502    0 -0.70941379845E+02  0.91390638124E+01  0.91490103959E+03  0.91770485675E+03  0.47000000000E+01 0.  1.
         -5    1    1    2    0  502  0.36201689309E+02  0.44718240363E+02  0.32048733679E+03  0.32564475487E+03  0.47000000000E+01 0.  1.
        -11    1    1    2    0    0 -0.15449249158E+02 -0.13395800450E+02  0.11553634842E+02  0.23486448163E+02  0.00000000000E+00 0.  1.
         11    1    1    2    0    0  0.50188939693E+02 -0.40461503725E+02  0.31319483357E+03  0.31976095247E+03  0.00000000000E+00 0. -1.
<mgrwt>
<rscale>  0 0.13249339E+03</rscale>
<asrwt>0</asrwt>
<pdfrwt beam="1">  1        2 0.24205630E+00 0.14047710E+03</pdfrwt>
<pdfrwt beam="2">  1       -2 0.20353987E-02 0.14047710E+03</pdfrwt>
<totfact> 0.91928694E+03</totfact>
</mgrwt>
</event>
<event>
 6    1  0.5717587E-006  0.3748046E+03  0.7546771E-02  0.1052871E+00
          1   -1    0    0  501    0  0.00000000000E+00  0.00000000000E+00  0.82196739465E+03  0.82196739465E+03  0.00000000000E+00 0. -1.
         -1   -1    0    0    0  501 -0.00000000000E+00 -0.00000000000E+00 -0.42726307042E+02  0.42726307042E+02  0.00000000000E+00 0.  1.
          5    1    1    2  502    0 -0.27202257837E+02  0.17893312838E+02  0.30298238449E+02  0.44723670790E+02  0.47000000000E+01 0.  1.
         -5    1    1    2    0  502 -0.75364386890E+02 -0.23638958878E+02  0.63768446542E+03  0.64257463273E+03  0.47000000000E+01 0.  1.
        -11    1    1    2    0    0  0.50854946007E+02 -0.33331134281E+02  0.17242107454E+02  0.63201901200E+02  0.00000000000E+00 0.  1.
         11    1    1    2    0    0  0.51711698721E+02  0.39076780321E+02  0.94016276289E+02  0.11419349698E+03  0.00000000000E+00 0. -1.
<mgrwt>
<rscale>  0 0.37480465E+03</rscale>
<asrwt>0</asrwt>
<pdfrwt beam="1">  1        1 0.12645651E+00 0.37480465E+03</pdfrwt>
<pdfrwt beam="2">  1       -1 0.65732786E-02 0.37480465E+03</pdfrwt>
<totfact> 0.25763565E+03</totfact>
</mgrwt>
</event>
<event>
 6    1  0.4705246E-006  0.1310402E+03  0.7546771E-02  0.1239519E+00
          4   -1    0    0  501    0  0.00000000000E+00  0.00000000000E+00  0.19283235830E+03  0.19283235830E+03  0.00000000000E+00 0. -1.
         -4   -1    0    0    0  501 -0.00000000000E+00 -0.00000000000E+00 -0.72371059516E+02  0.72371059516E+02  0.00000000000E+00 0.  1.
          5    1    1    2  502    0  0.98639596211E+01 -0.27394146667E+02  0.12698983238E+03  0.13036964562E+03  0.47000000000E+01 0. -1.
         -5    1    1    2    0  502 -0.97070208944E+01 -0.11941834147E+02 -0.29062108745E+02  0.33219419353E+02  0.47000000000E+01 0. -1.
        -11    1    1    2    0    0  0.15703805207E+02 -0.13318120468E+01  0.48381834160E+02  0.50884035787E+02  0.00000000000E+00 0. -1.
         11    1    1    2    0    0 -0.15860743934E+02  0.40667792860E+02 -0.25848259015E+02  0.50730317054E+02  0.00000000000E+00 0.  1.
<mgrwt>
<rscale>  0 0.12219538E+03</rscale>
<asrwt>0</asrwt>
<pdfrwt beam="1">  1        4 0.29666516E-01 0.13104023E+03</pdfrwt>
<pdfrwt beam="2">  1       -4 0.11134009E-01 0.13104023E+03</pdfrwt>
<totfact> 0.11238137E+03</totfact>
</mgrwt>
</event>
<event>
 6    1  0.4705246E-006  0.2195576E+03  0.7546771E-02  0.1137287E+00
          2   -1    0    0  501    0  0.00000000000E+00  0.00000000000E+00  0.65984171582E+03  0.65984171582E+03  0.00000000000E+00 0. -1.
         -2   -1    0    0    0  501 -0.00000000000E+00 -0.00000000000E+00 -0.69654895873E+02  0.69654895873E+02  0.00000000000E+00 0.  1.
          5    1    1    2  502    0 -0.57451852810E+02  0.10159341640E+03  0.15961431320E+03  0.19778967775E+03  0.47000000000E+01 0.  1.
         -5    1    1    2    0  502 -0.98740663034E+02 -0.11124710227E+02  0.20419968718E+03  0.22714110143E+03  0.47000000000E+01 0.  1.
        -11    1    1    2    0    0  0.54293527090E+02 -0.22633011479E+01  0.12379634988E+03  0.13519780271E+03  0.00000000000E+00 0. -1.
         11    1    1    2    0    0  0.10189898875E+03 -0.88205405025E+02  0.10257646970E+03  0.16936802981E+03  0.00000000000E+00 0.  1.
<mgrwt>
<rscale>  0 0.21549535E+03</rscale>
<asrwt>0</asrwt>
<pdfrwt beam="1">  1        2 0.10151411E+00 0.21955760E+03</pdfrwt>
<pdfrwt beam="2">  1       -2 0.10716138E-01 0.21955760E+03</pdfrwt>
<totfact> 0.26572567E+03</totfact>
</mgrwt>
</event>
<event>
 6    1  0.4705246E-006  0.1502091E+03  0.7546771E-02  0.1211683E+00
         -1   -1    0    0    0  501 -0.00000000000E+00  0.00000000000E+00  0.32713807352E+03  0.32713807352E+03  0.00000000000E+00 0.  1.
          1   -1    0    0  501    0  0.00000000000E+00 -0.00000000000E+00 -0.54922056816E+02  0.54922056816E+02  0.00000000000E+00 0. -1.
          5    1    1    2  502    0 -0.40834821612E+02  0.39206773354E+02  0.38339497596E+01  0.56933671089E+02  0.47000000000E+01 0.  1.
         -5    1    1    2    0  502 -0.42397257728E+02 -0.39611804387E+02  0.13749539581E+03  0.14931073765E+03  0.47000000000E+01 0.  1.
        -11    1    1    2    0    0  0.66105875422E+02  0.37856472388E+02  0.83116521186E+02  0.11274509019E+03  0.00000000000E+00 0.  1.
         11    1    1    2    0    0  0.17126203919E+02 -0.37451441355E+02  0.47770149953E+02  0.63070631412E+02  0.00000000000E+00 0. -1.
<mgrwt>
<rscale>  0 0.14123025E+03</rscale>
<asrwt>0</asrwt>
<pdfrwt beam="2">  1        1 0.84495474E-02 0.15020909E+03</pdfrwt>
<pdfrwt beam="1">  1       -1 0.50328933E-01 0.15020909E+03</pdfrwt>
<totfact> 0.31708863E+03</totfact>
</mgrwt>
</event>
<event>
 6    1  0.4705246E-006  0.1440320E+03  0.7546771E-02  0.1227607E+00
         -2   -1    0    0    0  501 -0.00000000000E+00  0.00000000000E+00  0.78167837299E+02  0.78167837299E+02  0.00000000000E+00 0.  1.
          2   -1    0    0  501    0  0.00000000000E+00 -0.00000000000E+00 -0.28154409228E+03  0.28154409228E+03  0.00000000000E+00 0. -1.
          5    1    1    2  502    0 -0.47190118096E+02  0.17805488634E+02 -0.17781564649E+03  0.18489033725E+03  0.47000000000E+01 0. -1.
         -5    1    1    2    0  502  0.65518233580E+02 -0.11194582477E+01 -0.42215589868E+02  0.78090576551E+02  0.47000000000E+01 0.  1.
        -11    1    1    2    0    0  0.14667066414E+02 -0.47614723968E+02  0.12149645803E+02  0.51282537660E+02  0.00000000000E+00 0.  1.
         11    1    1    2    0    0 -0.32995181898E+02  0.30928693582E+02  0.45053355700E+01  0.45448478124E+02  0.00000000000E+00 0. -1.
<mgrwt>
<rscale>  0 0.12989786E+03</rscale>
<asrwt>0</asrwt>
<pdfrwt beam="2">  1        2 0.43314476E-01 0.14403200E+03</pdfrwt>
<pdfrwt beam="1">  1       -2 0.12025821E-01 0.14403200E+03</pdfrwt>
<totfact> 0.55403069E+03</totfact>
</mgrwt>
</event>
<event>
 6    1  0.4705246E-006  0.1635318E+03  0.7546771E-02  0.1191664E+00
         -1   -1    0    0    0  501 -0.00000000000E+00  0.00000000000E+00  0.23102543110E+03  0.23102543110E+03  0.00000000000E+00 0.  1.
          1   -1    0    0  501    0  0.00000000000E+00 -0.00000000000E+00 -0.11251270991E+03  0.11251270991E+03  0.00000000000E+00 0. -1.
          5    1    1    2  502    0  0.59007767233E+02  0.91225316195E+02 -0.21818078251E+02  0.11091480265E+03  0.47000000000E+01 0. -1.
         -5    1    1    2    0  502  0.29282612502E+02 -0.33586935625E+02  0.27791974269E+02  0.52726060666E+02  0.47000000000E+01 0. -1.
        -11    1    1    2    0    0 -0.47298566521E+02 -0.72387230146E+02  0.10443315658E+03  0.13558521186E+03  0.00000000000E+00 0.  1.
         11    1    1    2    0    0 -0.40991813214E+02  0.14748849575E+02  0.81056685969E+01  0.44312065826E+02  0.00000000000E+00 0. -1.
<mgrwt>
<rscale>  0 0.15739992E+03</rscale>
<asrwt>0</asrwt>
<pdfrwt beam="2">  1        1 0.17309648E-01 0.16353179E+03</pdfrwt>
<pdfrwt beam="1">  1       -1 0.35542374E-01 0.16353179E+03</pdfrwt>
<totfact> 0.22982465E+03</totfact>
</mgrwt>
</event>
<event>
 6    1  0.4705246E-006  0.1673501E+03  0.7546771E-02  0.1226591E+00
         -2   -1    0    0    0  501 -0.00000000000E+00  0.00000000000E+00  0.31024217709E+03  0.31024217709E+03  0.00000000000E+00 0.  1.
          2   -1    0    0  501    0  0.00000000000E+00 -0.00000000000E+00 -0.43163234792E+02  0.43163234792E+02  0.00000000000E+00 0. -1.
          5    1    1    2  502    0  0.50543390119E+01 -0.96984383302E+02  0.56321455391E+02  0.11236419930E+03  0.47000000000E+01 0. -1.
         -5    1    1    2    0  502  0.22159895332E+02  0.48456843661E+02  0.11656007545E+03  0.12824768164E+03  0.47000000000E+01 0.  1.
        -11    1    1    2    0    0 -0.15211131593E+02  0.72170263449E+01  0.41377827021E+02  0.44672010953E+02  0.00000000000E+00 0. -1.
         11    1    1    2    0    0 -0.12003102751E+02  0.41310513296E+02  0.52819584438E+02  0.68121519981E+02  0.00000000000E+00 0.  1.
<mgrwt>
<rscale>  0 0.13058436E+03</rscale>
<asrwt>0</asrwt>
<pdfrwt beam="2">  1        2 0.66404979E-02 0.16735009E+03</pdfrwt>
<pdfrwt beam="1">  1       -2 0.47729564E-01 0.16735009E+03</pdfrwt>
<totfact> 0.44032172E+03</totfact>
</mgrwt>
</event>
<event>
 6    1  0.4705246E-006  0.1314308E+03  0.7546771E-02  0.1237613E+00
         -2   -1    0    0    0  501 -0.00000000000E+00  0.00000000000E+00  0.53561565557E+02  0.53561565557E+02  0.00000000000E+00 0.  1.
          2   -1    0    0  501    0  0.00000000000E+00 -0.00000000000E+00 -0.30169421343E+03  0.30169421343E+03  0.00000000000E+00 0. -1.
          5    1    1    2  502    0 -0.26986028123E+02 -0.63758610400E+02 -0.15288289809E+03  0.16789483805E+03  0.47000000000E+01 0. -1.
         -5    1    1    2    0  502 -0.12340174536E+02  0.53597267152E+02 -0.54099511202E+02  0.77290323237E+02  0.47000000000E+01 0. -1.
        -11    1    1    2    0    0  0.48213254040E+02  0.41148301128E+02 -0.80969894382E+01  0.63900405232E+02  0.00000000000E+00 0.  1.
         11    1    1    2    0    0 -0.88870513818E+01 -0.30986957880E+02 -0.33053249143E+02  0.46170212474E+02  0.00000000000E+00 0. -1.
<mgrwt>
<rscale>  0 0.12338651E+03</rscale>
<asrwt>0</asrwt>
<pdfrwt beam="2">  1        2 0.46414495E-01 0.13143076E+03</pdfrwt>
<pdfrwt beam="1">  1       -2 0.82402408E-02 0.13143076E+03</pdfrwt>
<totfact> 0.92711630E+03</totfact>
</mgrwt>
</event>
<event>
 6    1  0.4705246E-006  0.3867962E+03  0.7546771E-02  0.1048450E+00
         -1   -1    0    0    0  501 -0.00000000000E+00  0.00000000000E+00  0.16741638966E+02  0.16741638966E+02  0.00000000000E+00 0.  1.
          1   -1    0    0  501    0  0.00000000000E+00 -0.00000000000E+00 -0.22341199317E+04  0.22341199317E+04  0.00000000000E+00 0. -1.
          5    1    1    2  502    0  0.14475516372E+02  0.16120774367E+02 -0.75220931236E+03  0.75253595233E+03  0.47000000000E+01 0. -1.
         -5    1    1    2    0  502 -0.84306388523E+02  0.10623450629E+03 -0.86074156810E+03  0.87137332673E+03  0.47000000000E+01 0. -1.
        -11    1    1    2    0    0  0.46102195132E+02 -0.16534110999E+02 -0.29575352910E+03  0.29978148574E+03  0.00000000000E+00 0.  1.
         11    1    1    2    0    0  0.23728677019E+02 -0.10582116965E+03 -0.30867388321E+03  0.32717080590E+03  0.00000000000E+00 0. -1.
<mgrwt>
<rscale>  0 0.38679622E+03</rscale>
<asrwt>0</asrwt>
<pdfrwt beam="2">  1        1 0.34371054E+00 0.38679622E+03</pdfrwt>
<pdfrwt beam="1">  1       -1 0.25756384E-02 0.38679622E+03</pdfrwt>
<totfact> 0.11109271E+03</totfact>
</mgrwt>
</event>
<event>
 6    1  0.4705246E-006  0.1362037E+03  0.7546771E-02  0.1235667E+00
          2   -1    0    0  501    0  0.00000000000E+00  0.00000000000E+00  0.28499439670E+03  0.28499439670E+03  0.00000000000E+00 0. -1.
         -2   -1    0    0    0  501 -0.00000000000E+00 -0.00000000000E+00 -0.75027660955E+02  0.75027660955E+02  0.00000000000E+00 0.  1.
          5    1    1    2  502    0 -0.15180677398E+02 -0.14044012013E+02  0.24015471821E+03  0.24108933182E+03  0.47000000000E+01 0. -1.
         -5    1    1    2    0  502  0.39255646635E+01 -0.15468301804E+02 -0.14774718393E+02  0.22249960050E+02  0.47000000000E+01 0.  1.
        -11    1    1    2    0    0  0.42278050529E+02  0.40009779105E+02  0.44514981265E+01  0.58378350577E+02  0.00000000000E+00 0.  1.
         11    1    1    2    0    0 -0.31022937794E+02 -0.10497465287E+02 -0.19864762201E+02  0.38304415204E+02  0.00000000000E+00 0. -1.
<mgrwt>
<rscale>  0 0.12461816E+03</rscale>
<asrwt>0</asrwt>
<pdfrwt beam="1">  1        2 0.43845291E-01 0.13620366E+03</pdfrwt>
<pdfrwt beam="2">  1       -2 0.11542717E-01 0.13620366E+03</pdfrwt>
<totfact> 0.58193826E+03</totfact>
</mgrwt>
</event>
<event>
 6    1  0.4705246E-006  0.1716205E+03  0.7546771E-02  0.1186473E+00
          1   -1    0    0  501    0  0.00000000000E+00  0.00000000000E+00  0.24927092137E+03  0.24927092137E+03  0.00000000000E+00 0. -1.
         -1   -1    0    0    0  501 -0.00000000000E+00 -0.00000000000E+00 -0.45156528600E+03  0.45156528600E+03  0.00000000000E+00 0.  1.
          5    1    1    2  502    0  0.32675725928E+02  0.12955334697E+03  0.18243427911E+03  0.22617720701E+03  0.47000000000E+01 0. -1.
         -5    1    1    2    0  502 -0.68194635472E+01 -0.34029731882E+02  0.24903899760E+02  0.42974666471E+02  0.47000000000E+01 0.  1.
        -11    1    1    2    0    0  0.18514171688E+02  0.10117877775E+02 -0.50981858725E+02  0.55175138632E+02  0.00000000000E+00 0. -1.
         11    1    1    2    0    0 -0.44370434069E+02 -0.10564149287E+03 -0.35865068476E+03  0.37650919526E+03  0.00000000000E+00 0.  1.
<mgrwt>
<rscale>  0 0.16198596E+03</rscale>
<asrwt>0</asrwt>
<pdfrwt beam="1">  1        1 0.38349373E-01 0.17162054E+03</pdfrwt>
<pdfrwt beam="2">  1       -1 0.69471581E-01 0.17162054E+03</pdfrwt>
<totfact> 0.24535226E+02</totfact>
</mgrwt>
</event>
<event>
 6    1  0.4705246E-006  0.2449392E+03  0.7546771E-02  0.1118325E+00
          4   -1    0    0  501    0  0.00000000000E+00  0.00000000000E+00  0.62386264625E+03  0.62386264625E+03  0.00000000000E+00 0. -1.
         -4   -1    0    0    0  501 -0.00000000000E+00 -0.00000000000E+00 -0.11527887925E+03  0.11527887925E+03  0.00000000000E+00 0.  1.
          5    1    1    2  502    0  0.14968274172E+03 -0.12270030755E+03  0.33908730559E+03  0.39046456876E+03  0.47000000000E+01 0. -1.
         -5    1    1    2    0  502 -0.15481913494E+02 -0.48684367613E+02  0.85752446745E+02  0.99927120533E+02  0.47000000000E+01 0.  1.
        -11    1    1    2    0    0 -0.83109902743E+02  0.64657201434E+02  0.27055563876E+01  0.10533342141E+03  0.00000000000E+00 0.  1.
         11    1    1    2    0    0 -0.51090925481E+02  0.10672747373E+03  0.81038458269E+02  0.14341641480E+03  0.00000000000E+00 0. -1.
<mgrwt>
<rscale>  0 0.24221667E+03</rscale>
<asrwt>0</asrwt>
<pdfrwt beam="1">  1        4 0.95978866E-01 0.24493916E+03</pdfrwt>
<pdfrwt beam="2">  1       -4 0.17735213E-01 0.24493916E+03</pdfrwt>
<totfact> 0.47866890E+01</totfact>
</mgrwt>
</event>
<event>
 6    1  0.4705246E-006  0.1301044E+03  0.7546771E-02  0.1243115E+00
          1   -1    0    0  501    0  0.00000000000E+00  0.00000000000E+00  0.85797970227E+03  0.85797970227E+03  0.00000000000E+00 0. -1.
         -1   -1    0    0    0  501 -0.00000000000E+00 -0.00000000000E+00 -0.15102193753E+02  0.15102193753E+02  0.00000000000E+00 0.  1.
          5    1    1    2  502    0 -0.16845641958E+00 -0.42916519098E+02  0.30297842316E+03  0.30603900224E+03  0.47000000000E+01 0. -1.
         -5    1    1    2    0  502 -0.30856277522E+01  0.78857202058E+02  0.25865932470E+03  0.27047128437E+03  0.47000000000E+01 0. -1.
        -11    1    1    2    0    0 -0.29299242199E+02 -0.40376763174E+00  0.34937242747E+02  0.45598459980E+02  0.00000000000E+00 0.  1.
         11    1    1    2    0    0  0.32553326371E+02 -0.35536915329E+02  0.24630251791E+03  0.25097314944E+03  0.00000000000E+00 0. -1.
<mgrwt>
<rscale>  0 0.11998903E+03</rscale>
<asrwt>0</asrwt>
<pdfrwt beam="1">  1        1 0.13199684E+00 0.13010438E+03</pdfrwt>
<pdfrwt beam="2">  1       -1 0.23234151E-02 0.13010438E+03</pdfrwt>
<totfact> 0.10871487E+04</totfact>
</mgrwt>
</event>
<event>
 6    1  0.4705246E-006  0.2837801E+03  0.7546771E-02  0.1094904E+00
         -1   -1    0    0    0  501 -0.00000000000E+00  0.00000000000E+00  0.10523238976E+04  0.10523238976E+04  0.00000000000E+00 0.  1.
          1   -1    0    0  501    0  0.00000000000E+00 -0.00000000000E+00 -0.82346033953E+02  0.82346033953E+02  0.00000000000E+00 0. -1.
          5    1    1    2  502    0 -0.13646874561E+02  0.20105662202E+01  0.27726168727E+02  0.31322675398E+02  0.47000000000E+01 0. -1.
         -5    1    1    2    0  502  0.26103904534E+03  0.58841672839E+02  0.28449425536E+03  0.39059287883E+03  0.47000000000E+01 0. -1.
        -11    1    1    2    0    0 -0.13599549902E+03 -0.35942952592E+02  0.22632134571E+03  0.26647330658E+03  0.00000000000E+00 0.  1.
         11    1    1    2    0    0 -0.11139667176E+03 -0.24909286467E+02  0.43143609385E+03  0.44628107074E+03  0.00000000000E+00 0. -1.
<mgrwt>
<rscale>  0 0.28144213E+03</rscale>
<asrwt>0</asrwt>
<pdfrwt beam="2">  1        1 0.12668621E-01 0.28378009E+03</pdfrwt>
<pdfrwt beam="1">  1       -1 0.16189597E+00 0.28378009E+03</pdfrwt>
<totfact> 0.14395741E+02</totfact>
</mgrwt>
</event>
<event>
 6    1  0.4705246E-006  0.1644355E+03  0.7546771E-02  0.1197992E+00
          3   -1    0    0  501    0  0.00000000000E+00  0.00000000000E+00  0.14982315404E+03  0.14982315404E+03  0.00000000000E+00 0. -1.
         -3   -1    0    0    0  501 -0.00000000000E+00 -0.00000000000E+00 -0.13624874012E+03  0.13624874012E+03  0.00000000000E+00 0.  1.
          5    1    1    2  502    0 -0.70276793648E+02 -0.23859746504E+02  0.52966465092E+02  0.91299789994E+02  0.47000000000E+01 0. -1.
         -5    1    1    2    0  502  0.97467046216E+01  0.66036746168E+02 -0.32522066406E+02  0.74401780212E+02  0.47000000000E+01 0.  1.
        -11    1    1    2    0    0  0.71353052313E+02  0.42617746941E+01  0.35251940201E+01  0.71567085946E+02  0.00000000000E+00 0.  1.
         11    1    1    2    0    0 -0.10822963287E+02 -0.46438774358E+02 -0.10395178788E+02  0.48803238010E+02  0.00000000000E+00 0. -1.
<mgrwt>
<rscale>  0 0.15203705E+03</rscale>
<asrwt>0</asrwt>
<pdfrwt beam="1">  1        3 0.23049716E-01 0.16443551E+03</pdfrwt>
<pdfrwt beam="2">  1       -3 0.20961345E-01 0.16443551E+03</pdfrwt>
<totfact> 0.85381316E+02</totfact>
</mgrwt>
</event>
<event>
 6    1  0.4705246E-006  0.1370440E+03  0.7546771E-02  0.1228657E+00
         -1   -1    0    0    0  501 -0.00000000000E+00  0.00000000000E+00  0.50360308901E+02  0.50360308901E+02  0.00000000000E+00 0.  1.
          1   -1    0    0  501    0  0.00000000000E+00 -0.00000000000E+00 -0.32499155279E+03  0.32499155279E+03  0.00000000000E+00 0. -1.
          5    1    1    2  502    0  0.39240018368E+02  0.35831513367E+02 -0.89545792428E+02  0.10423154673E+03  0.47000000000E+01 0. -1.
         -5    1    1    2    0  502 -0.77660563432E+01 -0.82793379879E+02 -0.11566535607E+03  0.14253287332E+03  0.47000000000E+01 0. -1.
        -11    1    1    2    0    0 -0.62181556879E+02  0.25576562895E+02 -0.28186451016E+02  0.72905298891E+02  0.00000000000E+00 0.  1.
         11    1    1    2    0    0  0.30707594855E+02  0.21385303617E+02 -0.41233644372E+02  0.55682142746E+02  0.00000000000E+00 0. -1.
<mgrwt>
<rscale>  0 0.12919346E+03</rscale>
<asrwt>0</asrwt>
<pdfrwt beam="2">  1        1 0.49998699E-01 0.13704402E+03</pdfrwt>
<pdfrwt beam="1">  1       -1 0.77477400E-02 0.13704402E+03</pdfrwt>
<totfact> 0.68291469E+03</totfact>
</mgrwt>
</event>
<event>
 6    1  0.4705246E-006  0.1453979E+03  0.7546771E-02  0.1215750E+00
         -1   -1    0    0    0  501 -0.00000000000E+00  0.00000000000E+00  0.14214733900E+03  0.14214733900E+03  0.00000000000E+00 0.  1.
          1   -1    0    0  501    0  0.00000000000E+00 -0.00000000000E+00 -0.12270764765E+03  0.12270764765E+03  0.00000000000E+00 0. -1.
          5    1    1    2  502    0 -0.62009237421E+02 -0.23275553354E+02 -0.11572652365E+02  0.67401136431E+02  0.47000000000E+01 0. -1.
         -5    1    1    2    0  502  0.85323629764E+01  0.74818097826E+02  0.20923716173E+02  0.78297131996E+02  0.47000000000E+01 0. -1.
        -11    1    1    2    0    0  0.11678438353E+02  0.21422835008E+02 -0.18196561405E+02  0.30437454380E+02  0.00000000000E+00 0. -1.
         11    1    1    2    0    0  0.41798436092E+02 -0.72965379480E+02  0.28285188950E+02  0.88719263840E+02  0.00000000000E+00 0.  1.
<mgrwt>
<rscale>  0 0.13821578E+03</rscale>
<asrwt>0</asrwt>
<pdfrwt beam="2">  1        1 0.18878100E-01 0.14539788E+03</pdfrwt>
<pdfrwt beam="1">  1       -1 0.21868821E-01 0.14539788E+03</pdfrwt>
<totfact> 0.46025679E+03</totfact>
</mgrwt>
</event>
<event>
 6    1  0.4705246E-006  0.1578711E+03  0.7546771E-02  0.1199264E+00
         -2   -1    0    0    0  501 -0.00000000000E+00  0.00000000000E+00  0.62802934619E+02  0.62802934619E+02  0.00000000000E+00 0.  1.
          2   -1    0    0  501    0  0.00000000000E+00 -0.00000000000E+00 -0.33748868827E+03  0.33748868827E+03  0.00000000000E+00 0. -1.
          5    1    1    2  502    0  0.57402307525E+02  0.30965427893E+02 -0.74214078640E+02  0.98912598299E+02  0.47000000000E+01 0.  1.
         -5    1    1    2    0  502 -0.61393412332E+02  0.65387373615E+02 -0.57066139590E+02  0.10641096745E+03  0.47000000000E+01 0.  1.
        -11    1    1    2    0    0  0.26587000528E+02  0.31482094743E+01 -0.49608587704E+02  0.56371906070E+02  0.00000000000E+00 0. -1.
         11    1    1    2    0    0 -0.22595895722E+02 -0.99501010983E+02 -0.93796947716E+02  0.13859615107E+03  0.00000000000E+00 0.  1.
<mgrwt>
<rscale>  0 0.15098827E+03</rscale>
<asrwt>0</asrwt>
<pdfrwt beam="2">  1        2 0.51921337E-01 0.15787106E+03</pdfrwt>
<pdfrwt beam="1">  1       -2 0.96619899E-02 0.15787106E+03</pdfrwt>
<totfact> 0.64999134E+03</totfact>
</mgrwt>
</event>
<event>
 6    1  0.4705246E-006  0.1323018E+03  0.7546771E-02  0.1247886E+00
          2   -1    0    0  501    0  0.00000000000E+00  0.00000000000E+00  0.26427260887E+03  0.26427260887E+03  0.00000000000E+00 0. -1.
         -2   -1    0    0    0  501 -0.00000000000E+00 -0.00000000000E+00 -0.43246149367E+02  0.43246149367E+02  0.00000000000E+00 0.  1.
          5    1    1    2  502    0  0.14576203843E+02 -0.67677064386E+02  0.13532745625E+03  0.15207978556E+03  0.47000000000E+01 0.  1.
         -5    1    1    2    0  502 -0.21553182442E+02  0.25065853756E+02 -0.48462139864E+01  0.33740368817E+02  0.47000000000E+01 0.  1.
        -11    1    1    2    0    0  0.26991175643E+02  0.48074356863E+02  0.43316642554E+02  0.70114184532E+02  0.00000000000E+00 0.  1.
         11    1    1    2    0    0 -0.20014197044E+02 -0.54631462332E+01  0.47228574684E+02  0.51584419322E+02  0.00000000000E+00 0. -1.
<mgrwt>
<rscale>  0 0.11714316E+03</rscale>
<asrwt>0</asrwt>
<pdfrwt beam="1">  1        2 0.40657323E-01 0.13230183E+03</pdfrwt>
<pdfrwt beam="2">  1       -2 0.66532539E-02 0.13230183E+03</pdfrwt>
<totfact> 0.14822087E+04</totfact>
</mgrwt>
</event>
<event>
 6    1  0.4705246E-006  0.1714574E+03  0.7546771E-02  0.1182995E+00
         -2   -1    0    0    0  501 -0.00000000000E+00  0.00000000000E+00  0.15092157427E+03  0.15092157427E+03  0.00000000000E+00 0.  1.
          2   -1    0    0  501    0  0.00000000000E+00 -0.00000000000E+00 -0.17529826612E+03  0.17529826612E+03  0.00000000000E+00 0. -1.
          5    1    1    2  502    0 -0.75115261074E+02 -0.12934746227E+02  0.11004468930E+02  0.77154380579E+02  0.47000000000E+01 0. -1.
         -5    1    1    2    0  502  0.69978979578E+01 -0.82631485630E+02 -0.55783054466E+02  0.10005384630E+03  0.47000000000E+01 0. -1.
        -11    1    1    2    0    0  0.53323248936E+02  0.68538827946E+02  0.54915596853E+02  0.10274562079E+03  0.00000000000E+00 0.  1.
         11    1    1    2    0    0  0.14794114180E+02  0.27027403910E+02 -0.34513703165E+02  0.46265992723E+02  0.00000000000E+00 0. -1.
<mgrwt>
<rscale>  0 0.16515620E+03</rscale>
<asrwt>0</asrwt>
<pdfrwt beam="2">  1        2 0.26968964E-01 0.17145738E+03</pdfrwt>
<pdfrwt beam="1">  1       -2 0.23218704E-01 0.17145738E+03</pdfrwt>
<totfact> 0.31225825E+03</totfact>
</mgrwt>
</event>
<event>
 6    1  0.4705246E-006  0.3084223E+03  0.7546771E-02  0.1081105E+00
         -1   -1    0    0    0  501 -0.00000000000E+00  0.00000000000E+00  0.10565672333E+02  0.10565672333E+02  0.00000000000E+00 0.  1.
          1   -1    0    0  501    0  0.00000000000E+00 -0.00000000000E+00 -0.22507863629E+04  0.22507863629E+04  0.00000000000E+00 0. -1.
          5    1    1    2  502    0 -0.36696485841E+02  0.11952302382E+03 -0.14382872883E+04  0.14437190859E+04  0.47000000000E+01 0.  1.
         -5    1    1    2    0  502  0.10394181029E+02 -0.20679784385E+02 -0.88835896458E+02  0.91921700273E+02  0.47000000000E+01 0.  1.
        -11    1    1    2    0    0  0.47698503235E+02 -0.18467410100E+02 -0.24510939743E+03  0.25038931518E+03  0.00000000000E+00 0. -1.
         11    1    1    2    0    0 -0.21396198423E+02 -0.80375829335E+02 -0.46798810833E+03  0.47532193384E+03  0.00000000000E+00 0.  1.
<mgrwt>
<rscale>  0 0.30842225E+03</rscale>
<asrwt>0</asrwt>
<pdfrwt beam="2">  1        1 0.34627521E+00 0.30842225E+03</pdfrwt>
<pdfrwt beam="1">  1       -1 0.16254862E-02 0.30842225E+03</pdfrwt>
<totfact> 0.21459252E+03</totfact>
</mgrwt>
</event>
<event>
 6    1  0.4705246E-006  0.1707754E+03  0.7546771E-02  0.1183967E+00
          1   -1    0    0  501    0  0.00000000000E+00  0.00000000000E+00  0.62885133509E+02  0.62885133509E+02  0.00000000000E+00 0. -1.
         -1   -1    0    0    0  501 -0.00000000000E+00 -0.00000000000E+00 -0.43604920517E+03  0.43604920517E+03  0.00000000000E+00 0.  1.
          5    1    1    2  502    0 -0.65617349696E+02 -0.53518334436E+02 -0.85641889368E+02  0.12052581432E+03  0.47000000000E+01 0.  1.
         -5    1    1    2    0  502 -0.50116217624E+02  0.65523151786E+02 -0.42053494328E+02  0.92711946771E+02  0.47000000000E+01 0.  1.
        -11    1    1    2    0    0  0.23221224432E+02 -0.19087107481E+02 -0.85403539864E+01  0.31248689289E+02  0.00000000000E+00 0.  1.
         11    1    1    2    0    0  0.92512342889E+02  0.70822901308E+01 -0.23692833398E+03  0.25444788830E+03  0.00000000000E+00 0. -1.
<mgrwt>
<rscale>  0 0.16426255E+03</rscale>
<asrwt>0</asrwt>
<pdfrwt beam="1">  1        1 0.96746358E-02 0.17077538E+03</pdfrwt>
<pdfrwt beam="2">  1       -1 0.67084494E-01 0.17077538E+03</pdfrwt>
<totfact> 0.15430625E+03</totfact>
</mgrwt>
</event>
<event>
 6    1  0.4705246E-006  0.3484574E+03  0.7546771E-02  0.1063250E+00
         -1   -1    0    0    0  501 -0.00000000000E+00  0.00000000000E+00  0.98962056767E+02  0.98962056767E+02  0.00000000000E+00 0.  1.
          1   -1    0    0  501    0  0.00000000000E+00 -0.00000000000E+00 -0.30674021550E+03  0.30674021550E+03  0.00000000000E+00 0. -1.
          5    1    1    2  502    0  0.37830829596E+01 -0.15701434074E+01 -0.17457987179E+03  0.17469115233E+03  0.47000000000E+01 0. -1.
         -5    1    1    2    0  502  0.62167585790E+02  0.58369688973E+02 -0.57676417836E+02  0.10305575427E+03  0.47000000000E+01 0. -1.
        -11    1    1    2    0    0 -0.77408904391E+01  0.19174605735E+02 -0.13815486194E+02  0.24868746424E+02  0.00000000000E+00 0.  1.
         11    1    1    2    0    0 -0.58209778311E+02 -0.75974151301E+02  0.38293617092E+02  0.10308661924E+03  0.00000000000E+00 0. -1.
<mgrwt>
<rscale>  0 0.34845742E+03</rscale>
<asrwt>0</asrwt>
<pdfrwt beam="2">  1        1 0.47190803E-01 0.34845742E+03</pdfrwt>
<pdfrwt beam="1">  1       -1 0.15224932E-01 0.34845742E+03</pdfrwt>
<totfact> 0.26807623E+03</totfact>
</mgrwt>
</event>
<event>
 6    1  0.4705246E-006  0.3375971E+03  0.7546771E-02  0.1067824E+00
         -2   -1    0    0    0  501 -0.00000000000E+00  0.00000000000E+00  0.33734357066E+03  0.33734357066E+03  0.00000000000E+00 0.  1.
          2   -1    0    0  501    0  0.00000000000E+00 -0.00000000000E+00 -0.84462692223E+02  0.84462692223E+02  0.00000000000E+00 0. -1.
          5    1    1    2  502    0 -0.39129567691E+01 -0.29031548408E+02 -0.29624110992E+02  0.41926363850E+02  0.47000000000E+01 0.  1.
         -5    1    1    2    0  502  0.99066252659E+02 -0.27264642413E+02  0.86455869278E+02  0.13436588285E+03  0.47000000000E+01 0.  1.
        -11    1    1    2    0    0 -0.50742379374E+02 -0.50453926193E+01  0.14623014605E+03  0.15486607331E+03  0.00000000000E+00 0.  1.
         11    1    1    2    0    0 -0.44410916515E+02  0.61341583441E+02  0.49818974103E+02  0.90647942864E+02  0.00000000000E+00 0. -1.
<mgrwt>
<rscale>  0 0.33759707E+03</rscale>
<asrwt>0</asrwt>
<pdfrwt beam="2">  1        2 0.12994261E-01 0.33759707E+03</pdfrwt>
<pdfrwt beam="1">  1       -2 0.51899010E-01 0.33759707E+03</pdfrwt>
<totfact> 0.16586594E+03</totfact>
</mgrwt>
</event>
<event>
 6    1  0.4705246E-006  0.1547888E+03  0.7546771E-02  0.1198702E+00
         -1   -1    0    0    0  501 -0.00000000000E+00  0.00000000000E+00  0.47267020579E+03  0.47267020579E+03  0.00000000000E+00 0.  1.
          1   -1    0    0  501    0  0.00000000000E+00 -0.00000000000E+00 -0.57740149858E+02  0.57740149858E+02  0.00000000000E+00 0. -1.
          5    1    1    2  502    0  0.35514567456E+02  0.89011201007E+02  0.62583241406E+02  0.11455579650E+03  0.47000000000E+01 0. -1.
         -5    1    1    2    0  502 -0.55913675633E+02  0.17604183884E+02  0.35479181571E+02  0.68681210953E+02  0.47000000000E+01 0.  1.
        -11    1    1    2    0    0  0.21489830160E+02 -0.16135671572E+02  0.12496631762E+02  0.29636776187E+02  0.00000000000E+00 0. -1.
         11    1    1    2    0    0 -0.10907219830E+01 -0.90479713320E+02  0.30437100120E+03  0.31753657201E+03  0.00000000000E+00 0.  1.
<mgrwt>
<rscale>  0 0.15145008E+03</rscale>
<asrwt>0</asrwt>
<pdfrwt beam="2">  1        1 0.88831003E-02 0.15478877E+03</pdfrwt>
<pdfrwt beam="1">  1       -1 0.72718491E-01 0.15478877E+03</pdfrwt>
<totfact> 0.14697088E+03</totfact>
</mgrwt>
</event>
<event>
 6    1  0.4705246E-006  0.1681430E+03  0.7546771E-02  0.1186840E+00
         -2   -1    0    0    0  501 -0.00000000000E+00  0.00000000000E+00  0.30998015497E+03  0.30998015497E+03  0.00000000000E+00 0.  1.
          2   -1    0    0  501    0  0.00000000000E+00 -0.00000000000E+00 -0.96974018798E+02  0.96974018798E+02  0.00000000000E+00 0. -1.
          5    1    1    2  502    0  0.31181605466E+02 -0.86736214186E+02  0.63146493853E+02  0.11182590512E+03  0.47000000000E+01 0. -1.
         -5    1    1    2    0  502  0.42987017149E+02  0.26332944868E+01 -0.38692196027E+02  0.58086090561E+02  0.47000000000E+01 0. -1.
        -11    1    1    2    0    0 -0.36267923187E+02 -0.93913210294E+01  0.82835255826E+02  0.90913358593E+02  0.00000000000E+00 0.  1.
         11    1    1    2    0    0 -0.37900699428E+02  0.93494240728E+02  0.10571658252E+03  0.14612881949E+03  0.00000000000E+00 0. -1.
<mgrwt>
<rscale>  0 0.16165549E+03</rscale>
<asrwt>0</asrwt>
<pdfrwt beam="2">  1        2 0.14919080E-01 0.16814302E+03</pdfrwt>
<pdfrwt beam="1">  1       -2 0.47689254E-01 0.16814302E+03</pdfrwt>
<totfact> 0.16251891E+03</totfact>
</mgrwt>
</event>
<event>
 6    1  0.4705246E-006  0.1437160E+03  0.7546771E-02  0.1219422E+00
          2   -1    0    0  501    0  0.00000000000E+00  0.00000000000E+00  0.12115109057E+03  0.12115109057E+03  0.00000000000E+00 0.  1.
         -2   -1    0    0    0  501 -0.00000000000E+00 -0.00000000000E+00 -0.15169650845E+03  0.15169650845E+03  0.00000000000E+00 0. -1.
          5    1    1    2  502    0 -0.99284895191E+02 -0.10178352110E+02  0.72643567498E+01  0.10017958946E+03  0.47000000000E+01 0. -1.
         -5    1    1    2    0  502  0.35797685716E+02 -0.21407962835E+02  0.18309345828E+02  0.45794075163E+02  0.47000000000E+01 0. -1.
        -11    1    1    2    0    0  0.34135619370E+02  0.32065459242E+02  0.15612618188E+02  0.49367884630E+02  0.00000000000E+00 0.  1.
         11    1    1    2    0    0  0.29351590105E+02 -0.47914429628E+00 -0.71731738650E+02  0.77506049769E+02  0.00000000000E+00 0. -1.
<mgrwt>
<rscale>  0 0.13556661E+03</rscale>
<asrwt>0</asrwt>
<pdfrwt beam="1">  1        2 0.18638629E-01 0.14371603E+03</pdfrwt>
<pdfrwt beam="2">  1       -2 0.23337924E-01 0.14371603E+03</pdfrwt>
<totfact> 0.46388618E+03</totfact>
</mgrwt>
</event>
<event>
 6    1  0.4705246E-006  0.2715120E+03  0.7546771E-02  0.1102488E+00
          1   -1    0    0  501    0  0.00000000000E+00  0.00000000000E+00  0.21905623758E+04  0.21905623758E+04  0.00000000000E+00 0. -1.
         -1   -1    0    0    0  501 -0.00000000000E+00 -0.00000000000E+00 -0.37480281454E+02  0.37480281454E+02  0.00000000000E+00 0.  1.
          5    1    1    2  502    0  0.80640666373E+02  0.18354097417E+03  0.11711418098E+04  0.11881857746E+04  0.47000000000E+01 0. -1.
         -5    1    1    2    0  502  0.70208100681E+02  0.44374550550E+01  0.35888906924E+03  0.36574898828E+03  0.47000000000E+01 0. -1.
        -11    1    1    2    0    0 -0.79078364901E+02 -0.10498306142E+03  0.45340276959E+03  0.47206874759E+03  0.00000000000E+00 0. -1.
         11    1    1    2    0    0 -0.71770402153E+02 -0.82995367814E+02  0.16964844573E+03  0.20203914681E+03  0.00000000000E+00 0.  1.
<mgrwt>
<rscale>  0 0.26789985E+03</rscale>
<asrwt>0</asrwt>
<pdfrwt beam="1">  1        1 0.33700950E+00 0.27151198E+03</pdfrwt>
<pdfrwt beam="2">  1       -1 0.57661989E-02 0.27151198E+03</pdfrwt>
<totfact> 0.35972321E+02</totfact>
</mgrwt>
</event>
<event>
 6    1  0.4705246E-006  0.1425210E+03  0.7546771E-02  0.1220300E+00
         -1   -1    0    0    0  501 -0.00000000000E+00  0.00000000000E+00  0.49683163970E+02  0.49683163970E+02  0.00000000000E+00 0.  1.
          1   -1    0    0  501    0  0.00000000000E+00 -0.00000000000E+00 -0.34426879305E+03  0.34426879305E+03  0.00000000000E+00 0. -1.
          5    1    1    2  502    0  0.54782552750E+02 -0.62189753915E+01 -0.10123713553E+03  0.11537266293E+03  0.47000000000E+01 0. -1.
         -5    1    1    2    0  502 -0.42009890076E+02  0.73478075668E+02 -0.97721584646E+02  0.12936559270E+03  0.47000000000E+01 0. -1.
        -11    1    1    2    0    0  0.23907180732E+02 -0.48896715806E+02 -0.11515500417E+02  0.55633163284E+02  0.00000000000E+00 0.  1.
         11    1    1    2    0    0 -0.36679843406E+02 -0.18362384471E+02 -0.84111408487E+02  0.93580538112E+02  0.00000000000E+00 0. -1.
<mgrwt>
<rscale>  0 0.13494346E+03</rscale>
<asrwt>0</asrwt>
<pdfrwt beam="2">  1        1 0.52964429E-01 0.14252102E+03</pdfrwt>
<pdfrwt beam="1">  1       -1 0.76435637E-02 0.14252102E+03</pdfrwt>
<totfact> 0.65032433E+03</totfact>
</mgrwt>
</event>
<event>
 6    1  0.4705246E-006  0.1282122E+03  0.7546771E-02  0.1244145E+00
         -1   -1    0    0    0  501 -0.00000000000E+00  0.00000000000E+00  0.68353590537E+02  0.68353590537E+02  0.00000000000E+00 0.  1.
          1   -1    0    0  501    0  0.00000000000E+00 -0.00000000000E+00 -0.21981308162E+03  0.21981308162E+03  0.00000000000E+00 0. -1.
          5    1    1    2  502    0 -0.49390313602E+02  0.19362452924E+02 -0.14990459670E+03  0.15908420969E+03  0.47000000000E+01 0. -1.
         -5    1    1    2    0  502  0.30889503687E+02  0.24515753840E+01  0.78140330557E+01  0.32300476351E+02  0.47000000000E+01 0. -1.
        -11    1    1    2    0    0  0.16376155132E+02  0.32449280625E+02  0.12214904579E+02  0.38344988771E+02  0.00000000000E+00 0.  1.
         11    1    1    2    0    0  0.21246547823E+01 -0.54263308933E+02 -0.21583832021E+02  0.58436997348E+02  0.00000000000E+00 0. -1.
<mgrwt>
<rscale>  0 0.11936707E+03</rscale>
<asrwt>0</asrwt>
<pdfrwt beam="2">  1        1 0.33817397E-01 0.12821221E+03</pdfrwt>
<pdfrwt beam="1">  1       -1 0.10515937E-01 0.12821221E+03</pdfrwt>
<totfact> 0.69363650E+03</totfact>
</mgrwt>
</event>
<event>
 6    1  0.4705246E-006  0.1613516E+03  0.7546771E-02  0.1194432E+00
         -2   -1    0    0    0  501 -0.00000000000E+00  0.00000000000E+00  0.38352650048E+02  0.38352650048E+02  0.00000000000E+00 0.  1.
          2   -1    0    0  501    0  0.00000000000E+00 -0.00000000000E+00 -0.58758735547E+03  0.58758735547E+03  0.00000000000E+00 0. -1.
          5    1    1    2  502    0  0.23456768625E+02  0.33213712820E+02 -0.28885732708E+03  0.29174306525E+03  0.47000000000E+01 0. -1.
         -5    1    1    2    0  502  0.43054263373E+02  0.44151982877E+02 -0.37516863533E+02  0.72337211973E+02  0.47000000000E+01 0. -1.
        -11    1    1    2    0    0 -0.53584468497E+02  0.42598636972E+01 -0.72083898572E+02  0.89919575934E+02  0.00000000000E+00 0.  1.
         11    1    1    2    0    0 -0.12926563501E+02 -0.81625559395E+02 -0.15077661623E+03  0.17194015236E+03  0.00000000000E+00 0. -1.
<mgrwt>
<rscale>  0 0.15502378E+03</rscale>
<asrwt>0</asrwt>
<pdfrwt beam="2">  1        2 0.90398044E-01 0.16135159E+03</pdfrwt>
<pdfrwt beam="1">  1       -2 0.59004084E-02 0.16135159E+03</pdfrwt>
<totfact> 0.76099394E+03</totfact>
</mgrwt>
</event>
<event>
 6    1  0.4705246E-006  0.2572035E+03  0.7546771E-02  0.1108835E+00
          2   -1    0    0  501    0  0.00000000000E+00  0.00000000000E+00  0.31387099276E+03  0.31387099276E+03  0.00000000000E+00 0. -1.
         -2   -1    0    0    0  501 -0.00000000000E+00 -0.00000000000E+00 -0.52691723909E+02  0.52691723909E+02  0.00000000000E+00 0.  1.
          5    1    1    2  502    0  0.77054087274E+02 -0.39714026935E+02  0.30015427293E+02  0.91856149367E+02  0.47000000000E+01 0.  1.
         -5    1    1    2    0  502 -0.29160562843E+01  0.15640636722E+02  0.11045085568E+03  0.11168981342E+03  0.47000000000E+01 0.  1.
        -11    1    1    2    0    0 -0.33271754170E+02  0.21364664307E+02  0.44973265136E+01  0.39795533069E+02  0.00000000000E+00 0.  1.
         11    1    1    2    0    0 -0.40866276819E+02  0.27087259055E+01  0.11621565936E+03  0.12322122081E+03  0.00000000000E+00 0. -1.
<mgrwt>
<rscale>  0 0.25720345E+03</rscale>
<asrwt>0</asrwt>
<pdfrwt beam="1">  1        2 0.48287844E-01 0.25720345E+03</pdfrwt>
<pdfrwt beam="2">  1       -2 0.81064193E-02 0.25720345E+03</pdfrwt>
<totfact> 0.95257793E+03</totfact>
</mgrwt>
</event>
<event>
 6    1  0.4705246E-006  0.1376095E+03  0.7546771E-02  0.1232068E+00
         -2   -1    0    0    0  501 -0.00000000000E+00  0.00000000000E+00  0.36263554847E+02  0.36263554847E+02  0.00000000000E+00 0.  1.
          2   -1    0    0  501    0  0.00000000000E+00 -0.00000000000E+00 -0.38996622129E+03  0.38996622129E+03  0.00000000000E+00 0. -1.
          5    1    1    2  502    0 -0.29208530069E+02 -0.51105097253E+02 -0.18101546439E+03  0.19040366998E+03  0.47000000000E+01 0.  1.
         -5    1    1    2    0  502  0.56754211479E+02  0.57674740849E+00 -0.38729331630E+02  0.68872522000E+02  0.47000000000E+01 0.  1.
        -11    1    1    2    0    0  0.38187077264E+01  0.53846730255E+02 -0.12166517783E+03  0.13310322455E+03  0.00000000000E+00 0. -1.
         11    1    1    2    0    0 -0.31364389136E+02 -0.33183804106E+01 -0.12292692589E+02  0.33850359607E+02  0.00000000000E+00 0.  1.
<mgrwt>
<rscale>  0 0.12693994E+03</rscale>
<asrwt>0</asrwt>
<pdfrwt beam="2">  1        2 0.59994803E-01 0.13760948E+03</pdfrwt>
<pdfrwt beam="1">  1       -2 0.55790085E-02 0.13760948E+03</pdfrwt>
<totfact> 0.12853515E+04</totfact>
</mgrwt>
</event>
<event>
 6    1  0.4705246E-006  0.1604488E+03  0.7546771E-02  0.1195015E+00
         -2   -1    0    0    0  501 -0.00000000000E+00  0.00000000000E+00  0.18432325776E+02  0.18432325776E+02  0.00000000000E+00 0.  1.
          2   -1    0    0  501    0  0.00000000000E+00 -0.00000000000E+00 -0.12251976486E+04  0.12251976486E+04  0.00000000000E+00 0. -1.
          5    1    1    2  502    0  0.32346000153E+02  0.71607017742E+01 -0.10175840507E+03  0.10711863694E+03  0.47000000000E+01 0.  1.
         -5    1    1    2    0  502 -0.11758238549E+03  0.46298759684E+02 -0.47390880174E+03  0.49049040245E+03  0.47000000000E+01 0.  1.
        -11    1    1    2    0    0 -0.16699497949E+02 -0.73248757055E+01 -0.34515612761E+02  0.39036579770E+02  0.00000000000E+00 0. -1.
         11    1    1    2    0    0  0.10193588329E+03 -0.46134585752E+02 -0.59658250329E+03  0.60698435526E+03  0.00000000000E+00 0.  1.
<mgrwt>
<rscale>  0 0.15452997E+03</rscale>
<asrwt>0</asrwt>
<pdfrwt beam="2">  1        2 0.18849189E+00 0.16044884E+03</pdfrwt>
<pdfrwt beam="1">  1       -2 0.28357433E-02 0.16044884E+03</pdfrwt>
<totfact> 0.87184711E+03</totfact>
</mgrwt>
</event>
<event>
 6    1  0.4705246E-006  0.1268603E+03  0.7546771E-02  0.1246703E+00
          1   -1    0    0  501    0  0.00000000000E+00  0.00000000000E+00  0.17382847333E+03  0.17382847333E+03  0.00000000000E+00 0. -1.
         -1   -1    0    0    0  501 -0.00000000000E+00 -0.00000000000E+00 -0.11425841896E+03  0.11425841896E+03  0.00000000000E+00 0.  1.
          5    1    1    2  502    0  0.63503970696E+02  0.15044258150E+02  0.63011625615E+02  0.90838532354E+02  0.47000000000E+01 0. -1.
         -5    1    1    2    0  502 -0.58882875165E+02  0.16852335341E+02  0.58074067700E+02  0.84533316115E+02  0.47000000000E+01 0.  1.
        -11    1    1    2    0    0 -0.24544598761E+02 -0.50792203007E+02 -0.63798046780E+02  0.85161470088E+02  0.00000000000E+00 0. -1.
         11    1    1    2    0    0  0.19923503230E+02  0.18895609516E+02  0.22824078376E+01  0.27553573733E+02  0.00000000000E+00 0.  1.
<mgrwt>
<rscale>  0 0.11784008E+03</rscale>
<asrwt>0</asrwt>
<pdfrwt beam="1">  1        1 0.26742842E-01 0.12686032E+03</pdfrwt>
<pdfrwt beam="2">  1       -1 0.17578218E-01 0.12686032E+03</pdfrwt>
<totfact> 0.41743829E+03</totfact>
</mgrwt>
</event>
<event>
 6    1  0.4705246E-006  0.2727412E+03  0.7546771E-02  0.1099721E+00
         -1   -1    0    0    0  501 -0.00000000000E+00  0.00000000000E+00  0.12477079412E+03  0.12477079412E+03  0.00000000000E+00 0.  1.
          1   -1    0    0  501    0  0.00000000000E+00 -0.00000000000E+00 -0.14904888064E+03  0.14904888064E+03  0.00000000000E+00 0. -1.
          5    1    1    2  502    0 -0.17437136358E+02 -0.37548189231E+02  0.17456951399E+02  0.45174720708E+02  0.47000000000E+01 0. -1.
         -5    1    1    2    0  502  0.85823805323E+02  0.10923909959E+02 -0.61761640795E+02  0.10640323135E+03  0.47000000000E+01 0. -1.
        -11    1    1    2    0    0 -0.17085040334E+02  0.45899987829E+02  0.40688168646E+02  0.63672871411E+02  0.00000000000E+00 0.  1.
         11    1    1    2    0    0 -0.51301628630E+02 -0.19275708558E+02 -0.20661565771E+02  0.58568851283E+02  0.00000000000E+00 0. -1.
<mgrwt>
<rscale>  0 0.27274125E+03</rscale>
<asrwt>0</asrwt>
<pdfrwt beam="2">  1        1 0.22930597E-01 0.27274125E+03</pdfrwt>
<pdfrwt beam="1">  1       -1 0.19195507E-01 0.27274125E+03</pdfrwt>
<totfact> 0.45803541E+03</totfact>
</mgrwt>
</event>
<event>
 6    1  0.4705246E-006  0.3222956E+03  0.7546771E-02  0.1074598E+00
          1   -1    0    0  501    0  0.00000000000E+00  0.00000000000E+00  0.27897522031E+03  0.27897522031E+03  0.00000000000E+00 0. -1.
         -1   -1    0    0    0  501 -0.00000000000E+00 -0.00000000000E+00 -0.93085729493E+02  0.93085729493E+02  0.00000000000E+00 0.  1.
          5    1    1    2  502    0 -0.26597968079E+02  0.31311839171E+02  0.95821062412E+02  0.10436306425E+03  0.47000000000E+01 0. -1.
         -5    1    1    2    0  502  0.19126121347E+02 -0.80490660782E+02  0.12930335665E+03  0.15357735195E+03  0.47000000000E+01 0.  1.
        -11    1    1    2    0    0 -0.27681965075E+02  0.26482148396E+02 -0.56986881914E+02  0.68666586375E+02  0.00000000000E+00 0. -1.
         11    1    1    2    0    0  0.35153811806E+02  0.22696673215E+02  0.17751953669E+02  0.45453947228E+02  0.00000000000E+00 0.  1.
<mgrwt>
<rscale>  0 0.32229559E+03</rscale>
<asrwt>0</asrwt>
<pdfrwt beam="1">  1        1 0.42919264E-01 0.32229559E+03</pdfrwt>
<pdfrwt beam="2">  1       -1 0.14320882E-01 0.32229559E+03</pdfrwt>
<totfact> 0.33276764E+03</totfact>
</mgrwt>
</event>
<event>
 6    1  0.4705246E-006  0.1368059E+03  0.7546771E-02  0.1232560E+00
         -1   -1    0    0    0  501 -0.00000000000E+00  0.00000000000E+00  0.39306326394E+02  0.39306326394E+02  0.00000000000E+00 0.  1.
          1   -1    0    0  501    0  0.00000000000E+00 -0.00000000000E+00 -0.36063176400E+03  0.36063176400E+03  0.00000000000E+00 0. -1.
          5    1    1    2  502    0  0.66245852674E+02  0.29554946183E+02 -0.77354209683E+02  0.10614976023E+03  0.47000000000E+01 0. -1.
         -5    1    1    2    0  502 -0.53150427061E+02  0.24474076229E+02 -0.12516399641E+03  0.13824638983E+03  0.47000000000E+01 0. -1.
        -11    1    1    2    0    0 -0.29392345871E+02 -0.19931622611E+02 -0.11154089159E+03  0.11705789197E+03  0.00000000000E+00 0. -1.
         11    1    1    2    0    0  0.16296920258E+02 -0.34097399801E+02 -0.72663399270E+01  0.38484048371E+02  0.00000000000E+00 0.  1.
<mgrwt>
<rscale>  0 0.12661966E+03</rscale>
<asrwt>0</asrwt>
<pdfrwt beam="2">  1        1 0.55481807E-01 0.13680590E+03</pdfrwt>
<pdfrwt beam="1">  1       -1 0.60471274E-02 0.13680590E+03</pdfrwt>
<totfact> 0.86947711E+03</totfact>
</mgrwt>
</event>
<event>
 6    1  0.4705246E-006  0.1711036E+03  0.7546771E-02  0.1183160E+00
          2   -1    0    0  501    0  0.00000000000E+00  0.00000000000E+00  0.12019862749E+04  0.12019862749E+04  0.00000000000E+00 0. -1.
         -2   -1    0    0    0  501 -0.00000000000E+00 -0.00000000000E+00 -0.25520023901E+02  0.25520023901E+02  0.00000000000E+00 0.  1.
          5    1    1    2  502    0  0.44457795619E+02 -0.79377063800E+02  0.35296338246E+03  0.36453045580E+03  0.47000000000E+01 0. -1.
         -5    1    1    2    0  502 -0.62597862489E+02 -0.36031204346E+02  0.52330908077E+03  0.52829085180E+03  0.47000000000E+01 0. -1.
        -11    1    1    2    0    0  0.40271990518E+02  0.10594162783E+03  0.18463832954E+03  0.21664896598E+03  0.00000000000E+00 0.  1.
         11    1    1    2    0    0 -0.22131923648E+02  0.94666403173E+01  0.11555545827E+03  0.11803602526E+03  0.00000000000E+00 0. -1.
<mgrwt>
<rscale>  0 0.16500395E+03</rscale>
<asrwt>0</asrwt>
<pdfrwt beam="1">  1        2 0.18492092E+00 0.17110365E+03</pdfrwt>
<pdfrwt beam="2">  1       -2 0.39261585E-02 0.17110365E+03</pdfrwt>
<totfact> 0.55567490E+03</totfact>
</mgrwt>
</event>
<event>
 6    1  0.4705246E-006  0.1256560E+03  0.7546771E-02  0.1247765E+00
          3   -1    0    0  501    0  0.00000000000E+00  0.00000000000E+00  0.42676425496E+02  0.42676425496E+02  0.00000000000E+00 0. -1.
         -3   -1    0    0    0  501 -0.00000000000E+00 -0.00000000000E+00 -0.30644406481E+03  0.30644406481E+03  0.00000000000E+00 0.  1.
          5    1    1    2  502    0  0.52872010766E+02 -0.23092221077E+02 -0.49994043113E+02  0.76486564464E+02  0.47000000000E+01 0. -1.
         -5    1    1    2    0  502 -0.57842822092E+02  0.34910319213E+02 -0.53743280473E+02  0.86457808502E+02  0.47000000000E+01 0. -1.
        -11    1    1    2    0    0  0.40013335747E+02 -0.33862861906E+02 -0.10451503281E+03  0.11692370391E+03  0.00000000000E+00 0.  1.
         11    1    1    2    0    0 -0.35042524422E+02  0.22044763770E+02 -0.55515282923E+02  0.69252413427E+02  0.00000000000E+00 0. -1.
<mgrwt>
<rscale>  0 0.11721404E+03</rscale>
<asrwt>0</asrwt>
<pdfrwt beam="1">  1        3 0.65656038E-02 0.12565602E+03</pdfrwt>
<pdfrwt beam="2">  1       -3 0.47145242E-01 0.12565602E+03</pdfrwt>
<totfact> 0.15006616E+03</totfact>
</mgrwt>
</event>
<event>
 6    1  0.4705246E-006  0.2578026E+03  0.7546771E-02  0.1108471E+00
          2   -1    0    0  501    0  0.00000000000E+00  0.00000000000E+00  0.25358895275E+03  0.25358895275E+03  0.00000000000E+00 0. -1.
         -2   -1    0    0    0  501 -0.00000000000E+00 -0.00000000000E+00 -0.65521570025E+02  0.65521570025E+02  0.00000000000E+00 0.  1.
          5    1    1    2  502    0  0.42348073988E+02 -0.53028876351E+02  0.16929556568E+03  0.18245136244E+03  0.47000000000E+01 0.  1.
         -5    1    1    2    0  502 -0.25635033480E+02  0.25054720992E+02  0.81544289529E+01  0.37060473514E+02  0.47000000000E+01 0.  1.
        -11    1    1    2    0    0  0.27982087978E+02  0.39607899564E+02  0.20023110585E+02  0.52466254993E+02  0.00000000000E+00 0. -1.
         11    1    1    2    0    0 -0.44695128486E+02 -0.11633744204E+02 -0.94057224911E+01  0.47132431830E+02  0.00000000000E+00 0.  1.
<mgrwt>
<rscale>  0 0.25780261E+03</rscale>
<asrwt>0</asrwt>
<pdfrwt beam="1">  1        2 0.39013685E-01 0.25780261E+03</pdfrwt>
<pdfrwt beam="2">  1       -2 0.10080242E-01 0.25780261E+03</pdfrwt>
<totfact> 0.85001480E+03</totfact>
</mgrwt>
</event>
<event>
 6    1  0.4705246E-006  0.2522088E+03  0.7546771E-02  0.1114120E+00
         -1   -1    0    0    0  501 -0.00000000000E+00  0.00000000000E+00  0.29775785387E+03  0.29775785387E+03  0.00000000000E+00 0.  1.
          1   -1    0    0  501    0  0.00000000000E+00 -0.00000000000E+00 -0.31887070707E+03  0.31887070707E+03  0.00000000000E+00 0. -1.
          5    1    1    2  502    0 -0.13692577924E+03 -0.17705424327E+03 -0.19453354104E+03  0.29658432641E+03  0.47000000000E+01 0. -1.
         -5    1    1    2    0  502  0.21142164200E+02 -0.89040017766E+01 -0.26685509878E+01  0.23568697865E+02  0.47000000000E+01 0. -1.
        -11    1    1    2    0    0  0.64196640102E+02  0.36223366266E+02  0.89606847633E+02  0.11602899640E+03  0.00000000000E+00 0.  1.
         11    1    1    2    0    0  0.51586974940E+02  0.14973487878E+03  0.86482391193E+02  0.18044654026E+03  0.00000000000E+00 0. -1.
<mgrwt>
<rscale>  0 0.24871388E+03</rscale>
<asrwt>0</asrwt>
<pdfrwt beam="2">  1        1 0.49057032E-01 0.25220883E+03</pdfrwt>
<pdfrwt beam="1">  1       -1 0.45808901E-01 0.25220883E+03</pdfrwt>
<totfact> 0.39424434E+02</totfact>
</mgrwt>
</event>
<event>
 6    1  0.4705246E-006  0.1447227E+03  0.7546771E-02  0.1217048E+00
          2   -1    0    0  501    0  0.00000000000E+00  0.00000000000E+00  0.10234543945E+03  0.10234543945E+03  0.00000000000E+00 0. -1.
         -2   -1    0    0    0  501 -0.00000000000E+00 -0.00000000000E+00 -0.16814141741E+03  0.16814141741E+03  0.00000000000E+00 0.  1.
          5    1    1    2  502    0 -0.74126842576E+02  0.63537249185E+02 -0.53848390900E+02  0.11159529572E+03  0.47000000000E+01 0. -1.
         -5    1    1    2    0  502  0.57763001573E+01 -0.38043682480E+02  0.92298269936E+01  0.39849305219E+02  0.47000000000E+01 0. -1.
        -11    1    1    2    0    0  0.33510021028E+02  0.34233157772E+02 -0.63357939909E+01  0.48321557155E+02  0.00000000000E+00 0. -1.
         11    1    1    2    0    0  0.34840521391E+02 -0.59726724477E+02 -0.14841620059E+02  0.70720698763E+02  0.00000000000E+00 0.  1.
<mgrwt>
<rscale>  0 0.13727197E+03</rscale>
<asrwt>0</asrwt>
<pdfrwt beam="1">  1        2 0.15745452E-01 0.14472267E+03</pdfrwt>
<pdfrwt beam="2">  1       -2 0.25867910E-01 0.14472267E+03</pdfrwt>
<totfact> 0.47119461E+03</totfact>
</mgrwt>
</event>
<event>
 6    1  0.4705246E-006  0.3507541E+03  0.7546771E-02  0.1062306E+00
         -2   -1    0    0    0  501 -0.00000000000E+00  0.00000000000E+00  0.53944777155E+02  0.53944777155E+02  0.00000000000E+00 0.  1.
          2   -1    0    0  501    0  0.00000000000E+00 -0.00000000000E+00 -0.57015909027E+03  0.57015909027E+03  0.00000000000E+00 0. -1.
          5    1    1    2  502    0  0.11315448110E+02 -0.39451814399E+01 -0.99064960989E+02  0.99897749316E+02  0.47000000000E+01 0. -1.
         -5    1    1    2    0  502 -0.94087320536E+02  0.11374409733E+03 -0.14617950470E+03  0.20779961780E+03  0.47000000000E+01 0. -1.
        -11    1    1    2    0    0  0.26664687936E+02 -0.35466047681E+02 -0.18298000658E+03  0.18828310846E+03  0.00000000000E+00 0. -1.
         11    1    1    2    0    0  0.56107184490E+02 -0.74332868212E+02 -0.87989840842E+02  0.12812339185E+03  0.00000000000E+00 0.  1.
<mgrwt>
<rscale>  0 0.35075407E+03</rscale>
<asrwt>0</asrwt>
<pdfrwt beam="2">  1        2 0.87716782E-01 0.35075407E+03</pdfrwt>
<pdfrwt beam="1">  1       -2 0.82991966E-02 0.35075407E+03</pdfrwt>
<totfact> 0.47980582E+03</totfact>
</mgrwt>
</event>
<event>
 6    1  0.4705246E-006  0.1273801E+03  0.7546771E-02  0.1250176E+00
          3   -1    0    0  501    0  0.00000000000E+00  0.00000000000E+00  0.18688048258E+03  0.18688048258E+03  0.00000000000E+00 0. -1.
         -3   -1    0    0    0  501 -0.00000000000E+00 -0.00000000000E+00 -0.61881214923E+02  0.61881214923E+02  0.00000000000E+00 0.  1.
          5    1    1    2  502    0 -0.27319775990E+02 -0.61473040746E+02  0.75760593515E+02  0.10142515678E+03  0.47000000000E+01 0.  1.
         -5    1    1    2    0  502  0.58396666305E+01  0.49854910663E+02  0.80497705880E+01  0.51053918852E+02  0.47000000000E+01 0.  1.
        -11    1    1    2    0    0  0.24483214353E+02 -0.25868494581E+02  0.46208508684E+02  0.58342378009E+02  0.00000000000E+00 0. -1.
         11    1    1    2    0    0 -0.30031049934E+01  0.37486624664E+02 -0.50196051322E+01  0.37940243858E+02  0.00000000000E+00 0.  1.
<mgrwt>
<rscale>  0 0.11580853E+03</rscale>
<asrwt>0</asrwt>
<pdfrwt beam="1">  1        3 0.28750843E-01 0.12738011E+03</pdfrwt>
<pdfrwt beam="2">  1       -3 0.95201870E-02 0.12738011E+03</pdfrwt>
<totfact> 0.21081501E+03</totfact>
</mgrwt>
</event>
<event>
 6    1  0.4705246E-006  0.1264848E+03  0.7546771E-02  0.1248341E+00
         -2   -1    0    0    0  501 -0.00000000000E+00  0.00000000000E+00  0.21047146751E+02  0.21047146751E+02  0.00000000000E+00 0.  1.
          2   -1    0    0  501    0  0.00000000000E+00 -0.00000000000E+00 -0.57664732825E+03  0.57664732825E+03  0.00000000000E+00 0. -1.
          5    1    1    2  502    0 -0.33604880169E+02 -0.12617844945E+02 -0.21240923041E+02  0.41973381968E+02  0.47000000000E+01 0. -1.
         -5    1    1    2    0  502  0.15945965715E+02  0.20466900066E+02 -0.33535970391E+03  0.33639469203E+03  0.47000000000E+01 0. -1.
        -11    1    1    2    0    0  0.44115768187E+02  0.24365846738E+02 -0.10310934858E+03  0.11476686479E+03  0.00000000000E+00 0.  1.
         11    1    1    2    0    0 -0.26456853733E+02 -0.32214901859E+02 -0.95890205973E+02  0.10455953621E+03  0.00000000000E+00 0. -1.
<mgrwt>
<rscale>  0 0.11687637E+03</rscale>
<asrwt>0</asrwt>
<pdfrwt beam="2">  1        2 0.88714973E-01 0.12648475E+03</pdfrwt>
<pdfrwt beam="1">  1       -2 0.32380226E-02 0.12648475E+03</pdfrwt>
<totfact> 0.18736976E+04</totfact>
</mgrwt>
</event>
<event>
 6    1  0.4705246E-006  0.1341785E+03  0.7546771E-02  0.1234359E+00
          1   -1    0    0  501    0  0.00000000000E+00  0.00000000000E+00  0.94540752710E+03  0.94540752710E+03  0.00000000000E+00 0. -1.
         -1   -1    0    0    0  501 -0.00000000000E+00 -0.00000000000E+00 -0.14849480876E+02  0.14849480876E+02  0.00000000000E+00 0.  1.
          5    1    1    2  502    0  0.48897363271E+02  0.12901979504E+02  0.25569438698E+03  0.26068970586E+03  0.47000000000E+01 0. -1.
         -5    1    1    2    0  502 -0.76964789141E+02  0.26986811818E+02  0.29340689979E+03  0.30456783420E+03  0.47000000000E+01 0. -1.
        -11    1    1    2    0    0 -0.32928469285E+02 -0.13682355139E+02  0.15241585058E+03  0.15653141039E+03  0.00000000000E+00 0.  1.
         11    1    1    2    0    0  0.60995895155E+02 -0.26206436183E+02  0.22904090888E+03  0.23846805753E+03  0.00000000000E+00 0. -1.
<mgrwt>
<rscale>  0 0.12545557E+03</rscale>
<asrwt>0</asrwt>
<pdfrwt beam="1">  1        1 0.14544726E+00 0.13417848E+03</pdfrwt>
<pdfrwt beam="2">  1       -1 0.22845363E-02 0.13417848E+03</pdfrwt>
<totfact> 0.95636726E+03</totfact>
</mgrwt>
</event>
<event>
 6    1  0.4705246E-006  0.1435343E+03  0.7546771E-02  0.1216211E+00
          2   -1    0    0  501    0  0.00000000000E+00  0.00000000000E+00  0.16886035499E+03  0.16886035499E+03  0.00000000000E+00 0. -1.
         -2   -1    0    0    0  501 -0.00000000000E+00 -0.00000000000E+00 -0.10781800823E+03  0.10781800823E+03  0.00000000000E+00 0.  1.
          5    1    1    2  502    0 -0.95938724145E+02 -0.26534319397E+02  0.20370623512E+02  0.10171214873E+03  0.47000000000E+01 0. -1.
         -5    1    1    2    0  502  0.30968691594E+02 -0.21482904106E+02  0.36502136163E+02  0.52678942399E+02  0.47000000000E+01 0.  1.
        -11    1    1    2    0    0  0.86962213620E+02  0.42728610894E+02 -0.68348400263E+01  0.97133288963E+02  0.00000000000E+00 0.  1.
         11    1    1    2    0    0 -0.21992181068E+02  0.52886126093E+01  0.11004427112E+02  0.25153983135E+02  0.00000000000E+00 0. -1.
<mgrwt>
<rscale>  0 0.13787927E+03</rscale>
<asrwt>0</asrwt>
<pdfrwt beam="1">  1        2 0.25978516E-01 0.14353431E+03</pdfrwt>
<pdfrwt beam="2">  1       -2 0.16587386E-01 0.14353431E+03</pdfrwt>
<totfact> 0.56962247E+03</totfact>
</mgrwt>
</event>
<event>
 6    1  0.4705246E-006  0.1465752E+03  0.7546771E-02  0.1214049E+00
          1   -1    0    0  501    0  0.00000000000E+00  0.00000000000E+00  0.11791327509E+04  0.11791327509E+04  0.00000000000E+00 0. -1.
         -1   -1    0    0    0  501 -0.00000000000E+00 -0.00000000000E+00 -0.15103648649E+02  0.15103648649E+02  0.00000000000E+00 0.  1.
          5    1    1    2  502    0  0.67318298668E+01 -0.43872900470E+02  0.59114282612E+03  0.59282550536E+03  0.47000000000E+01 0. -1.
         -5    1    1    2    0  502  0.37596966198E+01 -0.31945201787E+02  0.26408773480E+02  0.41882508910E+02  0.47000000000E+01 0. -1.
        -11    1    1    2    0    0 -0.35024021418E+02  0.85649981459E+02  0.38945150188E+03  0.40029373429E+03  0.00000000000E+00 0.  1.
         11    1    1    2    0    0  0.24532494932E+02 -0.98318792020E+01  0.15702600076E+03  0.15923465098E+03  0.00000000000E+00 0. -1.
<mgrwt>
<rscale>  0 0.13946653E+03</rscale>
<asrwt>0</asrwt>
<pdfrwt beam="1">  1        1 0.18140497E+00 0.14657519E+03</pdfrwt>
<pdfrwt beam="2">  1       -1 0.23236392E-02 0.14657519E+03</pdfrwt>
<totfact> 0.63731318E+03</totfact>
</mgrwt>
</event>
<event>
 6    1  0.4705246E-006  0.1370414E+03  0.7546771E-02  0.1229453E+00
          2   -1    0    0  501    0  0.00000000000E+00  0.00000000000E+00  0.19555900949E+03  0.19555900949E+03  0.00000000000E+00 0. -1.
         -2   -1    0    0    0  501 -0.00000000000E+00 -0.00000000000E+00 -0.89988596455E+02  0.89988596455E+02  0.00000000000E+00 0.  1.
          5    1    1    2  502    0 -0.85606971795E+02  0.20813783063E+02  0.53731423098E+02  0.10330015979E+03  0.47000000000E+01 0. -1.
         -5    1    1    2    0  502  0.30532964847E+02 -0.31871456204E+02  0.60928181095E+02  0.75381595330E+02  0.47000000000E+01 0. -1.
        -11    1    1    2    0    0  0.61456544161E+02  0.20855845751E+02 -0.38330498373E+02  0.75373073625E+02  0.00000000000E+00 0.  1.
         11    1    1    2    0    0 -0.63825372127E+01 -0.97981726108E+01  0.29241307210E+02  0.31492777190E+02  0.00000000000E+00 0. -1.
<mgrwt>
<rscale>  0 0.12866323E+03</rscale>
<asrwt>0</asrwt>
<pdfrwt beam="1">  1        2 0.30086001E-01 0.13704140E+03</pdfrwt>
<pdfrwt beam="2">  1       -2 0.13844399E-01 0.13704140E+03</pdfrwt>
<totfact> 0.65047559E+03</totfact>
</mgrwt>
</event>
<event>
 6    1  0.4705246E-006  0.3591151E+03  0.7546771E-02  0.1058935E+00
          4   -1    0    0  501    0  0.00000000000E+00  0.00000000000E+00  0.32915010474E+03  0.32915010474E+03  0.00000000000E+00 0. -1.
         -4   -1    0    0    0  501 -0.00000000000E+00 -0.00000000000E+00 -0.97952002925E+02  0.97952002925E+02  0.00000000000E+00 0.  1.
          5    1    1    2  502    0  0.55281035329E+01 -0.36203719234E+02 -0.27115310120E+01  0.37023122714E+02  0.47000000000E+01 0.  1.
         -5    1    1    2    0  502 -0.13361702184E+03 -0.22801340484E+02  0.14905051195E+03  0.20152308742E+03  0.47000000000E+01 0.  1.
        -11    1    1    2    0    0  0.94164206368E+02 -0.46429947046E+01  0.62229685261E+02  0.11296454704E+03  0.00000000000E+00 0. -1.
         11    1    1    2    0    0  0.33924711936E+02  0.63648054423E+02  0.22629435617E+02  0.75591350484E+02  0.00000000000E+00 0.  1.
<mgrwt>
<rscale>  0 0.35911509E+03</rscale>
<asrwt>0</asrwt>
<pdfrwt beam="1">  1        4 0.50638477E-01 0.35911509E+03</pdfrwt>
<pdfrwt beam="2">  1       -4 0.15069539E-01 0.35911509E+03</pdfrwt>
<totfact> 0.27219900E+02</totfact>
</mgrwt>
</event>
<event>
 6    1  0.4705246E-006  0.1631737E+03  0.7546771E-02  0.1192587E+00
         -1   -1    0    0    0  501 -0.00000000000E+00  0.00000000000E+00  0.52174161230E+03  0.52174161230E+03  0.00000000000E+00 0.  1.
          1   -1    0    0  501    0  0.00000000000E+00 -0.00000000000E+00 -0.64058158403E+02  0.64058158403E+02  0.00000000000E+00 0. -1.
          5    1    1    2  502    0  0.78994925127E+02  0.83881968023E+02  0.83972163022E+02  0.14265271437E+03  0.47000000000E+01 0. -1.
         -5    1    1    2    0  502 -0.34699297907E+02  0.11193483270E+02 -0.75524577754E+01  0.37529521199E+02  0.47000000000E+01 0. -1.
        -11    1    1    2    0    0  0.59126326884E+01  0.14727505333E+02  0.26699467960E+02  0.31059945718E+02  0.00000000000E+00 0.  1.
         11    1    1    2    0    0 -0.50208259908E+02 -0.10980295662E+03  0.35456428069E+03  0.37455758941E+03  0.00000000000E+00 0. -1.
<mgrwt>
<rscale>  0 0.15660194E+03</rscale>
<asrwt>0</asrwt>
<pdfrwt beam="2">  1        1 0.98551016E-02 0.16317373E+03</pdfrwt>
<pdfrwt beam="1">  1       -1 0.80267938E-01 0.16317373E+03</pdfrwt>
<totfact> 0.10486437E+03</totfact>
</mgrwt>
</event>
<event>
 6    1  0.4705246E-006  0.2271930E+03  0.7546771E-02  0.1169541E+00
         -2   -1    0    0    0  501 -0.00000000000E+00  0.00000000000E+00  0.41953106434E+02  0.41953106434E+02  0.00000000000E+00 0.  1.
          2   -1    0    0  501    0  0.00000000000E+00 -0.00000000000E+00 -0.10245339157E+04  0.10245339157E+04  0.00000000000E+00 0. -1.
          5    1    1    2  502    0 -0.69998326864E+01  0.85285278968E+02 -0.93999975664E+03  0.94389841029E+03  0.47000000000E+01 0. -1.
         -5    1    1    2    0  502  0.21461836819E+02 -0.18190688747E+02 -0.61931850913E+01  0.29188304821E+02  0.47000000000E+01 0.  1.
        -11    1    1    2    0    0  0.19677760848E+02 -0.23710183305E+02 -0.13355100050E+02  0.33581926117E+02  0.00000000000E+00 0. -1.
         11    1    1    2    0    0 -0.34139764981E+02 -0.43384406916E+02 -0.23032767486E+02  0.59818380908E+02  0.00000000000E+00 0.  1.
<mgrwt>
<rscale>  0 0.17821606E+03</rscale>
<asrwt>0</asrwt>
<pdfrwt beam="2">  1        2 0.15762060E+00 0.22719303E+03</pdfrwt>
<pdfrwt beam="1">  1       -2 0.64543243E-02 0.22719303E+03</pdfrwt>
<totfact> 0.33368097E+03</totfact>
</mgrwt>
</event>
<event>
 6    1  0.4705246E-006  0.3279346E+03  0.7546771E-02  0.1072054E+00
         -1   -1    0    0    0  501 -0.00000000000E+00  0.00000000000E+00  0.70403815188E+02  0.70403815188E+02  0.00000000000E+00 0.  1.
          1   -1    0    0  501    0  0.00000000000E+00 -0.00000000000E+00 -0.38187245522E+03  0.38187245522E+03  0.00000000000E+00 0. -1.
          5    1    1    2  502    0 -0.10281243451E+02  0.13117149114E+03 -0.17929101210E+03  0.22243880299E+03  0.47000000000E+01 0. -1.
         -5    1    1    2    0  502 -0.16942894524E+02 -0.26554095415E+02 -0.63132498248E+02  0.70710564934E+02  0.47000000000E+01 0.  1.
        -11    1    1    2    0    0 -0.75441500415E+01 -0.54471067646E+02  0.13358080821E+02  0.56590191143E+02  0.00000000000E+00 0.  1.
         11    1    1    2    0    0  0.34768288017E+02 -0.50146328081E+02 -0.82403210503E+02  0.10253671134E+03  0.00000000000E+00 0. -1.
<mgrwt>
<rscale>  0 0.32793461E+03</rscale>
<asrwt>0</asrwt>
<pdfrwt beam="2">  1        1 0.58749608E-01 0.32793461E+03</pdfrwt>
<pdfrwt beam="1">  1       -1 0.10831356E-01 0.32793461E+03</pdfrwt>
<totfact> 0.34660698E+03</totfact>
</mgrwt>
</event>
<event>
 6    1  0.4705246E-006  0.1361865E+03  0.7546771E-02  0.1237699E+00
          1   -1    0    0  501    0  0.00000000000E+00  0.00000000000E+00  0.32768043548E+03  0.32768043548E+03  0.00000000000E+00 0. -1.
         -1   -1    0    0    0  501 -0.00000000000E+00 -0.00000000000E+00 -0.76509213181E+02  0.76509213181E+02  0.00000000000E+00 0.  1.
          5    1    1    2  502    0  0.33012595077E+02 -0.62692409518E+02  0.94831329014E+02  0.11847042081E+03  0.47000000000E+01 0. -1.
         -5    1    1    2    0  502 -0.22304912196E+02  0.49630250773E+02  0.18246564019E+03  0.19046383055E+03  0.47000000000E+01 0.  1.
        -11    1    1    2    0    0  0.22044262557E+02  0.22361373639E+02 -0.46103089774E+02  0.55780600834E+02  0.00000000000E+00 0.  1.
         11    1    1    2    0    0 -0.32751945437E+02 -0.92992148946E+01  0.19977342872E+02  0.39474796463E+02  0.00000000000E+00 0. -1.
<mgrwt>
<rscale>  0 0.12333249E+03</rscale>
<asrwt>0</asrwt>
<pdfrwt beam="1">  1        1 0.50412374E-01 0.13618650E+03</pdfrwt>
<pdfrwt beam="2">  1       -1 0.11770648E-01 0.13618650E+03</pdfrwt>
<totfact> 0.35740371E+03</totfact>
</mgrwt>
</event>
<event>
 6    1  0.4705246E-006  0.1311344E+03  0.7546771E-02  0.1238895E+00
         -2   -1    0    0    0  501 -0.00000000000E+00  0.00000000000E+00  0.23796389916E+02  0.23796389916E+02  0.00000000000E+00 0.  1.
          2   -1    0    0  501    0  0.00000000000E+00 -0.00000000000E+00 -0.66900111685E+03  0.66900111685E+03  0.00000000000E+00 0. -1.
          5    1    1    2  502    0  0.66127931810E+02 -0.28541465101E+02 -0.17742139276E+03  0.19154101181E+03  0.47000000000E+01 0.  1.
         -5    1    1    2    0  502 -0.42770062835E+02 -0.34455365553E+01 -0.31905570803E+03  0.32196239659E+03  0.47000000000E+01 0.  1.
        -11    1    1    2    0    0  0.15413695670E+02 -0.16259325853E+02 -0.94132210683E+02  0.96761669992E+02  0.00000000000E+00 0.  1.
         11    1    1    2    0    0 -0.38771564645E+02  0.48246327510E+02 -0.54595415462E+02  0.82532428370E+02  0.00000000000E+00 0. -1.
<mgrwt>
<rscale>  0 0.12258322E+03</rscale>
<asrwt>0</asrwt>
<pdfrwt beam="2">  1        2 0.10292324E+00 0.13113443E+03</pdfrwt>
<pdfrwt beam="1">  1       -2 0.36609833E-02 0.13113443E+03</pdfrwt>
<totfact> 0.13224251E+04</totfact>
</mgrwt>
</event>
<event>
 6    1  0.4705246E-006  0.1276579E+03  0.7546771E-02  0.1243441E+00
         -3   -1    0    0    0  501 -0.00000000000E+00  0.00000000000E+00  0.74702450820E+02  0.74702450820E+02  0.00000000000E+00 0.  1.
          3   -1    0    0  501    0  0.00000000000E+00 -0.00000000000E+00 -0.17241700137E+03  0.17241700137E+03  0.00000000000E+00 0. -1.
          5    1    1    2  502    0  0.32006340946E+02  0.22896106484E+02  0.21790181901E+02  0.45227641771E+02  0.47000000000E+01 0.  1.
         -5    1    1    2    0  502 -0.18123576808E+02 -0.44736062981E+02 -0.83504059758E+02  0.96564990361E+02  0.47000000000E+01 0.  1.
        -11    1    1    2    0    0  0.47044484413E+01 -0.26707180063E+02  0.16256017571E+02  0.31617454188E+02  0.00000000000E+00 0.  1.
         11    1    1    2    0    0 -0.18587212579E+02  0.48547136560E+02 -0.52256690263E+02  0.73709365869E+02  0.00000000000E+00 0. -1.
<mgrwt>
<rscale>  0 0.11979159E+03</rscale>
<asrwt>0</asrwt>
<pdfrwt beam="2">  1        3 0.26525692E-01 0.12765793E+03</pdfrwt>
<pdfrwt beam="1">  1       -3 0.11492685E-01 0.12765793E+03</pdfrwt>
<totfact> 0.17887214E+03</totfact>
</mgrwt>
</event>
<event>
 6    1  0.4705246E-006  0.2442734E+03  0.7546771E-02  0.1116978E+00
          1   -1    0    0  501    0  0.00000000000E+00  0.00000000000E+00  0.14785836579E+04  0.14785836579E+04  0.00000000000E+00 0. -1.
         -1   -1    0    0    0  501 -0.00000000000E+00 -0.00000000000E+00 -0.10088961155E+02  0.10088961155E+02  0.00000000000E+00 0.  1.
          5    1    1    2  502    0 -0.18087691114E+02 -0.36638825751E+02  0.98727182079E+03  0.98812818310E+03  0.47000000000E+01 0. -1.
         -5    1    1    2    0  502 -0.69562640231E+01 -0.34786228043E+01  0.10023767262E+01  0.91424933621E+01  0.47000000000E+01 0. -1.
        -11    1    1    2    0    0 -0.31336353752E+02  0.32698617474E+02  0.26245410667E+03  0.26633310865E+03  0.00000000000E+00 0.  1.
         11    1    1    2    0    0  0.56380308890E+02  0.74188310813E+01  0.21776639255E+03  0.22506883394E+03  0.00000000000E+00 0. -1.
<mgrwt>
<rscale>  0 0.24427340E+03</rscale>
<asrwt>0</asrwt>
<pdfrwt beam="1">  1        1 0.22747424E+00 0.24427340E+03</pdfrwt>
<pdfrwt beam="2">  1       -1 0.15521490E-02 0.24427340E+03</pdfrwt>
<totfact> 0.73240174E+03</totfact>
</mgrwt>
</event>
<event>
 6    1  0.4705246E-006  0.2255648E+03  0.7546771E-02  0.1133159E+00
         -2   -1    0    0    0  501 -0.00000000000E+00  0.00000000000E+00  0.32649160037E+02  0.32649160037E+02  0.00000000000E+00 0. -1.
          2   -1    0    0  501    0  0.00000000000E+00 -0.00000000000E+00 -0.17508787005E+04  0.17508787005E+04  0.00000000000E+00 0.  1.
          5    1    1    2  502    0  0.14643713376E+02 -0.16858022257E+02 -0.46526993198E+02  0.51821639803E+02  0.47000000000E+01 0. -1.
         -5    1    1    2    0  502  0.12469422872E+03  0.14271022109E+03 -0.12184479911E+04  0.12331068303E+04  0.47000000000E+01 0. -1.
        -11    1    1    2    0    0 -0.71454706347E+02 -0.44815143366E+02 -0.30545133049E+03  0.31688276607E+03  0.00000000000E+00 0.  1.
         11    1    1    2    0    0 -0.67883235748E+02 -0.81037055467E+02 -0.14780322566E+03  0.18171662436E+03  0.00000000000E+00 0. -1.
<mgrwt>
<rscale>  0 0.22097376E+03</rscale>
<asrwt>0</asrwt>
<pdfrwt beam="2">  1        2 0.26936601E+00 0.22556476E+03</pdfrwt>
<pdfrwt beam="1">  1       -2 0.50229466E-02 0.22556476E+03</pdfrwt>
<totfact> 0.19569179E+03</totfact>
</mgrwt>
</event>
<event>
 6    1  0.4705246E-006  0.2938018E+03  0.7546771E-02  0.1088381E+00
          2   -1    0    0  501    0  0.00000000000E+00  0.00000000000E+00  0.35199193673E+03  0.35199193673E+03  0.00000000000E+00 0. -1.
         -2   -1    0    0    0  501 -0.00000000000E+00 -0.00000000000E+00 -0.61307849628E+02  0.61307849628E+02  0.00000000000E+00 0.  1.
          5    1    1    2  502    0 -0.27299165812E+01 -0.73507783577E+01  0.24873470475E+03  0.24890265112E+03  0.47000000000E+01 0. -1.
         -5    1    1    2    0  502  0.10393432289E+02  0.53342640510E+02  0.14383673244E+02  0.56413126020E+02  0.47000000000E+01 0.  1.
        -11    1    1    2    0    0 -0.66378318106E+01 -0.72470128046E+02  0.34582613731E+02  0.80572560109E+02  0.00000000000E+00 0. -1.
         11    1    1    2    0    0 -0.10256838971E+01  0.26478265893E+02 -0.70169046168E+01  0.27411449115E+02  0.00000000000E+00 0.  1.
<mgrwt>
<rscale>  0 0.29380176E+03</rscale>
<asrwt>0</asrwt>
<pdfrwt beam="1">  1        2 0.54152604E-01 0.29380176E+03</pdfrwt>
<pdfrwt beam="2">  1       -2 0.94319771E-02 0.29380176E+03</pdfrwt>
<totfact> 0.66681267E+03</totfact>
</mgrwt>
</event>
<event>
 6    1  0.4705246E-006  0.1384197E+03  0.7546771E-02  0.1228711E+00
         -2   -1    0    0    0  501 -0.00000000000E+00  0.00000000000E+00  0.27775572865E+02  0.27775572865E+02  0.00000000000E+00 0.  1.
          2   -1    0    0  501    0  0.00000000000E+00 -0.00000000000E+00 -0.53307475142E+03  0.53307475142E+03  0.00000000000E+00 0. -1.
          5    1    1    2  502    0 -0.37615583689E+02  0.30597512944E+02 -0.96330944955E+02  0.10794851037E+03  0.47000000000E+01 0. -1.
         -5    1    1    2    0  502  0.19671872206E+02 -0.87282282316E+02 -0.19428239828E+03  0.21394606714E+03  0.47000000000E+01 0. -1.
        -11    1    1    2    0    0 -0.82809237364E+01  0.77658961012E+01  0.49720192846E+01  0.12393700656E+02  0.00000000000E+00 0.  1.
         11    1    1    2    0    0  0.26224635219E+02  0.48918873271E+02 -0.21965785461E+03  0.22656204613E+03  0.00000000000E+00 0. -1.
<mgrwt>
<rscale>  0 0.12915790E+03</rscale>
<asrwt>0</asrwt>
<pdfrwt beam="2">  1        2 0.82011497E-01 0.13841967E+03</pdfrwt>
<pdfrwt beam="1">  1       -2 0.42731652E-02 0.13841967E+03</pdfrwt>
<totfact> 0.13663779E+04</totfact>
</mgrwt>
</event>
<event>
 6    1  0.4705246E-006  0.4296208E+03  0.7546771E-02  0.1033980E+00
         -2   -1    0    0    0  501 -0.00000000000E+00  0.00000000000E+00  0.23546428791E+03  0.23546428791E+03  0.00000000000E+00 0.  1.
          2   -1    0    0  501    0  0.00000000000E+00 -0.00000000000E+00 -0.19596818700E+03  0.19596818700E+03  0.00000000000E+00 0. -1.
          5    1    1    2  502    0 -0.12591820810E+03  0.45414194381E+02 -0.12909256849E+03  0.18602372274E+03  0.47000000000E+01 0. -1.
         -5    1    1    2    0  502  0.10668865166E+02  0.99341081280E+00  0.24107459990E+02  0.26796850116E+02  0.47000000000E+01 0.  1.
        -11    1    1    2    0    0  0.10509821352E+03 -0.75399088232E+02  0.13377650295E+03  0.18608280343E+03  0.00000000000E+00 0.  1.
         11    1    1    2    0    0  0.10151129409E+02  0.28991483039E+02  0.10704706460E+02  0.32529098627E+02  0.00000000000E+00 0. -1.
<mgrwt>
<rscale>  0 0.42962081E+03</rscale>
<asrwt>0</asrwt>
<pdfrwt beam="2">  1        2 0.30148952E-01 0.42962081E+03</pdfrwt>
<pdfrwt beam="1">  1       -2 0.36225275E-01 0.42962081E+03</pdfrwt>
<totfact> 0.12648655E+03</totfact>
</mgrwt>
</event>
<event>
 6    1  0.4705246E-006  0.1385098E+03  0.7546771E-02  0.1227556E+00
          2   -1    0    0  501    0  0.00000000000E+00  0.00000000000E+00  0.45077567733E+02  0.45077567733E+02  0.00000000000E+00 0. -1.
         -2   -1    0    0    0  501 -0.00000000000E+00 -0.00000000000E+00 -0.33528920734E+03  0.33528920734E+03  0.00000000000E+00 0.  1.
          5    1    1    2  502    0 -0.16838585074E+02 -0.28129640115E+02 -0.17067167863E+03  0.17385547586E+03  0.47000000000E+01 0. -1.
         -5    1    1    2    0  502  0.11922474441E+02 -0.31317250458E+02  0.12787884404E+02  0.36173686024E+02  0.47000000000E+01 0. -1.
        -11    1    1    2    0    0  0.29851664495E+02 -0.15251668654E+01 -0.10211326884E+02  0.31586693462E+02  0.00000000000E+00 0. -1.
         11    1    1    2    0    0 -0.24935553862E+02  0.60972057438E+02 -0.12211651849E+03  0.13875091972E+03  0.00000000000E+00 0.  1.
<mgrwt>
<rscale>  0 0.12993243E+03</rscale>
<asrwt>0</asrwt>
<pdfrwt beam="1">  1        2 0.69350102E-02 0.13850977E+03</pdfrwt>
<pdfrwt beam="2">  1       -2 0.51582957E-01 0.13850977E+03</pdfrwt>
<totfact> 0.35273959E+03</totfact>
</mgrwt>
</event>
<event>
 6    1  0.4705246E-006  0.1233007E+03  0.7546771E-02  0.1251978E+00
         -2   -1    0    0    0  501 -0.00000000000E+00  0.00000000000E+00  0.13890134891E+03  0.13890134891E+03  0.00000000000E+00 0.  1.
          2   -1    0    0  501    0  0.00000000000E+00 -0.00000000000E+00 -0.25460707548E+03  0.25460707548E+03  0.00000000000E+00 0. -1.
          5    1    1    2  502    0  0.60009629354E+02  0.18146415359E+01 -0.13965404548E+03  0.15208481501E+03  0.47000000000E+01 0. -1.
         -5    1    1    2    0  502 -0.59383034305E+02 -0.58553485943E+01 -0.81493978129E+02  0.10111373963E+03  0.47000000000E+01 0.  1.
        -11    1    1    2    0    0 -0.19189250133E+02  0.43242293269E+02  0.68987532886E+02  0.83650480821E+02  0.00000000000E+00 0.  1.
         11    1    1    2    0    0  0.18562655084E+02 -0.39201586211E+02  0.36454764141E+02  0.56659388929E+02  0.00000000000E+00 0. -1.
<mgrwt>
<rscale>  0 0.11477281E+03</rscale>
<asrwt>0</asrwt>
<pdfrwt beam="2">  1        2 0.39170319E-01 0.12330069E+03</pdfrwt>
<pdfrwt beam="1">  1       -2 0.21369439E-01 0.12330069E+03</pdfrwt>
<totfact> 0.23717084E+03</totfact>
</mgrwt>
</event>
<event>
 6    1  0.4705246E-006  0.1265879E+03  0.7546771E-02  0.1247358E+00
         -1   -1    0    0    0  501 -0.00000000000E+00  0.00000000000E+00  0.13327104380E+02  0.13327104380E+02  0.00000000000E+00 0.  1.
          1   -1    0    0  501    0  0.00000000000E+00 -0.00000000000E+00 -0.11261820993E+04  0.11261820993E+04  0.00000000000E+00 0. -1.
          5    1    1    2  502    0  0.24577300088E+01  0.52339974007E+02 -0.43340286289E+03  0.43658406393E+03  0.47000000000E+01 0.  1.
         -5    1    1    2    0  502 -0.26466235444E+01 -0.72308076984E+02 -0.43661342930E+03  0.44259331135E+03  0.47000000000E+01 0.  1.
        -11    1    1    2    0    0  0.17775136308E+02 -0.32961191718E+02 -0.11222088727E+03  0.11830436666E+03  0.00000000000E+00 0. -1.
         11    1    1    2    0    0 -0.17586242772E+02  0.52929294695E+02 -0.13061781544E+03  0.14202746172E+03  0.00000000000E+00 0.  1.
<mgrwt>
<rscale>  0 0.11745381E+03</rscale>
<asrwt>0</asrwt>
<pdfrwt beam="2">  1        1 0.17325883E+00 0.12658795E+03</pdfrwt>
<pdfrwt beam="1">  1       -1 0.20503232E-02 0.12658795E+03</pdfrwt>
<totfact> 0.82541435E+03</totfact>
</mgrwt>
</event>
<event>
 6    1  0.4705246E-006  0.1292038E+03  0.7546771E-02  0.1242638E+00
          2   -1    0    0  501    0  0.00000000000E+00  0.00000000000E+00  0.18316224863E+02  0.18316224863E+02  0.00000000000E+00 0.  1.
         -2   -1    0    0    0  501 -0.00000000000E+00 -0.00000000000E+00 -0.73366563416E+03  0.73366563416E+03  0.00000000000E+00 0. -1.
          5    1    1    2  502    0  0.87581967086E+01  0.57944781054E+02 -0.17240011284E+03  0.18214881984E+03  0.47000000000E+01 0.  1.
         -5    1    1    2    0  502 -0.40961269838E+02 -0.53043923814E+02 -0.31508891662E+03  0.32217169158E+03  0.47000000000E+01 0.  1.
        -11    1    1    2    0    0  0.61929630075E+02 -0.29315559033E+01 -0.18758309258E+03  0.19756338153E+03  0.00000000000E+00 0. -1.
         11    1    1    2    0    0 -0.29726556946E+02 -0.19693013366E+01 -0.40277287265E+02  0.50097966077E+02  0.00000000000E+00 0.  1.
<mgrwt>
<rscale>  0 0.12027866E+03</rscale>
<asrwt>0</asrwt>
<pdfrwt beam="1">  1        2 0.28178808E-02 0.12920381E+03</pdfrwt>
<pdfrwt beam="2">  1       -2 0.11287163E+00 0.12920381E+03</pdfrwt>
<totfact> 0.20969678E+03</totfact>
</mgrwt>
</event>
<event>
 6    1  0.4705246E-006  0.1323201E+03  0.7546771E-02  0.1237953E+00
         -1   -1    0    0    0  501 -0.00000000000E+00  0.00000000000E+00  0.24803317458E+03  0.24803317458E+03  0.00000000000E+00 0.  1.
          1   -1    0    0  501    0  0.00000000000E+00 -0.00000000000E+00 -0.54770881156E+02  0.54770881156E+02  0.00000000000E+00 0. -1.
          5    1    1    2  502    0 -0.34802859049E+02 -0.22798815671E+02  0.10553140952E+02  0.43179668572E+02  0.47000000000E+01 0. -1.
         -5    1    1    2    0  502  0.69032824145E+02  0.49523804740E+02  0.83047617735E+02  0.11889968401E+03  0.47000000000E+01 0. -1.
        -11    1    1    2    0    0 -0.91014413308E+01 -0.21029507828E+02  0.11044223938E+03  0.11279434681E+03  0.00000000000E+00 0.  1.
         11    1    1    2    0    0 -0.25128523765E+02 -0.56954812413E+01 -0.10780704639E+02  0.27930356347E+02  0.00000000000E+00 0. -1.
<mgrwt>
<rscale>  0 0.12317276E+03</rscale>
<asrwt>0</asrwt>
<pdfrwt beam="2">  1        1 0.84262895E-02 0.13232012E+03</pdfrwt>
<pdfrwt beam="1">  1       -1 0.38158949E-01 0.13232012E+03</pdfrwt>
<totfact> 0.51747413E+03</totfact>
</mgrwt>
</event>
<event>
 6    1  0.4705246E-006  0.1253234E+03  0.7546771E-02  0.1249842E+00
         -1   -1    0    0    0  501 -0.00000000000E+00  0.00000000000E+00  0.28013445254E+02  0.28013445254E+02  0.00000000000E+00 0.  1.
          1   -1    0    0  501    0  0.00000000000E+00 -0.00000000000E+00 -0.54811365301E+03  0.54811365301E+03  0.00000000000E+00 0. -1.
          5    1    1    2  502    0  0.26726518643E+02  0.15134717610E+02 -0.41877118003E+03  0.41992232341E+03  0.47000000000E+01 0. -1.
         -5    1    1    2    0  502 -0.17703629618E+02 -0.15980659848E+02 -0.91507817018E+01  0.25973578817E+02  0.47000000000E+01 0. -1.
        -11    1    1    2    0    0 -0.19725476436E+02  0.81453661593E+01 -0.10782545703E+03  0.10991710784E+03  0.00000000000E+00 0. -1.
         11    1    1    2    0    0  0.10702587411E+02 -0.72994239222E+01  0.15647211011E+02  0.20314088198E+02  0.00000000000E+00 0.  1.
<mgrwt>
<rscale>  0 0.11600235E+03</rscale>
<asrwt>0</asrwt>
<pdfrwt beam="2">  1        1 0.84325174E-01 0.12532338E+03</pdfrwt>
<pdfrwt beam="1">  1       -1 0.43097610E-02 0.12532338E+03</pdfrwt>
<totfact> 0.83460589E+03</totfact>
</mgrwt>
</event>
<event>
 6    1  0.4705246E-006  0.1251567E+03  0.7546771E-02  0.1248772E+00
         -3   -1    0    0    0  501 -0.00000000000E+00  0.00000000000E+00  0.33320915385E+02  0.33320915385E+02  0.00000000000E+00 0.  1.
          3   -1    0    0  501    0  0.00000000000E+00 -0.00000000000E+00 -0.36662683950E+03  0.36662683950E+03  0.00000000000E+00 0. -1.
          5    1    1    2  502    0  0.27189887016E+02  0.21466445379E+02 -0.20450934993E+03  0.20747593219E+03  0.47000000000E+01 0. -1.
         -5    1    1    2    0  502 -0.26224648100E+02 -0.28019060739E+02 -0.85092880788E+01  0.39589113608E+02  0.47000000000E+01 0. -1.
        -11    1    1    2    0    0  0.83517989996E+01  0.38145521670E+02 -0.13797132992E+02  0.41414903704E+02  0.00000000000E+00 0.  1.
         11    1    1    2    0    0 -0.93170379155E+01 -0.31592906310E+02 -0.10649015312E+03  0.11146780538E+03  0.00000000000E+00 0. -1.
<mgrwt>
<rscale>  0 0.11662435E+03</rscale>
<asrwt>0</asrwt>
<pdfrwt beam="2">  1        3 0.56404130E-01 0.12515669E+03</pdfrwt>
<pdfrwt beam="1">  1       -3 0.51262946E-02 0.12515669E+03</pdfrwt>
<totfact> 0.15538214E+03</totfact>
</mgrwt>
</event>
<event>
 6    1  0.4705246E-006  0.3847673E+03  0.7546771E-02  0.1050050E+00
          1   -1    0    0  501    0  0.00000000000E+00  0.00000000000E+00  0.40061668691E+03  0.40061668691E+03  0.00000000000E+00 0. -1.
         -1   -1    0    0    0  501 -0.00000000000E+00 -0.00000000000E+00 -0.37580141666E+03  0.37580141666E+03  0.00000000000E+00 0.  1.
          5    1    1    2  502    0  0.19695437734E+03  0.27153901314E+03  0.63775932548E+02  0.34148780649E+03  0.47000000000E+01 0. -1.
         -5    1    1    2    0  502  0.46372709273E+02 -0.95384478181E+00  0.26883554755E+02  0.53815922379E+02  0.47000000000E+01 0. -1.
        -11    1    1    2    0    0 -0.10046891615E+03 -0.67313020166E+02 -0.53828386500E+02  0.13237273507E+03  0.00000000000E+00 0. -1.
         11    1    1    2    0    0 -0.14285817046E+03 -0.20327214819E+03 -0.12015830558E+02  0.24874163962E+03  0.00000000000E+00 0.  1.
<mgrwt>
<rscale>  0 0.38239958E+03</rscale>
<asrwt>0</asrwt>
<pdfrwt beam="1">  1        1 0.61633337E-01 0.38476733E+03</pdfrwt>
<pdfrwt beam="2">  1       -1 0.57815602E-01 0.38476733E+03</pdfrwt>
<totfact> 0.18836035E+02</totfact>
</mgrwt>
</event>
<event>
 6    1  0.4705246E-006  0.1298223E+03  0.7546771E-02  0.1240890E+00
          2   -1    0    0  501    0  0.00000000000E+00  0.00000000000E+00  0.21361845606E+03  0.21361845606E+03  0.00000000000E+00 0. -1.
         -2   -1    0    0    0  501 -0.00000000000E+00 -0.00000000000E+00 -0.61336199978E+02  0.61336199978E+02  0.00000000000E+00 0.  1.
          5    1    1    2  502    0  0.14347195305E+02 -0.10487593932E+02  0.10102158865E+03  0.10268048993E+03  0.47000000000E+01 0. -1.
         -5    1    1    2    0  502 -0.48161497171E+02  0.19680382155E+02 -0.13417325764E+02  0.53934792873E+02  0.47000000000E+01 0. -1.
        -11    1    1    2    0    0  0.24552005484E+01  0.13907592880E+02  0.76376717933E+02  0.77671437425E+02  0.00000000000E+00 0. -1.
         11    1    1    2    0    0  0.31359101317E+02 -0.23100381104E+02 -0.11698724734E+02  0.40667935809E+02  0.00000000000E+00 0.  1.
<mgrwt>
<rscale>  0 0.12134764E+03</rscale>
<asrwt>0</asrwt>
<pdfrwt beam="1">  1        2 0.32864377E-01 0.12982234E+03</pdfrwt>
<pdfrwt beam="2">  1       -2 0.94363386E-02 0.12982234E+03</pdfrwt>
<totfact> 0.10833342E+04</totfact>
</mgrwt>
</event>
<event>
 6    1  0.4705246E-006  0.5456516E+03  0.7546771E-02  0.1059905E+00
         -3   -1    0    0    0  501 -0.00000000000E+00  0.00000000000E+00  0.40949387261E+03  0.40949387261E+03  0.00000000000E+00 0.  1.
          3   -1    0    0  501    0  0.00000000000E+00 -0.00000000000E+00 -0.25433244644E+03  0.25433244644E+03  0.00000000000E+00 0. -1.
          5    1    1    2  502    0 -0.26679373651E+03 -0.54064449148E+02 -0.31074860124E+02  0.27402481536E+03  0.47000000000E+01 0. -1.
         -5    1    1    2    0  502  0.22676072271E+03  0.60616731511E+02  0.16757502858E+03  0.28844114427E+03  0.47000000000E+01 0.  1.
        -11    1    1    2    0    0  0.36316595191E+02  0.95234935151E+01  0.52014505252E+02  0.64149051213E+02  0.00000000000E+00 0. -1.
         11    1    1    2    0    0  0.37164186134E+01 -0.16075775878E+02 -0.33353247542E+02  0.37211308213E+02  0.00000000000E+00 0.  1.
<mgrwt>
<rscale>  0 0.35668234E+03</rscale>
<asrwt>0</asrwt>
<pdfrwt beam="2">  1        3 0.39128069E-01 0.54565159E+03</pdfrwt>
<pdfrwt beam="1">  1       -3 0.62999057E-01 0.54565159E+03</pdfrwt>
<totfact> 0.41555184E+01</totfact>
</mgrwt>
</event>
<event>
 6    1  0.4705246E-006  0.2435083E+03  0.7546771E-02  0.1120502E+00
          4   -1    0    0  501    0  0.00000000000E+00  0.00000000000E+00  0.28647587590E+03  0.28647587590E+03  0.00000000000E+00 0. -1.
         -4   -1    0    0    0  501 -0.00000000000E+00 -0.00000000000E+00 -0.20616931761E+03  0.20616931761E+03  0.00000000000E+00 0.  1.
          5    1    1    2  502    0 -0.14590018814E+03 -0.26729414635E+02  0.37538587529E+02  0.15307698083E+03  0.47000000000E+01 0. -1.
         -5    1    1    2    0  502 -0.31715957714E+02 -0.83388804609E+02  0.68207924466E+02  0.11240109282E+03  0.47000000000E+01 0. -1.
        -11    1    1    2    0    0  0.10696575396E+03  0.11060927768E+03 -0.64409477368E+01  0.15400509939E+03  0.00000000000E+00 0. -1.
         11    1    1    2    0    0  0.70650391890E+02 -0.49105843728E+00 -0.18999005972E+02  0.73162020479E+02  0.00000000000E+00 0.  1.
<mgrwt>
<rscale>  0 0.23893872E+03</rscale>
<asrwt>0</asrwt>
<pdfrwt beam="1">  1        4 0.44073212E-01 0.24350828E+03</pdfrwt>
<pdfrwt beam="2">  1       -4 0.31718357E-01 0.24350828E+03</pdfrwt>
<totfact> 0.87263178E+01</totfact>
</mgrwt>
</event>
<event>
 6    1  0.4705246E-006  0.1331298E+03  0.7546771E-02  0.1232211E+00
         -1   -1    0    0    0  501 -0.00000000000E+00  0.00000000000E+00  0.67288125864E+02  0.67288125864E+02  0.00000000000E+00 0.  1.
          1   -1    0    0  501    0  0.00000000000E+00 -0.00000000000E+00 -0.22731288418E+03  0.22731288418E+03  0.00000000000E+00 0. -1.
          5    1    1    2  502    0 -0.32801656852E+01  0.66327555619E+02 -0.12048362068E+03  0.13765353963E+03  0.47000000000E+01 0. -1.
         -5    1    1    2    0  502  0.32405408349E+02 -0.19483197195E+02  0.51978981321E+01  0.38455345639E+02  0.47000000000E+01 0.  1.
        -11    1    1    2    0    0 -0.71302511014E+01 -0.63552552773E+02  0.22446335158E+01  0.63990669823E+02  0.00000000000E+00 0.  1.
         11    1    1    2    0    0 -0.21994991562E+02  0.16708194350E+02 -0.46983669284E+02  0.54501454950E+02  0.00000000000E+00 0. -1.
<mgrwt>
<rscale>  0 0.12684675E+03</rscale>
<asrwt>0</asrwt>
<pdfrwt beam="2">  1        1 0.34971213E-01 0.13312979E+03</pdfrwt>
<pdfrwt beam="1">  1       -1 0.10352019E-01 0.13312979E+03</pdfrwt>
<totfact> 0.68339964E+03</totfact>
</mgrwt>
</event>
<event>
 6    1  0.4705246E-006  0.1382182E+03  0.7546771E-02  0.1227277E+00
         -2   -1    0    0    0  501 -0.00000000000E+00  0.00000000000E+00  0.28607258933E+02  0.28607258933E+02  0.00000000000E+00 0.  1.
          2   -1    0    0  501    0  0.00000000000E+00 -0.00000000000E+00 -0.54542687528E+03  0.54542687528E+03  0.00000000000E+00 0. -1.
          5    1    1    2  502    0 -0.27163164877E+02 -0.42608460361E+02 -0.23443262939E+03  0.23986259846E+03  0.47000000000E+01 0.  1.
         -5    1    1    2    0  502  0.36120241491E+02 -0.15695168107E+02 -0.99376430496E+01  0.40888346709E+02  0.47000000000E+01 0.  1.
        -11    1    1    2    0    0 -0.48759639815E+02  0.36309296848E+02 -0.18473967300E+03  0.19448551178E+03  0.00000000000E+00 0.  1.
         11    1    1    2    0    0  0.39802563200E+02  0.21994331619E+02 -0.87709670912E+02  0.98797677262E+02  0.00000000000E+00 0. -1.
<mgrwt>
<rscale>  0 0.13012071E+03</rscale>
<asrwt>0</asrwt>
<pdfrwt beam="2">  1        2 0.83911819E-01 0.13821817E+03</pdfrwt>
<pdfrwt beam="1">  1       -2 0.44011172E-02 0.13821817E+03</pdfrwt>
<totfact> 0.12744739E+04</totfact>
</mgrwt>
</event>
<event>
 6    1  0.4705246E-006  0.3639411E+03  0.7546771E-02  0.1057034E+00
          2   -1    0    0  501    0  0.00000000000E+00  0.00000000000E+00  0.25174254023E+03  0.25174254023E+03  0.00000000000E+00 0.  1.
         -2   -1    0    0    0  501 -0.00000000000E+00 -0.00000000000E+00 -0.13153625938E+03  0.13153625938E+03  0.00000000000E+00 0. -1.
          5    1    1    2  502    0 -0.45572123995E+02 -0.64822383300E+02  0.22653425783E+02  0.82547123280E+02  0.47000000000E+01 0. -1.
         -5    1    1    2    0  502  0.87148322949E+01 -0.29310555371E+02  0.15083111806E+03  0.15397133867E+03  0.47000000000E+01 0. -1.
        -11    1    1    2    0    0 -0.13593367742E+02  0.66923776253E+02 -0.57515329932E+02  0.89283731170E+02  0.00000000000E+00 0. -1.
         11    1    1    2    0    0  0.50450659442E+02  0.27209162418E+02  0.42370669367E+01  0.57476606492E+02  0.00000000000E+00 0.  1.
<mgrwt>
<rscale>  0 0.36394105E+03</rscale>
<asrwt>0</asrwt>
<pdfrwt beam="1">  1        2 0.38729622E-01 0.36394105E+03</pdfrwt>
<pdfrwt beam="2">  1       -2 0.20236348E-01 0.36394105E+03</pdfrwt>
<totfact> 0.27394489E+03</totfact>
</mgrwt>
</event>
<event>
 6    1  0.4705246E-006  0.2317779E+03  0.7546771E-02  0.1128265E+00
         -2   -1    0    0    0  501 -0.00000000000E+00  0.00000000000E+00  0.45008510886E+02  0.45008510886E+02  0.00000000000E+00 0.  1.
          2   -1    0    0  501    0  0.00000000000E+00 -0.00000000000E+00 -0.12539641742E+04  0.12539641742E+04  0.00000000000E+00 0. -1.
          5    1    1    2  502    0 -0.16077783387E+03 -0.10188007768E+03 -0.81910855585E+03  0.84094588314E+03  0.47000000000E+01 0.  1.
         -5    1    1    2    0  502  0.85421999406E+01 -0.20269777914E+02 -0.21812263248E+02  0.31332058734E+02  0.47000000000E+01 0.  1.
        -11    1    1    2    0    0  0.77622370907E+02  0.91685747987E+02 -0.13806642959E+03  0.18301324495E+03  0.00000000000E+00 0.  1.
         11    1    1    2    0    0  0.74613263022E+02  0.30464107607E+02 -0.22996841465E+03  0.24368149829E+03  0.00000000000E+00 0. -1.
<mgrwt>
<rscale>  0 0.22770579E+03</rscale>
<asrwt>0</asrwt>
<pdfrwt beam="2">  1        2 0.19291754E+00 0.23177788E+03</pdfrwt>
<pdfrwt beam="1">  1       -2 0.69243872E-02 0.23177788E+03</pdfrwt>
<totfact> 0.22056458E+03</totfact>
</mgrwt>
</event>
<event>
 6    1  0.4705246E-006  0.1358608E+03  0.7546771E-02  0.1231269E+00
          1   -1    0    0  501    0  0.00000000000E+00  0.00000000000E+00  0.28543024597E+03  0.28543024597E+03  0.00000000000E+00 0. -1.
         -1   -1    0    0    0  501 -0.00000000000E+00 -0.00000000000E+00 -0.51618413284E+02  0.51618413284E+02  0.00000000000E+00 0.  1.
          5    1    1    2  502    0 -0.50078764149E+02  0.75486384089E+02  0.13386974980E+03  0.16170737990E+03  0.47000000000E+01 0. -1.
         -5    1    1    2    0  502  0.19536168651E+02 -0.31893275911E+02  0.17096682936E+02  0.41391176611E+02  0.47000000000E+01 0. -1.
        -11    1    1    2    0    0  0.40627778607E+01  0.12688873518E+02 -0.13695312617E+02  0.19106942790E+02  0.00000000000E+00 0.  1.
         11    1    1    2    0    0  0.26479817637E+02 -0.56281981697E+02  0.96540712567E+02  0.11484315996E+03  0.00000000000E+00 0. -1.
<mgrwt>
<rscale>  0 0.12746312E+03</rscale>
<asrwt>0</asrwt>
<pdfrwt beam="1">  1        1 0.43912345E-01 0.13586081E+03</pdfrwt>
<pdfrwt beam="2">  1       -1 0.79412945E-02 0.13586081E+03</pdfrwt>
<totfact> 0.77233279E+03</totfact>
</mgrwt>
</event>
<event>
 6    1  0.4705246E-006  0.2382965E+03  0.7546771E-02  0.1124131E+00
         -1   -1    0    0    0  501 -0.00000000000E+00  0.00000000000E+00  0.13558361689E+03  0.13558361689E+03  0.00000000000E+00 0.  1.
          1   -1    0    0  501    0  0.00000000000E+00 -0.00000000000E+00 -0.38896632895E+03  0.38896632895E+03  0.00000000000E+00 0. -1.
          5    1    1    2  502    0  0.30598376042E+02 -0.99308355098E+02 -0.14664057711E+03  0.17978865054E+03  0.47000000000E+01 0. -1.
         -5    1    1    2    0  502  0.29053529878E+01 -0.10078107129E+03 -0.17773599645E+01  0.10094807782E+03  0.47000000000E+01 0. -1.
        -11    1    1    2    0    0  0.11382073473E+01  0.11622816509E+03 -0.99345775189E+02  0.15290475769E+03  0.00000000000E+00 0.  1.
         11    1    1    2    0    0 -0.34641936377E+02  0.83861261299E+02 -0.56189997927E+01  0.90908459790E+02  0.00000000000E+00 0. -1.
<mgrwt>
<rscale>  0 0.23360091E+03</rscale>
<asrwt>0</asrwt>
<pdfrwt beam="2">  1        1 0.59840974E-01 0.23829651E+03</pdfrwt>
<pdfrwt beam="1">  1       -1 0.20859018E-01 0.23829651E+03</pdfrwt>
<totfact> 0.11814885E+03</totfact>
</mgrwt>
</event>
<event>
 6    1  0.4705246E-006  0.2629354E+03  0.7546771E-02  0.1107477E+00
         -2   -1    0    0    0  501 -0.00000000000E+00  0.00000000000E+00  0.65837229654E+02  0.65837229654E+02  0.00000000000E+00 0.  1.
          2   -1    0    0  501    0  0.00000000000E+00 -0.00000000000E+00 -0.15159082946E+04  0.15159082946E+04  0.00000000000E+00 0. -1.
          5    1    1    2  502    0 -0.13655827241E+03 -0.29613718420E+02 -0.85853534093E+03  0.86984490325E+03  0.47000000000E+01 0.  1.
         -5    1    1    2    0  502 -0.93030830373E+02  0.57872430865E+02 -0.34221280206E+03  0.35935448453E+03  0.47000000000E+01 0.  1.
        -11    1    1    2    0    0  0.27844942676E+02 -0.12747449426E+02  0.10390504873E+01  0.30641767661E+02  0.00000000000E+00 0.  1.
         11    1    1    2    0    0  0.20174416011E+03 -0.15511263019E+02 -0.25036197243E+03  0.32190436881E+03  0.00000000000E+00 0. -1.
<mgrwt>
<rscale>  0 0.25944586E+03</rscale>
<asrwt>0</asrwt>
<pdfrwt beam="2">  1        2 0.23321665E+00 0.26293541E+03</pdfrwt>
<pdfrwt beam="1">  1       -2 0.10128805E-01 0.26293541E+03</pdfrwt>
<totfact> 0.87222926E+02</totfact>
</mgrwt>
</event>
<event>
 6    1  0.4705246E-006  0.1265427E+03  0.7546771E-02  0.1259226E+00
         -3   -1    0    0    0  501 -0.00000000000E+00  0.00000000000E+00  0.70166715268E+02  0.70166715268E+02  0.00000000000E+00 0.  1.
          3   -1    0    0  501    0  0.00000000000E+00 -0.00000000000E+00 -0.15324363074E+03  0.15324363074E+03  0.00000000000E+00 0. -1.
          5    1    1    2  502    0 -0.17895120348E+02 -0.51785293183E+02 -0.75398448921E+02  0.93321851793E+02  0.47000000000E+01 0.  1.
         -5    1    1    2    0  502  0.43400871964E+01  0.55304564899E+02 -0.34592150819E+01  0.55780708354E+02  0.47000000000E+01 0.  1.
        -11    1    1    2    0    0  0.39521920331E+02 -0.39665433807E+01 -0.19421960421E+02  0.44214569992E+02  0.00000000000E+00 0.  1.
         11    1    1    2    0    0 -0.25966887179E+02  0.44727166518E+00  0.15202708953E+02  0.30093215867E+02  0.00000000000E+00 0. -1.
<mgrwt>
<rscale>  0 0.11072890E+03</rscale>
<asrwt>0</asrwt>
<pdfrwt beam="2">  1        3 0.23575943E-01 0.12654265E+03</pdfrwt>
<pdfrwt beam="1">  1       -3 0.10794879E-01 0.12654265E+03</pdfrwt>
<totfact> 0.24516816E+03</totfact>
</mgrwt>
</event>
<event>
 6    1  0.4705246E-006  0.2000918E+03  0.7546771E-02  0.1154264E+00
         -2   -1    0    0    0  501 -0.00000000000E+00  0.00000000000E+00  0.10571466500E+03  0.10571466500E+03  0.00000000000E+00 0.  1.
          2   -1    0    0  501    0  0.00000000000E+00 -0.00000000000E+00 -0.77844258733E+03  0.77844258733E+03  0.00000000000E+00 0. -1.
          5    1    1    2  502    0 -0.36995507628E+02  0.77615610165E+01 -0.42776135149E+03  0.42945404090E+03  0.47000000000E+01 0. -1.
         -5    1    1    2    0  502 -0.10649259117E+03  0.54075428995E+02 -0.24788044064E+03  0.27519379871E+03  0.47000000000E+01 0. -1.
        -11    1    1    2    0    0  0.52181440614E+02 -0.89938848476E+01  0.41398728599E+02  0.67213446860E+02  0.00000000000E+00 0.  1.
         11    1    1    2    0    0  0.91306658189E+02 -0.52843105164E+02 -0.38484858795E+02  0.11229596586E+03  0.00000000000E+00 0. -1.
<mgrwt>
<rscale>  0 0.19472851E+03</rscale>
<asrwt>0</asrwt>
<pdfrwt beam="2">  1        2 0.11976040E+00 0.20009185E+03</pdfrwt>
<pdfrwt beam="1">  1       -2 0.16263795E-01 0.20009185E+03</pdfrwt>
<totfact> 0.10998874E+03</totfact>
</mgrwt>
</event>
<event>
 6    1  0.4705246E-006  0.1340058E+03  0.7546771E-02  0.1233690E+00
         -2   -1    0    0    0  501 -0.00000000000E+00  0.00000000000E+00  0.54776376436E+02  0.54776376436E+02  0.00000000000E+00 0.  1.
          2   -1    0    0  501    0  0.00000000000E+00 -0.00000000000E+00 -0.29277647053E+03  0.29277647053E+03  0.00000000000E+00 0. -1.
          5    1    1    2  502    0  0.41391909307E+02  0.40770646940E+02 -0.10375594675E+03  0.11900807659E+03  0.47000000000E+01 0.  1.
         -5    1    1    2    0  502 -0.57381023590E+01 -0.73441979516E+02 -0.86686441348E+02  0.11385639766E+03  0.47000000000E+01 0.  1.
        -11    1    1    2    0    0  0.10413294395E+02 -0.26937694327E+02 -0.15938581163E+02  0.32986579776E+02  0.00000000000E+00 0. -1.
         11    1    1    2    0    0 -0.46067101343E+02  0.59609026902E+02 -0.31619124831E+02  0.81701792939E+02  0.00000000000E+00 0.  1.
<mgrwt>
<rscale>  0 0.12588664E+03</rscale>
<asrwt>0</asrwt>
<pdfrwt beam="2">  1        2 0.45042533E-01 0.13400582E+03</pdfrwt>
<pdfrwt beam="1">  1       -2 0.84271350E-02 0.13400582E+03</pdfrwt>
<totfact> 0.92569606E+03</totfact>
</mgrwt>
</event>
<event>
 6    1  0.4705246E-006  0.1297216E+03  0.7546771E-02  0.1242020E+00
         -2   -1    0    0    0  501 -0.00000000000E+00  0.00000000000E+00  0.11668218139E+03  0.11668218139E+03  0.00000000000E+00 0.  1.
          2   -1    0    0  501    0  0.00000000000E+00 -0.00000000000E+00 -0.11021996393E+03  0.11021996393E+03  0.00000000000E+00 0. -1.
          5    1    1    2  502    0 -0.12222912030E+02 -0.26795625268E+02 -0.56555459935E+02  0.63937588010E+02  0.47000000000E+01 0.  1.
         -5    1    1    2    0  502 -0.20027776570E+02  0.14065296573E+02  0.60961830823E+02  0.65858782400E+02  0.47000000000E+01 0.  1.
        -11    1    1    2    0    0 -0.88186253736E+00 -0.12255716572E+02  0.39404452680E+02  0.41275793890E+02  0.00000000000E+00 0.  1.
         11    1    1    2    0    0  0.33132551137E+02  0.24986045266E+02 -0.37348606103E+02  0.55829981020E+02  0.00000000000E+00 0. -1.
<mgrwt>
<rscale>  0 0.12065520E+03</rscale>
<asrwt>0</asrwt>
<pdfrwt beam="2">  1        2 0.16956918E-01 0.12972155E+03</pdfrwt>
<pdfrwt beam="1">  1       -2 0.17951105E-01 0.12972155E+03</pdfrwt>
<totfact> 0.80164059E+03</totfact>
</mgrwt>
</event>
<event>
 6    1  0.4705246E-006  0.1323728E+03  0.7546771E-02  0.1237221E+00
         -2   -1    0    0    0  501 -0.00000000000E+00  0.00000000000E+00  0.38852228349E+02  0.38852228349E+02  0.00000000000E+00 0.  1.
          2   -1    0    0  501    0  0.00000000000E+00 -0.00000000000E+00 -0.37638770558E+03  0.37638770558E+03  0.00000000000E+00 0. -1.
          5    1    1    2  502    0 -0.25590981823E+02 -0.40604575297E+02 -0.21846476599E+02  0.52943256657E+02  0.47000000000E+01 0. -1.
         -5    1    1    2    0  502  0.32281100844E+02 -0.23827999276E+01 -0.22308509480E+03  0.22547016816E+03  0.47000000000E+01 0. -1.
        -11    1    1    2    0    0 -0.27189658992E+02  0.60761600519E+01  0.69286868654E+01  0.28708952938E+02  0.00000000000E+00 0. -1.
         11    1    1    2    0    0  0.20499539971E+02  0.36911215172E+02 -0.99532592702E+02  0.10811755618E+03  0.00000000000E+00 0.  1.
<mgrwt>
<rscale>  0 0.12363345E+03</rscale>
<asrwt>0</asrwt>
<pdfrwt beam="2">  1        2 0.57905798E-01 0.13237281E+03</pdfrwt>
<pdfrwt beam="1">  1       -2 0.59772662E-02 0.13237281E+03</pdfrwt>
<totfact> 0.11990356E+04</totfact>
</mgrwt>
</event>
<event>
 6    1  0.4705246E-006  0.1514030E+03  0.7546771E-02  0.1203097E+00
         -2   -1    0    0    0  501 -0.00000000000E+00  0.00000000000E+00  0.19748817897E+02  0.19748817897E+02  0.00000000000E+00 0.  1.
          2   -1    0    0  501    0  0.00000000000E+00 -0.00000000000E+00 -0.10775388556E+04  0.10775388556E+04  0.00000000000E+00 0. -1.
          5    1    1    2  502    0  0.20069505369E+02 -0.35149547406E+02 -0.37939206352E+03  0.38157398181E+03  0.47000000000E+01 0. -1.
         -5    1    1    2    0  502  0.82934546081E+02  0.34181078662E+02 -0.24608093881E+03  0.26196259946E+03  0.47000000000E+01 0.  1.
        -11    1    1    2    0    0 -0.93957039622E+02  0.35266240815E+02 -0.28263555979E+03  0.29992414490E+03  0.00000000000E+00 0. -1.
         11    1    1    2    0    0 -0.90470118282E+01 -0.34297772070E+02 -0.14968147562E+03  0.15382694737E+03  0.00000000000E+00 0.  1.
<mgrwt>
<rscale>  0 0.14788434E+03</rscale>
<asrwt>0</asrwt>
<pdfrwt beam="2">  1        2 0.16577527E+00 0.15140296E+03</pdfrwt>
<pdfrwt beam="1">  1       -2 0.30382786E-02 0.15140296E+03</pdfrwt>
<totfact> 0.95211346E+03</totfact>
</mgrwt>
</event>
<event>
 6    1  0.4705246E-006  0.1516495E+03  0.7546771E-02  0.1206942E+00
          1   -1    0    0  501    0  0.00000000000E+00  0.00000000000E+00  0.10684872479E+03  0.10684872479E+03  0.00000000000E+00 0. -1.
         -1   -1    0    0    0  501 -0.00000000000E+00 -0.00000000000E+00 -0.19881245923E+03  0.19881245923E+03  0.00000000000E+00 0.  1.
          5    1    1    2  502    0  0.50937220946E+02 -0.40958272097E+02 -0.34917869887E+01  0.65623647469E+02  0.47000000000E+01 0. -1.
         -5    1    1    2    0  502 -0.75328013399E+02 -0.41379550841E+02 -0.33928706023E+00  0.86074281560E+02  0.47000000000E+01 0. -1.
        -11    1    1    2    0    0  0.16481964838E+02  0.36552575812E+02 -0.98507785228E+02  0.10635567551E+03  0.00000000000E+00 0.  1.
         11    1    1    2    0    0  0.79088276148E+01  0.45785247126E+02  0.10375124831E+02  0.47607579479E+02  0.00000000000E+00 0. -1.
<mgrwt>
<rscale>  0 0.14485475E+03</rscale>
<asrwt>0</asrwt>
<pdfrwt beam="1">  1        1 0.16438266E-01 0.15164955E+03</pdfrwt>
<pdfrwt beam="2">  1       -1 0.30586532E-01 0.15164955E+03</pdfrwt>
<totfact> 0.31641165E+03</totfact>
</mgrwt>
</event>
<event>
 6    1  0.4705246E-006  0.3242821E+03  0.7546771E-02  0.1073695E+00
          1   -1    0    0  501    0  0.00000000000E+00  0.00000000000E+00  0.11771043507E+04  0.11771043507E+04  0.00000000000E+00 0. -1.
         -1   -1    0    0    0  501 -0.00000000000E+00 -0.00000000000E+00 -0.22334232046E+02  0.22334232046E+02  0.00000000000E+00 0.  1.
          5    1    1    2  502    0  0.15614437770E+02 -0.11183803774E+03  0.48668886452E+03  0.49963956829E+03  0.47000000000E+01 0. -1.
         -5    1    1    2    0  502  0.14859453200E+02  0.21043180149E+02  0.40511713594E+03  0.40596256307E+03  0.47000000000E+01 0. -1.
        -11    1    1    2    0    0  0.25801939359E+02  0.49539987625E+02  0.15988114497E+03  0.16935740600E+03  0.00000000000E+00 0. -1.
         11    1    1    2    0    0 -0.56275830328E+02  0.41254869966E+02  0.10308297327E+03  0.12447904544E+03  0.00000000000E+00 0.  1.
<mgrwt>
<rscale>  0 0.32428211E+03</rscale>
<asrwt>0</asrwt>
<pdfrwt beam="1">  1        1 0.18109293E+00 0.32428211E+03</pdfrwt>
<pdfrwt beam="2">  1       -1 0.34360366E-02 0.32428211E+03</pdfrwt>
<totfact> 0.36732532E+03</totfact>
</mgrwt>
</event>
<event>
 6    1  0.4705246E-006  0.1462847E+03  0.7546771E-02  0.1214470E+00
         -1   -1    0    0    0  501 -0.00000000000E+00  0.00000000000E+00  0.20347969580E+02  0.20347969580E+02  0.00000000000E+00 0.  1.
          1   -1    0    0  501    0  0.00000000000E+00 -0.00000000000E+00 -0.90266199919E+03  0.90266199919E+03  0.00000000000E+00 0. -1.
          5    1    1    2  502    0 -0.40732665403E+02 -0.59609875767E+02 -0.15168885644E+03  0.16805977058E+03  0.47000000000E+01 0.  1.
         -5    1    1    2    0  502  0.38048236871E+02 -0.16339579303E+02 -0.41945652773E+03  0.42152167066E+03  0.47000000000E+01 0.  1.
        -11    1    1    2    0    0 -0.44625512713E+02  0.34910857658E+02 -0.13269203958E+03  0.14428229876E+03  0.00000000000E+00 0.  1.
         11    1    1    2    0    0  0.47309941244E+02  0.41038597412E+02 -0.17847660586E+03  0.18914622877E+03  0.00000000000E+00 0. -1.
<mgrwt>
<rscale>  0 0.13915560E+03</rscale>
<asrwt>0</asrwt>
<pdfrwt beam="2">  1        1 0.13887105E+00 0.14628474E+03</pdfrwt>
<pdfrwt beam="1">  1       -1 0.31304574E-02 0.14628474E+03</pdfrwt>
<totfact> 0.65501932E+03</totfact>
</mgrwt>
</event>
<event>
 6    1  0.4705246E-006  0.1319499E+03  0.7546771E-02  0.1243376E+00
          1   -1    0    0  501    0  0.00000000000E+00  0.00000000000E+00  0.34840915574E+03  0.34840915574E+03  0.00000000000E+00 0. -1.
         -1   -1    0    0    0  501 -0.00000000000E+00 -0.00000000000E+00 -0.38561274371E+02  0.38561274371E+02  0.00000000000E+00 0.  1.
          5    1    1    2  502    0 -0.52012792034E+01  0.22997423868E+02  0.19472908619E+03  0.19620764975E+03  0.47000000000E+01 0.  1.
         -5    1    1    2    0  502 -0.14605811692E+02 -0.60270677829E+02  0.42755928332E+02  0.75472138890E+02  0.47000000000E+01 0.  1.
        -11    1    1    2    0    0  0.23170480942E+02 -0.11481705231E+02  0.59316796901E+02  0.64708447182E+02  0.00000000000E+00 0. -1.
         11    1    1    2    0    0 -0.33633900468E+01  0.48754959192E+02  0.13046069942E+02  0.50582194292E+02  0.00000000000E+00 0.  1.
<mgrwt>
<rscale>  0 0.11983086E+03</rscale>
<asrwt>0</asrwt>
<pdfrwt beam="1">  1        1 0.53601406E-01 0.13194990E+03</pdfrwt>
<pdfrwt beam="2">  1       -1 0.59325040E-02 0.13194990E+03</pdfrwt>
<totfact> 0.93157585E+03</totfact>
</mgrwt>
</event>
<event>
 6    1  0.4705246E-006  0.2292909E+03  0.7546771E-02  0.1171879E+00
          2   -1    0    0  501    0  0.00000000000E+00  0.00000000000E+00  0.10318011565E+03  0.10318011565E+03  0.00000000000E+00 0. -1.
         -2   -1    0    0    0  501 -0.00000000000E+00 -0.00000000000E+00 -0.33067504159E+03  0.33067504159E+03  0.00000000000E+00 0.  1.
          5    1    1    2  502    0 -0.35551576493E+02 -0.12180973731E+02  0.85395485639E+02  0.93417180859E+02  0.47000000000E+01 0. -1.
         -5    1    1    2    0  502  0.41095328273E+02 -0.35982963674E+02 -0.12874977766E+03  0.13993639601E+03  0.47000000000E+01 0.  1.
        -11    1    1    2    0    0 -0.15705747551E+02  0.22326210664E+02 -0.16386234517E+03  0.16612043328E+03  0.00000000000E+00 0. -1.
         11    1    1    2    0    0  0.10161995771E+02  0.25837726741E+02 -0.20278288747E+02  0.34381147096E+02  0.00000000000E+00 0.  1.
<mgrwt>
<rscale>  0 0.17585237E+03</rscale>
<asrwt>0</asrwt>
<pdfrwt beam="1">  1        2 0.15873864E-01 0.22929086E+03</pdfrwt>
<pdfrwt beam="2">  1       -2 0.50873083E-01 0.22929086E+03</pdfrwt>
<totfact> 0.13428937E+03</totfact>
</mgrwt>
</event>
<event>
 6    1  0.4705246E-006  0.1363793E+03  0.7546771E-02  0.1226835E+00
         -1   -1    0    0    0  501 -0.00000000000E+00  0.00000000000E+00  0.11954990065E+03  0.11954990065E+03  0.00000000000E+00 0.  1.
          1   -1    0    0  501    0  0.00000000000E+00 -0.00000000000E+00 -0.14981968399E+03  0.14981968399E+03  0.00000000000E+00 0. -1.
          5    1    1    2  502    0 -0.31370718685E+02  0.35425193232E+01  0.19720742741E+02  0.37518916938E+02  0.47000000000E+01 0. -1.
         -5    1    1    2    0  502  0.29110933424E+02 -0.70300155770E+02 -0.83408445964E+02  0.11299830620E+03  0.47000000000E+01 0.  1.
        -11    1    1    2    0    0 -0.24792388135E+02  0.80004408764E+02  0.27486278752E+02  0.88152501103E+02  0.00000000000E+00 0. -1.
         11    1    1    2    0    0  0.27052173396E+02 -0.13246772317E+02  0.59316411343E+01  0.30699860404E+02  0.00000000000E+00 0.  1.
<mgrwt>
<rscale>  0 0.13041944E+03</rscale>
<asrwt>0</asrwt>
<pdfrwt beam="2">  1        1 0.23049182E-01 0.13637929E+03</pdfrwt>
<pdfrwt beam="1">  1       -1 0.18392293E-01 0.13637929E+03</pdfrwt>
<totfact> 0.47011190E+03</totfact>
</mgrwt>
</event>
<event>
 6    1  0.4705246E-006  0.1574585E+03  0.7546771E-02  0.1200343E+00
         -1   -1    0    0    0  501 -0.00000000000E+00  0.00000000000E+00  0.17707767424E+03  0.17707767424E+03  0.00000000000E+00 0.  1.
          1   -1    0    0  501    0  0.00000000000E+00 -0.00000000000E+00 -0.12390827221E+03  0.12390827221E+03  0.00000000000E+00 0. -1.
          5    1    1    2  502    0 -0.37978952079E+02 -0.74592575080E+02 -0.38415052835E+02  0.92218541208E+02  0.47000000000E+01 0.  1.
         -5    1    1    2    0  502  0.53717486111E+02 -0.19853034327E+02  0.31237997459E+02  0.65403469107E+02  0.47000000000E+01 0.  1.
        -11    1    1    2    0    0 -0.13490113573E+02  0.11124887458E+03  0.58199802810E+02  0.12627554121E+03  0.00000000000E+00 0.  1.
         11    1    1    2    0    0 -0.22484204586E+01 -0.16803265177E+02  0.21466545968E+01  0.17088394926E+02  0.00000000000E+00 0. -1.
<mgrwt>
<rscale>  0 0.15010580E+03</rscale>
<asrwt>0</asrwt>
<pdfrwt beam="2">  1        1 0.19062811E-01 0.15745853E+03</pdfrwt>
<pdfrwt beam="1">  1       -1 0.27242719E-01 0.15745853E+03</pdfrwt>
<totfact> 0.31817880E+03</totfact>
</mgrwt>
</event>
<event>
 6    1  0.4705246E-006  0.3678567E+03  0.7546771E-02  0.1055516E+00
         -2   -1    0    0    0  501 -0.00000000000E+00  0.00000000000E+00  0.17108421998E+02  0.17108421998E+02  0.00000000000E+00 0. -1.
          2   -1    0    0  501    0  0.00000000000E+00 -0.00000000000E+00 -0.19773675638E+04  0.19773675638E+04  0.00000000000E+00 0.  1.
          5    1    1    2  502    0  0.26809373616E+02  0.11493128068E+02 -0.78018804808E+03  0.78074727977E+03  0.47000000000E+01 0. -1.
         -5    1    1    2    0  502 -0.43635058349E+02  0.10679874790E+03 -0.69284383583E+03  0.70239921820E+03  0.47000000000E+01 0. -1.
        -11    1    1    2    0    0  0.52621664921E+02 -0.35742139521E+02 -0.16712680284E+03  0.17882367959E+03  0.00000000000E+00 0. -1.
         11    1    1    2    0    0 -0.35795980188E+02 -0.82549736450E+02 -0.32010045505E+03  0.33250580824E+03  0.00000000000E+00 0.  1.
<mgrwt>
<rscale>  0 0.36785670E+03</rscale>
<asrwt>0</asrwt>
<pdfrwt beam="2">  1        2 0.30421049E+00 0.36785670E+03</pdfrwt>
<pdfrwt beam="1">  1       -2 0.26320641E-02 0.36785670E+03</pdfrwt>
<totfact> 0.39229864E+03</totfact>
</mgrwt>
</event>
<event>
 6    1  0.4705246E-006  0.3811105E+03  0.7546771E-02  0.1050524E+00
         -1   -1    0    0    0  501 -0.00000000000E+00  0.00000000000E+00  0.65261149209E+02  0.65261149209E+02  0.00000000000E+00 0.  1.
          1   -1    0    0  501    0  0.00000000000E+00 -0.00000000000E+00 -0.55640002412E+03  0.55640002412E+03  0.00000000000E+00 0. -1.
          5    1    1    2  502    0 -0.42313380389E+02 -0.29672095823E+02 -0.63421270208E+02  0.81946341867E+02  0.47000000000E+01 0. -1.
         -5    1    1    2    0  502 -0.92193349136E+00 -0.39276585728E+01 -0.42871881954E+03  0.42876356269E+03  0.47000000000E+01 0. -1.
        -11    1    1    2    0    0  0.36035499733E+02 -0.82743886076E+01 -0.38184594707E+02  0.53151538273E+02  0.00000000000E+00 0. -1.
         11    1    1    2    0    0  0.71998141472E+01  0.41874143004E+02  0.39185809545E+02  0.57799730499E+02  0.00000000000E+00 0.  1.
<mgrwt>
<rscale>  0 0.38111051E+03</rscale>
<asrwt>0</asrwt>
<pdfrwt beam="2">  1        1 0.85600000E-01 0.38111051E+03</pdfrwt>
<pdfrwt beam="1">  1       -1 0.10040177E-01 0.38111051E+03</pdfrwt>
<totfact> 0.23746691E+03</totfact>
</mgrwt>
</event>
<event>
 6    1  0.4705246E-006  0.2207729E+03  0.7546771E-02  0.1183121E+00
         -2   -1    0    0    0  501 -0.00000000000E+00  0.00000000000E+00  0.23557343809E+02  0.23557343809E+02  0.00000000000E+00 0.  1.
          2   -1    0    0  501    0  0.00000000000E+00 -0.00000000000E+00 -0.28598739243E+04  0.28598739243E+04  0.00000000000E+00 0. -1.
          5    1    1    2  502    0 -0.95391559832E+01  0.61276464687E+01 -0.27948344831E+04  0.27948614315E+04  0.47000000000E+01 0. -1.
         -5    1    1    2    0  502  0.18206329197E+01  0.53874831778E+01  0.12072510174E+01  0.74757698091E+01  0.47000000000E+01 0.  1.
        -11    1    1    2    0    0  0.28283128759E+02  0.17626930837E+01 -0.48282743568E+02  0.55984513803E+02  0.00000000000E+00 0. -1.
         11    1    1    2    0    0 -0.20564605696E+02 -0.13277822730E+02  0.55933951059E+01  0.25109553016E+02  0.00000000000E+00 0.  1.
<mgrwt>
<rscale>  0 0.16504038E+03</rscale>
<asrwt>0</asrwt>
<pdfrwt beam="2">  1        2 0.43998065E+00 0.22077291E+03</pdfrwt>
<pdfrwt beam="1">  1       -2 0.36242064E-02 0.22077291E+03</pdfrwt>
<totfact> 0.81121936E+02</totfact>
</mgrwt>
</event>
<event>
 6    1  0.4705246E-006  0.1480056E+03  0.7546771E-02  0.1213152E+00
          1   -1    0    0  501    0  0.00000000000E+00  0.00000000000E+00  0.26049550060E+02  0.26049550060E+02  0.00000000000E+00 0. -1.
         -1   -1    0    0    0  501 -0.00000000000E+00 -0.00000000000E+00 -0.88654102505E+03  0.88654102505E+03  0.00000000000E+00 0.  1.
          5    1    1    2  502    0 -0.44844926098E+02 -0.34529110037E+02 -0.26331096609E+02  0.62599868094E+02  0.47000000000E+01 0. -1.
         -5    1    1    2    0  502  0.21548302492E+02 -0.38464106095E+02 -0.22288509224E+03  0.22725243924E+03  0.47000000000E+01 0.  1.
        -11    1    1    2    0    0  0.51099652325E+02  0.14168992559E+02 -0.23810407885E+03  0.24393746572E+03  0.00000000000E+00 0.  1.
         11    1    1    2    0    0 -0.27803028719E+02  0.58824223574E+02 -0.37317120729E+03  0.37880080206E+03  0.00000000000E+00 0. -1.
<mgrwt>
<rscale>  0 0.14013149E+03</rscale>
<asrwt>0</asrwt>
<pdfrwt beam="1">  1        1 0.40076228E-02 0.14800558E+03</pdfrwt>
<pdfrwt beam="2">  1       -1 0.13639094E+00 0.14800558E+03</pdfrwt>
<totfact> 0.10777569E+03</totfact>
</mgrwt>
</event>
<event>
 6    1  0.4705246E-006  0.1623358E+03  0.7546771E-02  0.1193752E+00
          1   -1    0    0  501    0  0.00000000000E+00  0.00000000000E+00  0.26938180261E+03  0.26938180261E+03  0.00000000000E+00 0. -1.
         -1   -1    0    0    0  501 -0.00000000000E+00 -0.00000000000E+00 -0.85581069698E+02  0.85581069698E+02  0.00000000000E+00 0.  1.
          5    1    1    2  502    0  0.79706670122E+02 -0.37226851859E+02  0.15106569608E+03  0.17487688897E+03  0.47000000000E+01 0.  1.
         -5    1    1    2    0  502  0.20598993521E+02  0.11424748871E+02 -0.21955093342E+02  0.32541658601E+02  0.47000000000E+01 0.  1.
        -11    1    1    2    0    0 -0.67583716802E+02  0.48875910457E+02  0.65524356025E+02  0.10606533191E+03  0.00000000000E+00 0. -1.
         11    1    1    2    0    0 -0.32721946841E+02 -0.23073807469E+02 -0.10834225860E+02  0.41478992830E+02  0.00000000000E+00 0.  1.
<mgrwt>
<rscale>  0 0.15560293E+03</rscale>
<asrwt>0</asrwt>
<pdfrwt beam="1">  1        1 0.41443354E-01 0.16233578E+03</pdfrwt>
<pdfrwt beam="2">  1       -1 0.13166319E-01 0.16233578E+03</pdfrwt>
<totfact> 0.38638118E+03</totfact>
</mgrwt>
</event>
<event>
 6    1  0.4705246E-006  0.1274015E+03  0.7546771E-02  0.1245960E+00
         -1   -1    0    0    0  501 -0.00000000000E+00  0.00000000000E+00  0.36458405416E+02  0.36458405416E+02  0.00000000000E+00 0.  1.
          1   -1    0    0  501    0  0.00000000000E+00 -0.00000000000E+00 -0.54056691212E+03  0.54056691212E+03  0.00000000000E+00 0. -1.
          5    1    1    2  502    0 -0.77067442997E+00 -0.43172628785E+02 -0.60986165012E+02  0.74872372329E+02  0.47000000000E+01 0.  1.
         -5    1    1    2    0  502  0.24908826969E+02  0.48107883636E+02 -0.38967694556E+03  0.39345270368E+03  0.47000000000E+01 0.  1.
        -11    1    1    2    0    0  0.14790779135E+02  0.27257678719E+02  0.50400796961E+01  0.31418952877E+02  0.00000000000E+00 0.  1.
         11    1    1    2    0    0 -0.38928931673E+02 -0.32192933571E+02 -0.58485475829E+02  0.77281288654E+02  0.00000000000E+00 0. -1.
<mgrwt>
<rscale>  0 0.11828109E+03</rscale>
<asrwt>0</asrwt>
<pdfrwt beam="2">  1        1 0.83164136E-01 0.12740148E+03</pdfrwt>
<pdfrwt beam="1">  1       -1 0.56089857E-02 0.12740148E+03</pdfrwt>
<totfact> 0.57679728E+03</totfact>
</mgrwt>
</event>
<event>
 6    1  0.4705246E-006  0.1596750E+03  0.7546771E-02  0.1267833E+00
          2   -1    0    0  501    0  0.00000000000E+00  0.00000000000E+00  0.10926199562E+04  0.10926199562E+04  0.00000000000E+00 0. -1.
         -2   -1    0    0    0  501 -0.00000000000E+00 -0.00000000000E+00 -0.70770421557E+02  0.70770421557E+02  0.00000000000E+00 0.  1.
          5    1    1    2  502    0  0.41036848737E+02  0.15165300465E+02  0.97998428458E+03  0.98097160882E+03  0.47000000000E+01 0. -1.
         -5    1    1    2    0  502 -0.42780471537E+02 -0.21718747794E+02  0.10303079084E+03  0.11375107301E+03  0.47000000000E+01 0.  1.
        -11    1    1    2    0    0  0.43204864976E+01 -0.11337627589E+02 -0.16478926891E+02  0.20463710182E+02  0.00000000000E+00 0. -1.
         11    1    1    2    0    0 -0.25768636976E+01  0.17891074919E+02 -0.44686613844E+02  0.48203985780E+02  0.00000000000E+00 0.  1.
<mgrwt>
<rscale>  0 0.10616934E+03</rscale>
<asrwt>0</asrwt>
<pdfrwt beam="1">  1        2 0.16809537E+00 0.15967497E+03</pdfrwt>
<pdfrwt beam="2">  1       -2 0.10887758E-01 0.15967497E+03</pdfrwt>
<totfact> 0.13387231E+03</totfact>
</mgrwt>
</event>
<event>
 6    1  0.4705246E-006  0.2869269E+03  0.7546771E-02  0.1091965E+00
          2   -1    0    0  501    0  0.00000000000E+00  0.00000000000E+00  0.16828425310E+04  0.16828425310E+04  0.00000000000E+00 0. -1.
         -2   -1    0    0    0  501 -0.00000000000E+00 -0.00000000000E+00 -0.12230358691E+02  0.12230358691E+02  0.00000000000E+00 0.  1.
          5    1    1    2  502    0 -0.42206258927E+01 -0.94470271327E+02  0.11447528200E+04  0.11486616363E+04  0.47000000000E+01 0.  1.
         -5    1    1    2    0  502 -0.10991633237E+02  0.31489667555E+02  0.15059843740E+03  0.15431913203E+03  0.47000000000E+01 0.  1.
        -11    1    1    2    0    0  0.44504201748E+02  0.13257666171E+02  0.24865430010E+03  0.25295325783E+03  0.00000000000E+00 0. -1.
         11    1    1    2    0    0 -0.29291942619E+02  0.49722937600E+02  0.12660661474E+03  0.13913886345E+03  0.00000000000E+00 0.  1.
<mgrwt>
<rscale>  0 0.28692694E+03</rscale>
<asrwt>0</asrwt>
<pdfrwt beam="1">  1        2 0.25889867E+00 0.28692694E+03</pdfrwt>
<pdfrwt beam="2">  1       -2 0.18815950E-02 0.28692694E+03</pdfrwt>
<totfact> 0.92337710E+03</totfact>
</mgrwt>
</event>
<event>
 6    1  0.4705246E-006  0.1266612E+03  0.7546771E-02  0.1248095E+00
          2   -1    0    0  501    0  0.00000000000E+00  0.00000000000E+00  0.58398778448E+02  0.58398778448E+02  0.00000000000E+00 0. -1.
         -2   -1    0    0    0  501 -0.00000000000E+00 -0.00000000000E+00 -0.20944114676E+03  0.20944114676E+03  0.00000000000E+00 0.  1.
          5    1    1    2  502    0 -0.41652147560E+02  0.20932420233E+02  0.20147495325E+02  0.51000776279E+02  0.47000000000E+01 0. -1.
         -5    1    1    2    0  502  0.27219978219E+02 -0.64506305879E+01 -0.88483129760E+02  0.92918739237E+02  0.47000000000E+01 0. -1.
        -11    1    1    2    0    0 -0.16798947033E+02  0.16598189680E+02 -0.75709906319E+02  0.79307593817E+02  0.00000000000E+00 0.  1.
         11    1    1    2    0    0  0.31231116374E+02 -0.31079979326E+02 -0.69968275614E+01  0.44612815880E+02  0.00000000000E+00 0. -1.
<mgrwt>
<rscale>  0 0.11702035E+03</rscale>
<asrwt>0</asrwt>
<pdfrwt beam="1">  1        2 0.89844276E-02 0.12666123E+03</pdfrwt>
<pdfrwt beam="2">  1       -2 0.32221714E-01 0.12666123E+03</pdfrwt>
<totfact> 0.61910112E+03</totfact>
</mgrwt>
</event>
<event>
 6    1  0.4705246E-006  0.1325865E+03  0.7546771E-02  0.1236897E+00
          1   -1    0    0  501    0  0.00000000000E+00  0.00000000000E+00  0.35554989986E+03  0.35554989986E+03  0.00000000000E+00 0. -1.
         -1   -1    0    0    0  501 -0.00000000000E+00 -0.00000000000E+00 -0.39705414679E+02  0.39705414679E+02  0.00000000000E+00 0.  1.
          5    1    1    2  502    0 -0.15261304495E+02  0.42580968908E+02  0.39402407518E+02  0.60172136793E+02  0.47000000000E+01 0. -1.
         -5    1    1    2    0  502  0.49409783130E+02 -0.70656023762E+02  0.10280473261E+03  0.13425536641E+03  0.47000000000E+01 0. -1.
        -11    1    1    2    0    0  0.29874445179E+02  0.18197090964E+02  0.47060613234E+02  0.58637171763E+02  0.00000000000E+00 0.  1.
         11    1    1    2    0    0 -0.64022923814E+02  0.98779638896E+01  0.12657673181E+03  0.14219063957E+03  0.00000000000E+00 0. -1.
<mgrwt>
<rscale>  0 0.12383774E+03</rscale>
<asrwt>0</asrwt>
<pdfrwt beam="1">  1        1 0.54699983E-01 0.13258651E+03</pdfrwt>
<pdfrwt beam="2">  1       -1 0.61085256E-02 0.13258651E+03</pdfrwt>
<totfact> 0.86992596E+03</totfact>
</mgrwt>
</event>
<event>
 6    1  0.4705246E-006  0.3538833E+03  0.7546771E-02  0.1062070E+00
         -2   -1    0    0    0  501 -0.00000000000E+00  0.00000000000E+00  0.89037491283E+02  0.89037491283E+02  0.00000000000E+00 0.  1.
          2   -1    0    0  501    0  0.00000000000E+00 -0.00000000000E+00 -0.17796253750E+04  0.17796253750E+04  0.00000000000E+00 0. -1.
          5    1    1    2  502    0  0.93136593948E+02 -0.31894112815E+03 -0.11937543548E+04  0.12391405965E+04  0.47000000000E+01 0. -1.
         -5    1    1    2    0  502 -0.18885846701E+02 -0.36964416849E+01 -0.11097564436E+03  0.11272986528E+03  0.47000000000E+01 0. -1.
        -11    1    1    2    0    0 -0.30592338850E+02  0.23183843101E+02 -0.66824304842E+02  0.77064060981E+02  0.00000000000E+00 0. -1.
         11    1    1    2    0    0 -0.43658408397E+02  0.29945372674E+03 -0.31903357971E+03  0.43972834349E+03  0.00000000000E+00 0.  1.
<mgrwt>
<rscale>  0 0.35133122E+03</rscale>
<asrwt>0</asrwt>
<pdfrwt beam="2">  1        2 0.27378852E+00 0.35388328E+03</pdfrwt>
<pdfrwt beam="1">  1       -2 0.13698076E-01 0.35388328E+03</pdfrwt>
<totfact> 0.38251120E+02</totfact>
</mgrwt>
</event>
<event>
 6    1  0.4705246E-006  0.1213973E+03  0.7546771E-02  0.1253480E+00
          2   -1    0    0  501    0  0.00000000000E+00  0.00000000000E+00  0.94751656987E+03  0.94751656987E+03  0.00000000000E+00 0. -1.
         -2   -1    0    0    0  501 -0.00000000000E+00 -0.00000000000E+00 -0.12405521979E+02  0.12405521979E+02  0.00000000000E+00 0.  1.
          5    1    1    2  502    0 -0.23181218246E+02 -0.26693334945E+02  0.69374569127E+02  0.78005280920E+02  0.47000000000E+01 0. -1.
         -5    1    1    2    0  502  0.39716555790E+02  0.49636947952E+02  0.50872783013E+03  0.51270588699E+03  0.47000000000E+01 0.  1.
        -11    1    1    2    0    0 -0.52906177516E+01  0.28605308366E+02  0.51225137915E+02  0.58908989614E+02  0.00000000000E+00 0.  1.
         11    1    1    2    0    0 -0.11244719792E+02 -0.51548921373E+02  0.30578351072E+03  0.31030193432E+03  0.00000000000E+00 0. -1.
<mgrwt>
<rscale>  0 0.11391878E+03</rscale>
<asrwt>0</asrwt>
<pdfrwt beam="1">  1        2 0.14577172E+00 0.12139728E+03</pdfrwt>
<pdfrwt beam="2">  1       -2 0.19085426E-02 0.12139728E+03</pdfrwt>
<totfact> 0.22105496E+04</totfact>
</mgrwt>
</event>
<event>
 6    1  0.4705246E-006  0.1590709E+03  0.7546771E-02  0.1197531E+00
          3   -1    0    0  501    0  0.00000000000E+00  0.00000000000E+00  0.64558409832E+03  0.64558409832E+03  0.00000000000E+00 0. -1.
         -3   -1    0    0    0  501 -0.00000000000E+00 -0.00000000000E+00 -0.33314143329E+02  0.33314143329E+02  0.00000000000E+00 0.  1.
          5    1    1    2  502    0  0.88893783186E+02 -0.10011789491E+02  0.30855104379E+03  0.32129142105E+03  0.47000000000E+01 0. -1.
         -5    1    1    2    0  502  0.31378226325E+01  0.44760155640E+02  0.34331448580E+02  0.56692643486E+02  0.47000000000E+01 0. -1.
        -11    1    1    2    0    0 -0.40728245777E+02 -0.62920475630E+02  0.13692069231E+03  0.15609308838E+03  0.00000000000E+00 0.  1.
         11    1    1    2    0    0 -0.51303360042E+02  0.28172109480E+02  0.13246677032E+03  0.14482108874E+03  0.00000000000E+00 0. -1.
<mgrwt>
<rscale>  0 0.15241965E+03</rscale>
<asrwt>0</asrwt>
<pdfrwt beam="1">  1        3 0.99320621E-01 0.15907089E+03</pdfrwt>
<pdfrwt beam="2">  1       -3 0.51252533E-02 0.15907089E+03</pdfrwt>
<totfact> 0.47905343E+02</totfact>
</mgrwt>
</event>
<event>
 6    1  0.4705246E-006  0.1313722E+03  0.7546771E-02  0.1238317E+00
         -2   -1    0    0    0  501 -0.00000000000E+00  0.00000000000E+00  0.35126791653E+02  0.35126791653E+02  0.00000000000E+00 0.  1.
          2   -1    0    0  501    0  0.00000000000E+00 -0.00000000000E+00 -0.76680011039E+03  0.76680011039E+03  0.00000000000E+00 0. -1.
          5    1    1    2  502    0  0.35707454276E+02 -0.28206896615E+02 -0.23465494659E+03  0.23907255231E+03  0.47000000000E+01 0. -1.
         -5    1    1    2    0  502 -0.71804493439E+02  0.46408585914E+02 -0.43754410234E+03  0.44584366500E+03  0.47000000000E+01 0. -1.
        -11    1    1    2    0    0  0.24825982483E+01  0.35576855722E+02 -0.31926808448E+02  0.47866450200E+02  0.00000000000E+00 0. -1.
         11    1    1    2    0    0  0.33614440915E+02 -0.53778545021E+02 -0.27547461358E+02  0.69144234538E+02  0.00000000000E+00 0.  1.
<mgrwt>
<rscale>  0 0.12294447E+03</rscale>
<asrwt>0</asrwt>
<pdfrwt beam="2">  1        2 0.11796924E+00 0.13137223E+03</pdfrwt>
<pdfrwt beam="1">  1       -2 0.54041220E-02 0.13137223E+03</pdfrwt>
<totfact> 0.62844764E+03</totfact>
</mgrwt>
</event>
<event>
 6    1  0.4705246E-006  0.3225509E+03  0.7546771E-02  0.1074481E+00
          1   -1    0    0  501    0  0.00000000000E+00  0.00000000000E+00  0.79587501280E+03  0.79587501280E+03  0.00000000000E+00 0. -1.
         -1   -1    0    0    0  501 -0.00000000000E+00 -0.00000000000E+00 -0.32680721692E+02  0.32680721692E+02  0.00000000000E+00 0.  1.
          5    1    1    2  502    0  0.54397091775E+02 -0.69445505350E+02  0.62914216664E+03  0.63531384185E+03  0.47000000000E+01 0.  1.
         -5    1    1    2    0  502  0.51366635126E+01  0.60172830977E+01 -0.25264201312E+01  0.95428405938E+01  0.47000000000E+01 0.  1.
        -11    1    1    2    0    0 -0.65666636477E+01  0.30712381242E+02 -0.23143515867E+01  0.31491707739E+02  0.00000000000E+00 0.  1.
         11    1    1    2    0    0 -0.52967091640E+02  0.32715841009E+02  0.13889289618E+03  0.15220734430E+03  0.00000000000E+00 0. -1.
<mgrwt>
<rscale>  0 0.32255089E+03</rscale>
<asrwt>0</asrwt>
<pdfrwt beam="1">  1        1 0.12244230E+00 0.32255089E+03</pdfrwt>
<pdfrwt beam="2">  1       -1 0.50278039E-02 0.32255089E+03</pdfrwt>
<totfact> 0.40624179E+03</totfact>
</mgrwt>
</event>
<event>
 6    1  0.4705246E-006  0.1647619E+03  0.7546771E-02  0.1190136E+00
         -1   -1    0    0    0  501 -0.00000000000E+00  0.00000000000E+00  0.18229623805E+02  0.18229623805E+02  0.00000000000E+00 0.  1.
          1   -1    0    0  501    0  0.00000000000E+00 -0.00000000000E+00 -0.13521621217E+04  0.13521621217E+04  0.00000000000E+00 0. -1.
          5    1    1    2  502    0  0.68291169487E-01 -0.42309221730E+02 -0.23414634769E+03  0.23798461514E+03  0.47000000000E+01 0.  1.
         -5    1    1    2    0  502  0.10563812630E+03  0.61086783807E+02 -0.62674556951E+03  0.63853199433E+03  0.47000000000E+01 0.  1.
        -11    1    1    2    0    0 -0.40187324491E+02  0.30071729499E+02 -0.27652344120E+03  0.28104188922E+03  0.00000000000E+00 0.  1.
         11    1    1    2    0    0 -0.65519092977E+02 -0.48849291576E+02 -0.19651713947E+03  0.21283324679E+03  0.00000000000E+00 0. -1.
<mgrwt>
<rscale>  0 0.15873187E+03</rscale>
<asrwt>0</asrwt>
<pdfrwt beam="2">  1        1 0.20802488E+00 0.16476187E+03</pdfrwt>
<pdfrwt beam="1">  1       -1 0.28045583E-02 0.16476187E+03</pdfrwt>
<totfact> 0.37141341E+03</totfact>
</mgrwt>
</event>
<event>
 6    1  0.4705246E-006  0.1290833E+03  0.7546771E-02  0.1243374E+00
          1   -1    0    0  501    0  0.00000000000E+00  0.00000000000E+00  0.22651169172E+02  0.22651169172E+02  0.00000000000E+00 0. -1.
         -1   -1    0    0    0  501 -0.00000000000E+00 -0.00000000000E+00 -0.55863324428E+03  0.55863324428E+03  0.00000000000E+00 0.  1.
          5    1    1    2  502    0  0.17243172004E+02 -0.45995883659E+02 -0.23504528112E+03  0.24016936206E+03  0.47000000000E+01 0.  1.
         -5    1    1    2    0  502 -0.46919903114E+02  0.33502110233E+02 -0.68331157833E+02  0.89527123427E+02  0.47000000000E+01 0.  1.
        -11    1    1    2    0    0 -0.26080796179E+01  0.41367158098E+02 -0.55539641531E+02  0.69301483605E+02  0.00000000000E+00 0. -1.
         11    1    1    2    0    0  0.32284810729E+02 -0.28873384671E+02 -0.17706599462E+03  0.18228644436E+03  0.00000000000E+00 0.  1.
<mgrwt>
<rscale>  0 0.11983222E+03</rscale>
<asrwt>0</asrwt>
<pdfrwt beam="1">  1        1 0.34847955E-02 0.12908334E+03</pdfrwt>
<pdfrwt beam="2">  1       -1 0.85943571E-01 0.12908334E+03</pdfrwt>
<totfact> 0.37034476E+03</totfact>
</mgrwt>
</event>
<event>
 6    1  0.4705246E-006  0.1156393E+03  0.7546771E-02  0.1258801E+00
          1   -1    0    0  501    0  0.00000000000E+00  0.00000000000E+00  0.40693230921E+03  0.40693230921E+03  0.00000000000E+00 0. -1.
         -1   -1    0    0    0  501 -0.00000000000E+00 -0.00000000000E+00 -0.33151919808E+02  0.33151919808E+02  0.00000000000E+00 0.  1.
          5    1    1    2  502    0  0.45694476078E+02  0.24915264592E+02  0.15417161041E+03  0.16278737977E+03  0.47000000000E+01 0. -1.
         -5    1    1    2    0  502 -0.61871448141E+02  0.12433255599E+01  0.13183906162E+03  0.14571633444E+03  0.47000000000E+01 0.  1.
        -11    1    1    2    0    0  0.33354654057E+02 -0.53961380729E+02  0.45110933256E+02  0.77841890115E+02  0.00000000000E+00 0.  1.
         11    1    1    2    0    0 -0.17177681994E+02  0.27802790577E+02  0.42658784112E+02  0.53738624698E+02  0.00000000000E+00 0. -1.
<mgrwt>
<rscale>  0 0.11096062E+03</rscale>
<asrwt>0</asrwt>
<pdfrwt beam="1">  1        1 0.62604967E-01 0.11563925E+03</pdfrwt>
<pdfrwt beam="2">  1       -1 0.51002956E-02 0.11563925E+03</pdfrwt>
<totfact> 0.95027904E+03</totfact>
</mgrwt>
</event>
<event>
 6    1  0.4705246E-006  0.1262098E+03  0.7546771E-02  0.1248014E+00
          1   -1    0    0  501    0  0.00000000000E+00  0.00000000000E+00  0.45486922034E+02  0.45486922034E+02  0.00000000000E+00 0. -1.
         -1   -1    0    0    0  501 -0.00000000000E+00 -0.00000000000E+00 -0.26579504252E+03  0.26579504252E+03  0.00000000000E+00 0.  1.
          5    1    1    2  502    0  0.14974698417E+02 -0.11883097774E+02 -0.15402436407E+03  0.15527731429E+03  0.47000000000E+01 0. -1.
         -5    1    1    2    0  502 -0.20046276431E+02 -0.48036945475E+01  0.19798679583E+02  0.28965607076E+02  0.47000000000E+01 0. -1.
        -11    1    1    2    0    0 -0.43138843670E+02  0.10586099750E+02 -0.47093359680E+02  0.64736464740E+02  0.00000000000E+00 0.  1.
         11    1    1    2    0    0  0.48210421684E+02  0.61006925719E+01 -0.38989076310E+02  0.62302578441E+02  0.00000000000E+00 0. -1.
<mgrwt>
<rscale>  0 0.11706815E+03</rscale>
<asrwt>0</asrwt>
<pdfrwt beam="1">  1        1 0.69979882E-02 0.12620982E+03</pdfrwt>
<pdfrwt beam="2">  1       -1 0.40891544E-01 0.12620982E+03</pdfrwt>
<totfact> 0.58634836E+03</totfact>
</mgrwt>
</event>
<event>
 6    1  0.4705246E-006  0.2128609E+03  0.7546771E-02  0.1142886E+00
          2   -1    0    0  501    0  0.00000000000E+00  0.00000000000E+00  0.63087919197E+02  0.63087919197E+02  0.00000000000E+00 0. -1.
         -2   -1    0    0    0  501 -0.00000000000E+00 -0.00000000000E+00 -0.77897604529E+03  0.77897604529E+03  0.00000000000E+00 0.  1.
          5    1    1    2  502    0  0.33106216539E+02 -0.79354725476E+02 -0.19020740117E+02  0.88187712202E+02  0.47000000000E+01 0. -1.
         -5    1    1    2    0  502  0.67721671437E+02 -0.60345908914E+02 -0.18775681304E+03  0.20857268361E+03  0.47000000000E+01 0. -1.
        -11    1    1    2    0    0 -0.92958018143E+02  0.50504011048E+02 -0.27934643489E+03  0.29870768145E+03  0.00000000000E+00 0. -1.
         11    1    1    2    0    0 -0.78698698335E+01  0.89196623343E+02 -0.22976413805E+03  0.24659588723E+03  0.00000000000E+00 0.  1.
<mgrwt>
<rscale>  0 0.20834181E+03</rscale>
<asrwt>0</asrwt>
<pdfrwt beam="1">  1        2 0.97058329E-02 0.21286093E+03</pdfrwt>
<pdfrwt beam="2">  1       -2 0.11984248E+00 0.21286093E+03</pdfrwt>
<totfact> 0.36972772E+02</totfact>
</mgrwt>
</event>
<event>
 6    1  0.4705246E-006  0.1280119E+03  0.7546771E-02  0.1244608E+00
          2   -1    0    0  501    0  0.00000000000E+00  0.00000000000E+00  0.12458830305E+03  0.12458830305E+03  0.00000000000E+00 0. -1.
         -2   -1    0    0    0  501 -0.00000000000E+00 -0.00000000000E+00 -0.10290794668E+03  0.10290794668E+03  0.00000000000E+00 0.  1.
          5    1    1    2  502    0 -0.20698894209E+02 -0.21749074164E+02 -0.45704845683E+02  0.54886149139E+02  0.47000000000E+01 0. -1.
         -5    1    1    2    0  502 -0.54228045636E+01  0.12978169687E+02  0.74977432513E+02  0.76430001204E+02  0.47000000000E+01 0. -1.
        -11    1    1    2    0    0  0.11099056415E+02 -0.14148154029E+02 -0.45775528211E+02  0.49180873301E+02  0.00000000000E+00 0.  1.
         11    1    1    2    0    0  0.15022642357E+02  0.22919058505E+02  0.38183297747E+02  0.46999226089E+02  0.00000000000E+00 0. -1.
<mgrwt>
<rscale>  0 0.11908848E+03</rscale>
<asrwt>0</asrwt>
<pdfrwt beam="1">  1        2 0.19167431E-01 0.12801190E+03</pdfrwt>
<pdfrwt beam="2">  1       -2 0.15831992E-01 0.12801190E+03</pdfrwt>
<totfact> 0.85683473E+03</totfact>
</mgrwt>
</event>
<event>
 6    1  0.4705246E-006  0.2103216E+03  0.7546771E-02  0.1145069E+00
          1   -1    0    0  501    0  0.00000000000E+00  0.00000000000E+00  0.30445905197E+03  0.30445905197E+03  0.00000000000E+00 0. -1.
         -1   -1    0    0    0  501 -0.00000000000E+00 -0.00000000000E+00 -0.14595093273E+03  0.14595093273E+03  0.00000000000E+00 0.  1.
          5    1    1    2  502    0 -0.69899043984E+01  0.12045512676E+02 -0.14618019093E+02  0.20729920919E+02  0.47000000000E+01 0.  1.
         -5    1    1    2    0  502  0.16237913857E+03  0.54744715669E+02  0.16404288854E+03  0.23726805056E+03  0.47000000000E+01 0.  1.
        -11    1    1    2    0    0  0.11869275606E+02 -0.87526359922E+01  0.40722185662E+01  0.15299389016E+02  0.00000000000E+00 0.  1.
         11    1    1    2    0    0 -0.16725850978E+03 -0.58037592353E+02  0.50110312230E+01  0.17711262421E+03  0.00000000000E+00 0. -1.
<mgrwt>
<rscale>  0 0.20563630E+03</rscale>
<asrwt>0</asrwt>
<pdfrwt beam="1">  1        1 0.46839854E-01 0.21032157E+03</pdfrwt>
<pdfrwt beam="2">  1       -1 0.22453990E-01 0.21032157E+03</pdfrwt>
<totfact> 0.14254627E+03</totfact>
</mgrwt>
</event>
<event>
 6    1  0.4705246E-006  0.1373633E+03  0.7546771E-02  0.1228195E+00
         -2   -1    0    0    0  501 -0.00000000000E+00  0.00000000000E+00  0.12597982319E+02  0.12597982319E+02  0.00000000000E+00 0.  1.
          2   -1    0    0  501    0  0.00000000000E+00 -0.00000000000E+00 -0.15337655736E+04  0.15337655736E+04  0.00000000000E+00 0. -1.
          5    1    1    2  502    0 -0.22212198811E+01  0.67734987416E+02 -0.11508462656E+04  0.11528495909E+04  0.47000000000E+01 0. -1.
         -5    1    1    2    0  502  0.17364152520E+02 -0.12824619860E+02 -0.38385827827E+02  0.44289349117E+02  0.47000000000E+01 0. -1.
        -11    1    1    2    0    0 -0.47801245755E+02 -0.47710411108E+02 -0.27520259681E+03  0.28336850869E+03  0.00000000000E+00 0.  1.
         11    1    1    2    0    0  0.32658313116E+02 -0.71999564484E+01 -0.56732901048E+02  0.65856107156E+02  0.00000000000E+00 0. -1.
<mgrwt>
<rscale>  0 0.12950327E+03</rscale>
<asrwt>0</asrwt>
<pdfrwt beam="2">  1        2 0.23596418E+00 0.13736328E+03</pdfrwt>
<pdfrwt beam="1">  1       -2 0.19381491E-02 0.13736328E+03</pdfrwt>
<totfact> 0.10338645E+04</totfact>
</mgrwt>
</event>
<event>
 6    1  0.4705246E-006  0.2940408E+03  0.7546771E-02  0.1088258E+00
          2   -1    0    0  501    0  0.00000000000E+00  0.00000000000E+00  0.85203861466E+03  0.85203861466E+03  0.00000000000E+00 0. -1.
         -2   -1    0    0    0  501 -0.00000000000E+00 -0.00000000000E+00 -0.25368562148E+02  0.25368562148E+02  0.00000000000E+00 0.  1.
          5    1    1    2  502    0 -0.99234324892E+02  0.49575001137E+02  0.34771430510E+03  0.36501021896E+03  0.47000000000E+01 0.  1.
         -5    1    1    2    0  502  0.23465642375E+02  0.59148836143E+01  0.12430922682E+02  0.27608695351E+02  0.47000000000E+01 0.  1.
        -11    1    1    2    0    0  0.25829844331E+02 -0.64641558318E+02  0.16599549449E+03  0.18000060031E+03  0.00000000000E+00 0.  1.
         11    1    1    2    0    0  0.49938838185E+02  0.91516735668E+01  0.30052933023E+03  0.30478766218E+03  0.00000000000E+00 0. -1.
<mgrwt>
<rscale>  0 0.29404078E+03</rscale>
<asrwt>0</asrwt>
<pdfrwt beam="1">  1        2 0.13108284E+00 0.29404078E+03</pdfrwt>
<pdfrwt beam="2">  1       -2 0.39028564E-02 0.29404078E+03</pdfrwt>
<totfact> 0.93200001E+03</totfact>
</mgrwt>
</event>
<event>
 6    1  0.4705246E-006  0.1328840E+03  0.7546771E-02  0.1235086E+00
         -2   -1    0    0    0  501 -0.00000000000E+00  0.00000000000E+00  0.13312375809E+03  0.13312375809E+03  0.00000000000E+00 0.  1.
          2   -1    0    0  501    0  0.00000000000E+00 -0.00000000000E+00 -0.14426612088E+03  0.14426612088E+03  0.00000000000E+00 0. -1.
          5    1    1    2  502    0 -0.28992237119E+02 -0.33783937293E+02 -0.46556477104E+02  0.64587148818E+02  0.47000000000E+01 0.  1.
         -5    1    1    2    0  502  0.73725753493E+02  0.39427974417E+02 -0.31119573143E+02  0.89334034541E+02  0.47000000000E+01 0.  1.
        -11    1    1    2    0    0  0.77199416045E+01  0.31865873440E+02  0.44600172032E+02  0.55355277379E+02  0.00000000000E+00 0.  1.
         11    1    1    2    0    0 -0.52453457979E+02 -0.37509910564E+02  0.21933515423E+02  0.68113418232E+02  0.00000000000E+00 0. -1.
<mgrwt>
<rscale>  0 0.12498902E+03</rscale>
<asrwt>0</asrwt>
<pdfrwt beam="2">  1        2 0.22194788E-01 0.13288402E+03</pdfrwt>
<pdfrwt beam="1">  1       -2 0.20480578E-01 0.13288402E+03</pdfrwt>
<totfact> 0.47413513E+03</totfact>
</mgrwt>
</event>
<event>
 6    1  0.4705246E-006  0.1229450E+03  0.7546771E-02  0.1262411E+00
          2   -1    0    0  501    0  0.00000000000E+00  0.00000000000E+00  0.11900057844E+03  0.11900057844E+03  0.00000000000E+00 0. -1.
         -2   -1    0    0    0  501 -0.00000000000E+00 -0.00000000000E+00 -0.87318541926E+02  0.87318541926E+02  0.00000000000E+00 0.  1.
          5    1    1    2  502    0  0.41251185654E+02  0.71625705552E+01  0.73532847065E+02  0.84747462099E+02  0.47000000000E+01 0. -1.
         -5    1    1    2    0  502 -0.30150552159E+02 -0.74638580941E+01 -0.32174778659E+02  0.44967447725E+02  0.47000000000E+01 0.  1.
        -11    1    1    2    0    0  0.31274031502E+02 -0.48258990674E+01  0.37335075119E+01  0.31863669382E+02  0.00000000000E+00 0. -1.
         11    1    1    2    0    0 -0.42374664997E+02  0.51271866064E+01 -0.13409539405E+02  0.44740541158E+02  0.00000000000E+00 0.  1.
<mgrwt>
<rscale>  0 0.10901171E+03</rscale>
<asrwt>0</asrwt>
<pdfrwt beam="1">  1        2 0.18307781E-01 0.12294498E+03</pdfrwt>
<pdfrwt beam="2">  1       -2 0.13433622E-01 0.12294498E+03</pdfrwt>
<totfact> 0.11751197E+04</totfact>
</mgrwt>
</event>
<event>
 6    1  0.4705246E-006  0.1339084E+03  0.7546771E-02  0.1235882E+00
         -2   -1    0    0    0  501 -0.00000000000E+00  0.00000000000E+00  0.24934208071E+02  0.24934208071E+02  0.00000000000E+00 0.  1.
          2   -1    0    0  501    0  0.00000000000E+00 -0.00000000000E+00 -0.72988218193E+03  0.72988218193E+03  0.00000000000E+00 0. -1.
          5    1    1    2  502    0  0.88218775090E+02 -0.47582416105E+01 -0.37687072940E+03  0.38711604180E+03  0.47000000000E+01 0.  1.
         -5    1    1    2    0  502 -0.41819145669E+02  0.17083214723E+02 -0.20062055465E+03  0.20569728758E+03  0.47000000000E+01 0.  1.
        -11    1    1    2    0    0 -0.97588343937E+01  0.20495950035E+02 -0.10588307999E+03  0.10828917510E+03  0.00000000000E+00 0. -1.
         11    1    1    2    0    0 -0.36640795027E+02 -0.32820923148E+02 -0.21573609819E+02  0.53713885515E+02  0.00000000000E+00 0.  1.
<mgrwt>
<rscale>  0 0.12448147E+03</rscale>
<asrwt>0</asrwt>
<pdfrwt beam="2">  1        2 0.11228956E+00 0.13390840E+03</pdfrwt>
<pdfrwt beam="1">  1       -2 0.38360321E-02 0.13390840E+03</pdfrwt>
<totfact> 0.11145742E+04</totfact>
</mgrwt>
</event>
<event>
 6    1  0.4705246E-006  0.1257269E+03  0.7546771E-02  0.1248518E+00
         -1   -1    0    0    0  501 -0.00000000000E+00  0.00000000000E+00  0.99999258894E+01  0.99999258894E+01  0.00000000000E+00 0.  1.
          1   -1    0    0  501    0  0.00000000000E+00 -0.00000000000E+00 -0.20555382324E+04  0.20555382324E+04  0.00000000000E+00 0. -1.
          5    1    1    2  502    0 -0.60448942036E+02 -0.66495191459E+01 -0.12739531171E+04  0.12754124530E+04  0.47000000000E+01 0. -1.
         -5    1    1    2    0  502  0.51748804402E+02  0.17081547343E+02 -0.49781282824E+03  0.50080876587E+03  0.47000000000E+01 0. -1.
        -11    1    1    2    0    0 -0.39780890001E+02  0.44048003794E+00 -0.80970986032E+02  0.90216483034E+02  0.00000000000E+00 0. -1.
         11    1    1    2    0    0  0.48481027635E+02 -0.10872508235E+02 -0.19280137514E+03  0.19910045638E+03  0.00000000000E+00 0.  1.
<mgrwt>
<rscale>  0 0.11677253E+03</rscale>
<asrwt>0</asrwt>
<pdfrwt beam="2">  1        1 0.31623709E+00 0.12572690E+03</pdfrwt>
<pdfrwt beam="1">  1       -1 0.15384480E-02 0.12572690E+03</pdfrwt>
<totfact> 0.31097628E+03</totfact>
</mgrwt>
</event>
<event>
 6    1  0.4705246E-006  0.1302265E+03  0.7546771E-02  0.1240720E+00
          2   -1    0    0  501    0  0.00000000000E+00  0.00000000000E+00  0.71057345641E+03  0.71057345641E+03  0.00000000000E+00 0. -1.
         -2   -1    0    0    0  501 -0.00000000000E+00 -0.00000000000E+00 -0.19160232141E+02  0.19160232141E+02  0.00000000000E+00 0.  1.
          5    1    1    2  502    0  0.35412034906E+02  0.34717456793E+02  0.16676627229E+03  0.17404710166E+03  0.47000000000E+01 0.  1.
         -5    1    1    2    0  502 -0.36740152893E+02 -0.71219161864E+02  0.29653083332E+03  0.30720454580E+03  0.47000000000E+01 0.  1.
        -11    1    1    2    0    0  0.45710881031E+02  0.23989425037E+02  0.10476204909E+03  0.11679068493E+03  0.00000000000E+00 0.  1.
         11    1    1    2    0    0 -0.44382763044E+02  0.12512280033E+02  0.12335406958E+03  0.13169135616E+03  0.00000000000E+00 0. -1.
<mgrwt>
<rscale>  0 0.12145253E+03</rscale>
<asrwt>0</asrwt>
<pdfrwt beam="1">  1        2 0.10931897E+00 0.13022650E+03</pdfrwt>
<pdfrwt beam="2">  1       -2 0.29477286E-02 0.13022650E+03</pdfrwt>
<totfact> 0.16939103E+04</totfact>
</mgrwt>
</event>
<event>
 6    1  0.4705246E-006  0.1361395E+03  0.7546771E-02  0.1233706E+00
          1   -1    0    0  501    0  0.00000000000E+00  0.00000000000E+00  0.90183419457E+02  0.90183419457E+02  0.00000000000E+00 0. -1.
         -1   -1    0    0    0  501 -0.00000000000E+00 -0.00000000000E+00 -0.16938838456E+03  0.16938838456E+03  0.00000000000E+00 0.  1.
          5    1    1    2  502    0  0.80193697182E+01 -0.13749227710E+02  0.55525374410E+02  0.57952642361E+02  0.47000000000E+01 0.  1.
         -5    1    1    2    0  502  0.45910233356E+02  0.13035394637E+02 -0.61944255659E+02  0.78338061306E+02  0.47000000000E+01 0.  1.
        -11    1    1    2    0    0  0.80208173243E+01  0.23674137081E+02 -0.19772260621E-01  0.24995973036E+02  0.00000000000E+00 0. -1.
         11    1    1    2    0    0 -0.61950420399E+02 -0.22960304007E+02 -0.72766311589E+02  0.98285127308E+02  0.00000000000E+00 0.  1.
<mgrwt>
<rscale>  0 0.12587651E+03</rscale>
<asrwt>0</asrwt>
<pdfrwt beam="1">  1        1 0.13874372E-01 0.13613946E+03</pdfrwt>
<pdfrwt beam="2">  1       -1 0.26059751E-01 0.13613946E+03</pdfrwt>
<totfact> 0.51185953E+03</totfact>
</mgrwt>
</event>
<event>
 6    1  0.4705246E-006  0.2441543E+03  0.7546771E-02  0.1117056E+00
         -1   -1    0    0    0  501 -0.00000000000E+00  0.00000000000E+00  0.67472962246E+02  0.67472962246E+02  0.00000000000E+00 0.  1.
          1   -1    0    0  501    0  0.00000000000E+00 -0.00000000000E+00 -0.22087122816E+03  0.22087122816E+03  0.00000000000E+00 0. -1.
          5    1    1    2  502    0  0.29776363888E+02  0.81671828834E+02 -0.88260180324E+02  0.12397124224E+03  0.47000000000E+01 0. -1.
         -5    1    1    2    0  502 -0.99210278825E+01 -0.43522480606E+02 -0.37853429588E+02  0.58716311566E+02  0.47000000000E+01 0. -1.
        -11    1    1    2    0    0  0.29963977077E+02 -0.39264414313E+02 -0.11900271192E+01  0.49405974519E+02  0.00000000000E+00 0.  1.
         11    1    1    2    0    0 -0.49819313083E+02  0.11150660848E+01 -0.26094628885E+02  0.56250662085E+02  0.00000000000E+00 0. -1.
<mgrwt>
<rscale>  0 0.24415434E+03</rscale>
<asrwt>0</asrwt>
<pdfrwt beam="2">  1        1 0.33980189E-01 0.24415434E+03</pdfrwt>
<pdfrwt beam="1">  1       -1 0.10380456E-01 0.24415434E+03</pdfrwt>
<totfact> 0.73227471E+03</totfact>
</mgrwt>
</event>
<event>
 6    1  0.4705246E-006  0.1289743E+03  0.7546771E-02  0.1242919E+00
          3   -1    0    0  501    0  0.00000000000E+00  0.00000000000E+00  0.22430856455E+03  0.22430856455E+03  0.00000000000E+00 0.  1.
         -3   -1    0    0    0  501 -0.00000000000E+00 -0.00000000000E+00 -0.59203616287E+02  0.59203616287E+02  0.00000000000E+00 0. -1.
          5    1    1    2  502    0 -0.19304921538E+02  0.10491783105E+02  0.13171730221E+03  0.13361996561E+03  0.47000000000E+01 0. -1.
         -5    1    1    2    0  502  0.97074220431E+01 -0.40853892124E+02 -0.10325341286E+02  0.43496864451E+02  0.47000000000E+01 0. -1.
        -11    1    1    2    0    0 -0.13058937721E+01 -0.20266347894E+02  0.50246716892E+02  0.54195597367E+02  0.00000000000E+00 0.  1.
         11    1    1    2    0    0  0.10903393267E+02  0.50628456913E+02 -0.65337295518E+01  0.52199753409E+02  0.00000000000E+00 0. -1.
<mgrwt>
<rscale>  0 0.12010777E+03</rscale>
<asrwt>0</asrwt>
<pdfrwt beam="1">  1        3 0.34509010E-01 0.12897427E+03</pdfrwt>
<pdfrwt beam="2">  1       -3 0.91082487E-02 0.12897427E+03</pdfrwt>
<totfact> 0.16182091E+03</totfact>
</mgrwt>
</event>
<event>
 6    1  0.4705246E-006  0.4147885E+03  0.7546771E-02  0.1038776E+00
          2   -1    0    0  501    0  0.00000000000E+00  0.00000000000E+00  0.13764980197E+04  0.13764980197E+04  0.00000000000E+00 0. -1.
         -2   -1    0    0    0  501 -0.00000000000E+00 -0.00000000000E+00 -0.31247684283E+02  0.31247684283E+02  0.00000000000E+00 0.  1.
          5    1    1    2  502    0  0.33985462227E+02 -0.66825534583E+02  0.11800211140E+04  0.11824096512E+04  0.47000000000E+01 0. -1.
         -5    1    1    2    0  502 -0.18177160461E+02  0.21483074584E+02  0.84614330189E+02  0.89295053219E+02  0.47000000000E+01 0. -1.
        -11    1    1    2    0    0 -0.39726016631E+02 -0.13824755172E+02  0.15394931647E+02  0.44791563640E+02  0.00000000000E+00 0.  1.
         11    1    1    2    0    0  0.23917714866E+02  0.59167215170E+02  0.65219959631E+02  0.91249435996E+02  0.00000000000E+00 0. -1.
<mgrwt>
<rscale>  0 0.41478850E+03</rscale>
<asrwt>0</asrwt>
<pdfrwt beam="1">  1        2 0.21176888E+00 0.41478850E+03</pdfrwt>
<pdfrwt beam="2">  1       -2 0.48073371E-02 0.41478850E+03</pdfrwt>
<totfact> 0.33142492E+03</totfact>
</mgrwt>
</event>
<event>
 6    1  0.4705246E-006  0.1531170E+03  0.7546771E-02  0.1205038E+00
         -1   -1    0    0    0  501 -0.00000000000E+00  0.00000000000E+00  0.58657148659E+02  0.58657148659E+02  0.00000000000E+00 0.  1.
          1   -1    0    0  501    0  0.00000000000E+00 -0.00000000000E+00 -0.34626745494E+03  0.34626745494E+03  0.00000000000E+00 0. -1.
          5    1    1    2  502    0 -0.84934552611E+02 -0.31930164156E+02 -0.14408941014E+03  0.17034453829E+03  0.47000000000E+01 0. -1.
         -5    1    1    2    0  502  0.29783728270E+00  0.57558038477E+02 -0.46574975324E+02  0.74191204512E+02  0.47000000000E+01 0. -1.
        -11    1    1    2    0    0  0.89201407842E+02  0.80460543899E+01 -0.50439013761E+02  0.10278970893E+03  0.00000000000E+00 0.  1.
         11    1    1    2    0    0 -0.45646925138E+01 -0.33673928712E+02 -0.46506907060E+02  0.57599151877E+02  0.00000000000E+00 0. -1.
<mgrwt>
<rscale>  0 0.14634498E+03</rscale>
<asrwt>0</asrwt>
<pdfrwt beam="2">  1        1 0.53271917E-01 0.15311702E+03</pdfrwt>
<pdfrwt beam="1">  1       -1 0.90241766E-02 0.15311702E+03</pdfrwt>
<totfact> 0.50416714E+03</totfact>
</mgrwt>
</event>
<event>
 6    1  0.4705246E-006  0.1550532E+03  0.7546771E-02  0.1202522E+00
         -2   -1    0    0    0  501 -0.00000000000E+00  0.00000000000E+00  0.45173895144E+02  0.45173895144E+02  0.00000000000E+00 0.  1.
          2   -1    0    0  501    0  0.00000000000E+00 -0.00000000000E+00 -0.83982007728E+03  0.83982007728E+03  0.00000000000E+00 0. -1.
          5    1    1    2  502    0 -0.39197924702E+02 -0.52728094984E+02 -0.26348409167E+03  0.27159286784E+03  0.47000000000E+01 0. -1.
         -5    1    1    2    0  502 -0.50514144529E+02  0.71939517371E+02 -0.45367608064E+03  0.46213747857E+03  0.47000000000E+01 0. -1.
        -11    1    1    2    0    0  0.26246842013E+02 -0.13366735889E+02  0.19417982230E+02  0.35279234372E+02  0.00000000000E+00 0.  1.
         11    1    1    2    0    0  0.63465227218E+02 -0.58446864979E+01 -0.96903992065E+02  0.11598439164E+03  0.00000000000E+00 0. -1.
<mgrwt>
<rscale>  0 0.14834444E+03</rscale>
<asrwt>0</asrwt>
<pdfrwt beam="2">  1        2 0.12920307E+00 0.15505324E+03</pdfrwt>
<pdfrwt beam="1">  1       -2 0.69498309E-02 0.15505324E+03</pdfrwt>
<totfact> 0.38535332E+03</totfact>
</mgrwt>
</event>
<event>
 6    1  0.4705246E-006  0.2030760E+03  0.7546771E-02  0.1151569E+00
          2   -1    0    0  501    0  0.00000000000E+00  0.00000000000E+00  0.12799201985E+03  0.12799201985E+03  0.00000000000E+00 0. -1.
         -2   -1    0    0    0  501 -0.00000000000E+00 -0.00000000000E+00 -0.38761760072E+03  0.38761760072E+03  0.00000000000E+00 0.  1.
          5    1    1    2  502    0 -0.81292269306E+02 -0.90080401633E+01 -0.24959665889E+02  0.85642587291E+02  0.47000000000E+01 0. -1.
         -5    1    1    2    0  502 -0.21063689420E+02 -0.11402741973E+03  0.18600306186E+02  0.11753294369E+03  0.47000000000E+01 0. -1.
        -11    1    1    2    0    0  0.89689290508E+02  0.68878832995E+02 -0.10593296455E+03  0.15495242962E+03  0.00000000000E+00 0. -1.
         11    1    1    2    0    0  0.12666668218E+02  0.54156626897E+02 -0.14733325662E+03  0.15748165997E+03  0.00000000000E+00 0.  1.
<mgrwt>
<rscale>  0 0.19784632E+03</rscale>
<asrwt>0</asrwt>
<pdfrwt beam="1">  1        2 0.19691080E-01 0.20307598E+03</pdfrwt>
<pdfrwt beam="2">  1       -2 0.59633477E-01 0.20307598E+03</pdfrwt>
<totfact> 0.75429336E+02</totfact>
</mgrwt>
</event>
<event>
 6    1  0.4705246E-006  0.2047449E+03  0.7546771E-02  0.1169698E+00
          2   -1    0    0  501    0  0.00000000000E+00  0.00000000000E+00  0.19953627092E+04  0.19953627092E+04  0.00000000000E+00 0. -1.
         -2   -1    0    0    0  501 -0.00000000000E+00 -0.00000000000E+00 -0.13868147109E+02  0.13868147109E+02  0.00000000000E+00 0.  1.
          5    1    1    2  502    0  0.31748612547E+01 -0.21337458620E+02  0.14058215923E+04  0.14059949525E+04  0.47000000000E+01 0. -1.
         -5    1    1    2    0  502  0.49620064279E+02 -0.18882152299E+00  0.82824653523E+02  0.96665400552E+02  0.47000000000E+01 0.  1.
        -11    1    1    2    0    0  0.27985015014E+02  0.61948923495E+01  0.67261308294E+02  0.73113756230E+02  0.00000000000E+00 0.  1.
         11    1    1    2    0    0 -0.80779940548E+02  0.15331387793E+02  0.42558700794E+03  0.43345674706E+03  0.00000000000E+00 0. -1.
<mgrwt>
<rscale>  0 0.17805585E+03</rscale>
<asrwt>0</asrwt>
<pdfrwt beam="1">  1        2 0.30697865E+00 0.20474494E+03</pdfrwt>
<pdfrwt beam="2">  1       -2 0.21335627E-02 0.20474494E+03</pdfrwt>
<totfact> 0.52376553E+03</totfact>
</mgrwt>
</event>
<event>
 6    1  0.4705246E-006  0.1780724E+03  0.7546771E-02  0.1175630E+00
         -1   -1    0    0    0  501 -0.00000000000E+00  0.00000000000E+00  0.99250959205E+02  0.99250959205E+02  0.00000000000E+00 0.  1.
          1   -1    0    0  501    0  0.00000000000E+00 -0.00000000000E+00 -0.29623646881E+03  0.29623646881E+03  0.00000000000E+00 0. -1.
          5    1    1    2  502    0 -0.10410679897E+02  0.85956982383E+02 -0.11714323473E+03  0.14574502571E+03  0.47000000000E+01 0. -1.
         -5    1    1    2    0  502 -0.80634987474E+02  0.23371610610E+01 -0.33403960062E+02  0.87437852641E+02  0.47000000000E+01 0. -1.
        -11    1    1    2    0    0 -0.12960506831E+02  0.19216803197E+01 -0.17082093084E+02  0.21528248807E+02  0.00000000000E+00 0. -1.
         11    1    1    2    0    0  0.10400617420E+03 -0.90215823764E+02 -0.29356221732E+02  0.14077630086E+03  0.00000000000E+00 0.  1.
<mgrwt>
<rscale>  0 0.17214468E+03</rscale>
<asrwt>0</asrwt>
<pdfrwt beam="2">  1        1 0.45574841E-01 0.17807245E+03</pdfrwt>
<pdfrwt beam="1">  1       -1 0.15269378E-01 0.17807245E+03</pdfrwt>
<totfact> 0.27309251E+03</totfact>
</mgrwt>
</event>
<event>
 6    1  0.6382716E-006  0.1322919E+03  0.7546771E-02  0.1237035E+00
         -3   -1    0    0    0  501 -0.00000000000E+00  0.00000000000E+00  0.19102773429E+02  0.19102773429E+02  0.00000000000E+00 0.  1.
          3   -1    0    0  501    0  0.00000000000E+00 -0.00000000000E+00 -0.73209465924E+03  0.73209465924E+03  0.00000000000E+00 0. -1.
          5    1    1    2  502    0 -0.45433521659E+02 -0.22395266499E+02 -0.18953937466E+03  0.19624733731E+03  0.47000000000E+01 0. -1.
         -5    1    1    2    0  502  0.81083492239E+02 -0.22115987746E+01 -0.27152225896E+03  0.28341815572E+03  0.47000000000E+01 0. -1.
        -11    1    1    2    0    0 -0.56376344043E+02  0.59296033448E+01 -0.84245196694E+02  0.10154164431E+03  0.00000000000E+00 0.  1.
         11    1    1    2    0    0  0.20726373463E+02  0.18677261929E+02 -0.16768505550E+03  0.16999029533E+03  0.00000000000E+00 0. -1.
<mgrwt>
<rscale>  0 0.12375062E+03</rscale>
<asrwt>0</asrwt>
<pdfrwt beam="2">  1        3 0.11262994E+00 0.13229193E+03</pdfrwt>
<pdfrwt beam="1">  1       -3 0.29388885E-02 0.13229193E+03</pdfrwt>
<totfact> 0.83444823E+02</totfact>
</mgrwt>
</event>
<event>
 6    1  0.4705246E-006  0.1431861E+03  0.7546771E-02  0.1218798E+00
         -1   -1    0    0    0  501 -0.00000000000E+00  0.00000000000E+00  0.23604444647E+03  0.23604444647E+03  0.00000000000E+00 0.  1.
          1   -1    0    0  501    0  0.00000000000E+00 -0.00000000000E+00 -0.73262049007E+02  0.73262049007E+02  0.00000000000E+00 0. -1.
          5    1    1    2  502    0 -0.51466136421E+02  0.25802055399E+02 -0.62291180453E+00  0.57766662358E+02  0.47000000000E+01 0.  1.
         -5    1    1    2    0  502  0.60494662931E+02  0.43444442769E+02  0.66055541970E+02  0.99661670042E+02  0.47000000000E+01 0.  1.
        -11    1    1    2    0    0  0.16324895164E+02 -0.68681088776E+02  0.24474912352E+02  0.74716902320E+02  0.00000000000E+00 0. -1.
         11    1    1    2    0    0 -0.25353421674E+02 -0.56540939241E+00  0.72874854949E+02  0.77161260761E+02  0.00000000000E+00 0.  1.
<mgrwt>
<rscale>  0 0.13601224E+03</rscale>
<asrwt>0</asrwt>
<pdfrwt beam="2">  1        1 0.11271085E-01 0.14318607E+03</pdfrwt>
<pdfrwt beam="1">  1       -1 0.36314530E-01 0.14318607E+03</pdfrwt>
<totfact> 0.38504518E+03</totfact>
</mgrwt>
</event>
<event>
 6    1  0.4705246E-006  0.2684528E+03  0.7546771E-02  0.1136575E+00
         -1   -1    0    0    0  501 -0.00000000000E+00  0.00000000000E+00  0.75781764795E+02  0.75781764795E+02  0.00000000000E+00 0.  1.
          1   -1    0    0  501    0  0.00000000000E+00 -0.00000000000E+00 -0.49462022241E+03  0.49462022241E+03  0.00000000000E+00 0. -1.
          5    1    1    2  502    0  0.12062943323E+03  0.60255861834E+02 -0.17416939938E+03  0.22031636055E+03  0.47000000000E+01 0. -1.
         -5    1    1    2    0  502 -0.13302227618E+03  0.94477508770E+01 -0.16124026367E+03  0.20929572041E+03  0.47000000000E+01 0.  1.
        -11    1    1    2    0    0  0.26007198286E+02 -0.14409190389E+02 -0.78132477196E+02  0.83598344022E+02  0.00000000000E+00 0. -1.
         11    1    1    2    0    0 -0.13614355339E+02 -0.55294422321E+02 -0.52963173698E+01  0.57191562217E+02  0.00000000000E+00 0.  1.
<mgrwt>
<rscale>  0 0.21642733E+03</rscale>
<asrwt>0</asrwt>
<pdfrwt beam="2">  1        1 0.76095418E-01 0.26845279E+03</pdfrwt>
<pdfrwt beam="1">  1       -1 0.11658733E-01 0.26845279E+03</pdfrwt>
<totfact> 0.21910195E+03</totfact>
</mgrwt>
</event>
<event>
 6    1  0.4705246E-006  0.1313280E+03  0.7546771E-02  0.1238336E+00
          2   -1    0    0  501    0  0.00000000000E+00  0.00000000000E+00  0.77095719530E+03  0.77095719530E+03  0.00000000000E+00 0. -1.
         -2   -1    0    0    0  501 -0.00000000000E+00 -0.00000000000E+00 -0.27232588078E+02  0.27232588078E+02  0.00000000000E+00 0.  1.
          5    1    1    2  502    0  0.51135437418E+02  0.47164732427E+02  0.23055679530E+03  0.24086899095E+03  0.47000000000E+01 0.  1.
         -5    1    1    2    0  502 -0.49041829226E+02 -0.70324481049E+01  0.41019161547E+03  0.41319947693E+03  0.47000000000E+01 0.  1.
        -11    1    1    2    0    0 -0.22481380791E+02  0.48345501170E+01 -0.66099351153E+01  0.23926483221E+02  0.00000000000E+00 0.  1.
         11    1    1    2    0    0  0.20387772599E+02 -0.44966834439E+02  0.10958613157E+03  0.12019483227E+03  0.00000000000E+00 0. -1.
<mgrwt>
<rscale>  0 0.12293237E+03</rscale>
<asrwt>0</asrwt>
<pdfrwt beam="1">  1        2 0.11860878E+00 0.13132797E+03</pdfrwt>
<pdfrwt beam="2">  1       -2 0.41896295E-02 0.13132797E+03</pdfrwt>
<totfact> 0.91380301E+03</totfact>
</mgrwt>
</event>
<event>
 6    1  0.4705246E-006  0.1401943E+03  0.7546771E-02  0.1224580E+00
          1   -1    0    0  501    0  0.00000000000E+00  0.00000000000E+00  0.86589491605E+03  0.86589491605E+03  0.00000000000E+00 0. -1.
         -1   -1    0    0    0  501 -0.00000000000E+00 -0.00000000000E+00 -0.19565351502E+02  0.19565351502E+02  0.00000000000E+00 0.  1.
          5    1    1    2  502    0 -0.62309846839E+02  0.52401657557E+02  0.29769879865E+03  0.30866667369E+03  0.47000000000E+01 0.  1.
         -5    1    1    2    0  502  0.55472111334E+02  0.10695307255E+02  0.29381440330E+03  0.29923325069E+03  0.47000000000E+01 0.  1.
        -11    1    1    2    0    0 -0.16656349170E+02 -0.79450822590E+02  0.19608265130E+03  0.21222222626E+03  0.00000000000E+00 0. -1.
         11    1    1    2    0    0  0.23494084676E+02  0.16353857777E+02  0.58733711301E+02  0.65338116916E+02  0.00000000000E+00 0.  1.
<mgrwt>
<rscale>  0 0.13195733E+03</rscale>
<asrwt>0</asrwt>
<pdfrwt beam="1">  1        1 0.13321457E+00 0.14019433E+03</pdfrwt>
<pdfrwt beam="2">  1       -1 0.30100547E-02 0.14019433E+03</pdfrwt>
<totfact> 0.73918658E+03</totfact>
</mgrwt>
</event>
<event>
 6    1  0.4705246E-006  0.1945790E+03  0.7546771E-02  0.1162079E+00
         -2   -1    0    0    0  501 -0.00000000000E+00  0.00000000000E+00  0.23026891814E+02  0.23026891814E+02  0.00000000000E+00 0. -1.
          2   -1    0    0  501    0  0.00000000000E+00 -0.00000000000E+00 -0.14100583018E+04  0.14100583018E+04  0.00000000000E+00 0.  1.
          5    1    1    2  502    0 -0.15995866686E+02 -0.12205807743E+02 -0.29935658349E+03  0.30006883139E+03  0.47000000000E+01 0.  1.
         -5    1    1    2    0  502  0.12844985847E+03 -0.85726998564E+02 -0.54981044228E+03  0.57110602945E+03  0.47000000000E+01 0.  1.
        -11    1    1    2    0    0 -0.60841947126E+02  0.67161796165E+02 -0.21207341179E+03  0.23062432955E+03  0.00000000000E+00 0. -1.
         11    1    1    2    0    0 -0.51612044661E+02  0.30771010142E+02 -0.32579097244E+03  0.33128600324E+03  0.00000000000E+00 0.  1.
<mgrwt>
<rscale>  0 0.18604382E+03</rscale>
<asrwt>0</asrwt>
<pdfrwt beam="2">  1        2 0.21693210E+00 0.19457903E+03</pdfrwt>
<pdfrwt beam="1">  1       -2 0.35425979E-02 0.19457903E+03</pdfrwt>
<totfact> 0.50032848E+03</totfact>
</mgrwt>
</event>
<event>
 6    1  0.4705246E-006  0.1363889E+03  0.7546771E-02  0.1234233E+00
          1   -1    0    0  501    0  0.00000000000E+00  0.00000000000E+00  0.31400851620E+02  0.31400851620E+02  0.00000000000E+00 0. -1.
         -1   -1    0    0    0  501 -0.00000000000E+00 -0.00000000000E+00 -0.44462372828E+03  0.44462372828E+03  0.00000000000E+00 0.  1.
          5    1    1    2  502    0 -0.37787510774E+02 -0.85332995200E+02 -0.17040398533E+03  0.19434305816E+03  0.47000000000E+01 0. -1.
         -5    1    1    2    0  502  0.11457156260E+02  0.37546248638E+02 -0.38806610845E+02  0.55398829064E+02  0.47000000000E+01 0. -1.
        -11    1    1    2    0    0  0.36633346445E+02  0.61329307444E+02 -0.19353747094E+03  0.20630084509E+03  0.00000000000E+00 0.  1.
         11    1    1    2    0    0 -0.10302991931E+02 -0.13542560881E+02 -0.10474809537E+02  0.19981847582E+02  0.00000000000E+00 0. -1.
<mgrwt>
<rscale>  0 0.12553682E+03</rscale>
<asrwt>0</asrwt>
<pdfrwt beam="1">  1        1 0.48309007E-02 0.13638892E+03</pdfrwt>
<pdfrwt beam="2">  1       -1 0.68403644E-01 0.13638892E+03</pdfrwt>
<totfact> 0.37643275E+03</totfact>
</mgrwt>
</event>
<event>
 6    1  0.4705246E-006  0.1367116E+03  0.7546771E-02  0.1229259E+00
          1   -1    0    0  501    0  0.00000000000E+00  0.00000000000E+00  0.16553635862E+02  0.16553635862E+02  0.00000000000E+00 0. -1.
         -1   -1    0    0    0  501 -0.00000000000E+00 -0.00000000000E+00 -0.94224670758E+03  0.94224670758E+03  0.00000000000E+00 0.  1.
          5    1    1    2  502    0  0.40275301386E+02 -0.44737211662E+02 -0.19736351338E+03  0.20639274315E+03  0.47000000000E+01 0. -1.
         -5    1    1    2    0  502  0.55987056163E+01  0.75746900094E+02 -0.21974744488E+03  0.23255100066E+03  0.47000000000E+01 0. -1.
        -11    1    1    2    0    0 -0.30517202769E+02 -0.64050816048E+02 -0.31733586965E+03  0.32517051045E+03  0.00000000000E+00 0.  1.
         11    1    1    2    0    0 -0.15356804233E+02  0.33041127616E+02 -0.19124624381E+03  0.19468608918E+03  0.00000000000E+00 0. -1.
<mgrwt>
<rscale>  0 0.12879185E+03</rscale>
<asrwt>0</asrwt>
<pdfrwt beam="1">  1        1 0.25467126E-02 0.13671159E+03</pdfrwt>
<pdfrwt beam="2">  1       -1 0.14496107E+00 0.13671159E+03</pdfrwt>
<totfact> 0.17269590E+03</totfact>
</mgrwt>
</event>
<event>
 6    1  0.4705246E-006  0.2954111E+03  0.7546771E-02  0.1089173E+00
         -1   -1    0    0    0  501 -0.00000000000E+00  0.00000000000E+00  0.48744404323E+02  0.48744404323E+02  0.00000000000E+00 0.  1.
          1   -1    0    0  501    0  0.00000000000E+00 -0.00000000000E+00 -0.17366654123E+04  0.17366654123E+04  0.00000000000E+00 0. -1.
          5    1    1    2  502    0 -0.25269723940E+03  0.65477470553E+02 -0.86664752303E+03  0.90512055170E+03  0.47000000000E+01 0. -1.
         -5    1    1    2    0  502 -0.12737406469E+02 -0.30974902511E+02 -0.92495240995E+02  0.98484240951E+02  0.47000000000E+01 0. -1.
        -11    1    1    2    0    0  0.91025688933E+02 -0.14483968036E+02 -0.14168979554E+03  0.16903094254E+03  0.00000000000E+00 0.  1.
         11    1    1    2    0    0  0.17440895694E+03 -0.20018600007E+02 -0.58708844843E+03  0.61277408144E+03  0.00000000000E+00 0. -1.
<mgrwt>
<rscale>  0 0.29226387E+03</rscale>
<asrwt>0</asrwt>
<pdfrwt beam="2">  1        1 0.26717926E+00 0.29541113E+03</pdfrwt>
<pdfrwt beam="1">  1       -1 0.74991401E-02 0.29541113E+03</pdfrwt>
<totfact> 0.47462944E+02</totfact>
</mgrwt>
</event>
<event>
 6    1  0.4705246E-006  0.2293651E+03  0.7546771E-02  0.1130107E+00
          4   -1    0    0  501    0  0.00000000000E+00  0.00000000000E+00  0.87295386151E+03  0.87295386151E+03  0.00000000000E+00 0. -1.
         -4   -1    0    0    0  501 -0.00000000000E+00 -0.00000000000E+00 -0.56552965699E+02  0.56552965699E+02  0.00000000000E+00 0.  1.
          5    1    1    2  502    0 -0.84042814398E+02 -0.11796446833E+03  0.37281214692E+03  0.39998724646E+03  0.47000000000E+01 0. -1.
         -5    1    1    2    0  502  0.32713463015E+02 -0.67375358773E+02  0.95329867749E+02  0.12132387777E+03  0.47000000000E+01 0. -1.
        -11    1    1    2    0    0  0.65723528938E+02  0.76722069209E+02  0.19736565078E+03  0.22171842112E+03  0.00000000000E+00 0.  1.
         11    1    1    2    0    0 -0.14394177554E+02  0.10861775789E+03  0.15089323037E+03  0.18647728186E+03  0.00000000000E+00 0. -1.
<mgrwt>
<rscale>  0 0.22514124E+03</rscale>
<asrwt>0</asrwt>
<pdfrwt beam="1">  1        4 0.13430058E+00 0.22936509E+03</pdfrwt>
<pdfrwt beam="2">  1       -4 0.87004569E-02 0.22936509E+03</pdfrwt>
<totfact> 0.72874444E+01</totfact>
</mgrwt>
</event>
<event>
 6    1  0.4705246E-006  0.1672203E+03  0.7546771E-02  0.1187861E+00
         -1   -1    0    0    0  501 -0.00000000000E+00  0.00000000000E+00  0.31688625803E+03  0.31688625803E+03  0.00000000000E+00 0.  1.
          1   -1    0    0  501    0  0.00000000000E+00 -0.00000000000E+00 -0.76085707743E+02  0.76085707743E+02  0.00000000000E+00 0. -1.
          5    1    1    2  502    0 -0.10007186950E+03  0.24789789968E+02  0.11774098280E+03  0.15656928748E+03  0.47000000000E+01 0. -1.
         -5    1    1    2    0  502  0.21306911680E+02  0.53531244707E+02  0.23811884072E+02  0.62519392738E+02  0.47000000000E+01 0. -1.
        -11    1    1    2    0    0  0.14654640691E+02 -0.75660136723E+02  0.66763604152E+02  0.10196368776E+03  0.00000000000E+00 0. -1.
         11    1    1    2    0    0  0.64110317132E+02 -0.26608979520E+01  0.32484079265E+02  0.71919597791E+02  0.00000000000E+00 0.  1.
<mgrwt>
<rscale>  0 0.16074276E+03</rscale>
<asrwt>0</asrwt>
<pdfrwt beam="2">  1        1 0.11705494E-01 0.16722032E+03</pdfrwt>
<pdfrwt beam="1">  1       -1 0.48751731E-01 0.16722032E+03</pdfrwt>
<totfact> 0.21882661E+03</totfact>
</mgrwt>
</event>
<event>
 6    1  0.4705246E-006  0.1598965E+03  0.7546771E-02  0.1196985E+00
          2   -1    0    0  501    0  0.00000000000E+00  0.00000000000E+00  0.93979243874E+02  0.93979243874E+02  0.00000000000E+00 0. -1.
         -2   -1    0    0    0  501 -0.00000000000E+00 -0.00000000000E+00 -0.23210512826E+03  0.23210512826E+03  0.00000000000E+00 0.  1.
          5    1    1    2  502    0 -0.58446868644E+02  0.41726564108E+02  0.30071837475E+02  0.77997102610E+02  0.47000000000E+01 0. -1.
         -5    1    1    2    0  502 -0.27370465319E+02  0.90604022185E+01 -0.86931537397E+02  0.91708317258E+02  0.47000000000E+01 0. -1.
        -11    1    1    2    0    0  0.72818682158E+02 -0.41289754840E+02 -0.10082555403E+03  0.13104654392E+03  0.00000000000E+00 0.  1.
         11    1    1    2    0    0  0.12998651804E+02 -0.94972114869E+01  0.19559369572E+02  0.25332408350E+02  0.00000000000E+00 0. -1.
<mgrwt>
<rscale>  0 0.15287436E+03</rscale>
<asrwt>0</asrwt>
<pdfrwt beam="1">  1        2 0.14458345E-01 0.15989654E+03</pdfrwt>
<pdfrwt beam="2">  1       -2 0.35708481E-01 0.15989654E+03</pdfrwt>
<totfact> 0.29253948E+03</totfact>
</mgrwt>
</event>
<event>
 6    1  0.4705246E-006  0.1409558E+03  0.7546771E-02  0.1224093E+00
          2   -1    0    0  501    0  0.00000000000E+00  0.00000000000E+00  0.47407660585E+02  0.47407660585E+02  0.00000000000E+00 0.  1.
         -2   -1    0    0    0  501 -0.00000000000E+00 -0.00000000000E+00 -0.33807299055E+03  0.33807299055E+03  0.00000000000E+00 0. -1.
          5    1    1    2  502    0 -0.37399013196E+02 -0.86527272960E+02 -0.82070506967E+02  0.12507323162E+03  0.47000000000E+01 0.  1.
         -5    1    1    2    0  502 -0.12076227928E+02  0.44147752042E+02 -0.52456558267E+02  0.69775638990E+02  0.47000000000E+01 0.  1.
        -11    1    1    2    0    0  0.62070340450E+02  0.44715901847E+02 -0.15991969362E+03  0.17727534360E+03  0.00000000000E+00 0. -1.
         11    1    1    2    0    0 -0.12595099325E+02 -0.23363809288E+01  0.37814288879E+01  0.13356436924E+02  0.00000000000E+00 0.  1.
<mgrwt>
<rscale>  0 0.13229234E+03</rscale>
<asrwt>0</asrwt>
<pdfrwt beam="1">  1        2 0.72934862E-02 0.14095585E+03</pdfrwt>
<pdfrwt beam="2">  1       -2 0.52011230E-01 0.14095585E+03</pdfrwt>
<totfact> 0.32582836E+03</totfact>
</mgrwt>
</event>
<event>
 6    1  0.4705246E-006  0.1335580E+03  0.7546771E-02  0.1254104E+00
         -1   -1    0    0    0  501 -0.00000000000E+00  0.00000000000E+00  0.27792864567E+03  0.27792864567E+03  0.00000000000E+00 0.  1.
          1   -1    0    0  501    0  0.00000000000E+00 -0.00000000000E+00 -0.39691614687E+02  0.39691614687E+02  0.00000000000E+00 0. -1.
          5    1    1    2  502    0  0.26639237586E+00  0.70675155371E+02  0.11968240008E+03  0.13907197935E+03  0.47000000000E+01 0.  1.
         -5    1    1    2    0  502  0.22906681033E+02 -0.29747993939E+02 -0.34305349255E+01  0.37993654065E+02  0.47000000000E+01 0.  1.
        -11    1    1    2    0    0  0.21559734428E+01 -0.41908414635E+02  0.56844621030E+02  0.70656028608E+02  0.00000000000E+00 0. -1.
         11    1    1    2    0    0 -0.25329046851E+02  0.98125320314E+00  0.65140544800E+02  0.69898598334E+02  0.00000000000E+00 0.  1.
<mgrwt>
<rscale>  0 0.11356690E+03</rscale>
<asrwt>0</asrwt>
<pdfrwt beam="2">  1        1 0.61064024E-02 0.13355801E+03</pdfrwt>
<pdfrwt beam="1">  1       -1 0.42758252E-01 0.13355801E+03</pdfrwt>
<totfact> 0.65432289E+03</totfact>
</mgrwt>
</event>
<event>
 6    1  0.4705246E-006  0.1518529E+03  0.7546771E-02  0.1207880E+00
         -2   -1    0    0    0  501 -0.00000000000E+00  0.00000000000E+00  0.68409280529E+02  0.68409280529E+02  0.00000000000E+00 0. -1.
          2   -1    0    0  501    0  0.00000000000E+00 -0.00000000000E+00 -0.29615611211E+03  0.29615611211E+03  0.00000000000E+00 0.  1.
          5    1    1    2  502    0 -0.53158007787E+02 -0.85475756242E+02 -0.10514801985E+03  0.14563679060E+03  0.47000000000E+01 0. -1.
         -5    1    1    2    0  502 -0.22891774637E+02  0.44843751035E+02 -0.66464110828E+02  0.83513851433E+02  0.47000000000E+01 0. -1.
        -11    1    1    2    0    0  0.53563338477E+02 -0.20977000386E+02 -0.23217508051E+02  0.62033204448E+02  0.00000000000E+00 0.  1.
         11    1    1    2    0    0  0.22486443948E+02  0.61609005593E+02 -0.32917192849E+02  0.73381546159E+02  0.00000000000E+00 0. -1.
<mgrwt>
<rscale>  0 0.14412783E+03</rscale>
<asrwt>0</asrwt>
<pdfrwt beam="2">  1        2 0.45562479E-01 0.15185287E+03</pdfrwt>
<pdfrwt beam="1">  1       -2 0.10524505E-01 0.15185287E+03</pdfrwt>
<totfact> 0.65116683E+03</totfact>
</mgrwt>
</event>
<event>
 6    1  0.4705246E-006  0.1627195E+03  0.7546771E-02  0.1193541E+00
         -2   -1    0    0    0  501 -0.00000000000E+00  0.00000000000E+00  0.16334715871E+02  0.16334715871E+02  0.00000000000E+00 0.  1.
          2   -1    0    0  501    0  0.00000000000E+00 -0.00000000000E+00 -0.13800933453E+04  0.13800933453E+04  0.00000000000E+00 0. -1.
          5    1    1    2  502    0 -0.23566806265E+02  0.26334637603E+02 -0.58038099443E+03  0.58147493169E+03  0.47000000000E+01 0.  1.
         -5    1    1    2    0  502 -0.80312240085E+02 -0.18491486002E+02 -0.21332702166E+03  0.22874111815E+03  0.47000000000E+01 0.  1.
        -11    1    1    2    0    0  0.98246502469E+02 -0.22311711476E+02 -0.55667637276E+03  0.56571969358E+03  0.00000000000E+00 0. -1.
         11    1    1    2    0    0  0.56325438811E+01  0.14468559875E+02 -0.13374240578E+02  0.20492317743E+02  0.00000000000E+00 0.  1.
<mgrwt>
<rscale>  0 0.15578355E+03</rscale>
<asrwt>0</asrwt>
<pdfrwt beam="2">  1        2 0.21232206E+00 0.16271949E+03</pdfrwt>
<pdfrwt beam="1">  1       -2 0.25130331E-02 0.16271949E+03</pdfrwt>
<totfact> 0.85834105E+03</totfact>
</mgrwt>
</event>
<event>
 6    1  0.4705246E-006  0.1267832E+03  0.7546771E-02  0.1244942E+00
          2   -1    0    0  501    0  0.00000000000E+00  0.00000000000E+00  0.67270515119E+03  0.67270515119E+03  0.00000000000E+00 0.  1.
         -2   -1    0    0    0  501 -0.00000000000E+00 -0.00000000000E+00 -0.18915333148E+02  0.18915333148E+02  0.00000000000E+00 0. -1.
          5    1    1    2  502    0  0.38217107361E+02  0.31594300201E+02  0.83194046248E+02  0.96964356499E+02  0.47000000000E+01 0. -1.
         -5    1    1    2    0  502 -0.57199021009E+02 -0.22257302137E+02  0.31387878713E+03  0.31985793489E+03  0.47000000000E+01 0. -1.
        -11    1    1    2    0    0 -0.31387281759E+02 -0.63523418152E+01  0.35115619621E+02  0.47524945493E+02  0.00000000000E+00 0. -1.
         11    1    1    2    0    0  0.50369195407E+02 -0.29846562486E+01  0.22160136504E+03  0.22727324745E+03  0.00000000000E+00 0.  1.
<mgrwt>
<rscale>  0 0.11888834E+03</rscale>
<asrwt>0</asrwt>
<pdfrwt beam="1">  1        2 0.10349308E+00 0.12678323E+03</pdfrwt>
<pdfrwt beam="2">  1       -2 0.29100518E-02 0.12678323E+03</pdfrwt>
<totfact> 0.18374441E+04</totfact>
</mgrwt>
</event>
<event>
 6    1  0.4705246E-006  0.1802117E+03  0.7546771E-02  0.1186542E+00
         -2   -1    0    0    0  501 -0.00000000000E+00  0.00000000000E+00  0.65662947495E+02  0.65662947495E+02  0.00000000000E+00 0.  1.
          2   -1    0    0  501    0  0.00000000000E+00 -0.00000000000E+00 -0.53518880972E+03  0.53518880972E+03  0.00000000000E+00 0. -1.
          5    1    1    2  502    0 -0.69297247677E+02  0.49073008433E+02 -0.20876124083E+03  0.22541875336E+03  0.47000000000E+01 0. -1.
         -5    1    1    2    0  502  0.92432252878E+02  0.22143087520E+02 -0.23727361154E+03  0.25564603348E+03  0.47000000000E+01 0.  1.
        -11    1    1    2    0    0  0.21386165939E+02 -0.35306845434E+02  0.21935080037E+02  0.46744937312E+02  0.00000000000E+00 0.  1.
         11    1    1    2    0    0 -0.44521171140E+02 -0.35909250519E+02 -0.45426089888E+02  0.73042033070E+02  0.00000000000E+00 0. -1.
<mgrwt>
<rscale>  0 0.16192376E+03</rscale>
<asrwt>0</asrwt>
<pdfrwt beam="2">  1        2 0.82336740E-01 0.18021165E+03</pdfrwt>
<pdfrwt beam="1">  1       -2 0.10101992E-01 0.18021165E+03</pdfrwt>
<totfact> 0.36937603E+03</totfact>
</mgrwt>
</event>
<event>
 6    1  0.4705246E-006  0.4622682E+03  0.7546771E-02  0.1024125E+00
         -2   -1    0    0    0  501 -0.00000000000E+00  0.00000000000E+00  0.51853949887E+03  0.51853949887E+03  0.00000000000E+00 0.  1.
          2   -1    0    0  501    0  0.00000000000E+00 -0.00000000000E+00 -0.10302583317E+03  0.10302583317E+03  0.00000000000E+00 0. -1.
          5    1    1    2  502    0 -0.56877726779E+02 -0.61636203034E+01  0.42625820074E+02  0.71499066818E+02  0.47000000000E+01 0.  1.
         -5    1    1    2    0  502 -0.39939520124E+02  0.14949574461E+03  0.71824050216E+02  0.17066026812E+03  0.47000000000E+01 0.  1.
        -11    1    1    2    0    0  0.28684388217E+02 -0.15842741830E+03  0.21511139519E+03  0.26869118582E+03  0.00000000000E+00 0.  1.
         11    1    1    2    0    0  0.68132858686E+02  0.15095293988E+02  0.85952400223E+02  0.11071481128E+03  0.00000000000E+00 0. -1.
<mgrwt>
<rscale>  0 0.46226816E+03</rscale>
<asrwt>0</asrwt>
<pdfrwt beam="2">  1        2 0.15850129E-01 0.46226816E+03</pdfrwt>
<pdfrwt beam="1">  1       -2 0.79775306E-01 0.46226816E+03</pdfrwt>
<totfact> 0.52589222E+02</totfact>
</mgrwt>
</event>
<event>
 6    1  0.4705246E-006  0.1430287E+03  0.7546771E-02  0.1219709E+00
         -1   -1    0    0    0  501 -0.00000000000E+00  0.00000000000E+00  0.49684399264E+02  0.49684399264E+02  0.00000000000E+00 0. -1.
          1   -1    0    0  501    0  0.00000000000E+00 -0.00000000000E+00 -0.38876677793E+03  0.38876677793E+03  0.00000000000E+00 0.  1.
          5    1    1    2  502    0  0.80397975990E+02 -0.37223864881E+00 -0.15938410804E+03  0.17857591384E+03  0.47000000000E+01 0.  1.
         -5    1    1    2    0  502 -0.34353949026E+02 -0.51697773073E+02 -0.10775548661E+03  0.12444351509E+03  0.47000000000E+01 0.  1.
        -11    1    1    2    0    0 -0.31383001297E+02  0.71640382628E+02 -0.77766988402E+02  0.11029479443E+03  0.00000000000E+00 0.  1.
         11    1    1    2    0    0 -0.14661025667E+02 -0.19570370907E+02  0.58242043937E+01  0.25136953830E+02  0.00000000000E+00 0. -1.
<mgrwt>
<rscale>  0 0.13536273E+03</rscale>
<asrwt>0</asrwt>
<pdfrwt beam="2">  1        1 0.59810273E-01 0.14302871E+03</pdfrwt>
<pdfrwt beam="1">  1       -1 0.76437538E-02 0.14302871E+03</pdfrwt>
<totfact> 0.55851993E+03</totfact>
</mgrwt>
</event>
<event>
 6    1  0.4705246E-006  0.1322370E+03  0.7546771E-02  0.1237413E+00
          1   -1    0    0  501    0  0.00000000000E+00  0.00000000000E+00  0.77495992686E+03  0.77495992686E+03  0.00000000000E+00 0. -1.
         -1   -1    0    0    0  501 -0.00000000000E+00 -0.00000000000E+00 -0.27458162299E+02  0.27458162299E+02  0.00000000000E+00 0.  1.
          5    1    1    2  502    0  0.18330735219E+02  0.97510157988E+01  0.12527588026E+02  0.24700781860E+02  0.47000000000E+01 0. -1.
         -5    1    1    2    0  502  0.16348601723E+02 -0.35406455657E+02  0.63378548024E+03  0.63500158964E+03  0.47000000000E+01 0. -1.
        -11    1    1    2    0    0  0.15153878232E+02 -0.25214278818E+02  0.30583813822E+02  0.42435475132E+02  0.00000000000E+00 0. -1.
         11    1    1    2    0    0 -0.49833215174E+02  0.50869718676E+02  0.70604882479E+02  0.10028024253E+03  0.00000000000E+00 0.  1.
<mgrwt>
<rscale>  0 0.12351186E+03</rscale>
<asrwt>0</asrwt>
<pdfrwt beam="1">  1        1 0.11922459E+00 0.13223705E+03</pdfrwt>
<pdfrwt beam="2">  1       -1 0.42243333E-02 0.13223705E+03</pdfrwt>
<totfact> 0.53153042E+03</totfact>
</mgrwt>
</event>
<event>
 6    1  0.4705246E-006  0.1991081E+03  0.7546771E-02  0.1154807E+00
          2   -1    0    0  501    0  0.00000000000E+00  0.00000000000E+00  0.94054115259E+02  0.94054115259E+02  0.00000000000E+00 0. -1.
         -2   -1    0    0    0  501 -0.00000000000E+00 -0.00000000000E+00 -0.39979480321E+03  0.39979480321E+03  0.00000000000E+00 0.  1.
          5    1    1    2  502    0  0.19949543166E+02 -0.91275962913E+02  0.18521071972E+01  0.93567120183E+02  0.47000000000E+01 0. -1.
         -5    1    1    2    0  502 -0.41553466126E+02 -0.62224839788E+02 -0.10970510088E+03  0.13287558238E+03  0.47000000000E+01 0. -1.
        -11    1    1    2    0    0 -0.17011441667E+02 -0.47618623418E-01 -0.41553511910E+02  0.44900843724E+02  0.00000000000E+00 0.  1.
         11    1    1    2    0    0  0.38615364628E+02  0.15354842132E+03 -0.15633418236E+03  0.22250537218E+03  0.00000000000E+00 0. -1.
<mgrwt>
<rscale>  0 0.19410877E+03</rscale>
<asrwt>0</asrwt>
<pdfrwt beam="1">  1        2 0.14469864E-01 0.19910808E+03</pdfrwt>
<pdfrwt beam="2">  1       -2 0.61506892E-01 0.19910808E+03</pdfrwt>
<totfact> 0.10131072E+03</totfact>
</mgrwt>
</event>
<event>
 6    1  0.4705246E-006  0.1257966E+03  0.7546771E-02  0.1247688E+00
          3   -1    0    0  501    0  0.00000000000E+00  0.00000000000E+00  0.73522588865E+02  0.73522588865E+02  0.00000000000E+00 0. -1.
         -3   -1    0    0    0  501 -0.00000000000E+00 -0.00000000000E+00 -0.18254915197E+03  0.18254915197E+03  0.00000000000E+00 0.  1.
          5    1    1    2  502    0 -0.60293756750E+02  0.15768580737E+02 -0.38394610676E+02  0.73349992300E+02  0.47000000000E+01 0. -1.
         -5    1    1    2    0  502  0.51865843556E+02 -0.44139548954E+01  0.15495538161E+02  0.54513763661E+02  0.47000000000E+01 0. -1.
        -11    1    1    2    0    0  0.38774881195E+02  0.23939258566E+02 -0.27037598923E+02  0.52986897134E+02  0.00000000000E+00 0. -1.
         11    1    1    2    0    0 -0.30346968001E+02 -0.35293884408E+02 -0.59089891666E+02  0.75221087738E+02  0.00000000000E+00 0.  1.
<mgrwt>
<rscale>  0 0.11725960E+03</rscale>
<asrwt>0</asrwt>
<pdfrwt beam="1">  1        3 0.11311168E-01 0.12579655E+03</pdfrwt>
<pdfrwt beam="2">  1       -3 0.28084484E-01 0.12579655E+03</pdfrwt>
<totfact> 0.16506995E+03</totfact>
</mgrwt>
</event>
<event>
 6    1  0.4705246E-006  0.3064016E+03  0.7546771E-02  0.1082084E+00
         -2   -1    0    0    0  501 -0.00000000000E+00  0.00000000000E+00  0.10311815049E+03  0.10311815049E+03  0.00000000000E+00 0.  1.
          2   -1    0    0  501    0  0.00000000000E+00 -0.00000000000E+00 -0.22760766348E+03  0.22760766348E+03  0.00000000000E+00 0. -1.
          5    1    1    2  502    0  0.60475178360E+02 -0.76344339814E+02 -0.15255855059E+03  0.18105774432E+03  0.47000000000E+01 0.  1.
         -5    1    1    2    0  502  0.76365947000E-01  0.18611307248E+02  0.13753364632E+02  0.23614225119E+02  0.47000000000E+01 0.  1.
        -11    1    1    2    0    0  0.18724537062E+02  0.24050497164E+02  0.24784783694E+02  0.39285114291E+02  0.00000000000E+00 0.  1.
         11    1    1    2    0    0 -0.79276081370E+02  0.33682535401E+02 -0.10469110725E+02  0.86768730242E+02  0.00000000000E+00 0. -1.
<mgrwt>
<rscale>  0 0.30640158E+03</rscale>
<asrwt>0</asrwt>
<pdfrwt beam="2">  1        2 0.35016563E-01 0.30640158E+03</pdfrwt>
<pdfrwt beam="1">  1       -2 0.15864331E-01 0.30640158E+03</pdfrwt>
<totfact> 0.46008550E+03</totfact>
</mgrwt>
</event>
<event>
 6    1  0.4705246E-006  0.1270291E+03  0.7546771E-02  0.1245018E+00
          1   -1    0    0  501    0  0.00000000000E+00  0.00000000000E+00  0.33177736668E+03  0.33177736668E+03  0.00000000000E+00 0. -1.
         -1   -1    0    0    0  501 -0.00000000000E+00 -0.00000000000E+00 -0.38078412450E+02  0.38078412450E+02  0.00000000000E+00 0.  1.
          5    1    1    2  502    0  0.13432686228E+02 -0.13869690339E+02 -0.17305015864E+02  0.26350691518E+02  0.47000000000E+01 0.  1.
         -5    1    1    2    0  502 -0.24007144246E+02 -0.60888567433E+01  0.17190307689E+03  0.17374169043E+03  0.47000000000E+01 0.  1.
        -11    1    1    2    0    0  0.23217697205E+02 -0.34166196265E+02  0.67246172269E+02  0.78920454355E+02  0.00000000000E+00 0. -1.
         11    1    1    2    0    0 -0.12643239187E+02  0.54124743348E+02  0.71854720933E+02  0.90842942819E+02  0.00000000000E+00 0.  1.
<mgrwt>
<rscale>  0 0.11884322E+03</rscale>
<asrwt>0</asrwt>
<pdfrwt beam="1">  1        1 0.51042670E-01 0.12702913E+03</pdfrwt>
<pdfrwt beam="2">  1       -1 0.58582175E-02 0.12702913E+03</pdfrwt>
<totfact> 0.10057891E+04</totfact>
</mgrwt>
</event>
<event>
 6    1  0.4705246E-006  0.1424418E+03  0.7546771E-02  0.1222157E+00
         -1   -1    0    0    0  501 -0.00000000000E+00  0.00000000000E+00  0.26828339992E+02  0.26828339992E+02  0.00000000000E+00 0.  1.
          1   -1    0    0  501    0  0.00000000000E+00 -0.00000000000E+00 -0.59846045573E+03  0.59846045573E+03  0.00000000000E+00 0. -1.
          5    1    1    2  502    0  0.43704561164E+02 -0.59265610784E+01 -0.61615380612E+02  0.75919417284E+02  0.47000000000E+01 0.  1.
         -5    1    1    2    0  502 -0.69370646534E+02 -0.57323835313E+02 -0.28206768342E+03  0.29611243933E+03  0.47000000000E+01 0.  1.
        -11    1    1    2    0    0 -0.28823075893E+02  0.18918497808E+02 -0.11670270852E+03  0.12168895364E+03  0.00000000000E+00 0. -1.
         11    1    1    2    0    0  0.54489161263E+02  0.44331898583E+02 -0.11124634319E+03  0.13156798547E+03  0.00000000000E+00 0.  1.
<mgrwt>
<rscale>  0 0.13363689E+03</rscale>
<asrwt>0</asrwt>
<pdfrwt beam="2">  1        1 0.92070831E-01 0.14244176E+03</pdfrwt>
<pdfrwt beam="1">  1       -1 0.41274373E-02 0.14244176E+03</pdfrwt>
<totfact> 0.79670831E+03</totfact>
</mgrwt>
</event>
<event>
 6    1  0.4705246E-006  0.2299953E+03  0.7546771E-02  0.1129738E+00
         -2   -1    0    0    0  501 -0.00000000000E+00  0.00000000000E+00  0.23517279638E+02  0.23517279638E+02  0.00000000000E+00 0. -1.
          2   -1    0    0  501    0  0.00000000000E+00 -0.00000000000E+00 -0.21677029723E+04  0.21677029723E+04  0.00000000000E+00 0.  1.
          5    1    1    2  502    0  0.15261207344E+02 -0.15560793352E+03 -0.72747537712E+03  0.74410298194E+03  0.47000000000E+01 0.  1.
         -5    1    1    2    0  502 -0.51661165847E+02 -0.33993088464E+02 -0.59493078407E+03  0.59815477425E+03  0.47000000000E+01 0.  1.
        -11    1    1    2    0    0 -0.81234313154E+01  0.88707603431E+02 -0.52190977231E+03  0.52945711769E+03  0.00000000000E+00 0. -1.
         11    1    1    2    0    0  0.44523389818E+02  0.10089341855E+03 -0.29986975920E+03  0.31950537810E+03  0.00000000000E+00 0.  1.
<mgrwt>
<rscale>  0 0.22565241E+03</rscale>
<asrwt>0</asrwt>
<pdfrwt beam="2">  1        2 0.33349265E+00 0.22999528E+03</pdfrwt>
<pdfrwt beam="1">  1       -2 0.36180443E-02 0.22999528E+03</pdfrwt>
<totfact> 0.19424735E+03</totfact>
</mgrwt>
</event>
<event>
 6    1  0.4705246E-006  0.2551606E+03  0.7546771E-02  0.1135219E+00
         -2   -1    0    0    0  501 -0.00000000000E+00  0.00000000000E+00  0.20535611782E+02  0.20535611782E+02  0.00000000000E+00 0.  1.
          2   -1    0    0  501    0  0.00000000000E+00 -0.00000000000E+00 -0.37323627643E+04  0.37323627643E+04  0.00000000000E+00 0. -1.
          5    1    1    2  502    0 -0.25944811598E+01 -0.17634322672E+03 -0.20669374137E+04  0.20744531875E+04  0.47000000000E+01 0. -1.
         -5    1    1    2    0  502  0.81678178659E+01  0.72479517299E+02 -0.13659032422E+04  0.13678573576E+04  0.47000000000E+01 0.  1.
        -11    1    1    2    0    0  0.12204817117E+01  0.37930990277E+02 -0.21546709400E+03  0.21878372471E+03  0.00000000000E+00 0. -1.
         11    1    1    2    0    0 -0.67938184178E+01  0.65932719140E+02 -0.63519402606E+02  0.91804106277E+02  0.00000000000E+00 0.  1.
<mgrwt>
<rscale>  0 0.21821805E+03</rscale>
<asrwt>0</asrwt>
<pdfrwt beam="2">  1        2 0.57420923E+00 0.25516058E+03</pdfrwt>
<pdfrwt beam="1">  1       -2 0.31593273E-02 0.25516058E+03</pdfrwt>
<totfact> 0.27730522E+02</totfact>
</mgrwt>
</event>
<event>
 6    1  0.4705246E-006  0.1261695E+03  0.7546771E-02  0.1248641E+00
          1   -1    0    0  501    0  0.00000000000E+00  0.00000000000E+00  0.23272337332E+03  0.23272337332E+03  0.00000000000E+00 0. -1.
         -1   -1    0    0    0  501 -0.00000000000E+00 -0.00000000000E+00 -0.52257035658E+02  0.52257035658E+02  0.00000000000E+00 0.  1.
          5    1    1    2  502    0 -0.24344011476E+01 -0.55801427882E+02  0.60356243430E+02  0.82369240518E+02  0.47000000000E+01 0. -1.
         -5    1    1    2    0  502 -0.73478878169E+01  0.69317052164E+02  0.62690601218E+02  0.93867175611E+02  0.47000000000E+01 0. -1.
        -11    1    1    2    0    0 -0.18364497525E+02 -0.37650241573E+02  0.18379224458E+01  0.41930578565E+02  0.00000000000E+00 0. -1.
         11    1    1    2    0    0  0.28146786489E+02  0.24134617291E+02  0.55581570566E+02  0.66813414282E+02  0.00000000000E+00 0.  1.
<mgrwt>
<rscale>  0 0.11670068E+03</rscale>
<asrwt>0</asrwt>
<pdfrwt beam="1">  1        1 0.35803596E-01 0.12616952E+03</pdfrwt>
<pdfrwt beam="2">  1       -1 0.80395440E-02 0.12616952E+03</pdfrwt>
<totfact> 0.97019295E+03</totfact>
</mgrwt>
</event>
<event>
 6    1  0.4705246E-006  0.1328852E+03  0.7546771E-02  0.1238046E+00
          2   -1    0    0  501    0  0.00000000000E+00  0.00000000000E+00  0.74213979694E+02  0.74213979694E+02  0.00000000000E+00 0. -1.
         -2   -1    0    0    0  501 -0.00000000000E+00 -0.00000000000E+00 -0.27072551643E+03  0.27072551643E+03  0.00000000000E+00 0.  1.
          5    1    1    2  502    0 -0.59538708924E+02  0.20319361298E+02 -0.13044539642E+02  0.64420371920E+02  0.47000000000E+01 0. -1.
         -5    1    1    2    0  502  0.66235229446E+02  0.17292149400E+02  0.43091746971E+01  0.68751603888E+02  0.47000000000E+01 0.  1.
        -11    1    1    2    0    0  0.22460740325E+02 -0.58044221076E+02 -0.12308769132E+03  0.13792822848E+03  0.00000000000E+00 0.  1.
         11    1    1    2    0    0 -0.29157260846E+02  0.20432710378E+02 -0.64688480467E+02  0.73839291834E+02  0.00000000000E+00 0. -1.
<mgrwt>
<rscale>  0 0.12311466E+03</rscale>
<asrwt>0</asrwt>
<pdfrwt beam="1">  1        2 0.11417535E-01 0.13288517E+03</pdfrwt>
<pdfrwt beam="2">  1       -2 0.41650079E-01 0.13288517E+03</pdfrwt>
<totfact> 0.28740032E+03</totfact>
</mgrwt>
</event>
<event>
 6    1  0.4705246E-006  0.1336317E+03  0.7546771E-02  0.1234898E+00
          1   -1    0    0  501    0  0.00000000000E+00  0.00000000000E+00  0.80449543477E+03  0.80449543477E+03  0.00000000000E+00 0.  1.
         -1   -1    0    0    0  501 -0.00000000000E+00 -0.00000000000E+00 -0.19110294283E+02  0.19110294283E+02  0.00000000000E+00 0. -1.
          5    1    1    2  502    0 -0.87087770252E+02  0.65203439060E+01  0.37956593897E+03  0.38951147177E+03  0.47000000000E+01 0.  1.
         -5    1    1    2    0  502  0.41581136504E+02 -0.19276656502E+02  0.18379324846E+03  0.18947988964E+03  0.47000000000E+01 0.  1.
        -11    1    1    2    0    0  0.91635115574E+01  0.48280774232E+02  0.81365610054E+02  0.95054540154E+02  0.00000000000E+00 0.  1.
         11    1    1    2    0    0  0.36343122191E+02 -0.35524461636E+02  0.14066034301E+03  0.14955982750E+03  0.00000000000E+00 0. -1.
<mgrwt>
<rscale>  0 0.12510957E+03</rscale>
<asrwt>0</asrwt>
<pdfrwt beam="1">  1        1 0.12376850E+00 0.13363167E+03</pdfrwt>
<pdfrwt beam="2">  1       -1 0.29400459E-02 0.13363167E+03</pdfrwt>
<totfact> 0.85421338E+03</totfact>
</mgrwt>
</event>
<event>
 6    1  0.4705246E-006  0.2225337E+03  0.7546771E-02  0.1135428E+00
          1   -1    0    0  501    0  0.00000000000E+00  0.00000000000E+00  0.47410633521E+03  0.47410633521E+03  0.00000000000E+00 0. -1.
         -1   -1    0    0    0  501 -0.00000000000E+00 -0.00000000000E+00 -0.10264020527E+03  0.10264020527E+03  0.00000000000E+00 0.  1.
          5    1    1    2  502    0 -0.94239144401E+02 -0.15424469301E+03  0.19411722999E+03  0.26528481042E+03  0.47000000000E+01 0.  1.
         -5    1    1    2    0  502 -0.32437999355E+02  0.20641727420E+02  0.70729451199E+02  0.80641490437E+02  0.47000000000E+01 0.  1.
        -11    1    1    2    0    0  0.81551995890E+02  0.22742023939E+02  0.37432699354E+02  0.92569620651E+02  0.00000000000E+00 0.  1.
         11    1    1    2    0    0  0.45125147866E+02  0.11086094165E+03  0.69186749394E+02  0.13825061897E+03  0.00000000000E+00 0. -1.
<mgrwt>
<rscale>  0 0.21793997E+03</rscale>
<asrwt>0</asrwt>
<pdfrwt beam="1">  1        1 0.72939435E-01 0.22253369E+03</pdfrwt>
<pdfrwt beam="2">  1       -1 0.15790801E-01 0.22253369E+03</pdfrwt>
<totfact> 0.14310679E+03</totfact>
</mgrwt>
</event>
<event>
 6    1  0.4705246E-006  0.1404249E+03  0.7546771E-02  0.1223177E+00
          1   -1    0    0  501    0  0.00000000000E+00  0.00000000000E+00  0.16469675547E+04  0.16469675547E+04  0.00000000000E+00 0. -1.
         -1   -1    0    0    0  501 -0.00000000000E+00 -0.00000000000E+00 -0.15574331182E+02  0.15574331182E+02  0.00000000000E+00 0.  1.
          5    1    1    2  502    0  0.34040118372E+02 -0.14924426969E+02  0.28321383639E+03  0.28568100270E+03  0.47000000000E+01 0.  1.
         -5    1    1    2    0  502 -0.94146314569E+02  0.36858809028E+02  0.10955279331E+04  0.11001934569E+04  0.47000000000E+01 0.  1.
        -11    1    1    2    0    0  0.19019525461E+02  0.32497174962E+02  0.14005450497E+03  0.14502783558E+03  0.00000000000E+00 0.  1.
         11    1    1    2    0    0  0.41086670736E+02 -0.54431557020E+02  0.11259694907E+03  0.13163959075E+03  0.00000000000E+00 0. -1.
<mgrwt>
<rscale>  0 0.13292610E+03</rscale>
<asrwt>0</asrwt>
<pdfrwt beam="1">  1        1 0.25337949E+00 0.14042489E+03</pdfrwt>
<pdfrwt beam="2">  1       -1 0.23960522E-02 0.14042489E+03</pdfrwt>
<totfact> 0.29918640E+03</totfact>
</mgrwt>
</event>
<event>
 6    1  0.4705246E-006  0.1279245E+03  0.7546771E-02  0.1241876E+00
         -1   -1    0    0    0  501 -0.00000000000E+00  0.00000000000E+00  0.46417926634E+02  0.46417926634E+02  0.00000000000E+00 0.  1.
          1   -1    0    0  501    0  0.00000000000E+00 -0.00000000000E+00 -0.28852065627E+03  0.28852065627E+03  0.00000000000E+00 0. -1.
          5    1    1    2  502    0  0.14285941152E+02  0.56438648499E+02 -0.74700396365E+02  0.94824302666E+02  0.47000000000E+01 0.  1.
         -5    1    1    2    0  502 -0.41436526327E+02 -0.55539436125E+02 -0.81860915640E+02  0.10735415310E+03  0.47000000000E+01 0.  1.
        -11    1    1    2    0    0  0.59537673534E+02 -0.11947529505E+02 -0.30513396248E+02  0.67959880677E+02  0.00000000000E+00 0.  1.
         11    1    1    2    0    0 -0.32387088359E+02  0.11048317132E+02 -0.55028021385E+02  0.64800246461E+02  0.00000000000E+00 0. -1.
<mgrwt>
<rscale>  0 0.12074293E+03</rscale>
<asrwt>0</asrwt>
<pdfrwt beam="2">  1        1 0.44387793E-01 0.12792452E+03</pdfrwt>
<pdfrwt beam="1">  1       -1 0.71412196E-02 0.12792452E+03</pdfrwt>
<totfact> 0.89016778E+03</totfact>
</mgrwt>
</event>
<event>
 6    1  0.5176210E-006  0.2092463E+03  0.7546771E-02  0.1146101E+00
         -1   -1    0    0    0  501 -0.00000000000E+00  0.00000000000E+00  0.35576165032E+03  0.35576165032E+03  0.00000000000E+00 0.  1.
          1   -1    0    0  501    0  0.00000000000E+00 -0.00000000000E+00 -0.11259843354E+03  0.11259843354E+03  0.00000000000E+00 0. -1.
          5    1    1    2  502    0 -0.19902025899E+02  0.17244648893E+01  0.21107698981E+02  0.29439588487E+02  0.47000000000E+01 0. -1.
         -5    1    1    2    0  502  0.18403155061E+03  0.33196960839E+02  0.93182771582E+02  0.20898509217E+03  0.47000000000E+01 0. -1.
        -11    1    1    2    0    0 -0.80097515635E+02  0.27657377720E+02  0.46497831975E+02  0.96657079056E+02  0.00000000000E+00 0.  1.
         11    1    1    2    0    0 -0.84032009076E+02 -0.62578803448E+02  0.82374914237E+02  0.13327832414E+03  0.00000000000E+00 0. -1.
<mgrwt>
<rscale>  0 0.20437369E+03</rscale>
<asrwt>0</asrwt>
<pdfrwt beam="2">  1        1 0.17322836E-01 0.20924631E+03</pdfrwt>
<pdfrwt beam="1">  1       -1 0.54732561E-01 0.20924631E+03</pdfrwt>
<totfact> 0.10635531E+03</totfact>
</mgrwt>
</event>
<event>
 6    1  0.4705246E-006  0.1259121E+03  0.7546771E-02  0.1248980E+00
          2   -1    0    0  501    0  0.00000000000E+00  0.00000000000E+00  0.88519821065E+02  0.88519821065E+02  0.00000000000E+00 0. -1.
         -2   -1    0    0    0  501 -0.00000000000E+00 -0.00000000000E+00 -0.13666203183E+03  0.13666203183E+03  0.00000000000E+00 0.  1.
          5    1    1    2  502    0  0.53007468587E+02 -0.13365466559E+01 -0.57488366469E+02  0.78349092925E+02  0.47000000000E+01 0. -1.
         -5    1    1    2    0  502 -0.50008012892E+02 -0.13551722252E+02  0.15657954823E+02  0.54329661131E+02  0.47000000000E+01 0. -1.
        -11    1    1    2    0    0  0.10911845958E+02  0.51582109524E+02 -0.74313032429E+01  0.53244780711E+02  0.00000000000E+00 0.  1.
         11    1    1    2    0    0 -0.13911301652E+02 -0.36693840616E+02  0.11195041217E+01  0.39258318129E+02  0.00000000000E+00 0. -1.
<mgrwt>
<rscale>  0 0.11650282E+03</rscale>
<asrwt>0</asrwt>
<pdfrwt beam="1">  1        2 0.13618434E-01 0.12591215E+03</pdfrwt>
<pdfrwt beam="2">  1       -2 0.21024928E-01 0.12591215E+03</pdfrwt>
<totfact> 0.79156559E+03</totfact>
</mgrwt>
</event>
<event>
 6    1  0.4705246E-006  0.1298235E+03  0.7546771E-02  0.1241214E+00
          2   -1    0    0  501    0  0.00000000000E+00  0.00000000000E+00  0.74860075664E+02  0.74860075664E+02  0.00000000000E+00 0. -1.
         -2   -1    0    0    0  501 -0.00000000000E+00 -0.00000000000E+00 -0.24855170959E+03  0.24855170959E+03  0.00000000000E+00 0.  1.
          5    1    1    2  502    0  0.42468690548E+02 -0.23432668114E+02 -0.54510238409E+02  0.73117273631E+02  0.47000000000E+01 0. -1.
         -5    1    1    2    0  502 -0.80719055980E+01  0.30280355426E+02  0.47269129582E+02  0.56907962502E+02  0.47000000000E+01 0. -1.
        -11    1    1    2    0    0 -0.20427632349E+02 -0.48756555476E+02 -0.10671926524E+03  0.11909446435E+03  0.00000000000E+00 0.  1.
         11    1    1    2    0    0 -0.13969152601E+02  0.41908868164E+02 -0.59731259862E+02  0.74292084773E+02  0.00000000000E+00 0. -1.
<mgrwt>
<rscale>  0 0.12114899E+03</rscale>
<asrwt>0</asrwt>
<pdfrwt beam="1">  1        2 0.11516935E-01 0.12982345E+03</pdfrwt>
<pdfrwt beam="2">  1       -2 0.38238725E-01 0.12982345E+03</pdfrwt>
<totfact> 0.33379385E+03</totfact>
</mgrwt>
</event>
<event>
 6    1  0.4705246E-006  0.1360935E+03  0.7546771E-02  0.1230803E+00
          2   -1    0    0  501    0  0.00000000000E+00  0.00000000000E+00  0.64327246648E+03  0.64327246648E+03  0.00000000000E+00 0. -1.
         -2   -1    0    0    0  501 -0.00000000000E+00 -0.00000000000E+00 -0.25085193574E+02  0.25085193574E+02  0.00000000000E+00 0.  1.
          5    1    1    2  502    0 -0.61104439542E+02  0.71409541764E+02  0.31121022073E+03  0.32512607812E+03  0.47000000000E+01 0. -1.
         -5    1    1    2    0  502  0.33010496322E+02 -0.25505499531E+02  0.13476993442E+03  0.14115682271E+03  0.47000000000E+01 0. -1.
        -11    1    1    2    0    0 -0.12808212466E+02  0.79542493872E+01 -0.19922199327E+01  0.15208199438E+02  0.00000000000E+00 0.  1.
         11    1    1    2    0    0  0.40902155686E+02 -0.53858291620E+02  0.17419933769E+03  0.18686655979E+03  0.00000000000E+00 0. -1.
<mgrwt>
<rscale>  0 0.12776975E+03</rscale>
<asrwt>0</asrwt>
<pdfrwt beam="1">  1        2 0.98964982E-01 0.13609351E+03</pdfrwt>
<pdfrwt beam="2">  1       -2 0.38592610E-02 0.13609351E+03</pdfrwt>
<totfact> 0.12835268E+04</totfact>
</mgrwt>
</event>
<event>
 6    1  0.4705246E-006  0.1268765E+03  0.7546771E-02  0.1247264E+00
          4   -1    0    0  501    0  0.00000000000E+00  0.00000000000E+00  0.10782048945E+03  0.10782048945E+03  0.00000000000E+00 0. -1.
         -4   -1    0    0    0  501 -0.00000000000E+00 -0.00000000000E+00 -0.11248840777E+03  0.11248840777E+03  0.00000000000E+00 0.  1.
          5    1    1    2  502    0 -0.57693497719E+02  0.29771368652E+02  0.29558307810E+02  0.71488863686E+02  0.47000000000E+01 0.  1.
         -5    1    1    2    0  502  0.44172370759E+02 -0.12743280305E+02 -0.30537329260E+02  0.55391407363E+02  0.47000000000E+01 0.  1.
        -11    1    1    2    0    0  0.39991921061E+02 -0.95132454186E+01  0.29291740520E+02  0.50476347443E+02  0.00000000000E+00 0. -1.
         11    1    1    2    0    0 -0.26470794100E+02 -0.75148429286E+01 -0.32980637396E+02  0.42952278724E+02  0.00000000000E+00 0.  1.
<mgrwt>
<rscale>  0 0.11750901E+03</rscale>
<asrwt>0</asrwt>
<pdfrwt beam="1">  1        4 0.16587768E-01 0.12687649E+03</pdfrwt>
<pdfrwt beam="2">  1       -4 0.17305909E-01 0.12687649E+03</pdfrwt>
<totfact> 0.14972050E+03</totfact>
</mgrwt>
</event>
<event>
 6    1  0.4705246E-006  0.1838713E+03  0.7546771E-02  0.1169692E+00
          2   -1    0    0  501    0  0.00000000000E+00  0.00000000000E+00  0.11652371278E+04  0.11652371278E+04  0.00000000000E+00 0. -1.
         -2   -1    0    0    0  501 -0.00000000000E+00 -0.00000000000E+00 -0.10629474239E+03  0.10629474239E+03  0.00000000000E+00 0.  1.
          5    1    1    2  502    0  0.55175175530E+02 -0.12290618112E+02  0.39456611447E+03  0.39862246296E+03  0.47000000000E+01 0.  1.
         -5    1    1    2    0  502  0.19540191141E+02  0.12452179216E+03  0.69667812540E+03  0.70800423459E+03  0.47000000000E+01 0.  1.
        -11    1    1    2    0    0 -0.92946575950E+02 -0.86808904393E+02 -0.12300107145E+02  0.12777380208E+03  0.00000000000E+00 0. -1.
         11    1    1    2    0    0  0.18231209279E+02 -0.25422269652E+02 -0.20001747287E+02  0.37131370572E+02  0.00000000000E+00 0.  1.
<mgrwt>
<rscale>  0 0.17806152E+03</rscale>
<asrwt>0</asrwt>
<pdfrwt beam="1">  1        2 0.17926724E+00 0.18387130E+03</pdfrwt>
<pdfrwt beam="2">  1       -2 0.16353038E-01 0.18387130E+03</pdfrwt>
<totfact> 0.62764793E+02</totfact>
</mgrwt>
</event>
<event>
 6    1  0.4705246E-006  0.1257325E+03  0.7546771E-02  0.1249476E+00
          2   -1    0    0  501    0  0.00000000000E+00  0.00000000000E+00  0.17968313555E+03  0.17968313555E+03  0.00000000000E+00 0. -1.
         -2   -1    0    0    0  501 -0.00000000000E+00 -0.00000000000E+00 -0.74507970082E+02  0.74507970082E+02  0.00000000000E+00 0.  1.
          5    1    1    2  502    0 -0.56273251248E+02 -0.65923081107E+00  0.14476654625E+02  0.58299030185E+02  0.47000000000E+01 0. -1.
         -5    1    1    2    0  502  0.53159035178E+02  0.13821233973E+02  0.88295751985E+02  0.10409197543E+03  0.47000000000E+01 0. -1.
        -11    1    1    2    0    0  0.13115637555E+02 -0.19200418347E+02  0.43364288369E+02  0.49205055827E+02  0.00000000000E+00 0. -1.
         11    1    1    2    0    0 -0.10001421485E+02  0.60384151847E+01 -0.40961529513E+02  0.42595044192E+02  0.00000000000E+00 0.  1.
<mgrwt>
<rscale>  0 0.11621424E+03</rscale>
<asrwt>0</asrwt>
<pdfrwt beam="1">  1        2 0.27643559E-01 0.12573254E+03</pdfrwt>
<pdfrwt beam="2">  1       -2 0.11462765E-01 0.12573254E+03</pdfrwt>
<totfact> 0.95903630E+03</totfact>
</mgrwt>
</event>
<event>
 6    1  0.4705246E-006  0.1403652E+03  0.7546771E-02  0.1222941E+00
          1   -1    0    0  501    0  0.00000000000E+00  0.00000000000E+00  0.48046572717E+03  0.48046572717E+03  0.00000000000E+00 0. -1.
         -1   -1    0    0    0  501 -0.00000000000E+00 -0.00000000000E+00 -0.45652245664E+02  0.45652245664E+02  0.00000000000E+00 0.  1.
          5    1    1    2  502    0  0.32682426995E+02 -0.33140496264E+02  0.60225878608E+02  0.76260605695E+02  0.47000000000E+01 0.  1.
         -5    1    1    2    0  502 -0.76993684869E+02 -0.12822294731E+02  0.30915469132E+03  0.31889050146E+03  0.47000000000E+01 0.  1.
        -11    1    1    2    0    0  0.56626442608E+02  0.97336715313E+01  0.72028086829E+02  0.92137634310E+02  0.00000000000E+00 0. -1.
         11    1    1    2    0    0 -0.12315184733E+02  0.36229119464E+02 -0.65951752563E+01  0.38829231370E+02  0.00000000000E+00 0.  1.
<mgrwt>
<rscale>  0 0.13309003E+03</rscale>
<asrwt>0</asrwt>
<pdfrwt beam="1">  1        1 0.73917801E-01 0.14036521E+03</pdfrwt>
<pdfrwt beam="2">  1       -1 0.70234227E-02 0.14036521E+03</pdfrwt>
<totfact> 0.48368148E+03</totfact>
</mgrwt>
</event>
<event>
 6    1  0.4705246E-006  0.1203481E+03  0.7546771E-02  0.1254125E+00
          3   -1    0    0  501    0  0.00000000000E+00  0.00000000000E+00  0.38537323115E+03  0.38537323115E+03  0.00000000000E+00 0. -1.
         -3   -1    0    0    0  501 -0.00000000000E+00 -0.00000000000E+00 -0.30475426679E+02  0.30475426679E+02  0.00000000000E+00 0.  1.
          5    1    1    2  502    0 -0.20962351104E+02 -0.39592359802E+02  0.98275431481E+02  0.10810700972E+03  0.47000000000E+01 0. -1.
         -5    1    1    2    0  502  0.50374574605E+02  0.49804198118E+02  0.79640924772E+02  0.10669031266E+03  0.47000000000E+01 0.  1.
        -11    1    1    2    0    0 -0.34745896397E+02  0.28925615433E+02  0.47059261171E+02  0.65257509962E+02  0.00000000000E+00 0.  1.
         11    1    1    2    0    0  0.53336728955E+01 -0.39137453748E+02  0.12992218705E+03  0.13579382548E+03  0.00000000000E+00 0. -1.
<mgrwt>
<rscale>  0 0.11355462E+03</rscale>
<asrwt>0</asrwt>
<pdfrwt beam="1">  1        3 0.59288186E-01 0.12034808E+03</pdfrwt>
<pdfrwt beam="2">  1       -3 0.46885274E-02 0.12034808E+03</pdfrwt>
<totfact> 0.16045692E+03</totfact>
</mgrwt>
</event>
<event>
 6    1  0.4705246E-006  0.2831034E+03  0.7546771E-02  0.1094006E+00
         -2   -1    0    0    0  501 -0.00000000000E+00  0.00000000000E+00  0.88615542243E+02  0.88615542243E+02  0.00000000000E+00 0. -1.
          2   -1    0    0  501    0  0.00000000000E+00 -0.00000000000E+00 -0.22611019518E+03  0.22611019518E+03  0.00000000000E+00 0.  1.
          5    1    1    2  502    0  0.11730091005E+02  0.23760461070E+02  0.12282899968E+02  0.29582328794E+02  0.47000000000E+01 0.  1.
         -5    1    1    2    0  502 -0.96707918570E+02 -0.26297365229E+02 -0.11811206572E+03  0.15497265243E+03  0.47000000000E+01 0.  1.
        -11    1    1    2    0    0  0.63111702764E+02 -0.42551587910E+02 -0.20552126896E+02  0.78842340017E+02  0.00000000000E+00 0.  1.
         11    1    1    2    0    0  0.21866124801E+02  0.45088492069E+02 -0.11113360287E+02  0.51328416182E+02  0.00000000000E+00 0. -1.
<mgrwt>
<rscale>  0 0.28310336E+03</rscale>
<asrwt>0</asrwt>
<pdfrwt beam="2">  1        2 0.34786183E-01 0.28310336E+03</pdfrwt>
<pdfrwt beam="1">  1       -2 0.13633161E-01 0.28310336E+03</pdfrwt>
<totfact> 0.59379040E+03</totfact>
</mgrwt>
</event>
<event>
 6    1  0.4705246E-006  0.1354281E+03  0.7546771E-02  0.1230497E+00
         -2   -1    0    0    0  501 -0.00000000000E+00  0.00000000000E+00  0.27251169423E+02  0.27251169423E+02  0.00000000000E+00 0.  1.
          2   -1    0    0  501    0  0.00000000000E+00 -0.00000000000E+00 -0.61256417545E+03  0.61256417545E+03  0.00000000000E+00 0. -1.
          5    1    1    2  502    0 -0.13012986919E+01  0.55677717691E+02 -0.91776941924E+02  0.10745603145E+03  0.47000000000E+01 0. -1.
         -5    1    1    2    0  502 -0.46961801739E+02 -0.36123714885E+02 -0.33696891052E+03  0.34217023579E+03  0.47000000000E+01 0. -1.
        -11    1    1    2    0    0  0.22869390715E+02 -0.52522265907E+02 -0.50933116287E+02  0.76653635154E+02  0.00000000000E+00 0.  1.
         11    1    1    2    0    0  0.25393709717E+02  0.32968263101E+02 -0.10563403730E+03  0.11353544249E+03  0.00000000000E+00 0. -1.
<mgrwt>
<rscale>  0 0.12797127E+03</rscale>
<asrwt>0</asrwt>
<pdfrwt beam="2">  1        2 0.94240634E-01 0.13542811E+03</pdfrwt>
<pdfrwt beam="1">  1       -2 0.41924880E-02 0.13542811E+03</pdfrwt>
<totfact> 0.12001804E+04</totfact>
</mgrwt>
</event>
<event>
 6    1  0.4705246E-006  0.2698709E+03  0.7546771E-02  0.1119766E+00
         -2   -1    0    0    0  501 -0.00000000000E+00  0.00000000000E+00  0.35253700712E+02  0.35253700712E+02  0.00000000000E+00 0.  1.
          2   -1    0    0  501    0  0.00000000000E+00 -0.00000000000E+00 -0.14863896721E+04  0.14863896721E+04  0.00000000000E+00 0. -1.
          5    1    1    2  502    0  0.80661939339E+01 -0.97481105714E+02 -0.10039646133E+04  0.10087292324E+04  0.47000000000E+01 0. -1.
         -5    1    1    2    0  502  0.74685640573E+02  0.83303271905E+01 -0.86719704705E+02  0.11484657785E+03  0.47000000000E+01 0.  1.
        -11    1    1    2    0    0 -0.50103372446E+02  0.10847085191E+03 -0.32451367073E+03  0.34581121459E+03  0.00000000000E+00 0.  1.
         11    1    1    2    0    0 -0.32648462060E+02 -0.19320073389E+02 -0.35937982639E+02  0.52256348005E+02  0.00000000000E+00 0. -1.
<mgrwt>
<rscale>  0 0.24004040E+03</rscale>
<asrwt>0</asrwt>
<pdfrwt beam="2">  1        2 0.22867530E+00 0.26987093E+03</pdfrwt>
<pdfrwt beam="1">  1       -2 0.54236471E-02 0.26987093E+03</pdfrwt>
<totfact> 0.23988716E+03</totfact>
</mgrwt>
</event>
<event>
 6    1  0.4705246E-006  0.1611403E+03  0.7546771E-02  0.1195452E+00
         -2   -1    0    0    0  501 -0.00000000000E+00  0.00000000000E+00  0.41064996120E+02  0.41064996120E+02  0.00000000000E+00 0.  1.
          2   -1    0    0  501    0  0.00000000000E+00 -0.00000000000E+00 -0.56626456263E+03  0.56626456263E+03  0.00000000000E+00 0. -1.
          5    1    1    2  502    0  0.35203325483E+01  0.29136107843E+02 -0.90862755459E+02  0.95600396710E+02  0.47000000000E+01 0.  1.
         -5    1    1    2    0  502 -0.48906574891E+02 -0.12008598155E+03 -0.26600206601E+03  0.29595892477E+03  0.47000000000E+01 0.  1.
        -11    1    1    2    0    0 -0.24324684407E+02  0.25559242794E+02 -0.71377541722E+02  0.79622350041E+02  0.00000000000E+00 0. -1.
         11    1    1    2    0    0  0.69710926749E+02  0.65390630917E+02 -0.96957203324E+02  0.13614788723E+03  0.00000000000E+00 0.  1.
<mgrwt>
<rscale>  0 0.15416022E+03</rscale>
<asrwt>0</asrwt>
<pdfrwt beam="2">  1        2 0.87117623E-01 0.16114032E+03</pdfrwt>
<pdfrwt beam="1">  1       -2 0.63176918E-02 0.16114032E+03</pdfrwt>
<totfact> 0.71505761E+03</totfact>
</mgrwt>
</event>
<event>
 6    1  0.4705246E-006  0.1858666E+03  0.7546771E-02  0.1167011E+00
         -2   -1    0    0    0  501 -0.00000000000E+00  0.00000000000E+00  0.10618451984E+03  0.10618451984E+03  0.00000000000E+00 0.  1.
          2   -1    0    0  501    0  0.00000000000E+00 -0.00000000000E+00 -0.30968437194E+03  0.30968437194E+03  0.00000000000E+00 0. -1.
          5    1    1    2  502    0 -0.15406786925E+02  0.19289261560E+02 -0.50493472222E+02  0.56401466576E+02  0.47000000000E+01 0. -1.
         -5    1    1    2    0  502  0.15284002262E+03 -0.13543977978E+02 -0.10572226268E+03  0.18639420237E+03  0.47000000000E+01 0. -1.
        -11    1    1    2    0    0 -0.12140149274E+03 -0.80061010004E+01  0.14981422505E+01  0.12167442016E+03  0.00000000000E+00 0.  1.
         11    1    1    2    0    0 -0.16031742954E+02  0.22608174186E+01 -0.48782259458E+02  0.51398802665E+02  0.00000000000E+00 0. -1.
<mgrwt>
<rscale>  0 0.18082034E+03</rscale>
<asrwt>0</asrwt>
<pdfrwt beam="2">  1        2 0.47643748E-01 0.18586657E+03</pdfrwt>
<pdfrwt beam="1">  1       -2 0.16336081E-01 0.18586657E+03</pdfrwt>
<totfact> 0.30769644E+03</totfact>
</mgrwt>
</event>
<event>
 6    1  0.4705246E-006  0.2610526E+03  0.7546771E-02  0.1106512E+00
         -2   -1    0    0    0  501 -0.00000000000E+00  0.00000000000E+00  0.22268332207E+02  0.22268332207E+02  0.00000000000E+00 0.  1.
          2   -1    0    0  501    0  0.00000000000E+00 -0.00000000000E+00 -0.76508255844E+03  0.76508255844E+03  0.00000000000E+00 0. -1.
          5    1    1    2  502    0  0.98688439112E+01  0.10550573435E+03 -0.31185572241E+03  0.32940087380E+03  0.47000000000E+01 0.  1.
         -5    1    1    2    0  502 -0.20615191530E+02 -0.31357314193E+02 -0.16214799967E+03  0.16650024346E+03  0.47000000000E+01 0.  1.
        -11    1    1    2    0    0  0.45299647999E+02 -0.25525190025E+02 -0.10624661707E+03  0.11828751867E+03  0.00000000000E+00 0.  1.
         11    1    1    2    0    0 -0.34553300380E+02 -0.48623230127E+02 -0.16256388708E+03  0.17316225472E+03  0.00000000000E+00 0. -1.
<mgrwt>
<rscale>  0 0.26105258E+03</rscale>
<asrwt>0</asrwt>
<pdfrwt beam="2">  1        2 0.11770500E+00 0.26105258E+03</pdfrwt>
<pdfrwt beam="1">  1       -2 0.34258976E-02 0.26105258E+03</pdfrwt>
<totfact> 0.12951072E+04</totfact>
</mgrwt>
</event>
<event>
 6    1  0.4705246E-006  0.4999474E+03  0.7546771E-02  0.1013793E+00
          1   -1    0    0  501    0  0.00000000000E+00  0.00000000000E+00  0.13419112544E+04  0.13419112544E+04  0.00000000000E+00 0. -1.
         -1   -1    0    0    0  501 -0.00000000000E+00 -0.00000000000E+00 -0.46565568413E+02  0.46565568413E+02  0.00000000000E+00 0.  1.
          5    1    1    2  502    0  0.82096466782E+02 -0.14045254406E+03  0.10563067067E+04  0.10687715825E+04  0.47000000000E+01 0. -1.
         -5    1    1    2    0  502  0.18354130091E+02  0.12176013713E+02  0.33048212905E+02  0.39992546525E+02  0.47000000000E+01 0.  1.
        -11    1    1    2    0    0 -0.17042174425E+02  0.97701429621E+02  0.92788665426E+02  0.13581510038E+03  0.00000000000E+00 0. -1.
         11    1    1    2    0    0 -0.83408422448E+02  0.30575100721E+02  0.11320210092E+03  0.14389759335E+03  0.00000000000E+00 0.  1.
<mgrwt>
<rscale>  0 0.49994744E+03</rscale>
<asrwt>0</asrwt>
<pdfrwt beam="1">  1        1 0.20644786E+00 0.49994744E+03</pdfrwt>
<pdfrwt beam="2">  1       -1 0.71639346E-02 0.49994744E+03</pdfrwt>
<totfact> 0.92145658E+02</totfact>
</mgrwt>
</event>
<event>
 6    1  0.4705246E-006  0.1575660E+03  0.7546771E-02  0.1199650E+00
          1   -1    0    0  501    0  0.00000000000E+00  0.00000000000E+00  0.27722820133E+03  0.27722820133E+03  0.00000000000E+00 0. -1.
         -1   -1    0    0    0  501 -0.00000000000E+00 -0.00000000000E+00 -0.87701118665E+02  0.87701118665E+02  0.00000000000E+00 0.  1.
          5    1    1    2  502    0  0.12188948984E+02 -0.98244176134E+02  0.58102213872E+02  0.11488448929E+03  0.47000000000E+01 0.  1.
         -5    1    1    2    0  502  0.31140499268E+02  0.12582315718E+02  0.11181883843E+03  0.11684856863E+03  0.47000000000E+01 0.  1.
        -11    1    1    2    0    0  0.26351705651E+02  0.13331791672E+02  0.13790798931E+02  0.32593483935E+02  0.00000000000E+00 0. -1.
         11    1    1    2    0    0 -0.69681153902E+02  0.72330068744E+02  0.58152314338E+01  0.10060277814E+03  0.00000000000E+00 0.  1.
<mgrwt>
<rscale>  0 0.15067137E+03</rscale>
<asrwt>0</asrwt>
<pdfrwt beam="1">  1        1 0.42650492E-01 0.15756601E+03</pdfrwt>
<pdfrwt beam="2">  1       -1 0.13492480E-01 0.15756601E+03</pdfrwt>
<totfact> 0.35837554E+03</totfact>
</mgrwt>
</event>
<event>
 6    1  0.4705246E-006  0.4466832E+03  0.7546771E-02  0.1028716E+00
          2   -1    0    0  501    0  0.00000000000E+00  0.00000000000E+00  0.15211387657E+04  0.15211387657E+04  0.00000000000E+00 0.  1.
         -2   -1    0    0    0  501 -0.00000000000E+00 -0.00000000000E+00 -0.32792192609E+02  0.32792192609E+02  0.00000000000E+00 0. -1.
          5    1    1    2  502    0 -0.62439221777E+02 -0.13697013464E+03  0.56477168744E+03  0.58450716260E+03  0.47000000000E+01 0. -1.
         -5    1    1    2    0  502  0.37161253420E+01 -0.23078204806E+02  0.52718841523E+03  0.52772732379E+03  0.47000000000E+01 0. -1.
        -11    1    1    2    0    0  0.51062601018E+02  0.20758465870E+02  0.10246601551E+03  0.11635113864E+03  0.00000000000E+00 0.  1.
         11    1    1    2    0    0  0.76604954166E+01  0.13928987357E+03  0.29392045492E+03  0.32534533329E+03  0.00000000000E+00 0. -1.
<mgrwt>
<rscale>  0 0.44668322E+03</rscale>
<asrwt>0</asrwt>
<pdfrwt beam="1">  1        2 0.23402129E+00 0.44668322E+03</pdfrwt>
<pdfrwt beam="2">  1       -2 0.50449539E-02 0.44668322E+03</pdfrwt>
<totfact> 0.25612958E+03</totfact>
</mgrwt>
</event>
<event>
 6    1  0.4705246E-006  0.2915485E+03  0.7546771E-02  0.1089543E+00
         -1   -1    0    0    0  501 -0.00000000000E+00  0.00000000000E+00  0.24789112595E+02  0.24789112595E+02  0.00000000000E+00 0.  1.
          1   -1    0    0  501    0  0.00000000000E+00 -0.00000000000E+00 -0.85723622045E+03  0.85723622045E+03  0.00000000000E+00 0. -1.
          5    1    1    2  502    0  0.10258718915E+02  0.20819159815E+02 -0.32624810008E+03  0.32710639177E+03  0.47000000000E+01 0. -1.
         -5    1    1    2    0  502 -0.52129119221E+02 -0.85587712014E+02 -0.30798797376E+03  0.32391570431E+03  0.47000000000E+01 0. -1.
        -11    1    1    2    0    0  0.69248942353E+00  0.70063787281E+02 -0.15961625706E+03  0.17431799491E+03  0.00000000000E+00 0. -1.
         11    1    1    2    0    0  0.41177910882E+02 -0.52952350823E+01 -0.38594776951E+02  0.56685242057E+02  0.00000000000E+00 0.  1.
<mgrwt>
<rscale>  0 0.29154845E+03</rscale>
<asrwt>0</asrwt>
<pdfrwt beam="2">  1        1 0.13188250E+00 0.29154845E+03</pdfrwt>
<pdfrwt beam="1">  1       -1 0.38137096E-02 0.29154845E+03</pdfrwt>
<totfact> 0.54582675E+03</totfact>
</mgrwt>
</event>
<event>
 6    1  0.4705246E-006  0.1206910E+03  0.7546771E-02  0.1254962E+00
          1   -1    0    0  501    0  0.00000000000E+00  0.00000000000E+00  0.77326742309E+02  0.77326742309E+02  0.00000000000E+00 0. -1.
         -1   -1    0    0    0  501 -0.00000000000E+00 -0.00000000000E+00 -0.14796739715E+03  0.14796739715E+03  0.00000000000E+00 0.  1.
          5    1    1    2  502    0  0.20300620626E+02 -0.34680363875E+02  0.34850744262E+02  0.53399505728E+02  0.47000000000E+01 0. -1.
         -5    1    1    2    0  502 -0.15138586721E+01  0.18303115775E+02 -0.69685484096E+02  0.72218089900E+02  0.47000000000E+01 0.  1.
        -11    1    1    2    0    0 -0.42310474359E+02  0.29210447386E+02 -0.47906799835E+02  0.70274376180E+02  0.00000000000E+00 0.  1.
         11    1    1    2    0    0  0.23523712405E+02 -0.12833199286E+02  0.12100884825E+02  0.29402167655E+02  0.00000000000E+00 0. -1.
<mgrwt>
<rscale>  0 0.11308480E+03</rscale>
<asrwt>0</asrwt>
<pdfrwt beam="1">  1        1 0.11896422E-01 0.12069102E+03</pdfrwt>
<pdfrwt beam="2">  1       -1 0.22764215E-01 0.12069102E+03</pdfrwt>
<totfact> 0.77364333E+03</totfact>
</mgrwt>
</event>
<event>
 6    1  0.4705246E-006  0.2723760E+03  0.7546771E-02  0.1142897E+00
         -2   -1    0    0    0  501 -0.00000000000E+00  0.00000000000E+00  0.12230141701E+03  0.12230141701E+03  0.00000000000E+00 0.  1.
          2   -1    0    0  501    0  0.00000000000E+00 -0.00000000000E+00 -0.31144230619E+03  0.31144230619E+03  0.00000000000E+00 0. -1.
          5    1    1    2  502    0  0.12277836480E+03  0.65321272951E+02 -0.15352460061E+03  0.20720349551E+03  0.47000000000E+01 0. -1.
         -5    1    1    2    0  502 -0.11127608301E+03 -0.51844006164E+02 -0.49208674340E+02  0.13233953020E+03  0.47000000000E+01 0.  1.
        -11    1    1    2    0    0 -0.30437756297E+02 -0.38784603713E+02 -0.15048122001E+02  0.51547536016E+02  0.00000000000E+00 0.  1.
         11    1    1    2    0    0  0.18935474509E+02  0.25307336926E+02  0.28640507774E+02  0.42653161462E+02  0.00000000000E+00 0. -1.
<mgrwt>
<rscale>  0 0.20832816E+03</rscale>
<asrwt>0</asrwt>
<pdfrwt beam="2">  1        2 0.47914201E-01 0.27237600E+03</pdfrwt>
<pdfrwt beam="1">  1       -2 0.18815603E-01 0.27237600E+03</pdfrwt>
<totfact> 0.24425907E+03</totfact>
</mgrwt>
</event>
<event>
 6    1  0.4705246E-006  0.1300241E+03  0.7546771E-02  0.1240876E+00
         -1   -1    0    0    0  501 -0.00000000000E+00  0.00000000000E+00  0.54974005715E+02  0.54974005715E+02  0.00000000000E+00 0.  1.
          1   -1    0    0  501    0  0.00000000000E+00 -0.00000000000E+00 -0.24196391293E+03  0.24196391293E+03  0.00000000000E+00 0. -1.
          5    1    1    2  502    0 -0.66355907569E+02  0.37586046700E+02 -0.63422812172E+02  0.99299347831E+02  0.47000000000E+01 0. -1.
         -5    1    1    2    0  502  0.30897682478E+02 -0.42424714396E+02 -0.61868018395E+02  0.81266628293E+02  0.47000000000E+01 0. -1.
        -11    1    1    2    0    0  0.12406754224E+01  0.36588860618E+02 -0.59226023211E+02  0.69627622552E+02  0.00000000000E+00 0. -1.
         11    1    1    2    0    0  0.34217549668E+02 -0.31750192922E+02 -0.24730534335E+01  0.46744319967E+02  0.00000000000E+00 0.  1.
<mgrwt>
<rscale>  0 0.12135667E+03</rscale>
<asrwt>0</asrwt>
<pdfrwt beam="2">  1        1 0.37225217E-01 0.13002415E+03</pdfrwt>
<pdfrwt beam="1">  1       -1 0.84575395E-02 0.13002415E+03</pdfrwt>
<totfact> 0.85857262E+03</totfact>
</mgrwt>
</event>
<event>
 6    1  0.4705246E-006  0.2853356E+03  0.7546771E-02  0.1093942E+00
         -2   -1    0    0    0  501 -0.00000000000E+00  0.00000000000E+00  0.17322294651E+03  0.17322294651E+03  0.00000000000E+00 0.  1.
          2   -1    0    0  501    0  0.00000000000E+00 -0.00000000000E+00 -0.46085240142E+03  0.46085240142E+03  0.00000000000E+00 0. -1.
          5    1    1    2  502    0  0.24719877158E+02  0.54359390716E+02 -0.58102215892E+02  0.83450423470E+02  0.47000000000E+01 0.  1.
         -5    1    1    2    0  502  0.22195196236E+03  0.15978365399E+02 -0.11920524028E+03  0.25248754635E+03  0.47000000000E+01 0.  1.
        -11    1    1    2    0    0 -0.23764169488E+03 -0.57775265066E+02 -0.69146346245E+02  0.25415108420E+03  0.00000000000E+00 0.  1.
         11    1    1    2    0    0 -0.90301446287E+01 -0.12562491050E+02 -0.41175652501E+02  0.43986293914E+02  0.00000000000E+00 0. -1.
<mgrwt>
<rscale>  0 0.28322197E+03</rscale>
<asrwt>0</asrwt>
<pdfrwt beam="2">  1        2 0.70900370E-01 0.28533557E+03</pdfrwt>
<pdfrwt beam="1">  1       -2 0.26649684E-01 0.28533557E+03</pdfrwt>
<totfact> 0.86732811E+02</totfact>
</mgrwt>
</event>
<event>
 6    1  0.4705246E-006  0.1372641E+03  0.7546771E-02  0.1231052E+00
         -2   -1    0    0    0  501 -0.00000000000E+00  0.00000000000E+00  0.27547839119E+02  0.27547839119E+02  0.00000000000E+00 0.  1.
          2   -1    0    0  501    0  0.00000000000E+00 -0.00000000000E+00 -0.55006829466E+03  0.55006829466E+03  0.00000000000E+00 0. -1.
          5    1    1    2  502    0 -0.33330155559E+02 -0.19889557632E+02 -0.74127356987E+02  0.83806019033E+02  0.47000000000E+01 0.  1.
         -5    1    1    2    0  502  0.81577240760E+02  0.49701405139E+02 -0.28787173455E+03  0.30334353699E+03  0.47000000000E+01 0.  1.
        -11    1    1    2    0    0 -0.55281172662E+02 -0.45304460911E+02 -0.15780476795E+03  0.17323639056E+03  0.00000000000E+00 0. -1.
         11    1    1    2    0    0  0.70340874615E+01  0.15492613404E+02 -0.27165960633E+01  0.17230187192E+02  0.00000000000E+00 0.  1.
<mgrwt>
<rscale>  0 0.12760574E+03</rscale>
<asrwt>0</asrwt>
<pdfrwt beam="2">  1        2 0.84625891E-01 0.13726411E+03</pdfrwt>
<pdfrwt beam="1">  1       -2 0.42381291E-02 0.13726411E+03</pdfrwt>
<totfact> 0.13349110E+04</totfact>
</mgrwt>
</event>
<event>
 6    1  0.4705246E-006  0.2077266E+03  0.7546771E-02  0.1161936E+00
          1   -1    0    0  501    0  0.00000000000E+00  0.00000000000E+00  0.72406740841E+02  0.72406740841E+02  0.00000000000E+00 0. -1.
         -1   -1    0    0    0  501 -0.00000000000E+00 -0.00000000000E+00 -0.44565006847E+03  0.44565006847E+03  0.00000000000E+00 0.  1.
          5    1    1    2  502    0 -0.11110779018E+03  0.85240826357E+02 -0.57912361645E+02  0.15161421816E+03  0.47000000000E+01 0. -1.
         -5    1    1    2    0  502  0.49318346252E+02 -0.17566377189E+02 -0.87062948469E+02  0.10170016657E+03  0.47000000000E+01 0.  1.
        -11    1    1    2    0    0  0.65863221636E+02 -0.12172264636E+02 -0.69580528730E+02  0.96579386874E+02  0.00000000000E+00 0. -1.
         11    1    1    2    0    0 -0.40737777039E+01 -0.55502184532E+02 -0.15868748879E+03  0.16816303771E+03  0.00000000000E+00 0.  1.
<mgrwt>
<rscale>  0 0.18619783E+03</rscale>
<asrwt>0</asrwt>
<pdfrwt beam="1">  1        1 0.11139498E-01 0.20772659E+03</pdfrwt>
<pdfrwt beam="2">  1       -1 0.68561551E-01 0.20772659E+03</pdfrwt>
<totfact> 0.12311387E+03</totfact>
</mgrwt>
</event>
<event>
 6    1  0.4705246E-006  0.1479190E+03  0.7546771E-02  0.1222505E+00
          1   -1    0    0  501    0  0.00000000000E+00  0.00000000000E+00  0.85644091830E+03  0.85644091830E+03  0.00000000000E+00 0. -1.
         -1   -1    0    0    0  501 -0.00000000000E+00 -0.00000000000E+00 -0.17642604508E+02  0.17642604508E+02  0.00000000000E+00 0.  1.
          5    1    1    2  502    0  0.56334937078E+02 -0.87955050940E+01  0.12132640723E+03  0.13413863402E+03  0.47000000000E+01 0. -1.
         -5    1    1    2    0  502 -0.68444295985E+02  0.44614892034E+02  0.37153859328E+03  0.38044464320E+03  0.47000000000E+01 0.  1.
        -11    1    1    2    0    0 -0.15795016648E+01  0.30234968050E+02  0.99957532778E+02  0.10444212023E+03  0.00000000000E+00 0.  1.
         11    1    1    2    0    0  0.13688860572E+02 -0.66054354990E+02  0.24597578050E+03  0.25505812536E+03  0.00000000000E+00 0. -1.
<mgrwt>
<rscale>  0 0.13339368E+03</rscale>
<asrwt>0</asrwt>
<pdfrwt beam="1">  1        1 0.13176011E+00 0.14791903E+03</pdfrwt>
<pdfrwt beam="2">  1       -1 0.27142475E-02 0.14791903E+03</pdfrwt>
<totfact> 0.87676900E+03</totfact>
</mgrwt>
</event>
<event>
 6    1  0.4705246E-006  0.1293161E+03  0.7546771E-02  0.1241838E+00
          4   -1    0    0  501    0  0.00000000000E+00  0.00000000000E+00  0.13134674742E+03  0.13134674742E+03  0.00000000000E+00 0. -1.
         -4   -1    0    0    0  501 -0.00000000000E+00 -0.00000000000E+00 -0.10412509363E+03  0.10412509363E+03  0.00000000000E+00 0.  1.
          5    1    1    2  502    0 -0.13497469718E+02 -0.21000249632E+02  0.78233182682E+02  0.82253954591E+02  0.47000000000E+01 0.  1.
         -5    1    1    2    0  502  0.39485289406E+02  0.43379177560E+00 -0.36145474263E+02  0.53738827345E+02  0.47000000000E+01 0.  1.
        -11    1    1    2    0    0 -0.54659991003E+01  0.24328390146E+02  0.36404913193E+02  0.44125564222E+02  0.00000000000E+00 0. -1.
         11    1    1    2    0    0 -0.20521820588E+02 -0.37619322901E+01 -0.51270967829E+02  0.55353494893E+02  0.00000000000E+00 0.  1.
<mgrwt>
<rscale>  0 0.12076647E+03</rscale>
<asrwt>0</asrwt>
<pdfrwt beam="1">  1        4 0.20207192E-01 0.12931613E+03</pdfrwt>
<pdfrwt beam="2">  1       -4 0.16019245E-01 0.12931613E+03</pdfrwt>
<totfact> 0.12125696E+03</totfact>
</mgrwt>
</event>
<event>
 6    1  0.4705246E-006  0.3456857E+03  0.7546771E-02  0.1103717E+00
          1   -1    0    0  501    0  0.00000000000E+00  0.00000000000E+00  0.21061045033E+04  0.21061045033E+04  0.00000000000E+00 0. -1.
         -1   -1    0    0    0  501 -0.00000000000E+00 -0.00000000000E+00 -0.27247379227E+02  0.27247379227E+02  0.00000000000E+00 0.  1.
          5    1    1    2  502    0  0.31396747050E+02 -0.14603277456E+03  0.14353638688E+04  0.14431226050E+04  0.47000000000E+01 0. -1.
         -5    1    1    2    0  502  0.40923406640E+02  0.12063086237E+03  0.29386811336E+03  0.32032341191E+03  0.47000000000E+01 0.  1.
        -11    1    1    2    0    0 -0.20229119401E+02  0.55865683350E+02  0.19768924617E+03  0.20642487713E+03  0.00000000000E+00 0.  1.
         11    1    1    2    0    0 -0.52091034289E+02 -0.30463771166E+02  0.15193589571E+03  0.16348098853E+03  0.00000000000E+00 0. -1.
<mgrwt>
<rscale>  0 0.26578330E+03</rscale>
<asrwt>0</asrwt>
<pdfrwt beam="1">  1        1 0.32401595E+00 0.34568570E+03</pdfrwt>
<pdfrwt beam="2">  1       -1 0.41919061E-02 0.34568570E+03</pdfrwt>
<totfact> 0.65377231E+02</totfact>
</mgrwt>
</event>
<event>
 6    1  0.4705246E-006  0.3455083E+03  0.7546771E-02  0.1064474E+00
          1   -1    0    0  501    0  0.00000000000E+00  0.00000000000E+00  0.44378405487E+03  0.44378405487E+03  0.00000000000E+00 0. -1.
         -1   -1    0    0    0  501 -0.00000000000E+00 -0.00000000000E+00 -0.67248905104E+02  0.67248905104E+02  0.00000000000E+00 0.  1.
          5    1    1    2  502    0 -0.94445399092E+02  0.64008387233E+02  0.28424237664E+03  0.30632144183E+03  0.47000000000E+01 0. -1.
         -5    1    1    2    0  502  0.11772224524E+02 -0.77255642751E+01 -0.49056764143E+01  0.15634106137E+02  0.47000000000E+01 0. -1.
        -11    1    1    2    0    0 -0.23685211594E+02 -0.32506050256E+02 -0.39178527172E+01  0.40410173489E+02  0.00000000000E+00 0.  1.
         11    1    1    2    0    0  0.10635838616E+03 -0.23776772703E+02  0.10111630226E+03  0.14866723852E+03  0.00000000000E+00 0. -1.
<mgrwt>
<rscale>  0 0.34550827E+03</rscale>
<asrwt>0</asrwt>
<pdfrwt beam="1">  1        1 0.68274468E-01 0.34550827E+03</pdfrwt>
<pdfrwt beam="2">  1       -1 0.10345986E-01 0.34550827E+03</pdfrwt>
<totfact> 0.30663820E+03</totfact>
</mgrwt>
</event>
<event>
 6    1  0.4705246E-006  0.1938411E+03  0.7546771E-02  0.1171307E+00
          1   -1    0    0  501    0  0.00000000000E+00  0.00000000000E+00  0.10445293442E+04  0.10445293442E+04  0.00000000000E+00 0. -1.
         -1   -1    0    0    0  501 -0.00000000000E+00 -0.00000000000E+00 -0.25670540584E+02  0.25670540584E+02  0.00000000000E+00 0.  1.
          5    1    1    2  502    0  0.61937243787E+02  0.46051484101E+02  0.21261840319E+03  0.22624242911E+03  0.47000000000E+01 0. -1.
         -5    1    1    2    0  502  0.55027759128E+01 -0.11444210358E+03  0.42401828304E+03  0.43925034999E+03  0.47000000000E+01 0.  1.
        -11    1    1    2    0    0 -0.11770498705E+01  0.41258995259E+02  0.49900246222E+02  0.64758973967E+02  0.00000000000E+00 0.  1.
         11    1    1    2    0    0 -0.66262969829E+02  0.27131624215E+02  0.33232187118E+03  0.33994813174E+03  0.00000000000E+00 0. -1.
<mgrwt>
<rscale>  0 0.17642614E+03</rscale>
<asrwt>0</asrwt>
<pdfrwt beam="1">  1        1 0.16069679E+00 0.19384109E+03</pdfrwt>
<pdfrwt beam="2">  1       -1 0.39493147E-02 0.19384109E+03</pdfrwt>
<totfact> 0.36828007E+03</totfact>
</mgrwt>
</event>
<event>
 6    1  0.4705246E-006  0.1528940E+03  0.7546771E-02  0.1204900E+00
         -2   -1    0    0    0  501 -0.00000000000E+00  0.00000000000E+00  0.58270427631E+03  0.58270427631E+03  0.00000000000E+00 0.  1.
          2   -1    0    0  501    0  0.00000000000E+00 -0.00000000000E+00 -0.36257461365E+02  0.36257461365E+02  0.00000000000E+00 0. -1.
          5    1    1    2  502    0 -0.44897427686E+02  0.77613237763E+01  0.14773884869E+03  0.15467667753E+03  0.47000000000E+01 0. -1.
         -5    1    1    2    0  502  0.56166815384E+01 -0.86557636150E+02  0.70951827124E+02  0.11216070283E+03  0.47000000000E+01 0. -1.
        -11    1    1    2    0    0  0.61073717689E+02  0.27373272941E+02  0.12467307039E+03  0.14150148248E+03  0.00000000000E+00 0.  1.
         11    1    1    2    0    0 -0.21792971541E+02  0.51423039433E+02  0.20308306875E+03  0.21062287484E+03  0.00000000000E+00 0. -1.
<mgrwt>
<rscale>  0 0.14645354E+03</rscale>
<asrwt>0</asrwt>
<pdfrwt beam="2">  1        2 0.55780714E-02 0.15289400E+03</pdfrwt>
<pdfrwt beam="1">  1       -2 0.89646805E-01 0.15289400E+03</pdfrwt>
<totfact> 0.14586278E+03</totfact>
</mgrwt>
</event>
<event>
 6    1  0.4705246E-006  0.1587278E+03  0.7546771E-02  0.1197956E+00
          2   -1    0    0  501    0  0.00000000000E+00  0.00000000000E+00  0.11025002555E+03  0.11025002555E+03  0.00000000000E+00 0. -1.
         -2   -1    0    0    0  501 -0.00000000000E+00 -0.00000000000E+00 -0.19789959584E+03  0.19789959584E+03  0.00000000000E+00 0.  1.
          5    1    1    2  502    0  0.61080966569E+02 -0.67869351976E+02  0.31753542815E+02  0.96785902362E+02  0.47000000000E+01 0. -1.
         -5    1    1    2    0  502 -0.18840622263E+02 -0.20359619183E+02 -0.57503028373E+02  0.64016961913E+02  0.47000000000E+01 0. -1.
        -11    1    1    2    0    0 -0.70642705018E+02  0.69258569673E+02 -0.39628547795E+02  0.10657186798E+03  0.00000000000E+00 0. -1.
         11    1    1    2    0    0  0.28402360711E+02  0.18970401486E+02 -0.22271536927E+02  0.40774889130E+02  0.00000000000E+00 0.  1.
<mgrwt>
<rscale>  0 0.15206668E+03</rscale>
<asrwt>0</asrwt>
<pdfrwt beam="1">  1        2 0.16961542E-01 0.15872783E+03</pdfrwt>
<pdfrwt beam="2">  1       -2 0.30446092E-01 0.15872783E+03</pdfrwt>
<totfact> 0.32495633E+03</totfact>
</mgrwt>
</event>
<event>
 6    1  0.4705246E-006  0.1330288E+03  0.7546771E-02  0.1239695E+00
          2   -1    0    0  501    0  0.00000000000E+00  0.00000000000E+00  0.35636935137E+03  0.35636935137E+03  0.00000000000E+00 0.  1.
         -2   -1    0    0    0  501 -0.00000000000E+00 -0.00000000000E+00 -0.36276363799E+02  0.36276363799E+02  0.00000000000E+00 0. -1.
          5    1    1    2  502    0 -0.48071999707E+02  0.37539880833E+02  0.16345833638E+03  0.17453044875E+03  0.47000000000E+01 0.  1.
         -5    1    1    2    0  502  0.49398085777E+02  0.79773731421E+01  0.24955419631E+02  0.56113031727E+02  0.47000000000E+01 0.  1.
        -11    1    1    2    0    0  0.11855017574E+02 -0.51346036328E+02  0.13688534333E+03  0.14667840368E+03  0.00000000000E+00 0.  1.
         11    1    1    2    0    0 -0.13181103644E+02  0.58287823525E+01 -0.52061117710E+01  0.15323831008E+02  0.00000000000E+00 0. -1.
<mgrwt>
<rscale>  0 0.12208588E+03</rscale>
<asrwt>0</asrwt>
<pdfrwt beam="1">  1        2 0.54826052E-01 0.13302884E+03</pdfrwt>
<pdfrwt beam="2">  1       -2 0.55809793E-02 0.13302884E+03</pdfrwt>
<totfact> 0.14102231E+04</totfact>
</mgrwt>
</event>
<event>
 6    1  0.4705246E-006  0.1338641E+03  0.7546771E-02  0.1234942E+00
          2   -1    0    0  501    0  0.00000000000E+00  0.00000000000E+00  0.13895823955E+02  0.13895823955E+02  0.00000000000E+00 0. -1.
         -2   -1    0    0    0  501 -0.00000000000E+00 -0.00000000000E+00 -0.10036032504E+04  0.10036032504E+04  0.00000000000E+00 0.  1.
          5    1    1    2  502    0  0.20813484015E+02 -0.24731508076E+02 -0.41774675152E+03  0.41902182165E+03  0.47000000000E+01 0.  1.
         -5    1    1    2    0  502 -0.67738707284E+02  0.15145808509E+02 -0.16816716656E+03  0.18198959829E+03  0.47000000000E+01 0.  1.
        -11    1    1    2    0    0  0.62475291130E+01  0.45136898817E+02 -0.23078797301E+03  0.23524340531E+03  0.00000000000E+00 0.  1.
         11    1    1    2    0    0  0.40677694156E+02 -0.35551199250E+02 -0.17300553534E+03  0.18124424909E+03  0.00000000000E+00 0. -1.
<mgrwt>
<rscale>  0 0.12508175E+03</rscale>
<asrwt>0</asrwt>
<pdfrwt beam="1">  1        2 0.21378185E-02 0.13386414E+03</pdfrwt>
<pdfrwt beam="2">  1       -2 0.15440054E+00 0.13386414E+03</pdfrwt>
<totfact> 0.14120409E+03</totfact>
</mgrwt>
</event>
<event>
 6    1  0.4705246E-006  0.1266311E+03  0.7546771E-02  0.1249834E+00
          1   -1    0    0  501    0  0.00000000000E+00  0.00000000000E+00  0.15931995029E+03  0.15931995029E+03  0.00000000000E+00 0. -1.
         -1   -1    0    0    0  501 -0.00000000000E+00 -0.00000000000E+00 -0.82081366694E+02  0.82081366694E+02  0.00000000000E+00 0.  1.
          5    1    1    2  502    0  0.37998333570E+02  0.28967405882E+02  0.10531805944E+03  0.11574527032E+03  0.47000000000E+01 0. -1.
         -5    1    1    2    0  502 -0.25861147710E+02 -0.12879719878E+02 -0.21320189077E+02  0.36212243886E+02  0.47000000000E+01 0. -1.
        -11    1    1    2    0    0 -0.29075714632E+01 -0.22851500436E+02  0.37345624570E+02  0.43878704613E+02  0.00000000000E+00 0. -1.
         11    1    1    2    0    0 -0.92296143963E+01  0.67638144319E+01 -0.44104911331E+02  0.45565098168E+02  0.00000000000E+00 0.  1.
<mgrwt>
<rscale>  0 0.11600642E+03</rscale>
<asrwt>0</asrwt>
<pdfrwt beam="1">  1        1 0.24510761E-01 0.12663113E+03</pdfrwt>
<pdfrwt beam="2">  1       -1 0.12627903E-01 0.12663113E+03</pdfrwt>
<totfact> 0.78079138E+03</totfact>
</mgrwt>
</event>
<event>
 6    1  0.4705246E-006  0.1372197E+03  0.7546771E-02  0.1227714E+00
         -2   -1    0    0    0  501 -0.00000000000E+00  0.00000000000E+00  0.12788729021E+03  0.12788729021E+03  0.00000000000E+00 0.  1.
          2   -1    0    0  501    0  0.00000000000E+00 -0.00000000000E+00 -0.13164386871E+03  0.13164386871E+03  0.00000000000E+00 0. -1.
          5    1    1    2  502    0 -0.73614889797E+01 -0.30739145272E+02  0.25096034436E+02  0.40632345693E+02  0.47000000000E+01 0.  1.
         -5    1    1    2    0  502  0.60981683974E+02  0.48842601538E+02 -0.66474663534E+02  0.10269048835E+03  0.47000000000E+01 0.  1.
        -11    1    1    2    0    0 -0.17612925187E+02 -0.52702786746E+01  0.66056170547E+02  0.68566818785E+02  0.00000000000E+00 0.  1.
         11    1    1    2    0    0 -0.36007269807E+02 -0.12833177591E+02 -0.28434119947E+02  0.47641506097E+02  0.00000000000E+00 0. -1.
<mgrwt>
<rscale>  0 0.12982578E+03</rscale>
<asrwt>0</asrwt>
<pdfrwt beam="2">  1        2 0.20252903E-01 0.13721969E+03</pdfrwt>
<pdfrwt beam="1">  1       -2 0.19674968E-01 0.13721969E+03</pdfrwt>
<totfact> 0.56355361E+03</totfact>
</mgrwt>
</event>
<event>
 6    1  0.4705246E-006  0.1280610E+03  0.7546771E-02  0.1246080E+00
          1   -1    0    0  501    0  0.00000000000E+00  0.00000000000E+00  0.25561980507E+02  0.25561980507E+02  0.00000000000E+00 0. -1.
         -1   -1    0    0    0  501 -0.00000000000E+00 -0.00000000000E+00 -0.55705342867E+03  0.55705342867E+03  0.00000000000E+00 0.  1.
          5    1    1    2  502    0 -0.34570088671E+02  0.20311805273E+02 -0.12039227543E+02  0.42127110796E+02  0.47000000000E+01 0. -1.
         -5    1    1    2    0  502  0.55867596912E+02 -0.24606670431E+01 -0.18122246723E+03  0.18971271938E+03  0.47000000000E+01 0. -1.
        -11    1    1    2    0    0  0.21578726093E+02  0.24541140607E+02 -0.11866400734E+03  0.12308149999E+03  0.00000000000E+00 0.  1.
         11    1    1    2    0    0 -0.42876234334E+02 -0.42392278837E+02 -0.21956574604E+03  0.22769407900E+03  0.00000000000E+00 0. -1.
<mgrwt>
<rscale>  0 0.11820965E+03</rscale>
<asrwt>0</asrwt>
<pdfrwt beam="1">  1        1 0.39326127E-02 0.12806102E+03</pdfrwt>
<pdfrwt beam="2">  1       -1 0.85700521E-01 0.12806102E+03</pdfrwt>
<totfact> 0.31526413E+03</totfact>
</mgrwt>
</event>
<event>
 6    1  0.4705246E-006  0.1337681E+03  0.7546771E-02  0.1227495E+00
         -2   -1    0    0    0  501 -0.00000000000E+00  0.00000000000E+00  0.66519629023E+02  0.66519629023E+02  0.00000000000E+00 0.  1.
          2   -1    0    0  501    0  0.00000000000E+00 -0.00000000000E+00 -0.71887827950E+03  0.71887827950E+03  0.00000000000E+00 0. -1.
          5    1    1    2  502    0 -0.55702412935E+02 -0.11017271632E+02 -0.59567057131E+03  0.59838921999E+03  0.47000000000E+01 0. -1.
         -5    1    1    2    0  502 -0.16598001111E+01 -0.36446325896E+02 -0.56934166837E+02  0.67784061262E+02  0.47000000000E+01 0.  1.
        -11    1    1    2    0    0  0.15071442681E+02 -0.28270738492E+02 -0.45053376514E+01  0.32352451324E+02  0.00000000000E+00 0.  1.
         11    1    1    2    0    0  0.42290770366E+02  0.75734336020E+02  0.47514253211E+01  0.86872175943E+02  0.00000000000E+00 0. -1.
<mgrwt>
<rscale>  0 0.12997374E+03</rscale>
<asrwt>0</asrwt>
<pdfrwt beam="2">  1        2 0.11059666E+00 0.13376807E+03</pdfrwt>
<pdfrwt beam="1">  1       -2 0.10233789E-01 0.13376807E+03</pdfrwt>
<totfact> 0.25480707E+03</totfact>
</mgrwt>
</event>
<event>
 6    1  0.4705246E-006  0.3254033E+03  0.7546771E-02  0.1073189E+00
          2   -1    0    0  501    0  0.00000000000E+00  0.00000000000E+00  0.12995203802E+04  0.12995203802E+04  0.00000000000E+00 0. -1.
         -2   -1    0    0    0  501 -0.00000000000E+00 -0.00000000000E+00 -0.20370457741E+02  0.20370457741E+02  0.00000000000E+00 0.  1.
          5    1    1    2  502    0  0.66324974583E+02  0.30883375815E+02  0.27179233957E+03  0.28150657364E+03  0.47000000000E+01 0.  1.
         -5    1    1    2    0  502  0.80204282941E+01 -0.18308872171E+02  0.79103739055E+03  0.79130385145E+03  0.47000000000E+01 0.  1.
        -11    1    1    2    0    0 -0.24721003593E+02 -0.49722429902E+02  0.12417256871E+03  0.13602306744E+03  0.00000000000E+00 0. -1.
         11    1    1    2    0    0 -0.49624399284E+02  0.37147926258E+02  0.92147623612E+02  0.11105734540E+03  0.00000000000E+00 0.  1.
<mgrwt>
<rscale>  0 0.32540329E+03</rscale>
<asrwt>0</asrwt>
<pdfrwt beam="1">  1        2 0.19992615E+00 0.32540329E+03</pdfrwt>
<pdfrwt beam="2">  1       -2 0.31339176E-02 0.32540329E+03</pdfrwt>
<totfact> 0.69868564E+03</totfact>
</mgrwt>
</event>
<event>
 6    1  0.4705246E-006  0.1272536E+03  0.7546771E-02  0.1252892E+00
          2   -1    0    0  501    0  0.00000000000E+00  0.00000000000E+00  0.26690215939E+03  0.26690215939E+03  0.00000000000E+00 0. -1.
         -2   -1    0    0    0  501 -0.00000000000E+00 -0.00000000000E+00 -0.10188291617E+03  0.10188291617E+03  0.00000000000E+00 0.  1.
          5    1    1    2  502    0  0.49830271207E+02  0.16537890741E+02  0.79311347383E+02  0.95230969660E+02  0.47000000000E+01 0. -1.
         -5    1    1    2    0  502 -0.72621924222E+02 -0.95424971509E+01  0.15119844143E+03  0.16807159731E+03  0.47000000000E+01 0. -1.
        -11    1    1    2    0    0 -0.26318260482E+02 -0.67188207661E+01 -0.44367569925E+02  0.52021867021E+02  0.00000000000E+00 0.  1.
         11    1    1    2    0    0  0.49109913497E+02 -0.27657282387E+00 -0.21122975668E+02  0.53460641572E+02  0.00000000000E+00 0. -1.
<mgrwt>
<rscale>  0 0.11425234E+03</rscale>
<asrwt>0</asrwt>
<pdfrwt beam="1">  1        2 0.41061870E-01 0.12725360E+03</pdfrwt>
<pdfrwt beam="2">  1       -2 0.15674295E-01 0.12725360E+03</pdfrwt>
<totfact> 0.37917535E+03</totfact>
</mgrwt>
</event>
<event>
 6    1  0.4705246E-006  0.1402019E+03  0.7546771E-02  0.1226104E+00
          4   -1    0    0  501    0  0.00000000000E+00  0.00000000000E+00  0.41394967868E+02  0.41394967868E+02  0.00000000000E+00 0. -1.
         -4   -1    0    0    0  501 -0.00000000000E+00 -0.00000000000E+00 -0.53804942416E+03  0.53804942416E+03  0.00000000000E+00 0.  1.
          5    1    1    2  502    0 -0.14425497627E+02 -0.67807995052E+02 -0.12658730989E+02  0.70628270863E+02  0.47000000000E+01 0. -1.
         -5    1    1    2    0  502 -0.32305681174E+02  0.32567278036E+02 -0.96868211373E+02  0.10728385251E+03  0.47000000000E+01 0.  1.
        -11    1    1    2    0    0  0.35889272722E+02  0.65360736499E+02 -0.27304403048E+03  0.28304259105E+03  0.00000000000E+00 0.  1.
         11    1    1    2    0    0  0.10841906080E+02 -0.30120019483E+02 -0.11408348346E+03  0.11848967760E+03  0.00000000000E+00 0. -1.
<mgrwt>
<rscale>  0 0.13091514E+03</rscale>
<asrwt>0</asrwt>
<pdfrwt beam="1">  1        4 0.63684567E-02 0.14020190E+03</pdfrwt>
<pdfrwt beam="2">  1       -4 0.82776833E-01 0.14020190E+03</pdfrwt>
<totfact> 0.35514477E+02</totfact>
</mgrwt>
</event>
<event>
 6    1  0.4705246E-006  0.1270982E+03  0.7546771E-02  0.1245818E+00
          3   -1    0    0  501    0  0.00000000000E+00  0.00000000000E+00  0.58690421765E+03  0.58690421765E+03  0.00000000000E+00 0. -1.
         -3   -1    0    0    0  501 -0.00000000000E+00 -0.00000000000E+00 -0.21812609590E+02  0.21812609590E+02  0.00000000000E+00 0.  1.
          5    1    1    2  502    0 -0.50473920421E+02  0.44567785336E+02  0.14930067281E+03  0.16384958051E+03  0.47000000000E+01 0. -1.
         -5    1    1    2    0  502  0.49492190800E+02 -0.21536928092E+02  0.22540227486E+03  0.23182232795E+03  0.47000000000E+01 0. -1.
        -11    1    1    2    0    0 -0.26917515940E+02  0.18281971276E+02  0.27194806249E+02  0.42406846440E+02  0.00000000000E+00 0.  1.
         11    1    1    2    0    0  0.27899245561E+02 -0.41312828520E+02  0.16319385415E+03  0.17063807235E+03  0.00000000000E+00 0. -1.
<mgrwt>
<rscale>  0 0.11836537E+03</rscale>
<asrwt>0</asrwt>
<pdfrwt beam="1">  1        3 0.90292945E-01 0.12709823E+03</pdfrwt>
<pdfrwt beam="2">  1       -3 0.33557865E-02 0.12709823E+03</pdfrwt>
<totfact> 0.11148629E+03</totfact>
</mgrwt>
</event>
<event>
 6    1  0.4705246E-006  0.3015705E+03  0.7546771E-02  0.1084458E+00
         -2   -1    0    0    0  501 -0.00000000000E+00  0.00000000000E+00  0.22329094196E+02  0.22329094196E+02  0.00000000000E+00 0.  1.
          2   -1    0    0  501    0  0.00000000000E+00 -0.00000000000E+00 -0.10182316728E+04  0.10182316728E+04  0.00000000000E+00 0. -1.
          5    1    1    2  502    0 -0.52083269535E+02  0.10991367662E+03 -0.45771682370E+03  0.47362481351E+03  0.47000000000E+01 0. -1.
         -5    1    1    2    0  502  0.29399219769E+02 -0.15618795406E+02 -0.20338635814E+03  0.20614645660E+03  0.47000000000E+01 0. -1.
        -11    1    1    2    0    0  0.54802711037E+02 -0.56998660646E+02 -0.25551154163E+03  0.26746650699E+03  0.00000000000E+00 0. -1.
         11    1    1    2    0    0 -0.32118661270E+02 -0.37296220573E+02 -0.79287855101E+02  0.93322989865E+02  0.00000000000E+00 0.  1.
<mgrwt>
<rscale>  0 0.30157050E+03</rscale>
<asrwt>0</asrwt>
<pdfrwt beam="2">  1        2 0.15665103E+00 0.30157050E+03</pdfrwt>
<pdfrwt beam="1">  1       -2 0.34352452E-02 0.30157050E+03</pdfrwt>
<totfact> 0.88549915E+03</totfact>
</mgrwt>
</event>
<event>
 6    1  0.4705246E-006  0.1366987E+03  0.7546771E-02  0.1232627E+00
         -1   -1    0    0    0  501 -0.00000000000E+00  0.00000000000E+00  0.62829955820E+02  0.62829955820E+02  0.00000000000E+00 0.  1.
          1   -1    0    0  501    0  0.00000000000E+00 -0.00000000000E+00 -0.39502813581E+03  0.39502813581E+03  0.00000000000E+00 0. -1.
          5    1    1    2  502    0  0.52145407203E+02 -0.12552353217E+01 -0.27942041945E+03  0.28428608815E+03  0.47000000000E+01 0. -1.
         -5    1    1    2    0  502 -0.35180157339E+02  0.38769292956E+02 -0.50750523127E+02  0.73064404086E+02  0.47000000000E+01 0.  1.
        -11    1    1    2    0    0 -0.37905636838E+02 -0.46661758122E+01  0.31192877665E+02  0.49311318354E+02  0.00000000000E+00 0.  1.
         11    1    1    2    0    0  0.20940386974E+02 -0.32847881822E+02 -0.33220115075E+02  0.51196281041E+02  0.00000000000E+00 0. -1.
<mgrwt>
<rscale>  0 0.12657584E+03</rscale>
<asrwt>0</asrwt>
<pdfrwt beam="2">  1        1 0.60773559E-01 0.13669866E+03</pdfrwt>
<pdfrwt beam="1">  1       -1 0.96661471E-02 0.13669866E+03</pdfrwt>
<totfact> 0.38266666E+03</totfact>
</mgrwt>
</event>
<event>
 6    1  0.4705246E-006  0.2520114E+03  0.7546771E-02  0.1112040E+00
         -4   -1    0    0    0  501 -0.00000000000E+00  0.00000000000E+00  0.93600136495E+02  0.93600136495E+02  0.00000000000E+00 0. -1.
          4   -1    0    0  501    0  0.00000000000E+00 -0.00000000000E+00 -0.16963042341E+03  0.16963042341E+03  0.00000000000E+00 0.  1.
          5    1    1    2  502    0  0.10016854597E+02  0.12075825071E+02  0.27583753129E+02  0.32079843575E+02  0.47000000000E+01 0. -1.
         -5    1    1    2    0  502 -0.58875789525E+02 -0.84281513956E+00 -0.11270395567E+03  0.12724519855E+03  0.47000000000E+01 0. -1.
        -11    1    1    2    0    0  0.24002043097E+02 -0.40130239219E+02 -0.24774655203E+02  0.52918028242E+02  0.00000000000E+00 0.  1.
         11    1    1    2    0    0  0.24856891831E+02  0.28897229287E+02  0.33864570831E+02  0.50987489539E+02  0.00000000000E+00 0. -1.
<mgrwt>
<rscale>  0 0.25201136E+03</rscale>
<asrwt>0</asrwt>
<pdfrwt beam="2">  1        4 0.26096988E-01 0.25201136E+03</pdfrwt>
<pdfrwt beam="1">  1       -4 0.14400021E-01 0.25201136E+03</pdfrwt>
<totfact> 0.10374586E+03</totfact>
</mgrwt>
</event>
<event>
 6    1  0.4705246E-006  0.1444530E+03  0.7546771E-02  0.1220099E+00
          1   -1    0    0  501    0  0.00000000000E+00  0.00000000000E+00  0.93223094011E+02  0.93223094011E+02  0.00000000000E+00 0. -1.
         -1   -1    0    0    0  501 -0.00000000000E+00 -0.00000000000E+00 -0.18499432526E+03  0.18499432526E+03  0.00000000000E+00 0.  1.
          5    1    1    2  502    0 -0.22289741777E+02  0.15399954233E+02  0.25922987054E+02  0.37789977993E+02  0.47000000000E+01 0. -1.
         -5    1    1    2    0  502  0.63178325203E+02 -0.75142040248E+02 -0.44370267696E+02  0.10783616111E+03  0.47000000000E+01 0. -1.
        -11    1    1    2    0    0 -0.16053735031E+02  0.89846288809E+01 -0.73823914884E+02  0.76081642815E+02  0.00000000000E+00 0.  1.
         11    1    1    2    0    0 -0.24834848395E+02  0.50757457133E+02  0.49996427572E+00  0.56509637353E+02  0.00000000000E+00 0. -1.
<mgrwt>
<rscale>  0 0.13508524E+03</rscale>
<asrwt>0</asrwt>
<pdfrwt beam="1">  1        1 0.14342015E-01 0.14445300E+03</pdfrwt>
<pdfrwt beam="2">  1       -1 0.28460665E-01 0.14445300E+03</pdfrwt>
<totfact> 0.42503911E+03</totfact>
</mgrwt>
</event>
<event>
 6    1  0.4705246E-006  0.1415115E+03  0.7546771E-02  0.1222068E+00
         -1   -1    0    0    0  501 -0.00000000000E+00  0.00000000000E+00  0.15598650734E+03  0.15598650734E+03  0.00000000000E+00 0.  1.
          1   -1    0    0  501    0  0.00000000000E+00 -0.00000000000E+00 -0.11948134823E+03  0.11948134823E+03  0.00000000000E+00 0. -1.
          5    1    1    2  502    0  0.18485580768E+02  0.49392659800E+02 -0.28447957384E+02  0.60105971565E+02  0.47000000000E+01 0.  1.
         -5    1    1    2    0  502  0.43846956924E+02 -0.72093496411E+02 -0.14188733261E+01  0.84522961719E+02  0.47000000000E+01 0.  1.
        -11    1    1    2    0    0 -0.79283599815E+02  0.17280524512E+02  0.23592162802E+02  0.84505005016E+02  0.00000000000E+00 0. -1.
         11    1    1    2    0    0  0.16951062123E+02  0.54203120989E+01  0.42779827019E+02  0.46333917276E+02  0.00000000000E+00 0.  1.
<mgrwt>
<rscale>  0 0.13369872E+03</rscale>
<asrwt>0</asrwt>
<pdfrwt beam="2">  1        1 0.18381746E-01 0.14151149E+03</pdfrwt>
<pdfrwt beam="1">  1       -1 0.23997924E-01 0.14151149E+03</pdfrwt>
<totfact> 0.40866766E+03</totfact>
</mgrwt>
</event>
<event>
 6    1  0.4705246E-006  0.3021145E+03  0.7546771E-02  0.1084188E+00
         -2   -1    0    0    0  501 -0.00000000000E+00  0.00000000000E+00  0.22963320459E+02  0.22963320459E+02  0.00000000000E+00 0.  1.
          2   -1    0    0  501    0  0.00000000000E+00 -0.00000000000E+00 -0.99368431641E+03  0.99368431641E+03  0.00000000000E+00 0. -1.
          5    1    1    2  502    0 -0.27318369602E+02 -0.15565363938E+02 -0.29032974566E+03  0.29206510420E+03  0.47000000000E+01 0.  1.
         -5    1    1    2    0  502  0.89787909290E+02  0.59846330492E+02 -0.46767986237E+03  0.47998957863E+03  0.47000000000E+01 0.  1.
        -11    1    1    2    0    0 -0.21634347779E+02 -0.33126649700E+02 -0.14860269091E+02  0.42264021598E+02  0.00000000000E+00 0.  1.
         11    1    1    2    0    0 -0.40835191908E+02 -0.11154316855E+02 -0.19785111883E+03  0.20232893245E+03  0.00000000000E+00 0. -1.
<mgrwt>
<rscale>  0 0.30211449E+03</rscale>
<asrwt>0</asrwt>
<pdfrwt beam="2">  1        2 0.15287447E+00 0.30211449E+03</pdfrwt>
<pdfrwt beam="1">  1       -2 0.35328194E-02 0.30211449E+03</pdfrwt>
<totfact> 0.87905499E+03</totfact>
</mgrwt>
</event>
<event>
 6    1  0.4705246E-006  0.1353653E+03  0.7546771E-02  0.1232021E+00
         -1   -1    0    0    0  501 -0.00000000000E+00  0.00000000000E+00  0.52973300299E+03  0.52973300299E+03  0.00000000000E+00 0.  1.
          1   -1    0    0  501    0  0.00000000000E+00 -0.00000000000E+00 -0.29815160994E+02  0.29815160994E+02  0.00000000000E+00 0. -1.
          5    1    1    2  502    0  0.72722887327E+02 -0.50441438725E+02  0.15798567455E+03  0.18114778620E+03  0.47000000000E+01 0.  1.
         -5    1    1    2    0  502 -0.41561603943E+02  0.88828178465E+01  0.39057482215E+02  0.57912419154E+02  0.47000000000E+01 0.  1.
        -11    1    1    2    0    0  0.23353007653E+02  0.17530189468E+02  0.32774838352E+02  0.43896019617E+02  0.00000000000E+00 0. -1.
         11    1    1    2    0    0 -0.54514291037E+02  0.24028431411E+02  0.27009984688E+03  0.27659193902E+03  0.00000000000E+00 0.  1.
<mgrwt>
<rscale>  0 0.12697061E+03</rscale>
<asrwt>0</asrwt>
<pdfrwt beam="2">  1        1 0.45869482E-02 0.13536534E+03</pdfrwt>
<pdfrwt beam="1">  1       -1 0.81497378E-01 0.13536534E+03</pdfrwt>
<totfact> 0.28417551E+03</totfact>
</mgrwt>
</event>
<event>
 6    1  0.4705246E-006  0.2542929E+03  0.7546771E-02  0.1110621E+00
          1   -1    0    0  501    0  0.00000000000E+00  0.00000000000E+00  0.19750221807E+03  0.19750221807E+03  0.00000000000E+00 0. -1.
         -1   -1    0    0    0  501 -0.00000000000E+00 -0.00000000000E+00 -0.81853336575E+02  0.81853336575E+02  0.00000000000E+00 0.  1.
          5    1    1    2  502    0  0.45319299850E+02 -0.51130565908E+02  0.41569423833E+01  0.68611543336E+02  0.47000000000E+01 0.  1.
         -5    1    1    2    0  502 -0.21809806105E+01  0.20012500531E+02  0.10122636968E+03  0.10331565599E+03  0.47000000000E+01 0.  1.
        -11    1    1    2    0    0 -0.41117002163E+02 -0.48971865312E+01  0.42294018071E+02  0.59189308725E+02  0.00000000000E+00 0. -1.
         11    1    1    2    0    0 -0.20213170770E+01  0.36015251908E+02 -0.32028448648E+02  0.48239046586E+02  0.00000000000E+00 0.  1.
<mgrwt>
<rscale>  0 0.25429287E+03</rscale>
<asrwt>0</asrwt>
<pdfrwt beam="1">  1        1 0.30384957E-01 0.25429287E+03</pdfrwt>
<pdfrwt beam="2">  1       -1 0.12592821E-01 0.25429287E+03</pdfrwt>
<totfact> 0.62512588E+03</totfact>
</mgrwt>
</event>
<event>
 6    1  0.4705246E-006  0.1276805E+03  0.7546771E-02  0.1245850E+00
         -2   -1    0    0    0  501 -0.00000000000E+00  0.00000000000E+00  0.97298660945E+02  0.97298660945E+02  0.00000000000E+00 0.  1.
          2   -1    0    0  501    0  0.00000000000E+00 -0.00000000000E+00 -0.13177417217E+03  0.13177417217E+03  0.00000000000E+00 0. -1.
          5    1    1    2  502    0 -0.45766002576E+02  0.24265904057E+02 -0.24658790124E+02  0.57563069949E+02  0.47000000000E+01 0. -1.
         -5    1    1    2    0  502  0.40829464269E+02 -0.49755437545E+02  0.27497968642E+02  0.70148962909E+02  0.47000000000E+01 0. -1.
        -11    1    1    2    0    0  0.11131950836E+02  0.46148866953E+02 -0.55582302249E+02  0.73096036649E+02  0.00000000000E+00 0. -1.
         11    1    1    2    0    0 -0.61954125291E+01 -0.20659333466E+02  0.18267612501E+02  0.28264763614E+02  0.00000000000E+00 0.  1.
<mgrwt>
<rscale>  0 0.11834636E+03</rscale>
<asrwt>0</asrwt>
<pdfrwt beam="2">  1        2 0.20272949E-01 0.12768047E+03</pdfrwt>
<pdfrwt beam="1">  1       -2 0.14969025E-01 0.12768047E+03</pdfrwt>
<totfact> 0.88126717E+03</totfact>
</mgrwt>
</event>
<event>
 6    1  0.4705246E-006  0.1280495E+03  0.7546771E-02  0.1245295E+00
         -1   -1    0    0    0  501 -0.00000000000E+00  0.00000000000E+00  0.43609872661E+02  0.43609872661E+02  0.00000000000E+00 0.  1.
          1   -1    0    0  501    0  0.00000000000E+00 -0.00000000000E+00 -0.28807268101E+03  0.28807268101E+03  0.00000000000E+00 0. -1.
          5    1    1    2  502    0  0.63980309911E+02  0.39494628259E+02 -0.73179792897E+02  0.10502703369E+03  0.47000000000E+01 0. -1.
         -5    1    1    2    0  502 -0.37157924770E+02 -0.32199621639E+02 -0.87013463216E+02  0.10005478393E+03  0.47000000000E+01 0. -1.
        -11    1    1    2    0    0 -0.34699387751E+02 -0.30855039848E+02 -0.89474720584E+01  0.47287823492E+02  0.00000000000E+00 0.  1.
         11    1    1    2    0    0  0.78770026109E+01  0.23560033228E+02 -0.75322080173E+02  0.79312912551E+02  0.00000000000E+00 0. -1.
<mgrwt>
<rscale>  0 0.11867736E+03</rscale>
<asrwt>0</asrwt>
<pdfrwt beam="2">  1        1 0.44318874E-01 0.12804949E+03</pdfrwt>
<pdfrwt beam="1">  1       -1 0.67092112E-02 0.12804949E+03</pdfrwt>
<totfact> 0.97923778E+03</totfact>
</mgrwt>
</event>
<event>
 6    1  0.4705246E-006  0.3435736E+03  0.7546771E-02  0.1065284E+00
         -2   -1    0    0    0  501 -0.00000000000E+00  0.00000000000E+00  0.80844627278E+02  0.80844627278E+02  0.00000000000E+00 0.  1.
          2   -1    0    0  501    0  0.00000000000E+00 -0.00000000000E+00 -0.36502983109E+03  0.36502983109E+03  0.00000000000E+00 0. -1.
          5    1    1    2  502    0 -0.23482899663E+02 -0.37874676700E+02 -0.11676081659E+03  0.12506444740E+03  0.47000000000E+01 0.  1.
         -5    1    1    2    0  502  0.53079331910E+02  0.68869318288E+02 -0.19692177482E+03  0.21531528946E+03  0.47000000000E+01 0.  1.
        -11    1    1    2    0    0  0.16963487407E+02 -0.46443206412E+02  0.27091593108E+02  0.56379834550E+02  0.00000000000E+00 0.  1.
         11    1    1    2    0    0 -0.46559919653E+02  0.15448564824E+02  0.24057944966E+01  0.49114886953E+02  0.00000000000E+00 0. -1.
<mgrwt>
<rscale>  0 0.34357358E+03</rscale>
<asrwt>0</asrwt>
<pdfrwt beam="2">  1        2 0.56158436E-01 0.34357358E+03</pdfrwt>
<pdfrwt beam="1">  1       -2 0.12437635E-01 0.34357358E+03</pdfrwt>
<totfact> 0.41279789E+03</totfact>
</mgrwt>
</event>
<event>
 6    1  0.6146295E-006  0.1376668E+03  0.7546771E-02  0.1233470E+00
          1   -1    0    0  501    0  0.00000000000E+00  0.00000000000E+00  0.70079880641E+03  0.70079880641E+03  0.00000000000E+00 0. -1.
         -1   -1    0    0    0  501 -0.00000000000E+00 -0.00000000000E+00 -0.20188335730E+02  0.20188335730E+02  0.00000000000E+00 0.  1.
          5    1    1    2  502    0  0.24179262163E+02 -0.11233537591E+02  0.29767664067E+03  0.29890517140E+03  0.47000000000E+01 0.  1.
         -5    1    1    2    0  502 -0.80345939495E+02 -0.19029460892E+01  0.16132275371E+03  0.18029479211E+03  0.47000000000E+01 0.  1.
        -11    1    1    2    0    0 -0.23723689231E+01  0.30771652871E+02  0.42462570882E+02  0.52493739442E+02  0.00000000000E+00 0.  1.
         11    1    1    2    0    0  0.58539046255E+02 -0.17635169191E+02  0.17914850541E+03  0.18929343919E+03  0.00000000000E+00 0. -1.
<mgrwt>
<rscale>  0 0.12602914E+03</rscale>
<asrwt>0</asrwt>
<pdfrwt beam="1">  1        1 0.10781518E+00 0.13766685E+03</pdfrwt>
<pdfrwt beam="2">  1       -1 0.31058983E-02 0.13766685E+03</pdfrwt>
<totfact> 0.96742558E+03</totfact>
</mgrwt>
</event>
<event>
 6    1  0.4705246E-006  0.1449697E+03  0.7546771E-02  0.1216498E+00
          1   -1    0    0  501    0  0.00000000000E+00  0.00000000000E+00  0.45528978506E+03  0.45528978506E+03  0.00000000000E+00 0. -1.
         -1   -1    0    0    0  501 -0.00000000000E+00 -0.00000000000E+00 -0.55593002778E+02  0.55593002778E+02  0.00000000000E+00 0.  1.
          5    1    1    2  502    0 -0.19036010714E+02 -0.39591950839E+02  0.14695769119E+03  0.15345535271E+03  0.47000000000E+01 0. -1.
         -5    1    1    2    0  502  0.92201650682E+02  0.33454623160E+02  0.21033518307E+03  0.23212784288E+03  0.47000000000E+01 0. -1.
        -11    1    1    2    0    0 -0.43666951418E+02  0.11402961459E+02  0.70836605181E+02  0.83991992534E+02  0.00000000000E+00 0. -1.
         11    1    1    2    0    0 -0.29498688550E+02 -0.52656337798E+01 -0.28432697173E+02  0.41307599711E+02  0.00000000000E+00 0.  1.
<mgrwt>
<rscale>  0 0.13767088E+03</rscale>
<asrwt>0</asrwt>
<pdfrwt beam="1">  1        1 0.70044580E-01 0.14496966E+03</pdfrwt>
<pdfrwt beam="2">  1       -1 0.85527700E-02 0.14496966E+03</pdfrwt>
<totfact> 0.38579362E+03</totfact>
</mgrwt>
</event>
<event>
 6    1  0.4705246E-006  0.1346936E+03  0.7546771E-02  0.1236464E+00
          1   -1    0    0  501    0  0.00000000000E+00  0.00000000000E+00  0.37599211563E+03  0.37599211563E+03  0.00000000000E+00 0. -1.
         -1   -1    0    0    0  501 -0.00000000000E+00 -0.00000000000E+00 -0.46762097968E+02  0.46762097968E+02  0.00000000000E+00 0.  1.
          5    1    1    2  502    0 -0.82947456748E+02 -0.12976602646E+02  0.11965966188E+03  0.14625046147E+03  0.47000000000E+01 0. -1.
         -5    1    1    2    0  502  0.33523202845E+02  0.52015385134E+01  0.16701485672E+03  0.17049021525E+03  0.47000000000E+01 0. -1.
        -11    1    1    2    0    0  0.14805998677E+02 -0.24956407307E+02 -0.13872197808E+02  0.32163297942E+02  0.00000000000E+00 0.  1.
         11    1    1    2    0    0  0.34618255226E+02  0.32731471439E+02  0.56427696871E+02  0.73850238941E+02  0.00000000000E+00 0. -1.
<mgrwt>
<rscale>  0 0.12411155E+03</rscale>
<asrwt>0</asrwt>
<pdfrwt beam="1">  1        1 0.57844939E-01 0.13469364E+03</pdfrwt>
<pdfrwt beam="2">  1       -1 0.71941692E-02 0.13469364E+03</pdfrwt>
<totfact> 0.63582078E+03</totfact>
</mgrwt>
</event>
<event>
 6    1  0.4705246E-006  0.1305578E+03  0.7546771E-02  0.1235182E+00
          1   -1    0    0  501    0  0.00000000000E+00  0.00000000000E+00  0.23033235094E+03  0.23033235094E+03  0.00000000000E+00 0. -1.
         -1   -1    0    0    0  501 -0.00000000000E+00 -0.00000000000E+00 -0.62864067120E+02  0.62864067120E+02  0.00000000000E+00 0.  1.
          5    1    1    2  502    0  0.66389511449E+02 -0.76863886371E+01  0.47548600920E+02  0.82155993392E+02  0.47000000000E+01 0.  1.
         -5    1    1    2    0  502 -0.48294497988E+02  0.40716491942E+02  0.54243879364E+02  0.83394722258E+02  0.47000000000E+01 0.  1.
        -11    1    1    2    0    0  0.19850715904E+02  0.62827338858E+01 -0.18125595642E+02  0.27605450265E+02  0.00000000000E+00 0.  1.
         11    1    1    2    0    0 -0.37945729365E+02 -0.39312837191E+02  0.83801399177E+02  0.10004025214E+03  0.00000000000E+00 0. -1.
<mgrwt>
<rscale>  0 0.12492796E+03</rscale>
<asrwt>0</asrwt>
<pdfrwt beam="1">  1        1 0.35435746E-01 0.13055777E+03</pdfrwt>
<pdfrwt beam="2">  1       -1 0.96713951E-02 0.13055777E+03</pdfrwt>
<totfact> 0.74479331E+03</totfact>
</mgrwt>
</event>
<event>
 6    1  0.4705246E-006  0.1416679E+03  0.7546771E-02  0.1221974E+00
          1   -1    0    0  501    0  0.00000000000E+00  0.00000000000E+00  0.17336829331E+04  0.17336829331E+04  0.00000000000E+00 0. -1.
         -1   -1    0    0    0  501 -0.00000000000E+00 -0.00000000000E+00 -0.12212462754E+02  0.12212462754E+02  0.00000000000E+00 0.  1.
          5    1    1    2  502    0  0.90809361862E+02 -0.46638884099E+02  0.11260955086E+04  0.11307230917E+04  0.47000000000E+01 0.  1.
         -5    1    1    2    0  502 -0.32243675420E+02  0.14779381469E+02  0.23222543949E+03  0.23496559210E+03  0.47000000000E+01 0.  1.
        -11    1    1    2    0    0 -0.28747760980E+02 -0.22767272199E+02  0.56869885370E+02  0.67668059723E+02  0.00000000000E+00 0.  1.
         11    1    1    2    0    0 -0.29817925462E+02  0.54626774829E+02  0.30627963692E+03  0.31253865233E+03  0.00000000000E+00 0. -1.
<mgrwt>
<rscale>  0 0.13376471E+03</rscale>
<asrwt>0</asrwt>
<pdfrwt beam="1">  1        1 0.26672026E+00 0.14166786E+03</pdfrwt>
<pdfrwt beam="2">  1       -1 0.18788418E-02 0.14166786E+03</pdfrwt>
<totfact> 0.37430891E+03</totfact>
</mgrwt>
</event>
<event>
 6    1  0.4705246E-006  0.1491435E+03  0.7546771E-02  0.1206006E+00
          1   -1    0    0  501    0  0.00000000000E+00  0.00000000000E+00  0.97228513159E+03  0.97228513159E+03  0.00000000000E+00 0. -1.
         -1   -1    0    0    0  501 -0.00000000000E+00 -0.00000000000E+00 -0.39752505688E+02  0.39752505688E+02  0.00000000000E+00 0.  1.
          5    1    1    2  502    0 -0.72710765850E+02 -0.30770695503E+02  0.49866907851E+03  0.50490259559E+03  0.47000000000E+01 0.  1.
         -5    1    1    2    0  502  0.49647551063E+02 -0.47232119042E+02  0.32838727215E+03  0.33549373005E+03  0.47000000000E+01 0.  1.
        -11    1    1    2    0    0 -0.35604896221E+02  0.55408616503E+02  0.27234515136E+02  0.71270907335E+02  0.00000000000E+00 0.  1.
         11    1    1    2    0    0  0.58668111008E+02  0.22594198043E+02  0.78241760105E+02  0.10037040430E+03  0.00000000000E+00 0. -1.
<mgrwt>
<rscale>  0 0.14558438E+03</rscale>
<asrwt>0</asrwt>
<pdfrwt beam="1">  1        1 0.14958231E+00 0.14914348E+03</pdfrwt>
<pdfrwt beam="2">  1       -1 0.61157708E-02 0.14914348E+03</pdfrwt>
<totfact> 0.21602852E+03</totfact>
</mgrwt>
</event>
<event>
 6    1  0.4705246E-006  0.1532679E+03  0.7546771E-02  0.1204991E+00
          2   -1    0    0  501    0  0.00000000000E+00  0.00000000000E+00  0.49183873184E+03  0.49183873184E+03  0.00000000000E+00 0. -1.
         -2   -1    0    0    0  501 -0.00000000000E+00 -0.00000000000E+00 -0.40456835336E+02  0.40456835336E+02  0.00000000000E+00 0.  1.
          5    1    1    2  502    0  0.55451088069E+02  0.10722950167E+03  0.21491082598E+03  0.24653953500E+03  0.47000000000E+01 0. -1.
         -5    1    1    2    0  502 -0.16522870039E+02 -0.27537266495E+02  0.56975820165E+02  0.65571642986E+02  0.47000000000E+01 0. -1.
        -11    1    1    2    0    0 -0.59381253308E+02 -0.70758406937E+02  0.17430597781E+03  0.19727001622E+03  0.00000000000E+00 0. -1.
         11    1    1    2    0    0  0.20453035278E+02 -0.89338282401E+01  0.51892725486E+01  0.22914372972E+02  0.00000000000E+00 0.  1.
<mgrwt>
<rscale>  0 0.14638182E+03</rscale>
<asrwt>0</asrwt>
<pdfrwt beam="1">  1        2 0.75667493E-01 0.15326787E+03</pdfrwt>
<pdfrwt beam="2">  1       -2 0.62241288E-02 0.15326787E+03</pdfrwt>
<totfact> 0.85340233E+03</totfact>
</mgrwt>
</event>
<event>
 6    1  0.4705246E-006  0.1462465E+03  0.7546771E-02  0.1215182E+00
          1   -1    0    0  501    0  0.00000000000E+00  0.00000000000E+00  0.40937492931E+02  0.40937492931E+02  0.00000000000E+00 0. -1.
         -1   -1    0    0    0  501 -0.00000000000E+00 -0.00000000000E+00 -0.42688476163E+03  0.42688476163E+03  0.00000000000E+00 0.  1.
          5    1    1    2  502    0  0.28895686317E+02  0.58112658210E+02 -0.23351963622E+03  0.24241607255E+03  0.47000000000E+01 0.  1.
         -5    1    1    2    0  502  0.11325803086E+02  0.62562962539E+01  0.15106607957E+02  0.20438068948E+02  0.47000000000E+01 0.  1.
        -11    1    1    2    0    0  0.10004425740E+02 -0.18823631207E+02  0.29275785319E+01  0.21517163899E+02  0.00000000000E+00 0. -1.
         11    1    1    2    0    0 -0.50225915142E+02 -0.45545323256E+02 -0.17046181897E+03  0.18345094916E+03  0.00000000000E+00 0.  1.
<mgrwt>
<rscale>  0 0.13863197E+03</rscale>
<asrwt>0</asrwt>
<pdfrwt beam="1">  1        1 0.62980756E-02 0.14624653E+03</pdfrwt>
<pdfrwt beam="2">  1       -1 0.65674581E-01 0.14624653E+03</pdfrwt>
<totfact> 0.28502622E+03</totfact>
</mgrwt>
</event>
<event>
 6    1  0.4705246E-006  0.2411926E+03  0.7546771E-02  0.1122953E+00
         -1   -1    0    0    0  501 -0.00000000000E+00  0.00000000000E+00  0.46932670711E+03  0.46932670711E+03  0.00000000000E+00 0.  1.
          1   -1    0    0  501    0  0.00000000000E+00 -0.00000000000E+00 -0.11286708586E+03  0.11286708586E+03  0.00000000000E+00 0. -1.
          5    1    1    2  502    0  0.26470045414E+02  0.19931800752E+03  0.10785647785E+03  0.22821796870E+03  0.47000000000E+01 0.  1.
         -5    1    1    2    0  502 -0.20641314356E+02  0.68664480655E+01  0.64491943796E+02  0.68223989784E+02  0.47000000000E+01 0.  1.
        -11    1    1    2    0    0 -0.16536363645E+02 -0.66070836652E+02  0.22813625630E+02  0.71828046701E+02  0.00000000000E+00 0. -1.
         11    1    1    2    0    0  0.10707632586E+02 -0.14011361893E+03  0.16129757398E+03  0.21392378778E+03  0.00000000000E+00 0.  1.
<mgrwt>
<rscale>  0 0.23531671E+03</rscale>
<asrwt>0</asrwt>
<pdfrwt beam="2">  1        1 0.17364167E-01 0.24119257E+03</pdfrwt>
<pdfrwt beam="1">  1       -1 0.72204108E-01 0.24119257E+03</pdfrwt>
<totfact> 0.61949568E+02</totfact>
</mgrwt>
</event>
<event>
 6    1  0.4705246E-006  0.1395554E+03  0.7546771E-02  0.1225385E+00
         -2   -1    0    0    0  501 -0.00000000000E+00  0.00000000000E+00  0.39332378348E+02  0.39332378348E+02  0.00000000000E+00 0.  1.
          2   -1    0    0  501    0  0.00000000000E+00 -0.00000000000E+00 -0.79997823503E+03  0.79997823503E+03  0.00000000000E+00 0. -1.
          5    1    1    2  502    0  0.39236356000E+01 -0.44249077727E+02 -0.11172614140E+03  0.12032537749E+03  0.47000000000E+01 0. -1.
         -5    1    1    2    0  502 -0.65921024370E+02  0.41770390744E+02 -0.58864706245E+03  0.59381630251E+03  0.47000000000E+01 0. -1.
        -11    1    1    2    0    0  0.50665885956E+02 -0.26331154318E+01  0.11753475336E+02  0.52077917384E+02  0.00000000000E+00 0.  1.
         11    1    1    2    0    0  0.11331502813E+02  0.51118024152E+01 -0.72026128159E+02  0.73091015984E+02  0.00000000000E+00 0. -1.
<mgrwt>
<rscale>  0 0.13140545E+03</rscale>
<asrwt>0</asrwt>
<pdfrwt beam="2">  1        2 0.12307357E+00 0.13955542E+03</pdfrwt>
<pdfrwt beam="1">  1       -2 0.60511351E-02 0.13955542E+03</pdfrwt>
<totfact> 0.50410814E+03</totfact>
</mgrwt>
</event>
<event>
 6    1  0.4705246E-006  0.1289238E+03  0.7546771E-02  0.1242782E+00
          1   -1    0    0  501    0  0.00000000000E+00  0.00000000000E+00  0.80844883524E+03  0.80844883524E+03  0.00000000000E+00 0. -1.
         -1   -1    0    0    0  501 -0.00000000000E+00 -0.00000000000E+00 -0.16357220567E+02  0.16357220567E+02  0.00000000000E+00 0.  1.
          5    1    1    2  502    0 -0.27460456285E+02 -0.24998250362E+02  0.60895585269E+02  0.71479727796E+02  0.47000000000E+01 0. -1.
         -5    1    1    2    0  502  0.48251025456E+02  0.48733328819E+02  0.46140178698E+03  0.46649415626E+03  0.47000000000E+01 0. -1.
        -11    1    1    2    0    0 -0.53733245373E+02 -0.27911215710E+02  0.13413984189E+03  0.14717267003E+03  0.00000000000E+00 0.  1.
         11    1    1    2    0    0  0.32942676202E+02  0.41761372541E+01  0.13565440054E+03  0.13965950173E+03  0.00000000000E+00 0. -1.
<mgrwt>
<rscale>  0 0.12019115E+03</rscale>
<asrwt>0</asrwt>
<pdfrwt beam="1">  1        1 0.12437671E+00 0.12892383E+03</pdfrwt>
<pdfrwt beam="2">  1       -1 0.25164961E-02 0.12892383E+03</pdfrwt>
<totfact> 0.10602838E+04</totfact>
</mgrwt>
</event>
<event>
 6    1  0.4705246E-006  0.1311705E+03  0.7546771E-02  0.1238631E+00
         -2   -1    0    0    0  501 -0.00000000000E+00  0.00000000000E+00  0.36581002380E+02  0.36581002380E+02  0.00000000000E+00 0.  1.
          2   -1    0    0  501    0  0.00000000000E+00 -0.00000000000E+00 -0.36722637044E+03  0.36722637044E+03  0.00000000000E+00 0. -1.
          5    1    1    2  502    0 -0.45448353597E+02 -0.66943621614E+02 -0.10250692076E+03  0.13067807820E+03  0.47000000000E+01 0. -1.
         -5    1    1    2    0  502  0.40868752053E+02  0.27445546862E+02 -0.80643194534E+02  0.94598772517E+02  0.47000000000E+01 0. -1.
        -11    1    1    2    0    0 -0.21398637974E+02  0.26489089304E+02 -0.66193448876E+01  0.34689901788E+02  0.00000000000E+00 0.  1.
         11    1    1    2    0    0  0.25978239518E+02  0.13008985447E+02 -0.14087590788E+03  0.14384062031E+03  0.00000000000E+00 0. -1.
<mgrwt>
<rscale>  0 0.12274831E+03</rscale>
<asrwt>0</asrwt>
<pdfrwt beam="2">  1        2 0.56496367E-01 0.13117048E+03</pdfrwt>
<pdfrwt beam="1">  1       -2 0.56278463E-02 0.13117048E+03</pdfrwt>
<totfact> 0.13472480E+04</totfact>
</mgrwt>
</event>
<event>
 6    1  0.4705246E-006  0.1278139E+03  0.7546771E-02  0.1244783E+00
         -1   -1    0    0    0  501 -0.00000000000E+00  0.00000000000E+00  0.22394248763E+02  0.22394248763E+02  0.00000000000E+00 0.  1.
          1   -1    0    0  501    0  0.00000000000E+00 -0.00000000000E+00 -0.60694588062E+03  0.60694588062E+03  0.00000000000E+00 0. -1.
          5    1    1    2  502    0  0.50303663975E+02  0.18631688597E+01 -0.15384137208E+03  0.16193575198E+03  0.47000000000E+01 0.  1.
         -5    1    1    2    0  502 -0.76755158789E+02 -0.49559009767E+01 -0.26420005656E+03  0.27520842146E+03  0.47000000000E+01 0.  1.
        -11    1    1    2    0    0  0.41126256669E+02 -0.21068903340E+02 -0.15488297109E+03  0.16162921273E+03  0.00000000000E+00 0. -1.
         11    1    1    2    0    0 -0.14674761855E+02  0.24161635457E+02 -0.11627232132E+02  0.30566743211E+02  0.00000000000E+00 0.  1.
<mgrwt>
<rscale>  0 0.11898369E+03</rscale>
<asrwt>0</asrwt>
<pdfrwt beam="2">  1        1 0.93376292E-01 0.12781390E+03</pdfrwt>
<pdfrwt beam="1">  1       -1 0.34452689E-02 0.12781390E+03</pdfrwt>
<totfact> 0.10113433E+04</totfact>
</mgrwt>
</event>
<event>
 6    1  0.4705246E-006  0.2919457E+03  0.7546771E-02  0.1123752E+00
          1   -1    0    0  501    0  0.00000000000E+00  0.00000000000E+00  0.11322935002E+04  0.11322935002E+04  0.00000000000E+00 0. -1.
         -1   -1    0    0    0  501 -0.00000000000E+00 -0.00000000000E+00 -0.95242623708E+02  0.95242623708E+02  0.00000000000E+00 0.  1.
          5    1    1    2  502    0 -0.27616346393E+02 -0.16482425408E+03  0.45179471714E+03  0.48173670585E+03  0.47000000000E+01 0. -1.
         -5    1    1    2    0  502 -0.21948035290E+02  0.10518874970E+03  0.61257685521E+03  0.62194765282E+03  0.47000000000E+01 0.  1.
        -11    1    1    2    0    0 -0.22550649648E+02  0.63066354458E+01 -0.24824463683E+02  0.34125642079E+02  0.00000000000E+00 0. -1.
         11    1    1    2    0    0  0.72115031331E+02  0.53328868935E+02 -0.24962321562E+01  0.89726123179E+02  0.00000000000E+00 0.  1.
<mgrwt>
<rscale>  0 0.23414996E+03</rscale>
<asrwt>0</asrwt>
<pdfrwt beam="1">  1        1 0.17419899E+00 0.29194575E+03</pdfrwt>
<pdfrwt beam="2">  1       -1 0.14652712E-01 0.29194575E+03</pdfrwt>
<totfact> 0.42780473E+02</totfact>
</mgrwt>
</event>
<event>
 6    1  0.4705246E-006  0.1623821E+03  0.7546771E-02  0.1193667E+00
         -3   -1    0    0    0  501 -0.00000000000E+00  0.00000000000E+00  0.25946356799E+02  0.25946356799E+02  0.00000000000E+00 0.  1.
          3   -1    0    0  501    0  0.00000000000E+00 -0.00000000000E+00 -0.88200656409E+03  0.88200656409E+03  0.00000000000E+00 0. -1.
          5    1    1    2  502    0 -0.54987531401E+02 -0.10867443240E+03 -0.46001246658E+03  0.47588582694E+03  0.47000000000E+01 0. -1.
         -5    1    1    2    0  502  0.33875287135E+02  0.71958090230E+01 -0.66873734325E+02  0.75455291985E+02  0.47000000000E+01 0. -1.
        -11    1    1    2    0    0  0.41396764487E+02  0.10754925460E+03 -0.26320207359E+03  0.28732536577E+03  0.00000000000E+00 0.  1.
         11    1    1    2    0    0 -0.20284520221E+02 -0.60706312282E+01 -0.65971932799E+02  0.69286436201E+02  0.00000000000E+00 0. -1.
<mgrwt>
<rscale>  0 0.15567573E+03</rscale>
<asrwt>0</asrwt>
<pdfrwt beam="2">  1        3 0.13569331E+00 0.16238214E+03</pdfrwt>
<pdfrwt beam="1">  1       -3 0.39917473E-02 0.16238214E+03</pdfrwt>
<totfact> 0.34256255E+02</totfact>
</mgrwt>
</event>
<event>
 6    1  0.4705246E-006  0.1378538E+03  0.7546771E-02  0.1227620E+00
         -1   -1    0    0    0  501 -0.00000000000E+00  0.00000000000E+00  0.15656019572E+03  0.15656019572E+03  0.00000000000E+00 0.  1.
          1   -1    0    0  501    0  0.00000000000E+00 -0.00000000000E+00 -0.11837815010E+03  0.11837815010E+03  0.00000000000E+00 0. -1.
          5    1    1    2  502    0  0.95778801512E+02 -0.12103392970E+02 -0.36429475793E+02  0.10329214707E+03  0.47000000000E+01 0.  1.
         -5    1    1    2    0  502 -0.39164629615E+02 -0.10541370248E+01 -0.66537308696E+00  0.39465328316E+02  0.47000000000E+01 0.  1.
        -11    1    1    2    0    0  0.23721038627E+02  0.70726719496E+01  0.49596452774E+01  0.25244968674E+02  0.00000000000E+00 0. -1.
         11    1    1    2    0    0 -0.80335210524E+02  0.60848580457E+01  0.70317249219E+02  0.10693590176E+03  0.00000000000E+00 0.  1.
<mgrwt>
<rscale>  0 0.12988921E+03</rscale>
<asrwt>0</asrwt>
<pdfrwt beam="2">  1        1 0.18212023E-01 0.13785380E+03</pdfrwt>
<pdfrwt beam="1">  1       -1 0.24086184E-01 0.13785380E+03</pdfrwt>
<totfact> 0.41046364E+03</totfact>
</mgrwt>
</event>
<event>
 6    1  0.4705246E-006  0.1441022E+03  0.7546771E-02  0.1218109E+00
          1   -1    0    0  501    0  0.00000000000E+00  0.00000000000E+00  0.94847829151E+03  0.94847829151E+03  0.00000000000E+00 0. -1.
         -1   -1    0    0    0  501 -0.00000000000E+00 -0.00000000000E+00 -0.17938218741E+02  0.17938218741E+02  0.00000000000E+00 0.  1.
          5    1    1    2  502    0 -0.24462302494E+02  0.22827086819E+02  0.50763153187E+03  0.50875469755E+03  0.47000000000E+01 0.  1.
         -5    1    1    2    0  502 -0.42268273233E+02  0.34036122272E+01  0.43603557651E+02  0.61004522276E+02  0.47000000000E+01 0.  1.
        -11    1    1    2    0    0  0.18823934579E+02  0.33843931513E+02  0.11071283281E+03  0.11729059452E+03  0.00000000000E+00 0. -1.
         11    1    1    2    0    0  0.47906641148E+02 -0.60074630559E+02  0.26859215044E+03  0.27936669591E+03  0.00000000000E+00 0.  1.
<mgrwt>
<rscale>  0 0.13650630E+03</rscale>
<asrwt>0</asrwt>
<pdfrwt beam="1">  1        1 0.14591970E+00 0.14410220E+03</pdfrwt>
<pdfrwt beam="2">  1       -1 0.27597267E-02 0.14410220E+03</pdfrwt>
<totfact> 0.72597714E+03</totfact>
</mgrwt>
</event>
<event>
 6    1  0.4705246E-006  0.1815348E+03  0.7546771E-02  0.1171907E+00
          2   -1    0    0  501    0  0.00000000000E+00  0.00000000000E+00  0.75712582680E+03  0.75712582680E+03  0.00000000000E+00 0. -1.
         -2   -1    0    0    0  501 -0.00000000000E+00 -0.00000000000E+00 -0.38537369265E+02  0.38537369265E+02  0.00000000000E+00 0.  1.
          5    1    1    2  502    0  0.47066841276E+02  0.75995005928E+02  0.31099862924E+03  0.32362442100E+03  0.47000000000E+01 0. -1.
         -5    1    1    2    0  502 -0.32893233435E+02  0.54874812509E+02  0.53317173648E+02  0.83414752050E+02  0.47000000000E+01 0. -1.
        -11    1    1    2    0    0  0.34190206926E+02 -0.24457247459E+02  0.77158350358E+02  0.87866593384E+02  0.00000000000E+00 0.  1.
         11    1    1    2    0    0 -0.48363814766E+02 -0.10641257098E+03  0.27711430428E+03  0.30075742963E+03  0.00000000000E+00 0. -1.
<mgrwt>
<rscale>  0 0.17582433E+03</rscale>
<asrwt>0</asrwt>
<pdfrwt beam="1">  1        2 0.11648089E+00 0.18153480E+03</pdfrwt>
<pdfrwt beam="2">  1       -2 0.59288266E-02 0.18153480E+03</pdfrwt>
<totfact> 0.56289639E+03</totfact>
</mgrwt>
</event>
<event>
 6    1  0.6739180E-006  0.1651653E+03  0.7546771E-02  0.1189993E+00
          1   -1    0    0  501    0  0.00000000000E+00  0.00000000000E+00  0.99729322496E+02  0.99729322496E+02  0.00000000000E+00 0. -1.
         -1   -1    0    0    0  501 -0.00000000000E+00 -0.00000000000E+00 -0.26555196363E+03  0.26555196363E+03  0.00000000000E+00 0.  1.
          5    1    1    2  502    0 -0.17036066775E+02 -0.53028735147E+02 -0.46705286575E+02  0.72840566421E+02  0.47000000000E+01 0.  1.
         -5    1    1    2    0  502  0.88011849748E+02 -0.28316197245E+02  0.19349697788E+02  0.94574803870E+02  0.47000000000E+01 0.  1.
        -11    1    1    2    0    0 -0.11695692235E+02  0.79384122408E+02 -0.94874096639E+02  0.12425667918E+03  0.00000000000E+00 0.  1.
         11    1    1    2    0    0 -0.59280090738E+02  0.19608099844E+01 -0.43592955706E+02  0.73609236655E+02  0.00000000000E+00 0. -1.
<mgrwt>
<rscale>  0 0.15885744E+03</rscale>
<asrwt>0</asrwt>
<pdfrwt beam="1">  1        1 0.15342973E-01 0.16516530E+03</pdfrwt>
<pdfrwt beam="2">  1       -1 0.40854148E-01 0.16516530E+03</pdfrwt>
<totfact> 0.21071412E+03</totfact>
</mgrwt>
</event>
<event>
 6    1  0.4705246E-006  0.1421422E+03  0.7546771E-02  0.1220679E+00
         -4   -1    0    0    0  501 -0.00000000000E+00  0.00000000000E+00  0.94125677977E+03  0.94125677977E+03  0.00000000000E+00 0.  1.
          4   -1    0    0  501    0  0.00000000000E+00 -0.00000000000E+00 -0.18149475058E+02  0.18149475058E+02  0.00000000000E+00 0. -1.
          5    1    1    2  502    0  0.95648926513E+02  0.12645378601E+02  0.38293798280E+03  0.39493317335E+03  0.47000000000E+01 0.  1.
         -5    1    1    2    0  502 -0.27975114685E+02 -0.12494136109E+02  0.36233115724E+02  0.47682692393E+02  0.47000000000E+01 0.  1.
        -11    1    1    2    0    0 -0.79328806341E+02  0.27687156616E+02  0.38770841169E+03  0.39670826895E+03  0.00000000000E+00 0.  1.
         11    1    1    2    0    0  0.11654994512E+02 -0.27838399108E+02  0.11622779449E+03  0.12008212013E+03  0.00000000000E+00 0. -1.
<mgrwt>
<rscale>  0 0.13467483E+03</rscale>
<asrwt>0</asrwt>
<pdfrwt beam="2">  1        4 0.27922277E-02 0.14214216E+03</pdfrwt>
<pdfrwt beam="1">  1       -4 0.14480870E+00 0.14214216E+03</pdfrwt>
<totfact> 0.35385389E+02</totfact>
</mgrwt>
</event>
<event>
 6    1  0.4705246E-006  0.1590362E+03  0.7546771E-02  0.1197307E+00
         -1   -1    0    0    0  501 -0.00000000000E+00  0.00000000000E+00  0.80862147389E+02  0.80862147389E+02  0.00000000000E+00 0.  1.
          1   -1    0    0  501    0  0.00000000000E+00 -0.00000000000E+00 -0.27415149330E+03  0.27415149330E+03  0.00000000000E+00 0. -1.
          5    1    1    2  502    0 -0.28408371127E+02 -0.29486591636E+02 -0.76034699814E+01  0.41909395035E+02  0.47000000000E+01 0.  1.
         -5    1    1    2    0  502 -0.23149715114E+02  0.11321930641E+03 -0.68210026000E+02  0.13427292467E+03  0.47000000000E+01 0.  1.
        -11    1    1    2    0    0  0.70806691007E+02 -0.79164061817E+02 -0.11836138152E+03  0.15902815100E+03  0.00000000000E+00 0.  1.
         11    1    1    2    0    0 -0.19248604766E+02 -0.45686529531E+01  0.88553158999E+00  0.19803169985E+02  0.00000000000E+00 0. -1.
<mgrwt>
<rscale>  0 0.15260596E+03</rscale>
<asrwt>0</asrwt>
<pdfrwt beam="2">  1        1 0.42177153E-01 0.15903623E+03</pdfrwt>
<pdfrwt beam="1">  1       -1 0.12440330E-01 0.15903623E+03</pdfrwt>
<totfact> 0.41252230E+03</totfact>
</mgrwt>
</event>
<event>
 6    1  0.4705246E-006  0.2460165E+03  0.7546771E-02  0.1115849E+00
          1   -1    0    0  501    0  0.00000000000E+00  0.00000000000E+00  0.10226735997E+03  0.10226735997E+03  0.00000000000E+00 0. -1.
         -1   -1    0    0    0  501 -0.00000000000E+00 -0.00000000000E+00 -0.14795556721E+03  0.14795556721E+03  0.00000000000E+00 0.  1.
          5    1    1    2  502    0  0.16246570431E+02  0.82322713647E+01  0.54182494723E+02  0.57354634311E+02  0.47000000000E+01 0.  1.
         -5    1    1    2    0  502 -0.43388330476E+02  0.38627500409E+02 -0.53144999699E+02  0.78874026157E+02  0.47000000000E+01 0.  1.
        -11    1    1    2    0    0  0.33705445387E+02  0.54343138018E+01  0.10960425606E+02  0.35856934401E+02  0.00000000000E+00 0. -1.
         11    1    1    2    0    0 -0.65636853420E+01 -0.52294085575E+02 -0.57686127877E+02  0.78137332312E+02  0.00000000000E+00 0.  1.
<mgrwt>
<rscale>  0 0.24601646E+03</rscale>
<asrwt>0</asrwt>
<pdfrwt beam="1">  1        1 0.15733440E-01 0.24601646E+03</pdfrwt>
<pdfrwt beam="2">  1       -1 0.22762395E-01 0.24601646E+03</pdfrwt>
<totfact> 0.56214270E+03</totfact>
</mgrwt>
</event>
<event>
 6    1  0.4705246E-006  0.1324689E+03  0.7546771E-02  0.1238041E+00
         -2   -1    0    0    0  501 -0.00000000000E+00  0.00000000000E+00  0.80359265712E+02  0.80359265712E+02  0.00000000000E+00 0. -1.
          2   -1    0    0  501    0  0.00000000000E+00 -0.00000000000E+00 -0.18122362665E+03  0.18122362665E+03  0.00000000000E+00 0.  1.
          5    1    1    2  502    0 -0.30991695603E+02  0.55892382093E+02 -0.17634381776E+02  0.66464313681E+02  0.47000000000E+01 0. -1.
         -5    1    1    2    0  502  0.54659549943E+02 -0.19034375160E+02 -0.76508215034E+02  0.96049835010E+02  0.47000000000E+01 0. -1.
        -11    1    1    2    0    0 -0.23962315517E+02  0.11703007714E+02 -0.34124677505E+02  0.43308735485E+02  0.00000000000E+00 0.  1.
         11    1    1    2    0    0  0.29446117706E+00 -0.48561014647E+02  0.27402913380E+02  0.55760008184E+02  0.00000000000E+00 0. -1.
<mgrwt>
<rscale>  0 0.12311734E+03</rscale>
<asrwt>0</asrwt>
<pdfrwt beam="2">  1        2 0.27880557E-01 0.13246894E+03</pdfrwt>
<pdfrwt beam="1">  1       -2 0.12362964E-01 0.13246894E+03</pdfrwt>
<totfact> 0.84578728E+03</totfact>
</mgrwt>
</event>
<event>
 6    1  0.4705246E-006  0.1494937E+03  0.7546771E-02  0.1209938E+00
         -2   -1    0    0    0  501 -0.00000000000E+00  0.00000000000E+00  0.49974928921E+02  0.49974928921E+02  0.00000000000E+00 0.  1.
          2   -1    0    0  501    0  0.00000000000E+00 -0.00000000000E+00 -0.37395397474E+03  0.37395397474E+03  0.00000000000E+00 0. -1.
          5    1    1    2  502    0 -0.55553956748E+02  0.32638931748E+02 -0.60874012080E+02  0.88765293458E+02  0.47000000000E+01 0. -1.
         -5    1    1    2    0  502 -0.87265385934E+01 -0.83448483162E+02 -0.10620750009E+03  0.13543236280E+03  0.47000000000E+01 0. -1.
        -11    1    1    2    0    0  0.36599093930E+02  0.71193879805E+02 -0.70215759386E+02  0.10648152452E+03  0.00000000000E+00 0.  1.
         11    1    1    2    0    0  0.27681401412E+02 -0.20384328392E+02 -0.86681774261E+02  0.93249722879E+02  0.00000000000E+00 0. -1.
<mgrwt>
<rscale>  0 0.14255005E+03</rscale>
<asrwt>0</asrwt>
<pdfrwt beam="2">  1        2 0.57531382E-01 0.14949367E+03</pdfrwt>
<pdfrwt beam="1">  1       -2 0.76884504E-02 0.14949367E+03</pdfrwt>
<totfact> 0.82870543E+03</totfact>
</mgrwt>
</event>
<event>
 6    1  0.4705246E-006  0.1271700E+03  0.7546771E-02  0.1247859E+00
         -1   -1    0    0    0  501 -0.00000000000E+00  0.00000000000E+00  0.82197575685E+02  0.82197575685E+02  0.00000000000E+00 0.  1.
          1   -1    0    0  501    0  0.00000000000E+00 -0.00000000000E+00 -0.16321215646E+03  0.16321215646E+03  0.00000000000E+00 0. -1.
          5    1    1    2  502    0  0.10336818875E+02  0.44736625876E+02  0.14788530038E+02  0.48466546606E+02  0.47000000000E+01 0. -1.
         -5    1    1    2    0  502  0.62596053756E+01 -0.28227787241E+02 -0.10102322700E+03  0.10518447141E+03  0.47000000000E+01 0. -1.
        -11    1    1    2    0    0 -0.30055011634E+01 -0.52775862392E+02  0.20949919716E+01  0.52902870242E+02  0.00000000000E+00 0. -1.
         11    1    1    2    0    0 -0.13590923087E+02  0.36267023757E+02  0.31251242198E+01  0.38855843885E+02  0.00000000000E+00 0.  1.
<mgrwt>
<rscale>  0 0.11715866E+03</rscale>
<asrwt>0</asrwt>
<pdfrwt beam="2">  1        1 0.25109562E-01 0.12717001E+03</pdfrwt>
<pdfrwt beam="1">  1       -1 0.12645781E-01 0.12717001E+03</pdfrwt>
<totfact> 0.75611676E+03</totfact>
</mgrwt>
</event>
<event>
 6    1  0.4705246E-006  0.1341065E+03  0.7546771E-02  0.1234703E+00
          1   -1    0    0  501    0  0.00000000000E+00  0.00000000000E+00  0.44443025837E+03  0.44443025837E+03  0.00000000000E+00 0. -1.
         -1   -1    0    0    0  501 -0.00000000000E+00 -0.00000000000E+00 -0.47972532772E+02  0.47972532772E+02  0.00000000000E+00 0.  1.
          5    1    1    2  502    0 -0.51435770355E+01 -0.33359716073E+02  0.27007030030E+03  0.27221202058E+03  0.47000000000E+01 0. -1.
         -5    1    1    2    0  502  0.53289993087E+02  0.39763245116E+02  0.89809051973E+02  0.11184227663E+03  0.47000000000E+01 0. -1.
        -11    1    1    2    0    0 -0.72576766375E+02 -0.91953705324E+01  0.13042155434E+02  0.74310427768E+02  0.00000000000E+00 0. -1.
         11    1    1    2    0    0  0.24430350324E+02  0.27918414901E+01  0.23536217884E+02  0.34038066164E+02  0.00000000000E+00 0.  1.
<mgrwt>
<rscale>  0 0.12523449E+03</rscale>
<asrwt>0</asrwt>
<pdfrwt beam="1">  1        1 0.68373883E-01 0.13410651E+03</pdfrwt>
<pdfrwt beam="2">  1       -1 0.73803900E-02 0.13410651E+03</pdfrwt>
<totfact> 0.49518565E+03</totfact>
</mgrwt>
</event>
<event>
 6    1  0.4705246E-006  0.1379208E+03  0.7546771E-02  0.1227730E+00
          1   -1    0    0  501    0  0.00000000000E+00  0.00000000000E+00  0.32217685520E+02  0.32217685520E+02  0.00000000000E+00 0. -1.
         -1   -1    0    0    0  501 -0.00000000000E+00 -0.00000000000E+00 -0.49666383825E+03  0.49666383825E+03  0.00000000000E+00 0.  1.
          5    1    1    2  502    0  0.76826568232E+01  0.57809795191E+02 -0.20942953946E+03  0.21744842523E+03  0.47000000000E+01 0.  1.
         -5    1    1    2    0  502 -0.20581828013E+02 -0.98848917827E+00  0.11294441753E+02  0.23963371418E+02  0.47000000000E+01 0.  1.
        -11    1    1    2    0    0 -0.65583482412E+01  0.23293097788E+02 -0.41789255465E+02  0.48289980416E+02  0.00000000000E+00 0. -1.
         11    1    1    2    0    0  0.19457519431E+02 -0.80114403801E+02 -0.22452179956E+03  0.23917974671E+03  0.00000000000E+00 0.  1.
<mgrwt>
<rscale>  0 0.12981520E+03</rscale>
<asrwt>0</asrwt>
<pdfrwt beam="1">  1        1 0.49565671E-02 0.13792077E+03</pdfrwt>
<pdfrwt beam="2">  1       -1 0.76409819E-01 0.13792077E+03</pdfrwt>
<totfact> 0.29175905E+03</totfact>
</mgrwt>
</event>
<event>
 6    1  0.4705246E-006  0.1509195E+03  0.7546771E-02  0.1206126E+00
          1   -1    0    0  501    0  0.00000000000E+00  0.00000000000E+00  0.17187729709E+03  0.17187729709E+03  0.00000000000E+00 0. -1.
         -1   -1    0    0    0  501 -0.00000000000E+00 -0.00000000000E+00 -0.11805547018E+03  0.11805547018E+03  0.00000000000E+00 0.  1.
          5    1    1    2  502    0  0.39449616305E+02 -0.94240085210E+02 -0.14648824918E+01  0.10228246070E+03  0.47000000000E+01 0. -1.
         -5    1    1    2    0  502 -0.15824671453E+02  0.13038014741E+02  0.53283076021E+02  0.57285131101E+02  0.47000000000E+01 0. -1.
        -11    1    1    2    0    0 -0.19095067805E+02  0.10157931998E+03 -0.13673668968E+02  0.10425904798E+03  0.00000000000E+00 0.  1.
         11    1    1    2    0    0 -0.45298770473E+01 -0.20377249510E+02  0.15677302347E+02  0.26106127490E+02  0.00000000000E+00 0. -1.
<mgrwt>
<rscale>  0 0.14549114E+03</rscale>
<asrwt>0</asrwt>
<pdfrwt beam="1">  1        1 0.26442661E-01 0.15091949E+03</pdfrwt>
<pdfrwt beam="2">  1       -1 0.18162380E-01 0.15091949E+03</pdfrwt>
<totfact> 0.40583546E+03</totfact>
</mgrwt>
</event>
<event>
 6    1  0.4705246E-006  0.1915905E+03  0.7546771E-02  0.1162170E+00
          2   -1    0    0  501    0  0.00000000000E+00  0.00000000000E+00  0.10713991092E+04  0.10713991092E+04  0.00000000000E+00 0. -1.
         -2   -1    0    0    0  501 -0.00000000000E+00 -0.00000000000E+00 -0.34075752742E+02  0.34075752742E+02  0.00000000000E+00 0.  1.
          5    1    1    2  502    0 -0.62813292962E+02 -0.14598627082E+03  0.70544736386E+03  0.72314284496E+03  0.47000000000E+01 0. -1.
         -5    1    1    2    0  502 -0.41338921693E+01  0.17145463529E+02  0.19564612725E+02  0.26756682440E+02  0.47000000000E+01 0. -1.
        -11    1    1    2    0    0  0.54798880590E+02  0.14015419231E+03  0.29719754776E+03  0.33312534777E+03  0.00000000000E+00 0. -1.
         11    1    1    2    0    0  0.12148304542E+02 -0.11313385021E+02  0.15113832067E+02  0.22449986717E+02  0.00000000000E+00 0.  1.
<mgrwt>
<rscale>  0 0.18594486E+03</rscale>
<asrwt>0</asrwt>
<pdfrwt beam="1">  1        2 0.16483061E+00 0.19159054E+03</pdfrwt>
<pdfrwt beam="2">  1       -2 0.52424243E-02 0.19159054E+03</pdfrwt>
<totfact> 0.42849487E+03</totfact>
</mgrwt>
</event>
<event>
 6    1  0.4705246E-006  0.1537065E+03  0.7546771E-02  0.1212466E+00
         -2   -1    0    0    0  501 -0.00000000000E+00  0.00000000000E+00  0.15341250571E+03  0.15341250571E+03  0.00000000000E+00 0.  1.
          2   -1    0    0  501    0  0.00000000000E+00 -0.00000000000E+00 -0.11184207721E+03  0.11184207721E+03  0.00000000000E+00 0. -1.
          5    1    1    2  502    0 -0.30190710784E+02 -0.25711674120E+02 -0.60613861664E+02  0.72585807356E+02  0.47000000000E+01 0. -1.
         -5    1    1    2    0  502  0.95154507217E+01 -0.26654819437E+02  0.76784015223E+02  0.81968885532E+02  0.47000000000E+01 0.  1.
        -11    1    1    2    0    0  0.17965268673E+01 -0.24617895113E+02  0.19051650468E+02  0.31180661541E+02  0.00000000000E+00 0.  1.
         11    1    1    2    0    0  0.18878733195E+02  0.76984388669E+02  0.63486244727E+01  0.79519228483E+02  0.00000000000E+00 0. -1.
<mgrwt>
<rscale>  0 0.14064355E+03</rscale>
<asrwt>0</asrwt>
<pdfrwt beam="2">  1        2 0.17206474E-01 0.15370647E+03</pdfrwt>
<pdfrwt beam="1">  1       -2 0.23601924E-01 0.15370647E+03</pdfrwt>
<totfact> 0.50080565E+03</totfact>
</mgrwt>
</event>
<event>
 6    1  0.4705246E-006  0.1342780E+03  0.7546771E-02  0.1237056E+00
         -1   -1    0    0    0  501 -0.00000000000E+00  0.00000000000E+00  0.31622620132E+03  0.31622620132E+03  0.00000000000E+00 0.  1.
          1   -1    0    0  501    0  0.00000000000E+00 -0.00000000000E+00 -0.98257284056E+02  0.98257284056E+02  0.00000000000E+00 0. -1.
          5    1    1    2  502    0 -0.67335767602E+02  0.21596917858E+02  0.15853609115E+02  0.72622030965E+02  0.47000000000E+01 0. -1.
         -5    1    1    2    0  502  0.38441528999E+02 -0.21678849314E+01 -0.54895818583E+02  0.67216752188E+02  0.47000000000E+01 0.  1.
        -11    1    1    2    0    0  0.57278684652E+02 -0.32187789451E+02  0.17374285744E+03  0.18575112925E+03  0.00000000000E+00 0.  1.
         11    1    1    2    0    0 -0.28384446050E+02  0.12758756524E+02  0.83268269293E+02  0.88893572977E+02  0.00000000000E+00 0. -1.
<mgrwt>
<rscale>  0 0.12373715E+03</rscale>
<asrwt>0</asrwt>
<pdfrwt beam="2">  1        1 0.15116505E-01 0.13427804E+03</pdfrwt>
<pdfrwt beam="1">  1       -1 0.48650184E-01 0.13427804E+03</pdfrwt>
<totfact> 0.15595037E+03</totfact>
</mgrwt>
</event>
<event>
 6    1  0.4705246E-006  0.1367016E+03  0.7546771E-02  0.1230082E+00
         -1   -1    0    0    0  501 -0.00000000000E+00  0.00000000000E+00  0.11638578058E+03  0.11638578058E+03  0.00000000000E+00 0.  1.
          1   -1    0    0  501    0  0.00000000000E+00 -0.00000000000E+00 -0.12768364323E+03  0.12768364323E+03  0.00000000000E+00 0. -1.
          5    1    1    2  502    0 -0.25354716130E+02 -0.19332776708E+02  0.28500437824E+02  0.43023050117E+02  0.47000000000E+01 0. -1.
         -5    1    1    2    0  502  0.80640696548E+02  0.16764328809E+02 -0.46936224055E+02  0.94916088145E+02  0.47000000000E+01 0. -1.
        -11    1    1    2    0    0  0.24886665679E+02 -0.37799294688E+01  0.50845887062E+01  0.25680479701E+02  0.00000000000E+00 0. -1.
         11    1    1    2    0    0 -0.80172646097E+02  0.63483773676E+01  0.20533348716E+01  0.80449805851E+02  0.00000000000E+00 0.  1.
<mgrwt>
<rscale>  0 0.12824603E+03</rscale>
<asrwt>0</asrwt>
<pdfrwt beam="2">  1        1 0.19643637E-01 0.13670160E+03</pdfrwt>
<pdfrwt beam="1">  1       -1 0.17905505E-01 0.13670160E+03</pdfrwt>
<totfact> 0.60082726E+03</totfact>
</mgrwt>
</event>
<event>
 6    1  0.4705246E-006  0.2292512E+03  0.7546771E-02  0.1131235E+00
          1   -1    0    0  501    0  0.00000000000E+00  0.00000000000E+00  0.22037218340E+03  0.22037218340E+03  0.00000000000E+00 0. -1.
         -1   -1    0    0    0  501 -0.00000000000E+00 -0.00000000000E+00 -0.23096076497E+03  0.23096076497E+03  0.00000000000E+00 0.  1.
          5    1    1    2  502    0 -0.11512758311E+03  0.51725165893E+02 -0.30344834991E+02  0.12989515846E+03  0.47000000000E+01 0.  1.
         -5    1    1    2    0  502 -0.59093063882E+02  0.29378243612E+02  0.81537031181E+02  0.10500213736E+03  0.47000000000E+01 0.  1.
        -11    1    1    2    0    0  0.60625043762E+02 -0.48906992307E+01  0.10497801503E+02  0.61721298646E+02  0.00000000000E+00 0.  1.
         11    1    1    2    0    0  0.11359560323E+03 -0.76212710274E+02 -0.72278579264E+02  0.15471435390E+03  0.00000000000E+00 0. -1.
<mgrwt>
<rscale>  0 0.22358979E+03</rscale>
<asrwt>0</asrwt>
<pdfrwt beam="1">  1        1 0.33903413E-01 0.22925117E+03</pdfrwt>
<pdfrwt beam="2">  1       -1 0.35532425E-01 0.22925117E+03</pdfrwt>
<totfact> 0.98668253E+02</totfact>
</mgrwt>
</event>
<event>
 6    1  0.4705246E-006  0.1738550E+03  0.7546771E-02  0.1202574E+00
          1   -1    0    0  501    0  0.00000000000E+00  0.00000000000E+00  0.32948166606E+03  0.32948166606E+03  0.00000000000E+00 0. -1.
         -1   -1    0    0    0  501 -0.00000000000E+00 -0.00000000000E+00 -0.90758767582E+02  0.90758767582E+02  0.00000000000E+00 0.  1.
          5    1    1    2  502    0 -0.30583964376E+02 -0.36426487198E+02  0.27940142485E+03  0.28345989850E+03  0.47000000000E+01 0. -1.
         -5    1    1    2    0  502  0.16753293152E+02  0.34055212661E+02 -0.77895893907E+01  0.39028169874E+02  0.47000000000E+01 0.  1.
        -11    1    1    2    0    0 -0.15375475168E+02  0.31820344072E+02  0.11343386403E+02  0.37116195233E+02  0.00000000000E+00 0.  1.
         11    1    1    2    0    0  0.29206146391E+02 -0.29449069536E+02 -0.44232323392E+02  0.60636170032E+02  0.00000000000E+00 0. -1.
<mgrwt>
<rscale>  0 0.14830318E+03</rscale>
<asrwt>0</asrwt>
<pdfrwt beam="1">  1        1 0.50689486E-01 0.17385501E+03</pdfrwt>
<pdfrwt beam="2">  1       -1 0.13962888E-01 0.17385501E+03</pdfrwt>
<totfact> 0.27500043E+03</totfact>
</mgrwt>
</event>
<event>
 6    1  0.4705246E-006  0.2580736E+03  0.7546771E-02  0.1110474E+00
         -1   -1    0    0    0  501 -0.00000000000E+00  0.00000000000E+00  0.24470475739E+03  0.24470475739E+03  0.00000000000E+00 0.  1.
          1   -1    0    0  501    0  0.00000000000E+00 -0.00000000000E+00 -0.25773970136E+03  0.25773970136E+03  0.00000000000E+00 0. -1.
          5    1    1    2  502    0  0.11884758349E+03 -0.20498265357E+01 -0.57093534750E+02  0.13194965555E+03  0.47000000000E+01 0.  1.
         -5    1    1    2    0  502  0.98313123147E+02 -0.59730040506E+02  0.51638663601E+02  0.12618157354E+03  0.47000000000E+01 0.  1.
        -11    1    1    2    0    0 -0.10835441494E+03  0.59170281721E+02  0.33595712403E+02  0.12794715068E+03  0.00000000000E+00 0.  1.
         11    1    1    2    0    0 -0.10880629169E+03  0.26095853207E+01 -0.41175785223E+02  0.11636607898E+03  0.00000000000E+00 0. -1.
<mgrwt>
<rscale>  0 0.25453185E+03</rscale>
<asrwt>0</asrwt>
<pdfrwt beam="2">  1        1 0.39652262E-01 0.25807359E+03</pdfrwt>
<pdfrwt beam="1">  1       -1 0.37646886E-01 0.25807359E+03</pdfrwt>
<totfact> 0.73262427E+02</totfact>
</mgrwt>
</event>
<event>
 6    1  0.4705246E-006  0.5569272E+03  0.7546771E-02  0.9999031E-01
          2   -1    0    0  501    0  0.00000000000E+00  0.00000000000E+00  0.75929329238E+03  0.75929329238E+03  0.00000000000E+00 0. -1.
         -2   -1    0    0    0  501 -0.00000000000E+00 -0.00000000000E+00 -0.10212389449E+03  0.10212389449E+03  0.00000000000E+00 0.  1.
          5    1    1    2  502    0 -0.12303083713E+03  0.11699398696E+03  0.54778303632E+03  0.57350895787E+03  0.47000000000E+01 0.  1.
         -5    1    1    2    0  502 -0.34173866478E+02  0.14965038523E+02  0.19050454032E+02  0.42152287327E+02  0.47000000000E+01 0.  1.
        -11    1    1    2    0    0  0.12628008521E+03 -0.76023554860E+02  0.16841771215E+02  0.14835729194E+03  0.00000000000E+00 0. -1.
         11    1    1    2    0    0  0.30924618392E+02 -0.55935470627E+02  0.73494136323E+02  0.97398649738E+02  0.00000000000E+00 0.  1.
<mgrwt>
<rscale>  0 0.55692724E+03</rscale>
<asrwt>0</asrwt>
<pdfrwt beam="1">  1        2 0.11681435E+00 0.55692724E+03</pdfrwt>
<pdfrwt beam="2">  1       -2 0.15711369E-01 0.55692724E+03</pdfrwt>
<totfact> 0.11999347E+03</totfact>
</mgrwt>
</event>
<event>
 6    1  0.4705246E-006  0.2590771E+03  0.7546771E-02  0.1107699E+00
          1   -1    0    0  501    0  0.00000000000E+00  0.00000000000E+00  0.38246094033E+02  0.38246094033E+02  0.00000000000E+00 0. -1.
         -1   -1    0    0    0  501 -0.00000000000E+00 -0.00000000000E+00 -0.43874379776E+03  0.43874379776E+03  0.00000000000E+00 0.  1.
          5    1    1    2  502    0  0.28453271059E+02 -0.56753033303E+02 -0.11091766996E+02  0.64618981098E+02  0.47000000000E+01 0.  1.
         -5    1    1    2    0  502 -0.19690804058E+02  0.91476978451E+00 -0.13210584029E+03  0.13365106661E+03  0.47000000000E+01 0.  1.
        -11    1    1    2    0    0 -0.39197243525E+02  0.41345747610E+02 -0.22475579866E+03  0.23186432191E+03  0.00000000000E+00 0.  1.
         11    1    1    2    0    0  0.30434776525E+02  0.14492515909E+02 -0.32544297784E+02  0.46855522169E+02  0.00000000000E+00 0. -1.
<mgrwt>
<rscale>  0 0.25907710E+03</rscale>
<asrwt>0</asrwt>
<pdfrwt beam="1">  1        1 0.58840144E-02 0.25907710E+03</pdfrwt>
<pdfrwt beam="2">  1       -1 0.67499047E-01 0.25907710E+03</pdfrwt>
<totfact> 0.30455028E+03</totfact>
</mgrwt>
</event>
<event>
 6    1  0.4705246E-006  0.1360730E+03  0.7546771E-02  0.1231718E+00
          1   -1    0    0  501    0  0.00000000000E+00  0.00000000000E+00  0.28405415222E+02  0.28405415222E+02  0.00000000000E+00 0. -1.
         -1   -1    0    0    0  501 -0.00000000000E+00 -0.00000000000E+00 -0.52097290874E+03  0.52097290874E+03  0.00000000000E+00 0.  1.
          5    1    1    2  502    0 -0.67466781721E+01  0.37787326500E+02 -0.35541721045E+02  0.52523362851E+02  0.47000000000E+01 0. -1.
         -5    1    1    2    0  502  0.34768076481E+02 -0.83660936568E+02 -0.19743919978E+03  0.21728391349E+03  0.47000000000E+01 0. -1.
        -11    1    1    2    0    0  0.30101685273E+02  0.19277453292E+01 -0.61286722287E+02  0.68307320157E+02  0.00000000000E+00 0.  1.
         11    1    1    2    0    0 -0.58123083582E+02  0.43945864738E+02 -0.19829985040E+03  0.21126372747E+03  0.00000000000E+00 0. -1.
<mgrwt>
<rscale>  0 0.12716863E+03</rscale>
<asrwt>0</asrwt>
<pdfrwt beam="1">  1        1 0.43700642E-02 0.13607298E+03</pdfrwt>
<pdfrwt beam="2">  1       -1 0.80149672E-01 0.13607298E+03</pdfrwt>
<totfact> 0.31436338E+03</totfact>
</mgrwt>
</event>
<event>
 6    1  0.4705246E-006  0.2415834E+03  0.7546771E-02  0.1118742E+00
          1   -1    0    0  501    0  0.00000000000E+00  0.00000000000E+00  0.17952282724E+03  0.17952282724E+03  0.00000000000E+00 0. -1.
         -1   -1    0    0    0  501 -0.00000000000E+00 -0.00000000000E+00 -0.81274540271E+02  0.81274540271E+02  0.00000000000E+00 0.  1.
          5    1    1    2  502    0 -0.32356173088E+02  0.48649681005E+02  0.11279614078E+03  0.12711716160E+03  0.47000000000E+01 0. -1.
         -5    1    1    2    0  502  0.17026429009E+01 -0.17742485836E+02 -0.25487148500E+02  0.31454404066E+02  0.47000000000E+01 0. -1.
        -11    1    1    2    0    0  0.38241302850E+02  0.51049094788E+01  0.39819611717E+02  0.55444195564E+02  0.00000000000E+00 0. -1.
         11    1    1    2    0    0 -0.75877726628E+01 -0.36012104647E+02 -0.28880317024E+02  0.46781606284E+02  0.00000000000E+00 0.  1.
<mgrwt>
<rscale>  0 0.24158340E+03</rscale>
<asrwt>0</asrwt>
<pdfrwt beam="1">  1        1 0.27618896E-01 0.24158340E+03</pdfrwt>
<pdfrwt beam="2">  1       -1 0.12503775E-01 0.24158340E+03</pdfrwt>
<totfact> 0.71143005E+03</totfact>
</mgrwt>
</event>
<event>
 6    1  0.4705246E-006  0.1444610E+03  0.7546771E-02  0.1217350E+00
          1   -1    0    0  501    0  0.00000000000E+00  0.00000000000E+00  0.17182481842E+03  0.17182481842E+03  0.00000000000E+00 0. -1.
         -1   -1    0    0    0  501 -0.00000000000E+00 -0.00000000000E+00 -0.12343703837E+03  0.12343703837E+03  0.00000000000E+00 0.  1.
          5    1    1    2  502    0 -0.21394443920E+02  0.11505888932E+02 -0.29429866540E+02  0.38448858960E+02  0.47000000000E+01 0. -1.
         -5    1    1    2    0  502 -0.50424153582E+02 -0.20822411064E+02  0.12040633135E+03  0.13227222950E+03  0.47000000000E+01 0. -1.
        -11    1    1    2    0    0  0.20141534297E+02  0.97750209351E+01  0.28757094313E+02  0.36444518263E+02  0.00000000000E+00 0. -1.
         11    1    1    2    0    0  0.51677063205E+02 -0.45849880329E+00 -0.71345779077E+02  0.88096250061E+02  0.00000000000E+00 0.  1.
<mgrwt>
<rscale>  0 0.13705331E+03</rscale>
<asrwt>0</asrwt>
<pdfrwt beam="1">  1        1 0.26434588E-01 0.14446097E+03</pdfrwt>
<pdfrwt beam="2">  1       -1 0.18990313E-01 0.14446097E+03</pdfrwt>
<totfact> 0.37719882E+03</totfact>
</mgrwt>
</event>
<event>
 6    1  0.4705246E-006  0.1552556E+03  0.7546771E-02  0.1200068E+00
          4   -1    0    0  501    0  0.00000000000E+00  0.00000000000E+00  0.14272057657E+04  0.14272057657E+04  0.00000000000E+00 0. -1.
         -4   -1    0    0    0  501 -0.00000000000E+00 -0.00000000000E+00 -0.18231214382E+02  0.18231214382E+02  0.00000000000E+00 0.  1.
          5    1    1    2  502    0 -0.43924389929E+02 -0.57299909946E+02  0.88234420629E+03  0.88530560830E+03  0.47000000000E+01 0. -1.
         -5    1    1    2    0  502  0.36709062692E+02 -0.39142069809E+02  0.16729640918E+03  0.17575504385E+03  0.47000000000E+01 0.  1.
        -11    1    1    2    0    0 -0.34416905220E+02  0.25672615202E+02  0.58673008707E+02  0.72705766532E+02  0.00000000000E+00 0.  1.
         11    1    1    2    0    0  0.41632232457E+02  0.70769364554E+02  0.30066092717E+03  0.31167056143E+03  0.00000000000E+00 0. -1.
<mgrwt>
<rscale>  0 0.15032988E+03</rscale>
<asrwt>0</asrwt>
<pdfrwt beam="1">  1        4 0.21957003E+00 0.15525555E+03</pdfrwt>
<pdfrwt beam="2">  1       -4 0.28048033E-02 0.15525555E+03</pdfrwt>
<totfact> 0.11389865E+02</totfact>
</mgrwt>
</event>
<event>
 6    1  0.4705246E-006  0.2172857E+03  0.7546771E-02  0.1139434E+00
          2   -1    0    0  501    0  0.00000000000E+00  0.00000000000E+00  0.13389155625E+03  0.13389155625E+03  0.00000000000E+00 0. -1.
         -2   -1    0    0    0  501 -0.00000000000E+00 -0.00000000000E+00 -0.32894523739E+03  0.32894523739E+03  0.00000000000E+00 0.  1.
          5    1    1    2  502    0 -0.33587948271E+02  0.18838616565E+03 -0.92727498635E+02  0.21269221114E+03  0.47000000000E+01 0.  1.
         -5    1    1    2    0  502 -0.64878097209E+01 -0.15238972523E+02 -0.35891453898E+02  0.39807090090E+02  0.47000000000E+01 0.  1.
        -11    1    1    2    0    0  0.15604564885E+02 -0.17127335153E+03 -0.69716922894E+02  0.18557616422E+03  0.00000000000E+00 0.  1.
         11    1    1    2    0    0  0.24471193106E+02 -0.18738415998E+01  0.32821942822E+01  0.24761328189E+02  0.00000000000E+00 0. -1.
<mgrwt>
<rscale>  0 0.21271458E+03</rscale>
<asrwt>0</asrwt>
<pdfrwt beam="1">  1        2 0.20598701E-01 0.21728567E+03</pdfrwt>
<pdfrwt beam="2">  1       -2 0.50606959E-01 0.21728567E+03</pdfrwt>
<totfact> 0.10015033E+03</totfact>
</mgrwt>
</event>
<event>
 6    1  0.4705246E-006  0.1312441E+03  0.7546771E-02  0.1239119E+00
          2   -1    0    0  501    0  0.00000000000E+00  0.00000000000E+00  0.88368038946E+03  0.88368038946E+03  0.00000000000E+00 0. -1.
         -2   -1    0    0    0  501 -0.00000000000E+00 -0.00000000000E+00 -0.29402703842E+02  0.29402703842E+02  0.00000000000E+00 0.  1.
          5    1    1    2  502    0  0.22738144929E+02 -0.99393301009E+01  0.25592801115E+02  0.35956848952E+02  0.47000000000E+01 0. -1.
         -5    1    1    2    0  502 -0.12678734896E+02 -0.28785811413E+02  0.74908511428E+03  0.74975994271E+03  0.47000000000E+01 0. -1.
        -11    1    1    2    0    0  0.30536871915E+02 -0.36416903080E-01  0.61032385054E+02  0.68245541231E+02  0.00000000000E+00 0. -1.
         11    1    1    2    0    0 -0.40596281948E+02  0.38761558417E+02  0.18567385165E+02  0.59120760404E+02  0.00000000000E+00 0.  1.
<mgrwt>
<rscale>  0 0.12244403E+03</rscale>
<asrwt>0</asrwt>
<pdfrwt beam="1">  1        2 0.13595081E+00 0.13124406E+03</pdfrwt>
<pdfrwt beam="2">  1       -2 0.45234936E-02 0.13124406E+03</pdfrwt>
<totfact> 0.68651794E+03</totfact>
</mgrwt>
</event>
<event>
 6    1  0.4705246E-006  0.4046546E+03  0.7546771E-02  0.1068698E+00
         -2   -1    0    0    0  501 -0.00000000000E+00  0.00000000000E+00  0.56927050519E+02  0.56927050519E+02  0.00000000000E+00 0.  1.
          2   -1    0    0  501    0  0.00000000000E+00 -0.00000000000E+00 -0.16253269502E+04  0.16253269502E+04  0.00000000000E+00 0. -1.
          5    1    1    2  502    0  0.10987423478E+03 -0.48224185836E+02 -0.10511176972E+04  0.10579548303E+04  0.47000000000E+01 0. -1.
         -5    1    1    2    0  502  0.25611228237E+02  0.14728728193E+03 -0.16022270055E+03  0.21918686594E+03  0.47000000000E+01 0.  1.
        -11    1    1    2    0    0 -0.12321791112E+03 -0.62982298327E+02 -0.19808742824E+03  0.24163619917E+03  0.00000000000E+00 0.  1.
         11    1    1    2    0    0 -0.12267551894E+02 -0.36080797764E+02 -0.15897207371E+03  0.16347610534E+03  0.00000000000E+00 0. -1.
<mgrwt>
<rscale>  0 0.33557131E+03</rscale>
<asrwt>0</asrwt>
<pdfrwt beam="2">  1        2 0.25005030E+00 0.40465461E+03</pdfrwt>
<pdfrwt beam="1">  1       -2 0.87580078E-02 0.40465461E+03</pdfrwt>
<totfact> 0.94985598E+02</totfact>
</mgrwt>
</event>
<event>
 6    1  0.4705246E-006  0.1359833E+03  0.7546771E-02  0.1230975E+00
          4   -1    0    0  501    0  0.00000000000E+00  0.00000000000E+00  0.55601507750E+02  0.55601507750E+02  0.00000000000E+00 0. -1.
         -4   -1    0    0    0  501 -0.00000000000E+00 -0.00000000000E+00 -0.26570016272E+03  0.26570016272E+03  0.00000000000E+00 0.  1.
          5    1    1    2  502    0 -0.51313640125E+01 -0.17824449837E+02 -0.14858179593E+03  0.14980881813E+03  0.47000000000E+01 0. -1.
         -5    1    1    2    0  502  0.23447994733E+02 -0.32479391280E+02  0.12841735418E+02  0.42328707557E+02  0.47000000000E+01 0. -1.
        -11    1    1    2    0    0 -0.23025948054E+02  0.34232079957E+02 -0.94414897084E+02  0.10303495704E+03  0.00000000000E+00 0.  1.
         11    1    1    2    0    0  0.47093173329E+01  0.16071761160E+02  0.20056302628E+02  0.26129187734E+02  0.00000000000E+00 0. -1.
<mgrwt>
<rscale>  0 0.12765679E+03</rscale>
<asrwt>0</asrwt>
<pdfrwt beam="1">  1        4 0.85540781E-02 0.13598333E+03</pdfrwt>
<pdfrwt beam="2">  1       -4 0.40876948E-01 0.13598333E+03</pdfrwt>
<totfact> 0.95072435E+02</totfact>
</mgrwt>
</event>
<event>
 6    1  0.6110470E-006  0.4028790E+03  0.7546771E-02  0.1043585E+00
         -1   -1    0    0    0  501 -0.00000000000E+00  0.00000000000E+00  0.15888003531E+04  0.15888003531E+04  0.00000000000E+00 0.  1.
          1   -1    0    0  501    0  0.00000000000E+00 -0.00000000000E+00 -0.11306222430E+03  0.11306222430E+03  0.00000000000E+00 0. -1.
          5    1    1    2  502    0 -0.22752273493E+03 -0.33871035894E+02  0.27039346510E+03  0.35503317866E+03  0.47000000000E+01 0.  1.
         -5    1    1    2    0  502 -0.12264210652E+03 -0.12127655492E+03  0.18404275389E+03  0.25227547310E+03  0.47000000000E+01 0.  1.
        -11    1    1    2    0    0  0.35896222560E+02  0.39636142673E+02  0.87587153663E+02  0.10262101192E+03  0.00000000000E+00 0. -1.
         11    1    1    2    0    0  0.31426861889E+03  0.11551144814E+03  0.93371475611E+03  0.99193291369E+03  0.00000000000E+00 0.  1.
<mgrwt>
<rscale>  0 0.40056151E+03</rscale>
<asrwt>0</asrwt>
<pdfrwt beam="2">  1        1 0.17394189E-01 0.40287904E+03</pdfrwt>
<pdfrwt beam="1">  1       -1 0.24443081E+00 0.40287904E+03</pdfrwt>
<totfact> 0.25783722E+01</totfact>
</mgrwt>
</event>
<event>
 6    1  0.4705246E-006  0.1310368E+03  0.7546771E-02  0.1239228E+00
         -2   -1    0    0    0  501 -0.00000000000E+00  0.00000000000E+00  0.56370698487E+02  0.56370698487E+02  0.00000000000E+00 0. -1.
          2   -1    0    0  501    0  0.00000000000E+00 -0.00000000000E+00 -0.23657917522E+03  0.23657917522E+03  0.00000000000E+00 0.  1.
          5    1    1    2  502    0  0.13874301896E+02  0.60151549878E+02 -0.41332827863E+02  0.74439222625E+02  0.47000000000E+01 0. -1.
         -5    1    1    2    0  502  0.25331346138E+02 -0.63040418836E+02 -0.67705901550E+02  0.96030987753E+02  0.47000000000E+01 0. -1.
        -11    1    1    2    0    0 -0.21586602078E+02 -0.21898651013E+02 -0.84016038617E+02  0.89466345909E+02  0.00000000000E+00 0.  1.
         11    1    1    2    0    0 -0.17619045956E+02  0.24787519971E+02  0.12846291300E+02  0.33013317417E+02  0.00000000000E+00 0. -1.
<mgrwt>
<rscale>  0 0.12237626E+03</rscale>
<asrwt>0</asrwt>
<pdfrwt beam="2">  1        2 0.36396796E-01 0.13103682E+03</pdfrwt>
<pdfrwt beam="1">  1       -2 0.86724151E-02 0.13103682E+03</pdfrwt>
<totfact> 0.11084392E+04</totfact>
</mgrwt>
</event>
<event>
 6    1  0.4705246E-006  0.1300511E+03  0.7546771E-02  0.1241905E+00
         -2   -1    0    0    0  501 -0.00000000000E+00  0.00000000000E+00  0.22913535517E+02  0.22913535517E+02  0.00000000000E+00 0.  1.
          2   -1    0    0  501    0  0.00000000000E+00 -0.00000000000E+00 -0.56233228177E+03  0.56233228177E+03  0.00000000000E+00 0. -1.
          5    1    1    2  502    0 -0.19276499228E+02  0.42680632099E+02 -0.10806036986E+03  0.11786582758E+03  0.47000000000E+01 0. -1.
         -5    1    1    2    0  502  0.37635232181E+02 -0.73524732978E+02 -0.21853457065E+03  0.23367016419E+03  0.47000000000E+01 0. -1.
        -11    1    1    2    0    0  0.26738526918E+02  0.61628285009E+01 -0.15020630079E+03  0.15269204981E+03  0.00000000000E+00 0. -1.
         11    1    1    2    0    0 -0.45097259871E+02  0.24681272378E+02 -0.62617504951E+02  0.81017775706E+02  0.00000000000E+00 0.  1.
<mgrwt>
<rscale>  0 0.12072559E+03</rscale>
<asrwt>0</asrwt>
<pdfrwt beam="2">  1        2 0.86512653E-01 0.13005114E+03</pdfrwt>
<pdfrwt beam="1">  1       -2 0.35251596E-02 0.13005114E+03</pdfrwt>
<totfact> 0.17044254E+04</totfact>
</mgrwt>
</event>
<event>
 6    1  0.4705246E-006  0.2065940E+03  0.7546771E-02  0.1148349E+00
         -1   -1    0    0    0  501 -0.00000000000E+00  0.00000000000E+00  0.45390350665E+02  0.45390350665E+02  0.00000000000E+00 0.  1.
          1   -1    0    0  501    0  0.00000000000E+00 -0.00000000000E+00 -0.95011895544E+03  0.95011895544E+03  0.00000000000E+00 0. -1.
          5    1    1    2  502    0  0.17455610882E+03 -0.99952387304E+01 -0.45482964234E+03  0.48730055764E+03  0.47000000000E+01 0.  1.
         -5    1    1    2    0  502 -0.11056465404E+02 -0.79135987347E+01 -0.17406130007E+03  0.17465479282E+03  0.47000000000E+01 0.  1.
        -11    1    1    2    0    0  0.34459500862E+01 -0.14427082649E+02 -0.96813476147E+01  0.17712813932E+02  0.00000000000E+00 0.  1.
         11    1    1    2    0    0 -0.16694559350E+03  0.32335920114E+02 -0.26615631475E+03  0.31584114171E+03  0.00000000000E+00 0. -1.
<mgrwt>
<rscale>  0 0.20165667E+03</rscale>
<asrwt>0</asrwt>
<pdfrwt beam="2">  1        1 0.14617214E+00 0.20659397E+03</pdfrwt>
<pdfrwt beam="1">  1       -1 0.69831310E-02 0.20659397E+03</pdfrwt>
<totfact> 0.18465054E+03</totfact>
</mgrwt>
</event>
<event>
 6    1  0.4705246E-006  0.3624669E+03  0.7546771E-02  0.1057611E+00
         -2   -1    0    0    0  501 -0.00000000000E+00  0.00000000000E+00  0.21784311607E+02  0.21784311607E+02  0.00000000000E+00 0.  1.
          2   -1    0    0  501    0  0.00000000000E+00 -0.00000000000E+00 -0.15077626507E+04  0.15077626507E+04  0.00000000000E+00 0. -1.
          5    1    1    2  502    0  0.11520155364E+01 -0.56739719261E+01  0.40038299213E+00  0.74680254254E+01  0.47000000000E+01 0. -1.
         -5    1    1    2    0  502  0.10051232833E+03 -0.74341186122E+02 -0.10514357430E+04  0.10588524693E+04  0.47000000000E+01 0. -1.
        -11    1    1    2    0    0 -0.94141634855E+01  0.39939893158E+02 -0.46699309090E+02  0.62166285148E+02  0.00000000000E+00 0.  1.
         11    1    1    2    0    0 -0.92250180386E+02  0.40075264890E+02 -0.38824367002E+03  0.40106018245E+03  0.00000000000E+00 0. -1.
<mgrwt>
<rscale>  0 0.36246694E+03</rscale>
<asrwt>0</asrwt>
<pdfrwt beam="2">  1        2 0.23196346E+00 0.36246694E+03</pdfrwt>
<pdfrwt beam="1">  1       -2 0.33514329E-02 0.36246694E+03</pdfrwt>
<totfact> 0.48602050E+03</totfact>
</mgrwt>
</event>
<event>
 6    1  0.4705246E-006  0.2794545E+03  0.7546771E-02  0.1095987E+00
         -1   -1    0    0    0  501 -0.00000000000E+00  0.00000000000E+00  0.18092035206E+02  0.18092035206E+02  0.00000000000E+00 0.  1.
          1   -1    0    0  501    0  0.00000000000E+00 -0.00000000000E+00 -0.10791328585E+04  0.10791328585E+04  0.00000000000E+00 0. -1.
          5    1    1    2  502    0  0.25751291570E+02  0.22153447924E+02 -0.20356959775E+03  0.20643782454E+03  0.47000000000E+01 0.  1.
         -5    1    1    2    0  502 -0.99347106203E+02 -0.55229901952E+02 -0.53244059286E+03  0.54445868944E+03  0.47000000000E+01 0.  1.
        -11    1    1    2    0    0  0.20512730075E+02  0.46066273200E+02 -0.74872601777E+02  0.90270593875E+02  0.00000000000E+00 0.  1.
         11    1    1    2    0    0  0.53083084558E+02 -0.12989819173E+02 -0.25015803085E+03  0.25605778580E+03  0.00000000000E+00 0. -1.
<mgrwt>
<rscale>  0 0.27945454E+03</rscale>
<asrwt>0</asrwt>
<pdfrwt beam="2">  1        1 0.16602052E+00 0.27945454E+03</pdfrwt>
<pdfrwt beam="1">  1       -1 0.27833887E-02 0.27945454E+03</pdfrwt>
<totfact> 0.58886119E+03</totfact>
</mgrwt>
</event>
<event>
 6    1  0.4705246E-006  0.1351554E+03  0.7546771E-02  0.1231736E+00
         -2   -1    0    0    0  501 -0.00000000000E+00  0.00000000000E+00  0.29598473106E+02  0.29598473106E+02  0.00000000000E+00 0.  1.
          2   -1    0    0  501    0  0.00000000000E+00 -0.00000000000E+00 -0.50784847322E+03  0.50784847322E+03  0.00000000000E+00 0. -1.
          5    1    1    2  502    0  0.26880814772E+02 -0.24791026879E+02 -0.40743679491E+02  0.54948254158E+02  0.47000000000E+01 0.  1.
         -5    1    1    2    0  502 -0.73027163778E+02  0.47420886046E+02 -0.27536313150E+03  0.28884018292E+03  0.47000000000E+01 0.  1.
        -11    1    1    2    0    0  0.43897394309E+02 -0.56494814912E+02 -0.11769112492E+03  0.13773106484E+03  0.00000000000E+00 0.  1.
         11    1    1    2    0    0  0.22489546975E+01  0.33864955745E+02 -0.44452064208E+02  0.55927444401E+02  0.00000000000E+00 0. -1.
<mgrwt>
<rscale>  0 0.12715727E+03</rscale>
<asrwt>0</asrwt>
<pdfrwt beam="2">  1        2 0.78130535E-01 0.13515537E+03</pdfrwt>
<pdfrwt beam="1">  1       -2 0.45536112E-02 0.13515537E+03</pdfrwt>
<totfact> 0.13087884E+04</totfact>
</mgrwt>
</event>
<event>
 6    1  0.4705246E-006  0.2495192E+03  0.7546771E-02  0.1115891E+00
          1   -1    0    0  501    0  0.00000000000E+00  0.00000000000E+00  0.16958126362E+03  0.16958126362E+03  0.00000000000E+00 0. -1.
         -1   -1    0    0    0  501 -0.00000000000E+00 -0.00000000000E+00 -0.35681728425E+03  0.35681728425E+03  0.00000000000E+00 0.  1.
          5    1    1    2  502    0  0.68295346598E+02 -0.71558666727E+00  0.30136469266E+02  0.74800155154E+02  0.47000000000E+01 0. -1.
         -5    1    1    2    0  502  0.98283562164E+02 -0.12638054023E+03 -0.82450980073E+02  0.18014425791E+03  0.47000000000E+01 0.  1.
        -11    1    1    2    0    0 -0.14980395966E+03  0.86316293404E+02 -0.57224327305E+02  0.18211631578E+03  0.00000000000E+00 0.  1.
         11    1    1    2    0    0 -0.16774949103E+02  0.40779833498E+02 -0.77697182523E+02  0.89337819033E+02  0.00000000000E+00 0. -1.
<mgrwt>
<rscale>  0 0.24595096E+03</rscale>
<asrwt>0</asrwt>
<pdfrwt beam="1">  1        1 0.26089425E-01 0.24951923E+03</pdfrwt>
<pdfrwt beam="2">  1       -1 0.54894966E-01 0.24951923E+03</pdfrwt>
<totfact> 0.62578995E+02</totfact>
</mgrwt>
</event>
<event>
 6    1  0.4705246E-006  0.1987628E+03  0.7546771E-02  0.1155130E+00
          1   -1    0    0  501    0  0.00000000000E+00  0.00000000000E+00  0.43727876455E+03  0.43727876455E+03  0.00000000000E+00 0. -1.
         -1   -1    0    0    0  501 -0.00000000000E+00 -0.00000000000E+00 -0.91162435555E+02  0.91162435555E+02  0.00000000000E+00 0.  1.
          5    1    1    2  502    0 -0.14407346028E+01  0.30426859157E+02  0.65412764769E+02  0.72310367646E+02  0.47000000000E+01 0.  1.
         -5    1    1    2    0  502  0.15257125265E+03 -0.62683762187E+02  0.20029543745E+03  0.25951414882E+03  0.47000000000E+01 0.  1.
        -11    1    1    2    0    0 -0.13034807552E+03  0.42231622021E+02  0.28685103732E+02  0.13998916339E+03  0.00000000000E+00 0.  1.
         11    1    1    2    0    0 -0.20782442525E+02 -0.99747189906E+01  0.51723023048E+02  0.56627520248E+02  0.00000000000E+00 0. -1.
<mgrwt>
<rscale>  0 0.19374075E+03</rscale>
<asrwt>0</asrwt>
<pdfrwt beam="1">  1        1 0.67273655E-01 0.19876283E+03</pdfrwt>
<pdfrwt beam="2">  1       -1 0.14024990E-01 0.19876283E+03</pdfrwt>
<totfact> 0.19144022E+03</totfact>
</mgrwt>
</event>
<event>
 6    1  0.4705246E-006  0.1259436E+03  0.7546771E-02  0.1248950E+00
          2   -1    0    0  501    0  0.00000000000E+00  0.00000000000E+00  0.75609943501E+03  0.75609943501E+03  0.00000000000E+00 0.  1.
         -2   -1    0    0    0  501 -0.00000000000E+00 -0.00000000000E+00 -0.15822757296E+02  0.15822757296E+02  0.00000000000E+00 0. -1.
          5    1    1    2  502    0 -0.22783462532E+02  0.43941305614E+02  0.28854116257E+03  0.29279347158E+03  0.47000000000E+01 0.  1.
         -5    1    1    2    0  502  0.37989691575E+02 -0.46204142697E+02  0.11169780507E+03  0.12679325348E+03  0.47000000000E+01 0.  1.
        -11    1    1    2    0    0 -0.53685052118E+02  0.48663720112E+00  0.20460195205E+03  0.21152843880E+03  0.00000000000E+00 0.  1.
         11    1    1    2    0    0  0.38478823075E+02  0.17761998810E+01  0.13543575802E+03  0.14080702845E+03  0.00000000000E+00 0. -1.
<mgrwt>
<rscale>  0 0.11652063E+03</rscale>
<asrwt>0</asrwt>
<pdfrwt beam="1">  1        2 0.11632296E+00 0.12594359E+03</pdfrwt>
<pdfrwt beam="2">  1       -2 0.24342710E-02 0.12594359E+03</pdfrwt>
<totfact> 0.20740209E+04</totfact>
</mgrwt>
</event>
<event>
 6    1  0.4705246E-006  0.1347447E+03  0.7546771E-02  0.1231668E+00
         -1   -1    0    0    0  501 -0.00000000000E+00  0.00000000000E+00  0.79183049910E+02  0.79183049910E+02  0.00000000000E+00 0.  1.
          1   -1    0    0  501    0  0.00000000000E+00 -0.00000000000E+00 -0.34161426386E+03  0.34161426386E+03  0.00000000000E+00 0. -1.
          5    1    1    2  502    0 -0.24817182765E+02 -0.17249144419E+02 -0.24830633945E+03  0.25018304051E+03  0.47000000000E+01 0. -1.
         -5    1    1    2    0  502  0.42682550946E+02 -0.29780609930E+02 -0.33204182530E+02  0.61913589951E+02  0.47000000000E+01 0. -1.
        -11    1    1    2    0    0  0.73376198508E+01  0.24425191726E+02  0.54211588331E+02  0.59910992024E+02  0.00000000000E+00 0.  1.
         11    1    1    2    0    0 -0.25202988032E+02  0.22604562624E+02 -0.35132280295E+02  0.48789691286E+02  0.00000000000E+00 0. -1.
<mgrwt>
<rscale>  0 0.12720174E+03</rscale>
<asrwt>0</asrwt>
<pdfrwt beam="2">  1        1 0.52556039E-01 0.13474469E+03</pdfrwt>
<pdfrwt beam="1">  1       -1 0.12182008E-01 0.13474469E+03</pdfrwt>
<totfact> 0.32169407E+03</totfact>
</mgrwt>
</event>
<event>
 6    1  0.4705246E-006  0.1747787E+03  0.7546771E-02  0.1179072E+00
         -1   -1    0    0    0  501 -0.00000000000E+00  0.00000000000E+00  0.71058429913E+02  0.71058429913E+02  0.00000000000E+00 0.  1.
          1   -1    0    0  501    0  0.00000000000E+00 -0.00000000000E+00 -0.37614572966E+03  0.37614572966E+03  0.00000000000E+00 0. -1.
          5    1    1    2  502    0 -0.92355353174E+02  0.22097570202E+02 -0.62552696309E+02  0.11381012119E+03  0.47000000000E+01 0.  1.
         -5    1    1    2    0  502  0.16039068863E+02  0.73280655389E+02 -0.98116352410E+02  0.12359698538E+03  0.47000000000E+01 0.  1.
        -11    1    1    2    0    0  0.29534319132E+02 -0.56012386478E+02 -0.13340725406E+03  0.14767247165E+03  0.00000000000E+00 0. -1.
         11    1    1    2    0    0  0.46781965179E+02 -0.39365839113E+02 -0.11010996963E+02  0.62124581360E+02  0.00000000000E+00 0.  1.
<mgrwt>
<rscale>  0 0.16883186E+03</rscale>
<asrwt>0</asrwt>
<pdfrwt beam="2">  1        1 0.57868575E-01 0.17477869E+03</pdfrwt>
<pdfrwt beam="1">  1       -1 0.10932066E-01 0.17477869E+03</pdfrwt>
<totfact> 0.34070129E+03</totfact>
</mgrwt>
</event>
<event>
 6    1  0.4705246E-006  0.1251127E+03  0.7546771E-02  0.1250504E+00
          1   -1    0    0  501    0  0.00000000000E+00  0.00000000000E+00  0.66627864105E+03  0.66627864105E+03  0.00000000000E+00 0. -1.
         -1   -1    0    0    0  501 -0.00000000000E+00 -0.00000000000E+00 -0.29993466133E+02  0.29993466133E+02  0.00000000000E+00 0.  1.
          5    1    1    2  502    0  0.43559037069E+02  0.24640540756E+02  0.45860055638E+03  0.46134705621E+03  0.47000000000E+01 0. -1.
         -5    1    1    2    0  502 -0.45949619176E+02 -0.19793072356E+02  0.11119727858E+03  0.12202482525E+03  0.47000000000E+01 0. -1.
        -11    1    1    2    0    0  0.36555303215E+02  0.14734721263E+02  0.47848139223E+01  0.39702602536E+02  0.00000000000E+00 0.  1.
         11    1    1    2    0    0 -0.34164721108E+02 -0.19582189663E+02  0.61702526040E+02  0.73197623186E+02  0.00000000000E+00 0. -1.
<mgrwt>
<rscale>  0 0.11561916E+03</rscale>
<asrwt>0</asrwt>
<pdfrwt beam="1">  1        1 0.10250439E+00 0.12511267E+03</pdfrwt>
<pdfrwt beam="2">  1       -1 0.46143799E-02 0.12511267E+03</pdfrwt>
<totfact> 0.57866646E+03</totfact>
</mgrwt>
</event>
<event>
 6    1  0.4705246E-006  0.1253656E+03  0.7546771E-02  0.1250328E+00
         -1   -1    0    0    0  501 -0.00000000000E+00  0.00000000000E+00  0.15379685299E+02  0.15379685299E+02  0.00000000000E+00 0.  1.
          1   -1    0    0  501    0  0.00000000000E+00 -0.00000000000E+00 -0.10076792518E+04  0.10076792518E+04  0.00000000000E+00 0. -1.
          5    1    1    2  502    0 -0.98717607467E+01  0.58650138308E+02 -0.26386597196E+03  0.27052658195E+03  0.47000000000E+01 0.  1.
         -5    1    1    2    0  502  0.18221043481E+02 -0.54216737586E+02 -0.54240585087E+03  0.54543345893E+03  0.47000000000E+01 0.  1.
        -11    1    1    2    0    0 -0.34158477516E+02 -0.32048787012E+02 -0.13949445677E+03  0.14714832587E+03  0.00000000000E+00 0. -1.
         11    1    1    2    0    0  0.25809194781E+02  0.27615386289E+02 -0.46533286863E+02  0.59950570318E+02  0.00000000000E+00 0.  1.
<mgrwt>
<rscale>  0 0.11572079E+03</rscale>
<asrwt>0</asrwt>
<pdfrwt beam="2">  1        1 0.15502758E+00 0.12536561E+03</pdfrwt>
<pdfrwt beam="1">  1       -1 0.23661054E-02 0.12536561E+03</pdfrwt>
<totfact> 0.81463931E+03</totfact>
</mgrwt>
</event>
<event>
 6    1  0.4705246E-006  0.1293207E+03  0.7546771E-02  0.1243309E+00
         -2   -1    0    0    0  501 -0.00000000000E+00  0.00000000000E+00  0.51614665582E+02  0.51614665582E+02  0.00000000000E+00 0.  1.
          2   -1    0    0  501    0  0.00000000000E+00 -0.00000000000E+00 -0.24506925566E+03  0.24506925566E+03  0.00000000000E+00 0. -1.
          5    1    1    2  502    0  0.42868989322E+02 -0.40077293259E+02 -0.10834530500E+03  0.12330748070E+03  0.47000000000E+01 0. -1.
         -5    1    1    2    0  502 -0.97844717296E+01  0.42457438253E+02  0.23724860645E+01  0.43887226390E+02  0.47000000000E+01 0. -1.
        -11    1    1    2    0    0 -0.31400305834E+02  0.11931449209E+02 -0.10298397035E+03  0.10832375933E+03  0.00000000000E+00 0. -1.
         11    1    1    2    0    0 -0.16842117584E+01 -0.14311594203E+02  0.15502199204E+02  0.21165454827E+02  0.00000000000E+00 0.  1.
<mgrwt>
<rscale>  0 0.11987177E+03</rscale>
<asrwt>0</asrwt>
<pdfrwt beam="2">  1        2 0.37702963E-01 0.12932065E+03</pdfrwt>
<pdfrwt beam="1">  1       -2 0.79407177E-02 0.12932065E+03</pdfrwt>
<totfact> 0.12221283E+04</totfact>
</mgrwt>
</event>
<event>
 6    1  0.4705246E-006  0.1500774E+03  0.7546771E-02  0.1208826E+00
         -1   -1    0    0    0  501 -0.00000000000E+00  0.00000000000E+00  0.14823936694E+02  0.14823936694E+02  0.00000000000E+00 0.  1.
          1   -1    0    0  501    0  0.00000000000E+00 -0.00000000000E+00 -0.18304821583E+04  0.18304821583E+04  0.00000000000E+00 0. -1.
          5    1    1    2  502    0 -0.21187248728E+02 -0.42450619057E+02 -0.13224985081E+04  0.13233576042E+04  0.47000000000E+01 0. -1.
         -5    1    1    2    0  502 -0.44331048743E+02 -0.85940027749E+01 -0.14871257826E+03  0.15548832657E+03  0.47000000000E+01 0. -1.
        -11    1    1    2    0    0  0.78579499090E+02  0.67079510244E+02 -0.26679947798E+03  0.28610550471E+03  0.00000000000E+00 0.  1.
         11    1    1    2    0    0 -0.13061201619E+02 -0.16034888412E+02 -0.77647657286E+02  0.80354659580E+02  0.00000000000E+00 0. -1.
<mgrwt>
<rscale>  0 0.14339964E+03</rscale>
<asrwt>0</asrwt>
<pdfrwt beam="2">  1        1 0.28161265E+00 0.15007740E+03</pdfrwt>
<pdfrwt beam="1">  1       -1 0.22806056E-02 0.15007740E+03</pdfrwt>
<totfact> 0.24549927E+03</totfact>
</mgrwt>
</event>
<event>
 6    1  0.4705246E-006  0.2644271E+03  0.7546771E-02  0.1142783E+00
          2   -1    0    0  501    0  0.00000000000E+00  0.00000000000E+00  0.78568547686E+03  0.78568547686E+03  0.00000000000E+00 0. -1.
         -2   -1    0    0    0  501 -0.00000000000E+00 -0.00000000000E+00 -0.80065217782E+02  0.80065217782E+02  0.00000000000E+00 0.  1.
          5    1    1    2  502    0  0.41465730418E+02 -0.10246510157E+03  0.23488354826E+03  0.25963604349E+03  0.47000000000E+01 0. -1.
         -5    1    1    2    0  502 -0.79111338897E+02  0.12607332053E+03  0.48092630048E+03  0.50345335691E+03  0.47000000000E+01 0.  1.
        -11    1    1    2    0    0  0.64492317103E+02  0.24176639867E+01 -0.31582527957E+01  0.64614848334E+02  0.00000000000E+00 0.  1.
         11    1    1    2    0    0 -0.26846708624E+02 -0.26025882949E+02 -0.70313368716E+01  0.38046445897E+02  0.00000000000E+00 0. -1.
<mgrwt>
<rscale>  0 0.20847007E+03</rscale>
<asrwt>0</asrwt>
<pdfrwt beam="1">  1        2 0.12087468E+00 0.26442710E+03</pdfrwt>
<pdfrwt beam="2">  1       -2 0.12317726E-01 0.26442710E+03</pdfrwt>
<totfact> 0.17187768E+03</totfact>
</mgrwt>
</event>
<event>
 6    1  0.4705246E-006  0.1253974E+03  0.7546771E-02  0.1249558E+00
          2   -1    0    0  501    0  0.00000000000E+00  0.00000000000E+00  0.13094179581E+02  0.13094179581E+02  0.00000000000E+00 0. -1.
         -2   -1    0    0    0  501 -0.00000000000E+00 -0.00000000000E+00 -0.93732085568E+03  0.93732085568E+03  0.00000000000E+00 0.  1.
          5    1    1    2  502    0 -0.54778807612E+02  0.25602639644E+02 -0.15973353769E+03  0.17085990163E+03  0.47000000000E+01 0. -1.
         -5    1    1    2    0  502  0.49265145711E+02 -0.33881961889E+02 -0.28324661533E+03  0.28952681572E+03  0.47000000000E+01 0. -1.
        -11    1    1    2    0    0 -0.85868077715E+01  0.48749102793E+02 -0.25773154360E+03  0.26244191140E+03  0.00000000000E+00 0. -1.
         11    1    1    2    0    0  0.14100469673E+02 -0.40469780547E+02 -0.22351497948E+03  0.22758640653E+03  0.00000000000E+00 0.  1.
<mgrwt>
<rscale>  0 0.11616683E+03</rscale>
<asrwt>0</asrwt>
<pdfrwt beam="1">  1        2 0.20144895E-02 0.12539742E+03</pdfrwt>
<pdfrwt beam="2">  1       -2 0.14420318E+00 0.12539742E+03</pdfrwt>
<totfact> 0.18135864E+03</totfact>
</mgrwt>
</event>
<event>
 6    1  0.4705246E-006  0.4314938E+03  0.7546771E-02  0.1034064E+00
         -1   -1    0    0    0  501 -0.00000000000E+00  0.00000000000E+00  0.98840907611E+02  0.98840907611E+02  0.00000000000E+00 0.  1.
          1   -1    0    0  501    0  0.00000000000E+00 -0.00000000000E+00 -0.18510633166E+04  0.18510633166E+04  0.00000000000E+00 0. -1.
          5    1    1    2  502    0 -0.40464732533E+03  0.60583526412E+02 -0.89403394732E+03  0.98322358116E+03  0.47000000000E+01 0. -1.
         -5    1    1    2    0  502 -0.15637531560E+00  0.21322766501E+02 -0.37510648329E+02  0.43403036329E+02  0.47000000000E+01 0. -1.
        -11    1    1    2    0    0  0.12097805879E+03 -0.22724296282E+02 -0.34390308317E+03  0.36526896250E+03  0.00000000000E+00 0. -1.
         11    1    1    2    0    0  0.28382564186E+03 -0.59181996632E+02 -0.47677473013E+03  0.55800864419E+03  0.00000000000E+00 0.  1.
<mgrwt>
<rscale>  0 0.42935461E+03</rscale>
<asrwt>0</asrwt>
<pdfrwt beam="2">  1        1 0.28477894E+00 0.43149378E+03</pdfrwt>
<pdfrwt beam="1">  1       -1 0.15206295E-01 0.43149378E+03</pdfrwt>
<totfact> 0.12905286E+02</totfact>
</mgrwt>
</event>
<event>
 6    1  0.4705246E-006  0.2634226E+03  0.7546771E-02  0.1108121E+00
         -2   -1    0    0    0  501 -0.00000000000E+00  0.00000000000E+00  0.75773710896E+03  0.75773710896E+03  0.00000000000E+00 0. -1.
          2   -1    0    0  501    0  0.00000000000E+00 -0.00000000000E+00 -0.10862950135E+03  0.10862950135E+03  0.00000000000E+00 0.  1.
          5    1    1    2  502    0 -0.96701773707E+02 -0.21502122952E+03  0.14506005775E+03  0.27685713380E+03  0.47000000000E+01 0.  1.
         -5    1    1    2    0  502 -0.76645368027E+01  0.79683876923E+01 -0.13095695085E+02  0.17771537823E+02  0.47000000000E+01 0.  1.
        -11    1    1    2    0    0  0.42651471432E+02  0.36797504278E+02  0.18559140584E+03  0.19395198957E+03  0.00000000000E+00 0.  1.
         11    1    1    2    0    0  0.61714839078E+02  0.17025533755E+03  0.33155183911E+03  0.37778594911E+03  0.00000000000E+00 0. -1.
<mgrwt>
<rscale>  0 0.25837835E+03</rscale>
<asrwt>0</asrwt>
<pdfrwt beam="2">  1        2 0.16712231E-01 0.26342259E+03</pdfrwt>
<pdfrwt beam="1">  1       -2 0.11657494E+00 0.26342259E+03</pdfrwt>
<totfact> 0.20479251E+02</totfact>
</mgrwt>
</event>
<event>
 6    1  0.4705246E-006  0.1597416E+03  0.7546771E-02  0.1195642E+00
          1   -1    0    0  501    0  0.00000000000E+00  0.00000000000E+00  0.44838351818E+03  0.44838351818E+03  0.00000000000E+00 0. -1.
         -1   -1    0    0    0  501 -0.00000000000E+00 -0.00000000000E+00 -0.50934703116E+02  0.50934703116E+02  0.00000000000E+00 0.  1.
          5    1    1    2  502    0  0.31408685027E+02  0.24041993878E+02  0.71346446317E+02  0.81712473753E+02  0.47000000000E+01 0.  1.
         -5    1    1    2    0  502 -0.34737996759E+01 -0.11951773236E+03  0.18437026296E+03  0.21979772405E+03  0.47000000000E+01 0.  1.
        -11    1    1    2    0    0  0.17846021224E+02  0.89639723715E+02  0.10144661698E+03  0.13654734212E+03  0.00000000000E+00 0. -1.
         11    1    1    2    0    0 -0.45780906576E+02  0.58360147639E+01  0.40285488806E+02  0.61260681383E+02  0.00000000000E+00 0.  1.
<mgrwt>
<rscale>  0 0.15400041E+03</rscale>
<asrwt>0</asrwt>
<pdfrwt beam="1">  1        1 0.68982077E-01 0.15974155E+03</pdfrwt>
<pdfrwt beam="2">  1       -1 0.78361084E-02 0.15974155E+03</pdfrwt>
<totfact> 0.45126581E+03</totfact>
</mgrwt>
</event>
<event>
 6    1  0.4705246E-006  0.1286158E+03  0.7546771E-02  0.1243682E+00
          1   -1    0    0  501    0  0.00000000000E+00  0.00000000000E+00  0.20538591596E+03  0.20538591596E+03  0.00000000000E+00 0. -1.
         -1   -1    0    0    0  501 -0.00000000000E+00 -0.00000000000E+00 -0.10063060971E+03  0.10063060971E+03  0.00000000000E+00 0.  1.
          5    1    1    2  502    0  0.42583457417E+01 -0.55721302504E+02  0.13637979652E+03  0.14746028604E+03  0.47000000000E+01 0.  1.
         -5    1    1    2    0  502  0.23222951972E+02  0.42983823703E+02  0.15305490444E+02  0.51412669996E+02  0.47000000000E+01 0.  1.
        -11    1    1    2    0    0 -0.22296248101E+02  0.33207016585E+02 -0.66987267536E+02  0.78020014367E+02  0.00000000000E+00 0.  1.
         11    1    1    2    0    0 -0.51850496136E+01 -0.20469537784E+02  0.20057286829E+02  0.29123555270E+02  0.00000000000E+00 0. -1.
<mgrwt>
<rscale>  0 0.11964611E+03</rscale>
<asrwt>0</asrwt>
<pdfrwt beam="1">  1        1 0.31597833E-01 0.12861581E+03</pdfrwt>
<pdfrwt beam="2">  1       -1 0.15481632E-01 0.12861581E+03</pdfrwt>
<totfact> 0.41477205E+03</totfact>
</mgrwt>
</event>
<event>
 6    1  0.4705246E-006  0.1541681E+03  0.7546771E-02  0.1203559E+00
         -2   -1    0    0    0  501 -0.00000000000E+00  0.00000000000E+00  0.36680182237E+02  0.36680182237E+02  0.00000000000E+00 0.  1.
          2   -1    0    0  501    0  0.00000000000E+00 -0.00000000000E+00 -0.55062930541E+03  0.55062930541E+03  0.00000000000E+00 0. -1.
          5    1    1    2  502    0  0.33071764609E+02 -0.48687208600E+02 -0.13469367192E+03  0.14706685945E+03  0.47000000000E+01 0. -1.
         -5    1    1    2    0  502  0.53612545799E+02  0.73764109257E+02 -0.12237455126E+03  0.15268618038E+03  0.47000000000E+01 0. -1.
        -11    1    1    2    0    0 -0.43684961177E+00  0.27809578391E+02 -0.48344099337E+02  0.55773788007E+02  0.00000000000E+00 0.  1.
         11    1    1    2    0    0 -0.86247460796E+02 -0.52886479048E+02 -0.20853680065E+03  0.23178265981E+03  0.00000000000E+00 0. -1.
<mgrwt>
<rscale>  0 0.14751578E+03</rscale>
<asrwt>0</asrwt>
<pdfrwt beam="2">  1        2 0.84712196E-01 0.15416813E+03</pdfrwt>
<pdfrwt beam="1">  1       -2 0.56431053E-02 0.15416813E+03</pdfrwt>
<totfact> 0.87402213E+03</totfact>
</mgrwt>
</event>
<event>
 6    1  0.4705246E-006  0.2541028E+03  0.7546771E-02  0.1110739E+00
         -1   -1    0    0    0  501 -0.00000000000E+00  0.00000000000E+00  0.54653172653E+03  0.54653172653E+03  0.00000000000E+00 0.  1.
          1   -1    0    0  501    0  0.00000000000E+00 -0.00000000000E+00 -0.29535447529E+02  0.29535447529E+02  0.00000000000E+00 0. -1.
          5    1    1    2  502    0  0.14184955532E+02  0.28023432329E+02  0.13546927665E+02  0.34527307629E+02  0.47000000000E+01 0.  1.
         -5    1    1    2    0  502 -0.35297526912E+02 -0.83956645007E+02  0.20318799763E+03  0.22271525774E+03  0.47000000000E+01 0.  1.
        -11    1    1    2    0    0 -0.21672256510E+02  0.51860792989E+02  0.22729568934E+03  0.23414217677E+03  0.00000000000E+00 0.  1.
         11    1    1    2    0    0  0.42784827891E+02  0.40724196893E+01  0.72965664360E+02  0.84682431916E+02  0.00000000000E+00 0. -1.
<mgrwt>
<rscale>  0 0.25410281E+03</rscale>
<asrwt>0</asrwt>
<pdfrwt beam="2">  1        1 0.45439154E-02 0.25410281E+03</pdfrwt>
<pdfrwt beam="1">  1       -1 0.84081797E-01 0.25410281E+03</pdfrwt>
<totfact> 0.27811379E+03</totfact>
</mgrwt>
</event>
<event>
 6    1  0.4705246E-006  0.3829189E+03  0.7546771E-02  0.1049860E+00
          2   -1    0    0  501    0  0.00000000000E+00  0.00000000000E+00  0.25007772531E+03  0.25007772531E+03  0.00000000000E+00 0. -1.
         -2   -1    0    0    0  501 -0.00000000000E+00 -0.00000000000E+00 -0.14658127694E+03  0.14658127694E+03  0.00000000000E+00 0.  1.
          5    1    1    2  502    0  0.78815733049E+02  0.11508239012E+03  0.13635158619E+03  0.19511463643E+03  0.47000000000E+01 0.  1.
         -5    1    1    2    0  502  0.23113260111E+02 -0.16111049101E+02 -0.13440338608E+02  0.31567727159E+02  0.47000000000E+01 0.  1.
        -11    1    1    2    0    0 -0.49610742152E+02 -0.10429395399E+03 -0.57168991606E+01  0.11563363486E+03  0.00000000000E+00 0.  1.
         11    1    1    2    0    0 -0.52318251008E+02  0.53226129659E+01 -0.13697900046E+02  0.54343003809E+02  0.00000000000E+00 0. -1.
<mgrwt>
<rscale>  0 0.38291885E+03</rscale>
<asrwt>0</asrwt>
<pdfrwt beam="1">  1        2 0.38473496E-01 0.38291885E+03</pdfrwt>
<pdfrwt beam="2">  1       -2 0.22550966E-01 0.38291885E+03</pdfrwt>
<totfact> 0.22876973E+03</totfact>
</mgrwt>
</event>
<event>
 6    1  0.4705246E-006  0.1569858E+03  0.7546771E-02  0.1199505E+00
          1   -1    0    0  501    0  0.00000000000E+00  0.00000000000E+00  0.57054786610E+03  0.57054786610E+03  0.00000000000E+00 0. -1.
         -1   -1    0    0    0  501 -0.00000000000E+00 -0.00000000000E+00 -0.38975248835E+02  0.38975248835E+02  0.00000000000E+00 0.  1.
          5    1    1    2  502    0  0.22181304252E+02 -0.12048341799E+03  0.31366385972E+03  0.33677198690E+03  0.47000000000E+01 0.  1.
         -5    1    1    2    0  502  0.52883717078E+01  0.29570510493E+02  0.40657076212E+02  0.50768787776E+02  0.47000000000E+01 0.  1.
        -11    1    1    2    0    0 -0.36076277186E+02  0.64254316438E+02  0.17934213236E+03  0.19389098843E+03  0.00000000000E+00 0. -1.
         11    1    1    2    0    0  0.86066012263E+01  0.26658591058E+02 -0.20904510234E+01  0.28091351825E+02  0.00000000000E+00 0.  1.
<mgrwt>
<rscale>  0 0.15079060E+03</rscale>
<asrwt>0</asrwt>
<pdfrwt beam="1">  1        1 0.87776589E-01 0.15698575E+03</pdfrwt>
<pdfrwt beam="2">  1       -1 0.59961925E-02 0.15698575E+03</pdfrwt>
<totfact> 0.49111705E+03</totfact>
</mgrwt>
</event>
<event>
 6    1  0.4705246E-006  0.2505935E+03  0.7546771E-02  0.1112930E+00
         -1   -1    0    0    0  501 -0.00000000000E+00  0.00000000000E+00  0.14580219468E+02  0.14580219468E+02  0.00000000000E+00 0.  1.
          1   -1    0    0  501    0  0.00000000000E+00 -0.00000000000E+00 -0.10767514529E+04  0.10767514529E+04  0.00000000000E+00 0. -1.
          5    1    1    2  502    0 -0.14787698294E+02  0.33103828467E+01 -0.66549633029E+01  0.17205033914E+02  0.47000000000E+01 0. -1.
         -5    1    1    2    0  502 -0.19992176180E+02 -0.39836541033E+02 -0.75167026135E+03  0.75300525158E+03  0.47000000000E+01 0. -1.
        -11    1    1    2    0    0 -0.17956885935E+02  0.38822397060E+02 -0.75706291055E+02  0.86954417779E+02  0.00000000000E+00 0.  1.
         11    1    1    2    0    0  0.52736760409E+02 -0.22962388739E+01 -0.22813971768E+03  0.23416696905E+03  0.00000000000E+00 0. -1.
<mgrwt>
<rscale>  0 0.25059348E+03</rscale>
<asrwt>0</asrwt>
<pdfrwt beam="2">  1        1 0.16565406E+00 0.25059348E+03</pdfrwt>
<pdfrwt beam="1">  1       -1 0.22431108E-02 0.25059348E+03</pdfrwt>
<totfact> 0.80956329E+03</totfact>
</mgrwt>
</event>
<event>
 6    1  0.4705246E-006  0.2671840E+03  0.7546771E-02  0.1104981E+00
         -2   -1    0    0    0  501 -0.00000000000E+00  0.00000000000E+00  0.65115454312E+02  0.65115454312E+02  0.00000000000E+00 0.  1.
          2   -1    0    0  501    0  0.00000000000E+00 -0.00000000000E+00 -0.12315864445E+04  0.12315864445E+04  0.00000000000E+00 0. -1.
          5    1    1    2  502    0  0.84700813515E+01  0.10919299187E+02 -0.15642546686E+02  0.21395154584E+02  0.47000000000E+01 0.  1.
         -5    1    1    2    0  502  0.47110419901E+02 -0.24042576421E+03 -0.83648995826E+03  0.87164297738E+03  0.47000000000E+01 0.  1.
        -11    1    1    2    0    0 -0.48188258829E+02  0.13198369516E+03 -0.24943182269E+03  0.28628314349E+03  0.00000000000E+00 0. -1.
         11    1    1    2    0    0 -0.73922424233E+01  0.97522769865E+02 -0.64906662517E+02  0.11738062331E+03  0.00000000000E+00 0.  1.
<mgrwt>
<rscale>  0 0.26363034E+03</rscale>
<asrwt>0</asrwt>
<pdfrwt beam="2">  1        2 0.18947482E+00 0.26718402E+03</pdfrwt>
<pdfrwt beam="1">  1       -2 0.10017763E-01 0.26718402E+03</pdfrwt>
<totfact> 0.12700324E+03</totfact>
</mgrwt>
</event>
<event>
 6    1  0.4705246E-006  0.1653738E+03  0.7546771E-02  0.1190030E+00
          2   -1    0    0  501    0  0.00000000000E+00  0.00000000000E+00  0.56428107304E+03  0.56428107304E+03  0.00000000000E+00 0. -1.
         -2   -1    0    0    0  501 -0.00000000000E+00 -0.00000000000E+00 -0.41514667703E+02  0.41514667703E+02  0.00000000000E+00 0.  1.
          5    1    1    2  502    0  0.17872754745E+02  0.26360929861E+02  0.11531168975E+03  0.11972138396E+03  0.47000000000E+01 0. -1.
         -5    1    1    2    0  502  0.43534024231E+02 -0.11557493780E+03  0.17225840652E+03  0.21200902370E+03  0.47000000000E+01 0. -1.
        -11    1    1    2    0    0 -0.52796416356E+02  0.67350925051E+02  0.23549873159E+03  0.25056588209E+03  0.00000000000E+00 0. -1.
         11    1    1    2    0    0 -0.86103626199E+01  0.21863082884E+02 -0.30242252283E+00  0.23499450994E+02  0.00000000000E+00 0.  1.
<mgrwt>
<rscale>  0 0.15882474E+03</rscale>
<asrwt>0</asrwt>
<pdfrwt beam="1">  1        2 0.86812467E-01 0.16537383E+03</pdfrwt>
<pdfrwt beam="2">  1       -2 0.63868723E-02 0.16537383E+03</pdfrwt>
<totfact> 0.70702365E+03</totfact>
</mgrwt>
</event>
<event>
 6    1  0.4705246E-006  0.1293797E+03  0.7546771E-02  0.1241122E+00
         -2   -1    0    0    0  501 -0.00000000000E+00  0.00000000000E+00  0.10109678124E+04  0.10109678124E+04  0.00000000000E+00 0. -1.
          2   -1    0    0  501    0  0.00000000000E+00 -0.00000000000E+00 -0.13301645231E+02  0.13301645231E+02  0.00000000000E+00 0.  1.
          5    1    1    2  502    0 -0.75089420767E+02 -0.19953968464E+01  0.39584377111E+03  0.40293521048E+03  0.47000000000E+01 0. -1.
         -5    1    1    2    0  502  0.41952440586E+02  0.59211573541E+01  0.86130038024E+02  0.96101721241E+02  0.47000000000E+01 0. -1.
        -11    1    1    2    0    0 -0.10631736630E+02  0.37602327356E+02  0.22081414178E+03  0.22424507588E+03  0.00000000000E+00 0.  1.
         11    1    1    2    0    0  0.43768716811E+02 -0.41528087864E+02  0.29487821629E+03  0.30098745006E+03  0.00000000000E+00 0. -1.
<mgrwt>
<rscale>  0 0.12120528E+03</rscale>
<asrwt>0</asrwt>
<pdfrwt beam="2">  1        2 0.20464077E-02 0.12937970E+03</pdfrwt>
<pdfrwt beam="1">  1       -2 0.15553345E+00 0.12937970E+03</pdfrwt>
<totfact> 0.14672597E+03</totfact>
</mgrwt>
</event>
<event>
 6    1  0.4705246E-006  0.1571208E+03  0.7546771E-02  0.1200381E+00
         -4   -1    0    0    0  501 -0.00000000000E+00  0.00000000000E+00  0.39841842613E+03  0.39841842613E+03  0.00000000000E+00 0.  1.
          4   -1    0    0  501    0  0.00000000000E+00 -0.00000000000E+00 -0.52417287043E+02  0.52417287043E+02  0.00000000000E+00 0. -1.
          5    1    1    2  502    0 -0.57901051456E+01 -0.80588669292E+02  0.60294974248E+02  0.10092389635E+03  0.47000000000E+01 0. -1.
         -5    1    1    2    0  502 -0.59441473703E+02  0.11257090072E+02  0.14822834490E+03  0.16016785915E+03  0.47000000000E+01 0. -1.
        -11    1    1    2    0    0  0.27115210226E+02  0.28527713999E+02  0.12696511432E+03  0.13292556317E+03  0.00000000000E+00 0.  1.
         11    1    1    2    0    0  0.38116368622E+02  0.40803865221E+02  0.10512705626E+02  0.56818394500E+02  0.00000000000E+00 0. -1.
<mgrwt>
<rscale>  0 0.15007487E+03</rscale>
<asrwt>0</asrwt>
<pdfrwt beam="2">  1        4 0.80641983E-02 0.15712075E+03</pdfrwt>
<pdfrwt beam="1">  1       -4 0.61295141E-01 0.15712075E+03</pdfrwt>
<totfact> 0.47171134E+02</totfact>
</mgrwt>
</event>
<event>
 6    1  0.4705246E-006  0.1357176E+03  0.7546771E-02  0.1231725E+00
         -1   -1    0    0    0  501 -0.00000000000E+00  0.00000000000E+00  0.12111099329E+02  0.12111099329E+02  0.00000000000E+00 0.  1.
          1   -1    0    0  501    0  0.00000000000E+00 -0.00000000000E+00 -0.12243003535E+04  0.12243003535E+04  0.00000000000E+00 0. -1.
          5    1    1    2  502    0  0.82925921519E+02 -0.21398625802E+02 -0.60839815857E+03  0.61441437076E+03  0.47000000000E+01 0.  1.
         -5    1    1    2    0  502 -0.42601851318E+02 -0.12799738277E+02 -0.17340657710E+03  0.17908289147E+03  0.47000000000E+01 0.  1.
        -11    1    1    2    0    0 -0.93826731571E+01 -0.26529929492E+02 -0.59495496830E+02  0.65814784490E+02  0.00000000000E+00 0.  1.
         11    1    1    2    0    0 -0.30941397044E+02  0.60728293571E+02 -0.37088902164E+03  0.37709940608E+03  0.00000000000E+00 0. -1.
<mgrwt>
<rscale>  0 0.12716421E+03</rscale>
<asrwt>0</asrwt>
<pdfrwt beam="2">  1        1 0.18835391E+00 0.13571758E+03</pdfrwt>
<pdfrwt beam="1">  1       -1 0.18632460E-02 0.13571758E+03</pdfrwt>
<totfact> 0.81384519E+03</totfact>
</mgrwt>
</event>
<event>
 6    1  0.4705246E-006  0.3442366E+03  0.7546771E-02  0.1065006E+00
          2   -1    0    0  501    0  0.00000000000E+00  0.00000000000E+00  0.10476590946E+04  0.10476590946E+04  0.00000000000E+00 0. -1.
         -2   -1    0    0    0  501 -0.00000000000E+00 -0.00000000000E+00 -0.28277056321E+02  0.28277056321E+02  0.00000000000E+00 0.  1.
          5    1    1    2  502    0 -0.31959424874E+02 -0.43696218987E+02  0.23931350170E+03  0.24540539213E+03  0.47000000000E+01 0. -1.
         -5    1    1    2    0  502  0.98126447181E+02 -0.69659025893E+02  0.28695426055E+03  0.31120092733E+03  0.47000000000E+01 0. -1.
        -11    1    1    2    0    0 -0.53014215653E+02  0.40671983661E+02  0.10652150895E+03  0.12574398270E+03  0.00000000000E+00 0.  1.
         11    1    1    2    0    0 -0.13152806653E+02  0.72683261219E+02  0.38659276709E+03  0.39358584877E+03  0.00000000000E+00 0. -1.
<mgrwt>
<rscale>  0 0.34423664E+03</rscale>
<asrwt>0</asrwt>
<pdfrwt beam="1">  1        2 0.16117829E+00 0.34423664E+03</pdfrwt>
<pdfrwt beam="2">  1       -2 0.43503172E-02 0.34423664E+03</pdfrwt>
<totfact> 0.59655921E+03</totfact>
</mgrwt>
</event>
<event>
 6    1  0.4705246E-006  0.3744751E+03  0.7546771E-02  0.1095487E+00
         -1   -1    0    0    0  501 -0.00000000000E+00  0.00000000000E+00  0.87397995566E+02  0.87397995566E+02  0.00000000000E+00 0.  1.
          1   -1    0    0  501    0  0.00000000000E+00 -0.00000000000E+00 -0.10075753926E+04  0.10075753926E+04  0.00000000000E+00 0. -1.
          5    1    1    2  502    0  0.28365877796E+01 -0.21592817184E+03 -0.48129073642E+03  0.52753756699E+03  0.47000000000E+01 0. -1.
         -5    1    1    2    0  502 -0.40258539977E+02  0.15188712666E+03 -0.41975153536E+03  0.44822303681E+03  0.47000000000E+01 0.  1.
        -11    1    1    2    0    0  0.46433264970E+02  0.58678913728E+02  0.21009142000E+02  0.77721599699E+02  0.00000000000E+00 0.  1.
         11    1    1    2    0    0 -0.90113127732E+01  0.53621314520E+01 -0.40144267210E+02  0.41491184623E+02  0.00000000000E+00 0. -1.
<mgrwt>
<rscale>  0 0.28036959E+03</rscale>
<asrwt>0</asrwt>
<pdfrwt beam="2">  1        1 0.15501160E+00 0.37447507E+03</pdfrwt>
<pdfrwt beam="1">  1       -1 0.13445845E-01 0.37447507E+03</pdfrwt>
<totfact> 0.60185580E+02</totfact>
</mgrwt>
</event>
<event>
 6    1  0.4705246E-006  0.1537624E+03  0.7546771E-02  0.1204479E+00
         -2   -1    0    0    0  501 -0.00000000000E+00  0.00000000000E+00  0.11184717633E+03  0.11184717633E+03  0.00000000000E+00 0.  1.
          2   -1    0    0  501    0  0.00000000000E+00 -0.00000000000E+00 -0.32191227847E+03  0.32191227847E+03  0.00000000000E+00 0. -1.
          5    1    1    2  502    0  0.18135012135E+02 -0.40729707717E+02 -0.11103805874E+03  0.11974693418E+03  0.47000000000E+01 0. -1.
         -5    1    1    2    0  502 -0.10368441394E+03  0.14278869345E+02 -0.14447772595E+03  0.17846637526E+03  0.47000000000E+01 0. -1.
        -11    1    1    2    0    0  0.10301427225E+02  0.45505940210E+02  0.32473373228E+02  0.56845667962E+02  0.00000000000E+00 0. -1.
         11    1    1    2    0    0  0.75247974584E+02 -0.19055101838E+02  0.12977309328E+02  0.78700477396E+02  0.00000000000E+00 0.  1.
<mgrwt>
<rscale>  0 0.14678587E+03</rscale>
<asrwt>0</asrwt>
<pdfrwt beam="2">  1        2 0.49524966E-01 0.15376235E+03</pdfrwt>
<pdfrwt beam="1">  1       -2 0.17207258E-01 0.15376235E+03</pdfrwt>
<totfact> 0.26877134E+03</totfact>
</mgrwt>
</event>
<event>
 6    1  0.4705246E-006  0.2046151E+03  0.7546771E-02  0.1150017E+00
         -2   -1    0    0    0  501 -0.00000000000E+00  0.00000000000E+00  0.42894829692E+02  0.42894829692E+02  0.00000000000E+00 0.  1.
          2   -1    0    0  501    0  0.00000000000E+00 -0.00000000000E+00 -0.92155468732E+03  0.92155468732E+03  0.00000000000E+00 0. -1.
          5    1    1    2  502    0 -0.13867305748E+02 -0.13872589901E+03 -0.45943431831E+03  0.48014493652E+03  0.47000000000E+01 0.  1.
         -5    1    1    2    0  502 -0.56209540320E+02 -0.73160278589E+01 -0.93582687239E+02  0.10951185341E+03  0.47000000000E+01 0.  1.
        -11    1    1    2    0    0  0.84515848239E+02  0.99690393661E+02 -0.18904553835E+03  0.22982453908E+03  0.00000000000E+00 0.  1.
         11    1    1    2    0    0 -0.14439002171E+02  0.46351533212E+02 -0.13659731373E+03  0.14496818800E+03  0.00000000000E+00 0. -1.
<mgrwt>
<rscale>  0 0.19967078E+03</rscale>
<asrwt>0</asrwt>
<pdfrwt beam="2">  1        2 0.14177765E+00 0.20461506E+03</pdfrwt>
<pdfrwt beam="1">  1       -2 0.65992044E-02 0.20461506E+03</pdfrwt>
<totfact> 0.37248575E+03</totfact>
</mgrwt>
</event>
<event>
 6    1  0.4705246E-006  0.2773396E+03  0.7546771E-02  0.1097151E+00
         -2   -1    0    0    0  501 -0.00000000000E+00  0.00000000000E+00  0.22445862718E+02  0.22445862718E+02  0.00000000000E+00 0.  1.
          2   -1    0    0  501    0  0.00000000000E+00 -0.00000000000E+00 -0.85669745940E+03  0.85669745940E+03  0.00000000000E+00 0. -1.
          5    1    1    2  502    0 -0.27609452613E+02  0.10507293008E+02 -0.48574364460E+02  0.57045981126E+02  0.47000000000E+01 0. -1.
         -5    1    1    2    0  502  0.11073159272E+03 -0.57730480792E+01 -0.46327367882E+03  0.47638157521E+03  0.47000000000E+01 0. -1.
        -11    1    1    2    0    0 -0.46858388877E+02 -0.37932353526E+02 -0.25652381052E+03  0.26351287903E+03  0.00000000000E+00 0.  1.
         11    1    1    2    0    0 -0.36263751234E+02  0.33198108597E+02 -0.65879742880E+02  0.82202886750E+02  0.00000000000E+00 0. -1.
<mgrwt>
<rscale>  0 0.27733960E+03</rscale>
<asrwt>0</asrwt>
<pdfrwt beam="2">  1        2 0.13179963E+00 0.27733960E+03</pdfrwt>
<pdfrwt beam="1">  1       -2 0.34532092E-02 0.27733960E+03</pdfrwt>
<totfact> 0.11099848E+04</totfact>
</mgrwt>
</event>
<event>
 6    1  0.4705246E-006  0.1338959E+03  0.7546771E-02  0.1235992E+00
         -1   -1    0    0    0  501 -0.00000000000E+00  0.00000000000E+00  0.18195778831E+03  0.18195778831E+03  0.00000000000E+00 0.  1.
          1   -1    0    0  501    0  0.00000000000E+00 -0.00000000000E+00 -0.98166293449E+02  0.98166293449E+02  0.00000000000E+00 0. -1.
          5    1    1    2  502    0 -0.28043332027E+02 -0.26624159213E+02 -0.71113160273E+02  0.81082956834E+02  0.47000000000E+01 0.  1.
         -5    1    1    2    0  502  0.99340368718E+01 -0.17791855508E+02  0.50250697524E+02  0.54428465096E+02  0.47000000000E+01 0.  1.
        -11    1    1    2    0    0  0.22743520951E+02  0.18691257451E+01 -0.79374854662E+01  0.24161230346E+02  0.00000000000E+00 0. -1.
         11    1    1    2    0    0 -0.46342257962E+01  0.42546888977E+02  0.11259144307E+03  0.12045142948E+03  0.00000000000E+00 0.  1.
<mgrwt>
<rscale>  0 0.12441130E+03</rscale>
<asrwt>0</asrwt>
<pdfrwt beam="2">  1        1 0.15102507E-01 0.13389587E+03</pdfrwt>
<pdfrwt beam="1">  1       -1 0.27993506E-01 0.13389587E+03</pdfrwt>
<totfact> 0.40683263E+03</totfact>
</mgrwt>
</event>
<event>
 6    1  0.4705246E-006  0.1355539E+03  0.7546771E-02  0.1231370E+00
         -1   -1    0    0    0  501 -0.00000000000E+00  0.00000000000E+00  0.42673386183E+02  0.42673386183E+02  0.00000000000E+00 0.  1.
          1   -1    0    0  501    0  0.00000000000E+00 -0.00000000000E+00 -0.55110043129E+03  0.55110043129E+03  0.00000000000E+00 0. -1.
          5    1    1    2  502    0  0.40802340443E+02  0.15276505111E+01 -0.18204532016E+03  0.18662731122E+03  0.47000000000E+01 0.  1.
         -5    1    1    2    0  502 -0.91375111251E+02  0.12366165011E+02 -0.27398536655E+03  0.28912351007E+03  0.47000000000E+01 0.  1.
        -11    1    1    2    0    0 -0.48900693161E+01 -0.24630424884E+02  0.15645255958E+02  0.29586223853E+02  0.00000000000E+00 0.  1.
         11    1    1    2    0    0  0.55462840124E+02  0.10736609362E+02 -0.68041614353E+02  0.88436772323E+02  0.00000000000E+00 0. -1.
<mgrwt>
<rscale>  0 0.12739690E+03</rscale>
<asrwt>0</asrwt>
<pdfrwt beam="2">  1        1 0.84784686E-01 0.13555389E+03</pdfrwt>
<pdfrwt beam="1">  1       -1 0.65651360E-02 0.13555389E+03</pdfrwt>
<totfact> 0.44618612E+03</totfact>
</mgrwt>
</event>
<event>
 6    1  0.4705246E-006  0.2123201E+03  0.7546771E-02  0.1143477E+00
          2   -1    0    0  501    0  0.00000000000E+00  0.00000000000E+00  0.27918154429E+04  0.27918154429E+04  0.00000000000E+00 0.  1.
         -2   -1    0    0    0  501 -0.00000000000E+00 -0.00000000000E+00 -0.24854536032E+02  0.24854536032E+02  0.00000000000E+00 0. -1.
          5    1    1    2  502    0 -0.30390091311E+02  0.22538134775E+02  0.15750972974E+03  0.16205841580E+03  0.47000000000E+01 0.  1.
         -5    1    1    2    0  502  0.15820255406E+02  0.14846843521E+03  0.21586071025E+04  0.21637698283E+04  0.47000000000E+01 0.  1.
        -11    1    1    2    0    0 -0.18919166455E+02 -0.22307294399E+02  0.15820552118E+03  0.16088672156E+03  0.00000000000E+00 0.  1.
         11    1    1    2    0    0  0.33489002360E+02 -0.14869927559E+03  0.29263855340E+03  0.32995501326E+03  0.00000000000E+00 0. -1.
<mgrwt>
<rscale>  0 0.20760412E+03</rscale>
<asrwt>0</asrwt>
<pdfrwt beam="1">  1        2 0.42950982E+00 0.21232014E+03</pdfrwt>
<pdfrwt beam="2">  1       -2 0.38237770E-02 0.21232014E+03</pdfrwt>
<totfact> 0.82021549E+02</totfact>
</mgrwt>
</event>
<event>
 6    1  0.4705246E-006  0.1977994E+03  0.7546771E-02  0.1156293E+00
          2   -1    0    0  501    0  0.00000000000E+00  0.00000000000E+00  0.70187965144E+03  0.70187965144E+03  0.00000000000E+00 0. -1.
         -2   -1    0    0    0  501 -0.00000000000E+00 -0.00000000000E+00 -0.56103866394E+02  0.56103866394E+02  0.00000000000E+00 0.  1.
          5    1    1    2  502    0 -0.46287807524E+02 -0.28969057876E+02  0.14727221511E+03  0.15713994649E+03  0.47000000000E+01 0.  1.
         -5    1    1    2    0  502 -0.77577565044E+02  0.11927649637E+03  0.31551807971E+03  0.34614868165E+03  0.47000000000E+01 0.  1.
        -11    1    1    2    0    0  0.15249892297E+02 -0.28497696225E+01 -0.85956777165E+01  0.17736010751E+02  0.00000000000E+00 0.  1.
         11    1    1    2    0    0  0.10861548027E+03 -0.87457668870E+02  0.19158116794E+03  0.23695887894E+03  0.00000000000E+00 0. -1.
<mgrwt>
<rscale>  0 0.19242447E+03</rscale>
<asrwt>0</asrwt>
<pdfrwt beam="1">  1        2 0.10798148E+00 0.19779936E+03</pdfrwt>
<pdfrwt beam="2">  1       -2 0.86313646E-02 0.19779936E+03</pdfrwt>
<totfact> 0.34657308E+03</totfact>
</mgrwt>
</event>
<event>
 6    1  0.4705246E-006  0.1409099E+03  0.7546771E-02  0.1223120E+00
          1   -1    0    0  501    0  0.00000000000E+00  0.00000000000E+00  0.52453873173E+03  0.52453873173E+03  0.00000000000E+00 0. -1.
         -1   -1    0    0    0  501 -0.00000000000E+00 -0.00000000000E+00 -0.30421978614E+02  0.30421978614E+02  0.00000000000E+00 0.  1.
          5    1    1    2  502    0  0.26943461852E+02 -0.51191055527E+02  0.43132611065E+02  0.72311730997E+02  0.47000000000E+01 0.  1.
         -5    1    1    2    0  502  0.35471293582E+02  0.32897204639E+02  0.22941050221E+03  0.23450310715E+03  0.47000000000E+01 0.  1.
        -11    1    1    2    0    0 -0.10016116107E+02  0.44153353545E+02  0.52854533883E+02  0.69594848683E+02  0.00000000000E+00 0.  1.
         11    1    1    2    0    0 -0.52398639327E+02 -0.25859502657E+02  0.16871910596E+03  0.17855102351E+03  0.00000000000E+00 0. -1.
<mgrwt>
<rscale>  0 0.13296564E+03</rscale>
<asrwt>0</asrwt>
<pdfrwt beam="1">  1        1 0.80698259E-01 0.14090989E+03</pdfrwt>
<pdfrwt beam="2">  1       -1 0.46803048E-02 0.14090989E+03</pdfrwt>
<totfact> 0.78927641E+03</totfact>
</mgrwt>
</event>
<event>
 6    1  0.4705246E-006  0.1279145E+03  0.7546771E-02  0.1244922E+00
          2   -1    0    0  501    0  0.00000000000E+00  0.00000000000E+00  0.59750422383E+03  0.59750422383E+03  0.00000000000E+00 0. -1.
         -2   -1    0    0    0  501 -0.00000000000E+00 -0.00000000000E+00 -0.22256418577E+02  0.22256418577E+02  0.00000000000E+00 0.  1.
          5    1    1    2  502    0  0.20487098761E+02  0.37396130445E+02  0.27337406892E+03  0.27671946687E+03  0.47000000000E+01 0. -1.
         -5    1    1    2    0  502 -0.44107041454E+02 -0.50724987808E+02  0.12962625547E+03  0.14609418743E+03  0.47000000000E+01 0. -1.
        -11    1    1    2    0    0 -0.30697338385E+02  0.25231044299E+02  0.77296381829E+02  0.86911810614E+02  0.00000000000E+00 0. -1.
         11    1    1    2    0    0  0.54317281079E+02 -0.11902186937E+02  0.94951099035E+02  0.11003517749E+03  0.00000000000E+00 0.  1.
<mgrwt>
<rscale>  0 0.11890026E+03</rscale>
<asrwt>0</asrwt>
<pdfrwt beam="1">  1        2 0.91923715E-01 0.12791452E+03</pdfrwt>
<pdfrwt beam="2">  1       -2 0.34240648E-02 0.12791452E+03</pdfrwt>
<totfact> 0.16594005E+04</totfact>
</mgrwt>
</event>
<event>
 6    1  0.4705246E-006  0.1371144E+03  0.7546771E-02  0.1227416E+00
         -2   -1    0    0    0  501 -0.00000000000E+00  0.00000000000E+00  0.94350767826E+02  0.94350767826E+02  0.00000000000E+00 0.  1.
          2   -1    0    0  501    0  0.00000000000E+00 -0.00000000000E+00 -0.23558587644E+03  0.23558587644E+03  0.00000000000E+00 0. -1.
          5    1    1    2  502    0 -0.26632575567E+02  0.46121026967E+02 -0.85149527693E+02  0.10054339996E+03  0.47000000000E+01 0.  1.
         -5    1    1    2    0  502  0.78061223453E+02 -0.23090791222E+02 -0.81868539281E+02  0.11554776921E+03  0.47000000000E+01 0.  1.
        -11    1    1    2    0    0 -0.23624999752E+02 -0.38442171194E+01  0.60708042565E+02  0.65256302766E+02  0.00000000000E+00 0.  1.
         11    1    1    2    0    0 -0.27803648135E+02 -0.19186018626E+02 -0.34925084206E+02  0.48589172324E+02  0.00000000000E+00 0. -1.
<mgrwt>
<rscale>  0 0.13002681E+03</rscale>
<asrwt>0</asrwt>
<pdfrwt beam="2">  1        2 0.36243981E-01 0.13711440E+03</pdfrwt>
<pdfrwt beam="1">  1       -2 0.14515503E-01 0.13711440E+03</pdfrwt>
<totfact> 0.49301012E+03</totfact>
</mgrwt>
</event>
<event>
 6    1  0.4705246E-006  0.1470603E+03  0.7546771E-02  0.1213714E+00
         -1   -1    0    0    0  501 -0.00000000000E+00  0.00000000000E+00  0.41923428486E+02  0.41923428486E+02  0.00000000000E+00 0.  1.
          1   -1    0    0  501    0  0.00000000000E+00 -0.00000000000E+00 -0.43082802035E+03  0.43082802035E+03  0.00000000000E+00 0. -1.
          5    1    1    2  502    0 -0.14821690177E+02 -0.41126842078E+02 -0.30116237550E+01  0.44071073468E+02  0.47000000000E+01 0.  1.
         -5    1    1    2    0  502 -0.58865238320E+02  0.17212281632E+02 -0.18294229193E+03  0.19300609083E+03  0.47000000000E+01 0.  1.
        -11    1    1    2    0    0 -0.14587929865E+02 -0.16587125828E+02 -0.29104469103E+02  0.36537796358E+02  0.00000000000E+00 0.  1.
         11    1    1    2    0    0  0.88274858361E+02  0.40501686273E+02 -0.17384620708E+03  0.19913648819E+03  0.00000000000E+00 0. -1.
<mgrwt>
<rscale>  0 0.13971429E+03</rscale>
<asrwt>0</asrwt>
<pdfrwt beam="2">  1        1 0.66281234E-01 0.14706027E+03</pdfrwt>
<pdfrwt beam="1">  1       -1 0.64497583E-02 0.14706027E+03</pdfrwt>
<totfact> 0.63387177E+03</totfact>
</mgrwt>
</event>
<event>
 6    1  0.4705246E-006  0.1918571E+03  0.7546771E-02  0.1168006E+00
         -1   -1    0    0    0  501 -0.00000000000E+00  0.00000000000E+00  0.42816463536E+03  0.42816463536E+03  0.00000000000E+00 0.  1.
          1   -1    0    0  501    0  0.00000000000E+00 -0.00000000000E+00 -0.70968070935E+02  0.70968070935E+02  0.00000000000E+00 0. -1.
          5    1    1    2  502    0 -0.73710725903E+02  0.80679925020E+02  0.90592130605E+02  0.14202656632E+03  0.47000000000E+01 0. -1.
         -5    1    1    2    0  502  0.81230901017E+02 -0.10751303431E+02  0.54593713201E+02  0.98572883323E+02  0.47000000000E+01 0.  1.
        -11    1    1    2    0    0  0.14541415392E+02  0.14859021802E+02 -0.75652814772E+01  0.22124122002E+02  0.00000000000E+00 0.  1.
         11    1    1    2    0    0 -0.22061590506E+02 -0.84787643391E+02  0.21957600209E+03  0.23640913464E+03  0.00000000000E+00 0. -1.
<mgrwt>
<rscale>  0 0.17979038E+03</rscale>
<asrwt>0</asrwt>
<pdfrwt beam="2">  1        1 0.10918165E-01 0.19185715E+03</pdfrwt>
<pdfrwt beam="1">  1       -1 0.65871481E-01 0.19185715E+03</pdfrwt>
<totfact> 0.13656678E+03</totfact>
</mgrwt>
</event>
<event>
 6    1  0.4705246E-006  0.1380786E+03  0.7546771E-02  0.1223927E+00
          3   -1    0    0  501    0  0.00000000000E+00  0.00000000000E+00  0.89622543757E+02  0.89622543757E+02  0.00000000000E+00 0. -1.
         -3   -1    0    0    0  501 -0.00000000000E+00 -0.00000000000E+00 -0.18729582823E+03  0.18729582823E+03  0.00000000000E+00 0.  1.
          5    1    1    2  502    0 -0.64508827224E+02 -0.70172888523E+02 -0.14618096987E+01  0.95445534003E+02  0.47000000000E+01 0.  1.
         -5    1    1    2    0  502  0.24643935531E+02  0.27183832483E+02 -0.26321767809E+02  0.45400548097E+02  0.47000000000E+01 0.  1.
        -11    1    1    2    0    0  0.65695503231E+02  0.17766680958E+02 -0.73040967051E+02  0.99832544617E+02  0.00000000000E+00 0.  1.
         11    1    1    2    0    0 -0.25830611538E+02  0.25222375082E+02  0.31512600834E+01  0.36239745272E+02  0.00000000000E+00 0. -1.
<mgrwt>
<rscale>  0 0.13240704E+03</rscale>
<asrwt>0</asrwt>
<pdfrwt beam="1">  1        3 0.13788084E-01 0.13807857E+03</pdfrwt>
<pdfrwt beam="2">  1       -3 0.28814742E-01 0.13807857E+03</pdfrwt>
<totfact> 0.11465306E+03</totfact>
</mgrwt>
</event>
<event>
 6    1  0.4705246E-006  0.1409040E+03  0.7546771E-02  0.1222262E+00
          2   -1    0    0  501    0  0.00000000000E+00  0.00000000000E+00  0.62416254432E+03  0.62416254432E+03  0.00000000000E+00 0. -1.
         -2   -1    0    0    0  501 -0.00000000000E+00 -0.00000000000E+00 -0.34854589041E+02  0.34854589041E+02  0.00000000000E+00 0.  1.
          5    1    1    2  502    0 -0.42340926145E+02  0.20167600708E+02  0.24550994826E+03  0.24999342160E+03  0.47000000000E+01 0.  1.
         -5    1    1    2    0  502  0.81606626757E+02  0.31682039266E+02  0.23815316578E+03  0.25377630605E+03  0.47000000000E+01 0.  1.
        -11    1    1    2    0    0 -0.59123794288E+02 -0.46394346461E+02  0.11092580556E+03  0.13398728587E+03  0.00000000000E+00 0. -1.
         11    1    1    2    0    0  0.19858093676E+02 -0.54552935131E+01 -0.52809643224E+01  0.21260119848E+02  0.00000000000E+00 0.  1.
<mgrwt>
<rscale>  0 0.13356360E+03</rscale>
<asrwt>0</asrwt>
<pdfrwt beam="1">  1        2 0.96024998E-01 0.14090398E+03</pdfrwt>
<pdfrwt beam="2">  1       -2 0.53622449E-02 0.14090398E+03</pdfrwt>
<totfact> 0.81444482E+03</totfact>
</mgrwt>
</event>
<event>
 6    1  0.4705246E-006  0.4646864E+03  0.7546771E-02  0.1023431E+00
          1   -1    0    0  501    0  0.00000000000E+00  0.00000000000E+00  0.12915721434E+04  0.12915721434E+04  0.00000000000E+00 0. -1.
         -1   -1    0    0    0  501 -0.00000000000E+00 -0.00000000000E+00 -0.41796634474E+02  0.41796634474E+02  0.00000000000E+00 0.  1.
          5    1    1    2  502    0  0.11047773354E+03  0.10679041426E+03  0.10319002569E+04  0.10432879527E+04  0.47000000000E+01 0.  1.
         -5    1    1    2    0  502 -0.18381309503E+02 -0.10836531521E+02  0.62064815021E+02  0.65798436289E+02  0.47000000000E+01 0.  1.
        -11    1    1    2    0    0 -0.29218050701E+02 -0.30878284856E+02  0.11939903732E+03  0.12674104731E+03  0.00000000000E+00 0.  1.
         11    1    1    2    0    0 -0.62878373336E+02 -0.65075597886E+02  0.36411399668E+02  0.97541341489E+02  0.00000000000E+00 0. -1.
<mgrwt>
<rscale>  0 0.46468643E+03</rscale>
<asrwt>0</asrwt>
<pdfrwt beam="1">  1        1 0.19870338E+00 0.46468643E+03</pdfrwt>
<pdfrwt beam="2">  1       -1 0.64302524E-02 0.46468643E+03</pdfrwt>
<totfact> 0.11814749E+03</totfact>
</mgrwt>
</event>
<event>
 6    1  0.4705246E-006  0.2950214E+03  0.7546771E-02  0.1089128E+00
         -2   -1    0    0    0  501 -0.00000000000E+00  0.00000000000E+00  0.13779576257E+03  0.13779576257E+03  0.00000000000E+00 0.  1.
          2   -1    0    0  501    0  0.00000000000E+00 -0.00000000000E+00 -0.66633440210E+03  0.66633440210E+03  0.00000000000E+00 0. -1.
          5    1    1    2  502    0  0.56879509925E+02  0.11567163774E+03 -0.17997133519E+03  0.22142036473E+03  0.47000000000E+01 0.  1.
         -5    1    1    2    0  502 -0.67383279208E+02  0.15134692647E+03 -0.20631522459E+03  0.26464024706E+03  0.47000000000E+01 0.  1.
        -11    1    1    2    0    0  0.23508832109E+02 -0.98002237937E+02 -0.10292632317E+03  0.14405183730E+03  0.00000000000E+00 0. -1.
         11    1    1    2    0    0 -0.13005062826E+02 -0.16901632627E+03 -0.39325756581E+02  0.17401771558E+03  0.00000000000E+00 0.  1.
<mgrwt>
<rscale>  0 0.29235164E+03</rscale>
<asrwt>0</asrwt>
<pdfrwt beam="2">  1        2 0.10251299E+00 0.29502138E+03</pdfrwt>
<pdfrwt beam="1">  1       -2 0.21199348E-01 0.29502138E+03</pdfrwt>
<totfact> 0.84829443E+02</totfact>
</mgrwt>
</event>
<event>
 6    1  0.4705246E-006  0.1713793E+03  0.7546771E-02  0.1183850E+00
         -3   -1    0    0    0  501 -0.00000000000E+00  0.00000000000E+00  0.66148219946E+02  0.66148219946E+02  0.00000000000E+00 0.  1.
          3   -1    0    0  501    0  0.00000000000E+00 -0.00000000000E+00 -0.45643317549E+03  0.45643317549E+03  0.00000000000E+00 0. -1.
          5    1    1    2  502    0 -0.53275028721E+02  0.83708189285E+02 -0.14553597411E+03  0.17620470878E+03  0.47000000000E+01 0. -1.
         -5    1    1    2    0  502  0.60616902063E+02  0.28784359819E+02 -0.17085454308E+03  0.18362002363E+03  0.47000000000E+01 0.  1.
        -11    1    1    2    0    0  0.38608515108E+02 -0.39575361603E+02 -0.11809644617E+02  0.56535779740E+02  0.00000000000E+00 0.  1.
         11    1    1    2    0    0 -0.45950388450E+02 -0.72917187501E+02 -0.62084793739E+02  0.10622088328E+03  0.00000000000E+00 0. -1.
<mgrwt>
<rscale>  0 0.16436981E+03</rscale>
<asrwt>0</asrwt>
<pdfrwt beam="2">  1        3 0.70220491E-01 0.17137934E+03</pdfrwt>
<pdfrwt beam="1">  1       -3 0.10176649E-01 0.17137934E+03</pdfrwt>
<totfact> 0.33994148E+02</totfact>
</mgrwt>
</event>
<event>
 6    1  0.4705246E-006  0.2156656E+03  0.7546771E-02  0.1141745E+00
         -2   -1    0    0    0  501 -0.00000000000E+00  0.00000000000E+00  0.28879612516E+02  0.28879612516E+02  0.00000000000E+00 0.  1.
          2   -1    0    0  501    0  0.00000000000E+00 -0.00000000000E+00 -0.15347394215E+04  0.15347394215E+04  0.00000000000E+00 0. -1.
          5    1    1    2  502    0 -0.13469411502E+03 -0.11409345471E+03 -0.75837571209E+03  0.77866272012E+03  0.47000000000E+01 0.  1.
         -5    1    1    2    0  502  0.27505279511E+02 -0.25179614202E+02 -0.22145562207E+03  0.22462242969E+03  0.47000000000E+01 0.  1.
        -11    1    1    2    0    0  0.47837695239E+02  0.86737722160E+02 -0.18114235188E+03  0.20645684580E+03  0.00000000000E+00 0.  1.
         11    1    1    2    0    0  0.59351140274E+02  0.52535346750E+02 -0.34488612290E+03  0.35387703836E+03  0.00000000000E+00 0. -1.
<mgrwt>
<rscale>  0 0.20977456E+03</rscale>
<asrwt>0</asrwt>
<pdfrwt beam="2">  1        2 0.23611380E+00 0.21566559E+03</pdfrwt>
<pdfrwt beam="1">  1       -2 0.44430166E-02 0.21566559E+03</pdfrwt>
<totfact> 0.30609540E+03</totfact>
</mgrwt>
</event>
<event>
 6    1  0.4705246E-006  0.4319735E+03  0.7546771E-02  0.1033238E+00
          3   -1    0    0  501    0  0.00000000000E+00  0.00000000000E+00  0.84435455107E+02  0.84435455107E+02  0.00000000000E+00 0. -1.
         -3   -1    0    0    0  501 -0.00000000000E+00 -0.00000000000E+00 -0.55249629744E+03  0.55249629744E+03  0.00000000000E+00 0.  1.
          5    1    1    2  502    0  0.14103515782E+03  0.36254562484E+02 -0.13062113423E+03  0.19567646703E+03  0.47000000000E+01 0. -1.
         -5    1    1    2    0  502  0.92058292824E+01  0.89989158553E+01  0.26873419872E+02  0.30166180981E+02  0.47000000000E+01 0. -1.
        -11    1    1    2    0    0 -0.90348747793E+00 -0.39652394457E+02 -0.57990426269E+02  0.70256801911E+02  0.00000000000E+00 0.  1.
         11    1    1    2    0    0 -0.14933749962E+03 -0.56010838820E+01 -0.30632270171E+03  0.34083230263E+03  0.00000000000E+00 0. -1.
<mgrwt>
<rscale>  0 0.43197350E+03</rscale>
<asrwt>0</asrwt>
<pdfrwt beam="1">  1        3 0.12990070E-01 0.43197350E+03</pdfrwt>
<pdfrwt beam="2">  1       -3 0.84999428E-01 0.43197350E+03</pdfrwt>
<totfact> 0.16129534E+02</totfact>
</mgrwt>
</event>
<event>
 6    1  0.4705246E-006  0.1436324E+03  0.7546771E-02  0.1218685E+00
         -2   -1    0    0    0  501 -0.00000000000E+00  0.00000000000E+00  0.11393957595E+03  0.11393957595E+03  0.00000000000E+00 0.  1.
          2   -1    0    0  501    0  0.00000000000E+00 -0.00000000000E+00 -0.17350862339E+03  0.17350862339E+03  0.00000000000E+00 0. -1.
          5    1    1    2  502    0 -0.64895829432E+02 -0.30534993247E+02  0.47182411598E+01  0.72029204424E+02  0.47000000000E+01 0. -1.
         -5    1    1    2    0  502 -0.56886443658E+01  0.25849333004E+02 -0.92446469853E+02  0.96275586104E+02  0.47000000000E+01 0. -1.
        -11    1    1    2    0    0  0.71918667193E+02 -0.87641452428E+01  0.53743825074E+02  0.90208113084E+02  0.00000000000E+00 0.  1.
         11    1    1    2    0    0 -0.13341933953E+01  0.13449805487E+02 -0.25584643819E+02  0.28935295731E+02  0.00000000000E+00 0. -1.
<mgrwt>
<rscale>  0 0.13609317E+03</rscale>
<asrwt>0</asrwt>
<pdfrwt beam="2">  1        2 0.26693634E-01 0.14363238E+03</pdfrwt>
<pdfrwt beam="1">  1       -2 0.17529166E-01 0.14363238E+03</pdfrwt>
<totfact> 0.50446121E+03</totfact>
</mgrwt>
</event>
<event>
 6    1  0.4705246E-006  0.1678444E+03  0.7546771E-02  0.1205592E+00
          2   -1    0    0  501    0  0.00000000000E+00  0.00000000000E+00  0.11822413276E+04  0.11822413276E+04  0.00000000000E+00 0. -1.
         -2   -1    0    0    0  501 -0.00000000000E+00 -0.00000000000E+00 -0.15391499374E+02  0.15391499374E+02  0.00000000000E+00 0.  1.
          5    1    1    2  502    0 -0.21244225284E+02 -0.29332414370E+02  0.71361420911E+03  0.71454813489E+03  0.47000000000E+01 0. -1.
         -5    1    1    2    0  502  0.38910736898E+02  0.55799135712E+02  0.14390483854E+03  0.15924283829E+03  0.47000000000E+01 0.  1.
        -11    1    1    2    0    0  0.28760934180E+02  0.10893972878E+02  0.59223885851E+02  0.66733339758E+02  0.00000000000E+00 0.  1.
         11    1    1    2    0    0 -0.46427445794E+02 -0.37360694220E+02  0.25010689470E+03  0.25710851400E+03  0.00000000000E+00 0. -1.
<mgrwt>
<rscale>  0 0.14590927E+03</rscale>
<asrwt>0</asrwt>
<pdfrwt beam="1">  1        2 0.18188321E+00 0.16784442E+03</pdfrwt>
<pdfrwt beam="2">  1       -2 0.23679239E-02 0.16784442E+03</pdfrwt>
<totfact> 0.12032541E+04</totfact>
</mgrwt>
</event>
<event>
 6    1  0.4705246E-006  0.1464239E+03  0.7546771E-02  0.1212001E+00
         -1   -1    0    0    0  501 -0.00000000000E+00  0.00000000000E+00  0.17537340874E+02  0.17537340874E+02  0.00000000000E+00 0.  1.
          1   -1    0    0  501    0  0.00000000000E+00 -0.00000000000E+00 -0.10571588798E+04  0.10571588798E+04  0.00000000000E+00 0. -1.
          5    1    1    2  502    0 -0.17070240356E+02 -0.10131099684E+03 -0.53967215338E+03  0.54938459600E+03  0.47000000000E+01 0. -1.
         -5    1    1    2    0  502  0.20378171790E+02  0.10727991134E+02 -0.26529533031E+02  0.35443840115E+02  0.47000000000E+01 0.  1.
        -11    1    1    2    0    0  0.23411790873E+02 -0.60381537860E+01 -0.65790757684E+02  0.70092760323E+02  0.00000000000E+00 0. -1.
         11    1    1    2    0    0 -0.26719722307E+02  0.96621159491E+02 -0.40762909482E+03  0.41977502423E+03  0.00000000000E+00 0.  1.
<mgrwt>
<rscale>  0 0.14099130E+03</rscale>
<asrwt>0</asrwt>
<pdfrwt beam="2">  1        1 0.16263986E+00 0.14642387E+03</pdfrwt>
<pdfrwt beam="1">  1       -1 0.26980519E-02 0.14642387E+03</pdfrwt>
<totfact> 0.62491732E+03</totfact>
</mgrwt>
</event>
<event>
 6    1  0.4705246E-006  0.1696296E+03  0.7546771E-02  0.1194161E+00
         -2   -1    0    0    0  501 -0.00000000000E+00  0.00000000000E+00  0.31207400871E+02  0.31207400871E+02  0.00000000000E+00 0.  1.
          2   -1    0    0  501    0  0.00000000000E+00 -0.00000000000E+00 -0.12406862600E+04  0.12406862600E+04  0.00000000000E+00 0. -1.
          5    1    1    2  502    0 -0.93725676943E+02 -0.25545373317E+01 -0.44177244553E+03  0.45163703548E+03  0.47000000000E+01 0. -1.
         -5    1    1    2    0  502  0.36635474359E+02 -0.53509639052E+02 -0.64865530738E+03  0.65190584999E+03  0.47000000000E+01 0.  1.
        -11    1    1    2    0    0  0.95617585557E+01 -0.22491318984E+02 -0.41525986027E+02  0.48183961770E+02  0.00000000000E+00 0. -1.
         11    1    1    2    0    0  0.47528444028E+02  0.78555495368E+02 -0.77525120232E+02  0.12016681368E+03  0.00000000000E+00 0.  1.
<mgrwt>
<rscale>  0 0.15525408E+03</rscale>
<asrwt>0</asrwt>
<pdfrwt beam="2">  1        2 0.19087481E+00 0.16962964E+03</pdfrwt>
<pdfrwt beam="1">  1       -2 0.48011385E-02 0.16962964E+03</pdfrwt>
<totfact> 0.39098528E+03</totfact>
</mgrwt>
</event>
<event>
 6    1  0.4705246E-006  0.1542376E+03  0.7546771E-02  0.1204049E+00
          1   -1    0    0  501    0  0.00000000000E+00  0.00000000000E+00  0.52354152851E+02  0.52354152851E+02  0.00000000000E+00 0. -1.
         -1   -1    0    0    0  501 -0.00000000000E+00 -0.00000000000E+00 -0.38394528473E+03  0.38394528473E+03  0.00000000000E+00 0.  1.
          5    1    1    2  502    0 -0.55152272841E+02 -0.67536451742E+02 -0.16540647606E+03  0.18704100576E+03  0.47000000000E+01 0.  1.
         -5    1    1    2    0  502 -0.23357964672E+02  0.22809194600E+02  0.73582987443E+01  0.33794798894E+02  0.47000000000E+01 0.  1.
        -11    1    1    2    0    0 -0.13207447743E+02 -0.13637709115E+02 -0.25344661181E+02  0.31666632852E+02  0.00000000000E+00 0. -1.
         11    1    1    2    0    0  0.91717685256E+02  0.58364966258E+02 -0.14819829338E+03  0.18379700008E+03  0.00000000000E+00 0.  1.
<mgrwt>
<rscale>  0 0.14712646E+03</rscale>
<asrwt>0</asrwt>
<pdfrwt beam="1">  1        1 0.80544850E-02 0.15423756E+03</pdfrwt>
<pdfrwt beam="2">  1       -1 0.59068506E-01 0.15423756E+03</pdfrwt>
<totfact> 0.25122927E+03</totfact>
</mgrwt>
</event>
<event>
 6    1  0.4705246E-006  0.3162775E+03  0.7546771E-02  0.1077375E+00
          1   -1    0    0  501    0  0.00000000000E+00  0.00000000000E+00  0.15073460871E+03  0.15073460871E+03  0.00000000000E+00 0. -1.
         -1   -1    0    0    0  501 -0.00000000000E+00 -0.00000000000E+00 -0.16590655106E+03  0.16590655106E+03  0.00000000000E+00 0.  1.
          5    1    1    2  502    0 -0.85712175115E+00 -0.11250664257E+02  0.43626337230E+02  0.45306284377E+02  0.47000000000E+01 0.  1.
         -5    1    1    2    0  502 -0.93307257378E+02 -0.52678552698E+02 -0.64185619238E+02  0.12499263143E+03  0.47000000000E+01 0.  1.
        -11    1    1    2    0    0  0.19135987803E+02 -0.23928328581E+02 -0.70669847005E+00  0.30647191725E+02  0.00000000000E+00 0. -1.
         11    1    1    2    0    0  0.75028391326E+02  0.87857545535E+02  0.60940381218E+01  0.11569505224E+03  0.00000000000E+00 0.  1.
<mgrwt>
<rscale>  0 0.31627747E+03</rscale>
<asrwt>0</asrwt>
<pdfrwt beam="1">  1        1 0.23189940E-01 0.31627747E+03</pdfrwt>
<pdfrwt beam="2">  1       -1 0.25524085E-01 0.31627747E+03</pdfrwt>
<totfact> 0.28354779E+03</totfact>
</mgrwt>
</event>
<event>
 6    1  0.4705246E-006  0.1498212E+03  0.7546771E-02  0.1218503E+00
          2   -1    0    0  501    0  0.00000000000E+00  0.00000000000E+00  0.26223395451E+03  0.26223395451E+03  0.00000000000E+00 0. -1.
         -2   -1    0    0    0  501 -0.00000000000E+00 -0.00000000000E+00 -0.91159301030E+02  0.91159301030E+02  0.00000000000E+00 0.  1.
          5    1    1    2  502    0  0.19393527668E+02  0.76470505125E+02  0.14581887249E+03  0.16585861643E+03  0.47000000000E+01 0. -1.
         -5    1    1    2    0  502  0.29993572451E+02 -0.55954059719E+02  0.51436510277E+02  0.81842994672E+02  0.47000000000E+01 0.  1.
        -11    1    1    2    0    0 -0.71887302550E+02 -0.41145035185E+01 -0.80235340361E+01  0.72450607351E+02  0.00000000000E+00 0. -1.
         11    1    1    2    0    0  0.22500202431E+02 -0.16401941887E+02 -0.18157195253E+02  0.33241037086E+02  0.00000000000E+00 0.  1.
<mgrwt>
<rscale>  0 0.13622368E+03</rscale>
<asrwt>0</asrwt>
<pdfrwt beam="1">  1        2 0.40343685E-01 0.14982123E+03</pdfrwt>
<pdfrwt beam="2">  1       -2 0.14024508E-01 0.14982123E+03</pdfrwt>
<totfact> 0.46737885E+03</totfact>
</mgrwt>
</event>
<event>
 6    1  0.4705246E-006  0.1300494E+03  0.7546771E-02  0.1239150E+00
         -1   -1    0    0    0  501 -0.00000000000E+00  0.00000000000E+00  0.51179032108E+02  0.51179032108E+02  0.00000000000E+00 0.  1.
          1   -1    0    0  501    0  0.00000000000E+00 -0.00000000000E+00 -0.26336169765E+03  0.26336169765E+03  0.00000000000E+00 0. -1.
          5    1    1    2  502    0  0.10601736924E+02 -0.40179033192E+02 -0.79857378491E+02  0.90144564082E+02  0.47000000000E+01 0. -1.
         -5    1    1    2    0  502 -0.12065875937E+02  0.76034534775E+02 -0.40797791988E+02  0.87254717189E+02  0.47000000000E+01 0. -1.
        -11    1    1    2    0    0 -0.98279547347E+01 -0.59444779403E+02 -0.93150716357E+02  0.11093839034E+03  0.00000000000E+00 0. -1.
         11    1    1    2    0    0  0.11292093747E+02  0.23589277820E+02  0.16232212912E+01  0.26203058154E+02  0.00000000000E+00 0.  1.
<mgrwt>
<rscale>  0 0.12242476E+03</rscale>
<asrwt>0</asrwt>
<pdfrwt beam="2">  1        1 0.40517184E-01 0.13004936E+03</pdfrwt>
<pdfrwt beam="1">  1       -1 0.78736972E-02 0.13004936E+03</pdfrwt>
<totfact> 0.86138826E+03</totfact>
</mgrwt>
</event>
<event>
 6    1  0.4705246E-006  0.1298075E+03  0.7546771E-02  0.1240694E+00
          1   -1    0    0  501    0  0.00000000000E+00  0.00000000000E+00  0.34702818655E+02  0.34702818655E+02  0.00000000000E+00 0. -1.
         -1   -1    0    0    0  501 -0.00000000000E+00 -0.00000000000E+00 -0.38701099823E+03  0.38701099823E+03  0.00000000000E+00 0.  1.
          5    1    1    2  502    0  0.13538818480E+01 -0.22401973102E+02  0.11108157687E+02  0.25478668767E+02  0.47000000000E+01 0. -1.
         -5    1    1    2    0  502 -0.29056777473E+02  0.43784125185E+02 -0.17976994869E+03  0.18735172908E+03  0.47000000000E+01 0. -1.
        -11    1    1    2    0    0  0.32778474516E+02  0.74423280909E+00 -0.18326953244E+03  0.18617922493E+03  0.00000000000E+00 0.  1.
         11    1    1    2    0    0 -0.50755788917E+01 -0.22126384892E+02 -0.37685612336E+00  0.22704194106E+02  0.00000000000E+00 0. -1.
<mgrwt>
<rscale>  0 0.12146849E+03</rscale>
<asrwt>0</asrwt>
<pdfrwt beam="1">  1        1 0.53388952E-02 0.12980747E+03</pdfrwt>
<pdfrwt beam="2">  1       -1 0.59540153E-01 0.12980747E+03</pdfrwt>
<totfact> 0.42773492E+03</totfact>
</mgrwt>
</event>
<event>
 6    1  0.4705246E-006  0.1289902E+03  0.7546771E-02  0.1241640E+00
          1   -1    0    0  501    0  0.00000000000E+00  0.00000000000E+00  0.18844352003E+03  0.18844352003E+03  0.00000000000E+00 0.  1.
         -1   -1    0    0    0  501 -0.00000000000E+00 -0.00000000000E+00 -0.69276563450E+02  0.69276563450E+02  0.00000000000E+00 0. -1.
          5    1    1    2  502    0  0.44208700266E+02 -0.43211515499E+02 -0.10227036543E+01  0.62006291404E+02  0.47000000000E+01 0.  1.
         -5    1    1    2    0  502 -0.47302426553E+02  0.11524698028E+02  0.66783431479E+02  0.82779556308E+02  0.47000000000E+01 0.  1.
        -11    1    1    2    0    0  0.43250108675E+02  0.18539151691E+02  0.52732066014E+02  0.70674909494E+02  0.00000000000E+00 0.  1.
         11    1    1    2    0    0 -0.40156382388E+02  0.13147665780E+02  0.67416274433E+00  0.42259326277E+02  0.00000000000E+00 0. -1.
<mgrwt>
<rscale>  0 0.12088778E+03</rscale>
<asrwt>0</asrwt>
<pdfrwt beam="1">  1        1 0.28991311E-01 0.12899019E+03</pdfrwt>
<pdfrwt beam="2">  1       -1 0.10657933E-01 0.12899019E+03</pdfrwt>
<totfact> 0.82288641E+03</totfact>
</mgrwt>
</event>
<event>
 6    1  0.4705246E-006  0.4138304E+03  0.7546771E-02  0.1039093E+00
          2   -1    0    0  501    0  0.00000000000E+00  0.00000000000E+00  0.21999348005E+04  0.21999348005E+04  0.00000000000E+00 0. -1.
         -2   -1    0    0    0  501 -0.00000000000E+00 -0.00000000000E+00 -0.19461440339E+02  0.19461440339E+02  0.00000000000E+00 0.  1.
          5    1    1    2  502    0 -0.66921517258E+01 -0.23046394896E+02  0.22000138965E+03  0.22135632510E+03  0.47000000000E+01 0. -1.
         -5    1    1    2    0  502 -0.68478020581E+01  0.16486286119E+03  0.14690528629E+04  0.14782980279E+04  0.47000000000E+01 0. -1.
        -11    1    1    2    0    0 -0.32829387663E+02 -0.39897460211E+02  0.22294331315E+03  0.22885212890E+03  0.00000000000E+00 0.  1.
         11    1    1    2    0    0  0.46369341447E+02 -0.10191900608E+03  0.26847579449E+03  0.29088975894E+03  0.00000000000E+00 0. -1.
<mgrwt>
<rscale>  0 0.41383040E+03</rscale>
<asrwt>0</asrwt>
<pdfrwt beam="1">  1        2 0.33845131E+00 0.41383040E+03</pdfrwt>
<pdfrwt beam="2">  1       -2 0.29940695E-02 0.41383040E+03</pdfrwt>
<totfact> 0.24523771E+03</totfact>
</mgrwt>
</event>
<event>
 6    1  0.4705246E-006  0.1253034E+03  0.7546771E-02  0.1249082E+00
          2   -1    0    0  501    0  0.00000000000E+00  0.00000000000E+00  0.16227310473E+03  0.16227310473E+03  0.00000000000E+00 0. -1.
         -2   -1    0    0    0  501 -0.00000000000E+00 -0.00000000000E+00 -0.78542779809E+02  0.78542779809E+02  0.00000000000E+00 0.  1.
          5    1    1    2  502    0  0.45838173215E+02  0.40648609316E+02  0.21360047854E+02  0.65052203708E+02  0.47000000000E+01 0. -1.
         -5    1    1    2    0  502 -0.34747532219E+02 -0.48978109501E+02  0.55757056236E+02  0.82080360170E+02  0.47000000000E+01 0.  1.
        -11    1    1    2    0    0 -0.18458894917E+02  0.40470989954E+02  0.29650212599E+02  0.53458085792E+02  0.00000000000E+00 0. -1.
         11    1    1    2    0    0  0.73682539211E+01 -0.32141489769E+02 -0.23036991768E+02  0.40225234867E+02  0.00000000000E+00 0.  1.
<mgrwt>
<rscale>  0 0.11644384E+03</rscale>
<asrwt>0</asrwt>
<pdfrwt beam="1">  1        2 0.24965093E-01 0.12530341E+03</pdfrwt>
<pdfrwt beam="2">  1       -2 0.12083505E-01 0.12530341E+03</pdfrwt>
<totfact> 0.98569198E+03</totfact>
</mgrwt>
</event>
<event>
 6    1  0.4705246E-006  0.1260351E+03  0.7546771E-02  0.1248808E+00
         -2   -1    0    0    0  501 -0.00000000000E+00  0.00000000000E+00  0.41961499187E+02  0.41961499187E+02  0.00000000000E+00 0.  1.
          2   -1    0    0  501    0  0.00000000000E+00 -0.00000000000E+00 -0.28410213291E+03  0.28410213291E+03  0.00000000000E+00 0. -1.
          5    1    1    2  502    0 -0.26689703540E+02 -0.34440857255E+02 -0.12939879764E+03  0.13661863619E+03  0.47000000000E+01 0.  1.
         -5    1    1    2    0  502  0.17193274662E+02  0.47335896031E+02 -0.10460065179E+02  0.51650737751E+02  0.47000000000E+01 0.  1.
        -11    1    1    2    0    0  0.60161514757E+01  0.20207750786E+02 -0.10235999708E+03  0.10450892915E+03  0.00000000000E+00 0. -1.
         11    1    1    2    0    0  0.34802774029E+01 -0.33102789562E+02  0.78226175667E-01  0.33285329005E+02  0.00000000000E+00 0.  1.
<mgrwt>
<rscale>  0 0.11660306E+03</rscale>
<asrwt>0</asrwt>
<pdfrwt beam="2">  1        2 0.43708023E-01 0.12603514E+03</pdfrwt>
<pdfrwt beam="1">  1       -2 0.64556149E-02 0.12603514E+03</pdfrwt>
<totfact> 0.14312985E+04</totfact>
</mgrwt>
</event>
<event>
 6    1  0.4705246E-006  0.1420969E+03  0.7546771E-02  0.1220850E+00
         -2   -1    0    0    0  501 -0.00000000000E+00  0.00000000000E+00  0.13123987435E+03  0.13123987435E+03  0.00000000000E+00 0. -1.
          2   -1    0    0  501    0  0.00000000000E+00 -0.00000000000E+00 -0.12938128321E+03  0.12938128321E+03  0.00000000000E+00 0.  1.
          5    1    1    2  502    0 -0.13592013621E+02  0.16175361944E+02  0.48897155228E+02  0.53473422910E+02  0.47000000000E+01 0. -1.
         -5    1    1    2    0  502 -0.53914136013E+02 -0.12790124298E+02 -0.71231858506E+02  0.90368075159E+02  0.47000000000E+01 0. -1.
        -11    1    1    2    0    0  0.12537406782E+02 -0.40633245304E+02 -0.75392346863E+01  0.43186655953E+02  0.00000000000E+00 0. -1.
         11    1    1    2    0    0  0.54968742853E+02  0.37248007658E+02  0.31732529105E+02  0.73593003532E+02  0.00000000000E+00 0.  1.
<mgrwt>
<rscale>  0 0.13455470E+03</rscale>
<asrwt>0</asrwt>
<pdfrwt beam="2">  1        2 0.19904813E-01 0.14209693E+03</pdfrwt>
<pdfrwt beam="1">  1       -2 0.20190750E-01 0.14209693E+03</pdfrwt>
<totfact> 0.55133592E+03</totfact>
</mgrwt>
</event>
<event>
 6    1  0.4705246E-006  0.2655280E+03  0.7546771E-02  0.1103867E+00
          2   -1    0    0  501    0  0.00000000000E+00  0.00000000000E+00  0.15914448184E+03  0.15914448184E+03  0.00000000000E+00 0. -1.
         -2   -1    0    0    0  501 -0.00000000000E+00 -0.00000000000E+00 -0.11075644453E+03  0.11075644453E+03  0.00000000000E+00 0.  1.
          5    1    1    2  502    0 -0.44389607437E+01  0.11380745634E+02 -0.29180092096E+02  0.31981143169E+02  0.47000000000E+01 0.  1.
         -5    1    1    2    0  502 -0.24265141356E+02 -0.64807165378E+02  0.10618523327E+03  0.12683122460E+03  0.47000000000E+01 0.  1.
        -11    1    1    2    0    0  0.22122531432E+02  0.16472631133E+02 -0.57469489220E+02  0.63745557999E+02  0.00000000000E+00 0.  1.
         11    1    1    2    0    0  0.65815706678E+01  0.36953788611E+02  0.28852385365E+02  0.47343000606E+02  0.00000000000E+00 0. -1.
<mgrwt>
<rscale>  0 0.26552798E+03</rscale>
<asrwt>0</asrwt>
<pdfrwt beam="1">  1        2 0.24483766E-01 0.26552798E+03</pdfrwt>
<pdfrwt beam="2">  1       -2 0.17039453E-01 0.26552798E+03</pdfrwt>
<totfact> 0.60292777E+03</totfact>
</mgrwt>
</event>
<event>
 6    1  0.5406583E-006  0.1287757E+03  0.7546771E-02  0.1243915E+00
         -1   -1    0    0    0  501 -0.00000000000E+00  0.00000000000E+00  0.15988208335E+03  0.15988208335E+03  0.00000000000E+00 0.  1.
          1   -1    0    0  501    0  0.00000000000E+00 -0.00000000000E+00 -0.79932891004E+02  0.79932891004E+02  0.00000000000E+00 0. -1.
          5    1    1    2  502    0  0.31123745527E+02  0.40124853820E+02  0.60643452688E+02  0.79236417029E+02  0.47000000000E+01 0.  1.
         -5    1    1    2    0  502 -0.38799824669E+00 -0.43787372358E+02 -0.29807821115E+02  0.53179702145E+02  0.47000000000E+01 0.  1.
        -11    1    1    2    0    0 -0.19151808236E+02  0.21303446833E+02 -0.20129030381E+02  0.35011519101E+02  0.00000000000E+00 0. -1.
         11    1    1    2    0    0 -0.11583939044E+02 -0.17640928295E+02  0.69242591159E+02  0.72387336084E+02  0.00000000000E+00 0.  1.
<mgrwt>
<rscale>  0 0.11950581E+03</rscale>
<asrwt>0</asrwt>
<pdfrwt beam="2">  1        1 0.12297368E-01 0.12877574E+03</pdfrwt>
<pdfrwt beam="1">  1       -1 0.24597244E-01 0.12877574E+03</pdfrwt>
<totfact> 0.65626014E+03</totfact>
</mgrwt>
</event>
<event>
 6    1  0.4705246E-006  0.1277498E+03  0.7546771E-02  0.1244382E+00
         -1   -1    0    0    0  501 -0.00000000000E+00  0.00000000000E+00  0.14148922835E+03  0.14148922835E+03  0.00000000000E+00 0.  1.
          1   -1    0    0  501    0  0.00000000000E+00 -0.00000000000E+00 -0.11124061539E+03  0.11124061539E+03  0.00000000000E+00 0. -1.
          5    1    1    2  502    0 -0.87415883589E+01 -0.20093279990E+02 -0.70826672836E+02  0.74287703240E+02  0.47000000000E+01 0. -1.
         -5    1    1    2    0  502  0.48321764575E+02  0.12244906361E+02  0.31770322748E+02  0.59299022512E+02  0.47000000000E+01 0.  1.
        -11    1    1    2    0    0 -0.61140911548E+02 -0.94900921818E+01  0.67274992877E+02  0.91401299669E+02  0.00000000000E+00 0.  1.
         11    1    1    2    0    0  0.21560735333E+02  0.17338465811E+02  0.20299701756E+01  0.27741818319E+02  0.00000000000E+00 0. -1.
<mgrwt>
<rscale>  0 0.11922420E+03</rscale>
<asrwt>0</asrwt>
<pdfrwt beam="2">  1        1 0.17113941E-01 0.12774981E+03</pdfrwt>
<pdfrwt beam="1">  1       -1 0.21767574E-01 0.12774981E+03</pdfrwt>
<totfact> 0.52156443E+03</totfact>
</mgrwt>
</event>
<event>
 6    1  0.4705246E-006  0.1407273E+03  0.7546771E-02  0.1223454E+00
          1   -1    0    0  501    0  0.00000000000E+00  0.00000000000E+00  0.35526896247E+03  0.35526896247E+03  0.00000000000E+00 0. -1.
         -1   -1    0    0    0  501 -0.00000000000E+00 -0.00000000000E+00 -0.54807002274E+02  0.54807002274E+02  0.00000000000E+00 0.  1.
          5    1    1    2  502    0 -0.12230320983E+02 -0.41233061598E+02  0.60234346752E+02  0.74162070148E+02  0.47000000000E+01 0. -1.
         -5    1    1    2    0  502 -0.28279323573E+02  0.91660681056E+02  0.19172222837E+03  0.21443158220E+03  0.47000000000E+01 0. -1.
        -11    1    1    2    0    0  0.25179685753E+02 -0.72325531933E+02  0.54614542433E+02  0.94062465358E+02  0.00000000000E+00 0. -1.
         11    1    1    2    0    0  0.15329958803E+02  0.21897912475E+02 -0.61091573643E+01  0.27419847034E+02  0.00000000000E+00 0.  1.
<mgrwt>
<rscale>  0 0.13273462E+03</rscale>
<asrwt>0</asrwt>
<pdfrwt beam="1">  1        1 0.54656762E-01 0.14072733E+03</pdfrwt>
<pdfrwt beam="2">  1       -1 0.84318467E-02 0.14072733E+03</pdfrwt>
<totfact> 0.53871604E+03</totfact>
</mgrwt>
</event>
<event>
 6    1  0.4705246E-006  0.1342373E+03  0.7546771E-02  0.1236798E+00
          2   -1    0    0  501    0  0.00000000000E+00  0.00000000000E+00  0.55757412832E+03  0.55757412832E+03  0.00000000000E+00 0. -1.
         -2   -1    0    0    0  501 -0.00000000000E+00 -0.00000000000E+00 -0.28295604989E+02  0.28295604989E+02  0.00000000000E+00 0.  1.
          5    1    1    2  502    0  0.22988233964E+02  0.75786340044E+02  0.37605832346E+03  0.38433576582E+03  0.47000000000E+01 0. -1.
         -5    1    1    2    0  502  0.90347458315E+00 -0.33083658575E+02  0.36416438652E+02  0.49432699048E+02  0.47000000000E+01 0. -1.
        -11    1    1    2    0    0 -0.48458606483E+02 -0.30418041286E+02  0.10971027952E+03  0.12373293502E+03  0.00000000000E+00 0. -1.
         11    1    1    2    0    0  0.24566897936E+02 -0.12284640182E+02  0.70934816994E+01  0.28368333424E+02  0.00000000000E+00 0.  1.
<mgrwt>
<rscale>  0 0.12390042E+03</rscale>
<asrwt>0</asrwt>
<pdfrwt beam="1">  1        2 0.85780627E-01 0.13423730E+03</pdfrwt>
<pdfrwt beam="2">  1       -2 0.43531704E-02 0.13423730E+03</pdfrwt>
<totfact> 0.12613270E+04</totfact>
</mgrwt>
</event>
<event>
 6    1  0.4705246E-006  0.1183287E+03  0.7546771E-02  0.1257495E+00
          1   -1    0    0  501    0  0.00000000000E+00  0.00000000000E+00  0.22031414915E+04  0.22031414915E+04  0.00000000000E+00 0. -1.
         -1   -1    0    0    0  501 -0.00000000000E+00 -0.00000000000E+00 -0.11307009179E+02  0.11307009179E+02  0.00000000000E+00 0.  1.
          5    1    1    2  502    0  0.52027434276E+02  0.26769271167E+02  0.68795475140E+03  0.69045439949E+03  0.47000000000E+01 0. -1.
         -5    1    1    2    0  502 -0.51613403395E+02 -0.30221187009E+01  0.12822409226E+04  0.12832914517E+04  0.47000000000E+01 0.  1.
        -11    1    1    2    0    0 -0.22853794324E+02  0.27533691456E+02  0.62659762505E+02  0.72157091941E+02  0.00000000000E+00 0.  1.
         11    1    1    2    0    0  0.22439763443E+02 -0.51280843922E+02  0.15897904584E+03  0.16854555750E+03  0.00000000000E+00 0. -1.
<mgrwt>
<rscale>  0 0.11167716E+03</rscale>
<asrwt>0</asrwt>
<pdfrwt beam="1">  1        1 0.33894450E+00 0.11832874E+03</pdfrwt>
<pdfrwt beam="2">  1       -1 0.17395416E-02 0.11832874E+03</pdfrwt>
<totfact> 0.21004382E+03</totfact>
</mgrwt>
</event>
<event>
 6    1  0.4705246E-006  0.1288628E+03  0.7546771E-02  0.1252463E+00
          2   -1    0    0  501    0  0.00000000000E+00  0.00000000000E+00  0.19906241894E+03  0.19906241894E+03  0.00000000000E+00 0.  1.
         -2   -1    0    0    0  501 -0.00000000000E+00 -0.00000000000E+00 -0.55836721095E+02  0.55836721095E+02  0.00000000000E+00 0. -1.
          5    1    1    2  502    0 -0.50402062554E+02  0.11373978525E+01  0.47866736650E+02  0.69677658263E+02  0.47000000000E+01 0.  1.
         -5    1    1    2    0  502  0.74785229129E+02 -0.20757076054E+02  0.55728323274E+02  0.95663068721E+02  0.47000000000E+01 0.  1.
        -11    1    1    2    0    0 -0.49250062413E+02  0.99781812909E+01  0.13079805799E+02  0.51925081313E+02  0.00000000000E+00 0.  1.
         11    1    1    2    0    0  0.24866895838E+02  0.96414969109E+01  0.26550832119E+02  0.37633331736E+02  0.00000000000E+00 0. -1.
<mgrwt>
<rscale>  0 0.11449635E+03</rscale>
<asrwt>0</asrwt>
<pdfrwt beam="1">  1        2 0.30624987E-01 0.12886279E+03</pdfrwt>
<pdfrwt beam="2">  1       -2 0.85902649E-02 0.12886279E+03</pdfrwt>
<totfact> 0.13519927E+04</totfact>
</mgrwt>
</event>
<event>
 6    1  0.4705246E-006  0.1880162E+03  0.7546771E-02  0.1170102E+00
         -2   -1    0    0    0  501 -0.00000000000E+00  0.00000000000E+00  0.57402085568E+02  0.57402085568E+02  0.00000000000E+00 0. -1.
          2   -1    0    0  501    0  0.00000000000E+00 -0.00000000000E+00 -0.13821625398E+04  0.13821625398E+04  0.00000000000E+00 0.  1.
          5    1    1    2  502    0 -0.12586212451E+02 -0.65851188655E+02 -0.27499197941E+03  0.28308562403E+03  0.47000000000E+01 0. -1.
         -5    1    1    2    0  502  0.10712945738E+03 -0.58517096481E+01 -0.98895607956E+03  0.99476991332E+03  0.47000000000E+01 0.  1.
        -11    1    1    2    0    0 -0.30303998614E+02  0.42352435459E+02 -0.73371272376E+02  0.89974467108E+02  0.00000000000E+00 0.  1.
         11    1    1    2    0    0 -0.64239246310E+02  0.29350462844E+02  0.12558877161E+02  0.71734620869E+02  0.00000000000E+00 0. -1.
<mgrwt>
<rscale>  0 0.17764480E+03</rscale>
<asrwt>0</asrwt>
<pdfrwt beam="2">  1        2 0.21264041E+00 0.18801617E+03</pdfrwt>
<pdfrwt beam="1">  1       -2 0.88310895E-02 0.18801617E+03</pdfrwt>
<totfact> 0.12855999E+03</totfact>
</mgrwt>
</event>
<event>
 6    1  0.4705246E-006  0.1588934E+03  0.7546771E-02  0.1197838E+00
         -1   -1    0    0    0  501 -0.00000000000E+00  0.00000000000E+00  0.10481837552E+04  0.10481837552E+04  0.00000000000E+00 0.  1.
          1   -1    0    0  501    0  0.00000000000E+00 -0.00000000000E+00 -0.20412311107E+02  0.20412311107E+02  0.00000000000E+00 0. -1.
          5    1    1    2  502    0  0.14966232622E+02  0.11744054480E+03  0.32797399982E+03  0.34871952087E+03  0.47000000000E+01 0.  1.
         -5    1    1    2    0  502  0.83706656773E+01 -0.22159345757E+02  0.23531753593E+03  0.23655345561E+03  0.47000000000E+01 0.  1.
        -11    1    1    2    0    0 -0.37727483744E+02 -0.97879323574E+02  0.45226085491E+03  0.46426674003E+03  0.00000000000E+00 0. -1.
         11    1    1    2    0    0  0.14390585444E+02  0.25981245269E+01  0.12219053449E+02  0.19056349799E+02  0.00000000000E+00 0.  1.
<mgrwt>
<rscale>  0 0.15216451E+03</rscale>
<asrwt>0</asrwt>
<pdfrwt beam="2">  1        1 0.31403564E-02 0.15889337E+03</pdfrwt>
<pdfrwt beam="1">  1       -1 0.16125900E+00 0.15889337E+03</pdfrwt>
<totfact> 0.98195992E+02</totfact>
</mgrwt>
</event>
<event>
 6    1  0.4705246E-006  0.1380323E+03  0.7546771E-02  0.1227897E+00
         -2   -1    0    0    0  501 -0.00000000000E+00  0.00000000000E+00  0.62330511346E+03  0.62330511346E+03  0.00000000000E+00 0.  1.
          2   -1    0    0  501    0  0.00000000000E+00 -0.00000000000E+00 -0.24514203381E+02  0.24514203381E+02  0.00000000000E+00 0. -1.
          5    1    1    2  502    0  0.76663123567E+02 -0.49729477074E+01  0.17623193170E+03  0.19230639219E+03  0.47000000000E+01 0. -1.
         -5    1    1    2    0  502 -0.42929411169E+02 -0.42882895097E+02  0.12348768914E+03  0.13767053571E+03  0.47000000000E+01 0. -1.
        -11    1    1    2    0    0 -0.59955114458E+02  0.13169979598E+02  0.13861179131E+03  0.15159582053E+03  0.00000000000E+00 0.  1.
         11    1    1    2    0    0  0.26221402060E+02  0.34685863206E+02  0.16045949793E+03  0.16624656841E+03  0.00000000000E+00 0. -1.
<mgrwt>
<rscale>  0 0.12970295E+03</rscale>
<asrwt>0</asrwt>
<pdfrwt beam="2">  1        2 0.37714164E-02 0.13803232E+03</pdfrwt>
<pdfrwt beam="1">  1       -2 0.95893083E-01 0.13803232E+03</pdfrwt>
<totfact> 0.20831014E+03</totfact>
</mgrwt>
</event>
<event>
 6    1  0.4705246E-006  0.1270331E+03  0.7546771E-02  0.1269729E+00
         -1   -1    0    0    0  501 -0.00000000000E+00  0.00000000000E+00  0.21425243189E+02  0.21425243189E+02  0.00000000000E+00 0.  1.
          1   -1    0    0  501    0  0.00000000000E+00 -0.00000000000E+00 -0.42423994552E+03  0.42423994552E+03  0.00000000000E+00 0. -1.
          5    1    1    2  502    0  0.58981362111E+01  0.34160249632E+02 -0.25195351605E+03  0.25437054648E+03  0.47000000000E+01 0.  1.
         -5    1    1    2    0  502 -0.16695705909E+02 -0.54147107625E+02 -0.61032420312E+02  0.83412841871E+02  0.47000000000E+01 0.  1.
        -11    1    1    2    0    0 -0.21292650456E+02  0.86125002302E+01 -0.21130820482E+02  0.31209993558E+02  0.00000000000E+00 0.  1.
         11    1    1    2    0    0  0.32090220154E+02  0.11374357762E+02 -0.68697945491E+02  0.76671806805E+02  0.00000000000E+00 0. -1.
<mgrwt>
<rscale>  0 0.10519868E+03</rscale>
<asrwt>0</asrwt>
<pdfrwt beam="2">  1        1 0.65267680E-01 0.12703315E+03</pdfrwt>
<pdfrwt beam="1">  1       -1 0.32961915E-02 0.12703315E+03</pdfrwt>
<totfact> 0.17225278E+04</totfact>
</mgrwt>
</event>
<event>
 6    1  0.4705246E-006  0.1249134E+03  0.7546771E-02  0.1249769E+00
          1   -1    0    0  501    0  0.00000000000E+00  0.00000000000E+00  0.13071474044E+04  0.13071474044E+04  0.00000000000E+00 0. -1.
         -1   -1    0    0    0  501 -0.00000000000E+00 -0.00000000000E+00 -0.92308927775E+01  0.92308927775E+01  0.00000000000E+00 0.  1.
          5    1    1    2  502    0  0.29469100534E+02 -0.56292016509E+02  0.52948395078E+03  0.53330344377E+03  0.47000000000E+01 0. -1.
         -5    1    1    2    0  502 -0.45162946453E+01  0.57315015233E+02  0.29467192257E+03  0.30026494940E+03  0.47000000000E+01 0.  1.
        -11    1    1    2    0    0  0.25294662036E+02  0.24218541221E+02  0.13804751346E+03  0.14242006052E+03  0.00000000000E+00 0.  1.
         11    1    1    2    0    0 -0.50247467925E+02 -0.25241539944E+02  0.33571312479E+03  0.34038984345E+03  0.00000000000E+00 0. -1.
<mgrwt>
<rscale>  0 0.11604411E+03</rscale>
<asrwt>0</asrwt>
<pdfrwt beam="1">  1        1 0.20109945E+00 0.12491342E+03</pdfrwt>
<pdfrwt beam="2">  1       -1 0.14201384E-02 0.12491342E+03</pdfrwt>
<totfact> 0.10526449E+04</totfact>
</mgrwt>
</event>
<event>
 6    1  0.4705246E-006  0.2796045E+03  0.7546771E-02  0.1097838E+00
         -2   -1    0    0    0  501 -0.00000000000E+00  0.00000000000E+00  0.22611029146E+03  0.22611029146E+03  0.00000000000E+00 0.  1.
          2   -1    0    0  501    0  0.00000000000E+00 -0.00000000000E+00 -0.48027399500E+03  0.48027399500E+03  0.00000000000E+00 0. -1.
          5    1    1    2  502    0 -0.14832479589E+03 -0.43793588899E+02 -0.14016031299E+03  0.20877051239E+03  0.47000000000E+01 0.  1.
         -5    1    1    2    0  502 -0.51055620923E+02 -0.10720759254E+03 -0.18732632555E+03  0.22184090374E+03  0.47000000000E+01 0.  1.
        -11    1    1    2    0    0  0.12443275668E+03  0.37745412021E+02  0.36807088949E+02  0.13514062624E+03  0.00000000000E+00 0.  1.
         11    1    1    2    0    0  0.74947660133E+02  0.11325576942E+03  0.36515846055E+02  0.14063224410E+03  0.00000000000E+00 0. -1.
<mgrwt>
<rscale>  0 0.27609970E+03</rscale>
<asrwt>0</asrwt>
<pdfrwt beam="2">  1        2 0.73888306E-01 0.27960453E+03</pdfrwt>
<pdfrwt beam="1">  1       -2 0.34786199E-01 0.27960453E+03</pdfrwt>
<totfact> 0.50870706E+02</totfact>
</mgrwt>
</event>
<event>
 6    1  0.4705246E-006  0.1267145E+03  0.7546771E-02  0.1247552E+00
         -2   -1    0    0    0  501 -0.00000000000E+00  0.00000000000E+00  0.68544356384E+02  0.68544356384E+02  0.00000000000E+00 0.  1.
          2   -1    0    0  501    0  0.00000000000E+00 -0.00000000000E+00 -0.21256751904E+03  0.21256751904E+03  0.00000000000E+00 0. -1.
          5    1    1    2  502    0  0.20853570956E+02  0.52884704677E+02 -0.30310903538E+02  0.64594924596E+02  0.47000000000E+01 0.  1.
         -5    1    1    2    0  502 -0.39330826452E+02 -0.43395742105E+02 -0.10826769012E+03  0.12318314441E+03  0.47000000000E+01 0.  1.
        -11    1    1    2    0    0 -0.29655880516E+02 -0.72912450992E+01 -0.26799186238E+02  0.40630405946E+02  0.00000000000E+00 0. -1.
         11    1    1    2    0    0  0.48133136012E+02 -0.21977174730E+01  0.21354617238E+02  0.52703400477E+02  0.00000000000E+00 0.  1.
<mgrwt>
<rscale>  0 0.11733959E+03</rscale>
<asrwt>0</asrwt>
<pdfrwt beam="2">  1        2 0.32702695E-01 0.12671455E+03</pdfrwt>
<pdfrwt beam="1">  1       -2 0.10545286E-01 0.12671455E+03</pdfrwt>
<totfact> 0.91310263E+03</totfact>
</mgrwt>
</event>
<event>
 6    1  0.4705246E-006  0.1253667E+03  0.7546771E-02  0.1250215E+00
         -2   -1    0    0    0  501 -0.00000000000E+00  0.00000000000E+00  0.43808493919E+02  0.43808493919E+02  0.00000000000E+00 0.  1.
          2   -1    0    0  501    0  0.00000000000E+00 -0.00000000000E+00 -0.27017725751E+03  0.27017725751E+03  0.00000000000E+00 0. -1.
          5    1    1    2  502    0 -0.18088552976E+02  0.52185715630E+02 -0.24914061972E+02  0.60772898142E+02  0.47000000000E+01 0. -1.
         -5    1    1    2    0  502  0.24854535573E+02 -0.45229272915E+02 -0.12081815403E+03  0.13146311806E+03  0.47000000000E+01 0. -1.
        -11    1    1    2    0    0 -0.69930725446E+00 -0.35174576869E+02  0.96430672891E+00  0.35194740743E+02  0.00000000000E+00 0.  1.
         11    1    1    2    0    0 -0.60666753431E+01  0.28218134153E+02 -0.81600854318E+02  0.86554994484E+02  0.00000000000E+00 0. -1.
<mgrwt>
<rscale>  0 0.11578623E+03</rscale>
<asrwt>0</asrwt>
<pdfrwt beam="2">  1        2 0.41565733E-01 0.12536669E+03</pdfrwt>
<pdfrwt beam="1">  1       -2 0.67397681E-02 0.12536669E+03</pdfrwt>
<totfact> 0.14129945E+04</totfact>
</mgrwt>
</event>
<event>
 6    1  0.4705246E-006  0.1489345E+03  0.7546771E-02  0.1211652E+00
          1   -1    0    0  501    0  0.00000000000E+00  0.00000000000E+00  0.11615863563E+04  0.11615863563E+04  0.00000000000E+00 0. -1.
         -1   -1    0    0    0  501 -0.00000000000E+00 -0.00000000000E+00 -0.18498836856E+02  0.18498836856E+02  0.00000000000E+00 0.  1.
          5    1    1    2  502    0  0.42103796980E+02 -0.36222251009E+02  0.80376261429E+03  0.80569300066E+03  0.47000000000E+01 0. -1.
         -5    1    1    2    0  502  0.33709122497E+02  0.78688941861E+01  0.50192222585E+02  0.61152053468E+02  0.47000000000E+01 0. -1.
        -11    1    1    2    0    0 -0.91115664018E+02  0.16877201907E+02  0.27272935021E+03  0.28804201541E+03  0.00000000000E+00 0. -1.
         11    1    1    2    0    0  0.15302744541E+02  0.11476154916E+02  0.16403332402E+02  0.25198123661E+02  0.00000000000E+00 0.  1.
<mgrwt>
<rscale>  0 0.14125329E+03</rscale>
<asrwt>0</asrwt>
<pdfrwt beam="1">  1        1 0.17870554E+00 0.14893450E+03</pdfrwt>
<pdfrwt beam="2">  1       -1 0.28459758E-02 0.14893450E+03</pdfrwt>
<totfact> 0.48835124E+03</totfact>
</mgrwt>
</event>
<event>
 6    1  0.4705246E-006  0.1409282E+03  0.7546771E-02  0.1223334E+00
          1   -1    0    0  501    0  0.00000000000E+00  0.00000000000E+00  0.33732845963E+03  0.33732845963E+03  0.00000000000E+00 0. -1.
         -1   -1    0    0    0  501 -0.00000000000E+00 -0.00000000000E+00 -0.58052310354E+02  0.58052310354E+02  0.00000000000E+00 0.  1.
          5    1    1    2  502    0  0.79974609568E+01 -0.32448828646E+02  0.21041778043E+03  0.21310705803E+03  0.47000000000E+01 0. -1.
         -5    1    1    2    0  502  0.54930395766E+02  0.15830236255E+02  0.27954369085E+02  0.63808161781E+02  0.47000000000E+01 0. -1.
        -11    1    1    2    0    0 -0.62047512112E+02  0.31527436087E+02 -0.54053374070E+01  0.69807525797E+02  0.00000000000E+00 0.  1.
         11    1    1    2    0    0 -0.88034461134E+00 -0.14908843696E+02  0.46309337173E+02  0.48658024378E+02  0.00000000000E+00 0. -1.
<mgrwt>
<rscale>  0 0.13281738E+03</rscale>
<asrwt>0</asrwt>
<pdfrwt beam="1">  1        1 0.51896685E-01 0.14092820E+03</pdfrwt>
<pdfrwt beam="2">  1       -1 0.89311249E-02 0.14092820E+03</pdfrwt>
<totfact> 0.52675206E+03</totfact>
</mgrwt>
</event>
<event>
 6    1  0.4705246E-006  0.1663240E+03  0.7546771E-02  0.1188596E+00
         -1   -1    0    0    0  501 -0.00000000000E+00  0.00000000000E+00  0.12171614543E+02  0.12171614543E+02  0.00000000000E+00 0.  1.
          1   -1    0    0  501    0  0.00000000000E+00 -0.00000000000E+00 -0.19864559618E+04  0.19864559618E+04  0.00000000000E+00 0. -1.
          5    1    1    2  502    0 -0.15759183221E+01 -0.49092545982E+02 -0.23405351624E+03  0.23919803523E+03  0.47000000000E+01 0. -1.
         -5    1    1    2    0  502 -0.10847186694E+03  0.25190166535E+02 -0.93775554392E+03  0.94435599249E+03  0.47000000000E+01 0.  1.
        -11    1    1    2    0    0  0.78734448997E+02 -0.26690906366E+02 -0.45131833001E+03  0.45891148705E+03  0.00000000000E+00 0.  1.
         11    1    1    2    0    0  0.31313336269E+02  0.50593285813E+02 -0.35115695713E+03  0.35616206162E+03  0.00000000000E+00 0. -1.
<mgrwt>
<rscale>  0 0.16008924E+03</rscale>
<asrwt>0</asrwt>
<pdfrwt beam="2">  1        1 0.30560859E+00 0.16632397E+03</pdfrwt>
<pdfrwt beam="1">  1       -1 0.18725562E-02 0.16632397E+03</pdfrwt>
<totfact> 0.25982637E+03</totfact>
</mgrwt>
</event>
<event>
 6    1  0.4705246E-006  0.2598174E+03  0.7546771E-02  0.1109505E+00
          2   -1    0    0  501    0  0.00000000000E+00  0.00000000000E+00  0.61113773482E+03  0.61113773482E+03  0.00000000000E+00 0. -1.
         -2   -1    0    0    0  501 -0.00000000000E+00 -0.00000000000E+00 -0.15343440719E+03  0.15343440719E+03  0.00000000000E+00 0.  1.
          5    1    1    2  502    0  0.80781984966E+02  0.13404838507E+02  0.69262737743E+02  0.10735378722E+03  0.47000000000E+01 0.  1.
         -5    1    1    2    0  502  0.10524740125E+03  0.11802483931E+03  0.38018232694E+03  0.41178583011E+03  0.47000000000E+01 0.  1.
        -11    1    1    2    0    0 -0.38258606248E+02 -0.79831561408E+02 -0.23113547064E+01  0.88555866601E+02  0.00000000000E+00 0. -1.
         11    1    1    2    0    0 -0.14777077997E+03 -0.51598116406E+02  0.10569617648E+02  0.15687665807E+03  0.00000000000E+00 0.  1.
<mgrwt>
<rscale>  0 0.25610773E+03</rscale>
<asrwt>0</asrwt>
<pdfrwt beam="1">  1        2 0.94021189E-01 0.25981739E+03</pdfrwt>
<pdfrwt beam="2">  1       -2 0.23605294E-01 0.25981739E+03</pdfrwt>
<totfact> 0.77970803E+02</totfact>
</mgrwt>
</event>
<event>
 6    1  0.4705246E-006  0.1995208E+03  0.7546771E-02  0.1183254E+00
          2   -1    0    0  501    0  0.00000000000E+00  0.00000000000E+00  0.36910956314E+03  0.36910956314E+03  0.00000000000E+00 0. -1.
         -2   -1    0    0    0  501 -0.00000000000E+00 -0.00000000000E+00 -0.60814947124E+02  0.60814947124E+02  0.00000000000E+00 0.  1.
          5    1    1    2  502    0  0.15268398177E+02 -0.56713256332E+02  0.27283078304E+03  0.27912048223E+03  0.47000000000E+01 0. -1.
         -5    1    1    2    0  502 -0.78119821015E+01  0.33747130290E+02 -0.22062930817E+02  0.41337135646E+02  0.47000000000E+01 0.  1.
        -11    1    1    2    0    0 -0.41888826565E+02  0.92938739752E+01  0.58328836372E+02  0.72410655549E+02  0.00000000000E+00 0. -1.
         11    1    1    2    0    0  0.34432410490E+02  0.13672252067E+02 -0.80207257244E+00  0.37056236845E+02  0.00000000000E+00 0.  1.
<mgrwt>
<rscale>  0 0.16491744E+03</rscale>
<asrwt>0</asrwt>
<pdfrwt beam="1">  1        2 0.56786085E-01 0.19952085E+03</pdfrwt>
<pdfrwt beam="2">  1       -2 0.93561459E-02 0.19952085E+03</pdfrwt>
<totfact> 0.62931132E+03</totfact>
</mgrwt>
</event>
<event>
 6    1  0.4705246E-006  0.1506140E+03  0.7546771E-02  0.1207652E+00
         -1   -1    0    0    0  501 -0.00000000000E+00  0.00000000000E+00  0.41363287695E+03  0.41363287695E+03  0.00000000000E+00 0.  1.
          1   -1    0    0  501    0  0.00000000000E+00 -0.00000000000E+00 -0.47082325040E+02  0.47082325040E+02  0.00000000000E+00 0. -1.
          5    1    1    2  502    0  0.65783350408E+02  0.18184845824E+02  0.37002087325E+02  0.77777774943E+02  0.47000000000E+01 0. -1.
         -5    1    1    2    0  502 -0.31384158116E+02  0.58467742411E+02  0.13740430117E+03  0.15266130571E+03  0.47000000000E+01 0. -1.
        -11    1    1    2    0    0 -0.53881496258E+02 -0.83647031136E+02  0.18153841683E+03  0.20701748294E+03  0.00000000000E+00 0. -1.
         11    1    1    2    0    0  0.19482303966E+02  0.69944429015E+01  0.10605746587E+02  0.23258638395E+02  0.00000000000E+00 0.  1.
<mgrwt>
<rscale>  0 0.14430397E+03</rscale>
<asrwt>0</asrwt>
<pdfrwt beam="2">  1        1 0.72434349E-02 0.15061402E+03</pdfrwt>
<pdfrwt beam="1">  1       -1 0.63635825E-01 0.15061402E+03</pdfrwt>
<totfact> 0.25106554E+03</totfact>
</mgrwt>
</event>
<event>
 6    1  0.4705246E-006  0.1467340E+03  0.7546771E-02  0.1214894E+00
         -2   -1    0    0    0  501 -0.00000000000E+00  0.00000000000E+00  0.44339836767E+02  0.44339836767E+02  0.00000000000E+00 0.  1.
          2   -1    0    0  501    0  0.00000000000E+00 -0.00000000000E+00 -0.41417269859E+03  0.41417269859E+03  0.00000000000E+00 0. -1.
          5    1    1    2  502    0 -0.51604616398E+01  0.88499438235E+02 -0.17672284565E+03  0.19776712342E+03  0.47000000000E+01 0. -1.
         -5    1    1    2    0  502  0.49745493939E+02 -0.25905400842E+02 -0.77816789680E+02  0.96037735896E+02  0.47000000000E+01 0. -1.
        -11    1    1    2    0    0  0.34005365637E+00 -0.20943469304E+02 -0.99172143002E+02  0.10136004386E+03  0.00000000000E+00 0. -1.
         11    1    1    2    0    0 -0.44925085955E+02 -0.41650568088E+02 -0.16121083491E+02  0.63347632182E+02  0.00000000000E+00 0.  1.
<mgrwt>
<rscale>  0 0.13884325E+03</rscale>
<asrwt>0</asrwt>
<pdfrwt beam="2">  1        2 0.63718877E-01 0.14673401E+03</pdfrwt>
<pdfrwt beam="1">  1       -2 0.68215133E-02 0.14673401E+03</pdfrwt>
<totfact> 0.89172553E+03</totfact>
</mgrwt>
</event>
<event>
 6    1  0.4705246E-006  0.1325748E+03  0.7546771E-02  0.1236762E+00
         -1   -1    0    0    0  501 -0.00000000000E+00  0.00000000000E+00  0.16451928798E+02  0.16451928798E+02  0.00000000000E+00 0.  1.
          1   -1    0    0  501    0  0.00000000000E+00 -0.00000000000E+00 -0.16269145499E+04  0.16269145499E+04  0.00000000000E+00 0. -1.
          5    1    1    2  502    0 -0.37507127673E+02  0.23270627677E+02 -0.47958916919E+03  0.48163904321E+03  0.47000000000E+01 0. -1.
         -5    1    1    2    0  502  0.71590066954E+02 -0.51278459350E+02 -0.95302583848E+03  0.95709715123E+03  0.47000000000E+01 0. -1.
        -11    1    1    2    0    0 -0.60332502347E+02  0.16850764680E+02 -0.15776791680E+03  0.16974885767E+03  0.00000000000E+00 0. -1.
         11    1    1    2    0    0  0.26249563067E+02  0.11157066993E+02 -0.20079696672E+02  0.34881426627E+02  0.00000000000E+00 0.  1.
<mgrwt>
<rscale>  0 0.12392338E+03</rscale>
<asrwt>0</asrwt>
<pdfrwt beam="2">  1        1 0.25029450E+00 0.13257480E+03</pdfrwt>
<pdfrwt beam="1">  1       -1 0.25310665E-02 0.13257480E+03</pdfrwt>
<totfact> 0.28440208E+03</totfact>
</mgrwt>
</event>
<event>
 6    1  0.4705246E-006  0.1500263E+03  0.7546771E-02  0.1209858E+00
         -2   -1    0    0    0  501 -0.00000000000E+00  0.00000000000E+00  0.53151830103E+02  0.53151830103E+02  0.00000000000E+00 0.  1.
          2   -1    0    0  501    0  0.00000000000E+00 -0.00000000000E+00 -0.66104478138E+03  0.66104478138E+03  0.00000000000E+00 0. -1.
          5    1    1    2  502    0 -0.66801878700E+02 -0.23534493759E+02 -0.13645153778E+03  0.15380986820E+03  0.47000000000E+01 0.  1.
         -5    1    1    2    0  502 -0.14284159388E+02  0.41094858682E+02 -0.42828398448E+03  0.43051374657E+03  0.47000000000E+01 0.  1.
        -11    1    1    2    0    0  0.12258382875E+02  0.28745991810E+02 -0.34371171035E+02  0.46454035284E+02  0.00000000000E+00 0. -1.
         11    1    1    2    0    0  0.68827655212E+02 -0.46306356734E+02 -0.87862579777E+01  0.83418961425E+02  0.00000000000E+00 0.  1.
<mgrwt>
<rscale>  0 0.14261096E+03</rscale>
<asrwt>0</asrwt>
<pdfrwt beam="2">  1        2 0.10169920E+00 0.15002625E+03</pdfrwt>
<pdfrwt beam="1">  1       -2 0.81772047E-02 0.15002625E+03</pdfrwt>
<totfact> 0.40102847E+03</totfact>
</mgrwt>
</event>
<event>
 6    1  0.4705246E-006  0.1457152E+03  0.7546771E-02  0.1219296E+00
          1   -1    0    0  501    0  0.00000000000E+00  0.00000000000E+00  0.38981423515E+03  0.38981423515E+03  0.00000000000E+00 0. -1.
         -1   -1    0    0    0  501 -0.00000000000E+00 -0.00000000000E+00 -0.43700772842E+02  0.43700772842E+02  0.00000000000E+00 0.  1.
          5    1    1    2  502    0 -0.79455490983E+01 -0.27317302504E+02  0.26046808707E+00  0.28836168438E+02  0.47000000000E+01 0. -1.
         -5    1    1    2    0  502  0.76688414870E+02 -0.24071602218E+01  0.24153396614E+03  0.25347120980E+03  0.47000000000E+01 0. -1.
        -11    1    1    2    0    0  0.10711309540E+02  0.22833278968E+02  0.45813106076E+02  0.52296572247E+02  0.00000000000E+00 0. -1.
         11    1    1    2    0    0 -0.79454175312E+02  0.68911837571E+01  0.58505921998E+02  0.98911057506E+02  0.00000000000E+00 0.  1.
<mgrwt>
<rscale>  0 0.13565677E+03</rscale>
<asrwt>0</asrwt>
<pdfrwt beam="1">  1        1 0.59971419E-01 0.14571516E+03</pdfrwt>
<pdfrwt beam="2">  1       -1 0.67231961E-02 0.14571516E+03</pdfrwt>
<totfact> 0.67580460E+03</totfact>
</mgrwt>
</event>
<event>
 6    1  0.4705246E-006  0.1250229E+03  0.7546771E-02  0.1250646E+00
         -4   -1    0    0    0  501 -0.00000000000E+00  0.00000000000E+00  0.15694636896E+03  0.15694636896E+03  0.00000000000E+00 0.  1.
          4   -1    0    0  501    0  0.00000000000E+00 -0.00000000000E+00 -0.74482314560E+02  0.74482314560E+02  0.00000000000E+00 0. -1.
          5    1    1    2  502    0  0.42288520617E+02 -0.11240028607E+02 -0.24235428405E+02  0.50240453909E+02  0.47000000000E+01 0. -1.
         -5    1    1    2    0  502 -0.42010886021E+02  0.13651533504E+02  0.69978918392E+02  0.82887984235E+02  0.47000000000E+01 0. -1.
        -11    1    1    2    0    0 -0.25809435882E+02 -0.20497135692E+02  0.53469313706E+02  0.62811042503E+02  0.00000000000E+00 0.  1.
         11    1    1    2    0    0  0.25531801286E+02  0.18085630795E+02 -0.16748749289E+02  0.35489202878E+02  0.00000000000E+00 0. -1.
<mgrwt>
<rscale>  0 0.11553720E+03</rscale>
<asrwt>0</asrwt>
<pdfrwt beam="2">  1        4 0.11458818E-01 0.12502285E+03</pdfrwt>
<pdfrwt beam="1">  1       -4 0.24145595E-01 0.12502285E+03</pdfrwt>
<totfact> 0.15532180E+03</totfact>
</mgrwt>
</event>
<event>
 6    1  0.4705246E-006  0.1752866E+03  0.7546771E-02  0.1178989E+00
          1   -1    0    0  501    0  0.00000000000E+00  0.00000000000E+00  0.17698716909E+03  0.17698716909E+03  0.00000000000E+00 0. -1.
         -1   -1    0    0    0  501 -0.00000000000E+00 -0.00000000000E+00 -0.15363459780E+03  0.15363459780E+03  0.00000000000E+00 0.  1.
          5    1    1    2  502    0  0.11407652126E+03 -0.15262380953E+02 -0.46656283149E+01  0.11528335119E+03  0.47000000000E+01 0.  1.
         -5    1    1    2    0  502  0.42247296953E+01  0.48556145312E+02  0.40692498924E+02  0.63667236922E+02  0.47000000000E+01 0.  1.
        -11    1    1    2    0    0 -0.10788435905E+03 -0.21463019992E+02 -0.42510202392E+02  0.11792715320E+03  0.00000000000E+00 0.  1.
         11    1    1    2    0    0 -0.10416891899E+02 -0.11830744367E+02  0.29835903072E+02  0.33744025564E+02  0.00000000000E+00 0. -1.
<mgrwt>
<rscale>  0 0.16891056E+03</rscale>
<asrwt>0</asrwt>
<pdfrwt beam="1">  1        1 0.27228795E-01 0.17528656E+03</pdfrwt>
<pdfrwt beam="2">  1       -1 0.23636092E-01 0.17528656E+03</pdfrwt>
<totfact> 0.25713684E+03</totfact>
</mgrwt>
</event>
<event>
 6    1  0.4705246E-006  0.2788153E+03  0.7546771E-02  0.1096338E+00
         -2   -1    0    0    0  501 -0.00000000000E+00  0.00000000000E+00  0.29981136768E+02  0.29981136768E+02  0.00000000000E+00 0.  1.
          2   -1    0    0  501    0  0.00000000000E+00 -0.00000000000E+00 -0.64822393444E+03  0.64822393444E+03  0.00000000000E+00 0. -1.
          5    1    1    2  502    0 -0.99909396643E+01  0.11122754990E+03 -0.20837579675E+03  0.23646130635E+03  0.47000000000E+01 0.  1.
         -5    1    1    2    0  502 -0.15698472618E+02 -0.27638984518E+02 -0.14361783922E+03  0.14716837041E+03  0.47000000000E+01 0.  1.
        -11    1    1    2    0    0 -0.45993658072E+01 -0.62099878518E+02 -0.65329417203E+02  0.90252323128E+02  0.00000000000E+00 0.  1.
         11    1    1    2    0    0  0.30288778090E+02 -0.21488686862E+02 -0.20091974450E+03  0.20432307131E+03  0.00000000000E+00 0. -1.
<mgrwt>
<rscale>  0 0.27881528E+03</rscale>
<asrwt>0</asrwt>
<pdfrwt beam="2">  1        2 0.99726760E-01 0.27881528E+03</pdfrwt>
<pdfrwt beam="1">  1       -2 0.46124825E-02 0.27881528E+03</pdfrwt>
<totfact> 0.10156223E+04</totfact>
</mgrwt>
</event>
<event>
 6    1  0.4705246E-006  0.1204518E+03  0.7546771E-02  0.1255711E+00
         -2   -1    0    0    0  501 -0.00000000000E+00  0.00000000000E+00  0.54479194880E+02  0.54479194880E+02  0.00000000000E+00 0.  1.
          2   -1    0    0  501    0  0.00000000000E+00 -0.00000000000E+00 -0.22106321482E+03  0.22106321482E+03  0.00000000000E+00 0. -1.
          5    1    1    2  502    0 -0.42857968295E+02 -0.39088993963E+02 -0.83530616800E+02  0.10180475843E+03  0.47000000000E+01 0. -1.
         -5    1    1    2    0  502  0.31520543316E+02  0.49671868085E+02 -0.43974283142E+02  0.73598007499E+02  0.47000000000E+01 0.  1.
        -11    1    1    2    0    0 -0.11814755406E+02  0.36961771855E+02 -0.11358091366E+02  0.40432255236E+02  0.00000000000E+00 0.  1.
         11    1    1    2    0    0  0.23152180385E+02 -0.47544645977E+02 -0.27721028634E+02  0.59707388539E+02  0.00000000000E+00 0. -1.
<mgrwt>
<rscale>  0 0.11266582E+03</rscale>
<asrwt>0</asrwt>
<pdfrwt beam="2">  1        2 0.34009725E-01 0.12045178E+03</pdfrwt>
<pdfrwt beam="1">  1       -2 0.83814146E-02 0.12045178E+03</pdfrwt>
<totfact> 0.12475760E+04</totfact>
</mgrwt>
</event>
<event>
 6    1  0.4705246E-006  0.1254234E+03  0.7546771E-02  0.1247762E+00
         -1   -1    0    0    0  501 -0.00000000000E+00  0.00000000000E+00  0.15204643046E+03  0.15204643046E+03  0.00000000000E+00 0.  1.
          1   -1    0    0  501    0  0.00000000000E+00 -0.00000000000E+00 -0.81129285649E+02  0.81129285649E+02  0.00000000000E+00 0. -1.
          5    1    1    2  502    0 -0.58488481786E+02  0.33613774147E+02  0.10962498926E+02  0.68505873448E+02  0.47000000000E+01 0. -1.
         -5    1    1    2    0  502  0.49485793562E+02 -0.28814481384E+02  0.18112564623E+02  0.60243448599E+02  0.47000000000E+01 0. -1.
        -11    1    1    2    0    0  0.37491505583E+02 -0.27902190637E+02 -0.25950363308E+01  0.46806831198E+02  0.00000000000E+00 0.  1.
         11    1    1    2    0    0 -0.28488817359E+02  0.23102897873E+02  0.44437117592E+02  0.57619562863E+02  0.00000000000E+00 0. -1.
<mgrwt>
<rscale>  0 0.11721574E+03</rscale>
<asrwt>0</asrwt>
<pdfrwt beam="2">  1        1 0.12481429E-01 0.12542340E+03</pdfrwt>
<pdfrwt beam="1">  1       -1 0.23391759E-01 0.12542340E+03</pdfrwt>
<totfact> 0.69727502E+03</totfact>
</mgrwt>
</event>
<event>
 6    1  0.4705246E-006  0.1690669E+03  0.7546771E-02  0.1185215E+00
         -1   -1    0    0    0  501 -0.00000000000E+00  0.00000000000E+00  0.29270279247E+02  0.29270279247E+02  0.00000000000E+00 0.  1.
          1   -1    0    0  501    0  0.00000000000E+00 -0.00000000000E+00 -0.88737186821E+03  0.88737186821E+03  0.00000000000E+00 0. -1.
          5    1    1    2  502    0 -0.21532435269E+02 -0.76097743597E+02 -0.87501869482E+02  0.11803888983E+03  0.47000000000E+01 0.  1.
         -5    1    1    2    0  502 -0.61075660154E+02 -0.21353725226E+01 -0.27791551424E+03  0.28459430623E+03  0.47000000000E+01 0.  1.
        -11    1    1    2    0    0  0.86272030898E+00  0.52663531925E+02 -0.11141553404E+03  0.12323803433E+03  0.00000000000E+00 0.  1.
         11    1    1    2    0    0  0.81745375114E+02  0.25569584194E+02 -0.38126867120E+03  0.39077091707E+03  0.00000000000E+00 0. -1.
<mgrwt>
<rscale>  0 0.16312353E+03</rscale>
<asrwt>0</asrwt>
<pdfrwt beam="2">  1        1 0.13651873E+00 0.16906693E+03</pdfrwt>
<pdfrwt beam="1">  1       -1 0.45031205E-02 0.16906693E+03</pdfrwt>
<totfact> 0.39655581E+03</totfact>
</mgrwt>
</event>
<event>
 6    1  0.4705246E-006  0.1713403E+03  0.7546771E-02  0.1183044E+00
         -1   -1    0    0    0  501 -0.00000000000E+00  0.00000000000E+00  0.25806117387E+02  0.25806117387E+02  0.00000000000E+00 0.  1.
          1   -1    0    0  501    0  0.00000000000E+00 -0.00000000000E+00 -0.19743795844E+04  0.19743795844E+04  0.00000000000E+00 0. -1.
          5    1    1    2  502    0  0.38283047645E+02  0.36334164986E+02 -0.14407769296E+04  0.14417510236E+04  0.47000000000E+01 0.  1.
         -5    1    1    2    0  502  0.53985649878E+02  0.35926874953E+02 -0.27599170070E+03  0.28354664447E+03  0.47000000000E+01 0.  1.
        -11    1    1    2    0    0 -0.48158337811E+02 -0.87375193059E+02 -0.13988554781E+03  0.17181855648E+03  0.00000000000E+00 0.  1.
         11    1    1    2    0    0 -0.44110359711E+02  0.15114153120E+02 -0.91919288871E+02  0.10306947717E+03  0.00000000000E+00 0. -1.
<mgrwt>
<rscale>  0 0.16511112E+03</rscale>
<asrwt>0</asrwt>
<pdfrwt beam="2">  1        1 0.30375070E+00 0.17134034E+03</pdfrwt>
<pdfrwt beam="1">  1       -1 0.39701720E-02 0.17134034E+03</pdfrwt>
<totfact> 0.88182654E+02</totfact>
</mgrwt>
</event>
<event>
 6    1  0.4705246E-006  0.1367753E+03  0.7546771E-02  0.1229164E+00
         -2   -1    0    0    0  501 -0.00000000000E+00  0.00000000000E+00  0.79866854310E+02  0.79866854310E+02  0.00000000000E+00 0.  1.
          2   -1    0    0  501    0  0.00000000000E+00 -0.00000000000E+00 -0.18717277489E+03  0.18717277489E+03  0.00000000000E+00 0. -1.
          5    1    1    2  502    0 -0.18653582796E+02  0.17879656039E+02  0.22539059547E+02  0.34608343741E+02  0.47000000000E+01 0. -1.
         -5    1    1    2    0  502  0.42285357844E+02 -0.68124273897E+02 -0.81209901000E+02  0.11421955263E+03  0.47000000000E+01 0. -1.
        -11    1    1    2    0    0  0.70448082107E+01 -0.16142780377E+02 -0.41072149026E+02  0.44689373532E+02  0.00000000000E+00 0. -1.
         11    1    1    2    0    0 -0.30676583259E+02  0.66387398236E+02 -0.75629300984E+01  0.73522359298E+02  0.00000000000E+00 0.  1.
<mgrwt>
<rscale>  0 0.12885562E+03</rscale>
<asrwt>0</asrwt>
<pdfrwt beam="2">  1        2 0.28795811E-01 0.13677527E+03</pdfrwt>
<pdfrwt beam="1">  1       -2 0.12287209E-01 0.13677527E+03</pdfrwt>
<totfact> 0.82656360E+03</totfact>
</mgrwt>
</event>
<event>
 6    1  0.4705246E-006  0.4287196E+03  0.7546771E-02  0.1034265E+00
          2   -1    0    0  501    0  0.00000000000E+00  0.00000000000E+00  0.18783203111E+03  0.18783203111E+03  0.00000000000E+00 0. -1.
         -2   -1    0    0    0  501 -0.00000000000E+00 -0.00000000000E+00 -0.24463409753E+03  0.24463409753E+03  0.00000000000E+00 0.  1.
          5    1    1    2  502    0 -0.29704044865E+02  0.41008816108E+02  0.17148928065E+03  0.17887067020E+03  0.47000000000E+01 0. -1.
         -5    1    1    2    0  502  0.12336067139E+01 -0.85136898149E+01 -0.22992585550E+02  0.24995073316E+02  0.47000000000E+01 0.  1.
        -11    1    1    2    0    0 -0.13867927058E+01 -0.57477050619E+02 -0.88967876379E+02  0.10592836055E+03  0.00000000000E+00 0. -1.
         11    1    1    2    0    0  0.29857230857E+02  0.24981924326E+02 -0.11633088513E+03  0.12267202457E+03  0.00000000000E+00 0.  1.
<mgrwt>
<rscale>  0 0.42871958E+03</rscale>
<asrwt>0</asrwt>
<pdfrwt beam="1">  1        2 0.28897236E-01 0.42871958E+03</pdfrwt>
<pdfrwt beam="2">  1       -2 0.37636015E-01 0.42871958E+03</pdfrwt>
<totfact> 0.12332108E+03</totfact>
</mgrwt>
</event>
<event>
 6    1  0.4705246E-006  0.1272171E+03  0.7546771E-02  0.1246640E+00
          1   -1    0    0  501    0  0.00000000000E+00  0.00000000000E+00  0.43950612530E+03  0.43950612530E+03  0.00000000000E+00 0.  1.
         -1   -1    0    0    0  501 -0.00000000000E+00 -0.00000000000E+00 -0.34404961068E+02  0.34404961068E+02  0.00000000000E+00 0. -1.
          5    1    1    2  502    0 -0.69708621436E+02 -0.28428945615E+01  0.15757535364E+03  0.17239331782E+03  0.47000000000E+01 0.  1.
         -5    1    1    2    0  502  0.52420704541E+02  0.18967738591E+02  0.17273812704E+03  0.18157162748E+03  0.47000000000E+01 0.  1.
        -11    1    1    2    0    0 -0.17142255060E+02  0.10047912230E+02  0.74072761206E+02  0.76691534092E+02  0.00000000000E+00 0.  1.
         11    1    1    2    0    0  0.34430171955E+02 -0.26172756259E+02  0.71492234290E+00  0.43254606980E+02  0.00000000000E+00 0. -1.
<mgrwt>
<rscale>  0 0.11787770E+03</rscale>
<asrwt>0</asrwt>
<pdfrwt beam="1">  1        1 0.67616323E-01 0.12721709E+03</pdfrwt>
<pdfrwt beam="2">  1       -1 0.52930712E-02 0.12721709E+03</pdfrwt>
<totfact> 0.82177331E+03</totfact>
</mgrwt>
</event>
<event>
 6    1  0.4705246E-006  0.3254632E+03  0.7546771E-02  0.1073162E+00
         -3   -1    0    0    0  501 -0.00000000000E+00  0.00000000000E+00  0.26794173361E+03  0.26794173361E+03  0.00000000000E+00 0.  1.
          3   -1    0    0  501    0  0.00000000000E+00 -0.00000000000E+00 -0.98833346178E+02  0.98833346178E+02  0.00000000000E+00 0. -1.
          5    1    1    2  502    0 -0.30749001667E+01 -0.27511058698E+02 -0.86319694900E+01  0.29375402278E+02  0.47000000000E+01 0. -1.
         -5    1    1    2    0  502  0.11446285646E+03  0.74705165408E+02  0.81780905149E+02  0.15935122747E+03  0.47000000000E+01 0. -1.
        -11    1    1    2    0    0 -0.10230290871E+03 -0.58259756487E+00  0.69593340169E+02  0.12373139273E+03  0.00000000000E+00 0.  1.
         11    1    1    2    0    0 -0.90850475859E+01 -0.46611509145E+02  0.26366111604E+02  0.54317057317E+02  0.00000000000E+00 0. -1.
<mgrwt>
<rscale>  0 0.32546323E+03</rscale>
<asrwt>0</asrwt>
<pdfrwt beam="2">  1        3 0.15205130E-01 0.32546323E+03</pdfrwt>
<pdfrwt beam="1">  1       -3 0.41221805E-01 0.32546323E+03</pdfrwt>
<totfact> 0.54761145E+02</totfact>
</mgrwt>
</event>
<event>
 6    1  0.4705246E-006  0.3514819E+03  0.7546771E-02  0.1062008E+00
         -1   -1    0    0    0  501 -0.00000000000E+00  0.00000000000E+00  0.23029308677E+02  0.23029308677E+02  0.00000000000E+00 0.  1.
          1   -1    0    0  501    0  0.00000000000E+00 -0.00000000000E+00 -0.13411119622E+04  0.13411119622E+04  0.00000000000E+00 0. -1.
          5    1    1    2  502    0  0.30810680596E+02 -0.16312669502E+02 -0.37511681539E+03  0.37676267916E+03  0.47000000000E+01 0.  1.
         -5    1    1    2    0  502 -0.66295092810E+02 -0.11165198671E+03 -0.45757911042E+03  0.47566998829E+03  0.47000000000E+01 0.  1.
        -11    1    1    2    0    0  0.46655556061E+02  0.59842348482E+02 -0.13758741089E+03  0.15712461048E+03  0.00000000000E+00 0.  1.
         11    1    1    2    0    0 -0.11171143847E+02  0.68122307733E+02 -0.34779931681E+03  0.35458399292E+03  0.00000000000E+00 0. -1.
<mgrwt>
<rscale>  0 0.35148190E+03</rscale>
<asrwt>0</asrwt>
<pdfrwt beam="2">  1        1 0.20632491E+00 0.35148190E+03</pdfrwt>
<pdfrwt beam="1">  1       -1 0.35429708E-02 0.35148190E+03</pdfrwt>
<totfact> 0.26989074E+03</totfact>
</mgrwt>
</event>
<event>
 6    1  0.4705246E-006  0.1284993E+03  0.7546771E-02  0.1243887E+00
         -2   -1    0    0    0  501 -0.00000000000E+00  0.00000000000E+00  0.12705081284E+02  0.12705081284E+02  0.00000000000E+00 0.  1.
          2   -1    0    0  501    0  0.00000000000E+00 -0.00000000000E+00 -0.99475507417E+03  0.99475507417E+03  0.00000000000E+00 0. -1.
          5    1    1    2  502    0 -0.45804312355E+02 -0.68657359869E+01 -0.12884011424E+03  0.13699284068E+03  0.47000000000E+01 0. -1.
         -5    1    1    2    0  502  0.68051646577E+02  0.26687886749E+02 -0.45151217759E+03  0.45741513575E+03  0.47000000000E+01 0. -1.
        -11    1    1    2    0    0  0.12034046613E+02 -0.46872482686E+02 -0.27002689656E+03  0.27432894994E+03  0.00000000000E+00 0. -1.
         11    1    1    2    0    0 -0.34281380835E+02  0.27050331924E+02 -0.13167080450E+03  0.13872322908E+03  0.00000000000E+00 0.  1.
<mgrwt>
<rscale>  0 0.11952243E+03</rscale>
<asrwt>0</asrwt>
<pdfrwt beam="2">  1        2 0.15303932E+00 0.12849926E+03</pdfrwt>
<pdfrwt beam="1">  1       -2 0.19546269E-02 0.12849926E+03</pdfrwt>
<totfact> 0.20086222E+04</totfact>
</mgrwt>
</event>
<event>
 6    1  0.4705246E-006  0.1449850E+03  0.7546771E-02  0.1216459E+00
         -2   -1    0    0    0  501 -0.00000000000E+00  0.00000000000E+00  0.16343558636E+03  0.16343558636E+03  0.00000000000E+00 0.  1.
          2   -1    0    0  501    0  0.00000000000E+00 -0.00000000000E+00 -0.10915378842E+03  0.10915378842E+03  0.00000000000E+00 0. -1.
          5    1    1    2  502    0  0.40599172476E+02  0.64527147867E+02 -0.18472827663E+02  0.78583592305E+02  0.47000000000E+01 0.  1.
         -5    1    1    2    0  502 -0.61416290725E+02  0.58932015269E+01  0.24425432536E+02  0.66523547299E+02  0.47000000000E+01 0.  1.
        -11    1    1    2    0    0 -0.64383954776E+01 -0.78927019874E+02  0.57082609029E+02  0.97618398144E+02  0.00000000000E+00 0. -1.
         11    1    1    2    0    0  0.27255513727E+02  0.85066704798E+01 -0.87534159638E+01  0.29863837031E+02  0.00000000000E+00 0.  1.
<mgrwt>
<rscale>  0 0.13769927E+03</rscale>
<asrwt>0</asrwt>
<pdfrwt beam="2">  1        2 0.16792890E-01 0.14498499E+03</pdfrwt>
<pdfrwt beam="1">  1       -2 0.25143936E-01 0.14498499E+03</pdfrwt>
<totfact> 0.45960244E+03</totfact>
</mgrwt>
</event>
<event>
 6    1  0.4705246E-006  0.1186248E+03  0.7546771E-02  0.1257627E+00
         -2   -1    0    0    0  501 -0.00000000000E+00  0.00000000000E+00  0.26777618141E+02  0.26777618141E+02  0.00000000000E+00 0.  1.
          2   -1    0    0  501    0  0.00000000000E+00 -0.00000000000E+00 -0.45699519223E+03  0.45699519223E+03  0.00000000000E+00 0. -1.
          5    1    1    2  502    0 -0.26851790082E+02  0.57066418391E+02 -0.15041288338E+03  0.16316776711E+03  0.47000000000E+01 0. -1.
         -5    1    1    2    0  502  0.40299781155E+02 -0.36965063063E+02 -0.15886525214E+03  0.16807958408E+03  0.47000000000E+01 0.  1.
        -11    1    1    2    0    0 -0.49662838023E+02 -0.22688616120E+02 -0.56562596073E+02  0.78616143739E+02  0.00000000000E+00 0.  1.
         11    1    1    2    0    0  0.36214846951E+02  0.25872607922E+01 -0.64376842504E+02  0.73909315440E+02  0.00000000000E+00 0. -1.
<mgrwt>
<rscale>  0 0.11160436E+03</rscale>
<asrwt>0</asrwt>
<pdfrwt beam="2">  1        2 0.70306945E-01 0.11862480E+03</pdfrwt>
<pdfrwt beam="1">  1       -2 0.41196340E-02 0.11862480E+03</pdfrwt>
<totfact> 0.16861601E+04</totfact>
</mgrwt>
</event>
<event>
 6    1  0.4705246E-006  0.3829592E+03  0.7546771E-02  0.1049845E+00
          1   -1    0    0  501    0  0.00000000000E+00  0.00000000000E+00  0.56018486248E+03  0.56018486248E+03  0.00000000000E+00 0. -1.
         -1   -1    0    0    0  501 -0.00000000000E+00 -0.00000000000E+00 -0.65450614687E+02  0.65450614687E+02  0.00000000000E+00 0.  1.
          5    1    1    2  502    0  0.32601179533E+02  0.54510144439E+01  0.45964449817E+02  0.56809956102E+02  0.47000000000E+01 0. -1.
         -5    1    1    2    0  502 -0.39196232928E+02 -0.16097775655E+03  0.17803937017E+03  0.24324944010E+03  0.47000000000E+01 0. -1.
        -11    1    1    2    0    0  0.31636304711E+02  0.10562338909E+03  0.11136996440E+03  0.15671766036E+03  0.00000000000E+00 0.  1.
         11    1    1    2    0    0 -0.25041251316E+02  0.49903353017E+02  0.15936046341E+03  0.16885842060E+03  0.00000000000E+00 0. -1.
<mgrwt>
<rscale>  0 0.38295923E+03</rscale>
<asrwt>0</asrwt>
<pdfrwt beam="1">  1        1 0.86182283E-01 0.38295923E+03</pdfrwt>
<pdfrwt beam="2">  1       -1 0.10069326E-01 0.38295923E+03</pdfrwt>
<totfact> 0.23420371E+03</totfact>
</mgrwt>
</event>
<event>
 6    1  0.4705246E-006  0.2089545E+03  0.7546771E-02  0.1147578E+00
         -1   -1    0    0    0  501 -0.00000000000E+00  0.00000000000E+00  0.28244408821E+03  0.28244408821E+03  0.00000000000E+00 0.  1.
          1   -1    0    0  501    0  0.00000000000E+00 -0.00000000000E+00 -0.20672944653E+03  0.20672944653E+03  0.00000000000E+00 0. -1.
          5    1    1    2  502    0  0.21028876381E+02 -0.46526492980E+02  0.16296115513E+02  0.53801315705E+02  0.47000000000E+01 0.  1.
         -5    1    1    2    0  502 -0.71290864811E+02 -0.11319778119E+03 -0.11865333097E+03  0.17887657203E+03  0.47000000000E+01 0.  1.
        -11    1    1    2    0    0  0.32130144222E+01  0.12013999900E+03  0.95280590182E+02  0.15336992432E+03  0.00000000000E+00 0.  1.
         11    1    1    2    0    0  0.47048974009E+02  0.39584275168E+02  0.82791266950E+02  0.10312572268E+03  0.00000000000E+00 0. -1.
<mgrwt>
<rscale>  0 0.20258253E+03</rscale>
<asrwt>0</asrwt>
<pdfrwt beam="2">  1        1 0.31804530E-01 0.20895454E+03</pdfrwt>
<pdfrwt beam="1">  1       -1 0.43452937E-01 0.20895454E+03</pdfrwt>
<totfact> 0.74848947E+02</totfact>
</mgrwt>
</event>
<event>
 6    1  0.4705246E-006  0.4667898E+03  0.7546771E-02  0.1022830E+00
          2   -1    0    0  501    0  0.00000000000E+00  0.00000000000E+00  0.16718914453E+03  0.16718914453E+03  0.00000000000E+00 0. -1.
         -2   -1    0    0    0  501 -0.00000000000E+00 -0.00000000000E+00 -0.32581768724E+03  0.32581768724E+03  0.00000000000E+00 0.  1.
          5    1    1    2  502    0 -0.13246131252E+03  0.70083237690E+02  0.79062044896E+02  0.16950090402E+03  0.47000000000E+01 0. -1.
         -5    1    1    2    0  502  0.83502674730E+01 -0.24326479342E+02  0.10509048952E+02  0.28178620866E+02  0.47000000000E+01 0.  1.
        -11    1    1    2    0    0  0.97258023107E+02 -0.11878247404E+02 -0.22686516961E+03  0.24711944683E+03  0.00000000000E+00 0.  1.
         11    1    1    2    0    0  0.26853021940E+02 -0.33878510944E+02 -0.21334466941E+02  0.48207860052E+02  0.00000000000E+00 0. -1.
<mgrwt>
<rscale>  0 0.46678980E+03</rscale>
<asrwt>0</asrwt>
<pdfrwt beam="1">  1        2 0.25721407E-01 0.46678980E+03</pdfrwt>
<pdfrwt beam="2">  1       -2 0.50125798E-01 0.46678980E+03</pdfrwt>
<totfact> 0.80152565E+02</totfact>
</mgrwt>
</event>
<event>
 6    1  0.4705246E-006  0.1858436E+03  0.7546771E-02  0.1167362E+00
          1   -1    0    0  501    0  0.00000000000E+00  0.00000000000E+00  0.79638792297E+02  0.79638792297E+02  0.00000000000E+00 0. -1.
         -1   -1    0    0    0  501 -0.00000000000E+00 -0.00000000000E+00 -0.40394635264E+03  0.40394635264E+03  0.00000000000E+00 0.  1.
          5    1    1    2  502    0  0.76921378671E+02  0.62322195912E+02 -0.20299607491E+02  0.10116876328E+03  0.47000000000E+01 0.  1.
         -5    1    1    2    0  502  0.57322239811E+02 -0.32375291342E+02 -0.10136210864E+03  0.12095604877E+03  0.47000000000E+01 0.  1.
        -11    1    1    2    0    0 -0.27827440158E+02  0.28924456305E+02 -0.29238123614E+02  0.49657411035E+02  0.00000000000E+00 0. -1.
         11    1    1    2    0    0 -0.10641617832E+03 -0.58871360874E+02 -0.17340772060E+03  0.21180292185E+03  0.00000000000E+00 0.  1.
<mgrwt>
<rscale>  0 0.18045690E+03</rscale>
<asrwt>0</asrwt>
<pdfrwt beam="1">  1        1 0.12252122E-01 0.18584364E+03</pdfrwt>
<pdfrwt beam="2">  1       -1 0.62145593E-01 0.18584364E+03</pdfrwt>
<totfact> 0.13112833E+03</totfact>
</mgrwt>
</event>
<event>
 6    1  0.4705246E-006  0.1302905E+03  0.7546771E-02  0.1240793E+00
         -2   -1    0    0    0  501 -0.00000000000E+00  0.00000000000E+00  0.65236647681E+02  0.65236647681E+02  0.00000000000E+00 0.  1.
          2   -1    0    0  501    0  0.00000000000E+00 -0.00000000000E+00 -0.20081170885E+03  0.20081170885E+03  0.00000000000E+00 0. -1.
          5    1    1    2  502    0  0.45106697775E+02 -0.50222503561E+02 -0.22175498183E+02  0.71209246365E+02  0.47000000000E+01 0. -1.
         -5    1    1    2    0  502 -0.87293282776E+01  0.55420960663E+02 -0.62802829673E+02  0.84344350539E+02  0.47000000000E+01 0. -1.
        -11    1    1    2    0    0 -0.62289735025E+02  0.55749547108E-01 -0.11570057820E+02  0.63355192648E+02  0.00000000000E+00 0.  1.
         11    1    1    2    0    0  0.25912365528E+02 -0.52542066482E+01 -0.39026675491E+02  0.47139566975E+02  0.00000000000E+00 0. -1.
<mgrwt>
<rscale>  0 0.12140739E+03</rscale>
<asrwt>0</asrwt>
<pdfrwt beam="2">  1        2 0.30894109E-01 0.13029047E+03</pdfrwt>
<pdfrwt beam="1">  1       -2 0.10036407E-01 0.13029047E+03</pdfrwt>
<totfact> 0.10516261E+04</totfact>
</mgrwt>
</event>
<event>
 6    1  0.4705246E-006  0.3025047E+03  0.7546771E-02  0.1083995E+00
         -2   -1    0    0    0  501 -0.00000000000E+00  0.00000000000E+00  0.14029894648E+02  0.14029894648E+02  0.00000000000E+00 0.  1.
          2   -1    0    0  501    0  0.00000000000E+00 -0.00000000000E+00 -0.16306086679E+04  0.16306086679E+04  0.00000000000E+00 0. -1.
          5    1    1    2  502    0 -0.28333188970E+02 -0.20369233796E+02 -0.27626339340E+03  0.27849816484E+03  0.47000000000E+01 0. -1.
         -5    1    1    2    0  502  0.67194904701E+02  0.91788258160E+02 -0.95285813430E+03  0.95963584430E+03  0.47000000000E+01 0. -1.
        -11    1    1    2    0    0 -0.63441174289E+02 -0.35247895755E+02 -0.17252874150E+03  0.18717201552E+03  0.00000000000E+00 0.  1.
         11    1    1    2    0    0  0.24579458557E+02 -0.36171128610E+02 -0.21492850408E+03  0.21933253792E+03  0.00000000000E+00 0. -1.
<mgrwt>
<rscale>  0 0.30250466E+03</rscale>
<asrwt>0</asrwt>
<pdfrwt beam="2">  1        2 0.25086274E+00 0.30250466E+03</pdfrwt>
<pdfrwt beam="1">  1       -2 0.21584465E-02 0.30250466E+03</pdfrwt>
<totfact> 0.80426072E+03</totfact>
</mgrwt>
</event>
<event>
 6    1  0.4705246E-006  0.2620413E+03  0.7546771E-02  0.1108005E+00
          1   -1    0    0  501    0  0.00000000000E+00  0.00000000000E+00  0.35059246556E+03  0.35059246556E+03  0.00000000000E+00 0. -1.
         -1   -1    0    0    0  501 -0.00000000000E+00 -0.00000000000E+00 -0.22062154386E+03  0.22062154386E+03  0.00000000000E+00 0.  1.
          5    1    1    2  502    0 -0.31340115299E+02 -0.22793783181E+02  0.77423280374E+02  0.86707633589E+02  0.47000000000E+01 0. -1.
         -5    1    1    2    0  502  0.12503950353E+02 -0.20674817209E+03  0.10242704686E+03  0.23111587000E+03  0.47000000000E+01 0. -1.
        -11    1    1    2    0    0  0.56662967944E+02  0.12732812985E+03 -0.24856918057E+02  0.14156627763E+03  0.00000000000E+00 0. -1.
         11    1    1    2    0    0 -0.37826802998E+02  0.10221382542E+03 -0.25022487472E+02  0.11182422820E+03  0.00000000000E+00 0.  1.
<mgrwt>
<rscale>  0 0.25857080E+03</rscale>
<asrwt>0</asrwt>
<pdfrwt beam="1">  1        1 0.53937303E-01 0.26204129E+03</pdfrwt>
<pdfrwt beam="2">  1       -1 0.33941776E-01 0.26204129E+03</pdfrwt>
<totfact> 0.59520511E+02</totfact>
</mgrwt>
</event>
<event>
 6    1  0.4705246E-006  0.3146215E+03  0.7546771E-02  0.1078152E+00
          4   -1    0    0  501    0  0.00000000000E+00  0.00000000000E+00  0.21507489052E+03  0.21507489052E+03  0.00000000000E+00 0.  1.
         -4   -1    0    0    0  501 -0.00000000000E+00 -0.00000000000E+00 -0.11506073378E+03  0.11506073378E+03  0.00000000000E+00 0. -1.
          5    1    1    2  502    0  0.12317984679E+03 -0.10602218431E+02  0.76173680252E+02  0.14529350039E+03  0.47000000000E+01 0. -1.
         -5    1    1    2    0  502 -0.18561810895E+02 -0.30303949607E+02 -0.68610278347E+01  0.36497039448E+02  0.47000000000E+01 0. -1.
        -11    1    1    2    0    0 -0.50213934320E+02  0.54402119399E+02  0.49689543459E+02  0.89163224057E+02  0.00000000000E+00 0.  1.
         11    1    1    2    0    0 -0.54404101575E+02 -0.13495951362E+02 -0.18988039136E+02  0.59181860410E+02  0.00000000000E+00 0. -1.
<mgrwt>
<rscale>  0 0.31462152E+03</rscale>
<asrwt>0</asrwt>
<pdfrwt beam="1">  1        4 0.33088445E-01 0.31462152E+03</pdfrwt>
<pdfrwt beam="2">  1       -4 0.17701651E-01 0.31462152E+03</pdfrwt>
<totfact> 0.47176036E+02</totfact>
</mgrwt>
</event>
<event>
 6    1  0.4705246E-006  0.1302479E+03  0.7546771E-02  0.1240448E+00
         -3   -1    0    0    0  501 -0.00000000000E+00  0.00000000000E+00  0.81141576016E+02  0.81141576016E+02  0.00000000000E+00 0.  1.
          3   -1    0    0  501    0  0.00000000000E+00 -0.00000000000E+00 -0.16574554429E+03  0.16574554429E+03  0.00000000000E+00 0. -1.
          5    1    1    2  502    0  0.18077273661E+02 -0.41522106369E+02 -0.40478761033E+02  0.60922025862E+02  0.47000000000E+01 0.  1.
         -5    1    1    2    0  502 -0.22789811824E+02  0.77843917172E+02 -0.25971359621E+02  0.85297435391E+02  0.47000000000E+01 0.  1.
        -11    1    1    2    0    0  0.47670133390E+01 -0.14714396284E+02  0.37716358754E+02  0.40764710128E+02  0.00000000000E+00 0.  1.
         11    1    1    2    0    0 -0.54475175947E-01 -0.21607414519E+02 -0.55870206374E+02  0.59902948926E+02  0.00000000000E+00 0. -1.
<mgrwt>
<rscale>  0 0.12162020E+03</rscale>
<asrwt>0</asrwt>
<pdfrwt beam="2">  1        3 0.25499314E-01 0.13024789E+03</pdfrwt>
<pdfrwt beam="1">  1       -3 0.12483320E-01 0.13024789E+03</pdfrwt>
<totfact> 0.16789178E+03</totfact>
</mgrwt>
</event>
<event>
 6    1  0.4705246E-006  0.1369799E+03  0.7546771E-02  0.1228363E+00
          2   -1    0    0  501    0  0.00000000000E+00  0.00000000000E+00  0.35969952598E+03  0.35969952598E+03  0.00000000000E+00 0. -1.
         -2   -1    0    0    0  501 -0.00000000000E+00 -0.00000000000E+00 -0.49515196094E+02  0.49515196094E+02  0.00000000000E+00 0.  1.
          5    1    1    2  502    0 -0.36581374908E+02 -0.27577156211E+02  0.54542087285E+02  0.71383652332E+02  0.47000000000E+01 0.  1.
         -5    1    1    2    0  502  0.86306444658E+02  0.17399744699E+01  0.19440393158E+03  0.21275997865E+03  0.47000000000E+01 0.  1.
        -11    1    1    2    0    0 -0.61053673662E+02  0.33202870135E+02  0.77388057643E+02  0.10401390829E+03  0.00000000000E+00 0. -1.
         11    1    1    2    0    0  0.11328603911E+02 -0.73656883944E+01 -0.16149746614E+02  0.21057182808E+02  0.00000000000E+00 0.  1.
<mgrwt>
<rscale>  0 0.12939049E+03</rscale>
<asrwt>0</asrwt>
<pdfrwt beam="1">  1        2 0.55338387E-01 0.13697986E+03</pdfrwt>
<pdfrwt beam="2">  1       -2 0.76177227E-02 0.13697986E+03</pdfrwt>
<totfact> 0.87105716E+03</totfact>
</mgrwt>
</event>
<event>
 6    1  0.4705246E-006  0.3002882E+03  0.7546771E-02  0.1085097E+00
          2   -1    0    0  501    0  0.00000000000E+00  0.00000000000E+00  0.12497959381E+04  0.12497959381E+04  0.00000000000E+00 0. -1.
         -2   -1    0    0    0  501 -0.00000000000E+00 -0.00000000000E+00 -0.18037542319E+02  0.18037542319E+02  0.00000000000E+00 0.  1.
          5    1    1    2  502    0  0.28873352878E+02  0.87684191891E+02  0.28631596256E+03  0.30086726049E+03  0.47000000000E+01 0.  1.
         -5    1    1    2    0  502  0.13336397074E+02 -0.33701919884E+01  0.53735514423E+03  0.53755172654E+03  0.47000000000E+01 0.  1.
        -11    1    1    2    0    0 -0.67147757982E+02 -0.49365057312E+02  0.32936434036E+03  0.33974490282E+03  0.00000000000E+00 0.  1.
         11    1    1    2    0    0  0.24938008030E+02 -0.34948942591E+02  0.78722948591E+02  0.89669590540E+02  0.00000000000E+00 0. -1.
<mgrwt>
<rscale>  0 0.30028818E+03</rscale>
<asrwt>0</asrwt>
<pdfrwt beam="1">  1        2 0.19227623E+00 0.30028818E+03</pdfrwt>
<pdfrwt beam="2">  1       -2 0.27750075E-02 0.30028818E+03</pdfrwt>
<totfact> 0.89212582E+03</totfact>
</mgrwt>
</event>
<event>
 6    1  0.4705246E-006  0.1574122E+03  0.7546771E-02  0.1198991E+00
         -1   -1    0    0    0  501 -0.00000000000E+00  0.00000000000E+00  0.11154140405E+03  0.11154140405E+03  0.00000000000E+00 0.  1.
          1   -1    0    0  501    0  0.00000000000E+00 -0.00000000000E+00 -0.28018670936E+03  0.28018670936E+03  0.00000000000E+00 0. -1.
          5    1    1    2  502    0  0.29560463953E+02  0.38490675142E+02 -0.10846839249E+03  0.11892365312E+03  0.47000000000E+01 0.  1.
         -5    1    1    2    0  502  0.54923812315E+02 -0.83398768666E+02 -0.91090532100E+02  0.13524627467E+03  0.47000000000E+01 0.  1.
        -11    1    1    2    0    0 -0.39678302753E+02 -0.87363092203E+01 -0.25300575205E+02  0.47862406060E+02  0.00000000000E+00 0. -1.
         11    1    1    2    0    0 -0.44805973516E+02  0.53644402745E+02  0.56214194493E+02  0.89695779561E+02  0.00000000000E+00 0.  1.
<mgrwt>
<rscale>  0 0.15121224E+03</rscale>
<asrwt>0</asrwt>
<pdfrwt beam="2">  1        1 0.43105647E-01 0.15741216E+03</pdfrwt>
<pdfrwt beam="1">  1       -1 0.17160216E-01 0.15741216E+03</pdfrwt>
<totfact> 0.24217658E+03</totfact>
</mgrwt>
</event>
<event>
 6    1  0.4705246E-006  0.1387876E+03  0.7546771E-02  0.1226582E+00
          1   -1    0    0  501    0  0.00000000000E+00  0.00000000000E+00  0.54801641061E+03  0.54801641061E+03  0.00000000000E+00 0. -1.
         -1   -1    0    0    0  501 -0.00000000000E+00 -0.00000000000E+00 -0.67459376887E+02  0.67459376887E+02  0.00000000000E+00 0.  1.
          5    1    1    2  502    0  0.11452045233E+02 -0.84449646959E+02  0.23648676657E+03  0.25141792492E+03  0.47000000000E+01 0.  1.
         -5    1    1    2    0  502 -0.36725664062E+02  0.29698930708E+02  0.25061475945E+03  0.25506988952E+03  0.47000000000E+01 0.  1.
        -11    1    1    2    0    0 -0.69768256217E+01  0.64244853316E+02  0.18324660232E+02  0.67170458135E+02  0.00000000000E+00 0. -1.
         11    1    1    2    0    0  0.32250444451E+02 -0.94941370656E+01 -0.24869152531E+02  0.41817514913E+02  0.00000000000E+00 0.  1.
<mgrwt>
<rscale>  0 0.13059052E+03</rscale>
<asrwt>0</asrwt>
<pdfrwt beam="1">  1        1 0.84310214E-01 0.13878764E+03</pdfrwt>
<pdfrwt beam="2">  1       -1 0.10378366E-01 0.13878764E+03</pdfrwt>
<totfact> 0.22515876E+03</totfact>
</mgrwt>
</event>
<event>
 6    1  0.4705246E-006  0.7015574E+03  0.7546771E-02  0.9714573E-01
          1   -1    0    0  501    0  0.00000000000E+00  0.00000000000E+00  0.84611042997E+03  0.84611042997E+03  0.00000000000E+00 0. -1.
         -1   -1    0    0    0  501 -0.00000000000E+00 -0.00000000000E+00 -0.14542510767E+03  0.14542510767E+03  0.00000000000E+00 0.  1.
          5    1    1    2  502    0  0.17656511667E+02  0.17936060730E+02  0.56988570348E+01  0.26230166798E+02  0.47000000000E+01 0. -1.
         -5    1    1    2    0  502  0.14832460012E+03  0.81280685916E+02  0.54543766365E+03  0.57107886656E+03  0.47000000000E+01 0. -1.
        -11    1    1    2    0    0 -0.22611683092E+03  0.13537606880E+02  0.13952915400E+03  0.26604599760E+03  0.00000000000E+00 0. -1.
         11    1    1    2    0    0  0.60135719136E+02 -0.11275435353E+03  0.10019647622E+02  0.12818050668E+03  0.00000000000E+00 0.  1.
<mgrwt>
<rscale>  0 0.70155741E+03</rscale>
<asrwt>0</asrwt>
<pdfrwt beam="1">  1        1 0.13017083E+00 0.70155741E+03</pdfrwt>
<pdfrwt beam="2">  1       -1 0.22373094E-01 0.70155741E+03</pdfrwt>
<totfact> 0.34549726E+02</totfact>
</mgrwt>
</event>
<event>
 6    1  0.4705246E-006  0.1752085E+03  0.7546771E-02  0.1178418E+00
          1   -1    0    0  501    0  0.00000000000E+00  0.00000000000E+00  0.12563152105E+04  0.12563152105E+04  0.00000000000E+00 0. -1.
         -1   -1    0    0    0  501 -0.00000000000E+00 -0.00000000000E+00 -0.23851935920E+02  0.23851935920E+02  0.00000000000E+00 0.  1.
          5    1    1    2  502    0 -0.57298449567E+02  0.34747703503E+02  0.72329917730E+03  0.72641193899E+03  0.47000000000E+01 0. -1.
         -5    1    1    2    0  502 -0.63492072088E+02 -0.42841598718E+01  0.13156641144E+03  0.14622382796E+03  0.47000000000E+01 0.  1.
        -11    1    1    2    0    0  0.46344761441E+02  0.21260099709E+01  0.26289812231E+03  0.26696025837E+03  0.00000000000E+00 0. -1.
         11    1    1    2    0    0  0.74445760214E+02 -0.32589553602E+02  0.11469956357E+03  0.14057112115E+03  0.00000000000E+00 0.  1.
<mgrwt>
<rscale>  0 0.16945484E+03</rscale>
<asrwt>0</asrwt>
<pdfrwt beam="1">  1        1 0.19327921E+00 0.17520847E+03</pdfrwt>
<pdfrwt beam="2">  1       -1 0.36695296E-02 0.17520847E+03</pdfrwt>
<totfact> 0.29082180E+03</totfact>
</mgrwt>
</event>
<event>
 6    1  0.4705246E-006  0.1464889E+03  0.7546771E-02  0.1220764E+00
          1   -1    0    0  501    0  0.00000000000E+00  0.00000000000E+00  0.35619153205E+03  0.35619153205E+03  0.00000000000E+00 0. -1.
         -1   -1    0    0    0  501 -0.00000000000E+00 -0.00000000000E+00 -0.63955003875E+02  0.63955003875E+02  0.00000000000E+00 0.  1.
          5    1    1    2  502    0 -0.54278614412E+02 -0.21428440198E+02  0.22882874867E+03  0.23619913685E+03  0.47000000000E+01 0. -1.
         -5    1    1    2    0  502  0.53433908221E+02 -0.28633143550E+02  0.49814791594E+02  0.78604344148E+02  0.47000000000E+01 0.  1.
        -11    1    1    2    0    0  0.11883402935E+02 -0.15318971896E+02  0.31205527024E+02  0.36737869864E+02  0.00000000000E+00 0.  1.
         11    1    1    2    0    0 -0.11038696744E+02  0.65380555644E+02 -0.17612539120E+02  0.68605185054E+02  0.00000000000E+00 0. -1.
<mgrwt>
<rscale>  0 0.13461505E+03</rscale>
<asrwt>0</asrwt>
<pdfrwt beam="1">  1        1 0.54798696E-01 0.14648894E+03</pdfrwt>
<pdfrwt beam="2">  1       -1 0.98392316E-02 0.14648894E+03</pdfrwt>
<totfact> 0.42553370E+03</totfact>
</mgrwt>
</event>
<event>
 6    1  0.4705246E-006  0.1453584E+03  0.7546771E-02  0.1217005E+00
         -1   -1    0    0    0  501 -0.00000000000E+00  0.00000000000E+00  0.28153502589E+03  0.28153502589E+03  0.00000000000E+00 0.  1.
          1   -1    0    0  501    0  0.00000000000E+00 -0.00000000000E+00 -0.80593213880E+02  0.80593213880E+02  0.00000000000E+00 0. -1.
          5    1    1    2  502    0  0.30778124629E+02  0.48064423122E+02  0.50461235091E+02  0.76327635707E+02  0.47000000000E+01 0. -1.
         -5    1    1    2    0  502 -0.59324369560E+02  0.20404487217E+02 -0.31336283292E+02  0.70283544111E+02  0.47000000000E+01 0. -1.
        -11    1    1    2    0    0  0.56260726976E+02 -0.60095908558E+02  0.10498570782E+03  0.13341209267E+03  0.00000000000E+00 0.  1.
         11    1    1    2    0    0 -0.27714482045E+02 -0.83730017808E+01  0.76831152393E+02  0.82104967279E+02  0.00000000000E+00 0. -1.
<mgrwt>
<rscale>  0 0.13730258E+03</rscale>
<asrwt>0</asrwt>
<pdfrwt beam="2">  1        1 0.12398956E-01 0.14535843E+03</pdfrwt>
<pdfrwt beam="1">  1       -1 0.43313080E-01 0.14535843E+03</pdfrwt>
<totfact> 0.24955489E+03</totfact>
</mgrwt>
</event>
<event>
 6    1  0.4705246E-006  0.1393614E+03  0.7546771E-02  0.1225548E+00
          2   -1    0    0  501    0  0.00000000000E+00  0.00000000000E+00  0.27065050798E+03  0.27065050798E+03  0.00000000000E+00 0. -1.
         -2   -1    0    0    0  501 -0.00000000000E+00 -0.00000000000E+00 -0.62123563387E+02  0.62123563387E+02  0.00000000000E+00 0.  1.
          5    1    1    2  502    0  0.25885364825E+00  0.32125670162E+02  0.80860653770E+01  0.33460426505E+02  0.47000000000E+01 0. -1.
         -5    1    1    2    0  502 -0.34635613505E+00 -0.93744224929E+02  0.15347542525E+03  0.17990246198E+03  0.47000000000E+01 0. -1.
        -11    1    1    2    0    0  0.11303934257E+02 -0.22335356205E+02  0.91458925122E+01  0.26651349240E+02  0.00000000000E+00 0.  1.
         11    1    1    2    0    0 -0.11216431770E+02  0.83953910972E+02  0.37819561452E+02  0.92759833643E+02  0.00000000000E+00 0. -1.
<mgrwt>
<rscale>  0 0.13129406E+03</rscale>
<asrwt>0</asrwt>
<pdfrwt beam="1">  1        2 0.41638539E-01 0.13936143E+03</pdfrwt>
<pdfrwt beam="2">  1       -2 0.95574714E-02 0.13936143E+03</pdfrwt>
<totfact> 0.82925983E+03</totfact>
</mgrwt>
</event>
<event>
 6    1  0.4705246E-006  0.1321635E+03  0.7546771E-02  0.1237551E+00
          1   -1    0    0  501    0  0.00000000000E+00  0.00000000000E+00  0.46195921064E+03  0.46195921064E+03  0.00000000000E+00 0. -1.
         -1   -1    0    0    0  501 -0.00000000000E+00 -0.00000000000E+00 -0.31103075521E+02  0.31103075521E+02  0.00000000000E+00 0.  1.
          5    1    1    2  502    0  0.43257861963E+02  0.13007792225E+01  0.39751536152E+02  0.58950905630E+02  0.47000000000E+01 0. -1.
         -5    1    1    2    0  502 -0.53437188712E+02  0.40404626850E+02  0.26208283564E+03  0.27055049389E+03  0.47000000000E+01 0. -1.
        -11    1    1    2    0    0  0.16293540232E+02  0.21985950896E+02  0.11365007855E+02  0.29631484836E+02  0.00000000000E+00 0.  1.
         11    1    1    2    0    0 -0.61142134824E+01 -0.63691356968E+02  0.11765675548E+03  0.13392940181E+03  0.00000000000E+00 0. -1.
<mgrwt>
<rscale>  0 0.12342512E+03</rscale>
<asrwt>0</asrwt>
<pdfrwt beam="1">  1        1 0.71070643E-01 0.13216348E+03</pdfrwt>
<pdfrwt beam="2">  1       -1 0.47850889E-02 0.13216348E+03</pdfrwt>
<totfact> 0.89742386E+03</totfact>
</mgrwt>
</event>
<event>
 6    1  0.4705246E-006  0.1607418E+03  0.7546771E-02  0.1195381E+00
          3   -1    0    0  501    0  0.00000000000E+00  0.00000000000E+00  0.16532120309E+03  0.16532120309E+03  0.00000000000E+00 0. -1.
         -3   -1    0    0    0  501 -0.00000000000E+00 -0.00000000000E+00 -0.21612068873E+03  0.21612068873E+03  0.00000000000E+00 0.  1.
          5    1    1    2  502    0 -0.67242268142E+02 -0.10843003917E+01 -0.18559566420E+02  0.69923142363E+02  0.47000000000E+01 0. -1.
         -5    1    1    2    0  502 -0.33763685416E+02 -0.11956459793E+01  0.10965310900E+03  0.11483601498E+03  0.47000000000E+01 0. -1.
        -11    1    1    2    0    0  0.71612162962E+02 -0.11359161209E+02 -0.27104126412E+02  0.77407790926E+02  0.00000000000E+00 0. -1.
         11    1    1    2    0    0  0.29393790596E+02  0.13639107580E+02 -0.11478890180E+03  0.11927494355E+03  0.00000000000E+00 0.  1.
<mgrwt>
<rscale>  0 0.15422007E+03</rscale>
<asrwt>0</asrwt>
<pdfrwt beam="1">  1        3 0.25434031E-01 0.16074176E+03</pdfrwt>
<pdfrwt beam="2">  1       -3 0.33249337E-01 0.16074176E+03</pdfrwt>
<totfact> 0.30671033E+02</totfact>
</mgrwt>
</event>
<event>
 6    1  0.4705246E-006  0.2061702E+03  0.7546771E-02  0.1149304E+00
         -4   -1    0    0    0  501 -0.00000000000E+00  0.00000000000E+00  0.46480549398E+03  0.46480549398E+03  0.00000000000E+00 0.  1.
          4   -1    0    0  501    0  0.00000000000E+00 -0.00000000000E+00 -0.86032438377E+02  0.86032438377E+02  0.00000000000E+00 0. -1.
          5    1    1    2  502    0  0.29759930113E+02  0.57300153213E+02  0.38223490709E+01  0.64851070546E+02  0.47000000000E+01 0.  1.
         -5    1    1    2    0  502  0.12406615958E+03 -0.56252879704E+00  0.13662850668E+03  0.18461356187E+03  0.47000000000E+01 0.  1.
        -11    1    1    2    0    0 -0.29982215977E+02 -0.29477479314E+02  0.12292873537E+03  0.12992047198E+03  0.00000000000E+00 0.  1.
         11    1    1    2    0    0 -0.12384387371E+03 -0.27260145102E+02  0.11539346449E+03  0.17145282796E+03  0.00000000000E+00 0. -1.
<mgrwt>
<rscale>  0 0.20051628E+03</rscale>
<asrwt>0</asrwt>
<pdfrwt beam="2">  1        4 0.13235760E-01 0.20617022E+03</pdfrwt>
<pdfrwt beam="1">  1       -4 0.71508536E-01 0.20617022E+03</pdfrwt>
<totfact> 0.15241500E+02</totfact>
</mgrwt>
</event>
<event>
 6    1  0.4705246E-006  0.1386328E+03  0.7546771E-02  0.1226264E+00
          2   -1    0    0  501    0  0.00000000000E+00  0.00000000000E+00  0.76579927148E+03  0.76579927148E+03  0.00000000000E+00 0. -1.
         -2   -1    0    0    0  501 -0.00000000000E+00 -0.00000000000E+00 -0.22520654697E+02  0.22520654697E+02  0.00000000000E+00 0.  1.
          5    1    1    2  502    0  0.20206907780E+02 -0.58422939194E+01  0.10886163822E+02  0.24146430026E+02  0.47000000000E+01 0. -1.
         -5    1    1    2    0  502 -0.16167666072E+02  0.65648870154E+02  0.52605580210E+03  0.53040358644E+03  0.47000000000E+01 0. -1.
        -11    1    1    2    0    0 -0.12199362644E+02 -0.76989850327E+02  0.10560604139E+03  0.13125889486E+03  0.00000000000E+00 0.  1.
         11    1    1    2    0    0  0.81601209355E+01  0.17183274092E+02  0.10073060947E+03  0.10251101486E+03  0.00000000000E+00 0. -1.
<mgrwt>
<rscale>  0 0.13080635E+03</rscale>
<asrwt>0</asrwt>
<pdfrwt beam="1">  1        2 0.11781525E+00 0.13863277E+03</pdfrwt>
<pdfrwt beam="2">  1       -2 0.34647167E-02 0.13863277E+03</pdfrwt>
<totfact> 0.12252730E+04</totfact>
</mgrwt>
</event>
<event>
 6    1  0.4705246E-006  0.1295308E+03  0.7546771E-02  0.1244393E+00
         -3   -1    0    0    0  501 -0.00000000000E+00  0.00000000000E+00  0.44536485366E+02  0.44536485366E+02  0.00000000000E+00 0.  1.
          3   -1    0    0  501    0  0.00000000000E+00 -0.00000000000E+00 -0.28461908159E+03  0.28461908159E+03  0.00000000000E+00 0. -1.
          5    1    1    2  502    0  0.12519006893E+02 -0.36485082035E+02  0.13234412738E+01  0.38880949596E+02  0.47000000000E+01 0.  1.
         -5    1    1    2    0  502  0.21299094794E+02  0.33230625355E+02 -0.16568651059E+03  0.17038789773E+03  0.47000000000E+01 0.  1.
        -11    1    1    2    0    0 -0.43263669068E+02 -0.26911367054E+02 -0.17923543359E+02  0.54011296452E+02  0.00000000000E+00 0.  1.
         11    1    1    2    0    0  0.94455673805E+01  0.30165823733E+02 -0.57795983548E+02  0.65875423178E+02  0.00000000000E+00 0. -1.
<mgrwt>
<rscale>  0 0.11921753E+03</rscale>
<asrwt>0</asrwt>
<pdfrwt beam="2">  1        3 0.43787550E-01 0.12953081E+03</pdfrwt>
<pdfrwt beam="1">  1       -3 0.68517671E-02 0.12953081E+03</pdfrwt>
<totfact> 0.16291501E+03</totfact>
</mgrwt>
</event>
<event>
 6    1  0.4705246E-006  0.2599263E+03  0.7546771E-02  0.1107188E+00
          1   -1    0    0  501    0  0.00000000000E+00  0.00000000000E+00  0.36658809667E+03  0.36658809667E+03  0.00000000000E+00 0. -1.
         -1   -1    0    0    0  501 -0.00000000000E+00 -0.00000000000E+00 -0.46074646843E+02  0.46074646843E+02  0.00000000000E+00 0.  1.
          5    1    1    2  502    0 -0.18655371511E+02  0.50855644707E-01 -0.49518631624E+01  0.19865457994E+02  0.47000000000E+01 0.  1.
         -5    1    1    2    0  502  0.72864326440E+02  0.18195732644E+02  0.25034441748E+03  0.26140908958E+03  0.47000000000E+01 0.  1.
        -11    1    1    2    0    0 -0.30112028519E+02 -0.32747189509E+02  0.89392680052E+02  0.99850708206E+02  0.00000000000E+00 0. -1.
         11    1    1    2    0    0 -0.24096926409E+02  0.14500601220E+02 -0.14271784543E+02  0.31537487728E+02  0.00000000000E+00 0.  1.
<mgrwt>
<rscale>  0 0.25992627E+03</rscale>
<asrwt>0</asrwt>
<pdfrwt beam="1">  1        1 0.56398167E-01 0.25992627E+03</pdfrwt>
<pdfrwt beam="2">  1       -1 0.70884075E-02 0.25992627E+03</pdfrwt>
<totfact> 0.69638128E+03</totfact>
</mgrwt>
</event>
<event>
 6    1  0.4705246E-006  0.3894803E+03  0.7546771E-02  0.1051157E+00
          2   -1    0    0  501    0  0.00000000000E+00  0.00000000000E+00  0.95837243551E+03  0.95837243551E+03  0.00000000000E+00 0. -1.
         -2   -1    0    0    0  501 -0.00000000000E+00 -0.00000000000E+00 -0.26307648189E+03  0.26307648189E+03  0.00000000000E+00 0.  1.
          5    1    1    2  502    0  0.18393333626E+02 -0.28232038028E+02  0.12317084968E+03  0.12778306188E+03  0.47000000000E+01 0. -1.
         -5    1    1    2    0  502  0.19935293871E+03  0.28678198104E+03  0.64682526615E+03  0.73511258577E+03  0.47000000000E+01 0.  1.
        -11    1    1    2    0    0 -0.10059841364E+03 -0.66309474682E+02 -0.55377311481E+02  0.13260329516E+03  0.00000000000E+00 0.  1.
         11    1    1    2    0    0 -0.11714785869E+03 -0.19224046833E+03 -0.19322850731E+02  0.22594997460E+03  0.00000000000E+00 0. -1.
<mgrwt>
<rscale>  0 0.37939670E+03</rscale>
<asrwt>0</asrwt>
<pdfrwt beam="1">  1        2 0.14744191E+00 0.38948027E+03</pdfrwt>
<pdfrwt beam="2">  1       -2 0.40473305E-01 0.38948027E+03</pdfrwt>
<totfact> 0.16148824E+02</totfact>
</mgrwt>
</event>
<event>
 6    1  0.4705246E-006  0.1825778E+03  0.7546771E-02  0.1170756E+00
          2   -1    0    0  501    0  0.00000000000E+00  0.00000000000E+00  0.10557241212E+04  0.10557241212E+04  0.00000000000E+00 0. -1.
         -2   -1    0    0    0  501 -0.00000000000E+00 -0.00000000000E+00 -0.28602892613E+02  0.28602892613E+02  0.00000000000E+00 0.  1.
          5    1    1    2  502    0 -0.40407894219E+02  0.37635970774E+02  0.50092267457E+03  0.50397904729E+03  0.47000000000E+01 0. -1.
         -5    1    1    2    0  502 -0.43282690308E+02  0.65824586824E+02  0.12327836529E+03  0.14637592992E+03  0.47000000000E+01 0. -1.
        -11    1    1    2    0    0  0.57033514148E+01 -0.72949877739E+02  0.13898655155E+03  0.15707155819E+03  0.00000000000E+00 0.  1.
         11    1    1    2    0    0  0.77987233112E+02 -0.30510679860E+02  0.26393363720E+03  0.27690047844E+03  0.00000000000E+00 0. -1.
<mgrwt>
<rscale>  0 0.17698262E+03</rscale>
<asrwt>0</asrwt>
<pdfrwt beam="1">  1        2 0.16241907E+00 0.18257781E+03</pdfrwt>
<pdfrwt beam="2">  1       -2 0.44004458E-02 0.18257781E+03</pdfrwt>
<totfact> 0.56937031E+03</totfact>
</mgrwt>
</event>
<event>
 6    1  0.4705246E-006  0.1289424E+03  0.7546771E-02  0.1236927E+00
         -1   -1    0    0    0  501 -0.00000000000E+00  0.00000000000E+00  0.33866301242E+03  0.33866301242E+03  0.00000000000E+00 0.  1.
          1   -1    0    0  501    0  0.00000000000E+00 -0.00000000000E+00 -0.46978675711E+02  0.46978675711E+02  0.00000000000E+00 0. -1.
          5    1    1    2  502    0 -0.16909913256E+02  0.52982015136E+02  0.10265574612E+02  0.56749547279E+02  0.47000000000E+01 0. -1.
         -5    1    1    2    0  502  0.45167967754E+02 -0.38748921205E+02  0.83660755068E+02  0.10277565930E+03  0.47000000000E+01 0. -1.
        -11    1    1    2    0    0  0.32993357750E+01 -0.52500740726E+02  0.14230586733E+03  0.15171741254E+03  0.00000000000E+00 0.  1.
         11    1    1    2    0    0 -0.31557390274E+02  0.38267646795E+02  0.55452139704E+02  0.74399069012E+02  0.00000000000E+00 0. -1.
<mgrwt>
<rscale>  0 0.12381885E+03</rscale>
<asrwt>0</asrwt>
<pdfrwt beam="2">  1        1 0.72274888E-02 0.12894238E+03</pdfrwt>
<pdfrwt beam="1">  1       -1 0.52102000E-01 0.12894238E+03</pdfrwt>
<totfact> 0.36390694E+03</totfact>
</mgrwt>
</event>
<event>
 6    1  0.4705246E-006  0.1305240E+03  0.7546771E-02  0.1241807E+00
         -2   -1    0    0    0  501 -0.00000000000E+00  0.00000000000E+00  0.10254139163E+02  0.10254139163E+02  0.00000000000E+00 0.  1.
          2   -1    0    0  501    0  0.00000000000E+00 -0.00000000000E+00 -0.12581816980E+04  0.12581816980E+04  0.00000000000E+00 0. -1.
          5    1    1    2  502    0  0.30640549299E+02 -0.22822286499E+01 -0.43914398436E+02  0.53801637697E+02  0.47000000000E+01 0.  1.
         -5    1    1    2    0  502 -0.13630062955E+02  0.35778517161E+02 -0.73190790796E+03  0.73292370452E+03  0.47000000000E+01 0.  1.
        -11    1    1    2    0    0 -0.13955086102E+02  0.29223287020E+02 -0.13729639805E+03  0.14106397786E+03  0.00000000000E+00 0.  1.
         11    1    1    2    0    0 -0.30554002421E+01 -0.62719575531E+02 -0.33480885436E+03  0.34064651706E+03  0.00000000000E+00 0. -1.
<mgrwt>
<rscale>  0 0.12078538E+03</rscale>
<asrwt>0</asrwt>
<pdfrwt beam="2">  1        2 0.19356622E+00 0.13052399E+03</pdfrwt>
<pdfrwt beam="1">  1       -2 0.15775614E-02 0.13052399E+03</pdfrwt>
<totfact> 0.19430616E+04</totfact>
</mgrwt>
</event>
<event>
 6    1  0.4705246E-006  0.2262989E+03  0.7546771E-02  0.1131903E+00
         -1   -1    0    0    0  501 -0.00000000000E+00  0.00000000000E+00  0.19263255098E+03  0.19263255098E+03  0.00000000000E+00 0.  1.
          1   -1    0    0  501    0  0.00000000000E+00 -0.00000000000E+00 -0.36683949875E+03  0.36683949875E+03  0.00000000000E+00 0. -1.
          5    1    1    2  502    0  0.50424982140E+01  0.58714887752E+02 -0.27919041678E+02  0.65379107673E+02  0.47000000000E+01 0.  1.
         -5    1    1    2    0  502  0.14865599928E+03  0.50669828339E+02 -0.21925265467E+03  0.26974034590E+03  0.47000000000E+01 0.  1.
        -11    1    1    2    0    0 -0.16256701906E+03 -0.83386507908E+02  0.73352864471E+02  0.19688064433E+03  0.00000000000E+00 0.  1.
         11    1    1    2    0    0  0.88685215604E+01 -0.25998208183E+02 -0.38811588912E+00  0.27471951830E+02  0.00000000000E+00 0. -1.
<mgrwt>
<rscale>  0 0.22267721E+03</rscale>
<asrwt>0</asrwt>
<pdfrwt beam="2">  1        1 0.56436845E-01 0.22629892E+03</pdfrwt>
<pdfrwt beam="1">  1       -1 0.29635778E-01 0.22629892E+03</pdfrwt>
<totfact> 0.70947989E+02</totfact>
</mgrwt>
</event>
<event>
 6    1  0.4705246E-006  0.1260488E+03  0.7546771E-02  0.1246066E+00
         -1   -1    0    0    0  501 -0.00000000000E+00  0.00000000000E+00  0.18637741131E+02  0.18637741131E+02  0.00000000000E+00 0.  1.
          1   -1    0    0  501    0  0.00000000000E+00 -0.00000000000E+00 -0.22634420780E+04  0.22634420780E+04  0.00000000000E+00 0. -1.
          5    1    1    2  502    0 -0.40804695681E+02 -0.44579435546E+02 -0.11991860684E+04  0.12007171465E+04  0.47000000000E+01 0. -1.
         -5    1    1    2    0  502  0.11183649292E+02  0.62711150701E+02 -0.92055513717E+03  0.92276845037E+03  0.47000000000E+01 0.  1.
        -11    1    1    2    0    0  0.10220890264E+02  0.17350985950E+02 -0.11522944192E+03  0.11697584193E+03  0.00000000000E+00 0.  1.
         11    1    1    2    0    0  0.19400156125E+02 -0.35482701106E+02 -0.98336894093E+01  0.41618380349E+02  0.00000000000E+00 0. -1.
<mgrwt>
<rscale>  0 0.11821818E+03</rscale>
<asrwt>0</asrwt>
<pdfrwt beam="2">  1        1 0.34822160E+00 0.12604881E+03</pdfrwt>
<pdfrwt beam="1">  1       -1 0.28673469E-02 0.12604881E+03</pdfrwt>
<totfact> 0.93433329E+02</totfact>
</mgrwt>
</event>
<event>
 6    1  0.4705246E-006  0.1269569E+03  0.7546771E-02  0.1247040E+00
          1   -1    0    0  501    0  0.00000000000E+00  0.00000000000E+00  0.75574330259E+03  0.75574330259E+03  0.00000000000E+00 0. -1.
         -1   -1    0    0    0  501 -0.00000000000E+00 -0.00000000000E+00 -0.16912511126E+02  0.16912511126E+02  0.00000000000E+00 0.  1.
          5    1    1    2  502    0 -0.55482437533E+02  0.43667407361E+02  0.24087499361E+03  0.25105377091E+03  0.47000000000E+01 0.  1.
         -5    1    1    2    0  502  0.49188379131E+02 -0.22445237336E+02  0.26588174125E+03  0.27136410162E+03  0.47000000000E+01 0.  1.
        -11    1    1    2    0    0 -0.16139832944E+02  0.31579071715E+02  0.73587293288E+02  0.81687341194E+02  0.00000000000E+00 0. -1.
         11    1    1    2    0    0  0.22433891346E+02 -0.52801241740E+02  0.15848676332E+03  0.16855059999E+03  0.00000000000E+00 0.  1.
<mgrwt>
<rscale>  0 0.11764114E+03</rscale>
<asrwt>0</asrwt>
<pdfrwt beam="1">  1        1 0.11626817E+00 0.12695686E+03</pdfrwt>
<pdfrwt beam="2">  1       -1 0.26019254E-02 0.12695686E+03</pdfrwt>
<totfact> 0.11157397E+04</totfact>
</mgrwt>
</event>
<event>
 6    1  0.4705246E-006  0.1325099E+03  0.7546771E-02  0.1239456E+00
          1   -1    0    0  501    0  0.00000000000E+00  0.00000000000E+00  0.77311136160E+03  0.77311136160E+03  0.00000000000E+00 0. -1.
         -1   -1    0    0    0  501 -0.00000000000E+00 -0.00000000000E+00 -0.19021301111E+02  0.19021301111E+02  0.00000000000E+00 0.  1.
          5    1    1    2  502    0  0.46269172275E+02 -0.61241760551E+02  0.40347851698E+03  0.41074127283E+03  0.47000000000E+01 0.  1.
         -5    1    1    2    0  502 -0.48228112779E+02  0.17372828024E+02  0.15856092912E+03  0.16670760109E+03  0.47000000000E+01 0.  1.
        -11    1    1    2    0    0 -0.26416074828E+02 -0.99845589317E+01  0.28276896525E+02  0.39963524662E+02  0.00000000000E+00 0.  1.
         11    1    1    2    0    0  0.28375015332E+02  0.53853491459E+02  0.16377371785E+03  0.17472026413E+03  0.00000000000E+00 0. -1.
<mgrwt>
<rscale>  0 0.12223433E+03</rscale>
<asrwt>0</asrwt>
<pdfrwt beam="1">  1        1 0.11894018E+00 0.13250986E+03</pdfrwt>
<pdfrwt beam="2">  1       -1 0.29263546E-02 0.13250986E+03</pdfrwt>
<totfact> 0.91235542E+03</totfact>
</mgrwt>
</event>
<event>
 6    1  0.4705246E-006  0.1361840E+03  0.7546771E-02  0.1230470E+00
          2   -1    0    0  501    0  0.00000000000E+00  0.00000000000E+00  0.54679461139E+03  0.54679461139E+03  0.00000000000E+00 0. -1.
         -2   -1    0    0    0  501 -0.00000000000E+00 -0.00000000000E+00 -0.27383459850E+02  0.27383459850E+02  0.00000000000E+00 0.  1.
          5    1    1    2  502    0 -0.61801542142E+02 -0.52675281436E+02  0.87995602656E+02  0.11983084733E+03  0.47000000000E+01 0.  1.
         -5    1    1    2    0  502  0.15969388077E+02  0.24035121501E+02  0.16422367028E+03  0.16680591207E+03  0.47000000000E+01 0.  1.
        -11    1    1    2    0    0 -0.23579754522E+02 -0.10192521968E+02  0.83696139184E+02  0.87549620455E+02  0.00000000000E+00 0.  1.
         11    1    1    2    0    0  0.69411908587E+02  0.38832681902E+02  0.18349573942E+03  0.19999169138E+03  0.00000000000E+00 0. -1.
<mgrwt>
<rscale>  0 0.12798941E+03</rscale>
<asrwt>0</asrwt>
<pdfrwt beam="1">  1        2 0.84122239E-01 0.13618396E+03</pdfrwt>
<pdfrwt beam="2">  1       -2 0.42128404E-02 0.13618396E+03</pdfrwt>
<totfact> 0.13550778E+04</totfact>
</mgrwt>
</event>
<event>
 6    1  0.4705246E-006  0.1436495E+03  0.7546771E-02  0.1218475E+00
         -1   -1    0    0    0  501 -0.00000000000E+00  0.00000000000E+00  0.31625286367E+02  0.31625286367E+02  0.00000000000E+00 0.  1.
          1   -1    0    0  501    0  0.00000000000E+00 -0.00000000000E+00 -0.73980066072E+03  0.73980066072E+03  0.00000000000E+00 0. -1.
          5    1    1    2  502    0  0.10179137490E+03 -0.14319212492E+02 -0.41069488500E+03  0.42338977599E+03  0.47000000000E+01 0. -1.
         -5    1    1    2    0  502 -0.31802951675E+02  0.24949029941E+02 -0.17300166280E+03  0.17772323191E+03  0.47000000000E+01 0. -1.
        -11    1    1    2    0    0 -0.68490720918E+02 -0.29872288920E+02 -0.13025578712E+03  0.15016624979E+03  0.00000000000E+00 0. -1.
         11    1    1    2    0    0 -0.14977023101E+01  0.19242471470E+02  0.57769605573E+01  0.20146689400E+02  0.00000000000E+00 0.  1.
<mgrwt>
<rscale>  0 0.13624362E+03</rscale>
<asrwt>0</asrwt>
<pdfrwt beam="2">  1        1 0.11381549E+00 0.14364953E+03</pdfrwt>
<pdfrwt beam="1">  1       -1 0.48654286E-02 0.14364953E+03</pdfrwt>
<totfact> 0.46378313E+03</totfact>
</mgrwt>
</event>
<event>
 6    1  0.4705246E-006  0.1389942E+03  0.7546771E-02  0.1226183E+00
         -2   -1    0    0    0  501 -0.00000000000E+00  0.00000000000E+00  0.33635324372E+02  0.33635324372E+02  0.00000000000E+00 0.  1.
          2   -1    0    0  501    0  0.00000000000E+00 -0.00000000000E+00 -0.45860792943E+03  0.45860792943E+03  0.00000000000E+00 0. -1.
          5    1    1    2  502    0 -0.16246184694E+01  0.70233536537E+02 -0.20115969256E+03  0.21312602129E+03  0.47000000000E+01 0. -1.
         -5    1    1    2    0  502  0.40335814159E+02 -0.23363627149E+02 -0.27101925697E+02  0.54124313889E+02  0.47000000000E+01 0. -1.
        -11    1    1    2    0    0 -0.35743770729E+02 -0.65141162661E+02 -0.19202337167E+03  0.20589794435E+03  0.00000000000E+00 0. -1.
         11    1    1    2    0    0 -0.29674249605E+01  0.18271253274E+02 -0.46876151331E+01  0.19094974280E+02  0.00000000000E+00 0.  1.
<mgrwt>
<rscale>  0 0.13086153E+03</rscale>
<asrwt>0</asrwt>
<pdfrwt beam="2">  1        2 0.70555065E-01 0.13899416E+03</pdfrwt>
<pdfrwt beam="1">  1       -2 0.51746654E-02 0.13899416E+03</pdfrwt>
<totfact> 0.12102936E+04</totfact>
</mgrwt>
</event>
<event>
 6    1  0.4705246E-006  0.1358517E+03  0.7546771E-02  0.1226125E+00
          1   -1    0    0  501    0  0.00000000000E+00  0.00000000000E+00  0.41578038115E+03  0.41578038115E+03  0.00000000000E+00 0. -1.
         -1   -1    0    0    0  501 -0.00000000000E+00 -0.00000000000E+00 -0.38475318631E+02  0.38475318631E+02  0.00000000000E+00 0.  1.
          5    1    1    2  502    0 -0.86840387082E+02 -0.41034681283E+02  0.12835022795E+03  0.16037758232E+03  0.47000000000E+01 0. -1.
         -5    1    1    2    0  502  0.33885663847E+02 -0.16909787088E+02  0.75447315445E+02  0.84549195866E+02  0.47000000000E+01 0.  1.
        -11    1    1    2    0    0  0.81192878381E+01 -0.15953393783E+02  0.29807983202E+01  0.18147142112E+02  0.00000000000E+00 0. -1.
         11    1    1    2    0    0  0.44835435397E+02  0.73897862154E+02  0.17052672080E+03  0.19118177948E+03  0.00000000000E+00 0.  1.
<mgrwt>
<rscale>  0 0.13090111E+03</rscale>
<asrwt>0</asrwt>
<pdfrwt beam="1">  1        1 0.63966209E-01 0.13585171E+03</pdfrwt>
<pdfrwt beam="2">  1       -1 0.59192801E-02 0.13585171E+03</pdfrwt>
<totfact> 0.75020005E+03</totfact>
</mgrwt>
</event>
<event>
 6    1  0.4705246E-006  0.1608398E+03  0.7546771E-02  0.1201981E+00
         -2   -1    0    0    0  501 -0.00000000000E+00  0.00000000000E+00  0.19878374053E+03  0.19878374053E+03  0.00000000000E+00 0.  1.
          2   -1    0    0  501    0  0.00000000000E+00 -0.00000000000E+00 -0.39741392848E+03  0.39741392848E+03  0.00000000000E+00 0. -1.
          5    1    1    2  502    0  0.92580516106E+02 -0.53693910755E+02 -0.19541267534E+03  0.22285060399E+03  0.47000000000E+01 0. -1.
         -5    1    1    2    0  502 -0.23145989357E+02  0.41552965549E+02 -0.16582642151E+03  0.17257716489E+03  0.47000000000E+01 0.  1.
        -11    1    1    2    0    0 -0.45533826196E+02 -0.35858603384E+02  0.11620953045E+03  0.12986078597E+03  0.00000000000E+00 0.  1.
         11    1    1    2    0    0 -0.23900700553E+02  0.47999548589E+02  0.46399378449E+02  0.70909114169E+02  0.00000000000E+00 0. -1.
<mgrwt>
<rscale>  0 0.14877930E+03</rscale>
<asrwt>0</asrwt>
<pdfrwt beam="2">  1        2 0.61140604E-01 0.16083978E+03</pdfrwt>
<pdfrwt beam="1">  1       -2 0.30582114E-01 0.16083978E+03</pdfrwt>
<totfact> 0.79318837E+02</totfact>
</mgrwt>
</event>
<event>
 6    1  0.4705246E-006  0.1438264E+03  0.7546771E-02  0.1218281E+00
          4   -1    0    0  501    0  0.00000000000E+00  0.00000000000E+00  0.58158715433E+02  0.58158715433E+02  0.00000000000E+00 0. -1.
         -4   -1    0    0    0  501 -0.00000000000E+00 -0.00000000000E+00 -0.29166983416E+03  0.29166983416E+03  0.00000000000E+00 0.  1.
          5    1    1    2  502    0  0.20091235089E+01 -0.50778177066E+02 -0.13349521131E+03  0.14291788301E+03  0.47000000000E+01 0.  1.
         -5    1    1    2    0  502  0.41411403163E+02 -0.55845002012E+01  0.13740437090E+02  0.44237773066E+02  0.47000000000E+01 0.  1.
        -11    1    1    2    0    0 -0.30503198028E+02  0.42808423641E+02 -0.12850377132E+03  0.13883884711E+03  0.00000000000E+00 0.  1.
         11    1    1    2    0    0 -0.12917328644E+02  0.13554253626E+02  0.14747426805E+02  0.23834046405E+02  0.00000000000E+00 0. -1.
<mgrwt>
<rscale>  0 0.13638259E+03</rscale>
<asrwt>0</asrwt>
<pdfrwt beam="1">  1        4 0.89474947E-02 0.14382640E+03</pdfrwt>
<pdfrwt beam="2">  1       -4 0.44872282E-01 0.14382640E+03</pdfrwt>
<totfact> 0.74096618E+02</totfact>
</mgrwt>
</event>
<event>
 6    1  0.4705246E-006  0.1283340E+03  0.7546771E-02  0.1244585E+00
         -4   -1    0    0    0  501 -0.00000000000E+00  0.00000000000E+00  0.11947774040E+03  0.11947774040E+03  0.00000000000E+00 0. -1.
          4   -1    0    0  501    0  0.00000000000E+00 -0.00000000000E+00 -0.10657924405E+03  0.10657924405E+03  0.00000000000E+00 0.  1.
          5    1    1    2  502    0  0.20365160070E+02  0.45535487364E+02 -0.49977572341E+02  0.70767705144E+02  0.47000000000E+01 0. -1.
         -5    1    1    2    0  502  0.78598382887E+01 -0.38693204205E+02  0.41971830777E+02  0.57815790995E+02  0.47000000000E+01 0. -1.
        -11    1    1    2    0    0 -0.51631406918E+00  0.31225207825E+02  0.36347981292E+02  0.47921351483E+02  0.00000000000E+00 0. -1.
         11    1    1    2    0    0 -0.27708684290E+02 -0.38067490985E+02 -0.15443743384E+02  0.49552136832E+02  0.00000000000E+00 0.  1.
<mgrwt>
<rscale>  0 0.11910279E+03</rscale>
<asrwt>0</asrwt>
<pdfrwt beam="2">  1        4 0.16396807E-01 0.12833403E+03</pdfrwt>
<pdfrwt beam="1">  1       -4 0.18381191E-01 0.12833403E+03</pdfrwt>
<totfact> 0.13765882E+03</totfact>
</mgrwt>
</event>
<event>
 6    1  0.4705246E-006  0.1470099E+03  0.7546771E-02  0.1213594E+00
          3   -1    0    0  501    0  0.00000000000E+00  0.00000000000E+00  0.11944382273E+03  0.11944382273E+03  0.00000000000E+00 0. -1.
         -3   -1    0    0    0  501 -0.00000000000E+00 -0.00000000000E+00 -0.15744191556E+03  0.15744191556E+03  0.00000000000E+00 0.  1.
          5    1    1    2  502    0  0.26091065148E+02  0.21599326823E+02  0.23553293073E+02  0.41522550672E+02  0.47000000000E+01 0. -1.
         -5    1    1    2    0  502 -0.36774023986E+02 -0.98226408031E+02 -0.13380257841E+02  0.10583892183E+03  0.47000000000E+01 0. -1.
        -11    1    1    2    0    0  0.11165561645E+01 -0.19227420001E+02 -0.22922551030E+02  0.29939668056E+02  0.00000000000E+00 0.  1.
         11    1    1    2    0    0  0.95664026731E+01  0.95854501209E+02 -0.25248577029E+02  0.99584597726E+02  0.00000000000E+00 0. -1.
<mgrwt>
<rscale>  0 0.13980293E+03</rscale>
<asrwt>0</asrwt>
<pdfrwt beam="1">  1        3 0.18375973E-01 0.14700991E+03</pdfrwt>
<pdfrwt beam="2">  1       -3 0.24221833E-01 0.14700991E+03</pdfrwt>
<totfact> 0.96854813E+02</totfact>
</mgrwt>
</event>
<event>
 6    1  0.4705246E-006  0.1361876E+03  0.7546771E-02  0.1225802E+00
          1   -1    0    0  501    0  0.00000000000E+00  0.00000000000E+00  0.44546117257E+03  0.44546117257E+03  0.00000000000E+00 0. -1.
         -1   -1    0    0    0  501 -0.00000000000E+00 -0.00000000000E+00 -0.41163867586E+02  0.41163867586E+02  0.00000000000E+00 0.  1.
          5    1    1    2  502    0  0.28596785710E+01 -0.40533504658E+02  0.42524473906E+02  0.59004776436E+02  0.47000000000E+01 0.  1.
         -5    1    1    2    0  502 -0.51282500268E+02  0.64548271112E+02  0.25910136902E+03  0.27194113989E+03  0.47000000000E+01 0.  1.
        -11    1    1    2    0    0  0.48545334699E+02 -0.57870402742E+02  0.42589819126E+02  0.86715198944E+02  0.00000000000E+00 0.  1.
         11    1    1    2    0    0 -0.12251300232E+00  0.33855636288E+02  0.60081642931E+02  0.68963924882E+02  0.00000000000E+00 0. -1.
<mgrwt>
<rscale>  0 0.13112080E+03</rscale>
<asrwt>0</asrwt>
<pdfrwt beam="1">  1        1 0.68532485E-01 0.13618756E+03</pdfrwt>
<pdfrwt beam="2">  1       -1 0.63329030E-02 0.13618756E+03</pdfrwt>
<totfact> 0.62145384E+03</totfact>
</mgrwt>
</event>
<event>
 6    1  0.4705246E-006  0.1687966E+03  0.7546771E-02  0.1186004E+00
          1   -1    0    0  501    0  0.00000000000E+00  0.00000000000E+00  0.69494008194E+02  0.69494008194E+02  0.00000000000E+00 0. -1.
         -1   -1    0    0    0  501 -0.00000000000E+00 -0.00000000000E+00 -0.36484128854E+03  0.36484128854E+03  0.00000000000E+00 0.  1.
          5    1    1    2  502    0 -0.32991691597E+02 -0.60099719841E+02 -0.80138962018E+02  0.10556879876E+03  0.47000000000E+01 0. -1.
         -5    1    1    2    0  502 -0.79832909645E+02  0.48396388374E+02 -0.40310582207E+02  0.10179654664E+03  0.47000000000E+01 0. -1.
        -11    1    1    2    0    0  0.37884905477E+02  0.95765692187E+01 -0.13797345572E+03  0.14340031808E+03  0.00000000000E+00 0.  1.
         11    1    1    2    0    0  0.74939695764E+02  0.21267622482E+01 -0.36924280400E+02  0.83569633252E+02  0.00000000000E+00 0. -1.
<mgrwt>
<rscale>  0 0.16240856E+03</rscale>
<asrwt>0</asrwt>
<pdfrwt beam="1">  1        1 0.10691385E-01 0.16879660E+03</pdfrwt>
<pdfrwt beam="2">  1       -1 0.56129431E-01 0.16879660E+03</pdfrwt>
<totfact> 0.19014029E+03</totfact>
</mgrwt>
</event>
<event>
 6    1  0.4868906E-006  0.2547910E+03  0.7546771E-02  0.1112806E+00
         -1   -1    0    0    0  501 -0.00000000000E+00  0.00000000000E+00  0.25924493569E+03  0.25924493569E+03  0.00000000000E+00 0.  1.
          1   -1    0    0  501    0  0.00000000000E+00 -0.00000000000E+00 -0.24929161840E+03  0.24929161840E+03  0.00000000000E+00 0. -1.
          5    1    1    2  502    0  0.15182695985E+03  0.19499108460E+02 -0.48316898168E+02  0.16058721499E+03  0.47000000000E+01 0.  1.
         -5    1    1    2    0  502  0.62394052578E+02 -0.77832605913E+02 -0.67938412335E+01  0.10009584716E+03  0.47000000000E+01 0.  1.
        -11    1    1    2    0    0 -0.90204451546E+02  0.57636524627E+02  0.62193763329E+02  0.12380176189E+03  0.00000000000E+00 0.  1.
         11    1    1    2    0    0 -0.12401656088E+03  0.69697282569E+00  0.28702933593E+01  0.12405173005E+03  0.00000000000E+00 0. -1.
<mgrwt>
<rscale>  0 0.25079029E+03</rscale>
<asrwt>0</asrwt>
<pdfrwt beam="2">  1        1 0.38352557E-01 0.25479102E+03</pdfrwt>
<pdfrwt beam="1">  1       -1 0.39883836E-01 0.25479102E+03</pdfrwt>
<totfact> 0.68983075E+02</totfact>
</mgrwt>
</event>
<event>
 6    1  0.6376198E-006  0.1971700E+03  0.7546771E-02  0.1156660E+00
          1   -1    0    0  501    0  0.00000000000E+00  0.00000000000E+00  0.20905127868E+03  0.20905127868E+03  0.00000000000E+00 0. -1.
         -1   -1    0    0    0  501 -0.00000000000E+00 -0.00000000000E+00 -0.18968021930E+03  0.18968021930E+03  0.00000000000E+00 0.  1.
          5    1    1    2  502    0  0.71303958391E+02 -0.32030950941E+02 -0.24870984502E+02  0.82163813023E+02  0.47000000000E+01 0.  1.
         -5    1    1    2    0  502  0.78973479317E+02  0.61911030736E+01  0.10275813371E+03  0.12983244677E+03  0.47000000000E+01 0.  1.
        -11    1    1    2    0    0 -0.55175262776E+02  0.45390022690E+02 -0.53967304895E+02  0.89537890191E+02  0.00000000000E+00 0.  1.
         11    1    1    2    0    0 -0.95102174931E+02 -0.19550174823E+02 -0.45487849346E+01  0.97197347992E+02  0.00000000000E+00 0. -1.
<mgrwt>
<rscale>  0 0.19201102E+03</rscale>
<asrwt>0</asrwt>
<pdfrwt beam="1">  1        1 0.32161735E-01 0.19716999E+03</pdfrwt>
<pdfrwt beam="2">  1       -1 0.29181572E-01 0.19716999E+03</pdfrwt>
<totfact> 0.14739801E+03</totfact>
</mgrwt>
</event>
<event>
 6    1  0.4705246E-006  0.1960750E+03  0.7546771E-02  0.1157830E+00
          2   -1    0    0  501    0  0.00000000000E+00  0.00000000000E+00  0.10498732079E+04  0.10498732079E+04  0.00000000000E+00 0. -1.
         -2   -1    0    0    0  501 -0.00000000000E+00 -0.00000000000E+00 -0.34447676518E+02  0.34447676518E+02  0.00000000000E+00 0.  1.
          5    1    1    2  502    0 -0.10217609330E+03  0.18242889421E+02  0.58823447588E+03  0.59733964013E+03  0.47000000000E+01 0. -1.
         -5    1    1    2    0  502 -0.38496314059E+02  0.36815109719E+02  0.62300388700E+02  0.82102051935E+02  0.47000000000E+01 0. -1.
        -11    1    1    2    0    0  0.50154344469E+02 -0.15597681910E+02  0.23993491808E+03  0.24561659322E+03  0.00000000000E+00 0. -1.
         11    1    1    2    0    0  0.90518062893E+02 -0.39460317229E+02  0.12495574874E+03  0.15926259916E+03  0.00000000000E+00 0.  1.
<mgrwt>
<rscale>  0 0.19070132E+03</rscale>
<asrwt>0</asrwt>
<pdfrwt beam="1">  1        2 0.16151893E+00 0.19607499E+03</pdfrwt>
<pdfrwt beam="2">  1       -2 0.52996433E-02 0.19607499E+03</pdfrwt>
<totfact> 0.43426368E+03</totfact>
</mgrwt>
</event>
<event>
 6    1  0.4705246E-006  0.2084108E+03  0.7546771E-02  0.1146690E+00
         -3   -1    0    0    0  501 -0.00000000000E+00  0.00000000000E+00  0.62558194484E+03  0.62558194484E+03  0.00000000000E+00 0.  1.
          3   -1    0    0  501    0  0.00000000000E+00 -0.00000000000E+00 -0.64475925064E+02  0.64475925064E+02  0.00000000000E+00 0. -1.
          5    1    1    2  502    0  0.51454301748E+02  0.98740697298E+02  0.22511560284E+03  0.25118995823E+03  0.47000000000E+01 0.  1.
         -5    1    1    2    0  502  0.67223705761E+02  0.18404281299E+02  0.24582675509E+02  0.74054993900E+02  0.47000000000E+01 0.  1.
        -11    1    1    2    0    0 -0.48998364711E+02 -0.50979072030E+02  0.22407327728E+03  0.23496497425E+03  0.00000000000E+00 0.  1.
         11    1    1    2    0    0 -0.69679642799E+02 -0.66165906568E+02  0.87334464140E+02  0.12984794353E+03  0.00000000000E+00 0. -1.
<mgrwt>
<rscale>  0 0.20365688E+03</rscale>
<asrwt>0</asrwt>
<pdfrwt beam="2">  1        3 0.99193735E-02 0.20841077E+03</pdfrwt>
<pdfrwt beam="1">  1       -3 0.96243372E-01 0.20841077E+03</pdfrwt>
<totfact> 0.18109259E+02</totfact>
</mgrwt>
</event>
<event>
 6    1  0.4705246E-006  0.2627327E+03  0.7546771E-02  0.1134532E+00
         -1   -1    0    0    0  501 -0.00000000000E+00  0.00000000000E+00  0.47441738771E+02  0.47441738771E+02  0.00000000000E+00 0.  1.
          1   -1    0    0  501    0  0.00000000000E+00 -0.00000000000E+00 -0.94555037472E+03  0.94555037472E+03  0.00000000000E+00 0. -1.
          5    1    1    2  502    0  0.78687300710E+02 -0.61237755016E+02 -0.27577429606E+03  0.29328366183E+03  0.47000000000E+01 0. -1.
         -5    1    1    2    0  502 -0.16054966952E+03  0.26025813700E+02 -0.48950336001E+03  0.51583831655E+03  0.47000000000E+01 0.  1.
        -11    1    1    2    0    0  0.80877119634E+02  0.45636714068E+02 -0.14218814858E+03  0.16982722911E+03  0.00000000000E+00 0. -1.
         11    1    1    2    0    0  0.98524917080E+00 -0.10424772752E+02  0.93571686952E+01  0.14042905997E+02  0.00000000000E+00 0.  1.
<mgrwt>
<rscale>  0 0.21913147E+03</rscale>
<asrwt>0</asrwt>
<pdfrwt beam="2">  1        1 0.14546929E+00 0.26273273E+03</pdfrwt>
<pdfrwt beam="1">  1       -1 0.72987291E-02 0.26273273E+03</pdfrwt>
<totfact> 0.17432560E+03</totfact>
</mgrwt>
</event>
<event>
 6    1  0.4705246E-006  0.1371599E+03  0.7546771E-02  0.1229292E+00
         -2   -1    0    0    0  501 -0.00000000000E+00  0.00000000000E+00  0.71714482065E+02  0.71714482065E+02  0.00000000000E+00 0.  1.
          2   -1    0    0  501    0  0.00000000000E+00 -0.00000000000E+00 -0.26460990443E+03  0.26460990443E+03  0.00000000000E+00 0. -1.
          5    1    1    2  502    0  0.15380357837E+02  0.37978423107E+02 -0.46342800113E+02  0.62037578541E+02  0.47000000000E+01 0. -1.
         -5    1    1    2    0  502 -0.56270685488E+02 -0.76847931772E+02 -0.13751737879E+03  0.16734728600E+03  0.47000000000E+01 0. -1.
        -11    1    1    2    0    0  0.53046367677E+02  0.42719387384E+02  0.23456581663E+02  0.72035230308E+02  0.00000000000E+00 0.  1.
         11    1    1    2    0    0 -0.12156040025E+02 -0.38498787190E+01 -0.32491825126E+02  0.34904291645E+02  0.00000000000E+00 0. -1.
<mgrwt>
<rscale>  0 0.12877042E+03</rscale>
<asrwt>0</asrwt>
<pdfrwt beam="2">  1        2 0.40709216E-01 0.13715995E+03</pdfrwt>
<pdfrwt beam="1">  1       -2 0.11032997E-01 0.13715995E+03</pdfrwt>
<totfact> 0.67671027E+03</totfact>
</mgrwt>
</event>
<event>
 6    1  0.4705246E-006  0.1256722E+03  0.7546771E-02  0.1242665E+00
          2   -1    0    0  501    0  0.00000000000E+00  0.00000000000E+00  0.80541468710E+03  0.80541468710E+03  0.00000000000E+00 0. -1.
         -2   -1    0    0    0  501 -0.00000000000E+00 -0.00000000000E+00 -0.17608807927E+02  0.17608807927E+02  0.00000000000E+00 0.  1.
          5    1    1    2  502    0 -0.56647878352E+02 -0.35179974760E+02  0.26273758540E+03  0.27110835754E+03  0.47000000000E+01 0.  1.
         -5    1    1    2    0  502  0.44058654195E+02  0.38285557146E+02  0.26319383428E+03  0.26962943701E+03  0.47000000000E+01 0.  1.
        -11    1    1    2    0    0  0.36889726118E+02  0.40749554622E+02  0.12656028321E+03  0.13798146028E+03  0.00000000000E+00 0. -1.
         11    1    1    2    0    0 -0.24300501960E+02 -0.43855137008E+02  0.13531417628E+03  0.14430424020E+03  0.00000000000E+00 0.  1.
<mgrwt>
<rscale>  0 0.12026215E+03</rscale>
<asrwt>0</asrwt>
<pdfrwt beam="1">  1        2 0.12390992E+00 0.12567221E+03</pdfrwt>
<pdfrwt beam="2">  1       -2 0.27090480E-02 0.12567221E+03</pdfrwt>
<totfact> 0.16415515E+04</totfact>
</mgrwt>
</event>
<event>
 6    1  0.4705246E-006  0.2877249E+03  0.7546771E-02  0.1091543E+00
         -2   -1    0    0    0  501 -0.00000000000E+00  0.00000000000E+00  0.59538049972E+02  0.59538049972E+02  0.00000000000E+00 0. -1.
          2   -1    0    0  501    0  0.00000000000E+00 -0.00000000000E+00 -0.34761640817E+03  0.34761640817E+03  0.00000000000E+00 0.  1.
          5    1    1    2  502    0  0.36152138320E+02 -0.14482236253E+02 -0.28470888004E+03  0.28739858846E+03  0.47000000000E+01 0. -1.
         -5    1    1    2    0  502  0.90744801159E+01  0.43915535216E+01  0.11867752106E+02  0.16265468692E+02  0.47000000000E+01 0. -1.
        -11    1    1    2    0    0 -0.19623044870E+02  0.26029917349E+02 -0.48597652361E+02  0.58517965636E+02  0.00000000000E+00 0.  1.
         11    1    1    2    0    0 -0.25603573566E+02 -0.15939234617E+02  0.33360422098E+02  0.44972435358E+02  0.00000000000E+00 0. -1.
<mgrwt>
<rscale>  0 0.28772489E+03</rscale>
<asrwt>0</asrwt>
<pdfrwt beam="2">  1        2 0.53479449E-01 0.28772489E+03</pdfrwt>
<pdfrwt beam="1">  1       -2 0.91596998E-02 0.28772489E+03</pdfrwt>
<totfact> 0.70748076E+03</totfact>
</mgrwt>
</event>
<event>
 6    1  0.4705246E-006  0.1321661E+03  0.7546771E-02  0.1237376E+00
         -3   -1    0    0    0  501 -0.00000000000E+00  0.00000000000E+00  0.15689519250E+02  0.15689519250E+02  0.00000000000E+00 0.  1.
          3   -1    0    0  501    0  0.00000000000E+00 -0.00000000000E+00 -0.86539952097E+03  0.86539952097E+03  0.00000000000E+00 0. -1.
          5    1    1    2  502    0 -0.36212384251E+02 -0.31134033919E+02 -0.14363615007E+03  0.15144008204E+03  0.47000000000E+01 0.  1.
         -5    1    1    2    0  502  0.36840782659E+02  0.74057232509E+02 -0.33733010539E+03  0.34735487179E+03  0.47000000000E+01 0.  1.
        -11    1    1    2    0    0  0.18686900931E+02  0.15168200642E+02 -0.32053908125E+02  0.40084006825E+02  0.00000000000E+00 0.  1.
         11    1    1    2    0    0 -0.19315299339E+02 -0.58091399232E+02 -0.33668983813E+03  0.34221007957E+03  0.00000000000E+00 0. -1.
<mgrwt>
<rscale>  0 0.12353541E+03</rscale>
<asrwt>0</asrwt>
<pdfrwt beam="2">  1        3 0.13313836E+00 0.13216606E+03</pdfrwt>
<pdfrwt beam="1">  1       -3 0.24137726E-02 0.13216606E+03</pdfrwt>
<totfact> 0.76056076E+02</totfact>
</mgrwt>
</event>
<event>
 6    1  0.4705246E-006  0.1254648E+03  0.7546771E-02  0.1250579E+00
          2   -1    0    0  501    0  0.00000000000E+00  0.00000000000E+00  0.10520171281E+04  0.10520171281E+04  0.00000000000E+00 0. -1.
         -2   -1    0    0    0  501 -0.00000000000E+00 -0.00000000000E+00 -0.13103024901E+02  0.13103024901E+02  0.00000000000E+00 0.  1.
          5    1    1    2  502    0 -0.34367781720E+02  0.55147753485E+02  0.54970696769E+03  0.55355420644E+03  0.47000000000E+01 0. -1.
         -5    1    1    2    0  502  0.26523096652E+02 -0.47640543409E+02  0.24868560077E+03  0.25463643507E+03  0.47000000000E+01 0. -1.
        -11    1    1    2    0    0  0.29451398011E+02 -0.35722019030E+02  0.79192947472E+02  0.91733147868E+02  0.00000000000E+00 0.  1.
         11    1    1    2    0    0 -0.21606712943E+02  0.28214808954E+02  0.16132858729E+03  0.16519636366E+03  0.00000000000E+00 0. -1.
<mgrwt>
<rscale>  0 0.11557586E+03</rscale>
<asrwt>0</asrwt>
<pdfrwt beam="1">  1        2 0.16184872E+00 0.12546481E+03</pdfrwt>
<pdfrwt beam="2">  1       -2 0.20158508E-02 0.12546481E+03</pdfrwt>
<totfact> 0.17741735E+04</totfact>
</mgrwt>
</event>
<event>
 6    1  0.4705246E-006  0.1329547E+03  0.7546771E-02  0.1240721E+00
         -1   -1    0    0    0  501 -0.00000000000E+00  0.00000000000E+00  0.72003662521E+02  0.72003662521E+02  0.00000000000E+00 0.  1.
          1   -1    0    0  501    0  0.00000000000E+00 -0.00000000000E+00 -0.17699911233E+03  0.17699911233E+03  0.00000000000E+00 0. -1.
          5    1    1    2  502    0  0.39764325506E+02 -0.36529358547E+02 -0.70389774915E+02  0.88839214491E+02  0.47000000000E+01 0. -1.
         -5    1    1    2    0  502 -0.49398074380E+02  0.34226467911E+02  0.27283199182E+01  0.60341980310E+02  0.47000000000E+01 0.  1.
        -11    1    1    2    0    0  0.42830639966E+02 -0.23956039511E+02 -0.27916793029E+02  0.56459745677E+02  0.00000000000E+00 0.  1.
         11    1    1    2    0    0 -0.33196891091E+02  0.26258930147E+02 -0.94172017803E+01  0.43361834370E+02  0.00000000000E+00 0. -1.
<mgrwt>
<rscale>  0 0.12145173E+03</rscale>
<asrwt>0</asrwt>
<pdfrwt beam="2">  1        1 0.27230632E-01 0.13295472E+03</pdfrwt>
<pdfrwt beam="1">  1       -1 0.11077487E-01 0.13295472E+03</pdfrwt>
<totfact> 0.84052077E+03</totfact>
</mgrwt>
</event>
<event>
 6    1  0.4705246E-006  0.2794991E+03  0.7546771E-02  0.1095963E+00
          2   -1    0    0  501    0  0.00000000000E+00  0.00000000000E+00  0.11087909980E+04  0.11087909980E+04  0.00000000000E+00 0. -1.
         -2   -1    0    0    0  501 -0.00000000000E+00 -0.00000000000E+00 -0.17613719153E+02  0.17613719153E+02  0.00000000000E+00 0.  1.
          5    1    1    2  502    0 -0.10026897651E+02  0.41295821999E+01  0.59639295926E+03  0.59651005355E+03  0.47000000000E+01 0. -1.
         -5    1    1    2    0  502 -0.60782838927E+02 -0.33247835170E+02  0.19006718978E+03  0.20235513011E+03  0.47000000000E+01 0.  1.
        -11    1    1    2    0    0  0.50964598432E+02 -0.13999491026E+02  0.68071661254E+02  0.86180781548E+02  0.00000000000E+00 0.  1.
         11    1    1    2    0    0  0.19845138146E+02  0.43117743997E+02  0.23664546851E+03  0.24135875191E+03  0.00000000000E+00 0. -1.
<mgrwt>
<rscale>  0 0.27949908E+03</rscale>
<asrwt>0</asrwt>
<pdfrwt beam="1">  1        2 0.17058318E+00 0.27949908E+03</pdfrwt>
<pdfrwt beam="2">  1       -2 0.27098038E-02 0.27949908E+03</pdfrwt>
<totfact> 0.11114864E+04</totfact>
</mgrwt>
</event>
<event>
 6    1  0.4705246E-006  0.3137778E+03  0.7546771E-02  0.1078549E+00
          1   -1    0    0  501    0  0.00000000000E+00  0.00000000000E+00  0.19805488493E+04  0.19805488493E+04  0.00000000000E+00 0. -1.
         -1   -1    0    0    0  501 -0.00000000000E+00 -0.00000000000E+00 -0.12427930208E+02  0.12427930208E+02  0.00000000000E+00 0.  1.
          5    1    1    2  502    0  0.39297192508E+02 -0.10812250492E+02  0.44768925441E+03  0.44956527069E+03  0.47000000000E+01 0.  1.
         -5    1    1    2    0  502 -0.75421191616E+02  0.65517159684E+02  0.11863935009E+04  0.11906017316E+04  0.47000000000E+01 0.  1.
        -11    1    1    2    0    0 -0.15349583206E+02 -0.57845455841E+02  0.14503553531E+03  0.15689809740E+03  0.00000000000E+00 0.  1.
         11    1    1    2    0    0  0.51473582314E+02  0.31405466487E+01  0.18900262848E+03  0.19591167980E+03  0.00000000000E+00 0. -1.
<mgrwt>
<rscale>  0 0.31377777E+03</rscale>
<asrwt>0</asrwt>
<pdfrwt beam="1">  1        1 0.30469957E+00 0.31377777E+03</pdfrwt>
<pdfrwt beam="2">  1       -1 0.19119908E-02 0.31377777E+03</pdfrwt>
<totfact> 0.25404524E+03</totfact>
</mgrwt>
</event>
<event>
 6    1  0.4705246E-006  0.1378351E+03  0.7546771E-02  0.1228070E+00
         -1   -1    0    0    0  501 -0.00000000000E+00  0.00000000000E+00  0.52573735274E+02  0.52573735274E+02  0.00000000000E+00 0.  1.
          1   -1    0    0  501    0  0.00000000000E+00 -0.00000000000E+00 -0.31650845056E+03  0.31650845056E+03  0.00000000000E+00 0. -1.
          5    1    1    2  502    0  0.34582779088E+01 -0.16480257980E+02  0.99116268965E+01  0.20096988255E+02  0.47000000000E+01 0.  1.
         -5    1    1    2    0  502 -0.39291861536E+02  0.62090644785E+02 -0.21284316246E+03  0.22521856131E+03  0.47000000000E+01 0.  1.
        -11    1    1    2    0    0 -0.28515977849E+02 -0.94656327473E+01 -0.35903103012E+01  0.30259701321E+02  0.00000000000E+00 0.  1.
         11    1    1    2    0    0  0.64349561476E+02 -0.36144754058E+02 -0.57412869419E+02  0.93506934945E+02  0.00000000000E+00 0. -1.
<mgrwt>
<rscale>  0 0.12958719E+03</rscale>
<asrwt>0</asrwt>
<pdfrwt beam="2">  1        1 0.48693608E-01 0.13783509E+03</pdfrwt>
<pdfrwt beam="1">  1       -1 0.80882669E-02 0.13783509E+03</pdfrwt>
<totfact> 0.66162475E+03</totfact>
</mgrwt>
</event>
<event>
 6    1  0.4705246E-006  0.1312991E+03  0.7546771E-02  0.1238241E+00
          1   -1    0    0  501    0  0.00000000000E+00  0.00000000000E+00  0.12199281700E+04  0.12199281700E+04  0.00000000000E+00 0. -1.
         -1   -1    0    0    0  501 -0.00000000000E+00 -0.00000000000E+00 -0.11366002766E+02  0.11366002766E+02  0.00000000000E+00 0.  1.
          5    1    1    2  502    0  0.16917230266E+02 -0.12994188030E+02  0.62366000524E+03  0.62404241342E+03  0.47000000000E+01 0. -1.
         -5    1    1    2    0  502 -0.25916470396E+02  0.52203595981E+02  0.15604386323E+03  0.16663929946E+03  0.47000000000E+01 0. -1.
        -11    1    1    2    0    0 -0.31625975628E+02  0.44688569123E+01  0.71498628912E+02  0.78308536909E+02  0.00000000000E+00 0.  1.
         11    1    1    2    0    0  0.40625215759E+02 -0.43678264863E+02  0.35735966989E+03  0.36230392303E+03  0.00000000000E+00 0. -1.
<mgrwt>
<rscale>  0 0.12299206E+03</rscale>
<asrwt>0</asrwt>
<pdfrwt beam="1">  1        1 0.18768115E+00 0.13129908E+03</pdfrwt>
<pdfrwt beam="2">  1       -1 0.17486168E-02 0.13129908E+03</pdfrwt>
<totfact> 0.89636131E+03</totfact>
</mgrwt>
</event>
<event>
 6    1  0.4705246E-006  0.1708942E+03  0.7546771E-02  0.1198032E+00
         -2   -1    0    0    0  501 -0.00000000000E+00  0.00000000000E+00  0.61319179163E+02  0.61319179163E+02  0.00000000000E+00 0.  1.
          2   -1    0    0  501    0  0.00000000000E+00 -0.00000000000E+00 -0.51269351428E+03  0.51269351428E+03  0.00000000000E+00 0. -1.
          5    1    1    2  502    0  0.19645684267E+02 -0.28154860427E+02 -0.37496134524E+03  0.37655909164E+03  0.47000000000E+01 0. -1.
         -5    1    1    2    0  502  0.25204069890E+02  0.62320989160E+02 -0.58009403575E+02  0.88917555814E+02  0.47000000000E+01 0.  1.
        -11    1    1    2    0    0 -0.13003720370E+02  0.26653056269E+02  0.13795528974E+02  0.32707778457E+02  0.00000000000E+00 0.  1.
         11    1    1    2    0    0 -0.31846033787E+02 -0.60819185002E+02 -0.32199115282E+02  0.75828267534E+02  0.00000000000E+00 0. -1.
<mgrwt>
<rscale>  0 0.15200412E+03</rscale>
<asrwt>0</asrwt>
<pdfrwt beam="2">  1        2 0.78875926E-01 0.17089424E+03</pdfrwt>
<pdfrwt beam="1">  1       -2 0.94337198E-02 0.17089424E+03</pdfrwt>
<totfact> 0.43080848E+03</totfact>
</mgrwt>
</event>
<event>
 6    1  0.4705246E-006  0.1257751E+03  0.7546771E-02  0.1248914E+00
         -2   -1    0    0    0  501 -0.00000000000E+00  0.00000000000E+00  0.11654204346E+02  0.11654204346E+02  0.00000000000E+00 0.  1.
          2   -1    0    0  501    0  0.00000000000E+00 -0.00000000000E+00 -0.16454843793E+04  0.16454843793E+04  0.00000000000E+00 0. -1.
          5    1    1    2  502    0  0.20997054873E+02  0.54005615658E+02 -0.62881514146E+03  0.63149667850E+03  0.47000000000E+01 0. -1.
         -5    1    1    2    0  502 -0.34299188087E+02 -0.58060395489E+02 -0.77058541002E+03  0.77354470327E+03  0.47000000000E+01 0. -1.
        -11    1    1    2    0    0  0.52718811768E+02  0.25660274248E+01 -0.12121526486E+03  0.13220816180E+03  0.00000000000E+00 0.  1.
         11    1    1    2    0    0 -0.39416678554E+02  0.14887524058E+01 -0.11321435864E+03  0.11988904010E+03  0.00000000000E+00 0. -1.
<mgrwt>
<rscale>  0 0.11654175E+03</rscale>
<asrwt>0</asrwt>
<pdfrwt beam="2">  1        2 0.25315135E+00 0.12577512E+03</pdfrwt>
<pdfrwt beam="1">  1       -2 0.17929552E-02 0.12577512E+03</pdfrwt>
<totfact> 0.10098645E+04</totfact>
</mgrwt>
</event>
<event>
 6    1  0.4705246E-006  0.1278577E+03  0.7546771E-02  0.1246222E+00
          3   -1    0    0  501    0  0.00000000000E+00  0.00000000000E+00  0.49012547120E+02  0.49012547120E+02  0.00000000000E+00 0. -1.
         -3   -1    0    0    0  501 -0.00000000000E+00 -0.00000000000E+00 -0.29283613045E+03  0.29283613045E+03  0.00000000000E+00 0.  1.
          5    1    1    2  502    0  0.61986814134E+02 -0.43325894752E+02 -0.51734631110E+02  0.91749988222E+02  0.47000000000E+01 0.  1.
         -5    1    1    2    0  502 -0.46244096072E+02  0.21531620689E+02 -0.21140020968E+02  0.55417665032E+02  0.47000000000E+01 0.  1.
        -11    1    1    2    0    0  0.34035749648E+02  0.12966784595E+02 -0.10781060564E+03  0.11379673302E+03  0.00000000000E+00 0.  1.
         11    1    1    2    0    0 -0.49778467710E+02  0.88274894682E+01 -0.63138325609E+02  0.80884291297E+02  0.00000000000E+00 0. -1.
<mgrwt>
<rscale>  0 0.11812519E+03</rscale>
<asrwt>0</asrwt>
<pdfrwt beam="1">  1        3 0.75403919E-02 0.12785775E+03</pdfrwt>
<pdfrwt beam="2">  1       -3 0.45051712E-01 0.12785775E+03</pdfrwt>
<totfact> 0.13168710E+03</totfact>
</mgrwt>
</event>
<event>
 6    1  0.4705246E-006  0.2760766E+03  0.7546771E-02  0.1097851E+00
         -1   -1    0    0    0  501 -0.00000000000E+00  0.00000000000E+00  0.15955761897E+03  0.15955761897E+03  0.00000000000E+00 0.  1.
          1   -1    0    0  501    0  0.00000000000E+00 -0.00000000000E+00 -0.11942125664E+03  0.11942125664E+03  0.00000000000E+00 0. -1.
          5    1    1    2  502    0 -0.32067006487E+02 -0.11078093590E+03  0.25628946302E+02  0.11823553422E+03  0.47000000000E+01 0.  1.
         -5    1    1    2    0  502  0.21693113273E+01  0.31022729838E+02 -0.11946352475E+02  0.33644033880E+02  0.47000000000E+01 0.  1.
        -11    1    1    2    0    0  0.30943424523E+02  0.48081699154E+02  0.58657945307E+02  0.81915199215E+02  0.00000000000E+00 0.  1.
         11    1    1    2    0    0 -0.10457293639E+01  0.31676506905E+02 -0.32204176799E+02  0.45184108301E+02  0.00000000000E+00 0. -1.
<mgrwt>
<rscale>  0 0.27607659E+03</rscale>
<asrwt>0</asrwt>
<pdfrwt beam="2">  1        1 0.18372501E-01 0.27607659E+03</pdfrwt>
<pdfrwt beam="1">  1       -1 0.24547326E-01 0.27607659E+03</pdfrwt>
<totfact> 0.40723788E+03</totfact>
</mgrwt>
</event>
<event>
 6    1  0.4705246E-006  0.3667618E+03  0.7546771E-02  0.1055938E+00
          2   -1    0    0  501    0  0.00000000000E+00  0.00000000000E+00  0.67225367994E+03  0.67225367994E+03  0.00000000000E+00 0. -1.
         -2   -1    0    0    0  501 -0.00000000000E+00 -0.00000000000E+00 -0.50023605173E+02  0.50023605173E+02  0.00000000000E+00 0.  1.
          5    1    1    2  502    0 -0.27479405110E+00 -0.35820546783E+02  0.68984001329E+02  0.77872135729E+02  0.47000000000E+01 0. -1.
         -5    1    1    2    0  502  0.13162558493E+03  0.63871820770E+02  0.37181777388E+03  0.39959410790E+03  0.47000000000E+01 0. -1.
        -11    1    1    2    0    0 -0.78995121287E+02  0.28418415609E+02  0.69690882139E+02  0.10910845332E+03  0.00000000000E+00 0. -1.
         11    1    1    2    0    0 -0.52355669594E+02 -0.56469689596E+02  0.11173741742E+03  0.13570258816E+03  0.00000000000E+00 0.  1.
<mgrwt>
<rscale>  0 0.36676179E+03</rscale>
<asrwt>0</asrwt>
<pdfrwt beam="1">  1        2 0.10342364E+00 0.36676179E+03</pdfrwt>
<pdfrwt beam="2">  1       -2 0.76959397E-02 0.36676179E+03</pdfrwt>
<totfact> 0.44488687E+03</totfact>
</mgrwt>
</event>
<event>
 6    1  0.4705246E-006  0.1270628E+03  0.7546771E-02  0.1253705E+00
          1   -1    0    0  501    0  0.00000000000E+00  0.00000000000E+00  0.13739220381E+03  0.13739220381E+03  0.00000000000E+00 0. -1.
         -1   -1    0    0    0  501 -0.00000000000E+00 -0.00000000000E+00 -0.79369459932E+02  0.79369459932E+02  0.00000000000E+00 0.  1.
          5    1    1    2  502    0 -0.19553422341E+02  0.39636393407E+02 -0.31762776500E+02  0.54629149531E+02  0.47000000000E+01 0.  1.
         -5    1    1    2    0  502 -0.31510565008E+01 -0.40820649643E+02  0.64570443670E+02  0.76600827607E+02  0.47000000000E+01 0.  1.
        -11    1    1    2    0    0  0.45680046385E+02 -0.20371516169E+02  0.12475997893E+02  0.51549159374E+02  0.00000000000E+00 0. -1.
         11    1    1    2    0    0 -0.22975567543E+02  0.21555772405E+02  0.12739078817E+02  0.33982527232E+02  0.00000000000E+00 0.  1.
<mgrwt>
<rscale>  0 0.11379152E+03</rscale>
<asrwt>0</asrwt>
<pdfrwt beam="1">  1        1 0.21137262E-01 0.12706283E+03</pdfrwt>
<pdfrwt beam="2">  1       -1 0.12210686E-01 0.12706283E+03</pdfrwt>
<totfact> 0.99114325E+03</totfact>
</mgrwt>
</event>
<event>
 6    1  0.4705246E-006  0.1654499E+03  0.7546771E-02  0.1189555E+00
         -2   -1    0    0    0  501 -0.00000000000E+00  0.00000000000E+00  0.44666822282E+02  0.44666822282E+02  0.00000000000E+00 0.  1.
          2   -1    0    0  501    0  0.00000000000E+00 -0.00000000000E+00 -0.62040830585E+03  0.62040830585E+03  0.00000000000E+00 0. -1.
          5    1    1    2  502    0  0.13166642048E+02  0.20847558221E+02 -0.52781469482E+01  0.25650145844E+02  0.47000000000E+01 0.  1.
         -5    1    1    2    0  502  0.93468311888E+02 -0.13773735639E+01 -0.42865703852E+03  0.43875638931E+03  0.47000000000E+01 0.  1.
        -11    1    1    2    0    0  0.15502460093E+02 -0.11860453626E+02 -0.22013110041E+02  0.29420632944E+02  0.00000000000E+00 0. -1.
         11    1    1    2    0    0 -0.12213741403E+03 -0.76097310313E+01 -0.11979318806E+03  0.17124796004E+03  0.00000000000E+00 0.  1.
<mgrwt>
<rscale>  0 0.15924222E+03</rscale>
<asrwt>0</asrwt>
<pdfrwt beam="2">  1        2 0.95447430E-01 0.16544995E+03</pdfrwt>
<pdfrwt beam="1">  1       -2 0.68718189E-02 0.16544995E+03</pdfrwt>
<totfact> 0.56708529E+03</totfact>
</mgrwt>
</event>
<event>
 6    1  0.4705246E-006  0.1908356E+03  0.7546771E-02  0.1162230E+00
         -4   -1    0    0    0  501 -0.00000000000E+00  0.00000000000E+00  0.23300686599E+02  0.23300686599E+02  0.00000000000E+00 0. -1.
          4   -1    0    0  501    0  0.00000000000E+00 -0.00000000000E+00 -0.18128069005E+04  0.18128069005E+04  0.00000000000E+00 0.  1.
          5    1    1    2  502    0 -0.71095454284E+02 -0.24288664597E+02 -0.28146831375E+03  0.29136060903E+03  0.47000000000E+01 0.  1.
         -5    1    1    2    0  502 -0.71186806850E+02  0.47729614744E+02 -0.10817811177E+04  0.10851811619E+04  0.47000000000E+01 0.  1.
        -11    1    1    2    0    0  0.83062348775E+02 -0.13259614072E+02 -0.11452495665E+03  0.14209552015E+03  0.00000000000E+00 0. -1.
         11    1    1    2    0    0  0.59219912360E+02 -0.10181336075E+02 -0.31173182579E+03  0.31747029598E+03  0.00000000000E+00 0.  1.
<mgrwt>
<rscale>  0 0.18588022E+03</rscale>
<asrwt>0</asrwt>
<pdfrwt beam="2">  1        4 0.27889328E+00 0.19083562E+03</pdfrwt>
<pdfrwt beam="1">  1       -4 0.35847222E-02 0.19083562E+03</pdfrwt>
<totfact> 0.35496895E+01</totfact>
</mgrwt>
</event>
<event>
 6    1  0.4705246E-006  0.4482256E+03  0.7546771E-02  0.1028866E+00
         -2   -1    0    0    0  501 -0.00000000000E+00  0.00000000000E+00  0.12853163993E+03  0.12853163993E+03  0.00000000000E+00 0.  1.
          2   -1    0    0  501    0  0.00000000000E+00 -0.00000000000E+00 -0.25934914919E+04  0.25934914919E+04  0.00000000000E+00 0. -1.
          5    1    1    2  502    0 -0.10879368493E+03 -0.78085126539E+02 -0.95960219669E+03  0.96891269925E+03  0.47000000000E+01 0. -1.
         -5    1    1    2    0  502 -0.25931249419E+03 -0.14503608096E+03 -0.11490244693E+04  0.11868267588E+04  0.47000000000E+01 0. -1.
        -11    1    1    2    0    0  0.21498673525E+03  0.13096656114E+03 -0.26528375602E+03  0.36571437992E+03  0.00000000000E+00 0.  1.
         11    1    1    2    0    0  0.15311944387E+03  0.92154646365E+02 -0.91049429977E+02  0.20056929385E+03  0.00000000000E+00 0. -1.
<mgrwt>
<rscale>  0 0.44618481E+03</rscale>
<asrwt>0</asrwt>
<pdfrwt beam="2">  1        2 0.39899868E+00 0.44822561E+03</pdfrwt>
<pdfrwt beam="1">  1       -2 0.19774099E-01 0.44822561E+03</pdfrwt>
<totfact> 0.73192456E+01</totfact>
</mgrwt>
</event>
<event>
 6    1  0.4705246E-006  0.1522655E+03  0.7546771E-02  0.1206485E+00
         -1   -1    0    0    0  501 -0.00000000000E+00  0.00000000000E+00  0.18174673859E+03  0.18174673859E+03  0.00000000000E+00 0.  1.
          1   -1    0    0  501    0  0.00000000000E+00 -0.00000000000E+00 -0.13336078480E+03  0.13336078480E+03  0.00000000000E+00 0. -1.
          5    1    1    2  502    0  0.34536773184E+02 -0.36068508689E+02 -0.81779752767E+02  0.95936145345E+02  0.47000000000E+01 0. -1.
         -5    1    1    2    0  502  0.48845340497E+02  0.11427592901E+02  0.37305276391E+02  0.62691552975E+02  0.47000000000E+01 0. -1.
        -11    1    1    2    0    0 -0.57025751238E+02 -0.16399021069E+01  0.10313987308E+03  0.11786627593E+03  0.00000000000E+00 0.  1.
         11    1    1    2    0    0 -0.26356362444E+02  0.26280817895E+02 -0.10279442916E+02  0.38613549140E+02  0.00000000000E+00 0. -1.
<mgrwt>
<rscale>  0 0.14521075E+03</rscale>
<asrwt>0</asrwt>
<pdfrwt beam="2">  1        1 0.20517044E-01 0.15226545E+03</pdfrwt>
<pdfrwt beam="1">  1       -1 0.27961037E-01 0.15226545E+03</pdfrwt>
<totfact> 0.27692580E+03</totfact>
</mgrwt>
</event>
<event>
 6    1  0.4705246E-006  0.1430412E+03  0.7546771E-02  0.1219882E+00
         -1   -1    0    0    0  501 -0.00000000000E+00  0.00000000000E+00  0.25141045986E+02  0.25141045986E+02  0.00000000000E+00 0.  1.
          1   -1    0    0  501    0  0.00000000000E+00 -0.00000000000E+00 -0.70921158600E+03  0.70921158600E+03  0.00000000000E+00 0. -1.
          5    1    1    2  502    0 -0.54443195366E+02  0.70333000442E+02 -0.46389375258E+03  0.47236669671E+03  0.47000000000E+01 0. -1.
         -5    1    1    2    0  502  0.74443874375E+01 -0.19070211440E+02 -0.11221353071E+02  0.23813874809E+02  0.47000000000E+01 0. -1.
        -11    1    1    2    0    0  0.56149311302E+02 -0.26129612358E+02 -0.57948686939E+02  0.84814810732E+02  0.00000000000E+00 0.  1.
         11    1    1    2    0    0 -0.91505033730E+01 -0.25133176644E+02 -0.15100674742E+03  0.15335724974E+03  0.00000000000E+00 0. -1.
<mgrwt>
<rscale>  0 0.13523952E+03</rscale>
<asrwt>0</asrwt>
<pdfrwt beam="2">  1        1 0.10910947E+00 0.14304124E+03</pdfrwt>
<pdfrwt beam="1">  1       -1 0.38678533E-02 0.14304124E+03</pdfrwt>
<totfact> 0.69139630E+03</totfact>
</mgrwt>
</event>
<event>
 6    1  0.4705246E-006  0.1576272E+03  0.7546771E-02  0.1199397E+00
         -4   -1    0    0    0  501 -0.00000000000E+00  0.00000000000E+00  0.52171560048E+02  0.52171560048E+02  0.00000000000E+00 0. -1.
          4   -1    0    0  501    0  0.00000000000E+00 -0.00000000000E+00 -0.41799431306E+03  0.41799431306E+03  0.00000000000E+00 0.  1.
          5    1    1    2  502    0  0.22214602688E+02  0.41969767117E+02 -0.15764249548E+03  0.16470639425E+03  0.47000000000E+01 0. -1.
         -5    1    1    2    0  502  0.72990605646E+02 -0.54497235504E+02 -0.85240516028E+02  0.12484235164E+03  0.47000000000E+01 0. -1.
        -11    1    1    2    0    0 -0.13453355993E+02 -0.29134294453E+02 -0.71458196602E+01  0.32876475471E+02  0.00000000000E+00 0. -1.
         11    1    1    2    0    0 -0.81751852341E+02  0.41661762840E+02 -0.11579392185E+03  0.14774065175E+03  0.00000000000E+00 0.  1.
<mgrwt>
<rscale>  0 0.15087906E+03</rscale>
<asrwt>0</asrwt>
<pdfrwt beam="2">  1        4 0.64306819E-01 0.15762715E+03</pdfrwt>
<pdfrwt beam="1">  1       -4 0.80263937E-02 0.15762715E+03</pdfrwt>
<totfact> 0.42963585E+02</totfact>
</mgrwt>
</event>
<event>
 6    1  0.4705246E-006  0.1436358E+03  0.7546771E-02  0.1219129E+00
          3   -1    0    0  501    0  0.00000000000E+00  0.00000000000E+00  0.50902974989E+02  0.50902974989E+02  0.00000000000E+00 0. -1.
         -3   -1    0    0    0  501 -0.00000000000E+00 -0.00000000000E+00 -0.36108862167E+03  0.36108862167E+03  0.00000000000E+00 0.  1.
          5    1    1    2  502    0  0.28984103946E+02  0.10183195705E+01 -0.93957001292E+02  0.98443503331E+02  0.47000000000E+01 0.  1.
         -5    1    1    2    0  502 -0.36508435130E+02 -0.71374787419E+02 -0.14655257929E+02  0.81633894307E+02  0.47000000000E+01 0.  1.
        -11    1    1    2    0    0  0.28475164428E+02  0.50790078808E+02 -0.47352084249E+02  0.75051229019E+02  0.00000000000E+00 0. -1.
         11    1    1    2    0    0 -0.20950833244E+02  0.19566389040E+02 -0.15422130321E+03  0.15686297000E+03  0.00000000000E+00 0.  1.
<mgrwt>
<rscale>  0 0.13577585E+03</rscale>
<asrwt>0</asrwt>
<pdfrwt beam="1">  1        3 0.78312268E-02 0.14363581E+03</pdfrwt>
<pdfrwt beam="2">  1       -3 0.55552097E-01 0.14363581E+03</pdfrwt>
<totfact> 0.83039461E+02</totfact>
</mgrwt>
</event>
<event>
 6    1  0.4705246E-006  0.1350085E+03  0.7546771E-02  0.1233814E+00
          1   -1    0    0  501    0  0.00000000000E+00  0.00000000000E+00  0.29626738439E+03  0.29626738439E+03  0.00000000000E+00 0. -1.
         -1   -1    0    0    0  501 -0.00000000000E+00 -0.00000000000E+00 -0.52822812851E+02  0.52822812851E+02  0.00000000000E+00 0.  1.
          5    1    1    2  502    0  0.32158348831E+02  0.27988489059E+02  0.13896399451E+03  0.14543244716E+03  0.47000000000E+01 0.  1.
         -5    1    1    2    0  502 -0.58006274813E+01 -0.71673205358E+02  0.53893889058E+02  0.89985203913E+02  0.47000000000E+01 0.  1.
        -11    1    1    2    0    0 -0.39004619665E+02  0.17289991289E+02 -0.12220465093E+02  0.44380670579E+02  0.00000000000E+00 0.  1.
         11    1    1    2    0    0  0.12646898316E+02  0.26394725010E+02  0.62807153069E+02  0.69291875585E+02  0.00000000000E+00 0. -1.
<mgrwt>
<rscale>  0 0.12580667E+03</rscale>
<asrwt>0</asrwt>
<pdfrwt beam="1">  1        1 0.45579597E-01 0.13500854E+03</pdfrwt>
<pdfrwt beam="2">  1       -1 0.81265868E-02 0.13500854E+03</pdfrwt>
<totfact> 0.71202581E+03</totfact>
</mgrwt>
</event>
<event>
 6    1  0.4705246E-006  0.4614901E+03  0.7546771E-02  0.1024350E+00
         -2   -1    0    0    0  501 -0.00000000000E+00  0.00000000000E+00  0.91095310443E+02  0.91095310443E+02  0.00000000000E+00 0.  1.
          2   -1    0    0  501    0  0.00000000000E+00 -0.00000000000E+00 -0.58447885521E+03  0.58447885521E+03  0.00000000000E+00 0. -1.
          5    1    1    2  502    0  0.18793562543E+02  0.65958727013E+02 -0.74188565930E+02  0.10114239950E+03  0.47000000000E+01 0. -1.
         -5    1    1    2    0  502 -0.62966904122E+02 -0.41504851085E+02 -0.10059471029E+03  0.12581283487E+03  0.47000000000E+01 0.  1.
        -11    1    1    2    0    0  0.32492929061E+00 -0.10088260446E+03  0.16414965736E+02  0.10220986529E+03  0.00000000000E+00 0.  1.
         11    1    1    2    0    0  0.43848412289E+02  0.76428728531E+02 -0.33501523428E+03  0.34640906600E+03  0.00000000000E+00 0. -1.
<mgrwt>
<rscale>  0 0.46149012E+03</rscale>
<asrwt>0</asrwt>
<pdfrwt beam="2">  1        2 0.89919826E-01 0.46149012E+03</pdfrwt>
<pdfrwt beam="1">  1       -2 0.14014663E-01 0.46149012E+03</pdfrwt>
<totfact> 0.20045934E+03</totfact>
</mgrwt>
</event>
<event>
 6    1  0.4705246E-006  0.1800751E+03  0.7546771E-02  0.1204168E+00
          2   -1    0    0  501    0  0.00000000000E+00  0.00000000000E+00  0.12132582513E+04  0.12132582513E+04  0.00000000000E+00 0. -1.
         -2   -1    0    0    0  501 -0.00000000000E+00 -0.00000000000E+00 -0.21752376961E+02  0.21752376961E+02  0.00000000000E+00 0.  1.
          5    1    1    2  502    0 -0.15107407756E+02  0.57647039972E+02  0.86223043791E+03  0.86430019845E+03  0.47000000000E+01 0. -1.
         -5    1    1    2    0  502 -0.61988961943E+02 -0.46607083849E+02  0.23242752353E+03  0.24507038859E+03  0.47000000000E+01 0.  1.
        -11    1    1    2    0    0  0.52339367039E+02 -0.14887891709E+02  0.59118375410E+02  0.80349492672E+02  0.00000000000E+00 0. -1.
         11    1    1    2    0    0  0.24757002660E+02  0.38479355866E+01  0.37729537507E+02  0.45290548567E+02  0.00000000000E+00 0.  1.
<mgrwt>
<rscale>  0 0.14703232E+03</rscale>
<asrwt>0</asrwt>
<pdfrwt beam="1">  1        2 0.18665506E+00 0.18007511E+03</pdfrwt>
<pdfrwt beam="2">  1       -2 0.33465205E-02 0.18007511E+03</pdfrwt>
<totfact> 0.69596196E+03</totfact>
</mgrwt>
</event>
<event>
 6    1  0.4705246E-006  0.1529839E+03  0.7546771E-02  0.1206561E+00
         -2   -1    0    0    0  501 -0.00000000000E+00  0.00000000000E+00  0.53778542565E+02  0.53778542565E+02  0.00000000000E+00 0.  1.
          2   -1    0    0  501    0  0.00000000000E+00 -0.00000000000E+00 -0.50057233985E+03  0.50057233985E+03  0.00000000000E+00 0. -1.
          5    1    1    2  502    0 -0.24469325465E+02 -0.32423882474E+02 -0.80639519689E+02  0.90415032926E+02  0.47000000000E+01 0. -1.
         -5    1    1    2    0  502  0.10997251309E+03  0.10797048379E+02 -0.30749267713E+03  0.32677877284E+03  0.47000000000E+01 0. -1.
        -11    1    1    2    0    0  0.10174530010E+02 -0.16031997061E+02 -0.19253839310E+02  0.27041751402E+02  0.00000000000E+00 0. -1.
         11    1    1    2    0    0 -0.95677717633E+02  0.37658831156E+02 -0.39407761158E+02  0.11011532525E+03  0.00000000000E+00 0.  1.
<mgrwt>
<rscale>  0 0.14515153E+03</rscale>
<asrwt>0</asrwt>
<pdfrwt beam="2">  1        2 0.77011127E-01 0.15298389E+03</pdfrwt>
<pdfrwt beam="1">  1       -2 0.82736222E-02 0.15298389E+03</pdfrwt>
<totfact> 0.54023648E+03</totfact>
</mgrwt>
</event>
<event>
 6    1  0.4705246E-006  0.1526774E+03  0.7546771E-02  0.1212766E+00
         -1   -1    0    0    0  501 -0.00000000000E+00  0.00000000000E+00  0.62948321658E+02  0.62948321658E+02  0.00000000000E+00 0.  1.
          1   -1    0    0  501    0  0.00000000000E+00 -0.00000000000E+00 -0.53565509410E+03  0.53565509410E+03  0.00000000000E+00 0. -1.
          5    1    1    2  502    0 -0.26140437873E+02  0.62805235666E+02 -0.85380314538E+02  0.10926897194E+03  0.47000000000E+01 0.  1.
         -5    1    1    2    0  502 -0.37314118918E+01  0.19603946250E+02 -0.37924144552E+03  0.37979521079E+03  0.47000000000E+01 0.  1.
        -11    1    1    2    0    0  0.48372437538E+02 -0.73133117601E+02 -0.10794305506E+01  0.87689855592E+02  0.00000000000E+00 0.  1.
         11    1    1    2    0    0 -0.18500587774E+02 -0.92760643149E+01 -0.70055818365E+01  0.21849377428E+02  0.00000000000E+00 0. -1.
<mgrwt>
<rscale>  0 0.14041936E+03</rscale>
<asrwt>0</asrwt>
<pdfrwt beam="2">  1        1 0.82408477E-01 0.15267742E+03</pdfrwt>
<pdfrwt beam="1">  1       -1 0.96843570E-02 0.15267742E+03</pdfrwt>
<totfact> 0.25876652E+03</totfact>
</mgrwt>
</event>
<event>
 6    1  0.4705246E-006  0.1640303E+03  0.7546771E-02  0.1191942E+00
          2   -1    0    0  501    0  0.00000000000E+00  0.00000000000E+00  0.11770948283E+03  0.11770948283E+03  0.00000000000E+00 0. -1.
         -2   -1    0    0    0  501 -0.00000000000E+00 -0.00000000000E+00 -0.28305504161E+03  0.28305504161E+03  0.00000000000E+00 0.  1.
          5    1    1    2  502    0 -0.55266686710E+02  0.11285817061E+03  0.24693950034E+02  0.12815324616E+03  0.47000000000E+01 0.  1.
         -5    1    1    2    0  502 -0.15795595543E+02 -0.33916857845E+02 -0.11134530512E+00  0.37708838254E+02  0.47000000000E+01 0.  1.
        -11    1    1    2    0    0  0.25488308731E+02 -0.60035853986E+01 -0.12345876976E+03  0.12620524851E+03  0.00000000000E+00 0.  1.
         11    1    1    2    0    0  0.45573973523E+02 -0.72937727370E+02 -0.66469393754E+02  0.10869719151E+03  0.00000000000E+00 0. -1.
<mgrwt>
<rscale>  0 0.15715944E+03</rscale>
<asrwt>0</asrwt>
<pdfrwt beam="1">  1        2 0.18109151E-01 0.16403026E+03</pdfrwt>
<pdfrwt beam="2">  1       -2 0.43546930E-01 0.16403026E+03</pdfrwt>
<totfact> 0.15466440E+03</totfact>
</mgrwt>
</event>
<event>
 6    1  0.4705246E-006  0.1302063E+03  0.7546771E-02  0.1240073E+00
         -1   -1    0    0    0  501 -0.00000000000E+00  0.00000000000E+00  0.10457023686E+03  0.10457023686E+03  0.00000000000E+00 0.  1.
          1   -1    0    0  501    0  0.00000000000E+00 -0.00000000000E+00 -0.12658217462E+03  0.12658217462E+03  0.00000000000E+00 0. -1.
          5    1    1    2  502    0 -0.72059565104E+02  0.24502535341E+02 -0.35874503023E+02  0.84273513800E+02  0.47000000000E+01 0.  1.
         -5    1    1    2    0  502  0.35908420408E+02 -0.19951226105E+02  0.21711883637E+02  0.46700770555E+02  0.47000000000E+01 0.  1.
        -11    1    1    2    0    0  0.58967116037E+02 -0.14145403779E+02  0.19110121711E+02  0.63579949463E+02  0.00000000000E+00 0.  1.
         11    1    1    2    0    0 -0.22815971342E+02  0.95940945438E+01 -0.26959440092E+02  0.36598177665E+02  0.00000000000E+00 0. -1.
<mgrwt>
<rscale>  0 0.12185208E+03</rscale>
<asrwt>0</asrwt>
<pdfrwt beam="2">  1        1 0.19474181E-01 0.13020631E+03</pdfrwt>
<pdfrwt beam="1">  1       -1 0.16087729E-01 0.13020631E+03</pdfrwt>
<totfact> 0.71712595E+03</totfact>
</mgrwt>
</event>
<event>
 6    1  0.4705246E-006  0.1264150E+03  0.7546771E-02  0.1247524E+00
          4   -1    0    0  501    0  0.00000000000E+00  0.00000000000E+00  0.23651343148E+03  0.23651343148E+03  0.00000000000E+00 0. -1.
         -4   -1    0    0    0  501 -0.00000000000E+00 -0.00000000000E+00 -0.51352637459E+02  0.51352637459E+02  0.00000000000E+00 0.  1.
          5    1    1    2  502    0 -0.36697465947E+02 -0.95529725237E+01  0.10282808551E+03  0.10969807865E+03  0.47000000000E+01 0.  1.
         -5    1    1    2    0  502  0.52360797684E+02 -0.83987368762E+00 -0.10623724213E+01  0.52588755044E+02  0.47000000000E+01 0.  1.
        -11    1    1    2    0    0 -0.49168979409E+02  0.48938033707E+01  0.76283685112E+02  0.90888604686E+02  0.00000000000E+00 0. -1.
         11    1    1    2    0    0  0.33505647672E+02  0.54990428406E+01  0.71113958269E+01  0.34690630560E+02  0.00000000000E+00 0.  1.
<mgrwt>
<rscale>  0 0.11735572E+03</rscale>
<asrwt>0</asrwt>
<pdfrwt beam="1">  1        4 0.36386681E-01 0.12641502E+03</pdfrwt>
<pdfrwt beam="2">  1       -4 0.79004059E-02 0.12641502E+03</pdfrwt>
<totfact> 0.13406270E+03</totfact>
</mgrwt>
</event>
<event>
 6    1  0.4705246E-006  0.1436195E+03  0.7546771E-02  0.1220529E+00
          3   -1    0    0  501    0  0.00000000000E+00  0.00000000000E+00  0.11212005733E+04  0.11212005733E+04  0.00000000000E+00 0. -1.
         -3   -1    0    0    0  501 -0.00000000000E+00 -0.00000000000E+00 -0.24929334918E+02  0.24929334918E+02  0.00000000000E+00 0.  1.
          5    1    1    2  502    0 -0.18621257965E+01  0.29174128186E+02  0.64773554236E+02  0.71220085624E+02  0.47000000000E+01 0. -1.
         -5    1    1    2    0  502  0.67671232900E+02 -0.55070461598E+02  0.89256677277E+03  0.89683314242E+03  0.47000000000E+01 0. -1.
        -11    1    1    2    0    0 -0.74606935370E+01  0.10049667462E+02 -0.10842627924E+02  0.16559599767E+02  0.00000000000E+00 0.  1.
         11    1    1    2    0    0 -0.58348413567E+02  0.15846665950E+02  0.14977353934E+03  0.16151708044E+03  0.00000000000E+00 0. -1.
<mgrwt>
<rscale>  0 0.13478119E+03</rscale>
<asrwt>0</asrwt>
<pdfrwt beam="1">  1        3 0.17249236E+00 0.14361946E+03</pdfrwt>
<pdfrwt beam="2">  1       -3 0.38352832E-02 0.14361946E+03</pdfrwt>
<totfact> 0.19674613E+02</totfact>
</mgrwt>
</event>
<event>
 6    1  0.4705246E-006  0.1832057E+03  0.7546771E-02  0.1170197E+00
         -2   -1    0    0    0  501 -0.00000000000E+00  0.00000000000E+00  0.37430828832E+02  0.37430828832E+02  0.00000000000E+00 0.  1.
          2   -1    0    0  501    0  0.00000000000E+00 -0.00000000000E+00 -0.80120769794E+03  0.80120769794E+03  0.00000000000E+00 0. -1.
          5    1    1    2  502    0 -0.72800324639E+02 -0.52219499833E+02 -0.41954754063E+03  0.42903262380E+03  0.47000000000E+01 0. -1.
         -5    1    1    2    0  502 -0.42465384573E+02 -0.15994097249E+02 -0.25533754009E+02  0.52279849154E+02  0.47000000000E+01 0. -1.
        -11    1    1    2    0    0  0.47964485625E+02  0.56012296564E+02 -0.24893669890E+03  0.25962944615E+03  0.00000000000E+00 0. -1.
         11    1    1    2    0    0  0.67301223586E+02  0.12201300518E+02 -0.69758875558E+02  0.97696607667E+02  0.00000000000E+00 0.  1.
<mgrwt>
<rscale>  0 0.17754793E+03</rscale>
<asrwt>0</asrwt>
<pdfrwt beam="2">  1        2 0.12326272E+00 0.18320573E+03</pdfrwt>
<pdfrwt beam="1">  1       -2 0.57585892E-02 0.18320573E+03</pdfrwt>
<totfact> 0.54859017E+03</totfact>
</mgrwt>
</event>
<event>
 6    1  0.4705246E-006  0.2007038E+03  0.7546771E-02  0.1153386E+00
         -2   -1    0    0    0  501 -0.00000000000E+00  0.00000000000E+00  0.54401017749E+02  0.54401017749E+02  0.00000000000E+00 0.  1.
          2   -1    0    0  501    0  0.00000000000E+00 -0.00000000000E+00 -0.12300320689E+04  0.12300320689E+04  0.00000000000E+00 0. -1.
          5    1    1    2  502    0 -0.21142272901E+02 -0.52343277783E+02 -0.49329914894E+03  0.49654099003E+03  0.47000000000E+01 0.  1.
         -5    1    1    2    0  502 -0.13173627455E+03  0.16504996177E+02 -0.54303804106E+03  0.55905211293E+03  0.47000000000E+01 0.  1.
        -11    1    1    2    0    0  0.97963751303E+01 -0.24261409852E+02 -0.16373030195E+02  0.30865208431E+02  0.00000000000E+00 0. -1.
         11    1    1    2    0    0  0.14308217233E+03  0.60099691458E+02 -0.12292083092E+03  0.19797477522E+03  0.00000000000E+00 0.  1.
<mgrwt>
<rscale>  0 0.19573717E+03</rscale>
<asrwt>0</asrwt>
<pdfrwt beam="2">  1        2 0.18923568E+00 0.20070383E+03</pdfrwt>
<pdfrwt beam="1">  1       -2 0.83693884E-02 0.20070383E+03</pdfrwt>
<totfact> 0.16932669E+03</totfact>
</mgrwt>
</event>
<event>
 6    1  0.4705246E-006  0.4007649E+03  0.7546771E-02  0.1043515E+00
          1   -1    0    0  501    0  0.00000000000E+00  0.00000000000E+00  0.67412441098E+03  0.67412441098E+03  0.00000000000E+00 0. -1.
         -1   -1    0    0    0  501 -0.00000000000E+00 -0.00000000000E+00 -0.59563377515E+02  0.59563377515E+02  0.00000000000E+00 0.  1.
          5    1    1    2  502    0  0.11274206886E+01  0.14012991403E+03  0.32849396467E+03  0.35716668196E+03  0.47000000000E+01 0.  1.
         -5    1    1    2    0  502  0.25204057571E+02  0.25883943099E+02  0.51648423252E+01  0.36796584416E+02  0.47000000000E+01 0.  1.
        -11    1    1    2    0    0  0.88686343780E+01 -0.56631070735E+02  0.32166626290E+02  0.65729922374E+02  0.00000000000E+00 0.  1.
         11    1    1    2    0    0 -0.35200112638E+02 -0.10938278639E+03  0.24873560019E+03  0.27399459974E+03  0.00000000000E+00 0. -1.
<mgrwt>
<rscale>  0 0.40076490E+03</rscale>
<asrwt>0</asrwt>
<pdfrwt beam="1">  1        1 0.10371144E+00 0.40076490E+03</pdfrwt>
<pdfrwt beam="2">  1       -1 0.91635970E-02 0.40076490E+03</pdfrwt>
<totfact> 0.20863022E+03</totfact>
</mgrwt>
</event>
<event>
 6    1  0.4705246E-006  0.4103970E+03  0.7546771E-02  0.1040238E+00
          2   -1    0    0  501    0  0.00000000000E+00  0.00000000000E+00  0.37045697293E+03  0.37045697293E+03  0.00000000000E+00 0. -1.
         -2   -1    0    0    0  501 -0.00000000000E+00 -0.00000000000E+00 -0.11366074681E+03  0.11366074681E+03  0.00000000000E+00 0.  1.
          5    1    1    2  502    0  0.79074286795E+02 -0.13943655222E+03  0.23039325100E+03  0.28071058946E+03  0.47000000000E+01 0. -1.
         -5    1    1    2    0  502  0.78273931414E+01  0.25658563590E+02  0.20724503186E+02  0.34223164687E+02  0.47000000000E+01 0. -1.
        -11    1    1    2    0    0 -0.64644548547E+02  0.64953886184E+02  0.45547793611E+02  0.10233536285E+03  0.00000000000E+00 0. -1.
         11    1    1    2    0    0 -0.22257131389E+02  0.48824102444E+02 -0.39869321680E+02  0.66848602740E+02  0.00000000000E+00 0.  1.
<mgrwt>
<rscale>  0 0.41039696E+03</rscale>
<asrwt>0</asrwt>
<pdfrwt beam="1">  1        2 0.56993380E-01 0.41039696E+03</pdfrwt>
<pdfrwt beam="2">  1       -2 0.17486269E-01 0.41039696E+03</pdfrwt>
<totfact> 0.23121232E+03</totfact>
</mgrwt>
</event>
<event>
 6    1  0.4705246E-006  0.1561122E+03  0.7546771E-02  0.1200406E+00
          2   -1    0    0  501    0  0.00000000000E+00  0.00000000000E+00  0.31393432769E+03  0.31393432769E+03  0.00000000000E+00 0.  1.
         -2   -1    0    0    0  501 -0.00000000000E+00 -0.00000000000E+00 -0.80846322145E+02  0.80846322145E+02  0.00000000000E+00 0. -1.
          5    1    1    2  502    0  0.91627266489E+02  0.55612378183E+02  0.88705125940E+02  0.13920841188E+03  0.47000000000E+01 0.  1.
         -5    1    1    2    0  502 -0.52431486186E+01 -0.19781226534E+02  0.11784388525E+03  0.11969986977E+03  0.47000000000E+01 0.  1.
        -11    1    1    2    0    0 -0.10335291719E+03 -0.37218491746E+02  0.36971496635E+02  0.11590484539E+03  0.00000000000E+00 0.  1.
         11    1    1    2    0    0  0.16968799323E+02  0.13873400973E+01 -0.10432502279E+02  0.19967522802E+02  0.00000000000E+00 0. -1.
<mgrwt>
<rscale>  0 0.15005438E+03</rscale>
<asrwt>0</asrwt>
<pdfrwt beam="1">  1        2 0.48297588E-01 0.15611215E+03</pdfrwt>
<pdfrwt beam="2">  1       -2 0.12437896E-01 0.15611215E+03</pdfrwt>
<totfact> 0.46965200E+03</totfact>
</mgrwt>
</event>
<event>
 6    1  0.4705246E-006  0.1280629E+03  0.7546771E-02  0.1241863E+00
         -1   -1    0    0    0  501 -0.00000000000E+00  0.00000000000E+00  0.17265402211E+02  0.17265402211E+02  0.00000000000E+00 0.  1.
          1   -1    0    0  501    0  0.00000000000E+00 -0.00000000000E+00 -0.80450959295E+03  0.80450959295E+03  0.00000000000E+00 0. -1.
          5    1    1    2  502    0  0.59006421743E+02 -0.45765237811E+02 -0.24756379457E+03  0.25862354336E+03  0.47000000000E+01 0. -1.
         -5    1    1    2    0  502 -0.42400914281E+02  0.23484648622E+02 -0.28430551805E+03  0.28844598081E+03  0.47000000000E+01 0. -1.
        -11    1    1    2    0    0  0.38248770586E+02 -0.38724242940E+01 -0.73506422825E+02  0.82952747500E+02  0.00000000000E+00 0. -1.
         11    1    1    2    0    0 -0.54854278048E+02  0.26153013483E+02 -0.18186845529E+03  0.19175272349E+03  0.00000000000E+00 0.  1.
<mgrwt>
<rscale>  0 0.12075101E+03</rscale>
<asrwt>0</asrwt>
<pdfrwt beam="2">  1        1 0.12377076E+00 0.12806287E+03</pdfrwt>
<pdfrwt beam="1">  1       -1 0.26562147E-02 0.12806287E+03</pdfrwt>
<totfact> 0.98728060E+03</totfact>
</mgrwt>
</event>
<event>
 6    1  0.4705246E-006  0.3519416E+03  0.7546771E-02  0.1062244E+00
          2   -1    0    0  501    0  0.00000000000E+00  0.00000000000E+00  0.10425121205E+04  0.10425121205E+04  0.00000000000E+00 0. -1.
         -2   -1    0    0    0  501 -0.00000000000E+00 -0.00000000000E+00 -0.11796150373E+03  0.11796150373E+03  0.00000000000E+00 0.  1.
          5    1    1    2  502    0 -0.60797802832E+02  0.11767607267E+03  0.10213206745E+03  0.16732328024E+03  0.47000000000E+01 0.  1.
         -5    1    1    2    0  502 -0.92447607507E+02  0.17344748159E+03  0.40203919070E+03  0.44753568557E+03  0.47000000000E+01 0.  1.
        -11    1    1    2    0    0  0.13795589163E+02 -0.14042007572E+03  0.14752521402E+03  0.20413673045E+03  0.00000000000E+00 0.  1.
         11    1    1    2    0    0  0.13944982118E+03 -0.15070347853E+03  0.27285414464E+03  0.34147792801E+03  0.00000000000E+00 0. -1.
<mgrwt>
<rscale>  0 0.35090585E+03</rscale>
<asrwt>0</asrwt>
<pdfrwt beam="1">  1        2 0.16038647E+00 0.35194160E+03</pdfrwt>
<pdfrwt beam="2">  1       -2 0.18147924E-01 0.35194160E+03</pdfrwt>
<totfact> 0.61313558E+02</totfact>
</mgrwt>
</event>
<event>
 6    1  0.4705246E-006  0.1544300E+03  0.7546771E-02  0.1202950E+00
         -2   -1    0    0    0  501 -0.00000000000E+00  0.00000000000E+00  0.62954825328E+03  0.62954825328E+03  0.00000000000E+00 0.  1.
          2   -1    0    0  501    0  0.00000000000E+00 -0.00000000000E+00 -0.56060581000E+02  0.56060581000E+02  0.00000000000E+00 0. -1.
          5    1    1    2  502    0  0.52219896604E+02  0.17985520494E+01  0.60707830595E+02  0.80235173623E+02  0.47000000000E+01 0. -1.
         -5    1    1    2    0  502 -0.23471120364E+02 -0.87804143051E+02  0.16770870623E+02  0.92540872751E+02  0.47000000000E+01 0. -1.
        -11    1    1    2    0    0 -0.44938163308E+02  0.64647052049E+01  0.12345329761E+03  0.13153686794E+03  0.00000000000E+00 0. -1.
         11    1    1    2    0    0  0.16189387068E+02  0.79540885796E+02  0.37255567345E+03  0.38129591997E+03  0.00000000000E+00 0.  1.
<mgrwt>
<rscale>  0 0.14800184E+03</rscale>
<asrwt>0</asrwt>
<pdfrwt beam="2">  1        2 0.86247052E-02 0.15442996E+03</pdfrwt>
<pdfrwt beam="1">  1       -2 0.96853572E-01 0.15442996E+03</pdfrwt>
<totfact> 0.70224210E+02</totfact>
</mgrwt>
</event>
<event>
 6    1  0.4705246E-006  0.1724645E+03  0.7546771E-02  0.1181739E+00
         -1   -1    0    0    0  501 -0.00000000000E+00  0.00000000000E+00  0.92138219123E+02  0.92138219123E+02  0.00000000000E+00 0.  1.
          1   -1    0    0  501    0  0.00000000000E+00 -0.00000000000E+00 -0.34053865974E+03  0.34053865974E+03  0.00000000000E+00 0. -1.
          5    1    1    2  502    0 -0.20035871095E+02  0.35952785676E+02 -0.16406613289E+00  0.41426511392E+02  0.47000000000E+01 0. -1.
         -5    1    1    2    0  502 -0.90243260732E+02  0.82807179452E+01 -0.22194174382E+03  0.23977623746E+03  0.47000000000E+01 0. -1.
        -11    1    1    2    0    0  0.45392178300E+02  0.41560477345E+01  0.28472009876E+02  0.53743631530E+02  0.00000000000E+00 0.  1.
         11    1    1    2    0    0  0.64886953527E+02 -0.48389551356E+02 -0.54766640535E+02  0.97730498484E+02  0.00000000000E+00 0. -1.
<mgrwt>
<rscale>  0 0.16632147E+03</rscale>
<asrwt>0</asrwt>
<pdfrwt beam="2">  1        1 0.52390564E-01 0.17246448E+03</pdfrwt>
<pdfrwt beam="1">  1       -1 0.14175111E-01 0.17246448E+03</pdfrwt>
<totfact> 0.25760655E+03</totfact>
</mgrwt>
</event>
<event>
 6    1  0.4705246E-006  0.1718449E+03  0.7546771E-02  0.1176500E+00
          2   -1    0    0  501    0  0.00000000000E+00  0.00000000000E+00  0.42772460331E+03  0.42772460331E+03  0.00000000000E+00 0. -1.
         -2   -1    0    0    0  501 -0.00000000000E+00 -0.00000000000E+00 -0.71011276162E+02  0.71011276162E+02  0.00000000000E+00 0.  1.
          5    1    1    2  502    0  0.27814686014E+02 -0.66670903828E+02  0.92485731307E+02  0.11744942176E+03  0.47000000000E+01 0. -1.
         -5    1    1    2    0  502 -0.94417576574E+02 -0.30643399421E+02  0.13682714677E+03  0.16910782001E+03  0.47000000000E+01 0. -1.
        -11    1    1    2    0    0  0.10278750326E+03  0.73206744272E+02  0.95023839009E+02  0.15796844056E+03  0.00000000000E+00 0.  1.
         11    1    1    2    0    0 -0.36184612698E+02  0.24107558977E+02  0.32376610061E+02  0.54210197149E+02  0.00000000000E+00 0. -1.
<mgrwt>
<rscale>  0 0.17129928E+03</rscale>
<asrwt>0</asrwt>
<pdfrwt beam="1">  1        2 0.65803783E-01 0.17184486E+03</pdfrwt>
<pdfrwt beam="2">  1       -2 0.10924812E-01 0.17184486E+03</pdfrwt>
<totfact> 0.41677723E+03</totfact>
</mgrwt>
</event>
<event>
 6    1  0.4705246E-006  0.1239011E+03  0.7546771E-02  0.1247025E+00
          2   -1    0    0  501    0  0.00000000000E+00  0.00000000000E+00  0.43708238102E+03  0.43708238102E+03  0.00000000000E+00 0. -1.
         -2   -1    0    0    0  501 -0.00000000000E+00 -0.00000000000E+00 -0.36517488304E+02  0.36517488304E+02  0.00000000000E+00 0.  1.
          5    1    1    2  502    0  0.35270371317E+02 -0.23488454177E+02  0.25822975797E+03  0.26172581927E+03  0.47000000000E+01 0. -1.
         -5    1    1    2    0  502 -0.52983976247E+02 -0.10620738248E+02  0.66361683672E+02  0.85709187837E+02  0.47000000000E+01 0.  1.
        -11    1    1    2    0    0  0.13864836319E+02  0.53588222181E+02  0.87123274378E+01  0.56034238570E+02  0.00000000000E+00 0.  1.
         11    1    1    2    0    0  0.38487686106E+01 -0.19479029756E+02  0.67261123634E+02  0.70130623643E+02  0.00000000000E+00 0. -1.
<mgrwt>
<rscale>  0 0.11764978E+03</rscale>
<asrwt>0</asrwt>
<pdfrwt beam="1">  1        2 0.67243439E-01 0.12390109E+03</pdfrwt>
<pdfrwt beam="2">  1       -2 0.56180754E-02 0.12390109E+03</pdfrwt>
<totfact> 0.11166368E+04</totfact>
</mgrwt>
</event>
<event>
 6    1  0.4705246E-006  0.1268484E+03  0.7546771E-02  0.1246503E+00
         -1   -1    0    0    0  501 -0.00000000000E+00  0.00000000000E+00  0.33275386423E+03  0.33275386423E+03  0.00000000000E+00 0.  1.
          1   -1    0    0  501    0  0.00000000000E+00 -0.00000000000E+00 -0.67383507453E+02  0.67383507453E+02  0.00000000000E+00 0. -1.
          5    1    1    2  502    0 -0.62120815226E+02 -0.12272129826E+02 -0.22108281288E+02  0.67234417945E+02  0.47000000000E+01 0. -1.
         -5    1    1    2    0  502  0.48120650816E+02  0.16201161363E+02  0.31554024218E+02  0.59965165794E+02  0.47000000000E+01 0.  1.
        -11    1    1    2    0    0  0.46412126424E+02 -0.21451154970E+02  0.19628236063E+03  0.20283244963E+03  0.00000000000E+00 0.  1.
         11    1    1    2    0    0 -0.32411962013E+02  0.17522123434E+02  0.59642253220E+02  0.70105338316E+02  0.00000000000E+00 0. -1.
<mgrwt>
<rscale>  0 0.11795863E+03</rscale>
<asrwt>0</asrwt>
<pdfrwt beam="2">  1        1 0.10366694E-01 0.12684838E+03</pdfrwt>
<pdfrwt beam="1">  1       -1 0.51192901E-01 0.12684838E+03</pdfrwt>
<totfact> 0.23214223E+03</totfact>
</mgrwt>
</event>
<event>
 6    1  0.4705246E-006  0.3000904E+03  0.7546771E-02  0.1086747E+00
          2   -1    0    0  501    0  0.00000000000E+00  0.00000000000E+00  0.56865740730E+03  0.56865740730E+03  0.00000000000E+00 0. -1.
         -2   -1    0    0    0  501 -0.00000000000E+00 -0.00000000000E+00 -0.16338297782E+03  0.16338297782E+03  0.00000000000E+00 0.  1.
          5    1    1    2  502    0  0.61525768705E+02  0.15965144535E+03  0.26807700498E+03  0.31805876000E+03  0.47000000000E+01 0. -1.
         -5    1    1    2    0  502  0.51534912805E+02  0.88635940996E+02  0.34973946453E+02  0.10843174906E+03  0.47000000000E+01 0. -1.
        -11    1    1    2    0    0 -0.80395363323E+02 -0.24124787999E+03  0.94258431346E+02  0.27119846225E+03  0.00000000000E+00 0.  1.
         11    1    1    2    0    0 -0.32665318187E+02 -0.70395063536E+01  0.79650466987E+01  0.34351413811E+02  0.00000000000E+00 0. -1.
<mgrwt>
<rscale>  0 0.29700633E+03</rscale>
<asrwt>0</asrwt>
<pdfrwt beam="1">  1        2 0.87485754E-01 0.30009044E+03</pdfrwt>
<pdfrwt beam="2">  1       -2 0.25135843E-01 0.30009044E+03</pdfrwt>
<totfact> 0.75849913E+02</totfact>
</mgrwt>
</event>
<event>
 6    1  0.4705246E-006  0.1369949E+03  0.7546771E-02  0.1229002E+00
         -2   -1    0    0    0  501 -0.00000000000E+00  0.00000000000E+00  0.27883901201E+03  0.27883901201E+03  0.00000000000E+00 0. -1.
          2   -1    0    0  501    0  0.00000000000E+00 -0.00000000000E+00 -0.53844954038E+02  0.53844954038E+02  0.00000000000E+00 0.  1.
          5    1    1    2  502    0  0.34857964518E+02  0.37706898782E+01  0.82489843298E+01  0.36323980165E+02  0.47000000000E+01 0. -1.
         -5    1    1    2    0  502 -0.90562302763E+02  0.18549011379E+01  0.12809244187E+03  0.15695456350E+03  0.47000000000E+01 0. -1.
        -11    1    1    2    0    0  0.13847741580E+02 -0.32769533609E+02  0.81605215201E+02  0.89022544492E+02  0.00000000000E+00 0. -1.
         11    1    1    2    0    0  0.41856596665E+02  0.27143942593E+02  0.70474165696E+01  0.50382877887E+02  0.00000000000E+00 0.  1.
<mgrwt>
<rscale>  0 0.12896342E+03</rscale>
<asrwt>0</asrwt>
<pdfrwt beam="2">  1        2 0.82838392E-02 0.13699493E+03</pdfrwt>
<pdfrwt beam="1">  1       -2 0.42898309E-01 0.13699493E+03</pdfrwt>
<totfact> 0.40380774E+03</totfact>
</mgrwt>
</event>
<event>
 6    1  0.4705246E-006  0.2057956E+03  0.7546771E-02  0.1165692E+00
          2   -1    0    0  501    0  0.00000000000E+00  0.00000000000E+00  0.10457752348E+04  0.10457752348E+04  0.00000000000E+00 0. -1.
         -2   -1    0    0    0  501 -0.00000000000E+00 -0.00000000000E+00 -0.56233900432E+02  0.56233900432E+02  0.00000000000E+00 0.  1.
          5    1    1    2  502    0  0.44926346771E+02  0.98307001203E+02  0.89745573113E+03  0.90395327449E+03  0.47000000000E+01 0. -1.
         -5    1    1    2    0  502 -0.39846965553E+02 -0.12595547081E+02  0.48789140082E+02  0.64411945010E+02  0.47000000000E+01 0.  1.
        -11    1    1    2    0    0 -0.14404227187E+02 -0.93952342234E+02  0.70391497634E+01  0.95310408674E+02  0.00000000000E+00 0.  1.
         11    1    1    2    0    0  0.93248459685E+01  0.82408881127E+01  0.36257313426E+02  0.38333507093E+02  0.00000000000E+00 0. -1.
<mgrwt>
<rscale>  0 0.18219857E+03</rscale>
<asrwt>0</asrwt>
<pdfrwt beam="1">  1        2 0.16088848E+00 0.20579563E+03</pdfrwt>
<pdfrwt beam="2">  1       -2 0.86513701E-02 0.20579563E+03</pdfrwt>
<totfact> 0.20522837E+03</totfact>
</mgrwt>
</event>
<event>
 6    1  0.4705246E-006  0.2064473E+03  0.7546771E-02  0.1148479E+00
          2   -1    0    0  501    0  0.00000000000E+00  0.00000000000E+00  0.14554031111E+03  0.14554031111E+03  0.00000000000E+00 0. -1.
         -2   -1    0    0    0  501 -0.00000000000E+00 -0.00000000000E+00 -0.33587191416E+03  0.33587191416E+03  0.00000000000E+00 0.  1.
          5    1    1    2  502    0 -0.85927005012E+02  0.38668977434E+01  0.65854668019E+02  0.10843122423E+03  0.47000000000E+01 0. -1.
         -5    1    1    2    0  502 -0.76918306036E+02 -0.25744492526E+02 -0.55305717534E+02  0.98285385947E+02  0.47000000000E+01 0. -1.
        -11    1    1    2    0    0  0.13518248122E+03 -0.20029258986E+02 -0.13784817111E+03  0.19410716814E+03  0.00000000000E+00 0. -1.
         11    1    1    2    0    0  0.27662829824E+02  0.41906853769E+02 -0.63032382427E+02  0.80588446946E+02  0.00000000000E+00 0.  1.
<mgrwt>
<rscale>  0 0.20150114E+03</rscale>
<asrwt>0</asrwt>
<pdfrwt beam="1">  1        2 0.22390817E-01 0.20644727E+03</pdfrwt>
<pdfrwt beam="2">  1       -2 0.51672602E-01 0.20644727E+03</pdfrwt>
<totfact> 0.87279343E+02</totfact>
</mgrwt>
</event>
<event>
 6    1  0.4705246E-006  0.1614541E+03  0.7546771E-02  0.1214985E+00
          4   -1    0    0  501    0  0.00000000000E+00  0.00000000000E+00  0.66722456445E+03  0.66722456445E+03  0.00000000000E+00 0. -1.
         -4   -1    0    0    0  501 -0.00000000000E+00 -0.00000000000E+00 -0.27804192862E+02  0.27804192862E+02  0.00000000000E+00 0.  1.
          5    1    1    2  502    0 -0.86707227073E+02 -0.86630103166E+01  0.35321718061E+03  0.36383740551E+03  0.47000000000E+01 0. -1.
         -5    1    1    2    0  502  0.58424450511E+02 -0.38974275270E+02  0.17945101220E+03  0.19276194212E+03  0.47000000000E+01 0.  1.
        -11    1    1    2    0    0 -0.20775362784E+02  0.27239642762E+02  0.50791261106E+02  0.61264721017E+02  0.00000000000E+00 0. -1.
         11    1    1    2    0    0  0.49058139346E+02  0.20397642824E+02  0.55960917667E+02  0.77164688654E+02  0.00000000000E+00 0.  1.
<mgrwt>
<rscale>  0 0.13877659E+03</rscale>
<asrwt>0</asrwt>
<pdfrwt beam="1">  1        4 0.10264992E+00 0.16145411E+03</pdfrwt>
<pdfrwt beam="2">  1       -4 0.42775687E-02 0.16145411E+03</pdfrwt>
<totfact> 0.42446779E+02</totfact>
</mgrwt>
</event>
<event>
 6    1  0.4705246E-006  0.1299453E+03  0.7546771E-02  0.1241232E+00
          2   -1    0    0  501    0  0.00000000000E+00  0.00000000000E+00  0.65693297552E+03  0.65693297552E+03  0.00000000000E+00 0. -1.
         -2   -1    0    0    0  501 -0.00000000000E+00 -0.00000000000E+00 -0.26628345600E+02  0.26628345600E+02  0.00000000000E+00 0.  1.
          5    1    1    2  502    0 -0.25553615093E+02 -0.11415645672E+02  0.27590823343E+02  0.39580901242E+02  0.47000000000E+01 0.  1.
         -5    1    1    2    0  502  0.60785088991E+02  0.15672849092E+02  0.49209060049E+03  0.49610050829E+03  0.47000000000E+01 0.  1.
        -11    1    1    2    0    0 -0.38564075921E+02  0.37963634324E+02  0.48342072867E+02  0.72562948478E+02  0.00000000000E+00 0. -1.
         11    1    1    2    0    0  0.33326020225E+01 -0.42220837744E+02  0.62281133228E+02  0.75316963111E+02  0.00000000000E+00 0.  1.
<mgrwt>
<rscale>  0 0.12113769E+03</rscale>
<asrwt>0</asrwt>
<pdfrwt beam="1">  1        2 0.10106660E+00 0.12994534E+03</pdfrwt>
<pdfrwt beam="2">  1       -2 0.40966691E-02 0.12994534E+03</pdfrwt>
<totfact> 0.11426490E+04</totfact>
</mgrwt>
</event>
<event>
 6    1  0.4787644E-006  0.1719618E+03  0.7546771E-02  0.1182098E+00
          1   -1    0    0  501    0  0.00000000000E+00  0.00000000000E+00  0.15957089188E+04  0.15957089188E+04  0.00000000000E+00 0. -1.
         -1   -1    0    0    0  501 -0.00000000000E+00 -0.00000000000E+00 -0.16271530678E+02  0.16271530678E+02  0.00000000000E+00 0.  1.
          5    1    1    2  502    0  0.16943512855E+02 -0.76993193921E+02  0.20993441196E+03  0.22429797561E+03  0.47000000000E+01 0.  1.
         -5    1    1    2    0  502  0.42501337697E+02 -0.25047379649E+02  0.69938392363E+03  0.70113743129E+03  0.47000000000E+01 0.  1.
        -11    1    1    2    0    0 -0.89238740157E-01  0.80870142402E+02  0.46445028961E+03  0.47143828802E+03  0.00000000000E+00 0. -1.
         11    1    1    2    0    0 -0.59355611812E+02  0.21170431169E+02  0.20566876289E+03  0.21510675452E+03  0.00000000000E+00 0.  1.
<mgrwt>
<rscale>  0 0.16598714E+03</rscale>
<asrwt>0</asrwt>
<pdfrwt beam="1">  1        1 0.24549356E+00 0.17196179E+03</pdfrwt>
<pdfrwt beam="2">  1       -1 0.25033137E-02 0.17196179E+03</pdfrwt>
<totfact> 0.30369698E+03</totfact>
</mgrwt>
</event>
<event>
 6    1  0.5207561E-006  0.1258765E+03  0.7546771E-02  0.1248557E+00
         -1   -1    0    0    0  501 -0.00000000000E+00  0.00000000000E+00  0.19073212767E+02  0.19073212767E+02  0.00000000000E+00 0.  1.
          1   -1    0    0  501    0  0.00000000000E+00 -0.00000000000E+00 -0.71870882633E+03  0.71870882633E+03  0.00000000000E+00 0. -1.
          5    1    1    2  502    0 -0.21159506236E+02  0.42950981245E+02 -0.48626999009E+03  0.48864414942E+03  0.47000000000E+01 0. -1.
         -5    1    1    2    0  502  0.13680964724E+02 -0.30164272355E+02 -0.38463941813E+02  0.50976631335E+02  0.47000000000E+01 0. -1.
        -11    1    1    2    0    0  0.21432378785E+02 -0.45626886795E+02 -0.62867426176E+02  0.80582088165E+02  0.00000000000E+00 0.  1.
         11    1    1    2    0    0 -0.13953837273E+02  0.32840177905E+02 -0.11203425548E+03  0.11757917018E+03  0.00000000000E+00 0. -1.
<mgrwt>
<rscale>  0 0.11674988E+03</rscale>
<asrwt>0</asrwt>
<pdfrwt beam="2">  1        1 0.11057058E+00 0.12587648E+03</pdfrwt>
<pdfrwt beam="1">  1       -1 0.29343406E-02 0.12587648E+03</pdfrwt>
<totfact> 0.10075731E+04</totfact>
</mgrwt>
</event>
<event>
 6    1  0.4705246E-006  0.1428869E+03  0.7546771E-02  0.1223771E+00
          1   -1    0    0  501    0  0.00000000000E+00  0.00000000000E+00  0.10798678823E+03  0.10798678823E+03  0.00000000000E+00 0. -1.
         -1   -1    0    0    0  501 -0.00000000000E+00 -0.00000000000E+00 -0.16086425560E+03  0.16086425560E+03  0.00000000000E+00 0.  1.
          5    1    1    2  502    0 -0.10043026558E+02  0.70050406820E+02 -0.28923457196E+02  0.76593591470E+02  0.47000000000E+01 0. -1.
         -5    1    1    2    0  502 -0.33384275425E+02 -0.38524990255E+02  0.43235852290E+02  0.67008310254E+02  0.47000000000E+01 0.  1.
        -11    1    1    2    0    0  0.61476631619E+02 -0.48076441846E+02 -0.63228284949E+02  0.10044170704E+03  0.00000000000E+00 0.  1.
         11    1    1    2    0    0 -0.18049329636E+02  0.16551025281E+02 -0.39615775143E+01  0.24807435066E+02  0.00000000000E+00 0. -1.
<mgrwt>
<rscale>  0 0.13251495E+03</rscale>
<asrwt>0</asrwt>
<pdfrwt beam="1">  1        1 0.16613352E-01 0.14288688E+03</pdfrwt>
<pdfrwt beam="2">  1       -1 0.24748347E-01 0.14288688E+03</pdfrwt>
<totfact> 0.44267069E+03</totfact>
</mgrwt>
</event>
<event>
 6    1  0.4705246E-006  0.2307243E+03  0.7546771E-02  0.1126131E+00
         -2   -1    0    0    0  501 -0.00000000000E+00  0.00000000000E+00  0.22260957876E+02  0.22260957876E+02  0.00000000000E+00 0.  1.
          2   -1    0    0  501    0  0.00000000000E+00 -0.00000000000E+00 -0.59783708326E+03  0.59783708326E+03  0.00000000000E+00 0. -1.
          5    1    1    2  502    0  0.57434149220E+02  0.14289010033E+02 -0.37907379210E+03  0.38369504449E+03  0.47000000000E+01 0.  1.
         -5    1    1    2    0  502 -0.21640742752E+02  0.14450078093E+01 -0.59228932275E+01  0.22969119674E+02  0.47000000000E+01 0.  1.
        -11    1    1    2    0    0 -0.78125807655E+01 -0.50704124702E+02 -0.10244749704E+03  0.11457501617E+03  0.00000000000E+00 0. -1.
         11    1    1    2    0    0 -0.27980825702E+02  0.34970106860E+02 -0.88131943008E+02  0.98858860802E+02  0.00000000000E+00 0.  1.
<mgrwt>
<rscale>  0 0.23072430E+03</rscale>
<asrwt>0</asrwt>
<pdfrwt beam="2">  1        2 0.91974921E-01 0.23072430E+03</pdfrwt>
<pdfrwt beam="1">  1       -2 0.34247633E-02 0.23072430E+03</pdfrwt>
<totfact> 0.17311709E+04</totfact>
</mgrwt>
</event>
<event>
 6    1  0.4705246E-006  0.1920683E+03  0.7546771E-02  0.1160795E+00
          2   -1    0    0  501    0  0.00000000000E+00  0.00000000000E+00  0.26751344997E+04  0.26751344997E+04  0.00000000000E+00 0. -1.
         -2   -1    0    0    0  501 -0.00000000000E+00 -0.00000000000E+00 -0.14045399939E+02  0.14045399939E+02  0.00000000000E+00 0.  1.
          5    1    1    2  502    0 -0.13817120104E+03 -0.44400859675E+02  0.10540890737E+04  0.10640435059E+04  0.47000000000E+01 0. -1.
         -5    1    1    2    0  502  0.34152922345E+01 -0.11301471144E+02  0.77463682302E+03  0.77474104387E+03  0.47000000000E+01 0. -1.
        -11    1    1    2    0    0  0.12592629470E+03  0.66003217788E+02  0.81935759961E+03  0.83160130621E+03  0.00000000000E+00 0. -1.
         11    1    1    2    0    0  0.88296141082E+01 -0.10300886969E+02  0.13005603497E+02  0.18794043736E+02  0.00000000000E+00 0.  1.
<mgrwt>
<rscale>  0 0.18743485E+03</rscale>
<asrwt>0</asrwt>
<pdfrwt beam="1">  1        2 0.41155875E+00 0.19206826E+03</pdfrwt>
<pdfrwt beam="2">  1       -2 0.21608329E-02 0.19206826E+03</pdfrwt>
<totfact> 0.22301372E+03</totfact>
</mgrwt>
</event>
<event>
 6    1  0.4705246E-006  0.1401556E+03  0.7546771E-02  0.1224252E+00
         -2   -1    0    0    0  501 -0.00000000000E+00  0.00000000000E+00  0.21093597509E+02  0.21093597509E+02  0.00000000000E+00 0.  1.
          2   -1    0    0  501    0  0.00000000000E+00 -0.00000000000E+00 -0.74694294584E+03  0.74694294584E+03  0.00000000000E+00 0. -1.
          5    1    1    2  502    0 -0.29638342524E+02 -0.49002268760E+01 -0.38048640743E+03  0.38169941028E+03  0.47000000000E+01 0.  1.
         -5    1    1    2    0  502 -0.31050682240E+02  0.23194007044E+02 -0.22717702118E+02  0.45169578478E+02  0.47000000000E+01 0.  1.
        -11    1    1    2    0    0  0.40854288624E+02 -0.40222681148E+02 -0.29555902701E+03  0.30106822387E+03  0.00000000000E+00 0. -1.
         11    1    1    2    0    0  0.19834736140E+02  0.21928900980E+02 -0.27086211773E+02  0.40099330719E+02  0.00000000000E+00 0.  1.
<mgrwt>
<rscale>  0 0.13218292E+03</rscale>
<asrwt>0</asrwt>
<pdfrwt beam="2">  1        2 0.11491427E+00 0.14015556E+03</pdfrwt>
<pdfrwt beam="1">  1       -2 0.32451696E-02 0.14015556E+03</pdfrwt>
<totfact> 0.13923130E+04</totfact>
</mgrwt>
</event>
<event>
 6    1  0.4705246E-006  0.3088712E+03  0.7546771E-02  0.1081025E+00
          1   -1    0    0  501    0  0.00000000000E+00  0.00000000000E+00  0.82610794891E+02  0.82610794891E+02  0.00000000000E+00 0. -1.
         -1   -1    0    0    0  501 -0.00000000000E+00 -0.00000000000E+00 -0.11679125390E+04  0.11679125390E+04  0.00000000000E+00 0.  1.
          5    1    1    2  502    0 -0.24819180433E+03  0.80175869702E+02 -0.52567078365E+03  0.58683831215E+03  0.47000000000E+01 0.  1.
         -5    1    1    2    0  502 -0.36938185217E+01  0.47622594313E+02 -0.94116369707E+02  0.10564817477E+03  0.47000000000E+01 0.  1.
        -11    1    1    2    0    0  0.52883334663E+02 -0.91148910988E+02 -0.15755335563E+03  0.18954638200E+03  0.00000000000E+00 0.  1.
         11    1    1    2    0    0  0.19900228819E+03 -0.36649553027E+02 -0.30796123509E+03  0.36849046495E+03  0.00000000000E+00 0. -1.
<mgrwt>
<rscale>  0 0.30858695E+03</rscale>
<asrwt>0</asrwt>
<pdfrwt beam="1">  1        1 0.12709354E-01 0.30887120E+03</pdfrwt>
<pdfrwt beam="2">  1       -1 0.17967884E+00 0.30887120E+03</pdfrwt>
<totfact> 0.10661275E+02</totfact>
</mgrwt>
</event>
<event>
 6    1  0.4705246E-006  0.2517862E+03  0.7546771E-02  0.1112181E+00
          3   -1    0    0  501    0  0.00000000000E+00  0.00000000000E+00  0.47500109250E+02  0.47500109250E+02  0.00000000000E+00 0. -1.
         -3   -1    0    0    0  501 -0.00000000000E+00 -0.00000000000E+00 -0.33366392129E+03  0.33366392129E+03  0.00000000000E+00 0.  1.
          5    1    1    2  502    0 -0.33751571560E+02 -0.69507334227E+02 -0.24303115065E+02  0.81136733333E+02  0.47000000000E+01 0.  1.
         -5    1    1    2    0  502  0.45223742563E+01  0.13533998397E+02 -0.11645998573E+03  0.11742503676E+03  0.47000000000E+01 0.  1.
        -11    1    1    2    0    0  0.60274762511E+02  0.49988198631E+02 -0.95104792529E+02  0.12319410927E+03  0.00000000000E+00 0.  1.
         11    1    1    2    0    0 -0.31045565208E+02  0.59851371993E+01 -0.50295918714E+02  0.59408151172E+02  0.00000000000E+00 0. -1.
<mgrwt>
<rscale>  0 0.25178620E+03</rscale>
<asrwt>0</asrwt>
<pdfrwt beam="1">  1        3 0.73077088E-02 0.25178620E+03</pdfrwt>
<pdfrwt beam="2">  1       -3 0.51332913E-01 0.25178620E+03</pdfrwt>
<totfact> 0.11802500E+03</totfact>
</mgrwt>
</event>
<event>
 6    1  0.4705246E-006  0.1436009E+03  0.7546771E-02  0.1218763E+00
          1   -1    0    0  501    0  0.00000000000E+00  0.00000000000E+00  0.12762780678E+03  0.12762780678E+03  0.00000000000E+00 0. -1.
         -1   -1    0    0    0  501 -0.00000000000E+00 -0.00000000000E+00 -0.52315068204E+03  0.52315068204E+03  0.00000000000E+00 0.  1.
          5    1    1    2  502    0 -0.64388961248E+02  0.84744082083E+01  0.31475969146E+02  0.72322752704E+02  0.47000000000E+01 0. -1.
         -5    1    1    2    0  502  0.32063829522E+02 -0.71301450921E+02  0.46468105928E+02  0.91067891903E+02  0.47000000000E+01 0. -1.
        -11    1    1    2    0    0 -0.27099110618E+02  0.46517220768E+02 -0.23502805562E+03  0.24111491151E+03  0.00000000000E+00 0. -1.
         11    1    1    2    0    0  0.59424242343E+02  0.16309821945E+02 -0.23843889471E+03  0.24627293270E+03  0.00000000000E+00 0.  1.
<mgrwt>
<rscale>  0 0.13603746E+03</rscale>
<asrwt>0</asrwt>
<pdfrwt beam="1">  1        1 0.19635047E-01 0.14360092E+03</pdfrwt>
<pdfrwt beam="2">  1       -1 0.80484721E-01 0.14360092E+03</pdfrwt>
<totfact> 0.42360985E+02</totfact>
</mgrwt>
</event>
<event>
 6    1  0.4705246E-006  0.1333511E+03  0.7546771E-02  0.1234953E+00
          1   -1    0    0  501    0  0.00000000000E+00  0.00000000000E+00  0.30084730629E+03  0.30084730629E+03  0.00000000000E+00 0. -1.
         -1   -1    0    0    0  501 -0.00000000000E+00 -0.00000000000E+00 -0.46503377676E+02  0.46503377676E+02  0.00000000000E+00 0.  1.
          5    1    1    2  502    0  0.47634483161E+02  0.53900615996E+00  0.18822933098E+02  0.51436634066E+02  0.47000000000E+01 0. -1.
         -5    1    1    2    0  502 -0.56992369056E+02 -0.46040025377E+02  0.12291377806E+03  0.14317018162E+03  0.47000000000E+01 0. -1.
        -11    1    1    2    0    0 -0.16525616392E+02  0.38737705680E+02  0.11814248934E+03  0.12542469305E+03  0.00000000000E+00 0. -1.
         11    1    1    2    0    0  0.25883502288E+02  0.67633135368E+01 -0.55352718847E+01  0.27319175235E+02  0.00000000000E+00 0.  1.
<mgrwt>
<rscale>  0 0.12507419E+03</rscale>
<asrwt>0</asrwt>
<pdfrwt beam="1">  1        1 0.46284200E-01 0.13335111E+03</pdfrwt>
<pdfrwt beam="2">  1       -1 0.71543660E-02 0.13335111E+03</pdfrwt>
<totfact> 0.84558119E+03</totfact>
</mgrwt>
</event>
<event>
 6    1  0.4705246E-006  0.1282398E+03  0.7546771E-02  0.1243594E+00
         -2   -1    0    0    0  501 -0.00000000000E+00  0.00000000000E+00  0.15062313062E+02  0.15062313062E+02  0.00000000000E+00 0.  1.
          2   -1    0    0  501    0  0.00000000000E+00 -0.00000000000E+00 -0.96942367315E+03  0.96942367315E+03  0.00000000000E+00 0. -1.
          5    1    1    2  502    0  0.29627558788E+02  0.32722618227E+02 -0.12332905401E+03  0.13107519806E+03  0.47000000000E+01 0. -1.
         -5    1    1    2    0  502 -0.58244021653E+02 -0.31596812521E+02 -0.58597165429E+03  0.58972501579E+03  0.47000000000E+01 0. -1.
        -11    1    1    2    0    0 -0.12258707800E+02 -0.33319564252E+02 -0.46984544727E+02  0.58889869435E+02  0.00000000000E+00 0.  1.
         11    1    1    2    0    0  0.40875170664E+02  0.32193758546E+02 -0.19807610706E+03  0.20479590293E+03  0.00000000000E+00 0. -1.
<mgrwt>
<rscale>  0 0.11969948E+03</rscale>
<asrwt>0</asrwt>
<pdfrwt beam="2">  1        2 0.14914207E+00 0.12823983E+03</pdfrwt>
<pdfrwt beam="1">  1       -2 0.23172794E-02 0.12823983E+03</pdfrwt>
<totfact> 0.16245069E+04</totfact>
</mgrwt>
</event>
<event>
 6    1  0.4705246E-006  0.2231049E+03  0.7546771E-02  0.1134687E+00
         -1   -1    0    0    0  501 -0.00000000000E+00  0.00000000000E+00  0.14454785264E+03  0.14454785264E+03  0.00000000000E+00 0.  1.
          1   -1    0    0  501    0  0.00000000000E+00 -0.00000000000E+00 -0.40510946615E+03  0.40510946615E+03  0.00000000000E+00 0. -1.
          5    1    1    2  502    0 -0.72985830378E+01  0.15582767857E+01  0.12468342167E+02  0.15272429319E+02  0.47000000000E+01 0.  1.
         -5    1    1    2    0  502 -0.11415477072E+03 -0.14084992893E+03 -0.27274296396E+03  0.32753752235E+03  0.47000000000E+01 0.  1.
        -11    1    1    2    0    0 -0.47974322084E+01  0.10137066336E+02 -0.22239845961E+02  0.24907553434E+02  0.00000000000E+00 0. -1.
         11    1    1    2    0    0  0.12625078597E+03  0.12915458581E+03  0.21952854248E+02  0.18193981368E+03  0.00000000000E+00 0.  1.
<mgrwt>
<rscale>  0 0.21892441E+03</rscale>
<asrwt>0</asrwt>
<pdfrwt beam="2">  1        1 0.62324533E-01 0.22310487E+03</pdfrwt>
<pdfrwt beam="1">  1       -1 0.22238131E-01 0.22310487E+03</pdfrwt>
<totfact> 0.10092399E+03</totfact>
</mgrwt>
</event>
<event>
 6    1  0.4705246E-006  0.2658450E+03  0.7546771E-02  0.1132531E+00
         -2   -1    0    0    0  501 -0.00000000000E+00  0.00000000000E+00  0.29220174268E+02  0.29220174268E+02  0.00000000000E+00 0.  1.
          2   -1    0    0  501    0  0.00000000000E+00 -0.00000000000E+00 -0.13644031333E+04  0.13644031333E+04  0.00000000000E+00 0. -1.
          5    1    1    2  502    0 -0.58453919215E+02  0.73786811915E+02 -0.95157005683E+03  0.95622644668E+03  0.47000000000E+01 0. -1.
         -5    1    1    2    0  502  0.55530141542E+02  0.18462952817E+02 -0.41714437221E+02  0.72018480400E+02  0.47000000000E+01 0.  1.
        -11    1    1    2    0    0  0.39692556396E+02 -0.41471686662E+02 -0.98228755524E+02  0.11377296796E+03  0.00000000000E+00 0.  1.
         11    1    1    2    0    0 -0.36768778723E+02 -0.50778078070E+02 -0.24366970944E+03  0.25160541250E+03  0.00000000000E+00 0. -1.
<mgrwt>
<rscale>  0 0.22182325E+03</rscale>
<asrwt>0</asrwt>
<pdfrwt beam="2">  1        2 0.20990815E+00 0.26584496E+03</pdfrwt>
<pdfrwt beam="1">  1       -2 0.44954119E-02 0.26584496E+03</pdfrwt>
<totfact> 0.37189072E+03</totfact>
</mgrwt>
</event>
<event>
 6    1  0.4705246E-006  0.1400735E+03  0.7546771E-02  0.1223925E+00
         -1   -1    0    0    0  501 -0.00000000000E+00  0.00000000000E+00  0.13275696500E+03  0.13275696500E+03  0.00000000000E+00 0.  1.
          1   -1    0    0  501    0  0.00000000000E+00 -0.00000000000E+00 -0.22431344946E+03  0.22431344946E+03  0.00000000000E+00 0. -1.
          5    1    1    2  502    0 -0.14571433648E+02  0.22729985291E+02 -0.12288774858E+03  0.12590658307E+03  0.47000000000E+01 0. -1.
         -5    1    1    2    0  502  0.77746360214E+02 -0.25024734285E+02 -0.47252380881E+02  0.94475453698E+02  0.47000000000E+01 0. -1.
        -11    1    1    2    0    0 -0.94593701382E+01 -0.22220929270E+02 -0.13222771014E+02  0.27533453367E+02  0.00000000000E+00 0. -1.
         11    1    1    2    0    0 -0.53715556428E+02  0.24515678263E+02  0.91806416018E+02  0.10915492433E+03  0.00000000000E+00 0.  1.
<mgrwt>
<rscale>  0 0.13240879E+03</rscale>
<asrwt>0</asrwt>
<pdfrwt beam="2">  1        1 0.34509762E-01 0.14007348E+03</pdfrwt>
<pdfrwt beam="1">  1       -1 0.20424148E-01 0.14007348E+03</pdfrwt>
<totfact> 0.24043241E+03</totfact>
</mgrwt>
</event>
<event>
 6    1  0.4705246E-006  0.3175210E+03  0.7546771E-02  0.1105634E+00
         -2   -1    0    0    0  501 -0.00000000000E+00  0.00000000000E+00  0.15952328290E+03  0.15952328290E+03  0.00000000000E+00 0.  1.
          2   -1    0    0  501    0  0.00000000000E+00 -0.00000000000E+00 -0.72585142821E+03  0.72585142821E+03  0.00000000000E+00 0. -1.
          5    1    1    2  502    0 -0.68882231663E+02 -0.78852988546E+02 -0.67215714022E+03  0.68027925648E+03  0.47000000000E+01 0. -1.
         -5    1    1    2    0  502 -0.23897234164E+02  0.51713967669E+01  0.28252107644E+02  0.37657572034E+02  0.47000000000E+01 0.  1.
        -11    1    1    2    0    0  0.71096610369E+02  0.84094552069E+02  0.88253158351E+02  0.14112137206E+03  0.00000000000E+00 0.  1.
         11    1    1    2    0    0  0.21682855458E+02 -0.10412960289E+02 -0.10676271079E+02  0.26316510539E+02  0.00000000000E+00 0. -1.
<mgrwt>
<rscale>  0 0.26252750E+03</rscale>
<asrwt>0</asrwt>
<pdfrwt beam="2">  1        2 0.11166945E+00 0.31752102E+03</pdfrwt>
<pdfrwt beam="1">  1       -2 0.24542043E-01 0.31752102E+03</pdfrwt>
<totfact> 0.59069682E+02</totfact>
</mgrwt>
</event>
<event>
 6    1  0.4705246E-006  0.2385587E+03  0.7546771E-02  0.1127203E+00
          1   -1    0    0  501    0  0.00000000000E+00  0.00000000000E+00  0.20546710782E+04  0.20546710782E+04  0.00000000000E+00 0. -1.
         -1   -1    0    0    0  501 -0.00000000000E+00 -0.00000000000E+00 -0.12571202175E+03  0.12571202175E+03  0.00000000000E+00 0.  1.
          5    1    1    2  502    0 -0.10986800932E+03  0.61342908315E+02  0.17975867184E+04  0.18019916847E+04  0.47000000000E+01 0. -1.
         -5    1    1    2    0  502 -0.56831930231E+02  0.11011571505E+02  0.16266340440E+03  0.17272115137E+03  0.47000000000E+01 0.  1.
        -11    1    1    2    0    0  0.12017679033E+03 -0.82287635864E+02 -0.50799216306E+02  0.15425393456E+03  0.00000000000E+00 0.  1.
         11    1    1    2    0    0  0.46523149217E+02  0.99331560445E+01  0.19508150027E+02  0.51416329308E+02  0.00000000000E+00 0. -1.
<mgrwt>
<rscale>  0 0.22920175E+03</rscale>
<asrwt>0</asrwt>
<pdfrwt beam="1">  1        1 0.31610322E+00 0.23855867E+03</pdfrwt>
<pdfrwt beam="2">  1       -1 0.19340312E-01 0.23855867E+03</pdfrwt>
<totfact> 0.67452124E+01</totfact>
</mgrwt>
</event>
<event>
 6    1  0.4705246E-006  0.2900438E+03  0.7546771E-02  0.1090326E+00
         -1   -1    0    0    0  501 -0.00000000000E+00  0.00000000000E+00  0.43966550318E+02  0.43966550318E+02  0.00000000000E+00 0.  1.
          1   -1    0    0  501    0  0.00000000000E+00 -0.00000000000E+00 -0.47834890878E+03  0.47834890878E+03  0.00000000000E+00 0. -1.
          5    1    1    2  502    0  0.10093897409E+03 -0.46853363795E+02 -0.20656370812E+03  0.23467971728E+03  0.47000000000E+01 0. -1.
         -5    1    1    2    0  502 -0.35007349542E+02 -0.24666038524E+02 -0.42758949205E+02  0.60698811484E+02  0.47000000000E+01 0. -1.
        -11    1    1    2    0    0 -0.65136479897E+02  0.57176109236E+01 -0.97801764691E+02  0.11764623778E+03  0.00000000000E+00 0. -1.
         11    1    1    2    0    0 -0.79514464841E+00  0.65801791396E+02 -0.87257936442E+02  0.10929069255E+03  0.00000000000E+00 0.  1.
<mgrwt>
<rscale>  0 0.29004380E+03</rscale>
<asrwt>0</asrwt>
<pdfrwt beam="2">  1        1 0.73592134E-01 0.29004380E+03</pdfrwt>
<pdfrwt beam="1">  1       -1 0.67640852E-02 0.29004380E+03</pdfrwt>
<totfact> 0.53201322E+03</totfact>
</mgrwt>
</event>
<event>
 6    1  0.4705246E-006  0.1281718E+03  0.7546771E-02  0.1244432E+00
          2   -1    0    0  501    0  0.00000000000E+00  0.00000000000E+00  0.43634097190E+03  0.43634097190E+03  0.00000000000E+00 0. -1.
         -2   -1    0    0    0  501 -0.00000000000E+00 -0.00000000000E+00 -0.29346583402E+02  0.29346583402E+02  0.00000000000E+00 0.  1.
          5    1    1    2  502    0 -0.23054601716E+02 -0.60929084869E+02  0.18883625611E+03  0.19981263640E+03  0.47000000000E+01 0. -1.
         -5    1    1    2    0  502 -0.48089994343E+01  0.55619786964E+02  0.76097793964E+02  0.94496832876E+02  0.47000000000E+01 0. -1.
        -11    1    1    2    0    0 -0.31965123501E+02 -0.99312700163E+01  0.40714389572E+02  0.52707312233E+02  0.00000000000E+00 0.  1.
         11    1    1    2    0    0  0.59828724652E+02  0.15240567922E+02  0.10134594886E+03  0.11867077380E+03  0.00000000000E+00 0. -1.
<mgrwt>
<rscale>  0 0.11919410E+03</rscale>
<asrwt>0</asrwt>
<pdfrwt beam="1">  1        2 0.67129376E-01 0.12817181E+03</pdfrwt>
<pdfrwt beam="2">  1       -2 0.45148593E-02 0.12817181E+03</pdfrwt>
<totfact> 0.15568098E+04</totfact>
</mgrwt>
</event>
<event>
 6    1  0.4705246E-006  0.1338630E+03  0.7546771E-02  0.1234968E+00
          2   -1    0    0  501    0  0.00000000000E+00  0.00000000000E+00  0.57194769833E+03  0.57194769833E+03  0.00000000000E+00 0. -1.
         -2   -1    0    0    0  501 -0.00000000000E+00 -0.00000000000E+00 -0.31001344413E+02  0.31001344413E+02  0.00000000000E+00 0.  1.
          5    1    1    2  502    0 -0.57440736988E+02 -0.13782286325E+02  0.93650852252E+02  0.11082401278E+03  0.47000000000E+01 0. -1.
         -5    1    1    2    0  502  0.17476952539E+02  0.40289027562E+02  0.34449340087E+03  0.34731317691E+03  0.47000000000E+01 0. -1.
        -11    1    1    2    0    0  0.17789922429E+02 -0.75917107767E+01  0.11245744784E+03  0.11410868936E+03  0.00000000000E+00 0. -1.
         11    1    1    2    0    0  0.22173862020E+02 -0.18915030461E+02 -0.96553470418E+01  0.30703163693E+02  0.00000000000E+00 0.  1.
<mgrwt>
<rscale>  0 0.12506507E+03</rscale>
<asrwt>0</asrwt>
<pdfrwt beam="1">  1        2 0.87991945E-01 0.13386298E+03</pdfrwt>
<pdfrwt beam="2">  1       -2 0.47694380E-02 0.13386298E+03</pdfrwt>
<totfact> 0.10692380E+04</totfact>
</mgrwt>
</event>
<event>
 6    1  0.4705246E-006  0.1655215E+03  0.7546771E-02  0.1189439E+00
         -1   -1    0    0    0  501 -0.00000000000E+00  0.00000000000E+00  0.67986354126E+02  0.67986354126E+02  0.00000000000E+00 0.  1.
          1   -1    0    0  501    0  0.00000000000E+00 -0.00000000000E+00 -0.40337936259E+03  0.40337936259E+03  0.00000000000E+00 0. -1.
          5    1    1    2  502    0  0.62665465550E+02  0.26827038753E+02 -0.39759797060E+02  0.79054298068E+02  0.47000000000E+01 0. -1.
         -5    1    1    2    0  502  0.15579241846E+01  0.60627794239E+02 -0.22593928591E+03  0.23398463086E+03  0.47000000000E+01 0. -1.
        -11    1    1    2    0    0  0.23538435013E+02 -0.18245425209E+02 -0.20834390053E+02  0.36345911363E+02  0.00000000000E+00 0. -1.
         11    1    1    2    0    0 -0.87761824748E+02 -0.69209407782E+02 -0.48859535437E+02  0.12198087642E+03  0.00000000000E+00 0.  1.
<mgrwt>
<rscale>  0 0.15934445E+03</rscale>
<asrwt>0</asrwt>
<pdfrwt beam="2">  1        1 0.62058363E-01 0.16552150E+03</pdfrwt>
<pdfrwt beam="1">  1       -1 0.10459439E-01 0.16552150E+03</pdfrwt>
<totfact> 0.33307869E+03</totfact>
</mgrwt>
</event>
<event>
 6    1  0.4705246E-006  0.4042440E+03  0.7546771E-02  0.1042320E+00
          1   -1    0    0  501    0  0.00000000000E+00  0.00000000000E+00  0.17563424125E+04  0.17563424125E+04  0.00000000000E+00 0. -1.
         -1   -1    0    0    0  501 -0.00000000000E+00 -0.00000000000E+00 -0.23260444638E+02  0.23260444638E+02  0.00000000000E+00 0.  1.
          5    1    1    2  502    0 -0.29621382039E+01  0.75500852553E+01  0.39593255059E+01  0.10175672389E+02  0.47000000000E+01 0.  1.
         -5    1    1    2    0  502 -0.11766499598E+03 -0.11362558336E+03  0.11522827955E+04  0.11638443003E+04  0.47000000000E+01 0.  1.
        -11    1    1    2    0    0  0.22310231251E+02 -0.12473943820E+02  0.14180339777E+03  0.14408868558E+03  0.00000000000E+00 0. -1.
         11    1    1    2    0    0  0.98316902932E+02  0.11854944192E+03  0.43503644908E+03  0.46149419890E+03  0.00000000000E+00 0.  1.
<mgrwt>
<rscale>  0 0.40424401E+03</rscale>
<asrwt>0</asrwt>
<pdfrwt beam="1">  1        1 0.27020642E+00 0.40424401E+03</pdfrwt>
<pdfrwt beam="2">  1       -1 0.35785313E-02 0.40424401E+03</pdfrwt>
<totfact> 0.14006759E+03</totfact>
</mgrwt>
</event>
<event>
 6    1  0.4705246E-006  0.1879659E+03  0.7546771E-02  0.1165444E+00
          1   -1    0    0  501    0  0.00000000000E+00  0.00000000000E+00  0.70357898216E+02  0.70357898216E+02  0.00000000000E+00 0. -1.
         -1   -1    0    0    0  501 -0.00000000000E+00 -0.00000000000E+00 -0.61211953518E+03  0.61211953518E+03  0.00000000000E+00 0.  1.
          5    1    1    2  502    0  0.72686834519E+02  0.25412280993E+02 -0.25589890381E+02  0.81277871696E+02  0.47000000000E+01 0. -1.
         -5    1    1    2    0  502  0.48542253451E+02 -0.96198272571E+02 -0.80282334744E+02  0.13445371430E+03  0.47000000000E+01 0. -1.
        -11    1    1    2    0    0  0.12952085255E+02  0.80333581298E+01 -0.76897306720E+02  0.78393157457E+02  0.00000000000E+00 0. -1.
         11    1    1    2    0    0 -0.13418117323E+03  0.62752633448E+02 -0.35899210512E+03  0.38835268995E+03  0.00000000000E+00 0.  1.
<mgrwt>
<rscale>  0 0.18245955E+03</rscale>
<asrwt>0</asrwt>
<pdfrwt beam="1">  1        1 0.10824292E-01 0.18796593E+03</pdfrwt>
<pdfrwt beam="2">  1       -1 0.94172235E-01 0.18796593E+03</pdfrwt>
<totfact> 0.66195514E+02</totfact>
</mgrwt>
</event>
<event>
 6    1  0.4705246E-006  0.1279112E+03  0.7546771E-02  0.1244662E+00
          1   -1    0    0  501    0  0.00000000000E+00  0.00000000000E+00  0.43620670278E+03  0.43620670278E+03  0.00000000000E+00 0. -1.
         -1   -1    0    0    0  501 -0.00000000000E+00 -0.00000000000E+00 -0.28823274477E+02  0.28823274477E+02  0.00000000000E+00 0.  1.
          5    1    1    2  502    0  0.65452143848E+02  0.11529887830E+01  0.21895833448E+03  0.22858292753E+03  0.47000000000E+01 0. -1.
         -5    1    1    2    0  502 -0.39420441221E+02  0.65285510012E+01  0.26416862818E+02  0.48130383391E+02  0.47000000000E+01 0. -1.
        -11    1    1    2    0    0 -0.34780894566E+02  0.25391441357E+02  0.14265109684E+03  0.14900929955E+03  0.00000000000E+00 0. -1.
         11    1    1    2    0    0  0.87491919390E+01 -0.33072981141E+02  0.19357134158E+02  0.39307366790E+02  0.00000000000E+00 0.  1.
<mgrwt>
<rscale>  0 0.11905623E+03</rscale>
<asrwt>0</asrwt>
<pdfrwt beam="1">  1        1 0.67108719E-01 0.12791118E+03</pdfrwt>
<pdfrwt beam="2">  1       -1 0.44343502E-02 0.12791118E+03</pdfrwt>
<totfact> 0.10777244E+04</totfact>
</mgrwt>
</event>
<event>
 6    1  0.4705246E-006  0.1339929E+03  0.7546771E-02  0.1234504E+00
         -2   -1    0    0    0  501 -0.00000000000E+00  0.00000000000E+00  0.50334231923E+02  0.50334231923E+02  0.00000000000E+00 0.  1.
          2   -1    0    0  501    0  0.00000000000E+00 -0.00000000000E+00 -0.28714981795E+03  0.28714981795E+03  0.00000000000E+00 0. -1.
          5    1    1    2  502    0 -0.39883053539E+02 -0.18077792767E+02 -0.10396477152E+02  0.45250870579E+02  0.47000000000E+01 0. -1.
         -5    1    1    2    0  502  0.58851055429E+02 -0.26320751146E+02 -0.15277164183E+03  0.16588397516E+03  0.47000000000E+01 0. -1.
        -11    1    1    2    0    0  0.49008377972E+01  0.64647989256E+02 -0.27129833252E+02  0.70280926134E+02  0.00000000000E+00 0.  1.
         11    1    1    2    0    0 -0.23868839687E+02 -0.20249445343E+02 -0.46517633792E+02  0.56068278003E+02  0.00000000000E+00 0. -1.
<mgrwt>
<rscale>  0 0.12536238E+03</rscale>
<asrwt>0</asrwt>
<pdfrwt beam="2">  1        2 0.44176894E-01 0.13399287E+03</pdfrwt>
<pdfrwt beam="1">  1       -2 0.77437281E-02 0.13399287E+03</pdfrwt>
<totfact> 0.10767942E+04</totfact>
</mgrwt>
</event>
<event>
 6    1  0.4705246E-006  0.1799010E+03  0.7546771E-02  0.1195533E+00
         -2   -1    0    0    0  501 -0.00000000000E+00  0.00000000000E+00  0.24999346639E+03  0.24999346639E+03  0.00000000000E+00 0.  1.
          2   -1    0    0  501    0  0.00000000000E+00 -0.00000000000E+00 -0.13277724079E+03  0.13277724079E+03  0.00000000000E+00 0. -1.
          5    1    1    2  502    0  0.11564136892E+02  0.47890719143E+02 -0.97254099356E+02  0.10912240871E+03  0.47000000000E+01 0. -1.
         -5    1    1    2    0  502 -0.44456551237E+02 -0.46076874381E+02  0.44781687693E+02  0.78274854540E+02  0.47000000000E+01 0.  1.
        -11    1    1    2    0    0  0.33113314903E+02  0.37038781183E+02  0.54205562518E+02  0.73529626296E+02  0.00000000000E+00 0. -1.
         11    1    1    2    0    0 -0.22090055804E+00 -0.38852625944E+02  0.11548307475E+03  0.12184381763E+03  0.00000000000E+00 0.  1.
<mgrwt>
<rscale>  0 0.15409219E+03</rscale>
<asrwt>0</asrwt>
<pdfrwt beam="2">  1        2 0.20427268E-01 0.17990103E+03</pdfrwt>
<pdfrwt beam="1">  1       -2 0.38460533E-01 0.17990103E+03</pdfrwt>
<totfact> 0.17139849E+03</totfact>
</mgrwt>
</event>
<event>
 6    1  0.4705246E-006  0.1341999E+03  0.7546771E-02  0.1238143E+00
          1   -1    0    0  501    0  0.00000000000E+00  0.00000000000E+00  0.61956197044E+02  0.61956197044E+02  0.00000000000E+00 0. -1.
         -1   -1    0    0    0  501 -0.00000000000E+00 -0.00000000000E+00 -0.39227204754E+03  0.39227204754E+03  0.00000000000E+00 0.  1.
          5    1    1    2  502    0  0.75334062672E+02  0.21724103038E+02  0.19711210075E+01  0.78569287698E+02  0.47000000000E+01 0. -1.
         -5    1    1    2    0  502 -0.47887539063E+02 -0.14991851384E+02 -0.29589157286E+02  0.58442965653E+02  0.47000000000E+01 0.  1.
        -11    1    1    2    0    0 -0.50987529787E+02 -0.31262120092E+02 -0.21483283507E+03  0.22300268019E+03  0.00000000000E+00 0.  1.
         11    1    1    2    0    0  0.23541006179E+02  0.24529868438E+02 -0.87864979142E+02  0.94213311040E+02  0.00000000000E+00 0. -1.
<mgrwt>
<rscale>  0 0.12305364E+03</rscale>
<asrwt>0</asrwt>
<pdfrwt beam="1">  1        1 0.95317228E-02 0.13419986E+03</pdfrwt>
<pdfrwt beam="2">  1       -1 0.60349545E-01 0.13419986E+03</pdfrwt>
<totfact> 0.19138124E+03</totfact>
</mgrwt>
</event>
<event>
 6    1  0.4705246E-006  0.3284345E+03  0.7546771E-02  0.1073204E+00
          1   -1    0    0  501    0  0.00000000000E+00  0.00000000000E+00  0.40710433371E+03  0.40710433371E+03  0.00000000000E+00 0. -1.
         -1   -1    0    0    0  501 -0.00000000000E+00 -0.00000000000E+00 -0.25556570564E+03  0.25556570564E+03  0.00000000000E+00 0.  1.
          5    1    1    2  502    0  0.19786087507E+03 -0.56017499632E+02  0.25069353949E+02  0.20721353396E+03  0.47000000000E+01 0.  1.
         -5    1    1    2    0  502  0.59547819179E+02 -0.10520286679E+03  0.41510524627E+02  0.12790152308E+03  0.47000000000E+01 0.  1.
        -11    1    1    2    0    0 -0.21844608805E+03  0.93706695113E+02  0.54492216806E+02  0.24386274785E+03  0.00000000000E+00 0.  1.
         11    1    1    2    0    0 -0.38962606198E+02  0.67513671313E+02  0.30466532683E+02  0.83692234464E+02  0.00000000000E+00 0. -1.
<mgrwt>
<rscale>  0 0.32536953E+03</rscale>
<asrwt>0</asrwt>
<pdfrwt beam="1">  1        1 0.62631436E-01 0.32843450E+03</pdfrwt>
<pdfrwt beam="2">  1       -1 0.39317801E-01 0.32843450E+03</pdfrwt>
<totfact> 0.37823166E+02</totfact>
</mgrwt>
</event>
<event>
 6    1  0.4705246E-006  0.2342235E+03  0.7546771E-02  0.1126652E+00
          2   -1    0    0  501    0  0.00000000000E+00  0.00000000000E+00  0.36532859071E+03  0.36532859071E+03  0.00000000000E+00 0. -1.
         -2   -1    0    0    0  501 -0.00000000000E+00 -0.00000000000E+00 -0.14805181321E+03  0.14805181321E+03  0.00000000000E+00 0.  1.
          5    1    1    2  502    0 -0.15527589168E+03  0.59281610166E+02  0.18249998270E+03  0.24688711089E+03  0.47000000000E+01 0.  1.
         -5    1    1    2    0  502 -0.16161869050E+02  0.39906558918E+02 -0.94493039403E+01  0.44329660509E+02  0.47000000000E+01 0.  1.
        -11    1    1    2    0    0  0.74634596304E+02 -0.93679165587E+02  0.13939195265E+02  0.12058362325E+03  0.00000000000E+00 0.  1.
         11    1    1    2    0    0  0.96803164422E+02 -0.55090034967E+01  0.30286903478E+02  0.10158000927E+03  0.00000000000E+00 0. -1.
<mgrwt>
<rscale>  0 0.22998317E+03</rscale>
<asrwt>0</asrwt>
<pdfrwt beam="1">  1        2 0.56204398E-01 0.23422355E+03</pdfrwt>
<pdfrwt beam="2">  1       -2 0.22777202E-01 0.23422355E+03</pdfrwt>
<totfact> 0.14732933E+03</totfact>
</mgrwt>
</event>
<event>
 6    1  0.5367157E-006  0.3710802E+03  0.7546771E-02  0.1054281E+00
          1   -1    0    0  501    0  0.00000000000E+00  0.00000000000E+00  0.54896520520E+02  0.54896520520E+02  0.00000000000E+00 0. -1.
         -1   -1    0    0    0  501 -0.00000000000E+00 -0.00000000000E+00 -0.62709128713E+03  0.62709128713E+03  0.00000000000E+00 0.  1.
          5    1    1    2  502    0 -0.66283858385E+01  0.11566689411E+03 -0.17738882580E+03  0.21192369243E+03  0.47000000000E+01 0. -1.
         -5    1    1    2    0  502 -0.21226312281E+02  0.10990883519E+02  0.16635287443E+02  0.29498790516E+02  0.47000000000E+01 0. -1.
        -11    1    1    2    0    0 -0.17020079810E+02 -0.53981403704E+02 -0.78091354968E+02  0.96446538473E+02  0.00000000000E+00 0. -1.
         11    1    1    2    0    0  0.44874777929E+02 -0.72676373929E+02 -0.33334987328E+03  0.34411878623E+03  0.00000000000E+00 0.  1.
<mgrwt>
<rscale>  0 0.37108021E+03</rscale>
<asrwt>0</asrwt>
<pdfrwt beam="1">  1        1 0.84456193E-02 0.37108021E+03</pdfrwt>
<pdfrwt beam="2">  1       -1 0.96475574E-01 0.37108021E+03</pdfrwt>
<totfact> 0.88380906E+02</totfact>
</mgrwt>
</event>
<event>
 6    1  0.4705246E-006  0.1328879E+03  0.7546771E-02  0.1234967E+00
         -1   -1    0    0    0  501 -0.00000000000E+00  0.00000000000E+00  0.30246478220E+02  0.30246478220E+02  0.00000000000E+00 0.  1.
          1   -1    0    0  501    0  0.00000000000E+00 -0.00000000000E+00 -0.16420150556E+04  0.16420150556E+04  0.00000000000E+00 0. -1.
          5    1    1    2  502    0 -0.25926028353E+02 -0.84695517713E+02 -0.12645176193E+04  0.12676247036E+04  0.47000000000E+01 0. -1.
         -5    1    1    2    0  502  0.58269548299E+01  0.37306590707E+02 -0.27541119701E+03  0.27802725145E+03  0.47000000000E+01 0.  1.
        -11    1    1    2    0    0 -0.29066719031E+02 -0.26306795988E+01 -0.40171637887E+02  0.49654356515E+02  0.00000000000E+00 0. -1.
         11    1    1    2    0    0  0.49165792554E+02  0.50019606605E+02 -0.31668123154E+02  0.76955222218E+02  0.00000000000E+00 0.  1.
<mgrwt>
<rscale>  0 0.12506566E+03</rscale>
<asrwt>0</asrwt>
<pdfrwt beam="2">  1        1 0.25261769E+00 0.13288795E+03</pdfrwt>
<pdfrwt beam="1">  1       -1 0.46533046E-02 0.13288795E+03</pdfrwt>
<totfact> 0.11425475E+03</totfact>
</mgrwt>
</event>
<event>
 6    1  0.4705246E-006  0.1671650E+03  0.7546771E-02  0.1205397E+00
          1   -1    0    0  501    0  0.00000000000E+00  0.00000000000E+00  0.10071523225E+03  0.10071523225E+03  0.00000000000E+00 0. -1.
         -1   -1    0    0    0  501 -0.00000000000E+00 -0.00000000000E+00 -0.20135089244E+03  0.20135089244E+03  0.00000000000E+00 0.  1.
          5    1    1    2  502    0 -0.53339993085E+02 -0.30093243243E+02  0.35795194776E+02  0.71092503966E+02  0.47000000000E+01 0. -1.
         -5    1    1    2    0  502  0.82438312211E+02  0.23725874662E+02 -0.43381300963E+02  0.96244582819E+02  0.47000000000E+01 0.  1.
        -11    1    1    2    0    0  0.13745787494E+02  0.36070199454E+02 -0.64821257984E+02  0.75444028585E+02  0.00000000000E+00 0.  1.
         11    1    1    2    0    0 -0.42844106620E+02 -0.29702830873E+02 -0.28228296018E+02  0.59285009320E+02  0.00000000000E+00 0. -1.
<mgrwt>
<rscale>  0 0.14606242E+03</rscale>
<asrwt>0</asrwt>
<pdfrwt beam="1">  1        1 0.15494651E-01 0.16716504E+03</pdfrwt>
<pdfrwt beam="2">  1       -1 0.30977060E-01 0.16716504E+03</pdfrwt>
<totfact> 0.33594678E+03</totfact>
</mgrwt>
</event>
<event>
 6    1  0.4705246E-006  0.1779355E+03  0.7546771E-02  0.1185970E+00
         -1   -1    0    0    0  501 -0.00000000000E+00  0.00000000000E+00  0.34615359154E+02  0.34615359154E+02  0.00000000000E+00 0.  1.
          1   -1    0    0  501    0  0.00000000000E+00 -0.00000000000E+00 -0.83226716417E+03  0.83226716417E+03  0.00000000000E+00 0. -1.
          5    1    1    2  502    0  0.59160688969E+02  0.71296052760E+01 -0.34410152778E+03  0.34925459168E+03  0.47000000000E+01 0. -1.
         -5    1    1    2    0  502 -0.59259450764E+02 -0.91250979650E+02 -0.30799391011E+03  0.32668143880E+03  0.47000000000E+01 0.  1.
        -11    1    1    2    0    0 -0.31301987047E+02  0.27189599474E+02 -0.13249292597E+02  0.43527376064E+02  0.00000000000E+00 0.  1.
         11    1    1    2    0    0  0.31400748843E+02  0.56931774900E+02 -0.13230707454E+03  0.14741911678E+03  0.00000000000E+00 0. -1.
<mgrwt>
<rscale>  0 0.16243918E+03</rscale>
<asrwt>0</asrwt>
<pdfrwt beam="2">  1        1 0.12804110E+00 0.17793554E+03</pdfrwt>
<pdfrwt beam="1">  1       -1 0.53254400E-02 0.17793554E+03</pdfrwt>
<totfact> 0.34227600E+03</totfact>
</mgrwt>
</event>
<event>
 6    1  0.4705246E-006  0.1291328E+03  0.7546771E-02  0.1242569E+00
          3   -1    0    0  501    0  0.00000000000E+00  0.00000000000E+00  0.75056737150E+03  0.75056737150E+03  0.00000000000E+00 0. -1.
         -3   -1    0    0    0  501 -0.00000000000E+00 -0.00000000000E+00 -0.17113785763E+02  0.17113785763E+02  0.00000000000E+00 0.  1.
          5    1    1    2  502    0 -0.14902267529E+01  0.66138696536E+02  0.12959942032E+03  0.14558381676E+03  0.47000000000E+01 0. -1.
         -5    1    1    2    0  502  0.16827173422E+02 -0.37558353705E+02  0.30482951621E+03  0.30763112269E+03  0.47000000000E+01 0. -1.
        -11    1    1    2    0    0  0.32549375446E-01  0.32899021325E+02  0.12519396634E+03  0.12944448954E+03  0.00000000000E+00 0. -1.
         11    1    1    2    0    0 -0.15369496045E+02 -0.61479364156E+02  0.17383068287E+03  0.18502172827E+03  0.00000000000E+00 0.  1.
<mgrwt>
<rscale>  0 0.12032057E+03</rscale>
<asrwt>0</asrwt>
<pdfrwt beam="1">  1        3 0.11547188E+00 0.12913280E+03</pdfrwt>
<pdfrwt beam="2">  1       -3 0.26328907E-02 0.12913280E+03</pdfrwt>
<totfact> 0.92922178E+02</totfact>
</mgrwt>
</event>
<event>
 6    1  0.4705246E-006  0.1839390E+03  0.7546771E-02  0.1169262E+00
          1   -1    0    0  501    0  0.00000000000E+00  0.00000000000E+00  0.11145625836E+04  0.11145625836E+04  0.00000000000E+00 0. -1.
         -1   -1    0    0    0  501 -0.00000000000E+00 -0.00000000000E+00 -0.27023734875E+02  0.27023734875E+02  0.00000000000E+00 0.  1.
          5    1    1    2  502    0 -0.59303550952E+02 -0.44423744116E+02  0.10845853674E+03  0.13143714995E+03  0.47000000000E+01 0.  1.
         -5    1    1    2    0  502 -0.12158275678E+02 -0.70038096256E+02  0.47545475956E+03  0.48076239140E+03  0.47000000000E+01 0.  1.
        -11    1    1    2    0    0  0.37605710592E+02 -0.58716541696E+01  0.12392554163E+03  0.12963875062E+03  0.00000000000E+00 0. -1.
         11    1    1    2    0    0  0.33856116037E+02  0.12033349454E+03  0.37970001082E+03  0.39974802654E+03  0.00000000000E+00 0.  1.
<mgrwt>
<rscale>  0 0.17850044E+03</rscale>
<asrwt>0</asrwt>
<pdfrwt beam="1">  1        1 0.17147113E+00 0.18393896E+03</pdfrwt>
<pdfrwt beam="2">  1       -1 0.41574985E-02 0.18393896E+03</pdfrwt>
<totfact> 0.30360472E+03</totfact>
</mgrwt>
</event>
<event>
 6    1  0.4705246E-006  0.1504574E+03  0.7546771E-02  0.1208865E+00
          1   -1    0    0  501    0  0.00000000000E+00  0.00000000000E+00  0.47825581680E+03  0.47825581680E+03  0.00000000000E+00 0.  1.
         -1   -1    0    0    0  501 -0.00000000000E+00 -0.00000000000E+00 -0.66267651058E+02  0.66267651058E+02  0.00000000000E+00 0. -1.
          5    1    1    2  502    0  0.54089467976E+02 -0.83209656113E+02  0.32064725676E+03  0.33568775772E+03  0.47000000000E+01 0. -1.
         -5    1    1    2    0  502 -0.44230047474E+02  0.58188230151E-01  0.70042780134E+02  0.82972173253E+02  0.47000000000E+01 0. -1.
        -11    1    1    2    0    0  0.18791846586E+02  0.84275883076E+02 -0.56287816721E+01  0.86528845765E+02  0.00000000000E+00 0.  1.
         11    1    1    2    0    0 -0.28651267088E+02 -0.11244151935E+01  0.26926910520E+02  0.39334691119E+02  0.00000000000E+00 0. -1.
<mgrwt>
<rscale>  0 0.14336992E+03</rscale>
<asrwt>0</asrwt>
<pdfrwt beam="1">  1        1 0.73577816E-01 0.15045741E+03</pdfrwt>
<pdfrwt beam="2">  1       -1 0.10195024E-01 0.15045741E+03</pdfrwt>
<totfact> 0.27743507E+03</totfact>
</mgrwt>
</event>
<event>
 6    1  0.4705246E-006  0.1509809E+03  0.7546771E-02  0.1208848E+00
          1   -1    0    0  501    0  0.00000000000E+00  0.00000000000E+00  0.17634302629E+03  0.17634302629E+03  0.00000000000E+00 0.  1.
         -1   -1    0    0    0  501 -0.00000000000E+00 -0.00000000000E+00 -0.11245059727E+03  0.11245059727E+03  0.00000000000E+00 0. -1.
          5    1    1    2  502    0 -0.44882301943E+01 -0.44393239889E+02  0.13527767670E+02  0.46861438905E+02  0.47000000000E+01 0.  1.
         -5    1    1    2    0  502 -0.74770395408E+02  0.74211963185E+02  0.55208031510E+02  0.11902959402E+03  0.47000000000E+01 0.  1.
        -11    1    1    2    0    0  0.10141430588E+02 -0.46446188331E+02  0.13623666949E+02  0.49454032455E+02  0.00000000000E+00 0.  1.
         11    1    1    2    0    0  0.69117195014E+02  0.16627465036E+02 -0.18467037112E+02  0.73448558188E+02  0.00000000000E+00 0. -1.
<mgrwt>
<rscale>  0 0.14338289E+03</rscale>
<asrwt>0</asrwt>
<pdfrwt beam="1">  1        1 0.27129696E-01 0.15098088E+03</pdfrwt>
<pdfrwt beam="2">  1       -1 0.17300092E-01 0.15098088E+03</pdfrwt>
<totfact> 0.42463671E+03</totfact>
</mgrwt>
</event>
<event>
 6    1  0.4705246E-006  0.1330430E+03  0.7546771E-02  0.1235969E+00
          1   -1    0    0  501    0  0.00000000000E+00  0.00000000000E+00  0.40764402594E+03  0.40764402594E+03  0.00000000000E+00 0. -1.
         -1   -1    0    0    0  501 -0.00000000000E+00 -0.00000000000E+00 -0.44695411479E+02  0.44695411479E+02  0.00000000000E+00 0.  1.
          5    1    1    2  502    0 -0.95454009413E+00  0.25665695789E+02  0.23299127263E+03  0.23444970081E+03  0.47000000000E+01 0.  1.
         -5    1    1    2    0  502 -0.23748898297E+02 -0.63959945324E+02  0.77586791006E+02  0.10342477902E+03  0.47000000000E+01 0.  1.
        -11    1    1    2    0    0 -0.19707530799E+02 -0.13401989070E+02 -0.61734556979E+01  0.24619334607E+02  0.00000000000E+00 0.  1.
         11    1    1    2    0    0  0.44410969190E+02  0.51696238605E+02  0.58544006527E+02  0.89845622990E+02  0.00000000000E+00 0. -1.
<mgrwt>
<rscale>  0 0.12442612E+03</rscale>
<asrwt>0</asrwt>
<pdfrwt beam="1">  1        1 0.62714463E-01 0.13304296E+03</pdfrwt>
<pdfrwt beam="2">  1       -1 0.68762174E-02 0.13304296E+03</pdfrwt>
<totfact> 0.61419779E+03</totfact>
</mgrwt>
</event>
<event>
 6    1  0.4705246E-006  0.1634354E+03  0.7546771E-02  0.1191937E+00
         -4   -1    0    0    0  501 -0.00000000000E+00  0.00000000000E+00  0.12979879863E+02  0.12979879863E+02  0.00000000000E+00 0.  1.
          4   -1    0    0  501    0  0.00000000000E+00 -0.00000000000E+00 -0.24198066086E+04  0.24198066086E+04  0.00000000000E+00 0. -1.
          5    1    1    2  502    0 -0.29082355812E+02  0.19592137046E+02 -0.23777875980E+03  0.24039647224E+03  0.47000000000E+01 0.  1.
         -5    1    1    2    0  502  0.11219323636E+03  0.45052632602E+02 -0.16630866043E+04  0.16674819955E+04  0.47000000000E+01 0.  1.
        -11    1    1    2    0    0  0.11192466416E+02 -0.29677669017E+02 -0.61368368064E+02  0.69080474387E+02  0.00000000000E+00 0.  1.
         11    1    1    2    0    0 -0.94303346967E+02 -0.34967100632E+02 -0.44459299658E+03  0.45582754632E+03  0.00000000000E+00 0. -1.
<mgrwt>
<rscale>  0 0.15716344E+03</rscale>
<asrwt>0</asrwt>
<pdfrwt beam="2">  1        4 0.37227803E+00 0.16343536E+03</pdfrwt>
<pdfrwt beam="1">  1       -4 0.19969041E-02 0.16343536E+03</pdfrwt>
<totfact> 0.24163379E+01</totfact>
</mgrwt>
</event>
<event>
 6    1  0.4705246E-006  0.1446874E+03  0.7546771E-02  0.1216750E+00
         -1   -1    0    0    0  501 -0.00000000000E+00  0.00000000000E+00  0.49627305697E+02  0.49627305697E+02  0.00000000000E+00 0.  1.
          1   -1    0    0  501    0  0.00000000000E+00 -0.00000000000E+00 -0.39162029317E+03  0.39162029317E+03  0.00000000000E+00 0. -1.
          5    1    1    2  502    0 -0.44678304730E+02 -0.93407312736E+01 -0.54202212188E+02  0.71016688041E+02  0.47000000000E+01 0. -1.
         -5    1    1    2    0  502  0.75758402056E+02 -0.56569347716E+02 -0.20591933744E+03  0.22663691251E+03  0.47000000000E+01 0. -1.
        -11    1    1    2    0    0 -0.97974404317E-01 -0.11714185751E+02  0.12770942533E+02  0.17329994805E+02  0.00000000000E+00 0.  1.
         11    1    1    2    0    0 -0.30982122921E+02  0.77624264740E+02 -0.94642380379E+02  0.12626400350E+03  0.00000000000E+00 0. -1.
<mgrwt>
<rscale>  0 0.13748760E+03</rscale>
<asrwt>0</asrwt>
<pdfrwt beam="2">  1        1 0.60249277E-01 0.14468741E+03</pdfrwt>
<pdfrwt beam="1">  1       -1 0.76349700E-02 0.14468741E+03</pdfrwt>
<totfact> 0.55471690E+03</totfact>
</mgrwt>
</event>
<event>
 6    1  0.4705246E-006  0.2743499E+03  0.7546771E-02  0.1098816E+00
          2   -1    0    0  501    0  0.00000000000E+00  0.00000000000E+00  0.19121100751E+03  0.19121100751E+03  0.00000000000E+00 0. -1.
         -2   -1    0    0    0  501 -0.00000000000E+00 -0.00000000000E+00 -0.98409428027E+02  0.98409428027E+02  0.00000000000E+00 0.  1.
          5    1    1    2  502    0  0.10446775496E+02  0.14272794511E+02 -0.19711351352E+02  0.26897493443E+02  0.47000000000E+01 0.  1.
         -5    1    1    2    0  502 -0.63246266111E+02 -0.20976444882E+02  0.13769096863E+03  0.15303919190E+03  0.47000000000E+01 0.  1.
        -11    1    1    2    0    0  0.41054358045E+02 -0.38038116265E+02 -0.29425493923E+02  0.63231466028E+02  0.00000000000E+00 0. -1.
         11    1    1    2    0    0  0.11745132571E+02  0.44741766636E+02  0.42474561365E+01  0.46452284169E+02  0.00000000000E+00 0.  1.
<mgrwt>
<rscale>  0 0.27434989E+03</rscale>
<asrwt>0</asrwt>
<pdfrwt beam="1">  1        2 0.29417078E-01 0.27434989E+03</pdfrwt>
<pdfrwt beam="2">  1       -2 0.15139912E-01 0.27434989E+03</pdfrwt>
<totfact> 0.59954422E+03</totfact>
</mgrwt>
</event>
<event>
 6    1  0.4705246E-006  0.1537188E+03  0.7546771E-02  0.1204541E+00
          1   -1    0    0  501    0  0.00000000000E+00  0.00000000000E+00  0.10241370422E+04  0.10241370422E+04  0.00000000000E+00 0. -1.
         -1   -1    0    0    0  501 -0.00000000000E+00 -0.00000000000E+00 -0.21089237658E+02  0.21089237658E+02  0.00000000000E+00 0.  1.
          5    1    1    2  502    0 -0.16413632138E+02  0.33681093164E+02  0.12892631661E+03  0.13434250434E+03  0.47000000000E+01 0.  1.
         -5    1    1    2    0  502 -0.30609214874E+02 -0.10979984751E+03  0.56581794398E+03  0.57720444062E+03  0.47000000000E+01 0.  1.
        -11    1    1    2    0    0  0.16958014454E+02  0.72404050259E+02  0.28742246592E+03  0.29688650132E+03  0.00000000000E+00 0. -1.
         11    1    1    2    0    0  0.30064832558E+02  0.37147040827E+01  0.20881078034E+02  0.36792833582E+02  0.00000000000E+00 0.  1.
<mgrwt>
<rscale>  0 0.14673648E+03</rscale>
<asrwt>0</asrwt>
<pdfrwt beam="1">  1        1 0.15755951E+00 0.15371879E+03</pdfrwt>
<pdfrwt beam="2">  1       -1 0.32444989E-02 0.15371879E+03</pdfrwt>
<totfact> 0.50539853E+03</totfact>
</mgrwt>
</event>
<event>
 6    1  0.4705246E-006  0.1331559E+03  0.7546771E-02  0.1235652E+00
         -3   -1    0    0    0  501 -0.00000000000E+00  0.00000000000E+00  0.20438667568E+03  0.20438667568E+03  0.00000000000E+00 0.  1.
          3   -1    0    0  501    0  0.00000000000E+00 -0.00000000000E+00 -0.13087802928E+03  0.13087802928E+03  0.00000000000E+00 0. -1.
          5    1    1    2  502    0 -0.36645705815E+02  0.31967039475E+02 -0.19040575138E+02  0.52435034749E+02  0.47000000000E+01 0.  1.
         -5    1    1    2    0  502  0.30181737490E+02 -0.77401169624E+02 -0.57605550097E+02  0.10120458359E+03  0.47000000000E+01 0.  1.
        -11    1    1    2    0    0  0.67064793899E+01 -0.27933688612E+02  0.45667818813E+02  0.53951992553E+02  0.00000000000E+00 0.  1.
         11    1    1    2    0    0 -0.24251106479E+00  0.73367818760E+02  0.10448695281E+03  0.12767309407E+03  0.00000000000E+00 0. -1.
<mgrwt>
<rscale>  0 0.12462762E+03</rscale>
<asrwt>0</asrwt>
<pdfrwt beam="2">  1        3 0.20135081E-01 0.13315594E+03</pdfrwt>
<pdfrwt beam="1">  1       -3 0.31444104E-01 0.13315594E+03</pdfrwt>
<totfact> 0.50430311E+02</totfact>
</mgrwt>
</event>
<event>
 6    1  0.4705246E-006  0.1298253E+03  0.7546771E-02  0.1237699E+00
         -4   -1    0    0    0  501 -0.00000000000E+00  0.00000000000E+00  0.62811571962E+02  0.62811571962E+02  0.00000000000E+00 0.  1.
          4   -1    0    0  501    0  0.00000000000E+00 -0.00000000000E+00 -0.29755330872E+03  0.29755330872E+03  0.00000000000E+00 0. -1.
          5    1    1    2  502    0  0.16796424373E+02 -0.50751649616E+02 -0.21698741574E+03  0.22352511805E+03  0.47000000000E+01 0. -1.
         -5    1    1    2    0  502 -0.29312081305E+02 -0.17521347710E+00 -0.41368689553E+00  0.29689896380E+02  0.47000000000E+01 0.  1.
        -11    1    1    2    0    0  0.35490091375E+02  0.66399712129E+02 -0.23309663658E+02  0.78815028874E+02  0.00000000000E+00 0.  1.
         11    1    1    2    0    0 -0.22974434443E+02 -0.15472849036E+02  0.59690295388E+01  0.28334837372E+02  0.00000000000E+00 0. -1.
<mgrwt>
<rscale>  0 0.12333224E+03</rscale>
<asrwt>0</asrwt>
<pdfrwt beam="2">  1        4 0.45777433E-01 0.12982528E+03</pdfrwt>
<pdfrwt beam="1">  1       -4 0.96633186E-02 0.12982528E+03</pdfrwt>
<totfact> 0.61309305E+02</totfact>
</mgrwt>
</event>
<event>
 6    1  0.4705246E-006  0.2103792E+03  0.7546771E-02  0.1145243E+00
          2   -1    0    0  501    0  0.00000000000E+00  0.00000000000E+00  0.15781033046E+04  0.15781033046E+04  0.00000000000E+00 0. -1.
         -2   -1    0    0    0  501 -0.00000000000E+00 -0.00000000000E+00 -0.26522920303E+02  0.26522920303E+02  0.00000000000E+00 0.  1.
          5    1    1    2  502    0 -0.63847861611E+02 -0.27682261987E+02  0.31841095658E+03  0.32596086319E+03  0.47000000000E+01 0. -1.
         -5    1    1    2    0  502  0.28098523012E+02 -0.13771315403E+03  0.64624405666E+03  0.66136821102E+03  0.47000000000E+01 0. -1.
        -11    1    1    2    0    0  0.39822880285E+02  0.76481018864E+02  0.16594870181E+03  0.18701384888E+03  0.00000000000E+00 0.  1.
         11    1    1    2    0    0 -0.40735416860E+01  0.88914397152E+02  0.42097666924E+03  0.43028330180E+03  0.00000000000E+00 0. -1.
<mgrwt>
<rscale>  0 0.20542307E+03</rscale>
<asrwt>0</asrwt>
<pdfrwt beam="1">  1        2 0.24278505E+00 0.21037920E+03</pdfrwt>
<pdfrwt beam="2">  1       -2 0.40804505E-02 0.21037920E+03</pdfrwt>
<totfact> 0.33007105E+03</totfact>
</mgrwt>
</event>
<event>
 6    1  0.4705246E-006  0.1467843E+03  0.7546771E-02  0.1214285E+00
         -3   -1    0    0    0  501 -0.00000000000E+00  0.00000000000E+00  0.32680574643E+03  0.32680574643E+03  0.00000000000E+00 0.  1.
          3   -1    0    0  501    0  0.00000000000E+00 -0.00000000000E+00 -0.66280231952E+02  0.66280231952E+02  0.00000000000E+00 0. -1.
          5    1    1    2  502    0 -0.44717008221E+02  0.72495921480E+02  0.37265882379E+02  0.93091919332E+02  0.47000000000E+01 0.  1.
         -5    1    1    2    0  502  0.61047178077E+02  0.27443430917E+01  0.20044323525E+02  0.64483752029E+02  0.47000000000E+01 0.  1.
        -11    1    1    2    0    0 -0.43599172724E+02 -0.74366290388E+02  0.18042449186E+03  0.19996057179E+03  0.00000000000E+00 0.  1.
         11    1    1    2    0    0  0.27269002868E+02 -0.87397418327E+00  0.22790816710E+02  0.35549735226E+02  0.00000000000E+00 0. -1.
<mgrwt>
<rscale>  0 0.13929186E+03</rscale>
<asrwt>0</asrwt>
<pdfrwt beam="2">  1        3 0.10196959E-01 0.14678431E+03</pdfrwt>
<pdfrwt beam="1">  1       -3 0.50277807E-01 0.14678431E+03</pdfrwt>
<totfact> 0.66049558E+02</totfact>
</mgrwt>
</event>
<event>
 6    1  0.4705246E-006  0.2772435E+03  0.7546771E-02  0.1097204E+00
         -2   -1    0    0    0  501 -0.00000000000E+00  0.00000000000E+00  0.38631779626E+03  0.38631779626E+03  0.00000000000E+00 0.  1.
          2   -1    0    0  501    0  0.00000000000E+00 -0.00000000000E+00 -0.49741418689E+02  0.49741418689E+02  0.00000000000E+00 0. -1.
          5    1    1    2  502    0 -0.56894215720E+02 -0.41918051565E+02  0.17495207345E+03  0.18874425245E+03  0.47000000000E+01 0.  1.
         -5    1    1    2    0  502 -0.14174187632E+02  0.62145279164E+01 -0.19954517844E+02  0.25686586668E+02  0.47000000000E+01 0.  1.
        -11    1    1    2    0    0  0.54951649539E+02 -0.24602333502E+02  0.60211557808E+02  0.85149223687E+02  0.00000000000E+00 0.  1.
         11    1    1    2    0    0  0.16116753813E+02  0.60305857151E+02  0.12136726416E+03  0.13647915214E+03  0.00000000000E+00 0. -1.
<mgrwt>
<rscale>  0 0.27724354E+03</rscale>
<asrwt>0</asrwt>
<pdfrwt beam="2">  1        2 0.76525262E-02 0.27724354E+03</pdfrwt>
<pdfrwt beam="1">  1       -2 0.59433505E-01 0.27724354E+03</pdfrwt>
<totfact> 0.24222210E+03</totfact>
</mgrwt>
</event>
<event>
 6    1  0.4705246E-006  0.1477909E+03  0.7546771E-02  0.1213084E+00
         -2   -1    0    0    0  501 -0.00000000000E+00  0.00000000000E+00  0.44779437842E+02  0.44779437842E+02  0.00000000000E+00 0.  1.
          2   -1    0    0  501    0  0.00000000000E+00 -0.00000000000E+00 -0.49175704262E+03  0.49175704262E+03  0.00000000000E+00 0. -1.
          5    1    1    2  502    0  0.73360286573E+02  0.65996937084E+01 -0.17754070566E+03  0.19227085002E+03  0.47000000000E+01 0.  1.
         -5    1    1    2    0  502 -0.37474679899E+02  0.63613316318E+02 -0.18089139450E+03  0.19543487982E+03  0.47000000000E+01 0.  1.
        -11    1    1    2    0    0 -0.17328129667E+02 -0.49853799112E+02 -0.10444557034E+03  0.11702368361E+03  0.00000000000E+00 0. -1.
         11    1    1    2    0    0 -0.18557477007E+02 -0.20359210914E+02  0.15900065712E+02  0.31807067007E+02  0.00000000000E+00 0.  1.
<mgrwt>
<rscale>  0 0.14018189E+03</rscale>
<asrwt>0</asrwt>
<pdfrwt beam="2">  1        2 0.75654930E-01 0.14779094E+03</pdfrwt>
<pdfrwt beam="1">  1       -2 0.68891443E-02 0.14779094E+03</pdfrwt>
<totfact> 0.72928003E+03</totfact>
</mgrwt>
</event>
<event>
 6    1  0.4705246E-006  0.1347015E+03  0.7546771E-02  0.1233458E+00
         -2   -1    0    0    0  501 -0.00000000000E+00  0.00000000000E+00  0.19138714229E+03  0.19138714229E+03  0.00000000000E+00 0.  1.
          2   -1    0    0  501    0  0.00000000000E+00 -0.00000000000E+00 -0.75494059224E+02  0.75494059224E+02  0.00000000000E+00 0. -1.
          5    1    1    2  502    0  0.35805797732E+02  0.39285362288E+01 -0.40040123216E+02  0.54062833955E+02  0.47000000000E+01 0. -1.
         -5    1    1    2    0  502  0.11350896786E+02  0.13112930523E+02  0.86621264807E+02  0.88465390530E+02  0.47000000000E+01 0. -1.
        -11    1    1    2    0    0 -0.30953479376E+02  0.34842596070E+02  0.19144344953E+02  0.50384822418E+02  0.00000000000E+00 0. -1.
         11    1    1    2    0    0 -0.16203215143E+02 -0.51884062822E+02  0.50167596522E+02  0.73968154612E+02  0.00000000000E+00 0.  1.
<mgrwt>
<rscale>  0 0.12603655E+03</rscale>
<asrwt>0</asrwt>
<pdfrwt beam="2">  1        2 0.11614471E-01 0.13470149E+03</pdfrwt>
<pdfrwt beam="1">  1       -2 0.29444175E-01 0.13470149E+03</pdfrwt>
<totfact> 0.53468054E+03</totfact>
</mgrwt>
</event>
<event>
 6    1  0.4705246E-006  0.4116358E+03  0.7546771E-02  0.1039823E+00
         -2   -1    0    0    0  501 -0.00000000000E+00  0.00000000000E+00  0.26919539471E+03  0.26919539471E+03  0.00000000000E+00 0.  1.
          2   -1    0    0  501    0  0.00000000000E+00 -0.00000000000E+00 -0.15736157852E+03  0.15736157852E+03  0.00000000000E+00 0. -1.
          5    1    1    2  502    0 -0.80656788381E+02  0.85781801076E+02 -0.81430638318E+02  0.14323782240E+03  0.47000000000E+01 0.  1.
         -5    1    1    2    0  502 -0.32989580236E+02  0.72871671783E+01  0.41507686484E+02  0.53725164001E+02  0.47000000000E+01 0.  1.
        -11    1    1    2    0    0  0.93248288559E+02 -0.18775792654E+02  0.88199616978E+02  0.12971871933E+03  0.00000000000E+00 0.  1.
         11    1    1    2    0    0  0.20398080058E+02 -0.74293175600E+02  0.63557151044E+02  0.99875267507E+02  0.00000000000E+00 0. -1.
<mgrwt>
<rscale>  0 0.41163582E+03</rscale>
<asrwt>0</asrwt>
<pdfrwt beam="2">  1        2 0.24209474E-01 0.41163582E+03</pdfrwt>
<pdfrwt beam="1">  1       -2 0.41414676E-01 0.41163582E+03</pdfrwt>
<totfact> 0.12519606E+03</totfact>
</mgrwt>
</event>
<event>
 6    1  0.6017233E-006  0.1333890E+03  0.7546771E-02  0.1235595E+00
         -1   -1    0    0    0  501 -0.00000000000E+00  0.00000000000E+00  0.24982936734E+02  0.24982936734E+02  0.00000000000E+00 0.  1.
          1   -1    0    0  501    0  0.00000000000E+00 -0.00000000000E+00 -0.56178941643E+03  0.56178941643E+03  0.00000000000E+00 0. -1.
          5    1    1    2  502    0  0.51681552142E+01  0.17029200325E+02 -0.33424520050E+03  0.33475162069E+03  0.47000000000E+01 0.  1.
         -5    1    1    2    0  502  0.10892114859E+00  0.29227390837E+02 -0.53254302040E+01  0.30078271988E+02  0.47000000000E+01 0.  1.
        -11    1    1    2    0    0 -0.84634133668E+00  0.18389733831E+02 -0.49951503702E+01  0.19074855996E+02  0.00000000000E+00 0.  1.
         11    1    1    2    0    0 -0.44307350261E+01 -0.64646324993E+02 -0.19224069861E+03  0.20286760449E+03  0.00000000000E+00 0. -1.
<mgrwt>
<rscale>  0 0.12466416E+03</rscale>
<asrwt>0</asrwt>
<pdfrwt beam="2">  1        1 0.86429131E-01 0.13338905E+03</pdfrwt>
<pdfrwt beam="1">  1       -1 0.38435292E-02 0.13338905E+03</pdfrwt>
<totfact> 0.95942486E+03</totfact>
</mgrwt>
</event>
<event>
 6    1  0.4705246E-006  0.3495248E+03  0.7546771E-02  0.1062810E+00
          2   -1    0    0  501    0  0.00000000000E+00  0.00000000000E+00  0.69814370536E+03  0.69814370536E+03  0.00000000000E+00 0. -1.
         -2   -1    0    0    0  501 -0.00000000000E+00 -0.00000000000E+00 -0.43747303967E+02  0.43747303967E+02  0.00000000000E+00 0.  1.
          5    1    1    2  502    0  0.63710615922E+00  0.24986741511E+02 -0.30805524891E+01  0.25618800894E+02  0.47000000000E+01 0. -1.
         -5    1    1    2    0  502  0.71938078693E+02  0.90777011191E+02  0.33466824671E+03  0.35417577315E+03  0.47000000000E+01 0. -1.
        -11    1    1    2    0    0 -0.79339770292E+02 -0.44544007208E+02  0.20468941116E+03  0.22400161332E+03  0.00000000000E+00 0. -1.
         11    1    1    2    0    0  0.67645854402E+01 -0.71219745495E+02  0.11811929601E+03  0.13809482197E+03  0.00000000000E+00 0.  1.
<mgrwt>
<rscale>  0 0.34952485E+03</rscale>
<asrwt>0</asrwt>
<pdfrwt beam="1">  1        2 0.10740672E+00 0.34952485E+03</pdfrwt>
<pdfrwt beam="2">  1       -2 0.67303550E-02 0.34952485E+03</pdfrwt>
<totfact> 0.52342902E+03</totfact>
</mgrwt>
</event>
<event>
 6    1  0.4705246E-006  0.3792092E+03  0.7546771E-02  0.1051226E+00
         -1   -1    0    0    0  501 -0.00000000000E+00  0.00000000000E+00  0.28948938387E+02  0.28948938387E+02  0.00000000000E+00 0.  1.
          1   -1    0    0  501    0  0.00000000000E+00 -0.00000000000E+00 -0.12418387456E+04  0.12418387456E+04  0.00000000000E+00 0. -1.
          5    1    1    2  502    0  0.14662010885E+03  0.32219755462E+02 -0.53353848833E+03  0.55427518210E+03  0.47000000000E+01 0. -1.
         -5    1    1    2    0  502 -0.14581554217E+02  0.41851070471E+02 -0.21595331661E+03  0.22050410150E+03  0.47000000000E+01 0. -1.
        -11    1    1    2    0    0 -0.70349805597E+02 -0.88599706468E+02 -0.28133266652E+03  0.30322775662E+03  0.00000000000E+00 0.  1.
         11    1    1    2    0    0 -0.61688749041E+02  0.14528880536E+02 -0.18206533573E+03  0.19278064374E+03  0.00000000000E+00 0. -1.
<mgrwt>
<rscale>  0 0.37920925E+03</rscale>
<asrwt>0</asrwt>
<pdfrwt beam="2">  1        1 0.19105216E+00 0.37920925E+03</pdfrwt>
<pdfrwt beam="1">  1       -1 0.44536818E-02 0.37920925E+03</pdfrwt>
<totfact> 0.22427929E+03</totfact>
</mgrwt>
</event>
<event>
 6    1  0.4705246E-006  0.3878661E+03  0.7546771E-02  0.1048064E+00
         -1   -1    0    0    0  501 -0.00000000000E+00  0.00000000000E+00  0.29634078187E+02  0.29634078187E+02  0.00000000000E+00 0.  1.
          1   -1    0    0  501    0  0.00000000000E+00 -0.00000000000E+00 -0.12691477260E+04  0.12691477260E+04  0.00000000000E+00 0. -1.
          5    1    1    2  502    0  0.22953965592E+01  0.81309423322E+02 -0.29624218432E+03  0.30724259623E+03  0.47000000000E+01 0. -1.
         -5    1    1    2    0  502 -0.14984380116E+02  0.12104174590E+02 -0.78756491610E+03  0.78781446404E+03  0.47000000000E+01 0. -1.
        -11    1    1    2    0    0 -0.36113346958E+02 -0.41949692546E+02 -0.41082330065E+02  0.68932636513E+02  0.00000000000E+00 0.  1.
         11    1    1    2    0    0  0.48802330514E+02 -0.51463905367E+02 -0.11462421734E+03  0.13479210741E+03  0.00000000000E+00 0. -1.
<mgrwt>
<rscale>  0 0.38786607E+03</rscale>
<asrwt>0</asrwt>
<pdfrwt beam="2">  1        1 0.19525348E+00 0.38786607E+03</pdfrwt>
<pdfrwt beam="1">  1       -1 0.45590893E-02 0.38786607E+03</pdfrwt>
<totfact> 0.20717029E+03</totfact>
</mgrwt>
</event>
<event>
 6    1  0.4705246E-006  0.4211109E+03  0.7546771E-02  0.1036705E+00
          2   -1    0    0  501    0  0.00000000000E+00  0.00000000000E+00  0.42923734915E+03  0.42923734915E+03  0.00000000000E+00 0. -1.
         -2   -1    0    0    0  501 -0.00000000000E+00 -0.00000000000E+00 -0.10328457547E+03  0.10328457547E+03  0.00000000000E+00 0.  1.
          5    1    1    2  502    0  0.12263568764E+03 -0.12893953532E+03  0.23762013504E+03  0.29690121964E+03  0.47000000000E+01 0. -1.
         -5    1    1    2    0  502 -0.15313203190E+02  0.13993015322E+02  0.45761921645E+02  0.50463275185E+02  0.47000000000E+01 0. -1.
        -11    1    1    2    0    0 -0.33851842256E+02 -0.44347128785E+01 -0.97942540437E+01  0.35518182875E+02  0.00000000000E+00 0.  1.
         11    1    1    2    0    0 -0.73470642196E+02  0.11938123287E+03  0.52364971043E+02  0.14963924692E+03  0.00000000000E+00 0. -1.
<mgrwt>
<rscale>  0 0.42111090E+03</rscale>
<asrwt>0</asrwt>
<pdfrwt beam="1">  1        2 0.66036514E-01 0.42111090E+03</pdfrwt>
<pdfrwt beam="2">  1       -2 0.15889935E-01 0.42111090E+03</pdfrwt>
<totfact> 0.23105458E+03</totfact>
</mgrwt>
</event>
<event>
 6    1  0.4705246E-006  0.1668142E+03  0.7546771E-02  0.1187693E+00
          1   -1    0    0  501    0  0.00000000000E+00  0.00000000000E+00  0.42128452804E+03  0.42128452804E+03  0.00000000000E+00 0. -1.
         -1   -1    0    0    0  501 -0.00000000000E+00 -0.00000000000E+00 -0.62458579563E+02  0.62458579563E+02  0.00000000000E+00 0.  1.
          5    1    1    2  502    0 -0.76664803289E+01  0.42240934170E+02  0.41688762834E+02  0.60025947613E+02  0.47000000000E+01 0. -1.
         -5    1    1    2    0  502 -0.10048982737E+03 -0.64589422730E+02  0.21789587776E+03  0.24853712495E+03  0.47000000000E+01 0. -1.
        -11    1    1    2    0    0  0.12325488825E+02  0.75785029229E+01  0.73428698828E+02  0.74840665369E+02  0.00000000000E+00 0. -1.
         11    1    1    2    0    0  0.95830818870E+02  0.14769985637E+02  0.25812609061E+02  0.10033936968E+03  0.00000000000E+00 0.  1.
<mgrwt>
<rscale>  0 0.16089219E+03</rscale>
<asrwt>0</asrwt>
<pdfrwt beam="1">  1        1 0.64813002E-01 0.16681422E+03</pdfrwt>
<pdfrwt beam="2">  1       -1 0.96090125E-02 0.16681422E+03</pdfrwt>
<totfact> 0.35905509E+03</totfact>
</mgrwt>
</event>
<event>
 6    1  0.4705246E-006  0.1308951E+03  0.7546771E-02  0.1239551E+00
          1   -1    0    0  501    0  0.00000000000E+00  0.00000000000E+00  0.18086605893E+04  0.18086605893E+04  0.00000000000E+00 0. -1.
         -1   -1    0    0    0  501 -0.00000000000E+00 -0.00000000000E+00 -0.81586004086E+01  0.81586004086E+01  0.00000000000E+00 0.  1.
          5    1    1    2  502    0 -0.78846290817E+02 -0.16360950297E+02  0.71398538476E+03  0.71852740930E+03  0.47000000000E+01 0.  1.
         -5    1    1    2    0  502  0.41202519796E+02  0.25840865374E+02  0.58451389551E+03  0.58655262510E+03  0.47000000000E+01 0.  1.
        -11    1    1    2    0    0  0.62928205221E+02 -0.26815365823E+02  0.32804288822E+03  0.33509873078E+03  0.00000000000E+00 0.  1.
         11    1    1    2    0    0 -0.25284434200E+02  0.17335450747E+02  0.17395982045E+03  0.17664042458E+03  0.00000000000E+00 0. -1.
<mgrwt>
<rscale>  0 0.12217530E+03</rscale>
<asrwt>0</asrwt>
<pdfrwt beam="1">  1        1 0.27825516E+00 0.13089505E+03</pdfrwt>
<pdfrwt beam="2">  1       -1 0.12551707E-02 0.13089505E+03</pdfrwt>
<totfact> 0.59721996E+03</totfact>
</mgrwt>
</event>
<event>
 6    1  0.4705246E-006  0.4182811E+03  0.7546771E-02  0.1037627E+00
         -1   -1    0    0    0  501 -0.00000000000E+00  0.00000000000E+00  0.57440027576E+02  0.57440027576E+02  0.00000000000E+00 0.  1.
          1   -1    0    0  501    0  0.00000000000E+00 -0.00000000000E+00 -0.76148599382E+03  0.76148599382E+03  0.00000000000E+00 0. -1.
          5    1    1    2  502    0 -0.77446193556E+01  0.27041913735E+02 -0.39309202333E+02  0.48564880474E+02  0.47000000000E+01 0.  1.
         -5    1    1    2    0  502 -0.13639938838E+03 -0.11530867577E+03 -0.43346218097E+03  0.46884158966E+03  0.47000000000E+01 0.  1.
        -11    1    1    2    0    0  0.36655248809E+02  0.66868512829E+02 -0.13771720511E+03  0.15741992840E+03  0.00000000000E+00 0.  1.
         11    1    1    2    0    0  0.10748875892E+03  0.21398249208E+02 -0.93557377826E+02  0.14409962287E+03  0.00000000000E+00 0. -1.
<mgrwt>
<rscale>  0 0.41828113E+03</rscale>
<asrwt>0</asrwt>
<pdfrwt beam="2">  1        1 0.11715168E+00 0.41828113E+03</pdfrwt>
<pdfrwt beam="1">  1       -1 0.88369280E-02 0.41828113E+03</pdfrwt>
<totfact> 0.18397872E+03</totfact>
</mgrwt>
</event>
<event>
 6    1  0.4705246E-006  0.2955465E+03  0.7546771E-02  0.1087488E+00
         -1   -1    0    0    0  501 -0.00000000000E+00  0.00000000000E+00  0.36807077221E+02  0.36807077221E+02  0.00000000000E+00 0.  1.
          1   -1    0    0  501    0  0.00000000000E+00 -0.00000000000E+00 -0.59328072140E+03  0.59328072140E+03  0.00000000000E+00 0. -1.
          5    1    1    2  502    0 -0.10518501983E+03  0.38140640963E+01 -0.39010834053E+03  0.40408544001E+03  0.47000000000E+01 0. -1.
         -5    1    1    2    0  502  0.27751016275E+02  0.14294400845E+02 -0.40841196472E+02  0.51619203104E+02  0.47000000000E+01 0. -1.
        -11    1    1    2    0    0  0.11647112216E+02 -0.42785774423E+02 -0.77457669628E+02  0.89252273361E+02  0.00000000000E+00 0. -1.
         11    1    1    2    0    0  0.65786891339E+02  0.24677309482E+02 -0.48066437546E+02  0.85130882138E+02  0.00000000000E+00 0.  1.
<mgrwt>
<rscale>  0 0.29554647E+03</rscale>
<asrwt>0</asrwt>
<pdfrwt beam="2">  1        1 0.91273962E-01 0.29554647E+03</pdfrwt>
<pdfrwt beam="1">  1       -1 0.56626270E-02 0.29554647E+03</pdfrwt>
<totfact> 0.52062097E+03</totfact>
</mgrwt>
</event>
<event>
 6    1  0.4705246E-006  0.1397923E+03  0.7546771E-02  0.1224406E+00
          1   -1    0    0  501    0  0.00000000000E+00  0.00000000000E+00  0.37656885936E+03  0.37656885936E+03  0.00000000000E+00 0. -1.
         -1   -1    0    0    0  501 -0.00000000000E+00 -0.00000000000E+00 -0.51746781870E+02  0.51746781870E+02  0.00000000000E+00 0.  1.
          5    1    1    2  502    0  0.39540741388E+02  0.38253444524E+02  0.14106204826E+03  0.15148395198E+03  0.47000000000E+01 0.  1.
         -5    1    1    2    0  502  0.59650548694E+01 -0.81209396696E+02  0.12920642953E+03  0.15279705306E+03  0.47000000000E+01 0.  1.
        -11    1    1    2    0    0 -0.64760789080E+02  0.99576445724E+01  0.11586499224E+02  0.66538420871E+02  0.00000000000E+00 0.  1.
         11    1    1    2    0    0  0.19254992823E+02  0.32998307599E+02  0.42967100474E+02  0.57496215320E+02  0.00000000000E+00 0. -1.
<mgrwt>
<rscale>  0 0.13207702E+03</rscale>
<asrwt>0</asrwt>
<pdfrwt beam="1">  1        1 0.57933669E-01 0.13979227E+03</pdfrwt>
<pdfrwt beam="2">  1       -1 0.79610436E-02 0.13979227E+03</pdfrwt>
<totfact> 0.54605570E+03</totfact>
</mgrwt>
</event>
<event>
 6    1  0.4705246E-006  0.1310584E+03  0.7546771E-02  0.1238724E+00
          2   -1    0    0  501    0  0.00000000000E+00  0.00000000000E+00  0.57076995590E+03  0.57076995590E+03  0.00000000000E+00 0. -1.
         -2   -1    0    0    0  501 -0.00000000000E+00 -0.00000000000E+00 -0.27210594113E+02  0.27210594113E+02  0.00000000000E+00 0.  1.
          5    1    1    2  502    0 -0.41287510366E+02  0.10781479009E+02  0.45688585940E+02  0.62693186927E+02  0.47000000000E+01 0.  1.
         -5    1    1    2    0  502  0.40263117464E+02  0.28561198369E+02  0.36623428397E+03  0.36957611047E+03  0.47000000000E+01 0.  1.
        -11    1    1    2    0    0  0.22130627655E+02 -0.57258430789E+02  0.48951473229E+02  0.78514580226E+02  0.00000000000E+00 0.  1.
         11    1    1    2    0    0 -0.21106234754E+02  0.17915753412E+02  0.82685018652E+02  0.87196672386E+02  0.00000000000E+00 0. -1.
<mgrwt>
<rscale>  0 0.12269044E+03</rscale>
<asrwt>0</asrwt>
<pdfrwt beam="1">  1        2 0.87810753E-01 0.13105836E+03</pdfrwt>
<pdfrwt beam="2">  1       -2 0.41862457E-02 0.13105836E+03</pdfrwt>
<totfact> 0.13000575E+04</totfact>
</mgrwt>
</event>
<event>
 6    1  0.9499488E-006  0.1873662E+03  0.7546771E-02  0.1166546E+00
          1   -1    0    0  501    0  0.00000000000E+00  0.00000000000E+00  0.79716103400E+03  0.79716103400E+03  0.00000000000E+00 0. -1.
         -1   -1    0    0    0  501 -0.00000000000E+00 -0.00000000000E+00 -0.41018458125E+02  0.41018458125E+02  0.00000000000E+00 0.  1.
          5    1    1    2  502    0  0.10396524633E+03  0.96899323274E+02  0.41506600985E+03  0.43874837188E+03  0.47000000000E+01 0. -1.
         -5    1    1    2    0  502  0.21923422983E+02 -0.36624221796E+02  0.84213785255E+02  0.94530533292E+02  0.47000000000E+01 0. -1.
        -11    1    1    2    0    0 -0.94101126018E+02 -0.31957202051E+02  0.23880327354E+03  0.25865669938E+03  0.00000000000E+00 0. -1.
         11    1    1    2    0    0 -0.31787543290E+02 -0.28317899427E+02  0.18059507229E+02  0.46243887572E+02  0.00000000000E+00 0.  1.
<mgrwt>
<rscale>  0 0.18130527E+03</rscale>
<asrwt>0</asrwt>
<pdfrwt beam="1">  1        1 0.12264015E+00 0.18736616E+03</pdfrwt>
<pdfrwt beam="2">  1       -1 0.63105326E-02 0.18736616E+03</pdfrwt>
<totfact> 0.28396253E+03</totfact>
</mgrwt>
</event>
<event>
 6    1  0.4705246E-006  0.2895934E+03  0.7546771E-02  0.1091277E+00
         -1   -1    0    0    0  501 -0.00000000000E+00  0.00000000000E+00  0.63273324903E+02  0.63273324903E+02  0.00000000000E+00 0.  1.
          1   -1    0    0  501    0  0.00000000000E+00 -0.00000000000E+00 -0.14707409588E+04  0.14707409588E+04  0.00000000000E+00 0. -1.
          5    1    1    2  502    0 -0.24217348120E+03  0.95057198331E+02 -0.81122158662E+03  0.85193099400E+03  0.47000000000E+01 0. -1.
         -5    1    1    2    0  502 -0.81658754560E+01 -0.20426419755E+02 -0.15913885280E+03  0.16072082820E+03  0.47000000000E+01 0. -1.
        -11    1    1    2    0    0  0.13570345020E+03  0.14743066685E+02 -0.17860184081E+03  0.22479190811E+03  0.00000000000E+00 0. -1.
         11    1    1    2    0    0  0.11463590645E+03 -0.89373845261E+02 -0.25850535369E+03  0.29657055341E+03  0.00000000000E+00 0.  1.
<mgrwt>
<rscale>  0 0.28822949E+03</rscale>
<asrwt>0</asrwt>
<pdfrwt beam="2">  1        1 0.22626784E+00 0.28959339E+03</pdfrwt>
<pdfrwt beam="1">  1       -1 0.97343577E-02 0.28959339E+03</pdfrwt>
<totfact> 0.47580883E+02</totfact>
</mgrwt>
</event>
<event>
 6    1  0.4705246E-006  0.3682451E+03  0.7546771E-02  0.1055366E+00
          2   -1    0    0  501    0  0.00000000000E+00  0.00000000000E+00  0.14771298255E+04  0.14771298255E+04  0.00000000000E+00 0.  1.
         -2   -1    0    0    0  501 -0.00000000000E+00 -0.00000000000E+00 -0.22950666232E+02  0.22950666232E+02  0.00000000000E+00 0. -1.
          5    1    1    2  502    0 -0.79234567102E+02 -0.62812436256E+02  0.99860813485E+03  0.10037249702E+04  0.47000000000E+01 0. -1.
         -5    1    1    2    0  502 -0.30146421547E+02 -0.12874396934E+02  0.45831396069E+02  0.56543467299E+02  0.47000000000E+01 0. -1.
        -11    1    1    2    0    0  0.39545925360E+02  0.75165184298E+02  0.27829285517E+03  0.29096494356E+03  0.00000000000E+00 0.  1.
         11    1    1    2    0    0  0.69835063290E+02  0.52164889143E+00  0.13144677318E+03  0.14884711069E+03  0.00000000000E+00 0. -1.
<mgrwt>
<rscale>  0 0.36824510E+03</rscale>
<asrwt>0</asrwt>
<pdfrwt beam="1">  1        2 0.22725067E+00 0.36824510E+03</pdfrwt>
<pdfrwt beam="2">  1       -2 0.35308729E-02 0.36824510E+03</pdfrwt>
<totfact> 0.46678901E+03</totfact>
</mgrwt>
</event>
<event>
 6    1  0.4705246E-006  0.2690430E+03  0.7546771E-02  0.1103417E+00
          1   -1    0    0  501    0  0.00000000000E+00  0.00000000000E+00  0.12792503793E+04  0.12792503793E+04  0.00000000000E+00 0. -1.
         -1   -1    0    0    0  501 -0.00000000000E+00 -0.00000000000E+00 -0.54368055758E+02  0.54368055758E+02  0.00000000000E+00 0.  1.
          5    1    1    2  502    0 -0.20440120304E+03 -0.12793998737E+03  0.59915841540E+03  0.64588032089E+03  0.47000000000E+01 0.  1.
         -5    1    1    2    0  502  0.11248832117E+02 -0.11530428104E+02  0.87979443807E+01  0.18946789216E+02  0.47000000000E+01 0.  1.
        -11    1    1    2    0    0  0.11605575366E+02  0.50593926729E+01  0.94199598450E+00  0.12695439741E+02  0.00000000000E+00 0.  1.
         11    1    1    2    0    0  0.18154679556E+03  0.13441102280E+03  0.61598396775E+03  0.65609588518E+03  0.00000000000E+00 0. -1.
<mgrwt>
<rscale>  0 0.26629877E+03</rscale>
<asrwt>0</asrwt>
<pdfrwt beam="1">  1        1 0.19680773E+00 0.26904303E+03</pdfrwt>
<pdfrwt beam="2">  1       -1 0.83643172E-02 0.26904303E+03</pdfrwt>
<totfact> 0.81217412E+02</totfact>
</mgrwt>
</event>
<event>
 6    1  0.4705246E-006  0.3725239E+03  0.7546771E-02  0.1053732E+00
          2   -1    0    0  501    0  0.00000000000E+00  0.00000000000E+00  0.88036015598E+03  0.88036015598E+03  0.00000000000E+00 0. -1.
         -2   -1    0    0    0  501 -0.00000000000E+00 -0.00000000000E+00 -0.39408324719E+02  0.39408324719E+02  0.00000000000E+00 0.  1.
          5    1    1    2  502    0 -0.16372915619E+02  0.31635465727E+01  0.11237488198E+02  0.20650702985E+02  0.47000000000E+01 0.  1.
         -5    1    1    2    0  502  0.49986098313E+02 -0.11336939192E+03  0.67799883426E+03  0.68924287324E+03  0.47000000000E+01 0.  1.
        -11    1    1    2    0    0 -0.21324359150E+02  0.61680854028E+02  0.14545855599E+03  0.15942850296E+03  0.00000000000E+00 0. -1.
         11    1    1    2    0    0 -0.12288823543E+02  0.48524991323E+02  0.62569528124E+01  0.50446401511E+02  0.00000000000E+00 0.  1.
<mgrwt>
<rscale>  0 0.37252393E+03</rscale>
<asrwt>0</asrwt>
<pdfrwt beam="1">  1        2 0.13544001E+00 0.37252393E+03</pdfrwt>
<pdfrwt beam="2">  1       -2 0.60628198E-02 0.37252393E+03</pdfrwt>
<totfact> 0.45793064E+03</totfact>
</mgrwt>
</event>
<event>
 6    1  0.4705246E-006  0.1607265E+03  0.7546771E-02  0.1195573E+00
          1   -1    0    0  501    0  0.00000000000E+00  0.00000000000E+00  0.87314985999E+03  0.87314985999E+03  0.00000000000E+00 0. -1.
         -1   -1    0    0    0  501 -0.00000000000E+00 -0.00000000000E+00 -0.30416486504E+02  0.30416486504E+02  0.00000000000E+00 0.  1.
          5    1    1    2  502    0 -0.30155523160E+02  0.68595406067E+02  0.38789865576E+03  0.39509763661E+03  0.47000000000E+01 0.  1.
         -5    1    1    2    0  502  0.78092548335E+02  0.20336880973E+02  0.25030149062E+03  0.26303034244E+03  0.47000000000E+01 0.  1.
        -11    1    1    2    0    0 -0.59776860624E+02 -0.17289782481E+02  0.10798183418E+03  0.12462859286E+03  0.00000000000E+00 0. -1.
         11    1    1    2    0    0  0.11839835449E+02 -0.71642504558E+02  0.96551392919E+02  0.12080977459E+03  0.00000000000E+00 0.  1.
<mgrwt>
<rscale>  0 0.15405862E+03</rscale>
<asrwt>0</asrwt>
<pdfrwt beam="1">  1        1 0.13433073E+00 0.16072651E+03</pdfrwt>
<pdfrwt beam="2">  1       -1 0.46794601E-02 0.16072651E+03</pdfrwt>
<totfact> 0.38371399E+03</totfact>
</mgrwt>
</event>
<event>
 6    1  0.4705246E-006  0.1447209E+03  0.7546771E-02  0.1217213E+00
         -3   -1    0    0    0  501 -0.00000000000E+00  0.00000000000E+00  0.22097080160E+02  0.22097080160E+02  0.00000000000E+00 0. -1.
          3   -1    0    0  501    0  0.00000000000E+00 -0.00000000000E+00 -0.79627400641E+03  0.79627400641E+03  0.00000000000E+00 0.  1.
          5    1    1    2  502    0  0.25555921534E+02  0.58843381378E+01 -0.36729332084E+03  0.36825833880E+03  0.47000000000E+01 0. -1.
         -5    1    1    2    0  502  0.10084348285E+01 -0.73810668984E+02 -0.12896045116E+03  0.14866714419E+03  0.47000000000E+01 0. -1.
        -11    1    1    2    0    0 -0.30924206221E+02  0.41765365907E+02 -0.26821460838E+03  0.27320272413E+03  0.00000000000E+00 0.  1.
         11    1    1    2    0    0  0.43598498583E+01  0.26160964939E+02 -0.97085458639E+01  0.28242879459E+02  0.00000000000E+00 0. -1.
<mgrwt>
<rscale>  0 0.13715234E+03</rscale>
<asrwt>0</asrwt>
<pdfrwt beam="2">  1        3 0.12250371E+00 0.14472093E+03</pdfrwt>
<pdfrwt beam="1">  1       -3 0.33995505E-02 0.14472093E+03</pdfrwt>
<totfact> 0.55416439E+02</totfact>
</mgrwt>
</event>
<event>
 6    1  0.4705246E-006  0.1280556E+03  0.7546771E-02  0.1241922E+00
          1   -1    0    0  501    0  0.00000000000E+00  0.00000000000E+00  0.89735449408E+03  0.89735449408E+03  0.00000000000E+00 0. -1.
         -1   -1    0    0    0  501 -0.00000000000E+00 -0.00000000000E+00 -0.16094353225E+02  0.16094353225E+02  0.00000000000E+00 0.  1.
          5    1    1    2  502    0  0.70374171237E+02 -0.22425404970E+01  0.50708688511E+03  0.51197338995E+03  0.47000000000E+01 0. -1.
         -5    1    1    2    0  502 -0.43727043639E+02 -0.59275988975E+01  0.11738789049E+03  0.12549580713E+03  0.47000000000E+01 0. -1.
        -11    1    1    2    0    0  0.24822990568E+02  0.87345771595E+01  0.18422967584E+02  0.32122880218E+02  0.00000000000E+00 0. -1.
         11    1    1    2    0    0 -0.51470118166E+02 -0.56443776507E+00  0.23836239767E+03  0.24385677001E+03  0.00000000000E+00 0.  1.
<mgrwt>
<rscale>  0 0.12071531E+03</rscale>
<asrwt>0</asrwt>
<pdfrwt beam="1">  1        1 0.13805450E+00 0.12805558E+03</pdfrwt>
<pdfrwt beam="2">  1       -1 0.24760550E-02 0.12805558E+03</pdfrwt>
<totfact> 0.92324055E+03</totfact>
</mgrwt>
</event>
<event>
 6    1  0.4705246E-006  0.1303913E+03  0.7546771E-02  0.1242007E+00
          2   -1    0    0  501    0  0.00000000000E+00  0.00000000000E+00  0.87797889892E+02  0.87797889892E+02  0.00000000000E+00 0. -1.
         -2   -1    0    0    0  501 -0.00000000000E+00 -0.00000000000E+00 -0.16407745139E+03  0.16407745139E+03  0.00000000000E+00 0.  1.
          5    1    1    2  502    0 -0.15666002389E+02 -0.44495941974E+02  0.22573865550E+02  0.52506969908E+02  0.47000000000E+01 0. -1.
         -5    1    1    2    0  502  0.25135228494E+02  0.69573676691E+02 -0.23931057779E+02  0.77891345644E+02  0.47000000000E+01 0.  1.
        -11    1    1    2    0    0 -0.65270264488E+01  0.23282728116E+02 -0.68451669416E+02  0.72596959638E+02  0.00000000000E+00 0.  1.
         11    1    1    2    0    0 -0.29421996560E+01 -0.48360462833E+02 -0.64706998497E+01  0.48880066088E+02  0.00000000000E+00 0. -1.
<mgrwt>
<rscale>  0 0.12066304E+03</rscale>
<asrwt>0</asrwt>
<pdfrwt beam="1">  1        2 0.13507368E-01 0.13039125E+03</pdfrwt>
<pdfrwt beam="2">  1       -2 0.25242685E-01 0.13039125E+03</pdfrwt>
<totfact> 0.58481894E+03</totfact>
</mgrwt>
</event>
<event>
 6    1  0.4705246E-006  0.1395227E+03  0.7546771E-02  0.1225204E+00
         -2   -1    0    0    0  501 -0.00000000000E+00  0.00000000000E+00  0.13830728341E+02  0.13830728341E+02  0.00000000000E+00 0.  1.
          2   -1    0    0  501    0  0.00000000000E+00 -0.00000000000E+00 -0.14231437427E+04  0.14231437427E+04  0.00000000000E+00 0. -1.
          5    1    1    2  502    0 -0.74918578393E+00 -0.32737362172E+02 -0.11513547840E+03  0.11979384186E+03  0.47000000000E+01 0.  1.
         -5    1    1    2    0  502 -0.34326528511E+02  0.83843352568E+02 -0.98094013832E+03  0.98512621694E+03  0.47000000000E+01 0.  1.
        -11    1    1    2    0    0  0.31384179886E+02 -0.77456152081E+02 -0.23543364217E+03  0.24982678421E+03  0.00000000000E+00 0. -1.
         11    1    1    2    0    0  0.36915344088E+01  0.26350161685E+02 -0.77803755466E+02  0.82227628032E+02  0.00000000000E+00 0.  1.
<mgrwt>
<rscale>  0 0.13152914E+03</rscale>
<asrwt>0</asrwt>
<pdfrwt beam="2">  1        2 0.21894527E+00 0.13952268E+03</pdfrwt>
<pdfrwt beam="1">  1       -2 0.21278036E-02 0.13952268E+03</pdfrwt>
<totfact> 0.10319955E+04</totfact>
</mgrwt>
</event>
<event>
 6    1  0.4705246E-006  0.1269579E+03  0.7546771E-02  0.1246605E+00
          1   -1    0    0  501    0  0.00000000000E+00  0.00000000000E+00  0.14983469055E+03  0.14983469055E+03  0.00000000000E+00 0. -1.
         -1   -1    0    0    0  501 -0.00000000000E+00 -0.00000000000E+00 -0.81987180194E+02  0.81987180194E+02  0.00000000000E+00 0.  1.
          5    1    1    2  502    0  0.51791989416E+02  0.17138195815E+02 -0.17132047616E+02  0.57373556443E+02  0.47000000000E+01 0.  1.
         -5    1    1    2    0  502 -0.45735962411E+02  0.42072986373E+01  0.61952293002E+02  0.77263550448E+02  0.47000000000E+01 0.  1.
        -11    1    1    2    0    0  0.30597113146E+02 -0.41451271776E+02  0.53579203814E+01  0.51798634881E+02  0.00000000000E+00 0. -1.
         11    1    1    2    0    0 -0.36653140150E+02  0.20105777324E+02  0.17669344585E+02  0.45386128969E+02  0.00000000000E+00 0.  1.
<mgrwt>
<rscale>  0 0.11789830E+03</rscale>
<asrwt>0</asrwt>
<pdfrwt beam="1">  1        1 0.23051491E-01 0.12695785E+03</pdfrwt>
<pdfrwt beam="2">  1       -1 0.12613412E-01 0.12695785E+03</pdfrwt>
<totfact> 0.84503001E+03</totfact>
</mgrwt>
</event>
<event>
 6    1  0.4705246E-006  0.2043014E+03  0.7546771E-02  0.1156427E+00
         -1   -1    0    0    0  501 -0.00000000000E+00  0.00000000000E+00  0.19640188136E+03  0.19640188136E+03  0.00000000000E+00 0.  1.
          1   -1    0    0  501    0  0.00000000000E+00 -0.00000000000E+00 -0.21977363237E+03  0.21977363237E+03  0.00000000000E+00 0. -1.
          5    1    1    2  502    0  0.16811803748E+01 -0.50700186530E+02 -0.10958744911E+03  0.12085046249E+03  0.47000000000E+01 0. -1.
         -5    1    1    2    0  502 -0.10890674946E+03 -0.26277966012E+02 -0.24557920528E+01  0.11215762341E+03  0.47000000000E+01 0.  1.
        -11    1    1    2    0    0 -0.10515186067E+02  0.14758545149E+02  0.35340811493E+02  0.39715950825E+02  0.00000000000E+00 0. -1.
         11    1    1    2    0    0  0.11774075515E+03  0.62219607393E+02  0.53330678667E+02  0.14345147700E+03  0.00000000000E+00 0.  1.
<mgrwt>
<rscale>  0 0.19227339E+03</rscale>
<asrwt>0</asrwt>
<pdfrwt beam="2">  1        1 0.33811328E-01 0.20430144E+03</pdfrwt>
<pdfrwt beam="1">  1       -1 0.30215674E-01 0.20430144E+03</pdfrwt>
<totfact> 0.13059810E+03</totfact>
</mgrwt>
</event>
<event>
 6    1  0.4705246E-006  0.2926727E+03  0.7546771E-02  0.1088962E+00
         -1   -1    0    0    0  501 -0.00000000000E+00  0.00000000000E+00  0.35384677992E+03  0.35384677992E+03  0.00000000000E+00 0.  1.
          1   -1    0    0  501    0  0.00000000000E+00 -0.00000000000E+00 -0.60518635133E+02  0.60518635133E+02  0.00000000000E+00 0. -1.
          5    1    1    2  502    0 -0.50306034040E+02  0.17299546024E+02  0.94430620117E+02  0.10848595932E+03  0.47000000000E+01 0. -1.
         -5    1    1    2    0  502 -0.12409940955E+02 -0.21253185951E+01 -0.40131150548E+02  0.42321659443E+02  0.47000000000E+01 0. -1.
        -11    1    1    2    0    0 -0.20723888856E+01 -0.40190670441E+02  0.68783683924E+02  0.79691781009E+02  0.00000000000E+00 0. -1.
         11    1    1    2    0    0  0.64788363882E+02  0.25016443012E+02  0.17024499129E+03  0.18386601528E+03  0.00000000000E+00 0.  1.
<mgrwt>
<rscale>  0 0.29267268E+03</rscale>
<asrwt>0</asrwt>
<pdfrwt beam="2">  1        1 0.93105595E-02 0.29267268E+03</pdfrwt>
<pdfrwt beam="1">  1       -1 0.54437965E-01 0.29267268E+03</pdfrwt>
<totfact> 0.24730788E+03</totfact>
</mgrwt>
</event>
<event>
 6    1  0.4705246E-006  0.1415749E+03  0.7546771E-02  0.1221550E+00
          1   -1    0    0  501    0  0.00000000000E+00  0.00000000000E+00  0.11794074486E+03  0.11794074486E+03  0.00000000000E+00 0. -1.
         -1   -1    0    0    0  501 -0.00000000000E+00 -0.00000000000E+00 -0.14097047852E+03  0.14097047852E+03  0.00000000000E+00 0.  1.
          5    1    1    2  502    0  0.15263168852E+02  0.30997725215E+02  0.27976940391E+02  0.44705955818E+02  0.47000000000E+01 0.  1.
         -5    1    1    2    0  502  0.62397524441E+01 -0.93887983544E+02 -0.22915991525E+02  0.96959376195E+02  0.47000000000E+01 0.  1.
        -11    1    1    2    0    0  0.11587226507E+02  0.76864257959E+02 -0.16143661560E+02  0.79391408718E+02  0.00000000000E+00 0.  1.
         11    1    1    2    0    0 -0.33090147803E+02 -0.13973999630E+02 -0.11947020966E+02  0.37854482657E+02  0.00000000000E+00 0. -1.
<mgrwt>
<rscale>  0 0.13406176E+03</rscale>
<asrwt>0</asrwt>
<pdfrwt beam="1">  1        1 0.18144730E-01 0.14157490E+03</pdfrwt>
<pdfrwt beam="2">  1       -1 0.21687766E-01 0.14157490E+03</pdfrwt>
<totfact> 0.48997957E+03</totfact>
</mgrwt>
</event>
<event>
 6    1  0.4705246E-006  0.1704756E+03  0.7546771E-02  0.1183311E+00
          2   -1    0    0  501    0  0.00000000000E+00  0.00000000000E+00  0.10275402573E+04  0.10275402573E+04  0.00000000000E+00 0. -1.
         -2   -1    0    0    0  501 -0.00000000000E+00 -0.00000000000E+00 -0.26752438240E+02  0.26752438240E+02  0.00000000000E+00 0.  1.
          5    1    1    2  502    0  0.17527498088E+02  0.43248211737E+00  0.44599390871E+03  0.44636314458E+03  0.47000000000E+01 0. -1.
         -5    1    1    2    0  502  0.92244541551E+02  0.36792750886E+02  0.22572686805E+03  0.24665253074E+03  0.47000000000E+01 0. -1.
        -11    1    1    2    0    0 -0.92282763397E+02 -0.44996864962E+02  0.32613740356E+03  0.34191582631E+03  0.00000000000E+00 0. -1.
         11    1    1    2    0    0 -0.17489276242E+02  0.77716319584E+01  0.29296387449E+01  0.19361193918E+02  0.00000000000E+00 0.  1.
<mgrwt>
<rscale>  0 0.16486507E+03</rscale>
<asrwt>0</asrwt>
<pdfrwt beam="1">  1        2 0.15808309E+00 0.17047558E+03</pdfrwt>
<pdfrwt beam="2">  1       -2 0.41157605E-02 0.17047558E+03</pdfrwt>
<totfact> 0.65251082E+03</totfact>
</mgrwt>
</event>
<event>
 6    1  0.4705246E-006  0.1874158E+03  0.7546771E-02  0.1188647E+00
         -3   -1    0    0    0  501 -0.00000000000E+00  0.00000000000E+00  0.66747619895E+02  0.66747619895E+02  0.00000000000E+00 0.  1.
          3   -1    0    0  501    0  0.00000000000E+00 -0.00000000000E+00 -0.32092931966E+03  0.32092931966E+03  0.00000000000E+00 0. -1.
          5    1    1    2  502    0  0.91565028278E+01  0.11209241132E+03 -0.59922852989E+02  0.12752014950E+03  0.47000000000E+01 0. -1.
         -5    1    1    2    0  502  0.49379349964E+01 -0.72100121950E+02 -0.68406193382E+02  0.99620821520E+02  0.47000000000E+01 0.  1.
        -11    1    1    2    0    0 -0.21821332957E+02 -0.53321760908E+02 -0.32963046615E+02  0.66377279249E+02  0.00000000000E+00 0.  1.
         11    1    1    2    0    0  0.77268951329E+01  0.13329471542E+02 -0.92889606780E+02  0.94158689284E+02  0.00000000000E+00 0. -1.
<mgrwt>
<rscale>  0 0.16004392E+03</rscale>
<asrwt>0</asrwt>
<pdfrwt beam="2">  1        3 0.49373741E-01 0.18741579E+03</pdfrwt>
<pdfrwt beam="1">  1       -3 0.10268865E-01 0.18741579E+03</pdfrwt>
<totfact> 0.70069171E+02</totfact>
</mgrwt>
</event>
<event>
 6    1  0.4705246E-006  0.2202459E+03  0.7546771E-02  0.1136988E+00
         -2   -1    0    0    0  501 -0.00000000000E+00  0.00000000000E+00  0.13228582151E+03  0.13228582151E+03  0.00000000000E+00 0.  1.
          2   -1    0    0  501    0  0.00000000000E+00 -0.00000000000E+00 -0.45439712641E+03  0.45439712641E+03  0.00000000000E+00 0. -1.
          5    1    1    2  502    0  0.50490369343E+02 -0.12089398448E+03 -0.23565558614E+03  0.26966697640E+03  0.47000000000E+01 0. -1.
         -5    1    1    2    0  502  0.82390999305E+02 -0.24959129111E+01 -0.77908737899E+02  0.11351813859E+03  0.47000000000E+01 0. -1.
        -11    1    1    2    0    0 -0.81337889905E+02  0.41165097958E+02 -0.42637234835E+02  0.10063971094E+03  0.00000000000E+00 0. -1.
         11    1    1    2    0    0 -0.51543478743E+02  0.82224799435E+02  0.34090253971E+02  0.10285812199E+03  0.00000000000E+00 0.  1.
<mgrwt>
<rscale>  0 0.21588623E+03</rscale>
<asrwt>0</asrwt>
<pdfrwt beam="2">  1        2 0.69907249E-01 0.22024588E+03</pdfrwt>
<pdfrwt beam="1">  1       -2 0.20351665E-01 0.22024588E+03</pdfrwt>
<totfact> 0.14093229E+03</totfact>
</mgrwt>
</event>
<event>
 6    1  0.4705246E-006  0.1337824E+03  0.7546771E-02  0.1234076E+00
         -2   -1    0    0    0  501 -0.00000000000E+00  0.00000000000E+00  0.15932332669E+02  0.15932332669E+02  0.00000000000E+00 0.  1.
          2   -1    0    0  501    0  0.00000000000E+00 -0.00000000000E+00 -0.18749071060E+04  0.18749071060E+04  0.00000000000E+00 0. -1.
          5    1    1    2  502    0  0.54592078469E+02  0.18408043616E+02 -0.13989337881E+04  0.14001274887E+04  0.47000000000E+01 0. -1.
         -5    1    1    2    0  502 -0.39061610062E+02  0.26634284910E+02 -0.26904465489E+03  0.27320745019E+03  0.47000000000E+01 0. -1.
        -11    1    1    2    0    0 -0.40613470498E+02  0.11480056746E+02 -0.75507869881E+02  0.86502509228E+02  0.00000000000E+00 0. -1.
         11    1    1    2    0    0  0.25083002092E+02 -0.56522385272E+02 -0.11548846044E+03  0.13100199054E+03  0.00000000000E+00 0.  1.
<mgrwt>
<rscale>  0 0.12563795E+03</rscale>
<asrwt>0</asrwt>
<pdfrwt beam="2">  1        2 0.28844709E+00 0.13378240E+03</pdfrwt>
<pdfrwt beam="1">  1       -2 0.24511294E-02 0.13378240E+03</pdfrwt>
<totfact> 0.49059502E+03</totfact>
</mgrwt>
</event>
<event>
 6    1  0.4705246E-006  0.1466030E+03  0.7546771E-02  0.1214844E+00
          2   -1    0    0  501    0  0.00000000000E+00  0.00000000000E+00  0.13787288961E+04  0.13787288961E+04  0.00000000000E+00 0.  1.
         -2   -1    0    0    0  501 -0.00000000000E+00 -0.00000000000E+00 -0.14871513091E+02  0.14871513091E+02  0.00000000000E+00 0. -1.
          5    1    1    2  502    0 -0.11754222765E+02  0.61698539156E+02  0.73362915583E+03  0.73632784802E+03  0.47000000000E+01 0. -1.
         -5    1    1    2    0  502 -0.58535112224E+02 -0.31111847371E+02  0.27591303860E+03  0.28380345537E+03  0.47000000000E+01 0. -1.
        -11    1    1    2    0    0  0.54004542375E+02 -0.58303528328E+02  0.18852409318E+03  0.20459014083E+03  0.00000000000E+00 0.  1.
         11    1    1    2    0    0  0.16284792614E+02  0.27716836543E+02  0.16579109539E+03  0.16887896497E+03  0.00000000000E+00 0. -1.
<mgrwt>
<rscale>  0 0.13887998E+03</rscale>
<asrwt>0</asrwt>
<pdfrwt beam="1">  1        2 0.21211204E+00 0.14660298E+03</pdfrwt>
<pdfrwt beam="2">  1       -2 0.22879262E-02 0.14660298E+03</pdfrwt>
<totfact> 0.98223394E+03</totfact>
</mgrwt>
</event>
<event>
 6    1  0.4705246E-006  0.1326624E+03  0.7546771E-02  0.1269617E+00
         -1   -1    0    0    0  501 -0.00000000000E+00  0.00000000000E+00  0.25262159269E+02  0.25262159269E+02  0.00000000000E+00 0.  1.
          1   -1    0    0  501    0  0.00000000000E+00 -0.00000000000E+00 -0.35903099711E+03  0.35903099711E+03  0.00000000000E+00 0. -1.
          5    1    1    2  502    0 -0.63366190538E+02  0.81458544299E+01 -0.15482420851E+03  0.16755373642E+03  0.47000000000E+01 0.  1.
         -5    1    1    2    0  502  0.56919220202E+02  0.35818534048E+02 -0.12091444017E+03  0.13843827813E+03  0.47000000000E+01 0.  1.
        -11    1    1    2    0    0 -0.65966728965E+01 -0.22266636002E+02 -0.42969196756E+02  0.48843331602E+02  0.00000000000E+00 0. -1.
         11    1    1    2    0    0  0.13043643232E+02 -0.21697752475E+02 -0.15060992409E+02  0.29457810231E+02  0.00000000000E+00 0.  1.
<mgrwt>
<rscale>  0 0.10525545E+03</rscale>
<asrwt>0</asrwt>
<pdfrwt beam="2">  1        1 0.55235543E-01 0.13266239E+03</pdfrwt>
<pdfrwt beam="1">  1       -1 0.38864857E-02 0.13266239E+03</pdfrwt>
<totfact> 0.16762294E+04</totfact>
</mgrwt>
</event>
<event>
 6    1  0.4705246E-006  0.1288563E+03  0.7546771E-02  0.1243194E+00
          1   -1    0    0  501    0  0.00000000000E+00  0.00000000000E+00  0.45337774494E+03  0.45337774494E+03  0.00000000000E+00 0. -1.
         -1   -1    0    0    0  501 -0.00000000000E+00 -0.00000000000E+00 -0.28995424853E+02  0.28995424853E+02  0.00000000000E+00 0.  1.
          5    1    1    2  502    0 -0.42172808842E+02  0.14344461825E+02  0.16733731437E+03  0.17322868172E+03  0.47000000000E+01 0. -1.
         -5    1    1    2    0  502  0.66765519555E+02 -0.33707105172E+02  0.11697461852E+03  0.13892067851E+03  0.47000000000E+01 0. -1.
        -11    1    1    2    0    0 -0.23598149945E+02 -0.30161367814E+02  0.98064199379E+02  0.10527662603E+03  0.00000000000E+00 0.  1.
         11    1    1    2    0    0 -0.99456076760E+00  0.49524011161E+02  0.42006187817E+02  0.64947183522E+02  0.00000000000E+00 0. -1.
<mgrwt>
<rscale>  0 0.11994110E+03</rscale>
<asrwt>0</asrwt>
<pdfrwt beam="1">  1        1 0.69750417E-01 0.12885631E+03</pdfrwt>
<pdfrwt beam="2">  1       -1 0.44608349E-02 0.12885631E+03</pdfrwt>
<totfact> 0.10175461E+04</totfact>
</mgrwt>
</event>
<event>
 6    1  0.4705246E-006  0.1259582E+03  0.7546771E-02  0.1248939E+00
         -1   -1    0    0    0  501 -0.00000000000E+00  0.00000000000E+00  0.11153400470E+03  0.11153400470E+03  0.00000000000E+00 0.  1.
          1   -1    0    0  501    0  0.00000000000E+00 -0.00000000000E+00 -0.12886629697E+03  0.12886629697E+03  0.00000000000E+00 0. -1.
          5    1    1    2  502    0 -0.41872809719E+02 -0.19834308090E+02 -0.75939927761E+02  0.89082515678E+02  0.47000000000E+01 0.  1.
         -5    1    1    2    0  502  0.46614961949E+02  0.50535921202E+01  0.16852843445E+02  0.50045996872E+02  0.47000000000E+01 0.  1.
        -11    1    1    2    0    0  0.12665945853E+02  0.30119203437E+02  0.62256659049E+02  0.70309915347E+02  0.00000000000E+00 0.  1.
         11    1    1    2    0    0 -0.17408098083E+02 -0.15338487468E+02 -0.20501867008E+02  0.30961873772E+02  0.00000000000E+00 0. -1.
<mgrwt>
<rscale>  0 0.11652711E+03</rscale>
<asrwt>0</asrwt>
<pdfrwt beam="2">  1        1 0.19825584E-01 0.12595817E+03</pdfrwt>
<pdfrwt beam="1">  1       -1 0.17159078E-01 0.12595817E+03</pdfrwt>
<totfact> 0.63171066E+03</totfact>
</mgrwt>
</event>
<event>
 6    1  0.4705246E-006  0.1393949E+03  0.7546771E-02  0.1225848E+00
         -1   -1    0    0    0  501 -0.00000000000E+00  0.00000000000E+00  0.14419516327E+03  0.14419516327E+03  0.00000000000E+00 0.  1.
          1   -1    0    0  501    0  0.00000000000E+00 -0.00000000000E+00 -0.14523822849E+03  0.14523822849E+03  0.00000000000E+00 0. -1.
          5    1    1    2  502    0  0.45612530375E+02  0.22992450635E+02 -0.18087875667E+02  0.54391331658E+02  0.47000000000E+01 0.  1.
         -5    1    1    2    0  502 -0.82818128505E+02  0.26153771253E+02 -0.56329652978E+02  0.10362423445E+03  0.47000000000E+01 0.  1.
        -11    1    1    2    0    0  0.20526230595E+02 -0.24100770409E+01 -0.18020427304E+02  0.27420255542E+02  0.00000000000E+00 0. -1.
         11    1    1    2    0    0  0.16679367535E+02 -0.46736144846E+02  0.91394890733E+02  0.10399757011E+03  0.00000000000E+00 0.  1.
<mgrwt>
<rscale>  0 0.13108969E+03</rscale>
<asrwt>0</asrwt>
<pdfrwt beam="2">  1        1 0.22344343E-01 0.13939494E+03</pdfrwt>
<pdfrwt beam="1">  1       -1 0.22183871E-01 0.13939494E+03</pdfrwt>
<totfact> 0.36213230E+03</totfact>
</mgrwt>
</event>
<event>
 6    1  0.4705246E-006  0.1415240E+03  0.7546771E-02  0.1222698E+00
         -2   -1    0    0    0  501 -0.00000000000E+00  0.00000000000E+00  0.19087427595E+02  0.19087427595E+02  0.00000000000E+00 0.  1.
          2   -1    0    0  501    0  0.00000000000E+00 -0.00000000000E+00 -0.83696497637E+03  0.83696497637E+03  0.00000000000E+00 0. -1.
          5    1    1    2  502    0 -0.29627721096E+02  0.62256103472E+02 -0.35802616692E+03  0.36463468084E+03  0.47000000000E+01 0.  1.
         -5    1    1    2    0  502  0.55287073880E+02 -0.10429236271E+01 -0.95432519091E+02  0.11039566988E+03  0.47000000000E+01 0.  1.
        -11    1    1    2    0    0  0.28264851346E+02 -0.37427970769E+02 -0.10510311658E+03  0.11509309246E+03  0.00000000000E+00 0.  1.
         11    1    1    2    0    0 -0.53924204129E+02 -0.23785209076E+02 -0.25931574618E+03  0.26592896078E+03  0.00000000000E+00 0. -1.
<mgrwt>
<rscale>  0 0.13325953E+03</rscale>
<asrwt>0</asrwt>
<pdfrwt beam="2">  1        2 0.12876381E+00 0.14152404E+03</pdfrwt>
<pdfrwt beam="1">  1       -2 0.29365281E-02 0.14152404E+03</pdfrwt>
<totfact> 0.14016337E+04</totfact>
</mgrwt>
</event>
<event>
 6    1  0.4705246E-006  0.3231894E+03  0.7546771E-02  0.1074191E+00
          2   -1    0    0  501    0  0.00000000000E+00  0.00000000000E+00  0.17089866108E+04  0.17089866108E+04  0.00000000000E+00 0. -1.
         -2   -1    0    0    0  501 -0.00000000000E+00 -0.00000000000E+00 -0.15279726309E+02  0.15279726309E+02  0.00000000000E+00 0.  1.
          5    1    1    2  502    0 -0.47992578319E+02  0.79484145633E+02  0.13214031220E+04  0.13246695126E+04  0.47000000000E+01 0.  1.
         -5    1    1    2    0  502  0.97756547325E+01 -0.31037886239E+01  0.93119622628E+01  0.14628724157E+02  0.47000000000E+01 0.  1.
        -11    1    1    2    0    0  0.34788438816E+01 -0.21636204703E+02  0.68310578078E+01  0.22954107682E+02  0.00000000000E+00 0.  1.
         11    1    1    2    0    0  0.34738079705E+02 -0.54744152306E+02  0.35616074247E+03  0.36201399264E+03  0.00000000000E+00 0. -1.
<mgrwt>
<rscale>  0 0.32318940E+03</rscale>
<asrwt>0</asrwt>
<pdfrwt beam="1">  1        2 0.26292087E+00 0.32318940E+03</pdfrwt>
<pdfrwt beam="2">  1       -2 0.23507285E-02 0.32318940E+03</pdfrwt>
<totfact> 0.64439720E+03</totfact>
</mgrwt>
</event>
<event>
 6    1  0.4705246E-006  0.1572912E+03  0.7546771E-02  0.1199550E+00
          1   -1    0    0  501    0  0.00000000000E+00  0.00000000000E+00  0.12009891701E+04  0.12009891701E+04  0.00000000000E+00 0. -1.
         -1   -1    0    0    0  501 -0.00000000000E+00 -0.00000000000E+00 -0.17518716092E+02  0.17518716092E+02  0.00000000000E+00 0.  1.
          5    1    1    2  502    0  0.40435662547E+02 -0.44474223615E+02  0.59248769486E+03  0.59554744390E+03  0.47000000000E+01 0. -1.
         -5    1    1    2    0  502 -0.97345681312E+01 -0.45931398987E+02  0.63964340507E+02  0.79485735111E+02  0.47000000000E+01 0. -1.
        -11    1    1    2    0    0 -0.24883545143E+02 -0.11259308095E+02  0.67660733900E+02  0.72965318814E+02  0.00000000000E+00 0.  1.
         11    1    1    2    0    0 -0.58175492726E+01  0.10166493070E+03  0.45935768471E+03  0.47050938834E+03  0.00000000000E+00 0. -1.
<mgrwt>
<rscale>  0 0.15075363E+03</rscale>
<asrwt>0</asrwt>
<pdfrwt beam="1">  1        1 0.18476750E+00 0.15729119E+03</pdfrwt>
<pdfrwt beam="2">  1       -1 0.26951880E-02 0.15729119E+03</pdfrwt>
<totfact> 0.49747189E+03</totfact>
</mgrwt>
</event>
<event>
 6    1  0.4705246E-006  0.4214754E+03  0.7546771E-02  0.1036587E+00
          1   -1    0    0  501    0  0.00000000000E+00  0.00000000000E+00  0.10624305698E+03  0.10624305698E+03  0.00000000000E+00 0.  1.
         -1   -1    0    0    0  501 -0.00000000000E+00 -0.00000000000E+00 -0.41800729469E+03  0.41800729469E+03  0.00000000000E+00 0. -1.
          5    1    1    2  502    0 -0.13517557179E+03  0.31575176118E+02 -0.20168047946E+02  0.14035051519E+03  0.47000000000E+01 0. -1.
         -5    1    1    2    0  502  0.13007039884E+02 -0.24290659364E+02  0.20367186314E+02  0.34585134050E+02  0.47000000000E+01 0. -1.
        -11    1    1    2    0    0  0.77862850958E+02  0.17546492050E+02 -0.27540105034E+03  0.28673374665E+03  0.00000000000E+00 0. -1.
         11    1    1    2    0    0  0.44305680947E+02 -0.24831008803E+02 -0.36562325749E+02  0.62580955782E+02  0.00000000000E+00 0.  1.
<mgrwt>
<rscale>  0 0.42147537E+03</rscale>
<asrwt>0</asrwt>
<pdfrwt beam="1">  1        1 0.16345085E-01 0.42147537E+03</pdfrwt>
<pdfrwt beam="2">  1       -1 0.64308816E-01 0.42147537E+03</pdfrwt>
<totfact> 0.84705364E+02</totfact>
</mgrwt>
</event>
<event>
 6    1  0.4705246E-006  0.3783759E+03  0.7546771E-02  0.1051536E+00
         -1   -1    0    0    0  501 -0.00000000000E+00  0.00000000000E+00  0.24358769628E+02  0.24358769628E+02  0.00000000000E+00 0.  1.
          1   -1    0    0  501    0  0.00000000000E+00 -0.00000000000E+00 -0.14693711794E+04  0.14693711794E+04  0.00000000000E+00 0. -1.
          5    1    1    2  502    0 -0.17511271086E+02 -0.15215734718E+02 -0.48176565584E+03  0.48234676359E+03  0.47000000000E+01 0. -1.
         -5    1    1    2    0  502 -0.12735163198E+03  0.41482533633E+02 -0.46537618137E+03  0.48428949911E+03  0.47000000000E+01 0. -1.
        -11    1    1    2    0    0  0.74189384802E+02  0.30619617631E+02 -0.19335679527E+03  0.20935251629E+03  0.00000000000E+00 0. -1.
         11    1    1    2    0    0  0.70673518267E+02 -0.56886416547E+02 -0.30451377725E+03  0.31774116999E+03  0.00000000000E+00 0.  1.
<mgrwt>
<rscale>  0 0.37837587E+03</rscale>
<asrwt>0</asrwt>
<pdfrwt beam="2">  1        1 0.22605712E+00 0.37837587E+03</pdfrwt>
<pdfrwt beam="1">  1       -1 0.37475027E-02 0.37837587E+03</pdfrwt>
<totfact> 0.20300958E+03</totfact>
</mgrwt>
</event>
<event>
 6    1  0.4705246E-006  0.1616137E+03  0.7546771E-02  0.1203194E+00
          1   -1    0    0  501    0  0.00000000000E+00  0.00000000000E+00  0.15977684232E+04  0.15977684232E+04  0.00000000000E+00 0. -1.
         -1   -1    0    0    0  501 -0.00000000000E+00 -0.00000000000E+00 -0.24782249933E+02  0.24782249933E+02  0.00000000000E+00 0.  1.
          5    1    1    2  502    0 -0.53066808288E+02 -0.18021634944E+02  0.14026318154E+04  0.14037588700E+04  0.47000000000E+01 0. -1.
         -5    1    1    2    0  502  0.16882642450E+01 -0.23628469461E+02  0.32744988488E+02  0.40687578895E+02  0.47000000000E+01 0.  1.
        -11    1    1    2    0    0  0.27078190746E+02  0.67284138956E+02  0.11565584813E+03  0.13651614914E+03  0.00000000000E+00 0. -1.
         11    1    1    2    0    0  0.24300353297E+02 -0.25634034551E+02  0.21953521265E+02  0.41588075137E+02  0.00000000000E+00 0.  1.
<mgrwt>
<rscale>  0 0.14780706E+03</rscale>
<asrwt>0</asrwt>
<pdfrwt beam="1">  1        1 0.24581045E+00 0.16161366E+03</pdfrwt>
<pdfrwt beam="2">  1       -1 0.38126551E-02 0.16161366E+03</pdfrwt>
<totfact> 0.16341262E+03</totfact>
</mgrwt>
</event>
<event>
 6    1  0.4705246E-006  0.1756863E+03  0.7546771E-02  0.1177982E+00
         -2   -1    0    0    0  501 -0.00000000000E+00  0.00000000000E+00  0.17713919566E+02  0.17713919566E+02  0.00000000000E+00 0.  1.
          2   -1    0    0  501    0  0.00000000000E+00 -0.00000000000E+00 -0.25530925783E+04  0.25530925783E+04  0.00000000000E+00 0. -1.
          5    1    1    2  502    0 -0.61396195505E+02  0.12002564861E+02 -0.47526013215E+03  0.47938276731E+03  0.47000000000E+01 0. -1.
         -5    1    1    2    0  502 -0.27613394850E+02 -0.97531575681E+02 -0.16561323454E+04  0.16592381816E+04  0.47000000000E+01 0. -1.
        -11    1    1    2    0    0 -0.13628382497E+02  0.27666804672E+02 -0.46631607713E+02  0.55907886099E+02  0.00000000000E+00 0.  1.
         11    1    1    2    0    0  0.10263797285E+03  0.57862206149E+02 -0.35735457341E+03  0.37627766278E+03  0.00000000000E+00 0. -1.
<mgrwt>
<rscale>  0 0.16987139E+03</rscale>
<asrwt>0</asrwt>
<pdfrwt beam="2">  1        2 0.39278356E+00 0.17568628E+03</pdfrwt>
<pdfrwt beam="1">  1       -2 0.27252178E-02 0.17568628E+03</pdfrwt>
<totfact> 0.18536701E+03</totfact>
</mgrwt>
</event>
<event>
 6    1  0.4705246E-006  0.2392397E+03  0.7546771E-02  0.1123020E+00
         -1   -1    0    0    0  501 -0.00000000000E+00  0.00000000000E+00  0.13655928640E+03  0.13655928640E+03  0.00000000000E+00 0.  1.
          1   -1    0    0  501    0  0.00000000000E+00 -0.00000000000E+00 -0.50323039130E+03  0.50323039130E+03  0.00000000000E+00 0. -1.
          5    1    1    2  502    0 -0.88527733798E+02  0.44196143576E+02 -0.21222610588E+03  0.23420603915E+03  0.47000000000E+01 0.  1.
         -5    1    1    2    0  502 -0.23210529085E+02  0.12649387879E+03 -0.12621166405E+03  0.18025233473E+03  0.47000000000E+01 0.  1.
        -11    1    1    2    0    0  0.10960753247E+03 -0.11554660900E+03 -0.48591756799E+02  0.16651122741E+03  0.00000000000E+00 0. -1.
         11    1    1    2    0    0  0.21307304178E+01 -0.55143413367E+02  0.20358421826E+02  0.58820076412E+02  0.00000000000E+00 0.  1.
<mgrwt>
<rscale>  0 0.23521838E+03</rscale>
<asrwt>0</asrwt>
<pdfrwt beam="2">  1        1 0.77420060E-01 0.23923967E+03</pdfrwt>
<pdfrwt beam="1">  1       -1 0.21009121E-01 0.23923967E+03</pdfrwt>
<totfact> 0.83487998E+02</totfact>
</mgrwt>
</event>
<event>
 6    1  0.4705246E-006  0.3840165E+03  0.7546771E-02  0.1049459E+00
         -1   -1    0    0    0  501 -0.00000000000E+00  0.00000000000E+00  0.20915395115E+03  0.20915395115E+03  0.00000000000E+00 0.  1.
          1   -1    0    0  501    0  0.00000000000E+00 -0.00000000000E+00 -0.17626807228E+03  0.17626807228E+03  0.00000000000E+00 0. -1.
          5    1    1    2  502    0 -0.74495215377E+01 -0.12764743764E+03 -0.99173764799E+02  0.16188542038E+03  0.47000000000E+01 0.  1.
         -5    1    1    2    0  502 -0.17759546425E+02 -0.28506273779E+01  0.28291259636E+02  0.33852812845E+02  0.47000000000E+01 0.  1.
        -11    1    1    2    0    0  0.57275458355E+02  0.86131356765E+02  0.59862783426E+02  0.11951000622E+03  0.00000000000E+00 0.  1.
         11    1    1    2    0    0 -0.32066390393E+02  0.44366708256E+02  0.43905600600E+02  0.70173783982E+02  0.00000000000E+00 0. -1.
<mgrwt>
<rscale>  0 0.38401648E+03</rscale>
<asrwt>0</asrwt>
<pdfrwt beam="2">  1        1 0.27118165E-01 0.38401648E+03</pdfrwt>
<pdfrwt beam="1">  1       -1 0.32177531E-01 0.38401648E+03</pdfrwt>
<totfact> 0.15680460E+03</totfact>
</mgrwt>
</event>
<event>
 6    1  0.4705246E-006  0.1402192E+03  0.7546771E-02  0.1224419E+00
          2   -1    0    0  501    0  0.00000000000E+00  0.00000000000E+00  0.35681804824E+02  0.35681804824E+02  0.00000000000E+00 0. -1.
         -2   -1    0    0    0  501 -0.00000000000E+00 -0.00000000000E+00 -0.44658169500E+03  0.44658169500E+03  0.00000000000E+00 0.  1.
          5    1    1    2  502    0 -0.27148911928E+02  0.58022284050E+02 -0.11176391167E+03  0.12890659726E+03  0.47000000000E+01 0. -1.
         -5    1    1    2    0  502 -0.36014276815E+02 -0.64840728123E+02 -0.88506751772E+02  0.11557198305E+03  0.47000000000E+01 0. -1.
        -11    1    1    2    0    0  0.45278892516E+02  0.30716168965E+02 -0.19791909724E+03  0.20534271400E+03  0.00000000000E+00 0.  1.
         11    1    1    2    0    0  0.17884296226E+02 -0.23897724892E+02 -0.12710129503E+02  0.32442205512E+02  0.00000000000E+00 0. -1.
<mgrwt>
<rscale>  0 0.13206820E+03</rscale>
<asrwt>0</asrwt>
<pdfrwt beam="1">  1        2 0.54895083E-02 0.14021925E+03</pdfrwt>
<pdfrwt beam="2">  1       -2 0.68704878E-01 0.14021925E+03</pdfrwt>
<totfact> 0.26474884E+03</totfact>
</mgrwt>
</event>
<event>
 6    1  0.4705246E-006  0.1575303E+03  0.7546771E-02  0.1199552E+00
         -2   -1    0    0    0  501 -0.00000000000E+00  0.00000000000E+00  0.66856436996E+02  0.66856436996E+02  0.00000000000E+00 0.  1.
          2   -1    0    0  501    0  0.00000000000E+00 -0.00000000000E+00 -0.39997759657E+03  0.39997759657E+03  0.00000000000E+00 0. -1.
          5    1    1    2  502    0 -0.16854882511E+02 -0.37358343388E+02 -0.25938027165E+03  0.26264034002E+03  0.47000000000E+01 0. -1.
         -5    1    1    2    0  502  0.46647371912E+01 -0.57730547185E+02 -0.26711015317E+02  0.63954235127E+02  0.47000000000E+01 0. -1.
        -11    1    1    2    0    0 -0.17403573747E+02  0.53139870877E+02  0.16743679077E+02  0.58370206827E+02  0.00000000000E+00 0.  1.
         11    1    1    2    0    0  0.29593719066E+02  0.41949019696E+02 -0.63773551680E+02  0.81869251587E+02  0.00000000000E+00 0. -1.
<mgrwt>
<rscale>  0 0.15075230E+03</rscale>
<asrwt>0</asrwt>
<pdfrwt beam="2">  1        2 0.61535016E-01 0.15753029E+03</pdfrwt>
<pdfrwt beam="1">  1       -2 0.10285606E-01 0.15753029E+03</pdfrwt>
<totfact> 0.49102121E+03</totfact>
</mgrwt>
</event>
<event>
 6    1  0.4705246E-006  0.3260753E+03  0.7546771E-02  0.1072887E+00
         -1   -1    0    0    0  501 -0.00000000000E+00  0.00000000000E+00  0.16601668190E+03  0.16601668190E+03  0.00000000000E+00 0.  1.
          1   -1    0    0  501    0  0.00000000000E+00 -0.00000000000E+00 -0.16011206284E+03  0.16011206284E+03  0.00000000000E+00 0. -1.
          5    1    1    2  502    0 -0.26838339966E+02  0.17106483801E+02 -0.14914997940E+02  0.35460900210E+02  0.47000000000E+01 0.  1.
         -5    1    1    2    0  502  0.10672388617E+02 -0.13723764786E+03  0.16070889946E+02  0.13866663396E+03  0.47000000000E+01 0.  1.
        -11    1    1    2    0    0  0.44221557371E+02  0.72151767668E+02  0.31526438376E+02  0.90306921277E+02  0.00000000000E+00 0.  1.
         11    1    1    2    0    0 -0.28055606022E+02  0.47979396394E+02 -0.26777711329E+02  0.61694289295E+02  0.00000000000E+00 0. -1.
<mgrwt>
<rscale>  0 0.32607529E+03</rscale>
<asrwt>0</asrwt>
<pdfrwt beam="2">  1        1 0.24632625E-01 0.32607529E+03</pdfrwt>
<pdfrwt beam="1">  1       -1 0.25541028E-01 0.32607529E+03</pdfrwt>
<totfact> 0.26229912E+03</totfact>
</mgrwt>
</event>
<event>
 6    1  0.4705246E-006  0.1983067E+03  0.7546771E-02  0.1181976E+00
         -2   -1    0    0    0  501 -0.00000000000E+00  0.00000000000E+00  0.13666462632E+03  0.13666462632E+03  0.00000000000E+00 0.  1.
          2   -1    0    0  501    0  0.00000000000E+00 -0.00000000000E+00 -0.18794054499E+03  0.18794054499E+03  0.00000000000E+00 0. -1.
          5    1    1    2  502    0 -0.29403751276E+02 -0.41441168917E+02 -0.14112406922E+03  0.15006679840E+03  0.47000000000E+01 0. -1.
         -5    1    1    2    0  502  0.48033500692E+02 -0.10541154363E+01  0.48830935032E+02  0.68664973343E+02  0.47000000000E+01 0.  1.
        -11    1    1    2    0    0  0.27180537225E+02  0.41677322871E+02  0.10586810492E+02  0.50871027137E+02  0.00000000000E+00 0. -1.
         11    1    1    2    0    0 -0.45810286641E+02  0.81796148206E+00  0.30430405025E+02  0.55002372432E+02  0.00000000000E+00 0.  1.
<mgrwt>
<rscale>  0 0.16610064E+03</rscale>
<asrwt>0</asrwt>
<pdfrwt beam="2">  1        2 0.28913930E-01 0.19830675E+03</pdfrwt>
<pdfrwt beam="1">  1       -2 0.21025327E-01 0.19830675E+03</pdfrwt>
<totfact> 0.34560806E+03</totfact>
</mgrwt>
</event>
<event>
 6    1  0.4705246E-006  0.1270622E+03  0.7546771E-02  0.1247586E+00
         -4   -1    0    0    0  501 -0.00000000000E+00  0.00000000000E+00  0.22563363788E+03  0.22563363788E+03  0.00000000000E+00 0.  1.
          4   -1    0    0  501    0  0.00000000000E+00 -0.00000000000E+00 -0.78379092203E+02  0.78379092203E+02  0.00000000000E+00 0. -1.
          5    1    1    2  502    0 -0.14095388933E+01 -0.50276101216E+02  0.19341204909E+02  0.54091083930E+02  0.47000000000E+01 0.  1.
         -5    1    1    2    0  502 -0.12031044607E+02  0.68102744302E+02 -0.22967704904E+02  0.73022840840E+02  0.47000000000E+01 0.  1.
        -11    1    1    2    0    0 -0.22864200909E+02  0.30223290251E+01  0.30619409482E+01  0.23265460200E+02  0.00000000000E+00 0. -1.
         11    1    1    2    0    0  0.36304784409E+02 -0.20848972111E+02  0.14781910472E+03  0.15363334511E+03  0.00000000000E+00 0.  1.
<mgrwt>
<rscale>  0 0.11731911E+03</rscale>
<asrwt>0</asrwt>
<pdfrwt beam="2">  1        4 0.12058322E-01 0.12706218E+03</pdfrwt>
<pdfrwt beam="1">  1       -4 0.34712867E-01 0.12706218E+03</pdfrwt>
<totfact> 0.72249489E+02</totfact>
</mgrwt>
</event>
<event>
 6    1  0.4705246E-006  0.3387153E+03  0.7546771E-02  0.1067344E+00
          2   -1    0    0  501    0  0.00000000000E+00  0.00000000000E+00  0.72216789909E+03  0.72216789909E+03  0.00000000000E+00 0. -1.
         -2   -1    0    0    0  501 -0.00000000000E+00 -0.00000000000E+00 -0.39716545253E+02  0.39716545253E+02  0.00000000000E+00 0.  1.
          5    1    1    2  502    0  0.10869916591E+02 -0.65958238816E+01 -0.61786680505E+01  0.14897178197E+02  0.47000000000E+01 0.  1.
         -5    1    1    2    0  502  0.10999596812E+03  0.52260974147E+02  0.39710251855E+03  0.41538274237E+03  0.47000000000E+01 0.  1.
        -11    1    1    2    0    0 -0.46103669276E+02 -0.28729269694E+02  0.22052574156E+03  0.22711785916E+03  0.00000000000E+00 0. -1.
         11    1    1    2    0    0 -0.74762215430E+02 -0.16935880571E+02  0.71001761772E+02  0.10448666461E+03  0.00000000000E+00 0.  1.
<mgrwt>
<rscale>  0 0.33871530E+03</rscale>
<asrwt>0</asrwt>
<pdfrwt beam="1">  1        2 0.11110274E+00 0.33871530E+03</pdfrwt>
<pdfrwt beam="2">  1       -2 0.61102383E-02 0.33871530E+03</pdfrwt>
<totfact> 0.58287039E+03</totfact>
</mgrwt>
</event>
<event>
 6    1  0.4705246E-006  0.1269173E+03  0.7546771E-02  0.1242784E+00
         -2   -1    0    0    0  501 -0.00000000000E+00  0.00000000000E+00  0.48117156867E+02  0.48117156867E+02  0.00000000000E+00 0.  1.
          2   -1    0    0  501    0  0.00000000000E+00 -0.00000000000E+00 -0.28018576986E+03  0.28018576986E+03  0.00000000000E+00 0. -1.
          5    1    1    2  502    0  0.42676942617E+02 -0.10828917003E+02 -0.15786804423E+03  0.16396034967E+03  0.47000000000E+01 0.  1.
         -5    1    1    2    0  502 -0.34934284331E+02 -0.98644173113E+01  0.24622335128E+01  0.36686012927E+02  0.47000000000E+01 0.  1.
        -11    1    1    2    0    0 -0.50569881776E+02  0.13976698730E+02 -0.63460376758E+02  0.82340029564E+02  0.00000000000E+00 0. -1.
         11    1    1    2    0    0  0.42827223490E+02  0.67166355836E+01 -0.13202425515E+02  0.45316534564E+02  0.00000000000E+00 0.  1.
<mgrwt>
<rscale>  0 0.12019016E+03</rscale>
<asrwt>0</asrwt>
<pdfrwt beam="2">  1        2 0.43105503E-01 0.12691728E+03</pdfrwt>
<pdfrwt beam="1">  1       -2 0.74026395E-02 0.12691728E+03</pdfrwt>
<totfact> 0.11792382E+04</totfact>
</mgrwt>
</event>
<event>
 6    1  0.4705246E-006  0.1541393E+03  0.7546771E-02  0.1204034E+00
         -2   -1    0    0    0  501 -0.00000000000E+00  0.00000000000E+00  0.51387827083E+02  0.51387827083E+02  0.00000000000E+00 0. -1.
          2   -1    0    0  501    0  0.00000000000E+00 -0.00000000000E+00 -0.49495914028E+03  0.49495914028E+03  0.00000000000E+00 0.  1.
          5    1    1    2  502    0  0.23467502924E+02  0.49010609881E+02 -0.17201628877E+03  0.18045624726E+03  0.47000000000E+01 0. -1.
         -5    1    1    2    0  502 -0.96261052453E+02  0.42735775067E+01 -0.19287361770E+03  0.21565429764E+03  0.47000000000E+01 0. -1.
        -11    1    1    2    0    0 -0.23990572871E+01 -0.44846799661E+02 -0.59841733060E+01  0.45307849716E+02  0.00000000000E+00 0. -1.
         11    1    1    2    0    0  0.75192606816E+02 -0.84373877268E+01 -0.72697233417E+02  0.10492857274E+03  0.00000000000E+00 0.  1.
<mgrwt>
<rscale>  0 0.14713804E+03</rscale>
<asrwt>0</asrwt>
<pdfrwt beam="2">  1        2 0.76147558E-01 0.15413929E+03</pdfrwt>
<pdfrwt beam="1">  1       -2 0.79058198E-02 0.15413929E+03</pdfrwt>
<totfact> 0.58717536E+03</totfact>
</mgrwt>
</event>
<event>
 6    1  0.4705246E-006  0.1408966E+03  0.7546771E-02  0.1223737E+00
          1   -1    0    0  501    0  0.00000000000E+00  0.00000000000E+00  0.23319262744E+03  0.23319262744E+03  0.00000000000E+00 0. -1.
         -1   -1    0    0    0  501 -0.00000000000E+00 -0.00000000000E+00 -0.70513214638E+02  0.70513214638E+02  0.00000000000E+00 0.  1.
          5    1    1    2  502    0 -0.34899514925E+02 -0.11927829439E+02  0.98729330821E+01  0.38468351469E+02  0.47000000000E+01 0. -1.
         -5    1    1    2    0  502  0.95859555475E+02 -0.10882632015E+02  0.11129098701E+03  0.14736098481E+03  0.47000000000E+01 0. -1.
        -11    1    1    2    0    0 -0.30009801547E+02 -0.30952619717E+02  0.34941485333E+02  0.55493785720E+02  0.00000000000E+00 0. -1.
         11    1    1    2    0    0 -0.30950239002E+02  0.53763081170E+02  0.65740073774E+01  0.62382720077E+02  0.00000000000E+00 0.  1.
<mgrwt>
<rscale>  0 0.13253867E+03</rscale>
<asrwt>0</asrwt>
<pdfrwt beam="1">  1        1 0.35875788E-01 0.14089658E+03</pdfrwt>
<pdfrwt beam="2">  1       -1 0.10848187E-01 0.14089658E+03</pdfrwt>
<totfact> 0.61857384E+03</totfact>
</mgrwt>
</event>
<event>
 6    1  0.4705246E-006  0.2163052E+03  0.7546771E-02  0.1140562E+00
         -2   -1    0    0    0  501 -0.00000000000E+00  0.00000000000E+00  0.10919366241E+03  0.10919366241E+03  0.00000000000E+00 0.  1.
          2   -1    0    0  501    0  0.00000000000E+00 -0.00000000000E+00 -0.54955958027E+03  0.54955958027E+03  0.00000000000E+00 0. -1.
          5    1    1    2  502    0 -0.11315356720E+03 -0.65249946910E+02 -0.39035390926E+03  0.41165464872E+03  0.47000000000E+01 0. -1.
         -5    1    1    2    0  502 -0.41910707584E+02 -0.15176210571E+02 -0.14063947248E+02  0.46975625484E+02  0.47000000000E+01 0.  1.
        -11    1    1    2    0    0  0.41393795590E+01  0.39574735754E+02 -0.47426727705E+00  0.39793455525E+02  0.00000000000E+00 0. -1.
         11    1    1    2    0    0  0.15092489523E+03  0.40851421727E+02 -0.35473794070E+02  0.16032951295E+03  0.00000000000E+00 0.  1.
<mgrwt>
<rscale>  0 0.21127293E+03</rscale>
<asrwt>0</asrwt>
<pdfrwt beam="2">  1        2 0.84547625E-01 0.21630517E+03</pdfrwt>
<pdfrwt beam="1">  1       -2 0.16799026E-01 0.21630517E+03</pdfrwt>
<totfact> 0.15762209E+03</totfact>
</mgrwt>
</event>
<event>
 6    1  0.4705246E-006  0.1249218E+03  0.7546771E-02  0.1258604E+00
         -2   -1    0    0    0  501 -0.00000000000E+00  0.00000000000E+00  0.15858375096E+02  0.15858375096E+02  0.00000000000E+00 0.  1.
          2   -1    0    0  501    0  0.00000000000E+00 -0.00000000000E+00 -0.65017021088E+03  0.65017021088E+03  0.00000000000E+00 0. -1.
          5    1    1    2  502    0 -0.22948118708E+02 -0.41712964313E+02 -0.34295580355E+03  0.34627642243E+03  0.47000000000E+01 0. -1.
         -5    1    1    2    0  502  0.24729466520E+02  0.37642047640E+02 -0.57373124826E+02  0.73090599377E+02  0.47000000000E+01 0. -1.
        -11    1    1    2    0    0 -0.33727409089E+02 -0.18950060727E+02 -0.11549867163E+03  0.12180552562E+03  0.00000000000E+00 0.  1.
         11    1    1    2    0    0  0.31946061276E+02  0.23020977399E+02 -0.11848423578E+03  0.12485603854E+03  0.00000000000E+00 0. -1.
<mgrwt>
<rscale>  0 0.11106846E+03</rscale>
<asrwt>0</asrwt>
<pdfrwt beam="2">  1        2 0.10002619E+00 0.12492177E+03</pdfrwt>
<pdfrwt beam="1">  1       -2 0.24397500E-02 0.12492177E+03</pdfrwt>
<totfact> 0.24701842E+04</totfact>
</mgrwt>
</event>
<event>
 6    1  0.4705246E-006  0.1722102E+03  0.7546771E-02  0.1181350E+00
         -1   -1    0    0    0  501 -0.00000000000E+00  0.00000000000E+00  0.20753139225E+03  0.20753139225E+03  0.00000000000E+00 0.  1.
          1   -1    0    0  501    0  0.00000000000E+00 -0.00000000000E+00 -0.12972024547E+03  0.12972024547E+03  0.00000000000E+00 0. -1.
          5    1    1    2  502    0  0.23291183650E+02  0.21057622602E+02  0.19079061330E+02  0.37040562721E+02  0.47000000000E+01 0. -1.
         -5    1    1    2    0  502  0.86327736296E+01 -0.13513095948E+03 -0.63728794930E+01  0.13563776975E+03  0.47000000000E+01 0. -1.
        -11    1    1    2    0    0  0.29064048396E+02  0.25807579056E+02  0.37007843322E+02  0.53668710747E+02  0.00000000000E+00 0.  1.
         11    1    1    2    0    0 -0.60988005675E+02  0.88265757821E+02  0.28097121620E+02  0.11090459451E+03  0.00000000000E+00 0. -1.
<mgrwt>
<rscale>  0 0.16668433E+03</rscale>
<asrwt>0</asrwt>
<pdfrwt beam="2">  1        1 0.19956961E-01 0.17221022E+03</pdfrwt>
<pdfrwt beam="1">  1       -1 0.31927906E-01 0.17221022E+03</pdfrwt>
<totfact> 0.23054304E+03</totfact>
</mgrwt>
</event>
<event>
 6    1  0.4705246E-006  0.1277307E+03  0.7546771E-02  0.1245367E+00
          2   -1    0    0  501    0  0.00000000000E+00  0.00000000000E+00  0.61165837411E+03  0.61165837411E+03  0.00000000000E+00 0. -1.
         -2   -1    0    0    0  501 -0.00000000000E+00 -0.00000000000E+00 -0.20451214085E+02  0.20451214085E+02  0.00000000000E+00 0.  1.
          5    1    1    2  502    0  0.26122446857E+01 -0.30367597018E+02  0.30739348896E+03  0.30893666313E+03  0.47000000000E+01 0. -1.
         -5    1    1    2    0  502 -0.22509048208E+02  0.47492045002E+02  0.59354668145E+02  0.79417996829E+02  0.47000000000E+01 0. -1.
        -11    1    1    2    0    0  0.54835846793E+02 -0.92618946593E+01  0.16732365922E+03  0.17632345198E+03  0.00000000000E+00 0.  1.
         11    1    1    2    0    0 -0.34939043270E+02 -0.78625533241E+01  0.57135343704E+02  0.67431476253E+02  0.00000000000E+00 0. -1.
<mgrwt>
<rscale>  0 0.11863428E+03</rscale>
<asrwt>0</asrwt>
<pdfrwt beam="1">  1        2 0.94101274E-01 0.12773070E+03</pdfrwt>
<pdfrwt beam="2">  1       -2 0.31463411E-02 0.12773070E+03</pdfrwt>
<totfact> 0.18298709E+04</totfact>
</mgrwt>
</event>
<event>
 6    1  0.4705246E-006  0.1757932E+03  0.7546771E-02  0.1178105E+00
          1   -1    0    0  501    0  0.00000000000E+00  0.00000000000E+00  0.43406813016E+03  0.43406813016E+03  0.00000000000E+00 0. -1.
         -1   -1    0    0    0  501 -0.00000000000E+00 -0.00000000000E+00 -0.62244243461E+02  0.62244243461E+02  0.00000000000E+00 0.  1.
          5    1    1    2  502    0 -0.11560685349E+03 -0.12753327517E+02  0.77094464971E+02  0.13961818816E+03  0.47000000000E+01 0. -1.
         -5    1    1    2    0  502 -0.79426017339E+01  0.23883295569E+02  0.12786485573E+03  0.13040325173E+03  0.47000000000E+01 0. -1.
        -11    1    1    2    0    0  0.13716007116E+03 -0.38943802944E+01  0.15350611597E+03  0.20589361078E+03  0.00000000000E+00 0.  1.
         11    1    1    2    0    0 -0.13610615939E+02 -0.72355877573E+01  0.13358450021E+02  0.20397322947E+02  0.00000000000E+00 0. -1.
<mgrwt>
<rscale>  0 0.16975381E+03</rscale>
<asrwt>0</asrwt>
<pdfrwt beam="1">  1        1 0.66779710E-01 0.17579322E+03</pdfrwt>
<pdfrwt beam="2">  1       -1 0.95760377E-02 0.17579322E+03</pdfrwt>
<totfact> 0.34811914E+03</totfact>
</mgrwt>
</event>
<event>
 6    1  0.4705246E-006  0.1291230E+03  0.7546771E-02  0.1243451E+00
          1   -1    0    0  501    0  0.00000000000E+00  0.00000000000E+00  0.17555703226E+03  0.17555703226E+03  0.00000000000E+00 0. -1.
         -1   -1    0    0    0  501 -0.00000000000E+00 -0.00000000000E+00 -0.17480789394E+03  0.17480789394E+03  0.00000000000E+00 0.  1.
          5    1    1    2  502    0 -0.13715062426E+01 -0.71692789092E+02  0.50921076486E+02  0.88072601117E+02  0.47000000000E+01 0. -1.
         -5    1    1    2    0  502  0.22378634162E+02  0.46666610600E+02  0.83248482430E+02  0.98137534301E+02  0.47000000000E+01 0. -1.
        -11    1    1    2    0    0 -0.17593757895E+02  0.52219275833E+02 -0.12309858419E+03  0.13486902726E+03  0.00000000000E+00 0.  1.
         11    1    1    2    0    0 -0.34133700243E+01 -0.27193097340E+02 -0.10321836406E+02  0.29285763515E+02  0.00000000000E+00 0. -1.
<mgrwt>
<rscale>  0 0.11978579E+03</rscale>
<asrwt>0</asrwt>
<pdfrwt beam="1">  1        1 0.27008774E-01 0.12912298E+03</pdfrwt>
<pdfrwt beam="2">  1       -1 0.26893522E-01 0.12912298E+03</pdfrwt>
<totfact> 0.20747004E+03</totfact>
</mgrwt>
</event>
<event>
 6    1  0.4705246E-006  0.2911661E+03  0.7546771E-02  0.1089742E+00
          2   -1    0    0  501    0  0.00000000000E+00  0.00000000000E+00  0.29897458072E+03  0.29897458072E+03  0.00000000000E+00 0. -1.
         -2   -1    0    0    0  501 -0.00000000000E+00 -0.00000000000E+00 -0.70890401141E+02  0.70890401141E+02  0.00000000000E+00 0.  1.
          5    1    1    2  502    0  0.80985388115E+02  0.80540499607E+02  0.90627476779E+02  0.14587952122E+03  0.47000000000E+01 0. -1.
         -5    1    1    2    0  502 -0.18370141696E+02 -0.74448961817E+01  0.75180396231E+02  0.77891402366E+02  0.47000000000E+01 0.  1.
        -11    1    1    2    0    0  0.87077971880E+01 -0.41347927599E+02  0.52533886323E+02  0.67418736719E+02  0.00000000000E+00 0. -1.
         11    1    1    2    0    0 -0.71323043607E+02 -0.31747675826E+02  0.97424202518E+01  0.78675321557E+02  0.00000000000E+00 0.  1.
<mgrwt>
<rscale>  0 0.29116612E+03</rscale>
<asrwt>0</asrwt>
<pdfrwt beam="1">  1        2 0.45996089E-01 0.29116612E+03</pdfrwt>
<pdfrwt beam="2">  1       -2 0.10906216E-01 0.29116612E+03</pdfrwt>
<totfact> 0.63076753E+03</totfact>
</mgrwt>
</event>
<event>
 6    1  0.4705246E-006  0.2978865E+03  0.7546771E-02  0.1086302E+00
          1   -1    0    0  501    0  0.00000000000E+00  0.00000000000E+00  0.12113812067E+03  0.12113812067E+03  0.00000000000E+00 0. -1.
         -1   -1    0    0    0  501 -0.00000000000E+00 -0.00000000000E+00 -0.18313054080E+03  0.18313054080E+03  0.00000000000E+00 0.  1.
          5    1    1    2  502    0 -0.34524041715E+02  0.12358638870E+01 -0.19615671975E+02  0.40003767359E+02  0.47000000000E+01 0.  1.
         -5    1    1    2    0  502  0.78715892827E+02 -0.89404638155E+02  0.91322300174E+01  0.11956115060E+03  0.47000000000E+01 0.  1.
        -11    1    1    2    0    0  0.10171008072E+02  0.51444306672E+02 -0.58692267468E+02  0.78706723694E+02  0.00000000000E+00 0.  1.
         11    1    1    2    0    0 -0.54362859185E+02  0.36724467597E+02  0.71832892928E+01  0.65997019812E+02  0.00000000000E+00 0. -1.
<mgrwt>
<rscale>  0 0.29788649E+03</rscale>
<asrwt>0</asrwt>
<pdfrwt beam="1">  1        1 0.18636634E-01 0.29788649E+03</pdfrwt>
<pdfrwt beam="2">  1       -1 0.28173929E-01 0.29788649E+03</pdfrwt>
<totfact> 0.31797837E+03</totfact>
</mgrwt>
</event>
<event>
 6    1  0.4705246E-006  0.1357659E+03  0.7546771E-02  0.1227414E+00
          2   -1    0    0  501    0  0.00000000000E+00  0.00000000000E+00  0.14167391079E+04  0.14167391079E+04  0.00000000000E+00 0. -1.
         -2   -1    0    0    0  501 -0.00000000000E+00 -0.00000000000E+00 -0.17730770013E+02  0.17730770013E+02  0.00000000000E+00 0.  1.
          5    1    1    2  502    0  0.70538570571E+02 -0.30902548408E+02  0.55902086589E+03  0.56432001200E+03  0.47000000000E+01 0. -1.
         -5    1    1    2    0  502 -0.67949496230E+01  0.55086881117E+02  0.61791549593E+03  0.62042113594E+03  0.47000000000E+01 0.  1.
        -11    1    1    2    0    0 -0.71501916152E+02 -0.49990054506E+02  0.17240231368E+03  0.19322030774E+03  0.00000000000E+00 0.  1.
         11    1    1    2    0    0  0.77582952040E+01  0.25805721797E+02  0.49669662410E+02  0.56508422256E+02  0.00000000000E+00 0. -1.
<mgrwt>
<rscale>  0 0.13002836E+03</rscale>
<asrwt>0</asrwt>
<pdfrwt beam="1">  1        2 0.21795977E+00 0.13576593E+03</pdfrwt>
<pdfrwt beam="2">  1       -2 0.27278119E-02 0.13576593E+03</pdfrwt>
<totfact> 0.72288425E+03</totfact>
</mgrwt>
</event>
<event>
 6    1  0.4705246E-006  0.1876917E+03  0.7546771E-02  0.1165438E+00
         -2   -1    0    0    0  501 -0.00000000000E+00  0.00000000000E+00  0.16598534409E+02  0.16598534409E+02  0.00000000000E+00 0.  1.
          2   -1    0    0  501    0  0.00000000000E+00 -0.00000000000E+00 -0.19018679011E+04  0.19018679011E+04  0.00000000000E+00 0. -1.
          5    1    1    2  502    0  0.94880925083E+02  0.12400810125E+03 -0.77939098221E+03  0.79489168587E+03  0.47000000000E+01 0.  1.
         -5    1    1    2    0  502  0.77759482795E+01 -0.28800116633E+02 -0.20787997401E+03  0.21006209959E+03  0.47000000000E+01 0.  1.
        -11    1    1    2    0    0 -0.64030093274E+02 -0.10896664613E+03 -0.69890004238E+03  0.71023577215E+03  0.00000000000E+00 0.  1.
         11    1    1    2    0    0 -0.38626780089E+02  0.13758661513E+02 -0.19909836807E+03  0.20327687787E+03  0.00000000000E+00 0. -1.
<mgrwt>
<rscale>  0 0.18246527E+03</rscale>
<asrwt>0</asrwt>
<pdfrwt beam="2">  1        2 0.29259526E+00 0.18769169E+03</pdfrwt>
<pdfrwt beam="1">  1       -2 0.25536190E-02 0.18769169E+03</pdfrwt>
<totfact> 0.44928941E+03</totfact>
</mgrwt>
</event>
<event>
 6    1  0.4705246E-006  0.1565761E+03  0.7546771E-02  0.1200907E+00
         -2   -1    0    0    0  501 -0.00000000000E+00  0.00000000000E+00  0.11589744152E+02  0.11589744152E+02  0.00000000000E+00 0.  1.
          2   -1    0    0  501    0  0.00000000000E+00 -0.00000000000E+00 -0.21668775938E+04  0.21668775938E+04  0.00000000000E+00 0. -1.
          5    1    1    2  502    0  0.37840299017E+02  0.50230567121E+02 -0.41038663672E+03  0.41520390136E+03  0.47000000000E+01 0.  1.
         -5    1    1    2    0  502  0.56047163367E+02 -0.58932616913E+02 -0.12061447822E+04  0.12088927427E+04  0.47000000000E+01 0.  1.
        -11    1    1    2    0    0 -0.11058415272E+03  0.66911325533E+01 -0.49993596036E+03  0.51206404926E+03  0.00000000000E+00 0.  1.
         11    1    1    2    0    0  0.16696690332E+02  0.20109172384E+01 -0.38820470428E+02  0.42306644637E+02  0.00000000000E+00 0. -1.
<mgrwt>
<rscale>  0 0.14964705E+03</rscale>
<asrwt>0</asrwt>
<pdfrwt beam="2">  1        2 0.33336568E+00 0.15657612E+03</pdfrwt>
<pdfrwt beam="1">  1       -2 0.17830381E-02 0.15657612E+03</pdfrwt>
<totfact> 0.55302331E+03</totfact>
</mgrwt>
</event>
<event>
 6    1  0.4705246E-006  0.1269434E+03  0.7546771E-02  0.1247522E+00
          1   -1    0    0  501    0  0.00000000000E+00  0.00000000000E+00  0.23436464805E+03  0.23436464805E+03  0.00000000000E+00 0. -1.
         -1   -1    0    0    0  501 -0.00000000000E+00 -0.00000000000E+00 -0.52251904071E+02  0.52251904071E+02  0.00000000000E+00 0.  1.
          5    1    1    2  502    0 -0.40251871833E+02 -0.13975743472E+01 -0.85834176904E+01  0.41447936732E+02  0.47000000000E+01 0.  1.
         -5    1    1    2    0  502  0.26161377164E+02  0.18460217235E+02  0.13088148985E+03  0.13482303832E+03  0.47000000000E+01 0.  1.
        -11    1    1    2    0    0 -0.28262858311E+02 -0.20377277208E+01  0.58939847894E+02  0.65397608243E+02  0.00000000000E+00 0. -1.
         11    1    1    2    0    0  0.42353352980E+02 -0.15024915167E+02  0.87482391982E+00  0.44947968823E+02  0.00000000000E+00 0.  1.
<mgrwt>
<rscale>  0 0.11735716E+03</rscale>
<asrwt>0</asrwt>
<pdfrwt beam="1">  1        1 0.36056099E-01 0.12694344E+03</pdfrwt>
<pdfrwt beam="2">  1       -1 0.80387546E-02 0.12694344E+03</pdfrwt>
<totfact> 0.96241635E+03</totfact>
</mgrwt>
</event>
<event>
 6    1  0.4705246E-006  0.1435055E+03  0.7546771E-02  0.1219059E+00
         -2   -1    0    0    0  501 -0.00000000000E+00  0.00000000000E+00  0.93162159087E+02  0.93162159087E+02  0.00000000000E+00 0.  1.
          2   -1    0    0  501    0  0.00000000000E+00 -0.00000000000E+00 -0.18488315167E+03  0.18488315167E+03  0.00000000000E+00 0. -1.
          5    1    1    2  502    0  0.14814041891E+02  0.54478259565E+02 -0.36542680951E+02  0.67415088322E+02  0.47000000000E+01 0. -1.
         -5    1    1    2    0  502 -0.80836517271E+02 -0.29788920717E+02 -0.37664935625E+02  0.94141700100E+02  0.47000000000E+01 0. -1.
        -11    1    1    2    0    0  0.33276056092E+02  0.16503840522E+01 -0.52248154319E+02  0.61966840377E+02  0.00000000000E+00 0. -1.
         11    1    1    2    0    0  0.32746419288E+02 -0.26339722900E+02  0.34734778315E+02  0.54521681956E+02  0.00000000000E+00 0.  1.
<mgrwt>
<rscale>  0 0.13582541E+03</rscale>
<asrwt>0</asrwt>
<pdfrwt beam="2">  1        2 0.28443561E-01 0.14350549E+03</pdfrwt>
<pdfrwt beam="1">  1       -2 0.14332640E-01 0.14350549E+03</pdfrwt>
<totfact> 0.65553432E+03</totfact>
</mgrwt>
</event>
<event>
 6    1  0.4705246E-006  0.1332476E+03  0.7546771E-02  0.1235780E+00
          2   -1    0    0  501    0  0.00000000000E+00  0.00000000000E+00  0.41997856525E+03  0.41997856525E+03  0.00000000000E+00 0.  1.
         -2   -1    0    0    0  501 -0.00000000000E+00 -0.00000000000E+00 -0.37136189757E+02  0.37136189757E+02  0.00000000000E+00 0. -1.
          5    1    1    2  502    0 -0.41624861693E+02 -0.24148980328E+01  0.16502160550E+03  0.17027237335E+03  0.47000000000E+01 0.  1.
         -5    1    1    2    0  502  0.75566805930E+02 -0.28879035404E+02  0.12606722645E+03  0.14986452692E+03  0.47000000000E+01 0.  1.
        -11    1    1    2    0    0 -0.40835382900E+02  0.11679902292E+02  0.10435468556E+03  0.11266698280E+03  0.00000000000E+00 0.  1.
         11    1    1    2    0    0  0.68934386629E+01  0.19614031145E+02 -0.12601142019E+02  0.24310871942E+02  0.00000000000E+00 0. -1.
<mgrwt>
<rscale>  0 0.12454658E+03</rscale>
<asrwt>0</asrwt>
<pdfrwt beam="1">  1        2 0.64612084E-01 0.13324761E+03</pdfrwt>
<pdfrwt beam="2">  1       -2 0.57132603E-02 0.13324761E+03</pdfrwt>
<totfact> 0.11426694E+04</totfact>
</mgrwt>
</event>
<event>
 6    1  0.4705246E-006  0.1301250E+03  0.7546771E-02  0.1249213E+00
          1   -1    0    0  501    0  0.00000000000E+00  0.00000000000E+00  0.30775668401E+03  0.30775668401E+03  0.00000000000E+00 0. -1.
         -1   -1    0    0    0  501 -0.00000000000E+00 -0.00000000000E+00 -0.38315582433E+02  0.38315582433E+02  0.00000000000E+00 0.  1.
          5    1    1    2  502    0 -0.64908821866E+02  0.50568210596E+02  0.13062332710E+03  0.15445013002E+03  0.47000000000E+01 0. -1.
         -5    1    1    2    0  502  0.32787433332E+02 -0.33984215765E+02  0.64278205521E+02  0.79898187781E+02  0.47000000000E+01 0. -1.
        -11    1    1    2    0    0  0.12224388811E+02  0.27584857588E+02  0.11658351690E+02  0.32346208651E+02  0.00000000000E+00 0.  1.
         11    1    1    2    0    0  0.19896999722E+02 -0.44168852419E+02  0.62881217257E+02  0.79377739988E+02  0.00000000000E+00 0. -1.
<mgrwt>
<rscale>  0 0.11636750E+03</rscale>
<asrwt>0</asrwt>
<pdfrwt beam="1">  1        1 0.47347181E-01 0.13012504E+03</pdfrwt>
<pdfrwt beam="2">  1       -1 0.58947052E-02 0.13012504E+03</pdfrwt>
<totfact> 0.10958559E+04</totfact>
</mgrwt>
</event>
<event>
 6    1  0.4705246E-006  0.3664243E+03  0.7546771E-02  0.1057094E+00
         -2   -1    0    0    0  501 -0.00000000000E+00  0.00000000000E+00  0.14116909436E+03  0.14116909436E+03  0.00000000000E+00 0.  1.
          2   -1    0    0  501    0  0.00000000000E+00 -0.00000000000E+00 -0.93312616772E+03  0.93312616772E+03  0.00000000000E+00 0. -1.
          5    1    1    2  502    0 -0.22113488468E+03  0.21473248710E+03 -0.24129290682E+03  0.39147801358E+03  0.47000000000E+01 0.  1.
         -5    1    1    2    0  502 -0.15932263812E+02  0.35149725706E+02 -0.10788510385E+03  0.11467617835E+03  0.47000000000E+01 0.  1.
        -11    1    1    2    0    0  0.14028987851E+03 -0.20495609206E+03 -0.29049247417E+03  0.38219645110E+03  0.00000000000E+00 0.  1.
         11    1    1    2    0    0  0.96777269980E+02 -0.44926120745E+02 -0.15228658853E+03  0.18594461905E+03  0.00000000000E+00 0. -1.
<mgrwt>
<rscale>  0 0.36378817E+03</rscale>
<asrwt>0</asrwt>
<pdfrwt beam="2">  1        2 0.14355787E+00 0.36642432E+03</pdfrwt>
<pdfrwt beam="1">  1       -2 0.21718323E-01 0.36642432E+03</pdfrwt>
<totfact> 0.52602470E+02</totfact>
</mgrwt>
</event>
<event>
 6    1  0.4705246E-006  0.1253399E+03  0.7546771E-02  0.1250640E+00
         -2   -1    0    0    0  501 -0.00000000000E+00  0.00000000000E+00  0.47028583679E+02  0.47028583679E+02  0.00000000000E+00 0.  1.
          2   -1    0    0  501    0  0.00000000000E+00 -0.00000000000E+00 -0.25439229414E+03  0.25439229414E+03  0.00000000000E+00 0. -1.
          5    1    1    2  502    0 -0.57230797538E+02  0.59490590529E+00 -0.39621064296E+02  0.69768451580E+02  0.47000000000E+01 0. -1.
         -5    1    1    2    0  502  0.60751158369E+02  0.79238497472E+01 -0.10454749348E+03  0.12126730405E+03  0.47000000000E+01 0. -1.
        -11    1    1    2    0    0 -0.33658780612E+02 -0.29748923436E+02 -0.10596949161E+02  0.46154168711E+02  0.00000000000E+00 0.  1.
         11    1    1    2    0    0  0.30138419782E+02  0.21230167783E+02 -0.52598203523E+02  0.64230953480E+02  0.00000000000E+00 0. -1.
<mgrwt>
<rscale>  0 0.11554090E+03</rscale>
<asrwt>0</asrwt>
<pdfrwt beam="2">  1        2 0.39137276E-01 0.12533989E+03</pdfrwt>
<pdfrwt beam="1">  1       -2 0.72351666E-02 0.12533989E+03</pdfrwt>
<totfact> 0.13514069E+04</totfact>
</mgrwt>
</event>
<event>
 6    1  0.4705246E-006  0.1412673E+03  0.7546771E-02  0.1222387E+00
          2   -1    0    0  501    0  0.00000000000E+00  0.00000000000E+00  0.15709199087E+04  0.15709199087E+04  0.00000000000E+00 0. -1.
         -2   -1    0    0    0  501 -0.00000000000E+00 -0.00000000000E+00 -0.15095879628E+02  0.15095879628E+02  0.00000000000E+00 0.  1.
          5    1    1    2  502    0 -0.55901232367E+02  0.13697096237E+02  0.29554486700E+03  0.30113355282E+03  0.47000000000E+01 0. -1.
         -5    1    1    2    0  502  0.41240046711E+02  0.50446622987E+02  0.98916976752E+03  0.99132463008E+03  0.47000000000E+01 0. -1.
        -11    1    1    2    0    0 -0.23700362279E+02  0.11114943100E+02  0.43379076214E+02  0.50665504887E+02  0.00000000000E+00 0.  1.
         11    1    1    2    0    0  0.38361547935E+02 -0.75258662324E+02  0.22773031835E+03  0.24289210056E+03  0.00000000000E+00 0. -1.
<mgrwt>
<rscale>  0 0.13347597E+03</rscale>
<asrwt>0</asrwt>
<pdfrwt beam="1">  1        2 0.24167986E+00 0.14126734E+03</pdfrwt>
<pdfrwt beam="2">  1       -2 0.23224443E-02 0.14126734E+03</pdfrwt>
<totfact> 0.76093887E+03</totfact>
</mgrwt>
</event>
<event>
 6    1  0.4705246E-006  0.2950934E+03  0.7546771E-02  0.1087719E+00
         -2   -1    0    0    0  501 -0.00000000000E+00  0.00000000000E+00  0.20085158845E+03  0.20085158845E+03  0.00000000000E+00 0.  1.
          2   -1    0    0  501    0  0.00000000000E+00 -0.00000000000E+00 -0.10838864161E+03  0.10838864161E+03  0.00000000000E+00 0. -1.
          5    1    1    2  502    0 -0.79349829459E+02 -0.93409699814E+01  0.40286119654E+02  0.89603072448E+02  0.47000000000E+01 0. -1.
         -5    1    1    2    0  502  0.35229269849E+01  0.25091367172E+02 -0.51850122537E+02  0.57900888838E+02  0.47000000000E+01 0. -1.
        -11    1    1    2    0    0  0.47251398598E+02  0.24136531181E+02  0.99116199413E+02  0.11242458714E+03  0.00000000000E+00 0.  1.
         11    1    1    2    0    0  0.28575503876E+02 -0.39886928371E+02  0.49107503129E+01  0.49311681631E+02  0.00000000000E+00 0. -1.
<mgrwt>
<rscale>  0 0.29509341E+03</rscale>
<asrwt>0</asrwt>
<pdfrwt beam="2">  1        2 0.16675176E-01 0.29509341E+03</pdfrwt>
<pdfrwt beam="1">  1       -2 0.30900244E-01 0.29509341E+03</pdfrwt>
<totfact> 0.33214694E+03</totfact>
</mgrwt>
</event>
<event>
 6    1  0.4705246E-006  0.1496437E+03  0.7546771E-02  0.1209247E+00
         -4   -1    0    0    0  501 -0.00000000000E+00  0.00000000000E+00  0.12239622151E+03  0.12239622151E+03  0.00000000000E+00 0.  1.
          4   -1    0    0  501    0  0.00000000000E+00 -0.00000000000E+00 -0.15441069753E+03  0.15441069753E+03  0.00000000000E+00 0. -1.
          5    1    1    2  502    0  0.44234130096E+02 -0.16999927970E+02 -0.14361949381E+02  0.49739435123E+02  0.47000000000E+01 0.  1.
         -5    1    1    2    0  502 -0.25100926831E+02  0.97006998032E+02  0.27918931722E+01  0.10035087873E+03  0.47000000000E+01 0.  1.
        -11    1    1    2    0    0  0.20750132554E+02 -0.13375584040E+02  0.26304568142E+02  0.36074985163E+02  0.00000000000E+00 0.  1.
         11    1    1    2    0    0 -0.39883335819E+02 -0.66631486023E+02 -0.46748987957E+02  0.90641620025E+02  0.00000000000E+00 0. -1.
<mgrwt>
<rscale>  0 0.14307718E+03</rscale>
<asrwt>0</asrwt>
<pdfrwt beam="2">  1        4 0.23755492E-01 0.14964370E+03</pdfrwt>
<pdfrwt beam="1">  1       -4 0.18830188E-01 0.14964370E+03</pdfrwt>
<totfact> 0.69897520E+02</totfact>
</mgrwt>
</event>
<event>
 6    1  0.4705246E-006  0.1519394E+03  0.7546771E-02  0.1206860E+00
          2   -1    0    0  501    0  0.00000000000E+00  0.00000000000E+00  0.10140061398E+04  0.10140061398E+04  0.00000000000E+00 0. -1.
         -2   -1    0    0    0  501 -0.00000000000E+00 -0.00000000000E+00 -0.19185815890E+02  0.19185815890E+02  0.00000000000E+00 0.  1.
          5    1    1    2  502    0 -0.68799501802E+02  0.94308515013E+02  0.45430605624E+03  0.46908799834E+03  0.47000000000E+01 0.  1.
         -5    1    1    2    0  502  0.68543810239E+01 -0.34106792374E+02  0.13873972231E+03  0.14311204132E+03  0.47000000000E+01 0.  1.
        -11    1    1    2    0    0 -0.19163549330E+02  0.69685597059E+01  0.61303357083E+02  0.64605758543E+02  0.00000000000E+00 0.  1.
         11    1    1    2    0    0  0.81108670108E+02 -0.67170282345E+02  0.34047118827E+03  0.35638615747E+03  0.00000000000E+00 0. -1.
<mgrwt>
<rscale>  0 0.14491863E+03</rscale>
<asrwt>0</asrwt>
<pdfrwt beam="1">  1        2 0.15600090E+00 0.15193944E+03</pdfrwt>
<pdfrwt beam="2">  1       -2 0.29516648E-02 0.15193944E+03</pdfrwt>
<totfact> 0.10830303E+04</totfact>
</mgrwt>
</event>
<event>
 6    1  0.4705246E-006  0.1275674E+03  0.7546771E-02  0.1245968E+00
         -1   -1    0    0    0  501 -0.00000000000E+00  0.00000000000E+00  0.23999966323E+03  0.23999966323E+03  0.00000000000E+00 0.  1.
          1   -1    0    0  501    0  0.00000000000E+00 -0.00000000000E+00 -0.12731849468E+03  0.12731849468E+03  0.00000000000E+00 0. -1.
          5    1    1    2  502    0  0.28171073660E+02  0.29392435194E+02 -0.10923429168E+03  0.11666938380E+03  0.47000000000E+01 0. -1.
         -5    1    1    2    0  502 -0.19321385556E+02 -0.67540156307E+01  0.27675729464E+02  0.34741454608E+02  0.47000000000E+01 0.  1.
        -11    1    1    2    0    0  0.20874460846E+01 -0.57265109549E+02  0.13097241288E+03  0.14295951573E+03  0.00000000000E+00 0.  1.
         11    1    1    2    0    0 -0.10937134188E+02  0.34626689985E+02  0.63267317888E+02  0.72947803780E+02  0.00000000000E+00 0. -1.
<mgrwt>
<rscale>  0 0.11827653E+03</rscale>
<asrwt>0</asrwt>
<pdfrwt beam="2">  1        1 0.19587461E-01 0.12756741E+03</pdfrwt>
<pdfrwt beam="1">  1       -1 0.36923025E-01 0.12756741E+03</pdfrwt>
<totfact> 0.18191712E+03</totfact>
</mgrwt>
</event>
<event>
 6    1  0.4705246E-006  0.1256953E+03  0.7546771E-02  0.1249538E+00
          2   -1    0    0  501    0  0.00000000000E+00  0.00000000000E+00  0.75811034049E+02  0.75811034049E+02  0.00000000000E+00 0. -1.
         -2   -1    0    0    0  501 -0.00000000000E+00 -0.00000000000E+00 -0.15660477577E+03  0.15660477577E+03  0.00000000000E+00 0.  1.
          5    1    1    2  502    0 -0.60355305542E+02  0.19885272740E+01 -0.63794712790E+02  0.87969156684E+02  0.47000000000E+01 0.  1.
         -5    1    1    2    0  502  0.47537352714E+02 -0.52531699388E+01  0.94394000233E+01  0.48975381268E+02  0.47000000000E+01 0.  1.
        -11    1    1    2    0    0  0.45200027606E+02  0.20711664608E+02 -0.30713026138E+02  0.58440615337E+02  0.00000000000E+00 0.  1.
         11    1    1    2    0    0 -0.32382074779E+02 -0.17447021943E+02  0.42745971870E+01  0.37030656527E+02  0.00000000000E+00 0. -1.
<mgrwt>
<rscale>  0 0.11617857E+03</rscale>
<asrwt>0</asrwt>
<pdfrwt beam="1">  1        2 0.11663236E-01 0.12569529E+03</pdfrwt>
<pdfrwt beam="2">  1       -2 0.24093042E-01 0.12569529E+03</pdfrwt>
<totfact> 0.75357354E+03</totfact>
</mgrwt>
</event>
<event>
 6    1  0.4705246E-006  0.1672677E+03  0.7546771E-02  0.1186114E+00
         -1   -1    0    0    0  501 -0.00000000000E+00  0.00000000000E+00  0.11378262212E+03  0.11378262212E+03  0.00000000000E+00 0.  1.
          1   -1    0    0  501    0  0.00000000000E+00 -0.00000000000E+00 -0.25334767200E+03  0.25334767200E+03  0.00000000000E+00 0. -1.
          5    1    1    2  502    0 -0.42460780156E+02 -0.48293130009E+01 -0.12320539460E+03  0.13049099346E+03  0.47000000000E+01 0. -1.
         -5    1    1    2    0  502 -0.44533702714E+02  0.74011535538E+02 -0.17882155956E+02  0.88333569903E+02  0.47000000000E+01 0. -1.
        -11    1    1    2    0    0 -0.29176750031E+01 -0.24957782453E+02  0.34622881111E+02  0.42780224741E+02  0.00000000000E+00 0.  1.
         11    1    1    2    0    0  0.89912157874E+02 -0.44224440084E+02 -0.33100380440E+02  0.10552550601E+03  0.00000000000E+00 0. -1.
<mgrwt>
<rscale>  0 0.16230910E+03</rscale>
<asrwt>0</asrwt>
<pdfrwt beam="2">  1        1 0.38976565E-01 0.16726773E+03</pdfrwt>
<pdfrwt beam="1">  1       -1 0.17505019E-01 0.16726773E+03</pdfrwt>
<totfact> 0.26649333E+03</totfact>
</mgrwt>
</event>
<event>
 6    1  0.4705246E-006  0.3202040E+03  0.7546771E-02  0.1075555E+00
          1   -1    0    0  501    0  0.00000000000E+00  0.00000000000E+00  0.36973695116E+03  0.36973695116E+03  0.00000000000E+00 0. -1.
         -1   -1    0    0    0  501 -0.00000000000E+00 -0.00000000000E+00 -0.69326724520E+02  0.69326724520E+02  0.00000000000E+00 0.  1.
          5    1    1    2  502    0 -0.90735738995E+02 -0.28190104110E+02  0.22828927936E+03  0.24731708670E+03  0.47000000000E+01 0. -1.
         -5    1    1    2    0  502  0.10719476482E+01  0.13607226015E+02 -0.11810100054E+02  0.18651384262E+02  0.47000000000E+01 0. -1.
        -11    1    1    2    0    0 -0.16466038724E+02  0.38387743999E+02  0.15292398809E+02  0.44481533044E+02  0.00000000000E+00 0.  1.
         11    1    1    2    0    0  0.10612983007E+03 -0.23804865904E+02  0.68638648526E+02  0.12861367168E+03  0.00000000000E+00 0. -1.
<mgrwt>
<rscale>  0 0.32020401E+03</rscale>
<asrwt>0</asrwt>
<pdfrwt beam="1">  1        1 0.56882606E-01 0.32020401E+03</pdfrwt>
<pdfrwt beam="2">  1       -1 0.10665650E-01 0.32020401E+03</pdfrwt>
<totfact> 0.36986685E+03</totfact>
</mgrwt>
</event>
<event>
 6    1  0.4705246E-006  0.1503205E+03  0.7546771E-02  0.1210101E+00
          2   -1    0    0  501    0  0.00000000000E+00  0.00000000000E+00  0.21715734589E+03  0.21715734589E+03  0.00000000000E+00 0.  1.
         -2   -1    0    0    0  501 -0.00000000000E+00 -0.00000000000E+00 -0.10256647932E+03  0.10256647932E+03  0.00000000000E+00 0. -1.
          5    1    1    2  502    0  0.39854136959E+02  0.84106766653E+02  0.50994048015E+02  0.10622986097E+03  0.47000000000E+01 0. -1.
         -5    1    1    2    0  502 -0.48435644262E+02 -0.10471200068E+01  0.77538049921E+02  0.91549698421E+02  0.47000000000E+01 0. -1.
        -11    1    1    2    0    0  0.97731754520E+01 -0.18461924481E+02  0.35090130205E+02  0.40837174875E+02  0.00000000000E+00 0.  1.
         11    1    1    2    0    0 -0.11916681488E+01 -0.64597722165E+02 -0.49031361572E+02  0.81107090932E+02  0.00000000000E+00 0. -1.
<mgrwt>
<rscale>  0 0.14242617E+03</rscale>
<asrwt>0</asrwt>
<pdfrwt beam="1">  1        2 0.33408822E-01 0.15032050E+03</pdfrwt>
<pdfrwt beam="2">  1       -2 0.15779458E-01 0.15032050E+03</pdfrwt>
<totfact> 0.47178712E+03</totfact>
</mgrwt>
</event>
<event>
 6    1  0.4705246E-006  0.1389673E+03  0.7546771E-02  0.1226461E+00
          3   -1    0    0  501    0  0.00000000000E+00  0.00000000000E+00  0.29691066028E+03  0.29691066028E+03  0.00000000000E+00 0. -1.
         -3   -1    0    0    0  501 -0.00000000000E+00 -0.00000000000E+00 -0.51719249378E+02  0.51719249378E+02  0.00000000000E+00 0.  1.
          5    1    1    2  502    0 -0.28424956863E+02 -0.90098021142E+02  0.13467995999E+03  0.16457950422E+03  0.47000000000E+01 0.  1.
         -5    1    1    2    0  502  0.15455788112E+02  0.30775156259E+02  0.10311394182E+02  0.36254744226E+02  0.47000000000E+01 0.  1.
        -11    1    1    2    0    0 -0.16268495541E+02 -0.18145685360E+02  0.33736869769E+02  0.41618580300E+02  0.00000000000E+00 0. -1.
         11    1    1    2    0    0  0.29237664292E+02  0.77468550243E+02  0.66463186961E+02  0.10617708091E+03  0.00000000000E+00 0.  1.
<mgrwt>
<rscale>  0 0.13067297E+03</rscale>
<asrwt>0</asrwt>
<pdfrwt beam="1">  1        3 0.45678562E-01 0.13896727E+03</pdfrwt>
<pdfrwt beam="2">  1       -3 0.79568078E-02 0.13896727E+03</pdfrwt>
<totfact> 0.11912789E+03</totfact>
</mgrwt>
</event>
<event>
 6    1  0.4705246E-006  0.1269326E+03  0.7546771E-02  0.1247882E+00
         -2   -1    0    0    0  501 -0.00000000000E+00  0.00000000000E+00  0.10742394058E+03  0.10742394058E+03  0.00000000000E+00 0.  1.
          2   -1    0    0  501    0  0.00000000000E+00 -0.00000000000E+00 -0.17780495097E+03  0.17780495097E+03  0.00000000000E+00 0. -1.
          5    1    1    2  502    0 -0.16330866612E+02  0.47942017900E+02 -0.15917779512E+02  0.53297279379E+02  0.47000000000E+01 0.  1.
         -5    1    1    2    0  502  0.38170166679E+02 -0.47002789666E+02 -0.10909563802E+03  0.12486061067E+03  0.47000000000E+01 0.  1.
        -11    1    1    2    0    0 -0.56525920345E+02  0.32936168265E+01  0.28197031084E+02  0.63254250012E+02  0.00000000000E+00 0. -1.
         11    1    1    2    0    0  0.34686620278E+02 -0.42328450607E+01  0.26435376060E+02  0.43816751489E+02  0.00000000000E+00 0.  1.
<mgrwt>
<rscale>  0 0.11714563E+03</rscale>
<asrwt>0</asrwt>
<pdfrwt beam="2">  1        2 0.27354607E-01 0.12693258E+03</pdfrwt>
<pdfrwt beam="1">  1       -2 0.16526760E-01 0.12693258E+03</pdfrwt>
<totfact> 0.53729403E+03</totfact>
</mgrwt>
</event>
<event>
 6    1  0.4705246E-006  0.2541656E+03  0.7546771E-02  0.1110700E+00
          2   -1    0    0  501    0  0.00000000000E+00  0.00000000000E+00  0.21770283195E+02  0.21770283195E+02  0.00000000000E+00 0.  1.
         -2   -1    0    0    0  501 -0.00000000000E+00 -0.00000000000E+00 -0.74183882704E+03  0.74183882704E+03  0.00000000000E+00 0. -1.
          5    1    1    2  502    0 -0.56603604817E+02 -0.56793265371E+02 -0.34565147214E+03  0.35486120281E+03  0.47000000000E+01 0.  1.
         -5    1    1    2    0  502  0.66920654594E+01  0.17067503489E+02 -0.79487932427E+00  0.18942155332E+02  0.47000000000E+01 0.  1.
        -11    1    1    2    0    0  0.14838061679E+02  0.60045484642E+02 -0.29427211413E+03  0.30070202103E+03  0.00000000000E+00 0. -1.
         11    1    1    2    0    0  0.35073477679E+02 -0.20319722760E+02 -0.79350078250E+02  0.89103731055E+02  0.00000000000E+00 0.  1.
<mgrwt>
<rscale>  0 0.25416563E+03</rscale>
<asrwt>0</asrwt>
<pdfrwt beam="1">  1        2 0.33492746E-02 0.25416563E+03</pdfrwt>
<pdfrwt beam="2">  1       -2 0.11412904E+00 0.25416563E+03</pdfrwt>
<totfact> 0.16835689E+03</totfact>
</mgrwt>
</event>
<event>
 6    1  0.4705246E-006  0.1265490E+03  0.7546771E-02  0.1248615E+00
         -1   -1    0    0    0  501 -0.00000000000E+00  0.00000000000E+00  0.49915097780E+02  0.49915097780E+02  0.00000000000E+00 0.  1.
          1   -1    0    0  501    0  0.00000000000E+00 -0.00000000000E+00 -0.31611588173E+03  0.31611588173E+03  0.00000000000E+00 0. -1.
          5    1    1    2  502    0 -0.59398898884E+02  0.66967640182E+01 -0.18633224484E+03  0.19574184863E+03  0.47000000000E+01 0. -1.
         -5    1    1    2    0  502  0.47718199159E+02 -0.22569516965E+02 -0.52786736380E+02  0.74799325963E+02  0.47000000000E+01 0. -1.
        -11    1    1    2    0    0  0.31846950173E+02  0.69192371521E+01  0.23583860678E+02  0.40228131483E+02  0.00000000000E+00 0.  1.
         11    1    1    2    0    0 -0.20166250448E+02  0.89535157943E+01 -0.50665663402E+02  0.55261673429E+02  0.00000000000E+00 0. -1.
<mgrwt>
<rscale>  0 0.11671617E+03</rscale>
<asrwt>0</asrwt>
<pdfrwt beam="2">  1        1 0.48633213E-01 0.12654896E+03</pdfrwt>
<pdfrwt beam="1">  1       -1 0.76792457E-02 0.12654896E+03</pdfrwt>
<totfact> 0.71249552E+03</totfact>
</mgrwt>
</event>
<event>
 6    1  0.4705246E-006  0.1312592E+03  0.7546771E-02  0.1238953E+00
         -2   -1    0    0    0  501 -0.00000000000E+00  0.00000000000E+00  0.30926667576E+02  0.30926667576E+02  0.00000000000E+00 0.  1.
          2   -1    0    0  501    0  0.00000000000E+00 -0.00000000000E+00 -0.43468886621E+03  0.43468886621E+03  0.00000000000E+00 0. -1.
          5    1    1    2  502    0  0.44982736288E+02  0.24617489399E+01 -0.62428806800E+02  0.77129454103E+02  0.47000000000E+01 0.  1.
         -5    1    1    2    0  502 -0.82306387602E+02  0.12115031836E+02 -0.18712080245E+03  0.20483505595E+03  0.47000000000E+01 0.  1.
        -11    1    1    2    0    0  0.32745251017E+02  0.33710493902E+02 -0.10244778408E+03  0.11271289778E+03  0.00000000000E+00 0.  1.
         11    1    1    2    0    0  0.45784002959E+01 -0.48287274678E+02 -0.51764805297E+02  0.70938125945E+02  0.00000000000E+00 0. -1.
<mgrwt>
<rscale>  0 0.12254746E+03</rscale>
<asrwt>0</asrwt>
<pdfrwt beam="2">  1        2 0.66875207E-01 0.13125920E+03</pdfrwt>
<pdfrwt beam="1">  1       -2 0.47579491E-02 0.13125920E+03</pdfrwt>
<totfact> 0.14482321E+04</totfact>
</mgrwt>
</event>
<event>
 6    1  0.4705246E-006  0.3559601E+03  0.7546771E-02  0.1060195E+00
         -1   -1    0    0    0  501 -0.00000000000E+00  0.00000000000E+00  0.10609023633E+03  0.10609023633E+03  0.00000000000E+00 0.  1.
          1   -1    0    0  501    0  0.00000000000E+00 -0.00000000000E+00 -0.29858455075E+03  0.29858455075E+03  0.00000000000E+00 0. -1.
          5    1    1    2  502    0 -0.35750727176E+02  0.70855580460E+01 -0.41174589219E+02  0.55188372179E+02  0.47000000000E+01 0. -1.
         -5    1    1    2    0  502  0.93564274072E+02 -0.40846920729E+02 -0.19947427113E+03  0.22413125431E+03  0.47000000000E+01 0. -1.
        -11    1    1    2    0    0 -0.44096126948E+02 -0.92340818975E+01 -0.15219479530E+02  0.47553856179E+02  0.00000000000E+00 0. -1.
         11    1    1    2    0    0 -0.13717419948E+02  0.42995444581E+02  0.63374025460E+02  0.77801304409E+02  0.00000000000E+00 0.  1.
<mgrwt>
<rscale>  0 0.35596014E+03</rscale>
<asrwt>0</asrwt>
<pdfrwt beam="2">  1        1 0.45936084E-01 0.35596014E+03</pdfrwt>
<pdfrwt beam="1">  1       -1 0.16321575E-01 0.35596014E+03</pdfrwt>
<totfact> 0.24819753E+03</totfact>
</mgrwt>
</event>
<event>
 6    1  0.4705246E-006  0.1338859E+03  0.7546771E-02  0.1235195E+00
         -1   -1    0    0    0  501 -0.00000000000E+00  0.00000000000E+00  0.37335918220E+02  0.37335918220E+02  0.00000000000E+00 0.  1.
          1   -1    0    0  501    0  0.00000000000E+00 -0.00000000000E+00 -0.37174670166E+03  0.37174670166E+03  0.00000000000E+00 0. -1.
          5    1    1    2  502    0 -0.84177220675E+02 -0.18757753861E+02 -0.15536568693E+03  0.17775895050E+03  0.47000000000E+01 0.  1.
         -5    1    1    2    0  502  0.36574326460E+02  0.24601509314E+02 -0.44539052522E+02  0.62838943467E+02  0.47000000000E+01 0.  1.
        -11    1    1    2    0    0  0.67348182406E+02  0.18747827710E+02 -0.94183927374E+02  0.11729395079E+03  0.00000000000E+00 0.  1.
         11    1    1    2    0    0 -0.19745288191E+02 -0.24591583163E+02 -0.40322116620E+02  0.51190775116E+02  0.00000000000E+00 0. -1.
<mgrwt>
<rscale>  0 0.12491963E+03</rscale>
<asrwt>0</asrwt>
<pdfrwt beam="2">  1        1 0.57191798E-01 0.13388593E+03</pdfrwt>
<pdfrwt beam="1">  1       -1 0.57439876E-02 0.13388593E+03</pdfrwt>
<totfact> 0.90230280E+03</totfact>
</mgrwt>
</event>
<event>
 6    1  0.4705246E-006  0.3001119E+03  0.7546771E-02  0.1085185E+00
          2   -1    0    0  501    0  0.00000000000E+00  0.00000000000E+00  0.12688741943E+04  0.12688741943E+04  0.00000000000E+00 0.  1.
         -2   -1    0    0    0  501 -0.00000000000E+00 -0.00000000000E+00 -0.17745490082E+02  0.17745490082E+02  0.00000000000E+00 0. -1.
          5    1    1    2  502    0 -0.79040592194E+01  0.60998980384E+00  0.10281584087E+01  0.92732599132E+01  0.47000000000E+01 0. -1.
         -5    1    1    2    0  502  0.60861983691E+02  0.72302455583E+02  0.88633178128E+03  0.89136857845E+03  0.47000000000E+01 0. -1.
        -11    1    1    2    0    0  0.25832034714E+02 -0.14943043306E+02  0.63177772907E+02  0.69871450179E+02  0.00000000000E+00 0. -1.
         11    1    1    2    0    0 -0.78789959186E+02 -0.57969402081E+02  0.30059099163E+03  0.31610639585E+03  0.00000000000E+00 0.  1.
<mgrwt>
<rscale>  0 0.30011194E+03</rscale>
<asrwt>0</asrwt>
<pdfrwt beam="1">  1        2 0.19521134E+00 0.30011194E+03</pdfrwt>
<pdfrwt beam="2">  1       -2 0.27300764E-02 0.30011194E+03</pdfrwt>
<totfact> 0.89178630E+03</totfact>
</mgrwt>
</event>
<event>
 6    1  0.4705246E-006  0.1298654E+03  0.7546771E-02  0.1241537E+00
          4   -1    0    0  501    0  0.00000000000E+00  0.00000000000E+00  0.13342325528E+04  0.13342325528E+04  0.00000000000E+00 0. -1.
         -4   -1    0    0    0  501 -0.00000000000E+00 -0.00000000000E+00 -0.22756218725E+02  0.22756218725E+02  0.00000000000E+00 0.  1.
          5    1    1    2  502    0  0.20844888588E+02 -0.46973304330E+02  0.67512343014E+03  0.67709285673E+03  0.47000000000E+01 0.  1.
         -5    1    1    2    0  502  0.30370256563E+01  0.72860316231E+02  0.53177234587E+03  0.53676975235E+03  0.47000000000E+01 0.  1.
        -11    1    1    2    0    0 -0.24715304602E+02  0.20721370935E+02  0.87875898511E+02  0.93607665467E+02  0.00000000000E+00 0. -1.
         11    1    1    2    0    0  0.83339035774E+00 -0.46608382836E+02  0.16704659510E+02  0.49518496942E+02  0.00000000000E+00 0.  1.
<mgrwt>
<rscale>  0 0.12095091E+03</rscale>
<asrwt>0</asrwt>
<pdfrwt beam="1">  1        4 0.20526649E+00 0.12986539E+03</pdfrwt>
<pdfrwt beam="2">  1       -4 0.35009578E-02 0.12986539E+03</pdfrwt>
<totfact> 0.95787031E+01</totfact>
</mgrwt>
</event>
<event>
 6    1  0.4705246E-006  0.1312793E+03  0.7546771E-02  0.1240811E+00
         -1   -1    0    0    0  501 -0.00000000000E+00  0.00000000000E+00  0.68739432729E+03  0.68739432729E+03  0.00000000000E+00 0.  1.
          1   -1    0    0  501    0  0.00000000000E+00 -0.00000000000E+00 -0.22256767641E+02  0.22256767641E+02  0.00000000000E+00 0. -1.
          5    1    1    2  502    0  0.36211308773E+02 -0.38664033141E+02  0.23659475097E+03  0.24249810829E+03  0.47000000000E+01 0.  1.
         -5    1    1    2    0  502  0.24143892718E+01  0.28329597458E+02  0.86099363912E+00  0.28831002024E+02  0.47000000000E+01 0.  1.
        -11    1    1    2    0    0  0.27985767571E+02 -0.18519269470E+01  0.13941892953E+03  0.14221206254E+03  0.00000000000E+00 0.  1.
         11    1    1    2    0    0 -0.66611465615E+02  0.12186362630E+02  0.28826288551E+03  0.29610992207E+03  0.00000000000E+00 0. -1.
<mgrwt>
<rscale>  0 0.12139638E+03</rscale>
<asrwt>0</asrwt>
<pdfrwt beam="2">  1        1 0.34241186E-02 0.13127930E+03</pdfrwt>
<pdfrwt beam="1">  1       -1 0.10575296E+00 0.13127930E+03</pdfrwt>
<totfact> 0.24255583E+03</totfact>
</mgrwt>
</event>
<event>
 6    1  0.4705246E-006  0.2489559E+03  0.7546771E-02  0.1116719E+00
          2   -1    0    0  501    0  0.00000000000E+00  0.00000000000E+00  0.12459507936E+04  0.12459507936E+04  0.00000000000E+00 0. -1.
         -2   -1    0    0    0  501 -0.00000000000E+00 -0.00000000000E+00 -0.48088245627E+02  0.48088245627E+02  0.00000000000E+00 0.  1.
          5    1    1    2  502    0  0.17138563761E+02 -0.65811835356E+02  0.39933912287E+03  0.40511572802E+03  0.47000000000E+01 0. -1.
         -5    1    1    2    0  502 -0.64480484195E+02 -0.14425744084E+03  0.33854363824E+03  0.37363327887E+03  0.47000000000E+01 0. -1.
        -11    1    1    2    0    0  0.43859623368E+02  0.96103832999E+02  0.30578726995E+03  0.32352042863E+03  0.00000000000E+00 0.  1.
         11    1    1    2    0    0  0.34822970654E+01  0.11396544320E+03  0.15419251696E+03  0.19176960375E+03  0.00000000000E+00 0. -1.
<mgrwt>
<rscale>  0 0.24467136E+03</rscale>
<asrwt>0</asrwt>
<pdfrwt beam="1">  1        2 0.19168471E+00 0.24895591E+03</pdfrwt>
<pdfrwt beam="2">  1       -2 0.73981926E-02 0.24895591E+03</pdfrwt>
<totfact> 0.20109574E+03</totfact>
</mgrwt>
</event>
<event>
 6    1  0.4705246E-006  0.1229790E+03  0.7546771E-02  0.1250088E+00
         -2   -1    0    0    0  501 -0.00000000000E+00  0.00000000000E+00  0.24601504089E+02  0.24601504089E+02  0.00000000000E+00 0.  1.
          2   -1    0    0  501    0  0.00000000000E+00 -0.00000000000E+00 -0.51867062981E+03  0.51867062981E+03  0.00000000000E+00 0. -1.
          5    1    1    2  502    0 -0.21077159803E+02  0.29047404025E+01 -0.40857908630E+01  0.22169074612E+02  0.47000000000E+01 0.  1.
         -5    1    1    2    0  502  0.39563148325E+02 -0.29380396041E+02 -0.33279812861E+03  0.33645970752E+03  0.47000000000E+01 0. -1.
        -11    1    1    2    0    0 -0.54621433509E+02  0.25364549550E+02 -0.88896062952E+02  0.10737491039E+03  0.00000000000E+00 0.  1.
         11    1    1    2    0    0  0.36135444988E+02  0.11111060891E+01 -0.68289143288E+02  0.77268441373E+02  0.00000000000E+00 0. -1.
<mgrwt>
<rscale>  0 0.11585989E+03</rscale>
<asrwt>0</asrwt>
<pdfrwt beam="2">  1        2 0.79795482E-01 0.12297897E+03</pdfrwt>
<pdfrwt beam="1">  1       -2 0.37848468E-02 0.12297897E+03</pdfrwt>
<totfact> 0.16706157E+04</totfact>
</mgrwt>
</event>
<event>
 6    1  0.4705246E-006  0.1806823E+03  0.7546771E-02  0.1172560E+00
         -1   -1    0    0    0  501 -0.00000000000E+00  0.00000000000E+00  0.75255409846E+02  0.75255409846E+02  0.00000000000E+00 0.  1.
          1   -1    0    0  501    0  0.00000000000E+00 -0.00000000000E+00 -0.53784172024E+03  0.53784172024E+03  0.00000000000E+00 0. -1.
          5    1    1    2  502    0 -0.75619752220E+02  0.38441371717E+02 -0.22724048006E+03  0.24260340427E+03  0.47000000000E+01 0.  1.
         -5    1    1    2    0  502  0.36467429135E+02  0.86011531380E+02 -0.17763079817E+03  0.20075519265E+03  0.47000000000E+01 0.  1.
        -11    1    1    2    0    0 -0.60870630380E+01 -0.10544543765E+03 -0.58344465373E+02  0.12066428344E+03  0.00000000000E+00 0. -1.
         11    1    1    2    0    0  0.45239386124E+02 -0.19007465448E+02  0.62943321620E+00  0.49074249722E+02  0.00000000000E+00 0.  1.
<mgrwt>
<rscale>  0 0.17517089E+03</rscale>
<asrwt>0</asrwt>
<pdfrwt beam="2">  1        1 0.82744878E-01 0.18068230E+03</pdfrwt>
<pdfrwt beam="1">  1       -1 0.11577756E-01 0.18068230E+03</pdfrwt>
<totfact> 0.19641186E+03</totfact>
</mgrwt>
</event>
<event>
 6    1  0.4705246E-006  0.1610019E+03  0.7546771E-02  0.1195337E+00
          1   -1    0    0  501    0  0.00000000000E+00  0.00000000000E+00  0.41061002206E+03  0.41061002206E+03  0.00000000000E+00 0. -1.
         -1   -1    0    0    0  501 -0.00000000000E+00 -0.00000000000E+00 -0.20659503875E+03  0.20659503875E+03  0.00000000000E+00 0.  1.
          5    1    1    2  502    0 -0.43698632355E+02  0.89506977670E+01  0.39925921536E+02  0.60048769103E+02  0.47000000000E+01 0.  1.
         -5    1    1    2    0  502 -0.11291548394E+02 -0.94236320233E+02  0.32966929590E+03  0.34309170462E+03  0.47000000000E+01 0.  1.
        -11    1    1    2    0    0  0.20873519335E+02  0.52300138886E+02 -0.18118022128E+02  0.59154636866E+02  0.00000000000E+00 0. -1.
         11    1    1    2    0    0  0.34116661414E+02  0.32985483580E+02 -0.14746221200E+03  0.15490995023E+03  0.00000000000E+00 0.  1.
<mgrwt>
<rscale>  0 0.15425728E+03</rscale>
<asrwt>0</asrwt>
<pdfrwt beam="1">  1        1 0.63170772E-01 0.16100192E+03</pdfrwt>
<pdfrwt beam="2">  1       -1 0.31783852E-01 0.16100192E+03</pdfrwt>
<totfact> 0.54625345E+02</totfact>
</mgrwt>
</event>
<event>
 6    1  0.4705246E-006  0.1232941E+03  0.7546771E-02  0.1253713E+00
          1   -1    0    0  501    0  0.00000000000E+00  0.00000000000E+00  0.10215907641E+04  0.10215907641E+04  0.00000000000E+00 0. -1.
         -1   -1    0    0    0  501 -0.00000000000E+00 -0.00000000000E+00 -0.19973738428E+02  0.19973738428E+02  0.00000000000E+00 0.  1.
          5    1    1    2  502    0 -0.51109644961E+02  0.46242678837E+02  0.39105513281E+03  0.39711054890E+03  0.47000000000E+01 0. -1.
         -5    1    1    2    0  502  0.41937301563E+02 -0.25756993408E+02  0.49909660791E+03  0.50153930454E+03  0.47000000000E+01 0.  1.
        -11    1    1    2    0    0 -0.32776982971E+02 -0.17964029792E+01  0.82062105006E+02  0.88384086545E+02  0.00000000000E+00 0. -1.
         11    1    1    2    0    0  0.41949326369E+02 -0.18689282450E+02  0.29403179977E+02  0.54530562568E+02  0.00000000000E+00 0.  1.
<mgrwt>
<rscale>  0 0.11378725E+03</rscale>
<asrwt>0</asrwt>
<pdfrwt beam="1">  1        1 0.15716777E+00 0.12329411E+03</pdfrwt>
<pdfrwt beam="2">  1       -1 0.30728836E-02 0.12329411E+03</pdfrwt>
<totfact> 0.54457938E+03</totfact>
</mgrwt>
</event>
<event>
 6    1  0.4705246E-006  0.1507939E+03  0.7546771E-02  0.1210577E+00
          2   -1    0    0  501    0  0.00000000000E+00  0.00000000000E+00  0.21911557324E+03  0.21911557324E+03  0.00000000000E+00 0. -1.
         -2   -1    0    0    0  501 -0.00000000000E+00 -0.00000000000E+00 -0.84372632898E+02  0.84372632898E+02  0.00000000000E+00 0.  1.
          5    1    1    2  502    0  0.17491666008E+02 -0.59838770214E+02  0.83607258958E+02  0.10439779955E+03  0.47000000000E+01 0. -1.
         -5    1    1    2    0  502  0.63363095764E+02  0.35820374811E+02  0.11384719467E+02  0.73821968232E+02  0.47000000000E+01 0. -1.
        -11    1    1    2    0    0 -0.66208422635E+02  0.92892841275E+01 -0.13414405554E+02  0.68189385566E+02  0.00000000000E+00 0.  1.
         11    1    1    2    0    0 -0.14646339136E+02  0.14729111276E+02  0.53165367470E+02  0.57079052789E+02  0.00000000000E+00 0. -1.
<mgrwt>
<rscale>  0 0.14206485E+03</rscale>
<asrwt>0</asrwt>
<pdfrwt beam="1">  1        2 0.33710088E-01 0.15079393E+03</pdfrwt>
<pdfrwt beam="2">  1       -2 0.12980405E-01 0.15079393E+03</pdfrwt>
<totfact> 0.64245809E+03</totfact>
</mgrwt>
</event>
<event>
 6    1  0.4705246E-006  0.1188929E+03  0.7546771E-02  0.1296164E+00
         -2   -1    0    0    0  501 -0.00000000000E+00  0.00000000000E+00  0.14847330551E+03  0.14847330551E+03  0.00000000000E+00 0.  1.
          2   -1    0    0  501    0  0.00000000000E+00 -0.00000000000E+00 -0.29822136130E+03  0.29822136130E+03  0.00000000000E+00 0. -1.
          5    1    1    2  502    0  0.49781604409E+02 -0.27818369078E+02 -0.15119772580E+03  0.16166295829E+03  0.47000000000E+01 0. -1.
         -5    1    1    2    0  502 -0.58763291406E+02  0.16208729609E+02 -0.13145694985E+03  0.14497885017E+03  0.47000000000E+01 0.  1.
        -11    1    1    2    0    0  0.79339045490E+01 -0.12727103635E+02  0.84955949210E+02  0.86269573516E+02  0.00000000000E+00 0. -1.
         11    1    1    2    0    0  0.10477824484E+01  0.24336743104E+02  0.47950670644E+02  0.53783284840E+02  0.00000000000E+00 0.  1.
<mgrwt>
<rscale>  0 0.92819459E+02</rscale>
<asrwt>0</asrwt>
<pdfrwt beam="2">  1        2 0.45880209E-01 0.11889295E+03</pdfrwt>
<pdfrwt beam="1">  1       -2 0.22842047E-01 0.11889295E+03</pdfrwt>
<totfact> 0.17879353E+03</totfact>
</mgrwt>
</event>
<event>
 6    1  0.4705246E-006  0.1346108E+03  0.7546771E-02  0.1231853E+00
         -1   -1    0    0    0  501 -0.00000000000E+00  0.00000000000E+00  0.62748808021E+02  0.62748808021E+02  0.00000000000E+00 0.  1.
          1   -1    0    0  501    0  0.00000000000E+00 -0.00000000000E+00 -0.24114417141E+03  0.24114417141E+03  0.00000000000E+00 0. -1.
          5    1    1    2  502    0 -0.97918103864E+01  0.91412085615E+01  0.31323218213E+02  0.34390045709E+02  0.47000000000E+01 0. -1.
         -5    1    1    2    0  502  0.58682469176E+02  0.11553977393E+01 -0.10168032403E+03  0.11749870394E+03  0.47000000000E+01 0. -1.
        -11    1    1    2    0    0  0.11168986161E+02 -0.11686214468E+02 -0.86788373396E+02  0.88281003717E+02  0.00000000000E+00 0. -1.
         11    1    1    2    0    0 -0.60059644950E+02  0.13896081671E+01 -0.21249884171E+02  0.63723226062E+02  0.00000000000E+00 0.  1.
<mgrwt>
<rscale>  0 0.12708084E+03</rscale>
<asrwt>0</asrwt>
<pdfrwt beam="2">  1        1 0.37099103E-01 0.13461081E+03</pdfrwt>
<pdfrwt beam="1">  1       -1 0.96536627E-02 0.13461081E+03</pdfrwt>
<totfact> 0.70718470E+03</totfact>
</mgrwt>
</event>
<event>
 6    1  0.4705246E-006  0.1648403E+03  0.7546771E-02  0.1192901E+00
          3   -1    0    0  501    0  0.00000000000E+00  0.00000000000E+00  0.73226605939E+02  0.73226605939E+02  0.00000000000E+00 0. -1.
         -3   -1    0    0    0  501 -0.00000000000E+00 -0.00000000000E+00 -0.30383033992E+03  0.30383033992E+03  0.00000000000E+00 0.  1.
          5    1    1    2  502    0 -0.20081829413E+02  0.50647268056E+02 -0.11435182682E+03  0.12675510219E+03  0.47000000000E+01 0.  1.
         -5    1    1    2    0  502  0.60547640526E+02  0.48903237893E+02 -0.76983584006E+01  0.78351121063E+02  0.47000000000E+01 0.  1.
        -11    1    1    2    0    0 -0.11521922307E+02 -0.56382154767E+02 -0.71320215250E+01  0.57987652141E+02  0.00000000000E+00 0. -1.
         11    1    1    2    0    0 -0.28943888807E+02 -0.43168351183E+02 -0.10142152723E+03  0.11396307046E+03  0.00000000000E+00 0.  1.
<mgrwt>
<rscale>  0 0.15633228E+03</rscale>
<asrwt>0</asrwt>
<pdfrwt beam="1">  1        3 0.11265632E-01 0.16484027E+03</pdfrwt>
<pdfrwt beam="2">  1       -3 0.46743130E-01 0.16484027E+03</pdfrwt>
<totfact> 0.65755115E+02</totfact>
</mgrwt>
</event>
<event>
 6    1  0.4705246E-006  0.1267712E+03  0.7546771E-02  0.1244407E+00
          1   -1    0    0  501    0  0.00000000000E+00  0.00000000000E+00  0.32248186733E+03  0.32248186733E+03  0.00000000000E+00 0. -1.
         -1   -1    0    0    0  501 -0.00000000000E+00 -0.00000000000E+00 -0.65228075340E+02  0.65228075340E+02  0.00000000000E+00 0.  1.
          5    1    1    2  502    0  0.27727391827E+02  0.35580289680E+02  0.25198599147E+03  0.25603475383E+03  0.47000000000E+01 0. -1.
         -5    1    1    2    0  502 -0.31330574480E+02  0.14678829942E+01  0.72429503927E+01  0.32531675458E+02  0.47000000000E+01 0.  1.
        -11    1    1    2    0    0 -0.16044550471E+02 -0.61776508304E+02 -0.14008411815E+02  0.65345238385E+02  0.00000000000E+00 0.  1.
         11    1    1    2    0    0  0.19647733124E+02  0.24728335630E+02  0.12033261944E+02  0.33798274999E+02  0.00000000000E+00 0. -1.
<mgrwt>
<rscale>  0 0.11920926E+03</rscale>
<asrwt>0</asrwt>
<pdfrwt beam="1">  1        1 0.49612594E-01 0.12677121E+03</pdfrwt>
<pdfrwt beam="2">  1       -1 0.10035089E-01 0.12677121E+03</pdfrwt>
<totfact> 0.46376673E+03</totfact>
</mgrwt>
</event>
<event>
 6    1  0.4705246E-006  0.3810296E+03  0.7546771E-02  0.1050554E+00
          1   -1    0    0  501    0  0.00000000000E+00  0.00000000000E+00  0.13184130744E+03  0.13184130744E+03  0.00000000000E+00 0. -1.
         -1   -1    0    0    0  501 -0.00000000000E+00 -0.00000000000E+00 -0.27529982898E+03  0.27529982898E+03  0.00000000000E+00 0.  1.
          5    1    1    2  502    0  0.10667429087E+03  0.42405577859E+02  0.74000525530E+02  0.13665944953E+03  0.47000000000E+01 0.  1.
         -5    1    1    2    0  502 -0.17983699385E+02 -0.13073938708E+02 -0.18146601145E+02  0.29081445116E+02  0.47000000000E+01 0.  1.
        -11    1    1    2    0    0 -0.74779575917E+02  0.12260172542E+02 -0.17624935917E+03  0.19184924658E+03  0.00000000000E+00 0.  1.
         11    1    1    2    0    0 -0.13911015571E+02 -0.41591811692E+02 -0.23063086753E+02  0.49550995193E+02  0.00000000000E+00 0. -1.
<mgrwt>
<rscale>  0 0.38102960E+03</rscale>
<asrwt>0</asrwt>
<pdfrwt beam="1">  1        1 0.20283278E-01 0.38102960E+03</pdfrwt>
<pdfrwt beam="2">  1       -1 0.42353820E-01 0.38102960E+03</pdfrwt>
<totfact> 0.14030422E+03</totfact>
</mgrwt>
</event>
<event>
 6    1  0.4705246E-006  0.4287609E+03  0.7546771E-02  0.1034252E+00
         -1   -1    0    0    0  501 -0.00000000000E+00  0.00000000000E+00  0.59849962280E+02  0.59849962280E+02  0.00000000000E+00 0.  1.
          1   -1    0    0  501    0  0.00000000000E+00 -0.00000000000E+00 -0.76790324368E+03  0.76790324368E+03  0.00000000000E+00 0. -1.
          5    1    1    2  502    0  0.14767171718E+03 -0.85234667367E+02 -0.49174998932E+03  0.52049210040E+03  0.47000000000E+01 0. -1.
         -5    1    1    2    0  502  0.52772643040E+01  0.37397736051E+01  0.66416530129E+01  0.10394083889E+02  0.47000000000E+01 0.  1.
        -11    1    1    2    0    0 -0.14205652093E+03  0.44971874514E+02 -0.13519216320E+03  0.20119504374E+03  0.00000000000E+00 0.  1.
         11    1    1    2    0    0 -0.10892460559E+02  0.36523019248E+02 -0.87752781885E+02  0.95671977928E+02  0.00000000000E+00 0. -1.
<mgrwt>
<rscale>  0 0.42876091E+03</rscale>
<asrwt>0</asrwt>
<pdfrwt beam="2">  1        1 0.11813895E+00 0.42876091E+03</pdfrwt>
<pdfrwt beam="1">  1       -1 0.92076870E-02 0.42876091E+03</pdfrwt>
<totfact> 0.17036776E+03</totfact>
</mgrwt>
</event>
<event>
 6    1  0.4705246E-006  0.1290768E+03  0.7546771E-02  0.1250680E+00
          2   -1    0    0  501    0  0.00000000000E+00  0.00000000000E+00  0.61171465860E+02  0.61171465860E+02  0.00000000000E+00 0.  1.
         -2   -1    0    0    0  501 -0.00000000000E+00 -0.00000000000E+00 -0.26780865653E+03  0.26780865653E+03  0.00000000000E+00 0. -1.
          5    1    1    2  502    0  0.50108400554E+02 -0.18407407517E+02 -0.41304421910E+01  0.53747883775E+02  0.47000000000E+01 0.  1.
         -5    1    1    2    0  502 -0.74409076371E+02 -0.27026106715E+01 -0.23860958564E+02  0.78329113964E+02  0.47000000000E+01 0.  1.
        -11    1    1    2    0    0  0.36809181413E+02 -0.29670898702E+01 -0.15944094439E+03  0.16366164550E+03  0.00000000000E+00 0. -1.
         11    1    1    2    0    0 -0.12508505596E+02  0.24077108059E+02 -0.19204845525E+02  0.33241479155E+02  0.00000000000E+00 0.  1.
<mgrwt>
<rscale>  0 0.11551784E+03</rscale>
<asrwt>0</asrwt>
<pdfrwt beam="1">  1        2 0.94109946E-02 0.12907678E+03</pdfrwt>
<pdfrwt beam="2">  1       -2 0.41201332E-01 0.12907678E+03</pdfrwt>
<totfact> 0.37076843E+03</totfact>
</mgrwt>
</event>
<event>
 6    1  0.4705246E-006  0.1883314E+03  0.7546771E-02  0.1164905E+00
         -1   -1    0    0    0  501 -0.00000000000E+00  0.00000000000E+00  0.98062163809E+02  0.98062163809E+02  0.00000000000E+00 0.  1.
          1   -1    0    0  501    0  0.00000000000E+00 -0.00000000000E+00 -0.32898234225E+03  0.32898234225E+03  0.00000000000E+00 0. -1.
          5    1    1    2  502    0  0.83983665329E+02  0.47886353949E+02 -0.63455132565E+02  0.11573678234E+03  0.47000000000E+01 0. -1.
         -5    1    1    2    0  502  0.54869603700E+02 -0.71605412810E+02 -0.85510275865E+02  0.12438691986E+03  0.47000000000E+01 0. -1.
        -11    1    1    2    0    0 -0.80390021151E+02  0.52495343402E+02 -0.74112956521E+02  0.12128910464E+03  0.00000000000E+00 0.  1.
         11    1    1    2    0    0 -0.58463247878E+02 -0.28776284541E+02 -0.78418134908E+01  0.65631699226E+02  0.00000000000E+00 0. -1.
<mgrwt>
<rscale>  0 0.18302777E+03</rscale>
<asrwt>0</asrwt>
<pdfrwt beam="2">  1        1 0.50612667E-01 0.18833136E+03</pdfrwt>
<pdfrwt beam="1">  1       -1 0.15086487E-01 0.18833136E+03</pdfrwt>
<totfact> 0.24459559E+03</totfact>
</mgrwt>
</event>
<event>
 6    1  0.4705246E-006  0.1580075E+03  0.7546771E-02  0.1198788E+00
          1   -1    0    0  501    0  0.00000000000E+00  0.00000000000E+00  0.44685564759E+03  0.44685564759E+03  0.00000000000E+00 0. -1.
         -1   -1    0    0    0  501 -0.00000000000E+00 -0.00000000000E+00 -0.48571473902E+02  0.48571473902E+02  0.00000000000E+00 0.  1.
          5    1    1    2  502    0  0.38224223831E+02 -0.51003164612E+02  0.69684666150E+02  0.94553988728E+02  0.47000000000E+01 0.  1.
         -5    1    1    2    0  502 -0.81237571206E+02 -0.35550157834E+02  0.18413710018E+03  0.20443071775E+03  0.47000000000E+01 0.  1.
        -11    1    1    2    0    0 -0.18508862034E+00 -0.14397851241E+02 -0.71372606057E+00  0.14416718873E+02  0.00000000000E+00 0.  1.
         11    1    1    2    0    0  0.43198435995E+02  0.10095117369E+03  0.14517613342E+03  0.18202569614E+03  0.00000000000E+00 0. -1.
<mgrwt>
<rscale>  0 0.15137945E+03</rscale>
<asrwt>0</asrwt>
<pdfrwt beam="1">  1        1 0.68747020E-01 0.15800749E+03</pdfrwt>
<pdfrwt beam="2">  1       -1 0.74725348E-02 0.15800749E+03</pdfrwt>
<totfact> 0.48672928E+03</totfact>
</mgrwt>
</event>
<event>
 6    1  0.4705246E-006  0.1785468E+03  0.7546771E-02  0.1191969E+00
          2   -1    0    0  501    0  0.00000000000E+00  0.00000000000E+00  0.81646320604E+03  0.81646320604E+03  0.00000000000E+00 0. -1.
         -2   -1    0    0    0  501 -0.00000000000E+00 -0.00000000000E+00 -0.34601073551E+02  0.34601073551E+02  0.00000000000E+00 0.  1.
          5    1    1    2  502    0  0.24105872328E+02  0.92098390878E+02  0.47519023504E+03  0.48465560572E+03  0.47000000000E+01 0. -1.
         -5    1    1    2    0  502 -0.55450499412E+02 -0.51587401726E+02  0.20552333503E+03  0.21908434254E+03  0.47000000000E+01 0.  1.
        -11    1    1    2    0    0 -0.69000084391E+01 -0.55970312094E+02  0.27114966885E+02  0.62574015226E+02  0.00000000000E+00 0.  1.
         11    1    1    2    0    0  0.38244635524E+02  0.15459322942E+02  0.74033595530E+02  0.84750316101E+02  0.00000000000E+00 0. -1.
<mgrwt>
<rscale>  0 0.15713598E+03</rscale>
<asrwt>0</asrwt>
<pdfrwt beam="1">  1        2 0.12560971E+00 0.17854677E+03</pdfrwt>
<pdfrwt beam="2">  1       -2 0.53232427E-02 0.17854677E+03</pdfrwt>
<totfact> 0.60301931E+03</totfact>
</mgrwt>
</event>
<event>
 6    1  0.4705246E-006  0.2321799E+03  0.7546771E-02  0.1146748E+00
          3   -1    0    0  501    0  0.00000000000E+00  0.00000000000E+00  0.89992777259E+02  0.89992777259E+02  0.00000000000E+00 0. -1.
         -3   -1    0    0    0  501 -0.00000000000E+00 -0.00000000000E+00 -0.38747719674E+03  0.38747719674E+03  0.00000000000E+00 0.  1.
          5    1    1    2  502    0  0.60303392090E+02  0.65483124943E+02 -0.48312395236E+02  0.10139386709E+03  0.47000000000E+01 0. -1.
         -5    1    1    2    0  502 -0.13500185465E+03  0.97373542679E+00 -0.17169463497E+03  0.21846644272E+03  0.47000000000E+01 0.  1.
        -11    1    1    2    0    0  0.51551547413E+02  0.70149822633E+01 -0.57311382702E+01  0.52341359962E+02  0.00000000000E+00 0. -1.
         11    1    1    2    0    0  0.23146915148E+02 -0.73471842633E+02 -0.71746251009E+02  0.10526830423E+03  0.00000000000E+00 0.  1.
<mgrwt>
<rscale>  0 0.20358606E+03</rscale>
<asrwt>0</asrwt>
<pdfrwt beam="1">  1        3 0.13845043E-01 0.23217994E+03</pdfrwt>
<pdfrwt beam="2">  1       -3 0.59611877E-01 0.23217994E+03</pdfrwt>
<totfact> 0.29493426E+02</totfact>
</mgrwt>
</event>
<event>
 6    1  0.4705246E-006  0.3077480E+03  0.7546771E-02  0.1081430E+00
         -2   -1    0    0    0  501 -0.00000000000E+00  0.00000000000E+00  0.35712822001E+02  0.35712822001E+02  0.00000000000E+00 0. -1.
          2   -1    0    0  501    0  0.00000000000E+00 -0.00000000000E+00 -0.66298885149E+03  0.66298885149E+03  0.00000000000E+00 0.  1.
          5    1    1    2  502    0 -0.47261500067E+01  0.70528258676E+01  0.67606998788E+01  0.11826914621E+02  0.47000000000E+01 0. -1.
         -5    1    1    2    0  502 -0.93032042620E+02 -0.81209405076E+01 -0.43335150824E+03  0.44332440754E+03  0.47000000000E+01 0. -1.
        -11    1    1    2    0    0  0.96278198809E+01  0.28851805890E+02 -0.10627095687E+02  0.32218888583E+02  0.00000000000E+00 0. -1.
         11    1    1    2    0    0  0.88130372746E+02 -0.27783691250E+02 -0.19005812544E+03  0.21133146274E+03  0.00000000000E+00 0.  1.
<mgrwt>
<rscale>  0 0.30774797E+03</rscale>
<asrwt>0</asrwt>
<pdfrwt beam="2">  1        2 0.10199827E+00 0.30774797E+03</pdfrwt>
<pdfrwt beam="1">  1       -2 0.54942808E-02 0.30774797E+03</pdfrwt>
<totfact> 0.75981456E+03</totfact>
</mgrwt>
</event>
<event>
 6    1  0.4705246E-006  0.1189108E+03  0.7546771E-02  0.1272050E+00
          1   -1    0    0  501    0  0.00000000000E+00  0.00000000000E+00  0.28734945169E+03  0.28734945169E+03  0.00000000000E+00 0. -1.
         -1   -1    0    0    0  501 -0.00000000000E+00 -0.00000000000E+00 -0.38738860025E+02  0.38738860025E+02  0.00000000000E+00 0.  1.
          5    1    1    2  502    0 -0.16292869719E+02  0.54985324343E+02  0.64392741478E+02  0.86355999513E+02  0.47000000000E+01 0. -1.
         -5    1    1    2    0  502  0.18370996446E+02 -0.46899323865E+02  0.15701068804E+03  0.16495904415E+03  0.47000000000E+01 0.  1.
        -11    1    1    2    0    0  0.32353434886E+02 -0.85226837283E+01  0.50753846229E+01  0.33839923403E+02  0.00000000000E+00 0.  1.
         11    1    1    2    0    0 -0.34431561614E+02  0.43668324990E+00  0.22131777524E+02  0.40933344644E+02  0.00000000000E+00 0. -1.
<mgrwt>
<rscale>  0 0.10402620E+03</rscale>
<asrwt>0</asrwt>
<pdfrwt beam="1">  1        1 0.44207607E-01 0.11891078E+03</pdfrwt>
<pdfrwt beam="2">  1       -1 0.59598248E-02 0.11891078E+03</pdfrwt>
<totfact> 0.11647784E+04</totfact>
</mgrwt>
</event>
<event>
 6    1  0.4705246E-006  0.1549715E+03  0.7546771E-02  0.1202006E+00
          1   -1    0    0  501    0  0.00000000000E+00  0.00000000000E+00  0.24403878048E+03  0.24403878048E+03  0.00000000000E+00 0. -1.
         -1   -1    0    0    0  501 -0.00000000000E+00 -0.00000000000E+00 -0.96901415332E+02  0.96901415332E+02  0.00000000000E+00 0.  1.
          5    1    1    2  502    0 -0.35701512751E+02  0.86068773034E+02  0.34679270831E+02  0.99534785526E+02  0.47000000000E+01 0.  1.
         -5    1    1    2    0  502 -0.23321513441E+02 -0.16019106369E+02  0.10584437648E+03  0.10966141887E+03  0.47000000000E+01 0.  1.
        -11    1    1    2    0    0  0.32899443569E+02  0.18963072481E+02  0.86853269725E+01  0.38953901085E+02  0.00000000000E+00 0. -1.
         11    1    1    2    0    0  0.26123582623E+02 -0.89012739147E+02 -0.20716091268E+01  0.92790090332E+02  0.00000000000E+00 0.  1.
<mgrwt>
<rscale>  0 0.14875944E+03</rscale>
<asrwt>0</asrwt>
<pdfrwt beam="1">  1        1 0.37544427E-01 0.15497147E+03</pdfrwt>
<pdfrwt beam="2">  1       -1 0.14907910E-01 0.15497147E+03</pdfrwt>
<totfact> 0.35882044E+03</totfact>
</mgrwt>
</event>
<event>
 6    1  0.4705246E-006  0.1441356E+03  0.7546771E-02  0.1213846E+00
          2   -1    0    0  501    0  0.00000000000E+00  0.00000000000E+00  0.21512246356E+03  0.21512246356E+03  0.00000000000E+00 0. -1.
         -2   -1    0    0    0  501 -0.00000000000E+00 -0.00000000000E+00 -0.85939933919E+02  0.85939933919E+02  0.00000000000E+00 0.  1.
          5    1    1    2  502    0  0.51542763005E+02 -0.43373006133E+02  0.19094874348E+02  0.70175339726E+02  0.47000000000E+01 0. -1.
         -5    1    1    2    0  502  0.14869195740E+02  0.70579188071E+02  0.61864128560E+02  0.95140817598E+02  0.47000000000E+01 0. -1.
        -11    1    1    2    0    0 -0.55247133899E+02 -0.64299071956E+02  0.47129932116E+02  0.96994056311E+02  0.00000000000E+00 0. -1.
         11    1    1    2    0    0 -0.11164824846E+02  0.37092890019E+02  0.10935946213E+01  0.38752183848E+02  0.00000000000E+00 0.  1.
<mgrwt>
<rscale>  0 0.13961653E+03</rscale>
<asrwt>0</asrwt>
<pdfrwt beam="1">  1        2 0.33095764E-01 0.14413560E+03</pdfrwt>
<pdfrwt beam="2">  1       -2 0.13221528E-01 0.14413560E+03</pdfrwt>
<totfact> 0.63428146E+03</totfact>
</mgrwt>
</event>
<event>
 6    1  0.4705246E-006  0.2506613E+03  0.7546771E-02  0.1112888E+00
          2   -1    0    0  501    0  0.00000000000E+00  0.00000000000E+00  0.12773799295E+03  0.12773799295E+03  0.00000000000E+00 0. -1.
         -2   -1    0    0    0  501 -0.00000000000E+00 -0.00000000000E+00 -0.12296865453E+03  0.12296865453E+03  0.00000000000E+00 0.  1.
          5    1    1    2  502    0 -0.16450028759E+01  0.57692282375E+02  0.61683324729E+02  0.84605130044E+02  0.47000000000E+01 0. -1.
         -5    1    1    2    0  502  0.12534564737E+02  0.49307539599E+01 -0.53940402380E+02  0.55795023583E+02  0.47000000000E+01 0. -1.
        -11    1    1    2    0    0  0.90256224482E+01 -0.21502992678E+02  0.40824368738E+02  0.47015631842E+02  0.00000000000E+00 0. -1.
         11    1    1    2    0    0 -0.19915184310E+02 -0.41120043658E+02 -0.43797952665E+02  0.63290862012E+02  0.00000000000E+00 0.  1.
<mgrwt>
<rscale>  0 0.25066128E+03</rscale>
<asrwt>0</asrwt>
<pdfrwt beam="1">  1        2 0.19651999E-01 0.25066128E+03</pdfrwt>
<pdfrwt beam="2">  1       -2 0.18918255E-01 0.25066128E+03</pdfrwt>
<totfact> 0.64681430E+03</totfact>
</mgrwt>
</event>
<event>
 6    1  0.4705246E-006  0.3166412E+03  0.7546771E-02  0.1077206E+00
         -2   -1    0    0    0  501 -0.00000000000E+00  0.00000000000E+00  0.20554946384E+02  0.20554946384E+02  0.00000000000E+00 0.  1.
          2   -1    0    0  501    0  0.00000000000E+00 -0.00000000000E+00 -0.12194345678E+04  0.12194345678E+04  0.00000000000E+00 0. -1.
          5    1    1    2  502    0  0.32359254890E+02 -0.34912608875E+00 -0.98587820593E+02  0.10386958956E+03  0.47000000000E+01 0. -1.
         -5    1    1    2    0  502 -0.77177514201E+02  0.37397089598E+02 -0.92097670706E+03  0.92497302444E+03  0.47000000000E+01 0. -1.
        -11    1    1    2    0    0  0.40037932966E+02  0.87060495225E+01 -0.20524296227E+02  0.45826609193E+02  0.00000000000E+00 0.  1.
         11    1    1    2    0    0  0.47803263440E+01 -0.45754013032E+02 -0.15879079753E+03  0.16532029098E+03  0.00000000000E+00 0. -1.
<mgrwt>
<rscale>  0 0.31664120E+03</rscale>
<asrwt>0</asrwt>
<pdfrwt beam="2">  1        2 0.18760533E+00 0.31664120E+03</pdfrwt>
<pdfrwt beam="1">  1       -2 0.31622993E-02 0.31664120E+03</pdfrwt>
<totfact> 0.76441160E+03</totfact>
</mgrwt>
</event>
<event>
 6    1  0.4705246E-006  0.1373094E+03  0.7546771E-02  0.1229876E+00
          1   -1    0    0  501    0  0.00000000000E+00  0.00000000000E+00  0.50190703335E+03  0.50190703335E+03  0.00000000000E+00 0. -1.
         -1   -1    0    0    0  501 -0.00000000000E+00 -0.00000000000E+00 -0.29235769809E+02  0.29235769809E+02  0.00000000000E+00 0.  1.
          5    1    1    2  502    0 -0.84774550924E+02 -0.22074149430E+01  0.10047578795E+03  0.13156394312E+03  0.47000000000E+01 0. -1.
         -5    1    1    2    0  502  0.28177632994E+02 -0.77267031905E+00  0.16359401599E+03  0.16607127412E+03  0.47000000000E+01 0. -1.
        -11    1    1    2    0    0  0.15600494695E+02 -0.17575438614E+02  0.40113513162E+01  0.23840352694E+02  0.00000000000E+00 0.  1.
         11    1    1    2    0    0  0.40996423235E+02  0.20555523876E+02  0.20459010829E+03  0.20966723323E+03  0.00000000000E+00 0. -1.
<mgrwt>
<rscale>  0 0.12838213E+03</rscale>
<asrwt>0</asrwt>
<pdfrwt beam="1">  1        1 0.77216460E-01 0.13730936E+03</pdfrwt>
<pdfrwt beam="2">  1       -1 0.44978111E-02 0.13730936E+03</pdfrwt>
<totfact> 0.88539389E+03</totfact>
</mgrwt>
</event>
<event>
 6    1  0.4705246E-006  0.1400896E+03  0.7546771E-02  0.1224879E+00
          2   -1    0    0  501    0  0.00000000000E+00  0.00000000000E+00  0.29089856033E+03  0.29089856033E+03  0.00000000000E+00 0. -1.
         -2   -1    0    0    0  501 -0.00000000000E+00 -0.00000000000E+00 -0.56574775963E+02  0.56574775963E+02  0.00000000000E+00 0.  1.
          5    1    1    2  502    0 -0.66863351255E+02 -0.31553263865E+02  0.54123388311E+02  0.91748282620E+02  0.47000000000E+01 0.  1.
         -5    1    1    2    0  502  0.80183664397E+01  0.54719671519E+02  0.11627883472E+03  0.12884639714E+03  0.47000000000E+01 0.  1.
        -11    1    1    2    0    0  0.69352672839E+02 -0.36792423189E+02  0.21952601282E+02  0.81519275862E+02  0.00000000000E+00 0.  1.
         11    1    1    2    0    0 -0.10507688024E+02  0.13626015534E+02  0.41968960057E+02  0.45359380675E+02  0.00000000000E+00 0. -1.
<mgrwt>
<rscale>  0 0.13175204E+03</rscale>
<asrwt>0</asrwt>
<pdfrwt beam="1">  1        2 0.44753624E-01 0.14008960E+03</pdfrwt>
<pdfrwt beam="2">  1       -2 0.87038119E-02 0.14008960E+03</pdfrwt>
<totfact> 0.88924503E+03</totfact>
</mgrwt>
</event>
<event>
 6    1  0.4705246E-006  0.1457927E+03  0.7546771E-02  0.1215304E+00
         -2   -1    0    0    0  501 -0.00000000000E+00  0.00000000000E+00  0.12714755261E+02  0.12714755261E+02  0.00000000000E+00 0.  1.
          2   -1    0    0  501    0  0.00000000000E+00 -0.00000000000E+00 -0.21209893068E+04  0.21209893068E+04  0.00000000000E+00 0. -1.
          5    1    1    2  502    0 -0.75353845175E+01  0.28701626430E+02 -0.97019704108E+02  0.10156514345E+03  0.47000000000E+01 0. -1.
         -5    1    1    2    0  502  0.69011063850E+02  0.14331636293E+02 -0.16562733200E+04  0.16577790333E+04  0.47000000000E+01 0. -1.
        -11    1    1    2    0    0  0.68086322205E+01  0.21376271430E+02 -0.10416458925E+03  0.10655310463E+03  0.00000000000E+00 0. -1.
         11    1    1    2    0    0 -0.68284311553E+02 -0.64409534153E+02 -0.25081693820E+03  0.26780678069E+03  0.00000000000E+00 0.  1.
<mgrwt>
<rscale>  0 0.13854242E+03</rscale>
<asrwt>0</asrwt>
<pdfrwt beam="2">  1        2 0.32630561E+00 0.14579267E+03</pdfrwt>
<pdfrwt beam="1">  1       -2 0.19561188E-02 0.14579267E+03</pdfrwt>
<totfact> 0.51020015E+03</totfact>
</mgrwt>
</event>
<event>
 6    1  0.4705246E-006  0.1123814E+03  0.7546771E-02  0.1265772E+00
          1   -1    0    0  501    0  0.00000000000E+00  0.00000000000E+00  0.10610103620E+04  0.10610103620E+04  0.00000000000E+00 0. -1.
         -1   -1    0    0    0  501 -0.00000000000E+00 -0.00000000000E+00 -0.21300255342E+02  0.21300255342E+02  0.00000000000E+00 0.  1.
          5    1    1    2  502    0 -0.93711363961E+01 -0.55129224035E+02  0.62119271671E+03  0.62372231869E+03  0.47000000000E+01 0. -1.
         -5    1    1    2    0  502 -0.11004147875E+02  0.50168150571E+02  0.31548112038E+03  0.31966914446E+03  0.47000000000E+01 0.  1.
        -11    1    1    2    0    0  0.17094943982E+02 -0.26688369932E+02  0.64790383971E+00  0.31700567483E+02  0.00000000000E+00 0.  1.
         11    1    1    2    0    0  0.32803402893E+01  0.31649443396E+02  0.10238836574E+03  0.10721858672E+03  0.00000000000E+00 0. -1.
<mgrwt>
<rscale>  0 0.10723798E+03</rscale>
<asrwt>0</asrwt>
<pdfrwt beam="1">  1        1 0.16323232E+00 0.11238138E+03</pdfrwt>
<pdfrwt beam="2">  1       -1 0.32769632E-02 0.11238138E+03</pdfrwt>
<totfact> 0.46301525E+03</totfact>
</mgrwt>
</event>
<event>
 6    1  0.4705246E-006  0.1278406E+03  0.7546771E-02  0.1244094E+00
         -2   -1    0    0    0  501 -0.00000000000E+00  0.00000000000E+00  0.11228792559E+02  0.11228792559E+02  0.00000000000E+00 0.  1.
          2   -1    0    0  501    0  0.00000000000E+00 -0.00000000000E+00 -0.11639110799E+04  0.11639110799E+04  0.00000000000E+00 0. -1.
          5    1    1    2  502    0  0.54364329039E+01 -0.75237833118E+02 -0.52356476573E+03  0.52899190944E+03  0.47000000000E+01 0.  1.
         -5    1    1    2    0  502 -0.94466814999E+01  0.48744181467E+02 -0.23061175287E+03  0.23594301341E+03  0.47000000000E+01 0.  1.
        -11    1    1    2    0    0  0.46994669986E+02  0.26218841397E+02 -0.24133773661E+03  0.24726469575E+03  0.00000000000E+00 0. -1.
         11    1    1    2    0    0 -0.42984421390E+02  0.27481025422E+00 -0.15716803209E+03  0.16294025381E+03  0.00000000000E+00 0.  1.
<mgrwt>
<rscale>  0 0.11939747E+03</rscale>
<asrwt>0</asrwt>
<pdfrwt beam="2">  1        2 0.17906318E+00 0.12784058E+03</pdfrwt>
<pdfrwt beam="1">  1       -2 0.17275071E-02 0.12784058E+03</pdfrwt>
<totfact> 0.19180675E+04</totfact>
</mgrwt>
</event>
<event>
 6    1  0.4705246E-006  0.1485026E+03  0.7546771E-02  0.1211787E+00
         -2   -1    0    0    0  501 -0.00000000000E+00  0.00000000000E+00  0.35776297252E+02  0.35776297252E+02  0.00000000000E+00 0.  1.
          2   -1    0    0  501    0  0.00000000000E+00 -0.00000000000E+00 -0.63197591017E+03  0.63197591017E+03  0.00000000000E+00 0. -1.
          5    1    1    2  502    0 -0.70953914581E+01 -0.82435596558E+02 -0.25567217713E+03  0.26876816091E+03  0.47000000000E+01 0. -1.
         -5    1    1    2    0  502 -0.56283746214E+02  0.33325404042E+02 -0.21375203811E+03  0.22358547905E+03  0.47000000000E+01 0. -1.
        -11    1    1    2    0    0  0.21420648578E+01 -0.24867982605E+02 -0.30545531137E+02  0.39446602809E+02  0.00000000000E+00 0.  1.
         11    1    1    2    0    0  0.61237072814E+02  0.73978175121E+02 -0.96229866543E+02  0.13595196466E+03  0.00000000000E+00 0. -1.
<mgrwt>
<rscale>  0 0.14115232E+03</rscale>
<asrwt>0</asrwt>
<pdfrwt beam="2">  1        2 0.97227060E-01 0.14850257E+03</pdfrwt>
<pdfrwt beam="1">  1       -2 0.55040459E-02 0.14850257E+03</pdfrwt>
<totfact> 0.77415117E+03</totfact>
</mgrwt>
</event>
<event>
 6    1  0.4705246E-006  0.1605262E+03  0.7546771E-02  0.1195871E+00
          2   -1    0    0  501    0  0.00000000000E+00  0.00000000000E+00  0.11877232311E+04  0.11877232311E+04  0.00000000000E+00 0. -1.
         -2   -1    0    0    0  501 -0.00000000000E+00 -0.00000000000E+00 -0.23050845608E+02  0.23050845608E+02  0.00000000000E+00 0.  1.
          5    1    1    2  502    0 -0.69589951746E+02 -0.75089122308E+02  0.44292088924E+03  0.45462307662E+03  0.47000000000E+01 0.  1.
         -5    1    1    2    0  502  0.43037042151E+02 -0.22059949778E+02  0.44968443806E+03  0.45230190384E+03  0.47000000000E+01 0.  1.
        -11    1    1    2    0    0  0.28119809577E+02 -0.67647265164E+01  0.38056928974E+02  0.47799739104E+02  0.00000000000E+00 0.  1.
         11    1    1    2    0    0 -0.15668999826E+01  0.10391379860E+03  0.23401012919E+03  0.25604935712E+03  0.00000000000E+00 0. -1.
<mgrwt>
<rscale>  0 0.15380732E+03</rscale>
<asrwt>0</asrwt>
<pdfrwt beam="1">  1        2 0.18272660E+00 0.16052617E+03</pdfrwt>
<pdfrwt beam="2">  1       -2 0.35462849E-02 0.16052617E+03</pdfrwt>
<totfact> 0.65719397E+03</totfact>
</mgrwt>
</event>
<event>
 6    1  0.4705246E-006  0.2845571E+03  0.7546771E-02  0.1093226E+00
          1   -1    0    0  501    0  0.00000000000E+00  0.00000000000E+00  0.14900729726E+03  0.14900729726E+03  0.00000000000E+00 0. -1.
         -1   -1    0    0    0  501 -0.00000000000E+00 -0.00000000000E+00 -0.13585360864E+03  0.13585360864E+03  0.00000000000E+00 0.  1.
          5    1    1    2  502    0  0.66362507091E+01  0.11946485866E+03 -0.84048600682E+01  0.12003592775E+03  0.47000000000E+01 0.  1.
         -5    1    1    2    0  502 -0.29028204868E+01 -0.27793507685E+02  0.21487086809E+02  0.35562484949E+02  0.47000000000E+01 0.  1.
        -11    1    1    2    0    0 -0.32954635173E+02 -0.34194067744E+02  0.32046665724E+02  0.57290758699E+02  0.00000000000E+00 0. -1.
         11    1    1    2    0    0  0.29221204950E+02 -0.57477283234E+02 -0.31975203843E+02  0.71971734504E+02  0.00000000000E+00 0.  1.
<mgrwt>
<rscale>  0 0.28455705E+03</rscale>
<asrwt>0</asrwt>
<pdfrwt beam="1">  1        1 0.22924200E-01 0.28455705E+03</pdfrwt>
<pdfrwt beam="2">  1       -1 0.20900555E-01 0.28455705E+03</pdfrwt>
<totfact> 0.39946462E+03</totfact>
</mgrwt>
</event>
<event>
 6    1  0.4705246E-006  0.1663805E+03  0.7546771E-02  0.1188321E+00
          1   -1    0    0  501    0  0.00000000000E+00  0.00000000000E+00  0.80996597991E+03  0.80996597991E+03  0.00000000000E+00 0. -1.
         -1   -1    0    0    0  501 -0.00000000000E+00 -0.00000000000E+00 -0.49307607612E+02  0.49307607612E+02  0.00000000000E+00 0.  1.
          5    1    1    2  502    0  0.85178688422E+02 -0.56318975796E+02  0.52396728706E+03  0.53384552438E+03  0.47000000000E+01 0.  1.
         -5    1    1    2    0  502 -0.36668574103E+02 -0.42184844660E+02  0.14419223697E+03  0.15471792607E+03  0.47000000000E+01 0.  1.
        -11    1    1    2    0    0 -0.51618778861E+02  0.11313500940E+02  0.17520258250E+02  0.55672731959E+02  0.00000000000E+00 0.  1.
         11    1    1    2    0    0  0.31086645412E+01  0.87190319517E+02  0.74978590021E+02  0.11503740511E+03  0.00000000000E+00 0. -1.
<mgrwt>
<rscale>  0 0.16033307E+03</rscale>
<asrwt>0</asrwt>
<pdfrwt beam="1">  1        1 0.12461014E+00 0.16638051E+03</pdfrwt>
<pdfrwt beam="2">  1       -1 0.75857864E-02 0.16638051E+03</pdfrwt>
<totfact> 0.20942061E+03</totfact>
</mgrwt>
</event>
<event>
 6    1  0.4705246E-006  0.1307009E+03  0.7546771E-02  0.1239424E+00
         -1   -1    0    0    0  501 -0.00000000000E+00  0.00000000000E+00  0.90098778076E+02  0.90098778076E+02  0.00000000000E+00 0.  1.
          1   -1    0    0  501    0  0.00000000000E+00 -0.00000000000E+00 -0.15297330940E+03  0.15297330940E+03  0.00000000000E+00 0. -1.
          5    1    1    2  502    0  0.67444771421E+02  0.32504921747E+02 -0.87484773881E+01  0.75524783921E+02  0.47000000000E+01 0. -1.
         -5    1    1    2    0  502 -0.29355399765E+02 -0.35400102974E+02 -0.49002362519E+02  0.67366373796E+02  0.47000000000E+01 0. -1.
        -11    1    1    2    0    0 -0.16986878432E+02 -0.40503983514E+02  0.16995687260E+02  0.47095436136E+02  0.00000000000E+00 0.  1.
         11    1    1    2    0    0 -0.21102493224E+02  0.43399164741E+02 -0.22119378681E+02  0.53085493628E+02  0.00000000000E+00 0. -1.
<mgrwt>
<rscale>  0 0.12225398E+03</rscale>
<asrwt>0</asrwt>
<pdfrwt beam="2">  1        1 0.23534355E-01 0.13070089E+03</pdfrwt>
<pdfrwt beam="1">  1       -1 0.13861351E-01 0.13070089E+03</pdfrwt>
<totfact> 0.71279020E+03</totfact>
</mgrwt>
</event>
<event>
 6    1  0.4705246E-006  0.2592336E+03  0.7546771E-02  0.1109833E+00
          1   -1    0    0  501    0  0.00000000000E+00  0.00000000000E+00  0.76100871354E+03  0.76100871354E+03  0.00000000000E+00 0. -1.
         -1   -1    0    0    0  501 -0.00000000000E+00 -0.00000000000E+00 -0.10002982119E+03  0.10002982119E+03  0.00000000000E+00 0.  1.
          5    1    1    2  502    0  0.77259363492E+02  0.43081323929E+02  0.33929653112E+03  0.35066969608E+03  0.47000000000E+01 0.  1.
         -5    1    1    2    0  502  0.95320658589E+02  0.10469698736E+03  0.17403503483E+03  0.22440537085E+03  0.47000000000E+01 0.  1.
        -11    1    1    2    0    0 -0.85830475232E+02 -0.16454313302E+02  0.48522707943E+02  0.99960332587E+02  0.00000000000E+00 0.  1.
         11    1    1    2    0    0 -0.86749546849E+02 -0.13132399799E+03  0.99124618455E+02  0.18600313522E+03  0.00000000000E+00 0. -1.
<mgrwt>
<rscale>  0 0.25557303E+03</rscale>
<asrwt>0</asrwt>
<pdfrwt beam="1">  1        1 0.11707826E+00 0.25923355E+03</pdfrwt>
<pdfrwt beam="2">  1       -1 0.15389204E-01 0.25923355E+03</pdfrwt>
<totfact> 0.77011588E+02</totfact>
</mgrwt>
</event>
<event>
 6    1  0.4705246E-006  0.1499953E+03  0.7546771E-02  0.1209410E+00
          2   -1    0    0  501    0  0.00000000000E+00  0.00000000000E+00  0.43912392256E+03  0.43912392256E+03  0.00000000000E+00 0. -1.
         -2   -1    0    0    0  501 -0.00000000000E+00 -0.00000000000E+00 -0.44977324782E+02  0.44977324782E+02  0.00000000000E+00 0.  1.
          5    1    1    2  502    0 -0.26881774252E+02  0.41206480506E+01  0.14488830014E+01  0.27636909907E+02  0.47000000000E+01 0. -1.
         -5    1    1    2    0  502  0.27483367509E+02  0.78788819601E+02  0.26822858679E+03  0.28094782141E+03  0.47000000000E+01 0. -1.
        -11    1    1    2    0    0 -0.36296017192E+02 -0.75018583757E+02  0.64911558807E+02  0.10563474447E+03  0.00000000000E+00 0.  1.
         11    1    1    2    0    0  0.35694423934E+02 -0.78908838946E+01  0.59557569178E+02  0.69881771550E+02  0.00000000000E+00 0. -1.
<mgrwt>
<rscale>  0 0.14295276E+03</rscale>
<asrwt>0</asrwt>
<pdfrwt beam="1">  1        2 0.67557524E-01 0.14999533E+03</pdfrwt>
<pdfrwt beam="2">  1       -2 0.69195887E-02 0.14999533E+03</pdfrwt>
<totfact> 0.82025820E+03</totfact>
</mgrwt>
</event>
<event>
 6    1  0.4705246E-006  0.1270689E+03  0.7546771E-02  0.1246220E+00
         -1   -1    0    0    0  501 -0.00000000000E+00  0.00000000000E+00  0.74124721703E+02  0.74124721703E+02  0.00000000000E+00 0.  1.
          1   -1    0    0  501    0  0.00000000000E+00 -0.00000000000E+00 -0.16675518913E+03  0.16675518913E+03  0.00000000000E+00 0. -1.
          5    1    1    2  502    0 -0.14249928310E+02 -0.65525128642E+02 -0.32986641422E+02  0.74878644838E+02  0.47000000000E+01 0. -1.
         -5    1    1    2    0  502 -0.76602000273E+01  0.59149481182E+02 -0.27048720521E+02  0.65658686177E+02  0.47000000000E+01 0. -1.
        -11    1    1    2    0    0  0.42818397401E+02 -0.62980839350E+01 -0.53050354946E+02  0.68464744045E+02  0.00000000000E+00 0. -1.
         11    1    1    2    0    0 -0.20908269064E+02  0.12673731395E+02  0.20455249465E+02  0.31877835770E+02  0.00000000000E+00 0.  1.
<mgrwt>
<rscale>  0 0.11812641E+03</rscale>
<asrwt>0</asrwt>
<pdfrwt beam="2">  1        1 0.25654644E-01 0.12706887E+03</pdfrwt>
<pdfrwt beam="1">  1       -1 0.11403803E-01 0.12706887E+03</pdfrwt>
<totfact> 0.86306067E+03</totfact>
</mgrwt>
</event>
<event>
 6    1  0.4705246E-006  0.1287145E+03  0.7546771E-02  0.1243337E+00
          1   -1    0    0  501    0  0.00000000000E+00  0.00000000000E+00  0.80510304949E+03  0.80510304949E+03  0.00000000000E+00 0. -1.
         -1   -1    0    0    0  501 -0.00000000000E+00 -0.00000000000E+00 -0.16125744342E+02  0.16125744342E+02  0.00000000000E+00 0.  1.
          5    1    1    2  502    0 -0.57292486078E+02  0.13683301795E+02  0.15237147293E+03  0.16342832519E+03  0.47000000000E+01 0. -1.
         -5    1    1    2    0  502  0.57152158740E+02  0.17004456062E+02  0.35569619228E+03  0.36069016063E+03  0.47000000000E+01 0. -1.
        -11    1    1    2    0    0 -0.11371265075E+02 -0.60751572161E+02  0.21580584265E+03  0.22448211713E+03  0.00000000000E+00 0.  1.
         11    1    1    2    0    0  0.11511592414E+02  0.30063814304E+02  0.65103797293E+02  0.72628190893E+02  0.00000000000E+00 0. -1.
<mgrwt>
<rscale>  0 0.11985473E+03</rscale>
<asrwt>0</asrwt>
<pdfrwt beam="1">  1        1 0.12386198E+00 0.12871455E+03</pdfrwt>
<pdfrwt beam="2">  1       -1 0.24808844E-02 0.12871455E+03</pdfrwt>
<totfact> 0.10890650E+04</totfact>
</mgrwt>
</event>
<event>
 6    1  0.4705246E-006  0.1258850E+03  0.7546771E-02  0.1249390E+00
          1   -1    0    0  501    0  0.00000000000E+00  0.00000000000E+00  0.30657668234E+02  0.30657668234E+02  0.00000000000E+00 0. -1.
         -1   -1    0    0    0  501 -0.00000000000E+00 -0.00000000000E+00 -0.39288282388E+03  0.39288282388E+03  0.00000000000E+00 0.  1.
          5    1    1    2  502    0  0.42645779217E+02  0.23969095966E+02 -0.13839355841E+03  0.14686063821E+03  0.47000000000E+01 0.  1.
         -5    1    1    2    0  502 -0.45753485745E+02 -0.38497565363E+02 -0.42442902510E+02  0.73477438512E+02  0.47000000000E+01 0.  1.
        -11    1    1    2    0    0  0.45990585747E+02  0.15530167325E+02 -0.10221067375E+03  0.11315185329E+03  0.00000000000E+00 0.  1.
         11    1    1    2    0    0 -0.42882879220E+02 -0.10016979282E+01 -0.79178020972E+02  0.90050562097E+02  0.00000000000E+00 0. -1.
<mgrwt>
<rscale>  0 0.11626439E+03</rscale>
<asrwt>0</asrwt>
<pdfrwt beam="1">  1        1 0.47165642E-02 0.12588504E+03</pdfrwt>
<pdfrwt beam="2">  1       -1 0.60443513E-01 0.12588504E+03</pdfrwt>
<totfact> 0.49121990E+03</totfact>
</mgrwt>
</event>
<event>
 6    1  0.4705246E-006  0.3717020E+03  0.7546771E-02  0.1054044E+00
         -2   -1    0    0    0  501 -0.00000000000E+00  0.00000000000E+00  0.18942060317E+03  0.18942060317E+03  0.00000000000E+00 0. -1.
          2   -1    0    0  501    0  0.00000000000E+00 -0.00000000000E+00 -0.18234869153E+03  0.18234869153E+03  0.00000000000E+00 0.  1.
          5    1    1    2  502    0 -0.25800917840E+01  0.30215783929E+02  0.10836182371E+02  0.32544789452E+02  0.47000000000E+01 0. -1.
         -5    1    1    2    0  502 -0.12282549114E+03 -0.64009391357E+02 -0.83596456309E+02  0.16184486696E+03  0.47000000000E+01 0. -1.
        -11    1    1    2    0    0  0.86955096560E+02 -0.57292410961E+01  0.85331913801E+02  0.12196535793E+03  0.00000000000E+00 0. -1.
         11    1    1    2    0    0  0.38450486360E+02  0.39522848524E+02 -0.54997282262E+01  0.55414280356E+02  0.00000000000E+00 0.  1.
<mgrwt>
<rscale>  0 0.37170203E+03</rscale>
<asrwt>0</asrwt>
<pdfrwt beam="2">  1        2 0.28053645E-01 0.37170203E+03</pdfrwt>
<pdfrwt beam="1">  1       -2 0.29141631E-01 0.37170203E+03</pdfrwt>
<totfact> 0.20496674E+03</totfact>
</mgrwt>
</event>
<event>
 6    1  0.4705246E-006  0.1189946E+03  0.7546771E-02  0.1308104E+00
         -1   -1    0    0    0  501 -0.00000000000E+00  0.00000000000E+00  0.52990520531E+02  0.52990520531E+02  0.00000000000E+00 0.  1.
          1   -1    0    0  501    0  0.00000000000E+00 -0.00000000000E+00 -0.11345311806E+03  0.11345311806E+03  0.00000000000E+00 0. -1.
          5    1    1    2  502    0  0.15161342444E+02  0.32158627499E+02 -0.82366909286E+02  0.89835635316E+02  0.47000000000E+01 0. -1.
         -5    1    1    2    0  502 -0.72931833772E+01 -0.26615901362E+02  0.29239714305E+02  0.40480212718E+02  0.47000000000E+01 0.  1.
        -11    1    1    2    0    0 -0.14200214182E+02  0.58656193711E+01 -0.14599435346E+02  0.21194222936E+02  0.00000000000E+00 0. -1.
         11    1    1    2    0    0  0.63320551152E+01 -0.11408345509E+02  0.72640328009E+01  0.14933567617E+02  0.00000000000E+00 0.  1.
<mgrwt>
<rscale>  0 0.87865914E+02</rscale>
<asrwt>0</asrwt>
<pdfrwt beam="2">  1        1 0.17454326E-01 0.11899463E+03</pdfrwt>
<pdfrwt beam="1">  1       -1 0.81523878E-02 0.11899463E+03</pdfrwt>
<totfact> 0.23238534E+04</totfact>
</mgrwt>
</event>
<event>
 6    1  0.4705246E-006  0.1184965E+03  0.7546771E-02  0.1257917E+00
          2   -1    0    0  501    0  0.00000000000E+00  0.00000000000E+00  0.26027918146E+03  0.26027918146E+03  0.00000000000E+00 0. -1.
         -2   -1    0    0    0  501 -0.00000000000E+00 -0.00000000000E+00 -0.42942256910E+02  0.42942256910E+02  0.00000000000E+00 0.  1.
          5    1    1    2  502    0  0.13446405376E+02  0.34978248267E+02  0.11655097879E+03  0.12251736337E+03  0.47000000000E+01 0. -1.
         -5    1    1    2    0  502 -0.98841042124E+01 -0.49974600823E+02  0.12459677065E+02  0.52654437572E+02  0.47000000000E+01 0.  1.
        -11    1    1    2    0    0 -0.42823323594E+02  0.67041541630E+01  0.73387221045E+02  0.85231842285E+02  0.00000000000E+00 0.  1.
         11    1    1    2    0    0  0.39261022431E+02  0.82921983924E+01  0.14939047649E+02  0.42817795146E+02  0.00000000000E+00 0. -1.
<mgrwt>
<rscale>  0 0.11144508E+03</rscale>
<asrwt>0</asrwt>
<pdfrwt beam="1">  1        2 0.40042950E-01 0.11849646E+03</pdfrwt>
<pdfrwt beam="2">  1       -2 0.66065012E-02 0.11849646E+03</pdfrwt>
<totfact> 0.15077260E+04</totfact>
</mgrwt>
</event>
<event>
 6    1  0.4705246E-006  0.1515043E+03  0.7546771E-02  0.1207676E+00
         -2   -1    0    0    0  501 -0.00000000000E+00  0.00000000000E+00  0.97262028967E+02  0.97262028967E+02  0.00000000000E+00 0.  1.
          2   -1    0    0  501    0  0.00000000000E+00 -0.00000000000E+00 -0.19998607880E+03  0.19998607880E+03  0.00000000000E+00 0. -1.
          5    1    1    2  502    0  0.16100691109E+02  0.76567102922E+02 -0.10587202308E+03  0.13172975660E+03  0.47000000000E+01 0. -1.
         -5    1    1    2    0  502 -0.23353150869E+02  0.87275839791E+01  0.28692763502E+02  0.38300196540E+02  0.47000000000E+01 0. -1.
        -11    1    1    2    0    0  0.43775092284E+02 -0.66052286705E+02 -0.31955184453E+02  0.85441776064E+02  0.00000000000E+00 0.  1.
         11    1    1    2    0    0 -0.36522632525E+02 -0.19242400196E+02  0.64103941964E+01  0.41776378560E+02  0.00000000000E+00 0. -1.
<mgrwt>
<rscale>  0 0.14428521E+03</rscale>
<asrwt>0</asrwt>
<pdfrwt beam="2">  1        2 0.30767089E-01 0.15150428E+03</pdfrwt>
<pdfrwt beam="1">  1       -2 0.14963389E-01 0.15150428E+03</pdfrwt>
<totfact> 0.56298268E+03</totfact>
</mgrwt>
</event>
<event>
 6    1  0.4705246E-006  0.3987688E+03  0.7546771E-02  0.1044207E+00
         -2   -1    0    0    0  501 -0.00000000000E+00  0.00000000000E+00  0.66946731968E+02  0.66946731968E+02  0.00000000000E+00 0.  1.
          2   -1    0    0  501    0  0.00000000000E+00 -0.00000000000E+00 -0.59381745444E+03  0.59381745444E+03  0.00000000000E+00 0. -1.
          5    1    1    2  502    0  0.14738498054E+03 -0.21487374451E+02 -0.18787601767E+03  0.23979893195E+03  0.47000000000E+01 0. -1.
         -5    1    1    2    0  502  0.11613125628E+02  0.13857499106E+02 -0.17260952738E+03  0.17361749310E+03  0.47000000000E+01 0. -1.
        -11    1    1    2    0    0 -0.63725907038E+02  0.23029557583E+02 -0.17607482246E+02  0.70009822034E+02  0.00000000000E+00 0.  1.
         11    1    1    2    0    0 -0.95272199133E+02 -0.15399682238E+02 -0.14877769519E+03  0.17733793933E+03  0.00000000000E+00 0. -1.
<mgrwt>
<rscale>  0 0.39876879E+03</rscale>
<asrwt>0</asrwt>
<pdfrwt beam="2">  1        2 0.91356531E-01 0.39876879E+03</pdfrwt>
<pdfrwt beam="1">  1       -2 0.10299497E-01 0.39876879E+03</pdfrwt>
<totfact> 0.32510700E+03</totfact>
</mgrwt>
</event>
<event>
 6    1  0.9951156E-006  0.1695917E+03  0.7546771E-02  0.1184507E+00
          3   -1    0    0  501    0  0.00000000000E+00  0.00000000000E+00  0.83130553032E+03  0.83130553032E+03  0.00000000000E+00 0. -1.
         -3   -1    0    0    0  501 -0.00000000000E+00 -0.00000000000E+00 -0.33508671349E+02  0.33508671349E+02  0.00000000000E+00 0.  1.
          5    1    1    2  502    0  0.14804188613E+02  0.61295444184E+02  0.18668324243E+03  0.19710154358E+03  0.47000000000E+01 0.  1.
         -5    1    1    2    0  502  0.97821434761E+02 -0.40040387053E+02  0.37225084156E+03  0.38699488980E+03  0.47000000000E+01 0.  1.
        -11    1    1    2    0    0 -0.45739957881E+02 -0.40965193372E+02  0.49325703970E+02  0.78761131830E+02  0.00000000000E+00 0.  1.
         11    1    1    2    0    0 -0.66885665493E+02  0.19710136242E+02  0.18953707102E+03  0.20195663646E+03  0.00000000000E+00 0. -1.
<mgrwt>
<rscale>  0 0.16376776E+03</rscale>
<asrwt>0</asrwt>
<pdfrwt beam="1">  1        3 0.12789314E+00 0.16959167E+03</pdfrwt>
<pdfrwt beam="2">  1       -3 0.51551808E-02 0.16959167E+03</pdfrwt>
<totfact> 0.26507599E+02</totfact>
</mgrwt>
</event>
<event>
 6    1  0.5770171E-006  0.3092935E+03  0.7546771E-02  0.1082076E+00
          1   -1    0    0  501    0  0.00000000000E+00  0.00000000000E+00  0.29031560835E+03  0.29031560835E+03  0.00000000000E+00 0. -1.
         -1   -1    0    0    0  501 -0.00000000000E+00 -0.00000000000E+00 -0.32767060962E+03  0.32767060962E+03  0.00000000000E+00 0.  1.
          5    1    1    2  502    0 -0.56583534826E+02 -0.90055709398E+02  0.14143998179E+02  0.10739585603E+03  0.47000000000E+01 0. -1.
         -5    1    1    2    0  502  0.62788046367E+02 -0.19278370155E+03  0.21180034288E+02  0.20390825928E+03  0.47000000000E+01 0. -1.
        -11    1    1    2    0    0  0.32899173044E+02  0.22155045582E+03 -0.42552047870E+02  0.22798604528E+03  0.00000000000E+00 0.  1.
         11    1    1    2    0    0 -0.39103684586E+02  0.61288955127E+02 -0.30126985866E+02  0.78696057374E+02  0.00000000000E+00 0. -1.
<mgrwt>
<rscale>  0 0.30641667E+03</rscale>
<asrwt>0</asrwt>
<pdfrwt beam="1">  1        1 0.44663940E-01 0.30929349E+03</pdfrwt>
<pdfrwt beam="2">  1       -1 0.50410863E-01 0.30929349E+03</pdfrwt>
<totfact> 0.37106310E+02</totfact>
</mgrwt>
</event>
<event>
 6    1  0.4806157E-006  0.2515719E+03  0.7546771E-02  0.1112315E+00
          1   -1    0    0  501    0  0.00000000000E+00  0.00000000000E+00  0.95747968860E+03  0.95747968860E+03  0.00000000000E+00 0. -1.
         -1   -1    0    0    0  501 -0.00000000000E+00 -0.00000000000E+00 -0.16524738109E+02  0.16524738109E+02  0.00000000000E+00 0.  1.
          5    1    1    2  502    0  0.19327221296E+00 -0.62507289688E+02  0.58228178534E+03  0.58564611000E+03  0.47000000000E+01 0. -1.
         -5    1    1    2    0  502  0.10115931308E+02  0.15174141186E+01 -0.17598095907E+01  0.11393925647E+02  0.47000000000E+01 0. -1.
        -11    1    1    2    0    0 -0.42187243221E+02  0.63309845458E+02  0.28627838060E+03  0.29621480587E+03  0.00000000000E+00 0. -1.
         11    1    1    2    0    0  0.31878039700E+02 -0.23199698893E+01  0.74154594154E+02  0.80749585197E+02  0.00000000000E+00 0.  1.
<mgrwt>
<rscale>  0 0.25157187E+03</rscale>
<asrwt>0</asrwt>
<pdfrwt beam="1">  1        1 0.14730452E+00 0.25157187E+03</pdfrwt>
<pdfrwt beam="2">  1       -1 0.25422681E-02 0.25157187E+03</pdfrwt>
<totfact> 0.82625757E+03</totfact>
</mgrwt>
</event>
<event>
 6    1  0.4705246E-006  0.1333039E+03  0.7546771E-02  0.1235363E+00
         -2   -1    0    0    0  501 -0.00000000000E+00  0.00000000000E+00  0.60669638372E+02  0.60669638372E+02  0.00000000000E+00 0.  1.
          2   -1    0    0  501    0  0.00000000000E+00 -0.00000000000E+00 -0.28702544808E+03  0.28702544808E+03  0.00000000000E+00 0. -1.
          5    1    1    2  502    0 -0.24433551741E+02  0.13321506069E+02 -0.16347254423E+03  0.16589099943E+03  0.47000000000E+01 0.  1.
         -5    1    1    2    0  502  0.65136730426E+02  0.87766246065E+01 -0.39140200339E+02  0.76641164348E+02  0.47000000000E+01 0.  1.
        -11    1    1    2    0    0 -0.47615379384E+02  0.12423950373E+02 -0.42721059125E+02  0.65166462153E+02  0.00000000000E+00 0. -1.
         11    1    1    2    0    0  0.69122006997E+01 -0.34522081049E+02  0.18977993987E+02  0.39996460521E+02  0.00000000000E+00 0.  1.
<mgrwt>
<rscale>  0 0.12481234E+03</rscale>
<asrwt>0</asrwt>
<pdfrwt beam="2">  1        2 0.44157761E-01 0.13330389E+03</pdfrwt>
<pdfrwt beam="1">  1       -2 0.93337906E-02 0.13330389E+03</pdfrwt>
<totfact> 0.80611979E+03</totfact>
</mgrwt>
</event>
<event>
 6    1  0.4705246E-006  0.3080121E+03  0.7546771E-02  0.1081303E+00
         -2   -1    0    0    0  501 -0.00000000000E+00  0.00000000000E+00  0.30512071053E+02  0.30512071053E+02  0.00000000000E+00 0.  1.
          2   -1    0    0  501    0  0.00000000000E+00 -0.00000000000E+00 -0.77732713938E+03  0.77732713938E+03  0.00000000000E+00 0. -1.
          5    1    1    2  502    0  0.18563754232E+02  0.18854346015E+02 -0.21855925968E+03  0.22020522094E+03  0.47000000000E+01 0. -1.
         -5    1    1    2    0  502 -0.11790605698E+03  0.78385040910E+01 -0.27907884711E+03  0.30310125919E+03  0.47000000000E+01 0. -1.
        -11    1    1    2    0    0  0.54583367188E+02 -0.59542775588E+02 -0.12988372069E+03  0.15295249916E+03  0.00000000000E+00 0.  1.
         11    1    1    2    0    0  0.44758935565E+02  0.32849925482E+02 -0.11929324085E+03  0.13158023115E+03  0.00000000000E+00 0. -1.
<mgrwt>
<rscale>  0 0.30801208E+03</rscale>
<asrwt>0</asrwt>
<pdfrwt beam="2">  1        2 0.11958877E+00 0.30801208E+03</pdfrwt>
<pdfrwt beam="1">  1       -2 0.46941657E-02 0.30801208E+03</pdfrwt>
<totfact> 0.79430970E+03</totfact>
</mgrwt>
</event>
<event>
 6    1  0.4705246E-006  0.5546187E+03  0.7546771E-02  0.1000431E+00
         -2   -1    0    0    0  501 -0.00000000000E+00  0.00000000000E+00  0.29649791461E+03  0.29649791461E+03  0.00000000000E+00 0.  1.
          2   -1    0    0  501    0  0.00000000000E+00 -0.00000000000E+00 -0.25936260490E+03  0.25936260490E+03  0.00000000000E+00 0. -1.
          5    1    1    2  502    0  0.60569511722E+01 -0.12674236156E+02 -0.15341824001E+03  0.15413166219E+03  0.47000000000E+01 0.  1.
         -5    1    1    2    0  502  0.30237631413E+02 -0.96232740966E+02 -0.56120364704E+02  0.11552765955E+03  0.47000000000E+01 0.  1.
        -11    1    1    2    0    0 -0.25401933733E+02  0.72338518152E+02  0.64851581626E+02  0.10041836030E+03  0.00000000000E+00 0. -1.
         11    1    1    2    0    0 -0.10892648852E+02  0.36568458970E+02  0.18182233281E+03  0.18578283747E+03  0.00000000000E+00 0.  1.
<mgrwt>
<rscale>  0 0.55461869E+03</rscale>
<asrwt>0</asrwt>
<pdfrwt beam="2">  1        2 0.39901939E-01 0.55461869E+03</pdfrwt>
<pdfrwt beam="1">  1       -2 0.45615064E-01 0.55461869E+03</pdfrwt>
<totfact> 0.59279320E+02</totfact>
</mgrwt>
</event>
<event>
 6    1  0.4705246E-006  0.1780725E+03  0.7546771E-02  0.1176783E+00
          1   -1    0    0  501    0  0.00000000000E+00  0.00000000000E+00  0.78073266583E+03  0.78073266583E+03  0.00000000000E+00 0. -1.
         -1   -1    0    0    0  501 -0.00000000000E+00 -0.00000000000E+00 -0.35392489584E+02  0.35392489584E+02  0.00000000000E+00 0.  1.
          5    1    1    2  502    0  0.42239518010E+00  0.96152814774E+02  0.38754330847E+03  0.39932123428E+03  0.47000000000E+01 0. -1.
         -5    1    1    2    0  502  0.55752607884E+02  0.17550433618E+02  0.68008604112E+02  0.89797724021E+02  0.47000000000E+01 0. -1.
        -11    1    1    2    0    0 -0.27748629270E+02 -0.17606248955E+02  0.15834108308E+03  0.16171538275E+03  0.00000000000E+00 0. -1.
         11    1    1    2    0    0 -0.28426373794E+02 -0.96096999436E+02  0.13144718058E+03  0.16529081435E+03  0.00000000000E+00 0.  1.
<mgrwt>
<rscale>  0 0.17102485E+03</rscale>
<asrwt>0</asrwt>
<pdfrwt beam="1">  1        1 0.12011270E+00 0.17807249E+03</pdfrwt>
<pdfrwt beam="2">  1       -1 0.54449990E-02 0.17807249E+03</pdfrwt>
<totfact> 0.36508563E+03</totfact>
</mgrwt>
</event>
<event>
 6    1  0.4705246E-006  0.1408796E+03  0.7546771E-02  0.1224592E+00
          1   -1    0    0  501    0  0.00000000000E+00  0.00000000000E+00  0.44790257085E+03  0.44790257085E+03  0.00000000000E+00 0. -1.
         -1   -1    0    0    0  501 -0.00000000000E+00 -0.00000000000E+00 -0.37286845815E+02  0.37286845815E+02  0.00000000000E+00 0.  1.
          5    1    1    2  502    0  0.71869214908E+02 -0.47659094289E+01  0.91143284139E+02  0.11626300438E+03  0.47000000000E+01 0.  1.
         -5    1    1    2    0  502 -0.23227987476E+02  0.47846536385E+02  0.20257860544E+03  0.20949704492E+03  0.47000000000E+01 0.  1.
        -11    1    1    2    0    0 -0.69010947443E+02 -0.51374936628E+02  0.87426849235E+02  0.12265948372E+03  0.00000000000E+00 0.  1.
         11    1    1    2    0    0  0.20369720011E+02  0.82943096719E+01  0.29466986225E+02  0.36769883647E+02  0.00000000000E+00 0. -1.
<mgrwt>
<rscale>  0 0.13194934E+03</rscale>
<asrwt>0</asrwt>
<pdfrwt beam="1">  1        1 0.68908084E-01 0.14087960E+03</pdfrwt>
<pdfrwt beam="2">  1       -1 0.57364381E-02 0.14087960E+03</pdfrwt>
<totfact> 0.71661349E+03</totfact>
</mgrwt>
</event>
<event>
 6    1  0.4705246E-006  0.1483551E+03  0.7546771E-02  0.1211887E+00
          1   -1    0    0  501    0  0.00000000000E+00  0.00000000000E+00  0.10968901282E+04  0.10968901282E+04  0.00000000000E+00 0. -1.
         -1   -1    0    0    0  501 -0.00000000000E+00 -0.00000000000E+00 -0.16659986502E+02  0.16659986502E+02  0.00000000000E+00 0.  1.
          5    1    1    2  502    0  0.52837415613E+02 -0.34610905948E+02  0.51915940955E+03  0.52300888121E+03  0.47000000000E+01 0.  1.
         -5    1    1    2    0  502  0.26618063378E+02  0.24841707622E+02  0.35206802884E+02  0.50864926077E+02  0.47000000000E+01 0.  1.
        -11    1    1    2    0    0 -0.37117360296E+02 -0.40931218804E+02  0.24269040591E+03  0.24890097675E+03  0.00000000000E+00 0. -1.
         11    1    1    2    0    0 -0.42338118694E+02  0.50700417130E+02  0.28317352331E+03  0.29077533062E+03  0.00000000000E+00 0.  1.
<mgrwt>
<rscale>  0 0.14107717E+03</rscale>
<asrwt>0</asrwt>
<pdfrwt beam="1">  1        1 0.16875227E+00 0.14835515E+03</pdfrwt>
<pdfrwt beam="2">  1       -1 0.25630757E-02 0.14835515E+03</pdfrwt>
<totfact> 0.63120539E+03</totfact>
</mgrwt>
</event>
<event>
 6    1  0.4705246E-006  0.2750781E+03  0.7546771E-02  0.1098408E+00
         -1   -1    0    0    0  501 -0.00000000000E+00  0.00000000000E+00  0.13258114399E+03  0.13258114399E+03  0.00000000000E+00 0.  1.
          1   -1    0    0  501    0  0.00000000000E+00 -0.00000000000E+00 -0.14268234406E+03  0.14268234406E+03  0.00000000000E+00 0. -1.
          5    1    1    2  502    0  0.76345106192E+01 -0.31128773420E+02 -0.26692563539E+02  0.41974626089E+02  0.47000000000E+01 0. -1.
         -5    1    1    2    0  502 -0.11019767001E+02  0.10866302875E+03 -0.10774898760E+02  0.10985116078E+03  0.47000000000E+01 0. -1.
        -11    1    1    2    0    0  0.44682239351E+02 -0.40146041574E+02  0.31030448569E+02  0.67609880238E+02  0.00000000000E+00 0.  1.
         11    1    1    2    0    0 -0.41296982970E+02 -0.37388213754E+02 -0.36641863400E+01  0.55827820947E+02  0.00000000000E+00 0. -1.
<mgrwt>
<rscale>  0 0.27507809E+03</rscale>
<asrwt>0</asrwt>
<pdfrwt beam="2">  1        1 0.21951130E-01 0.27507809E+03</pdfrwt>
<pdfrwt beam="1">  1       -1 0.20397099E-01 0.27507809E+03</pdfrwt>
<totfact> 0.43899205E+03</totfact>
</mgrwt>
</event>
<event>
 6    1  0.4705246E-006  0.3948718E+03  0.7546771E-02  0.1045570E+00
         -1   -1    0    0    0  501 -0.00000000000E+00  0.00000000000E+00  0.12317227618E+03  0.12317227618E+03  0.00000000000E+00 0.  1.
          1   -1    0    0  501    0  0.00000000000E+00 -0.00000000000E+00 -0.31647496813E+03  0.31647496813E+03  0.00000000000E+00 0. -1.
          5    1    1    2  502    0  0.81607522660E+01 -0.23913631024E+02 -0.22434790230E+03  0.22581525833E+03  0.47000000000E+01 0. -1.
         -5    1    1    2    0  502  0.23026734105E+02  0.51610975831E+02 -0.57427482294E+02  0.80708915446E+02  0.47000000000E+01 0.  1.
        -11    1    1    2    0    0  0.53322940555E+01 -0.54036340865E+02  0.44784038098E+02  0.70384441195E+02  0.00000000000E+00 0.  1.
         11    1    1    2    0    0 -0.36519780427E+02  0.26338996058E+02  0.43688654550E+02  0.62738629346E+02  0.00000000000E+00 0. -1.
<mgrwt>
<rscale>  0 0.39487184E+03</rscale>
<asrwt>0</asrwt>
<pdfrwt beam="2">  1        1 0.48688457E-01 0.39487184E+03</pdfrwt>
<pdfrwt beam="1">  1       -1 0.18949581E-01 0.39487184E+03</pdfrwt>
<totfact> 0.18115530E+03</totfact>
</mgrwt>
</event>
<event>
 6    1  0.4705246E-006  0.1938598E+03  0.7546771E-02  0.1175025E+00
          2   -1    0    0  501    0  0.00000000000E+00  0.00000000000E+00  0.98364537726E+03  0.98364537726E+03  0.00000000000E+00 0. -1.
         -2   -1    0    0    0  501 -0.00000000000E+00 -0.00000000000E+00 -0.29166689461E+02  0.29166689461E+02  0.00000000000E+00 0.  1.
          5    1    1    2  502    0 -0.28834728041E+02  0.29269930610E+01  0.49857228047E+03  0.49943609970E+03  0.47000000000E+01 0. -1.
         -5    1    1    2    0  502  0.10136320471E+03  0.47086530579E+02  0.25100523714E+03  0.27480422068E+03  0.47000000000E+01 0.  1.
        -11    1    1    2    0    0 -0.57257540190E+02  0.11741629563E+02  0.92581442574E+02  0.10948796867E+03  0.00000000000E+00 0. -1.
         11    1    1    2    0    0 -0.15270936482E+02 -0.61755153203E+02  0.11231972762E+03  0.12908377768E+03  0.00000000000E+00 0.  1.
<mgrwt>
<rscale>  0 0.17273507E+03</rscale>
<asrwt>0</asrwt>
<pdfrwt beam="1">  1        2 0.15133003E+00 0.19385979E+03</pdfrwt>
<pdfrwt beam="2">  1       -2 0.44871837E-02 0.19385979E+03</pdfrwt>
<totfact> 0.61211703E+03</totfact>
</mgrwt>
</event>
<event>
 6    1  0.4705246E-006  0.1522604E+03  0.7546771E-02  0.1206801E+00
         -2   -1    0    0    0  501 -0.00000000000E+00  0.00000000000E+00  0.12426495981E+02  0.12426495981E+02  0.00000000000E+00 0.  1.
          2   -1    0    0  501    0  0.00000000000E+00 -0.00000000000E+00 -0.19519473966E+04  0.19519473966E+04  0.00000000000E+00 0. -1.
          5    1    1    2  502    0  0.25907293890E+02 -0.10665558210E+03 -0.82302522492E+03  0.83032476293E+03  0.47000000000E+01 0.  1.
         -5    1    1    2    0  502  0.17822443359E+01  0.24222683305E+02 -0.66724855974E+03  0.66770700555E+03  0.47000000000E+01 0.  1.
        -11    1    1    2    0    0  0.57406887082E+01 -0.99010277206E+01 -0.72052230399E+01  0.13524093161E+02  0.00000000000E+00 0.  1.
         11    1    1    2    0    0 -0.33430226934E+02  0.92333926514E+02 -0.44204189294E+03  0.45281803097E+03  0.00000000000E+00 0. -1.
<mgrwt>
<rscale>  0 0.14496443E+03</rscale>
<asrwt>0</asrwt>
<pdfrwt beam="2">  1        2 0.30029971E+00 0.15226039E+03</pdfrwt>
<pdfrwt beam="1">  1       -2 0.19117679E-02 0.15226039E+03</pdfrwt>
<totfact> 0.64494062E+03</totfact>
</mgrwt>
</event>
<event>
 6    1  0.4705246E-006  0.1466055E+03  0.7546771E-02  0.1233912E+00
         -2   -1    0    0    0  501 -0.00000000000E+00  0.00000000000E+00  0.86382460801E+02  0.86382460801E+02  0.00000000000E+00 0.  1.
          2   -1    0    0  501    0  0.00000000000E+00 -0.00000000000E+00 -0.49568406355E+03  0.49568406355E+03  0.00000000000E+00 0. -1.
          5    1    1    2  502    0 -0.13615266451E+01  0.46237560852E+02 -0.37785280481E+03  0.38070276843E+03  0.47000000000E+01 0. -1.
         -5    1    1    2    0  502 -0.61236448882E+02 -0.22725004358E+01 -0.85547545458E+02  0.10533536663E+03  0.47000000000E+01 0.  1.
        -11    1    1    2    0    0  0.54258020344E+02 -0.28298376078E+02  0.45802330366E+02  0.76436799562E+02  0.00000000000E+00 0.  1.
         11    1    1    2    0    0  0.83399551838E+01 -0.15666684338E+02  0.82964171481E+01  0.19591589729E+02  0.00000000000E+00 0. -1.
<mgrwt>
<rscale>  0 0.12574344E+03</rscale>
<asrwt>0</asrwt>
<pdfrwt beam="2">  1        2 0.76259086E-01 0.14660554E+03</pdfrwt>
<pdfrwt beam="1">  1       -2 0.13289610E-01 0.14660554E+03</pdfrwt>
<totfact> 0.25753762E+03</totfact>
</mgrwt>
</event>
<event>
 6    1  0.4705246E-006  0.1333882E+03  0.7546771E-02  0.1234767E+00
         -3   -1    0    0    0  501 -0.00000000000E+00  0.00000000000E+00  0.25655656533E+03  0.25655656533E+03  0.00000000000E+00 0.  1.
          3   -1    0    0  501    0  0.00000000000E+00 -0.00000000000E+00 -0.59586454872E+02  0.59586454872E+02  0.00000000000E+00 0. -1.
          5    1    1    2  502    0 -0.19434912474E+02 -0.44977774990E+02  0.32819562180E+01  0.49331301448E+02  0.47000000000E+01 0. -1.
         -5    1    1    2    0  502  0.65484445793E+02  0.41182175766E+02  0.61602923157E+02  0.99000981728E+02  0.47000000000E+01 0. -1.
        -11    1    1    2    0    0 -0.21842987701E+02 -0.99786701211E+01  0.13737799790E+03  0.13946112102E+03  0.00000000000E+00 0.  1.
         11    1    1    2    0    0 -0.24206545618E+02  0.13774269345E+02 -0.52927668220E+01  0.28349616001E+02  0.00000000000E+00 0. -1.
<mgrwt>
<rscale>  0 0.12519349E+03</rscale>
<asrwt>0</asrwt>
<pdfrwt beam="2">  1        3 0.91671470E-02 0.13338823E+03</pdfrwt>
<pdfrwt beam="1">  1       -3 0.39470240E-01 0.13338823E+03</pdfrwt>
<totfact> 0.12470389E+03</totfact>
</mgrwt>
</event>
<event>
 6    1  0.4705246E-006  0.1500756E+03  0.7546771E-02  0.1209471E+00
         -1   -1    0    0    0  501 -0.00000000000E+00  0.00000000000E+00  0.41860523377E+02  0.41860523377E+02  0.00000000000E+00 0.  1.
          1   -1    0    0  501    0  0.00000000000E+00 -0.00000000000E+00 -0.45231632132E+03  0.45231632132E+03  0.00000000000E+00 0. -1.
          5    1    1    2  502    0  0.25892547802E+02 -0.20579115018E+02 -0.67379087894E+02  0.75206086802E+02  0.47000000000E+01 0. -1.
         -5    1    1    2    0  502 -0.95353444109E+02  0.66108805367E+02 -0.18523057943E+03  0.21862092993E+03  0.47000000000E+01 0. -1.
        -11    1    1    2    0    0 -0.73293316592E+01  0.19365654672E+02 -0.14573187465E+02  0.25320455690E+02  0.00000000000E+00 0. -1.
         11    1    1    2    0    0  0.76790227966E+02 -0.64895345021E+02 -0.14327294316E+03  0.17502937227E+03  0.00000000000E+00 0.  1.
<mgrwt>
<rscale>  0 0.14290614E+03</rscale>
<asrwt>0</asrwt>
<pdfrwt beam="2">  1        1 0.69587129E-01 0.15007555E+03</pdfrwt>
<pdfrwt beam="1">  1       -1 0.64400803E-02 0.15007555E+03</pdfrwt>
<totfact> 0.59759779E+03</totfact>
</mgrwt>
</event>
<event>
 6    1  0.4705246E-006  0.4889214E+03  0.7546771E-02  0.1016712E+00
          1   -1    0    0  501    0  0.00000000000E+00  0.00000000000E+00  0.20743327537E+03  0.20743327537E+03  0.00000000000E+00 0. -1.
         -1   -1    0    0    0  501 -0.00000000000E+00 -0.00000000000E+00 -0.28809763493E+03  0.28809763493E+03  0.00000000000E+00 0.  1.
          5    1    1    2  502    0  0.41338466391E+02 -0.39539406982E+02  0.18102512161E+03  0.18990634050E+03  0.47000000000E+01 0. -1.
         -5    1    1    2    0  502  0.20284706655E+01 -0.24653399927E+02 -0.13393088176E+02  0.28519635904E+02  0.47000000000E+01 0.  1.
        -11    1    1    2    0    0 -0.61960054568E+02  0.12682475117E+02 -0.93273950268E+02  0.11269393655E+03  0.00000000000E+00 0. -1.
         11    1    1    2    0    0  0.18593117511E+02  0.51510331792E+02 -0.15502244272E+03  0.16441099734E+03  0.00000000000E+00 0.  1.
<mgrwt>
<rscale>  0 0.48892141E+03</rscale>
<asrwt>0</asrwt>
<pdfrwt beam="1">  1        1 0.31912812E-01 0.48892141E+03</pdfrwt>
<pdfrwt beam="2">  1       -1 0.44322713E-01 0.48892141E+03</pdfrwt>
<totfact> 0.71956771E+02</totfact>
</mgrwt>
</event>
<event>
 6    1  0.4705246E-006  0.3502113E+03  0.7546771E-02  0.1062528E+00
          1   -1    0    0  501    0  0.00000000000E+00  0.00000000000E+00  0.11775243388E+03  0.11775243388E+03  0.00000000000E+00 0. -1.
         -1   -1    0    0    0  501 -0.00000000000E+00 -0.00000000000E+00 -0.26039369401E+03  0.26039369401E+03  0.00000000000E+00 0.  1.
          5    1    1    2  502    0  0.44580084093E+01  0.10166031468E+02 -0.52357926185E+02  0.53727688105E+02  0.47000000000E+01 0.  1.
         -5    1    1    2    0  502  0.12514591703E+03 -0.26461256342E+02  0.21217131932E+02  0.12974573335E+03  0.47000000000E+01 0.  1.
        -11    1    1    2    0    0 -0.41140712150E+02 -0.12538957572E+02  0.74555966308E+01  0.43650539221E+02  0.00000000000E+00 0.  1.
         11    1    1    2    0    0 -0.88463213286E+02  0.28834182446E+02 -0.11895606251E+03  0.15102216721E+03  0.00000000000E+00 0. -1.
<mgrwt>
<rscale>  0 0.35021131E+03</rscale>
<asrwt>0</asrwt>
<pdfrwt beam="1">  1        1 0.18115759E-01 0.35021131E+03</pdfrwt>
<pdfrwt beam="2">  1       -1 0.40060568E-01 0.35021131E+03</pdfrwt>
<totfact> 0.17956182E+03</totfact>
</mgrwt>
</event>
<event>
 6    1  0.4705246E-006  0.1582613E+03  0.7546771E-02  0.1198828E+00
         -1   -1    0    0    0  501 -0.00000000000E+00  0.00000000000E+00  0.19233931625E+02  0.19233931625E+02  0.00000000000E+00 0.  1.
          1   -1    0    0  501    0  0.00000000000E+00 -0.00000000000E+00 -0.12411716517E+04  0.12411716517E+04  0.00000000000E+00 0. -1.
          5    1    1    2  502    0 -0.69996299458E+02  0.49929773287E+02 -0.35191660969E+03  0.36229801873E+03  0.47000000000E+01 0.  1.
         -5    1    1    2    0  502  0.45515187811E+02  0.43992209181E+02 -0.52062347807E+03  0.52447863894E+03  0.47000000000E+01 0.  1.
        -11    1    1    2    0    0 -0.25393081738E+02 -0.74286076427E+02 -0.21891276181E+03  0.23256402781E+03  0.00000000000E+00 0.  1.
         11    1    1    2    0    0  0.49874193385E+02 -0.19635906041E+02 -0.13048487055E+03  0.14106489788E+03  0.00000000000E+00 0. -1.
<mgrwt>
<rscale>  0 0.15134650E+03</rscale>
<asrwt>0</asrwt>
<pdfrwt beam="2">  1        1 0.19094947E+00 0.15826129E+03</pdfrwt>
<pdfrwt beam="1">  1       -1 0.29590666E-02 0.15826129E+03</pdfrwt>
<totfact> 0.40752187E+03</totfact>
</mgrwt>
</event>
<event>
 6    1  0.4705246E-006  0.1613216E+03  0.7546771E-02  0.1200243E+00
         -2   -1    0    0    0  501 -0.00000000000E+00  0.00000000000E+00  0.22947653384E+02  0.22947653384E+02  0.00000000000E+00 0.  1.
          2   -1    0    0  501    0  0.00000000000E+00 -0.00000000000E+00 -0.10265953327E+04  0.10265953327E+04  0.00000000000E+00 0. -1.
          5    1    1    2  502    0 -0.75272387793E+02 -0.58386990990E+02 -0.59526934355E+03  0.60286205259E+03  0.47000000000E+01 0. -1.
         -5    1    1    2    0  502  0.53594998325E+02 -0.18234124927E+02 -0.17046709508E+03  0.17968313126E+03  0.47000000000E+01 0.  1.
        -11    1    1    2    0    0  0.55824304753E+02  0.36710544951E+02 -0.10970490825E+03  0.12844914950E+03  0.00000000000E+00 0. -1.
         11    1    1    2    0    0 -0.34146915284E+02  0.39910570966E+02 -0.12820633246E+03  0.13854865276E+03  0.00000000000E+00 0.  1.
<mgrwt>
<rscale>  0 0.15018711E+03</rscale>
<asrwt>0</asrwt>
<pdfrwt beam="2">  1        2 0.15793774E+00 0.16132164E+03</pdfrwt>
<pdfrwt beam="1">  1       -2 0.35304084E-02 0.16132164E+03</pdfrwt>
<totfact> 0.81931572E+03</totfact>
</mgrwt>
</event>
<event>
 6    1  0.4705246E-006  0.1663831E+03  0.7546771E-02  0.1199474E+00
          1   -1    0    0  501    0  0.00000000000E+00  0.00000000000E+00  0.78954398231E+02  0.78954398231E+02  0.00000000000E+00 0. -1.
         -1   -1    0    0    0  501 -0.00000000000E+00 -0.00000000000E+00 -0.24662322416E+03  0.24662322416E+03  0.00000000000E+00 0.  1.
          5    1    1    2  502    0 -0.59332062423E+02 -0.64597765818E+01 -0.45573083066E+02  0.75239738470E+02  0.47000000000E+01 0. -1.
         -5    1    1    2    0  502  0.93358641882E+02 -0.47958892875E+02 -0.46151621847E+02  0.11475170421E+03  0.47000000000E+01 0.  1.
        -11    1    1    2    0    0  0.61142463719E+01  0.62947965995E+02 -0.20251653709E+02  0.66407529013E+02  0.00000000000E+00 0.  1.
         11    1    1    2    0    0 -0.40140825832E+02 -0.85292965378E+01 -0.55692467306E+02  0.69178650698E+02  0.00000000000E+00 0. -1.
<mgrwt>
<rscale>  0 0.15081603E+03</rscale>
<asrwt>0</asrwt>
<pdfrwt beam="1">  1        1 0.12146831E-01 0.16638307E+03</pdfrwt>
<pdfrwt beam="2">  1       -1 0.37942034E-01 0.16638307E+03</pdfrwt>
<totfact> 0.32589214E+03</totfact>
</mgrwt>
</event>
<event>
 6    1  0.4705246E-006  0.1572564E+03  0.7546771E-02  0.1203117E+00
          1   -1    0    0  501    0  0.00000000000E+00  0.00000000000E+00  0.20501409703E+03  0.20501409703E+03  0.00000000000E+00 0. -1.
         -1   -1    0    0    0  501 -0.00000000000E+00 -0.00000000000E+00 -0.16368981558E+03  0.16368981558E+03  0.00000000000E+00 0.  1.
          5    1    1    2  502    0 -0.64496106416E+02 -0.23842627898E+02  0.72502950773E+02  0.10003492649E+03  0.47000000000E+01 0.  1.
         -5    1    1    2    0  502 -0.69328916732E+01  0.87128852924E+02  0.67898383016E+02  0.11077807732E+03  0.47000000000E+01 0.  1.
        -11    1    1    2    0    0 -0.11686176889E+02  0.73334703611E+01 -0.12902898450E+02  0.18889978990E+02  0.00000000000E+00 0.  1.
         11    1    1    2    0    0  0.83115174978E+02 -0.70619695387E+02 -0.86174153891E+02  0.13900092981E+03  0.00000000000E+00 0. -1.
<mgrwt>
<rscale>  0 0.14786867E+03</rscale>
<asrwt>0</asrwt>
<pdfrwt beam="1">  1        1 0.31540630E-01 0.15725644E+03</pdfrwt>
<pdfrwt beam="2">  1       -1 0.25183049E-01 0.15725644E+03</pdfrwt>
<totfact> 0.19195338E+03</totfact>
</mgrwt>
</event>
<event>
 6    1  0.4705246E-006  0.2225706E+03  0.7546771E-02  0.1135307E+00
          2   -1    0    0  501    0  0.00000000000E+00  0.00000000000E+00  0.25377282300E+03  0.25377282300E+03  0.00000000000E+00 0. -1.
         -2   -1    0    0    0  501 -0.00000000000E+00 -0.00000000000E+00 -0.18214570943E+03  0.18214570943E+03  0.00000000000E+00 0.  1.
          5    1    1    2  502    0  0.72760303095E+02 -0.35585114615E+02 -0.47654288783E+02  0.94092419079E+02  0.47000000000E+01 0. -1.
         -5    1    1    2    0  502  0.52189918508E+02 -0.99694325948E+02  0.62897063146E+02  0.12899952237E+03  0.47000000000E+01 0. -1.
        -11    1    1    2    0    0 -0.55267516239E+02  0.11184659205E+03  0.61578580123E+02  0.13912612995E+03  0.00000000000E+00 0. -1.
         11    1    1    2    0    0 -0.69682705363E+02  0.23432848516E+02 -0.51942409157E+01  0.73700461023E+02  0.00000000000E+00 0.  1.
<mgrwt>
<rscale>  0 0.21810052E+03</rscale>
<asrwt>0</asrwt>
<pdfrwt beam="1">  1        2 0.39041973E-01 0.22257060E+03</pdfrwt>
<pdfrwt beam="2">  1       -2 0.28022417E-01 0.22257060E+03</pdfrwt>
<totfact> 0.15110720E+03</totfact>
</mgrwt>
</event>
<event>
 6    1  0.4705246E-006  0.2831290E+03  0.7546771E-02  0.1093992E+00
         -1   -1    0    0    0  501 -0.00000000000E+00  0.00000000000E+00  0.23989779743E+02  0.23989779743E+02  0.00000000000E+00 0.  1.
          1   -1    0    0  501    0  0.00000000000E+00 -0.00000000000E+00 -0.83537680918E+03  0.83537680918E+03  0.00000000000E+00 0. -1.
          5    1    1    2  502    0 -0.20744268617E+02 -0.11869670943E+03 -0.37470684892E+03  0.39363250138E+03  0.47000000000E+01 0. -1.
         -5    1    1    2    0  502  0.16364984597E+02  0.27604598375E+02 -0.68043517433E+02  0.75377959888E+02  0.47000000000E+01 0. -1.
        -11    1    1    2    0    0  0.24312749953E+02  0.27903014742E+02 -0.37617957635E+02  0.52771192696E+02  0.00000000000E+00 0.  1.
         11    1    1    2    0    0 -0.19933465933E+02  0.63189096317E+02 -0.33101870545E+03  0.33758493496E+03  0.00000000000E+00 0. -1.
<mgrwt>
<rscale>  0 0.28312899E+03</rscale>
<asrwt>0</asrwt>
<pdfrwt beam="2">  1        1 0.12851952E+00 0.28312899E+03</pdfrwt>
<pdfrwt beam="1">  1       -1 0.36907349E-02 0.28312899E+03</pdfrwt>
<totfact> 0.59663022E+03</totfact>
</mgrwt>
</event>
<event>
 6    1  0.4705246E-006  0.2464922E+03  0.7546771E-02  0.1118182E+00
         -3   -1    0    0    0  501 -0.00000000000E+00  0.00000000000E+00  0.15882784604E+03  0.15882784604E+03  0.00000000000E+00 0.  1.
          3   -1    0    0  501    0  0.00000000000E+00 -0.00000000000E+00 -0.35850966551E+03  0.35850966551E+03  0.00000000000E+00 0. -1.
          5    1    1    2  502    0  0.13751271853E+02 -0.36195125232E+02 -0.24440188706E+02  0.46028223864E+02  0.47000000000E+01 0. -1.
         -5    1    1    2    0  502 -0.18801673873E+03 -0.85310006754E+02 -0.73495592268E+02  0.21920717000E+03  0.47000000000E+01 0. -1.
        -11    1    1    2    0    0  0.48591392105E+02  0.83362827721E+02 -0.62750515887E+02  0.11510044169E+03  0.00000000000E+00 0. -1.
         11    1    1    2    0    0  0.12567407477E+03  0.38142304265E+02 -0.38995522614E+02  0.13700167601E+03  0.00000000000E+00 0.  1.
<mgrwt>
<rscale>  0 0.24243460E+03</rscale>
<asrwt>0</asrwt>
<pdfrwt beam="2">  1        3 0.55155333E-01 0.24649218E+03</pdfrwt>
<pdfrwt beam="1">  1       -3 0.24435053E-01 0.24649218E+03</pdfrwt>
<totfact> 0.12766460E+02</totfact>
</mgrwt>
</event>
<event>
 6    1  0.4705246E-006  0.1291819E+03  0.7546771E-02  0.1245243E+00
         -2   -1    0    0    0  501 -0.00000000000E+00  0.00000000000E+00  0.39238142175E+02  0.39238142175E+02  0.00000000000E+00 0.  1.
          2   -1    0    0  501    0  0.00000000000E+00 -0.00000000000E+00 -0.45972217040E+03  0.45972217040E+03  0.00000000000E+00 0. -1.
          5    1    1    2  502    0 -0.58536498601E+02 -0.22930063339E+02 -0.31726216344E+03  0.32346511377E+03  0.47000000000E+01 0.  1.
         -5    1    1    2    0  502  0.28125690416E+02  0.34462070920E+02 -0.56943344087E+02  0.72410794977E+02  0.47000000000E+01 0.  1.
        -11    1    1    2    0    0 -0.54728325855E+01  0.33172847879E+02 -0.93600853726E+01  0.34899870073E+02  0.00000000000E+00 0. -1.
         11    1    1    2    0    0  0.35883640770E+02 -0.44704855459E+02 -0.36918435320E+02  0.68184533752E+02  0.00000000000E+00 0.  1.
<mgrwt>
<rscale>  0 0.11870824E+03</rscale>
<asrwt>0</asrwt>
<pdfrwt beam="2">  1        2 0.70726489E-01 0.12918194E+03</pdfrwt>
<pdfrwt beam="1">  1       -2 0.60366372E-02 0.12918194E+03</pdfrwt>
<totfact> 0.95158303E+03</totfact>
</mgrwt>
</event>
<event>
 6    1  0.6142588E-006  0.1595970E+03  0.7546771E-02  0.1196919E+00
         -1   -1    0    0    0  501 -0.00000000000E+00  0.00000000000E+00  0.37285114182E+02  0.37285114182E+02  0.00000000000E+00 0.  1.
          1   -1    0    0  501    0  0.00000000000E+00 -0.00000000000E+00 -0.59681492667E+03  0.59681492667E+03  0.00000000000E+00 0. -1.
          5    1    1    2  502    0 -0.85738609538E+02  0.29953972612E+02 -0.13123030305E+03  0.15966161742E+03  0.47000000000E+01 0.  1.
         -5    1    1    2    0  502 -0.11543324995E+02 -0.49502843604E+02 -0.22448627953E+03  0.23021720086E+03  0.47000000000E+01 0.  1.
        -11    1    1    2    0    0  0.30904934999E+02  0.25697057550E+02 -0.13226881039E+02  0.42313167644E+02  0.00000000000E+00 0.  1.
         11    1    1    2    0    0  0.66376999534E+02 -0.61481865577E+01 -0.19058634888E+03  0.20190805492E+03  0.00000000000E+00 0. -1.
<mgrwt>
<rscale>  0 0.15292937E+03</rscale>
<asrwt>0</asrwt>
<pdfrwt beam="2">  1        1 0.91817678E-01 0.15959701E+03</pdfrwt>
<pdfrwt beam="1">  1       -1 0.57361716E-02 0.15959701E+03</pdfrwt>
<totfact> 0.49399926E+03</totfact>
</mgrwt>
</event>
<event>
 6    1  0.4705246E-006  0.1990477E+03  0.7546771E-02  0.1160248E+00
         -1   -1    0    0    0  501 -0.00000000000E+00  0.00000000000E+00  0.22250464444E+03  0.22250464444E+03  0.00000000000E+00 0.  1.
          1   -1    0    0  501    0  0.00000000000E+00 -0.00000000000E+00 -0.34593273364E+03  0.34593273364E+03  0.00000000000E+00 0. -1.
          5    1    1    2  502    0  0.13483605095E+03  0.76735839331E+02 -0.26252731894E+03  0.30497841377E+03  0.47000000000E+01 0. -1.
         -5    1    1    2    0  502 -0.13000369040E+02 -0.32071229571E+02 -0.18851816075E+02  0.39686954162E+02  0.47000000000E+01 0.  1.
        -11    1    1    2    0    0 -0.15777379923E+02  0.20994605392E+02  0.58903003817E+02  0.64492348627E+02  0.00000000000E+00 0. -1.
         11    1    1    2    0    0 -0.10605830199E+03 -0.65659215152E+02  0.99048041993E+02  0.15927966153E+03  0.00000000000E+00 0.  1.
<mgrwt>
<rscale>  0 0.18803210E+03</rscale>
<asrwt>0</asrwt>
<pdfrwt beam="2">  1        1 0.53220420E-01 0.19904773E+03</pdfrwt>
<pdfrwt beam="1">  1       -1 0.34231484E-01 0.19904773E+03</pdfrwt>
<totfact> 0.59719897E+02</totfact>
</mgrwt>
</event>
<event>
 6    1  0.4705246E-006  0.1503769E+03  0.7546771E-02  0.1210377E+00
          2   -1    0    0  501    0  0.00000000000E+00  0.00000000000E+00  0.33915610292E+03  0.33915610292E+03  0.00000000000E+00 0. -1.
         -2   -1    0    0    0  501 -0.00000000000E+00 -0.00000000000E+00 -0.54606882772E+02  0.54606882772E+02  0.00000000000E+00 0.  1.
          5    1    1    2  502    0 -0.91121075518E+02 -0.10434605348E+02  0.66012331067E+02  0.11310017350E+03  0.47000000000E+01 0.  1.
         -5    1    1    2    0  502  0.21828191099E+02 -0.36359827996E+02  0.11243694863E+03  0.12026081837E+03  0.47000000000E+01 0.  1.
        -11    1    1    2    0    0  0.16658730663E+02  0.12500249333E+02 -0.13839894406E+02  0.25006243578E+02  0.00000000000E+00 0.  1.
         11    1    1    2    0    0  0.52634153755E+02  0.34294184011E+02  0.11993983486E+03  0.13539575024E+03  0.00000000000E+00 0. -1.
<mgrwt>
<rscale>  0 0.14221663E+03</rscale>
<asrwt>0</asrwt>
<pdfrwt beam="1">  1        2 0.52177861E-01 0.15037688E+03</pdfrwt>
<pdfrwt beam="2">  1       -2 0.84010591E-02 0.15037688E+03</pdfrwt>
<totfact> 0.80206783E+03</totfact>
</mgrwt>
</event>
<event>
 6    1  0.4705246E-006  0.1466680E+03  0.7546771E-02  0.1211653E+00
         -1   -1    0    0    0  501 -0.00000000000E+00  0.00000000000E+00  0.19182172240E+02  0.19182172240E+02  0.00000000000E+00 0.  1.
          1   -1    0    0  501    0  0.00000000000E+00 -0.00000000000E+00 -0.10747450697E+04  0.10747450697E+04  0.00000000000E+00 0. -1.
          5    1    1    2  502    0 -0.58555696454E+02 -0.25942750037E+02 -0.32423863365E+03  0.33053680191E+03  0.47000000000E+01 0. -1.
         -5    1    1    2    0  502 -0.44444402933E+01  0.82191647036E+02 -0.40945377282E+03  0.41767176343E+03  0.47000000000E+01 0.  1.
        -11    1    1    2    0    0  0.85497696366E+02 -0.55266997361E+02 -0.28354012734E+03  0.30126284354E+03  0.00000000000E+00 0.  1.
         11    1    1    2    0    0 -0.22497559619E+02 -0.98189963833E+00 -0.38330363641E+02  0.44455833054E+02  0.00000000000E+00 0. -1.
<mgrwt>
<rscale>  0 0.14125283E+03</rscale>
<asrwt>0</asrwt>
<pdfrwt beam="2">  1        1 0.16534545E+00 0.14666803E+03</pdfrwt>
<pdfrwt beam="1">  1       -1 0.29511024E-02 0.14666803E+03</pdfrwt>
<totfact> 0.53279724E+03</totfact>
</mgrwt>
</event>
<event>
 6    1  0.4705246E-006  0.1883196E+03  0.7546771E-02  0.1164952E+00
         -3   -1    0    0    0  501 -0.00000000000E+00  0.00000000000E+00  0.86122221713E+03  0.86122221713E+03  0.00000000000E+00 0.  1.
          3   -1    0    0  501    0  0.00000000000E+00 -0.00000000000E+00 -0.37030774389E+02  0.37030774389E+02  0.00000000000E+00 0. -1.
          5    1    1    2  502    0  0.63108925403E+02 -0.27866144158E+02  0.68574427656E+02  0.97384806741E+02  0.47000000000E+01 0.  1.
         -5    1    1    2    0  502  0.74531492153E+02  0.57757939397E+02  0.33351738740E+03  0.34662207169E+03  0.47000000000E+01 0.  1.
        -11    1    1    2    0    0 -0.67075913939E+02 -0.40440691317E+02  0.32156702852E+03  0.33096824859E+03  0.00000000000E+00 0.  1.
         11    1    1    2    0    0 -0.70564503617E+02  0.10548896078E+02  0.10053259916E+03  0.12327786449E+03  0.00000000000E+00 0. -1.
<mgrwt>
<rscale>  0 0.18297755E+03</rscale>
<asrwt>0</asrwt>
<pdfrwt beam="2">  1        3 0.56970429E-02 0.18831962E+03</pdfrwt>
<pdfrwt beam="1">  1       -3 0.13249571E+00 0.18831962E+03</pdfrwt>
<totfact> 0.20921970E+02</totfact>
</mgrwt>
</event>
<event>
 6    1  0.4705246E-006  0.1264588E+03  0.7546771E-02  0.1237792E+00
          2   -1    0    0  501    0  0.00000000000E+00  0.00000000000E+00  0.10447526168E+04  0.10447526168E+04  0.00000000000E+00 0. -1.
         -2   -1    0    0    0  501 -0.00000000000E+00 -0.00000000000E+00 -0.16155036817E+02  0.16155036817E+02  0.00000000000E+00 0.  1.
          5    1    1    2  502    0 -0.47315891488E+02 -0.38856173675E+02  0.62474185672E+03  0.62775239813E+03  0.47000000000E+01 0.  1.
         -5    1    1    2    0  502  0.33558757367E+02  0.25480094205E+02  0.11184767718E+03  0.11961362082E+03  0.47000000000E+01 0.  1.
        -11    1    1    2    0    0 -0.11637859195E+02 -0.47126547762E+02  0.12045635399E+03  0.12986949020E+03  0.00000000000E+00 0. -1.
         11    1    1    2    0    0  0.25394993316E+02  0.60502627232E+02  0.17155169210E+03  0.18367214445E+03  0.00000000000E+00 0.  1.
<mgrwt>
<rscale>  0 0.12327359E+03</rscale>
<asrwt>0</asrwt>
<pdfrwt beam="1">  1        2 0.16073112E+00 0.12645879E+03</pdfrwt>
<pdfrwt beam="2">  1       -2 0.24853911E-02 0.12645879E+03</pdfrwt>
<totfact> 0.13221295E+04</totfact>
</mgrwt>
</event>
<event>
 6    1  0.4705246E-006  0.1412380E+03  0.7546771E-02  0.1222979E+00
          2   -1    0    0  501    0  0.00000000000E+00  0.00000000000E+00  0.13430631521E+03  0.13430631521E+03  0.00000000000E+00 0. -1.
         -2   -1    0    0    0  501 -0.00000000000E+00 -0.00000000000E+00 -0.11870022654E+03  0.11870022654E+03  0.00000000000E+00 0.  1.
          5    1    1    2  502    0 -0.30371747158E+02 -0.44903249332E+02 -0.48440422890E+02  0.72851282732E+02  0.47000000000E+01 0.  1.
         -5    1    1    2    0  502  0.29062721115E+02 -0.20892222101E+02  0.58503114566E+02  0.68744680644E+02  0.47000000000E+01 0.  1.
        -11    1    1    2    0    0  0.31078900662E+02  0.14401712564E+02 -0.27063993582E+02  0.43655092942E+02  0.00000000000E+00 0.  1.
         11    1    1    2    0    0 -0.29769874619E+02  0.51393758869E+02  0.32607390578E+02  0.67755485430E+02  0.00000000000E+00 0. -1.
<mgrwt>
<rscale>  0 0.13306401E+03</rscale>
<asrwt>0</asrwt>
<pdfrwt beam="1">  1        2 0.20662510E-01 0.14123795E+03</pdfrwt>
<pdfrwt beam="2">  1       -2 0.18261573E-01 0.14123795E+03</pdfrwt>
<totfact> 0.62573089E+03</totfact>
</mgrwt>
</event>
<event>
 6    1  0.4705246E-006  0.2645909E+03  0.7546771E-02  0.1104416E+00
         -1   -1    0    0    0  501 -0.00000000000E+00  0.00000000000E+00  0.16872501578E+03  0.16872501578E+03  0.00000000000E+00 0.  1.
          1   -1    0    0  501    0  0.00000000000E+00 -0.00000000000E+00 -0.10373139785E+03  0.10373139785E+03  0.00000000000E+00 0. -1.
          5    1    1    2  502    0  0.98402296809E+02  0.10451423720E+02  0.49860025483E+02  0.11090697190E+03  0.47000000000E+01 0. -1.
         -5    1    1    2    0  502 -0.25964939581E+02  0.12993548122E+02 -0.26256540255E+02  0.39427227729E+02  0.47000000000E+01 0.  1.
        -11    1    1    2    0    0 -0.27850992371E+02 -0.49399848201E+02  0.41931750919E+02  0.70528678660E+02  0.00000000000E+00 0.  1.
         11    1    1    2    0    0 -0.44586364857E+02  0.25954876359E+02 -0.54161822083E+00  0.51593535334E+02  0.00000000000E+00 0. -1.
<mgrwt>
<rscale>  0 0.26459087E+03</rscale>
<asrwt>0</asrwt>
<pdfrwt beam="2">  1        1 0.15958677E-01 0.26459087E+03</pdfrwt>
<pdfrwt beam="1">  1       -1 0.25957695E-01 0.26459087E+03</pdfrwt>
<totfact> 0.44510403E+03</totfact>
</mgrwt>
</event>
<event>
 6    1  0.4705246E-006  0.1517471E+03  0.7546771E-02  0.1207620E+00
          2   -1    0    0  501    0  0.00000000000E+00  0.00000000000E+00  0.40017237515E+03  0.40017237515E+03  0.00000000000E+00 0.  1.
         -2   -1    0    0    0  501 -0.00000000000E+00 -0.00000000000E+00 -0.76024102060E+02  0.76024102060E+02  0.00000000000E+00 0. -1.
          5    1    1    2  502    0 -0.35350098027E+02  0.45335119577E+02  0.31769468627E+03  0.32288838038E+03  0.47000000000E+01 0.  1.
         -5    1    1    2    0  502 -0.18132062737E+02  0.22066439938E+02 -0.26733758921E+00  0.28945827679E+02  0.47000000000E+01 0.  1.
        -11    1    1    2    0    0  0.45026274289E+02 -0.32009204296E+02  0.45216951368E+02  0.71389965871E+02  0.00000000000E+00 0.  1.
         11    1    1    2    0    0  0.84558864749E+01 -0.35392355219E+02 -0.38496026957E+02  0.52972303287E+02  0.00000000000E+00 0. -1.
<mgrwt>
<rscale>  0 0.14432904E+03</rscale>
<asrwt>0</asrwt>
<pdfrwt beam="1">  1        2 0.61564979E-01 0.15174712E+03</pdfrwt>
<pdfrwt beam="2">  1       -2 0.11696016E-01 0.15174712E+03</pdfrwt>
<totfact> 0.39939608E+03</totfact>
</mgrwt>
</event>
<event>
 6    1  0.4705246E-006  0.3655189E+03  0.7546771E-02  0.1056420E+00
         -2   -1    0    0    0  501 -0.00000000000E+00  0.00000000000E+00  0.23372123226E+03  0.23372123226E+03  0.00000000000E+00 0.  1.
          2   -1    0    0  501    0  0.00000000000E+00 -0.00000000000E+00 -0.14290966003E+03  0.14290966003E+03  0.00000000000E+00 0. -1.
          5    1    1    2  502    0 -0.38253740603E+02  0.56502889088E+00 -0.11009761557E+02  0.40087064963E+02  0.47000000000E+01 0.  1.
         -5    1    1    2    0  502  0.61667917410E+02 -0.12332155324E+03 -0.21380722318E+02  0.13960788952E+03  0.47000000000E+01 0.  1.
        -11    1    1    2    0    0 -0.31657454135E+02  0.77387938810E+02  0.12546031099E+03  0.15076928437E+03  0.00000000000E+00 0.  1.
         11    1    1    2    0    0  0.82432773281E+01  0.45368585535E+02 -0.22582548867E+01  0.46166653439E+02  0.00000000000E+00 0. -1.
<mgrwt>
<rscale>  0 0.36551893E+03</rscale>
<asrwt>0</asrwt>
<pdfrwt beam="2">  1        2 0.21986101E-01 0.36551893E+03</pdfrwt>
<pdfrwt beam="1">  1       -2 0.35957113E-01 0.36551893E+03</pdfrwt>
<totfact> 0.18281905E+03</totfact>
</mgrwt>
</event>
<event>
 6    1  0.4705246E-006  0.1475972E+03  0.7546771E-02  0.1211211E+00
         -2   -1    0    0    0  501 -0.00000000000E+00  0.00000000000E+00  0.14594811852E+02  0.14594811852E+02  0.00000000000E+00 0.  1.
          2   -1    0    0  501    0  0.00000000000E+00 -0.00000000000E+00 -0.14871025134E+04  0.14871025134E+04  0.00000000000E+00 0. -1.
          5    1    1    2  502    0  0.31380525947E+01  0.59983903291E+02 -0.10554406762E+04  0.10571589412E+04  0.47000000000E+01 0. -1.
         -5    1    1    2    0  502  0.73052781377E+00  0.18406172818E+02 -0.17350797022E+02  0.25738318243E+02  0.47000000000E+01 0. -1.
        -11    1    1    2    0    0  0.96621101194E+01  0.11197282621E+02 -0.81466336733E+01  0.16884997787E+02  0.00000000000E+00 0.  1.
         11    1    1    2    0    0 -0.13530690528E+02 -0.89587358730E+02 -0.39156959471E+03  0.40191506806E+03  0.00000000000E+00 0. -1.
<mgrwt>
<rscale>  0 0.14158596E+03</rscale>
<asrwt>0</asrwt>
<pdfrwt beam="2">  1        2 0.22878512E+00 0.14759719E+03</pdfrwt>
<pdfrwt beam="1">  1       -2 0.22453545E-02 0.14759719E+03</pdfrwt>
<totfact> 0.88522264E+03</totfact>
</mgrwt>
</event>
<event>
 6    1  0.4705246E-006  0.3393996E+03  0.7546771E-02  0.1067052E+00
         -1   -1    0    0    0  501 -0.00000000000E+00  0.00000000000E+00  0.57240071253E+02  0.57240071253E+02  0.00000000000E+00 0.  1.
          1   -1    0    0  501    0  0.00000000000E+00 -0.00000000000E+00 -0.50310947916E+03  0.50310947916E+03  0.00000000000E+00 0. -1.
          5    1    1    2  502    0  0.19076970596E+01 -0.21041458505E+01 -0.15958129271E+03  0.15967575182E+03  0.47000000000E+01 0.  1.
         -5    1    1    2    0  502 -0.12327469091E+03  0.16465073249E+02 -0.14122149908E+03  0.18823748261E+03  0.47000000000E+01 0.  1.
        -11    1    1    2    0    0  0.15557959812E+02 -0.10745966678E+02 -0.92164417599E+02  0.94084035760E+02  0.00000000000E+00 0. -1.
         11    1    1    2    0    0  0.10580903404E+03 -0.36149607203E+01 -0.52902198517E+02  0.11835228022E+03  0.00000000000E+00 0.  1.
<mgrwt>
<rscale>  0 0.33939960E+03</rscale>
<asrwt>0</asrwt>
<pdfrwt beam="2">  1        1 0.77401456E-01 0.33939960E+03</pdfrwt>
<pdfrwt beam="1">  1       -1 0.88061651E-02 0.33939960E+03</pdfrwt>
<totfact> 0.33329380E+03</totfact>
</mgrwt>
</event>
<event>
 6    1  0.4705246E-006  0.3059554E+03  0.7546771E-02  0.1082301E+00
         -1   -1    0    0    0  501 -0.00000000000E+00  0.00000000000E+00  0.36071594830E+02  0.36071594830E+02  0.00000000000E+00 0.  1.
          1   -1    0    0  501    0  0.00000000000E+00 -0.00000000000E+00 -0.64877037070E+03  0.64877037070E+03  0.00000000000E+00 0. -1.
          5    1    1    2  502    0  0.11763019111E+02  0.30637172433E+01  0.49876920673E+01  0.13954284436E+02  0.47000000000E+01 0. -1.
         -5    1    1    2    0  502 -0.11956700743E+03  0.70241019767E+01 -0.32212349809E+03  0.34370226257E+03  0.47000000000E+01 0. -1.
        -11    1    1    2    0    0  0.32312938233E+02 -0.12037357328E+02 -0.16766107637E+02  0.38342226252E+02  0.00000000000E+00 0.  1.
         11    1    1    2    0    0  0.75491050089E+02  0.19495381078E+01 -0.27879686221E+03  0.28884319227E+03  0.00000000000E+00 0. -1.
<mgrwt>
<rscale>  0 0.30595543E+03</rscale>
<asrwt>0</asrwt>
<pdfrwt beam="2">  1        1 0.99810822E-01 0.30595543E+03</pdfrwt>
<pdfrwt beam="1">  1       -1 0.55494764E-02 0.30595543E+03</pdfrwt>
<totfact> 0.47360268E+03</totfact>
</mgrwt>
</event>
<event>
 6    1  0.4705246E-006  0.1398527E+03  0.7546771E-02  0.1221079E+00
          2   -1    0    0  501    0  0.00000000000E+00  0.00000000000E+00  0.52723708837E+03  0.52723708837E+03  0.00000000000E+00 0.  1.
         -2   -1    0    0    0  501 -0.00000000000E+00 -0.00000000000E+00 -0.31861607844E+02  0.31861607844E+02  0.00000000000E+00 0. -1.
          5    1    1    2  502    0 -0.25590080480E+02  0.83479114830E+02  0.17289608822E+03  0.19374922491E+03  0.47000000000E+01 0.  1.
         -5    1    1    2    0  502  0.45867981937E+02 -0.24124095646E+02  0.86531470586E+02  0.10097340818E+03  0.47000000000E+01 0.  1.
        -11    1    1    2    0    0 -0.48338629089E+02 -0.69962363760E-01  0.14034422946E+03  0.14843561129E+03  0.00000000000E+00 0.  1.
         11    1    1    2    0    0  0.28060727631E+02 -0.59285056820E+02  0.95603692264E+02  0.11594045184E+03  0.00000000000E+00 0. -1.
<mgrwt>
<rscale>  0 0.13439344E+03</rscale>
<asrwt>0</asrwt>
<pdfrwt beam="1">  1        2 0.81113392E-01 0.13985268E+03</pdfrwt>
<pdfrwt beam="2">  1       -2 0.49017862E-02 0.13985268E+03</pdfrwt>
<totfact> 0.11272711E+04</totfact>
</mgrwt>
</event>
<event>
 6    1  0.4705246E-006  0.1273318E+03  0.7546771E-02  0.1246650E+00
         -1   -1    0    0    0  501 -0.00000000000E+00  0.00000000000E+00  0.18738685437E+03  0.18738685437E+03  0.00000000000E+00 0.  1.
          1   -1    0    0  501    0  0.00000000000E+00 -0.00000000000E+00 -0.65097745148E+02  0.65097745148E+02  0.00000000000E+00 0. -1.
          5    1    1    2  502    0  0.32503414694E+02  0.41850950308E+02  0.36552327075E+02  0.64545616606E+02  0.47000000000E+01 0. -1.
         -5    1    1    2    0  502 -0.31378713149E+02 -0.66099598753E+02  0.31112043069E+02  0.79648162679E+02  0.47000000000E+01 0. -1.
        -11    1    1    2    0    0 -0.23910030071E+02  0.35775960331E+02  0.67223930697E+02  0.79816450272E+02  0.00000000000E+00 0.  1.
         11    1    1    2    0    0  0.22785328526E+02 -0.11527311886E+02 -0.12599191618E+02  0.28474369963E+02  0.00000000000E+00 0. -1.
<mgrwt>
<rscale>  0 0.11787193E+03</rscale>
<asrwt>0</asrwt>
<pdfrwt beam="2">  1        1 0.10015038E-01 0.12733177E+03</pdfrwt>
<pdfrwt beam="1">  1       -1 0.28828747E-01 0.12733177E+03</pdfrwt>
<totfact> 0.66084611E+03</totfact>
</mgrwt>
</event>
<event>
 6    1  0.4705246E-006  0.1274779E+03  0.7546771E-02  0.1247606E+00
         -1   -1    0    0    0  501 -0.00000000000E+00  0.00000000000E+00  0.22414330255E+02  0.22414330255E+02  0.00000000000E+00 0.  1.
          1   -1    0    0  501    0  0.00000000000E+00 -0.00000000000E+00 -0.53464930032E+03  0.53464930032E+03  0.00000000000E+00 0. -1.
          5    1    1    2  502    0  0.62729004645E+02 -0.63454644388E+01 -0.11216858743E+03  0.12875975672E+03  0.47000000000E+01 0. -1.
         -5    1    1    2    0  502 -0.51873655707E+02  0.28971932392E+02 -0.19211517878E+03  0.20114815669E+03  0.47000000000E+01 0. -1.
        -11    1    1    2    0    0  0.29084346861E+02  0.18109345391E+02 -0.72920199536E+02  0.80568003098E+02  0.00000000000E+00 0.  1.
         11    1    1    2    0    0 -0.39939695799E+02 -0.40735813345E+02 -0.13503100431E+03  0.14658771407E+03  0.00000000000E+00 0. -1.
<mgrwt>
<rscale>  0 0.11730760E+03</rscale>
<asrwt>0</asrwt>
<pdfrwt beam="2">  1        1 0.82253737E-01 0.12747792E+03</pdfrwt>
<pdfrwt beam="1">  1       -1 0.34483585E-02 0.12747792E+03</pdfrwt>
<totfact> 0.11969011E+04</totfact>
</mgrwt>
</event>
<event>
 6    1  0.4705246E-006  0.1707738E+03  0.7546771E-02  0.1183484E+00
         -2   -1    0    0    0  501 -0.00000000000E+00  0.00000000000E+00  0.25188553474E+02  0.25188553474E+02  0.00000000000E+00 0.  1.
          2   -1    0    0  501    0  0.00000000000E+00 -0.00000000000E+00 -0.10417773221E+04  0.10417773221E+04  0.00000000000E+00 0. -1.
          5    1    1    2  502    0  0.47867521286E+02  0.60817594816E+02 -0.33828413409E+03  0.34705665936E+03  0.47000000000E+01 0.  1.
         -5    1    1    2    0  502 -0.75200181185E+02  0.52270773713E+02 -0.30260443769E+03  0.31619430220E+03  0.47000000000E+01 0.  1.
        -11    1    1    2    0    0 -0.12009823196E+02 -0.23661847059E+02 -0.16006463833E+02  0.30989122993E+02  0.00000000000E+00 0.  1.
         11    1    1    2    0    0  0.39342483095E+02 -0.89426521470E+02 -0.35969373304E+03  0.37272579104E+03  0.00000000000E+00 0. -1.
<mgrwt>
<rscale>  0 0.16470631E+03</rscale>
<asrwt>0</asrwt>
<pdfrwt beam="2">  1        2 0.16027340E+00 0.17077376E+03</pdfrwt>
<pdfrwt beam="1">  1       -2 0.38751629E-02 0.17077376E+03</pdfrwt>
<totfact> 0.70025346E+03</totfact>
</mgrwt>
</event>
<event>
 6    1  0.4705246E-006  0.1560236E+03  0.7546771E-02  0.1201591E+00
          1   -1    0    0  501    0  0.00000000000E+00  0.00000000000E+00  0.34188275110E+03  0.34188275110E+03  0.00000000000E+00 0. -1.
         -1   -1    0    0    0  501 -0.00000000000E+00 -0.00000000000E+00 -0.68721228160E+02  0.68721228160E+02  0.00000000000E+00 0.  1.
          5    1    1    2  502    0 -0.44573771481E+02 -0.78970288356E+00  0.37398856385E+02  0.58379869764E+02  0.47000000000E+01 0.  1.
         -5    1    1    2    0  502  0.49407933244E+02  0.94007452884E+02  0.18340734714E+03  0.21198794789E+03  0.47000000000E+01 0.  1.
        -11    1    1    2    0    0 -0.10531964606E+02 -0.67025571529E+02 -0.13461348382E+02  0.69170495281E+02  0.00000000000E+00 0.  1.
         11    1    1    2    0    0  0.56978028435E+01 -0.26192178471E+02  0.65816667798E+02  0.71065666326E+02  0.00000000000E+00 0. -1.
<mgrwt>
<rscale>  0 0.14909368E+03</rscale>
<asrwt>0</asrwt>
<pdfrwt beam="1">  1        1 0.52597345E-01 0.15602364E+03</pdfrwt>
<pdfrwt beam="2">  1       -1 0.10572497E-01 0.15602364E+03</pdfrwt>
<totfact> 0.40248449E+03</totfact>
</mgrwt>
</event>
<event>
 6    1  0.4705246E-006  0.2017635E+03  0.7546771E-02  0.1160286E+00
          1   -1    0    0  501    0  0.00000000000E+00  0.00000000000E+00  0.26877241918E+04  0.26877241918E+04  0.00000000000E+00 0. -1.
         -1   -1    0    0    0  501 -0.00000000000E+00 -0.00000000000E+00 -0.15740123664E+02  0.15740123664E+02  0.00000000000E+00 0.  1.
          5    1    1    2  502    0  0.36125208397E+01  0.84825446401E+02  0.16251433723E+04  0.16273664238E+04  0.47000000000E+01 0. -1.
         -5    1    1    2    0  502 -0.87715837089E+02  0.29585627115E+01  0.53414179115E+03  0.54132463847E+03  0.47000000000E+01 0.  1.
        -11    1    1    2    0    0  0.76854949141E+02 -0.10503440851E+03  0.40314320889E+03  0.42363115684E+03  0.00000000000E+00 0.  1.
         11    1    1    2    0    0  0.72483671077E+01  0.17250399395E+02  0.10955569572E+03  0.11114209630E+03  0.00000000000E+00 0. -1.
<mgrwt>
<rscale>  0 0.18799043E+03</rscale>
<asrwt>0</asrwt>
<pdfrwt beam="1">  1        1 0.41349566E+00 0.20176349E+03</pdfrwt>
<pdfrwt beam="2">  1       -1 0.24215596E-02 0.20176349E+03</pdfrwt>
<totfact> 0.62127341E+02</totfact>
</mgrwt>
</event>
<event>
 6    1  0.4705246E-006  0.1588967E+03  0.7546771E-02  0.1198199E+00
          2   -1    0    0  501    0  0.00000000000E+00  0.00000000000E+00  0.58869504469E+03  0.58869504469E+03  0.00000000000E+00 0. -1.
         -2   -1    0    0    0  501 -0.00000000000E+00 -0.00000000000E+00 -0.47567266928E+02  0.47567266928E+02  0.00000000000E+00 0.  1.
          5    1    1    2  502    0 -0.14597859522E+02  0.12714646866E+03  0.36242099476E+03  0.38438312845E+03  0.47000000000E+01 0.  1.
         -5    1    1    2    0  502 -0.16013105421E+01 -0.30393094633E+02  0.82516994504E+02  0.88076380369E+02  0.47000000000E+01 0.  1.
        -11    1    1    2    0    0 -0.13239456953E+01 -0.10616347807E+03  0.97119635827E+02  0.14389114139E+03  0.00000000000E+00 0. -1.
         11    1    1    2    0    0  0.17523115759E+02  0.94101040398E+01 -0.92984732820E+00  0.19911661408E+02  0.00000000000E+00 0.  1.
<mgrwt>
<rscale>  0 0.15186586E+03</rscale>
<asrwt>0</asrwt>
<pdfrwt beam="1">  1        2 0.90568463E-01 0.15889674E+03</pdfrwt>
<pdfrwt beam="2">  1       -2 0.73180415E-02 0.15889674E+03</pdfrwt>
<totfact> 0.54569604E+03</totfact>
</mgrwt>
</event>
<event>
 6    1  0.4705246E-006  0.1714784E+03  0.7546771E-02  0.1182341E+00
          2   -1    0    0  501    0  0.00000000000E+00  0.00000000000E+00  0.64000831423E+03  0.64000831423E+03  0.00000000000E+00 0.  1.
         -2   -1    0    0    0  501 -0.00000000000E+00 -0.00000000000E+00 -0.45165132327E+02  0.45165132327E+02  0.00000000000E+00 0. -1.
          5    1    1    2  502    0 -0.27627437145E+02 -0.44586158277E+02  0.51533386796E+02  0.73681617434E+02  0.47000000000E+01 0.  1.
         -5    1    1    2    0  502 -0.87998634341E+02  0.24372706548E+02  0.37603730935E+03  0.38699345795E+03  0.47000000000E+01 0.  1.
        -11    1    1    2    0    0  0.38278278387E+02 -0.26503458093E+02  0.17818894604E+02  0.49851508423E+02  0.00000000000E+00 0. -1.
         11    1    1    2    0    0  0.77347793098E+02  0.46716909822E+02  0.14945359115E+03  0.17464686275E+03  0.00000000000E+00 0.  1.
<mgrwt>
<rscale>  0 0.16576203E+03</rscale>
<asrwt>0</asrwt>
<pdfrwt beam="1">  1        2 0.98462811E-01 0.17147835E+03</pdfrwt>
<pdfrwt beam="2">  1       -2 0.69484824E-02 0.17147835E+03</pdfrwt>
<totfact> 0.53857549E+03</totfact>
</mgrwt>
</event>
<event>
 6    1  0.4705246E-006  0.2797462E+03  0.7546771E-02  0.1097491E+00
          2   -1    0    0  501    0  0.00000000000E+00  0.00000000000E+00  0.28866244257E+03  0.28866244257E+03  0.00000000000E+00 0.  1.
         -2   -1    0    0    0  501 -0.00000000000E+00 -0.00000000000E+00 -0.28751795080E+03  0.28751795080E+03  0.00000000000E+00 0. -1.
          5    1    1    2  502    0  0.72833831417E+02 -0.35790536472E+02  0.71700988549E+02  0.10839211807E+03  0.47000000000E+01 0.  1.
         -5    1    1    2    0  502  0.17686289796E+03  0.52686235176E+02  0.18458525273E+02  0.18552393702E+03  0.47000000000E+01 0.  1.
        -11    1    1    2    0    0 -0.21378728697E+03  0.72371945598E+01 -0.41310086970E+02  0.21786212232E+03  0.00000000000E+00 0.  1.
         11    1    1    2    0    0 -0.35909442403E+02 -0.24132893264E+02 -0.47704935080E+02  0.64402215971E+02  0.00000000000E+00 0. -1.
<mgrwt>
<rscale>  0 0.27672630E+03</rscale>
<asrwt>0</asrwt>
<pdfrwt beam="1">  1        2 0.44409607E-01 0.27974615E+03</pdfrwt>
<pdfrwt beam="2">  1       -2 0.44233531E-01 0.27974615E+03</pdfrwt>
<totfact> 0.56078950E+02</totfact>
</mgrwt>
</event>
<event>
 6    1  0.4705246E-006  0.1734528E+03  0.7546771E-02  0.1179766E+00
          2   -1    0    0  501    0  0.00000000000E+00  0.00000000000E+00  0.20551266189E+04  0.20551266189E+04  0.00000000000E+00 0. -1.
         -2   -1    0    0    0  501 -0.00000000000E+00 -0.00000000000E+00 -0.16257875642E+02  0.16257875642E+02  0.00000000000E+00 0.  1.
          5    1    1    2  502    0  0.89866896739E+02 -0.27735519810E+02  0.13992661142E+04  0.14024311272E+04  0.47000000000E+01 0. -1.
         -5    1    1    2    0  502  0.30374533052E+02  0.29592701376E+02  0.13434046200E+03  0.14095314811E+03  0.47000000000E+01 0. -1.
        -11    1    1    2    0    0 -0.28890606022E+02  0.30172482772E+02  0.65332305664E+02  0.77545831585E+02  0.00000000000E+00 0.  1.
         11    1    1    2    0    0 -0.91350823768E+02 -0.32029664338E+02  0.43992986135E+03  0.45045438760E+03  0.00000000000E+00 0. -1.
<mgrwt>
<rscale>  0 0.16817311E+03</rscale>
<asrwt>0</asrwt>
<pdfrwt beam="1">  1        2 0.31617312E+00 0.17345285E+03</pdfrwt>
<pdfrwt beam="2">  1       -2 0.25012133E-02 0.17345285E+03</pdfrwt>
<totfact> 0.38569832E+03</totfact>
</mgrwt>
</event>
<event>
 6    1  0.4705246E-006  0.3608186E+03  0.7546771E-02  0.1058260E+00
          2   -1    0    0  501    0  0.00000000000E+00  0.00000000000E+00  0.87949434976E+02  0.87949434976E+02  0.00000000000E+00 0. -1.
         -2   -1    0    0    0  501 -0.00000000000E+00 -0.00000000000E+00 -0.37007070035E+03  0.37007070035E+03  0.00000000000E+00 0.  1.
          5    1    1    2  502    0 -0.25030693535E+02 -0.72347930968E+01  0.21123151318E+02  0.33869682189E+02  0.47000000000E+01 0.  1.
         -5    1    1    2    0  502 -0.10952040013E+03  0.59623038640E+02 -0.15678432404E+03  0.20038223237E+03  0.47000000000E+01 0.  1.
        -11    1    1    2    0    0  0.85940206073E+02  0.11462543563E+00 -0.38311857663E+02  0.94093201649E+02  0.00000000000E+00 0. -1.
         11    1    1    2    0    0  0.48610887597E+02 -0.52502870979E+02 -0.10814823499E+03  0.12967501913E+03  0.00000000000E+00 0.  1.
<mgrwt>
<rscale>  0 0.36081856E+03</rscale>
<asrwt>0</asrwt>
<pdfrwt beam="1">  1        2 0.13530682E-01 0.36081856E+03</pdfrwt>
<pdfrwt beam="2">  1       -2 0.56933954E-01 0.36081856E+03</pdfrwt>
<totfact> 0.13086704E+03</totfact>
</mgrwt>
</event>
<event>
 6    1  0.4705246E-006  0.1287285E+03  0.7546771E-02  0.1243095E+00
          2   -1    0    0  501    0  0.00000000000E+00  0.00000000000E+00  0.26426169684E+03  0.26426169684E+03  0.00000000000E+00 0.  1.
         -2   -1    0    0    0  501 -0.00000000000E+00 -0.00000000000E+00 -0.50825422198E+02  0.50825422198E+02  0.00000000000E+00 0. -1.
          5    1    1    2  502    0  0.10922685217E+02  0.12866969358E+02 -0.16212303572E+02  0.23870331793E+02  0.47000000000E+01 0. -1.
         -5    1    1    2    0  502 -0.18436135295E+02 -0.42697241721E+02  0.17190802423E+03  0.17814994900E+03  0.47000000000E+01 0. -1.
        -11    1    1    2    0    0  0.15732896735E+02 -0.82021453391E+01  0.70045038968E+02  0.72257226018E+02  0.00000000000E+00 0.  1.
         11    1    1    2    0    0 -0.82194466569E+01  0.38032417702E+02 -0.12304484979E+02  0.40809612228E+02  0.00000000000E+00 0. -1.
<mgrwt>
<rscale>  0 0.12000129E+03</rscale>
<asrwt>0</asrwt>
<pdfrwt beam="1">  1        2 0.40655645E-01 0.12872854E+03</pdfrwt>
<pdfrwt beam="2">  1       -2 0.78192959E-02 0.12872854E+03</pdfrwt>
<totfact> 0.11546939E+04</totfact>
</mgrwt>
</event>
<event>
 6    1  0.4705246E-006  0.1769862E+03  0.7546771E-02  0.1172750E+00
          1   -1    0    0  501    0  0.00000000000E+00  0.00000000000E+00  0.50124958966E+03  0.50124958966E+03  0.00000000000E+00 0. -1.
         -1   -1    0    0    0  501 -0.00000000000E+00 -0.00000000000E+00 -0.60550610582E+02  0.60550610582E+02  0.00000000000E+00 0.  1.
          5    1    1    2  502    0 -0.49231700377E+02 -0.75661448408E+01  0.37173246716E+02  0.62329344142E+02  0.47000000000E+01 0. -1.
         -5    1    1    2    0  502 -0.10269266564E+02  0.11783191736E+03  0.22063872366E+03  0.25038641130E+03  0.47000000000E+01 0. -1.
        -11    1    1    2    0    0 -0.19044117501E+02 -0.41660531700E+02  0.95479157949E+01  0.46791462992E+02  0.00000000000E+00 0. -1.
         11    1    1    2    0    0  0.78545084442E+02 -0.68605240824E+02  0.17333909291E+03  0.20229298181E+03  0.00000000000E+00 0.  1.
<mgrwt>
<rscale>  0 0.17498131E+03</rscale>
<asrwt>0</asrwt>
<pdfrwt beam="1">  1        1 0.77115319E-01 0.17698625E+03</pdfrwt>
<pdfrwt beam="2">  1       -1 0.93154789E-02 0.17698625E+03</pdfrwt>
<totfact> 0.30126183E+03</totfact>
</mgrwt>
</event>
<event>
 6    1  0.4705246E-006  0.1549084E+03  0.7546771E-02  0.1207452E+00
         -1   -1    0    0    0  501 -0.00000000000E+00  0.00000000000E+00  0.11759538451E+04  0.11759538451E+04  0.00000000000E+00 0.  1.
          1   -1    0    0  501    0  0.00000000000E+00 -0.00000000000E+00 -0.15849576219E+02  0.15849576219E+02  0.00000000000E+00 0. -1.
          5    1    1    2  502    0  0.60071667248E+02 -0.85482083256E+02  0.29713003823E+03  0.31499863711E+03  0.47000000000E+01 0.  1.
         -5    1    1    2    0  502 -0.30253049455E+02 -0.10570387294E+01  0.31276613110E+03  0.31426279941E+03  0.47000000000E+01 0.  1.
        -11    1    1    2    0    0  0.72745040384E+01 -0.91585478237E+01  0.28019822758E+02  0.30362935869E+02  0.00000000000E+00 0.  1.
         11    1    1    2    0    0 -0.37093121831E+02  0.95697669809E+02  0.52218827681E+03  0.53217904895E+03  0.00000000000E+00 0. -1.
<mgrwt>
<rscale>  0 0.14445862E+03</rscale>
<asrwt>0</asrwt>
<pdfrwt beam="2">  1        1 0.24383973E-02 0.15490842E+03</pdfrwt>
<pdfrwt beam="1">  1       -1 0.18091591E+00 0.15490842E+03</pdfrwt>
<totfact> 0.10142466E+03</totfact>
</mgrwt>
</event>
<event>
 6    1  0.4705246E-006  0.3732947E+03  0.7546771E-02  0.1053440E+00
          1   -1    0    0  501    0  0.00000000000E+00  0.00000000000E+00  0.92467019383E+03  0.92467019383E+03  0.00000000000E+00 0. -1.
         -1   -1    0    0    0  501 -0.00000000000E+00 -0.00000000000E+00 -0.37675315649E+02  0.37675315649E+02  0.00000000000E+00 0.  1.
          5    1    1    2  502    0  0.76405755938E+01  0.39948641938E+01  0.51412041079E+03  0.51421418118E+03  0.47000000000E+01 0. -1.
         -5    1    1    2    0  502  0.86260480348E+02  0.32446571481E+02  0.23223154826E+03  0.24989444267E+03  0.47000000000E+01 0.  1.
        -11    1    1    2    0    0 -0.10789863147E+03 -0.19414018473E+02  0.13767953634E+03  0.17599623153E+03  0.00000000000E+00 0.  1.
         11    1    1    2    0    0  0.13997575525E+02 -0.17027417201E+02  0.29633827900E+01  0.22240654098E+02  0.00000000000E+00 0. -1.
<mgrwt>
<rscale>  0 0.37329474E+03</rscale>
<asrwt>0</asrwt>
<pdfrwt beam="1">  1        1 0.14225694E+00 0.37329474E+03</pdfrwt>
<pdfrwt beam="2">  1       -1 0.57962031E-02 0.37329474E+03</pdfrwt>
<totfact> 0.25780770E+03</totfact>
</mgrwt>
</event>
<event>
 6    1  0.4705246E-006  0.2770947E+03  0.7546771E-02  0.1097286E+00
          1   -1    0    0  501    0  0.00000000000E+00  0.00000000000E+00  0.35549904635E+02  0.35549904635E+02  0.00000000000E+00 0. -1.
         -1   -1    0    0    0  501 -0.00000000000E+00 -0.00000000000E+00 -0.53995536253E+03  0.53995536253E+03  0.00000000000E+00 0.  1.
          5    1    1    2  502    0 -0.46852324876E+02  0.18883059602E+01 -0.10257071291E+03  0.11287846204E+03  0.47000000000E+01 0. -1.
         -5    1    1    2    0  502  0.62777403582E+02  0.81658581874E+02 -0.17031340045E+03  0.19909261856E+03  0.47000000000E+01 0. -1.
        -11    1    1    2    0    0 -0.37182004652E+02 -0.38580687796E+02 -0.19391063519E+03  0.20117729838E+03  0.00000000000E+00 0.  1.
         11    1    1    2    0    0  0.21256925946E+02 -0.44966200039E+02 -0.37610709341E+02  0.62356888182E+02  0.00000000000E+00 0. -1.
<mgrwt>
<rscale>  0 0.27709465E+03</rscale>
<asrwt>0</asrwt>
<pdfrwt beam="1">  1        1 0.54692158E-02 0.27709465E+03</pdfrwt>
<pdfrwt beam="2">  1       -1 0.83070060E-01 0.27709465E+03</pdfrwt>
<totfact> 0.22116912E+03</totfact>
</mgrwt>
</event>
<event>
 6    1  0.4705246E-006  0.3930030E+03  0.7546771E-02  0.1046230E+00
          2   -1    0    0  501    0  0.00000000000E+00  0.00000000000E+00  0.80709902298E+02  0.80709902298E+02  0.00000000000E+00 0. -1.
         -2   -1    0    0    0  501 -0.00000000000E+00 -0.00000000000E+00 -0.47841518330E+03  0.47841518330E+03  0.00000000000E+00 0.  1.
          5    1    1    2  502    0 -0.47438203750E+01  0.19069850857E+02 -0.77652002392E+02  0.80237687647E+02  0.47000000000E+01 0.  1.
         -5    1    1    2    0  502 -0.13309662843E+03  0.31271554737E+02 -0.28234729387E+02  0.13968504780E+03  0.47000000000E+01 0.  1.
        -11    1    1    2    0    0  0.53512811771E+02 -0.50615927416E+02 -0.68874881763E+02  0.10084315777E+03  0.00000000000E+00 0.  1.
         11    1    1    2    0    0  0.84327637036E+02  0.27452182239E+00 -0.22294366746E+03  0.23835919237E+03  0.00000000000E+00 0. -1.
<mgrwt>
<rscale>  0 0.39300302E+03</rscale>
<asrwt>0</asrwt>
<pdfrwt beam="1">  1        2 0.12416908E-01 0.39300302E+03</pdfrwt>
<pdfrwt beam="2">  1       -2 0.73602336E-01 0.39300302E+03</pdfrwt>
<totfact> 0.84385833E+02</totfact>
</mgrwt>
</event>
<event>
 6    1  0.4705246E-006  0.1389004E+03  0.7546771E-02  0.1226560E+00
          3   -1    0    0  501    0  0.00000000000E+00  0.00000000000E+00  0.66898873036E+03  0.66898873036E+03  0.00000000000E+00 0. -1.
         -3   -1    0    0    0  501 -0.00000000000E+00 -0.00000000000E+00 -0.22905452602E+02  0.22905452602E+02  0.00000000000E+00 0.  1.
          5    1    1    2  502    0  0.15740402865E+02  0.40465750554E+02  0.16771728819E+03  0.17331017283E+03  0.47000000000E+01 0.  1.
         -5    1    1    2    0  502  0.23066185688E+02 -0.86971865359E+02  0.18510737222E+03  0.20587127905E+03  0.47000000000E+01 0.  1.
        -11    1    1    2    0    0 -0.71201943924E+01  0.46688921847E+02  0.26816744754E+03  0.27229456938E+03  0.00000000000E+00 0. -1.
         11    1    1    2    0    0 -0.31686394160E+02 -0.18280704248E+00  0.25091169810E+02  0.40418161706E+02  0.00000000000E+00 0.  1.
<mgrwt>
<rscale>  0 0.13060526E+03</rscale>
<asrwt>0</asrwt>
<pdfrwt beam="1">  1        3 0.10292133E+00 0.13890044E+03</pdfrwt>
<pdfrwt beam="2">  1       -3 0.35239163E-02 0.13890044E+03</pdfrwt>
<totfact> 0.78075736E+02</totfact>
</mgrwt>
</event>
<event>
 6    1  0.4705246E-006  0.3190931E+03  0.7546771E-02  0.1076067E+00
         -2   -1    0    0    0  501 -0.00000000000E+00  0.00000000000E+00  0.50673098700E+02  0.50673098700E+02  0.00000000000E+00 0.  1.
          2   -1    0    0  501    0  0.00000000000E+00 -0.00000000000E+00 -0.50233968847E+03  0.50233968847E+03  0.00000000000E+00 0. -1.
          5    1    1    2  502    0 -0.12411684082E+03  0.26083282760E+02 -0.31018978039E+03  0.33514939605E+03  0.47000000000E+01 0.  1.
         -5    1    1    2    0  502  0.25007326443E+02  0.76210738990E+01 -0.20471352833E+02  0.33535256522E+02  0.47000000000E+01 0.  1.
        -11    1    1    2    0    0  0.47935742611E+02  0.86493710459E+01 -0.28661857844E+01  0.48794078125E+02  0.00000000000E+00 0.  1.
         11    1    1    2    0    0  0.51173771767E+02 -0.42353727705E+02 -0.11813927077E+03  0.13553405648E+03  0.00000000000E+00 0. -1.
<mgrwt>
<rscale>  0 0.31909314E+03</rscale>
<asrwt>0</asrwt>
<pdfrwt beam="2">  1        2 0.77283028E-01 0.31909314E+03</pdfrwt>
<pdfrwt beam="1">  1       -2 0.77958615E-02 0.31909314E+03</pdfrwt>
<totfact> 0.61034236E+03</totfact>
</mgrwt>
</event>
<event>
 6    1  0.4705246E-006  0.1262415E+03  0.7546771E-02  0.1248442E+00
         -1   -1    0    0    0  501 -0.00000000000E+00  0.00000000000E+00  0.11719462807E+03  0.11719462807E+03  0.00000000000E+00 0.  1.
          1   -1    0    0  501    0  0.00000000000E+00 -0.00000000000E+00 -0.12269550150E+03  0.12269550150E+03  0.00000000000E+00 0. -1.
          5    1    1    2  502    0 -0.43537906684E+02 -0.27207522621E+02 -0.70096707094E+02  0.87014004339E+02  0.47000000000E+01 0. -1.
         -5    1    1    2    0  502  0.27956445550E+02  0.36065943999E+02  0.18368195555E+02  0.49414529971E+02  0.47000000000E+01 0. -1.
        -11    1    1    2    0    0  0.78530270139E+01 -0.45954900428E+02  0.46105263474E+02  0.65568424005E+02  0.00000000000E+00 0.  1.
         11    1    1    2    0    0  0.77284341208E+01  0.37096479050E+02  0.12237463527E+00  0.37893171250E+02  0.00000000000E+00 0. -1.
<mgrwt>
<rscale>  0 0.11681727E+03</rscale>
<asrwt>0</asrwt>
<pdfrwt beam="2">  1        1 0.18876231E-01 0.12624146E+03</pdfrwt>
<pdfrwt beam="1">  1       -1 0.18029943E-01 0.12624146E+03</pdfrwt>
<totfact> 0.62174614E+03</totfact>
</mgrwt>
</event>
<event>
 6    1  0.4705246E-006  0.1326016E+03  0.7546771E-02  0.1236822E+00
          2   -1    0    0  501    0  0.00000000000E+00  0.00000000000E+00  0.57471063171E+02  0.57471063171E+02  0.00000000000E+00 0. -1.
         -2   -1    0    0    0  501 -0.00000000000E+00 -0.00000000000E+00 -0.25421451154E+03  0.25421451154E+03  0.00000000000E+00 0.  1.
          5    1    1    2  502    0  0.30812969076E+02  0.61819206630E+02 -0.89636696240E+02  0.11326023435E+03  0.47000000000E+01 0. -1.
         -5    1    1    2    0  502  0.17175981694E+01 -0.31848859166E+02  0.18548719298E+02  0.37194689960E+02  0.47000000000E+01 0. -1.
        -11    1    1    2    0    0 -0.48000409488E+01  0.26698107172E+02 -0.76758882268E+02  0.81411027058E+02  0.00000000000E+00 0.  1.
         11    1    1    2    0    0 -0.27730526296E+02 -0.56668454636E+02 -0.48896589156E+02  0.79819623343E+02  0.00000000000E+00 0. -1.
<mgrwt>
<rscale>  0 0.12388498E+03</rscale>
<asrwt>0</asrwt>
<pdfrwt beam="1">  1        2 0.88417019E-02 0.13260160E+03</pdfrwt>
<pdfrwt beam="2">  1       -2 0.39109925E-01 0.13260160E+03</pdfrwt>
<totfact> 0.44285434E+03</totfact>
</mgrwt>
</event>
<event>
 6    1  0.4705246E-006  0.1957763E+03  0.7546771E-02  0.1157629E+00
          1   -1    0    0  501    0  0.00000000000E+00  0.00000000000E+00  0.16446053081E+03  0.16446053081E+03  0.00000000000E+00 0. -1.
         -1   -1    0    0    0  501 -0.00000000000E+00 -0.00000000000E+00 -0.22824356082E+03  0.22824356082E+03  0.00000000000E+00 0.  1.
          5    1    1    2  502    0 -0.99128881842E+02 -0.13671885297E+03  0.24560751090E+02  0.17071584714E+03  0.47000000000E+01 0.  1.
         -5    1    1    2    0  502 -0.21379180293E+01  0.25155152770E+02 -0.45532929458E+01  0.26080162596E+02  0.47000000000E+01 0.  1.
        -11    1    1    2    0    0  0.10891590581E+03  0.87375475323E+02 -0.94253530987E+02  0.16846624686E+03  0.00000000000E+00 0.  1.
         11    1    1    2    0    0 -0.76491059383E+01  0.24188224876E+02  0.10463042831E+02  0.27441835026E+02  0.00000000000E+00 0. -1.
<mgrwt>
<rscale>  0 0.19092625E+03</rscale>
<asrwt>0</asrwt>
<pdfrwt beam="1">  1        1 0.25301620E-01 0.19577633E+03</pdfrwt>
<pdfrwt beam="2">  1       -1 0.35114394E-01 0.19577633E+03</pdfrwt>
<totfact> 0.14530644E+03</totfact>
</mgrwt>
</event>
<event>
 6    1  0.4705246E-006  0.1729580E+03  0.7546771E-02  0.1180885E+00
         -2   -1    0    0    0  501 -0.00000000000E+00  0.00000000000E+00  0.13015199300E+03  0.13015199300E+03  0.00000000000E+00 0.  1.
          2   -1    0    0  501    0  0.00000000000E+00 -0.00000000000E+00 -0.23846191652E+03  0.23846191652E+03  0.00000000000E+00 0. -1.
          5    1    1    2  502    0 -0.63237675204E+02  0.82635599405E+01 -0.45586861877E+01  0.64110542096E+02  0.47000000000E+01 0.  1.
         -5    1    1    2    0  502 -0.32493841626E+02 -0.79840840089E+02 -0.12535090458E+03  0.15220167138E+03  0.47000000000E+01 0.  1.
        -11    1    1    2    0    0  0.69051425440E+02  0.43611165809E+02 -0.30717063914E+02  0.87255780061E+02  0.00000000000E+00 0. -1.
         11    1    1    2    0    0  0.26680091390E+02  0.27966114340E+02  0.52316731165E+02  0.65045915995E+02  0.00000000000E+00 0.  1.
<mgrwt>
<rscale>  0 0.16712009E+03</rscale>
<asrwt>0</asrwt>
<pdfrwt beam="2">  1        2 0.36686449E-01 0.17295801E+03</pdfrwt>
<pdfrwt beam="1">  1       -2 0.20023384E-01 0.17295801E+03</pdfrwt>
<totfact> 0.28831776E+03</totfact>
</mgrwt>
</event>
<event>
 6    1  0.4705246E-006  0.1534911E+03  0.7546771E-02  0.1205028E+00
         -2   -1    0    0    0  501 -0.00000000000E+00  0.00000000000E+00  0.15613244359E+02  0.15613244359E+02  0.00000000000E+00 0.  1.
          2   -1    0    0  501    0  0.00000000000E+00 -0.00000000000E+00 -0.14655143487E+04  0.14655143487E+04  0.00000000000E+00 0. -1.
          5    1    1    2  502    0  0.31228036396E+02  0.10485170459E+03 -0.77628456882E+03  0.78396995606E+03  0.47000000000E+01 0.  1.
         -5    1    1    2    0  502 -0.40477148989E+02 -0.16250631092E+02 -0.28498855670E+03  0.28834536592E+03  0.47000000000E+01 0.  1.
        -11    1    1    2    0    0  0.21386571319E+02 -0.56758394084E+02 -0.35765714999E+03  0.36276374911E+03  0.00000000000E+00 0. -1.
         11    1    1    2    0    0 -0.12137458726E+02 -0.31842679411E+02 -0.30970828832E+02  0.46048521962E+02  0.00000000000E+00 0.  1.
<mgrwt>
<rscale>  0 0.14635287E+03</rscale>
<asrwt>0</asrwt>
<pdfrwt beam="2">  1        2 0.22546366E+00 0.15349105E+03</pdfrwt>
<pdfrwt beam="1">  1       -2 0.24020385E-02 0.15349105E+03</pdfrwt>
<totfact> 0.82450369E+03</totfact>
</mgrwt>
</event>
<event>
 6    1  0.4705246E-006  0.1435977E+03  0.7546771E-02  0.1218844E+00
          2   -1    0    0  501    0  0.00000000000E+00  0.00000000000E+00  0.25277340479E+03  0.25277340479E+03  0.00000000000E+00 0. -1.
         -2   -1    0    0    0  501 -0.00000000000E+00 -0.00000000000E+00 -0.66450138147E+02  0.66450138147E+02  0.00000000000E+00 0.  1.
          5    1    1    2  502    0 -0.17154931411E+02 -0.61928703702E+02 -0.88593072898E+01  0.65038706473E+02  0.47000000000E+01 0.  1.
         -5    1    1    2    0  502  0.18001550603E+02 -0.87345318623E+01  0.10684670519E+03  0.10880558938E+03  0.47000000000E+01 0.  1.
        -11    1    1    2    0    0 -0.50747821417E+01 -0.18673792866E+02  0.38265846435E+02  0.42880519553E+02  0.00000000000E+00 0. -1.
         11    1    1    2    0    0  0.42281629494E+01  0.89337028431E+02  0.50070022307E+02  0.10249872753E+03  0.00000000000E+00 0.  1.
<mgrwt>
<rscale>  0 0.13597911E+03</rscale>
<asrwt>0</asrwt>
<pdfrwt beam="1">  1        2 0.38888216E-01 0.14359773E+03</pdfrwt>
<pdfrwt beam="2">  1       -2 0.10223098E-01 0.14359773E+03</pdfrwt>
<totfact> 0.80392626E+03</totfact>
</mgrwt>
</event>
<event>
 6    1  0.4705246E-006  0.3710145E+03  0.7546771E-02  0.1055360E+00
         -1   -1    0    0    0  501 -0.00000000000E+00  0.00000000000E+00  0.32749369122E+03  0.32749369122E+03  0.00000000000E+00 0.  1.
          1   -1    0    0  501    0  0.00000000000E+00 -0.00000000000E+00 -0.41693224944E+03  0.41693224944E+03  0.00000000000E+00 0. -1.
          5    1    1    2  502    0  0.31514697219E+02  0.57065599193E+02 -0.22860339456E+01  0.65398583343E+02  0.47000000000E+01 0. -1.
         -5    1    1    2    0  502 -0.10696758653E+03  0.28402001571E+03 -0.97364704940E+02  0.31876544615E+03  0.47000000000E+01 0. -1.
        -11    1    1    2    0    0  0.40555154375E+02 -0.41359684927E+02 -0.49060600997E+01  0.58132723223E+02  0.00000000000E+00 0.  1.
         11    1    1    2    0    0  0.34897734939E+02 -0.29972592997E+03  0.15118240768E+02  0.30212918794E+03  0.00000000000E+00 0. -1.
<mgrwt>
<rscale>  0 0.36825960E+03</rscale>
<asrwt>0</asrwt>
<pdfrwt beam="2">  1        1 0.64143423E-01 0.37101446E+03</pdfrwt>
<pdfrwt beam="1">  1       -1 0.50383645E-01 0.37101446E+03</pdfrwt>
<totfact> 0.23243616E+02</totfact>
</mgrwt>
</event>
<event>
 6    1  0.4705246E-006  0.3545528E+03  0.7546771E-02  0.1060762E+00
         -2   -1    0    0    0  501 -0.00000000000E+00  0.00000000000E+00  0.19136110423E+02  0.19136110423E+02  0.00000000000E+00 0.  1.
          2   -1    0    0  501    0  0.00000000000E+00 -0.00000000000E+00 -0.16422839649E+04  0.16422839649E+04  0.00000000000E+00 0. -1.
          5    1    1    2  502    0 -0.11382957644E+01  0.23594551111E+02 -0.56892976397E+03  0.56943934259E+03  0.47000000000E+01 0. -1.
         -5    1    1    2    0  502  0.12088018960E+03 -0.16038712549E+02 -0.60243295232E+03  0.61466805072E+03  0.47000000000E+01 0. -1.
        -11    1    1    2    0    0 -0.24610708113E+02  0.35270254561E+02 -0.76112862069E+02  0.87423369775E+02  0.00000000000E+00 0.  1.
         11    1    1    2    0    0 -0.95131185727E+02 -0.42826093123E+02 -0.37567227613E+03  0.38988931225E+03  0.00000000000E+00 0. -1.
<mgrwt>
<rscale>  0 0.35455283E+03</rscale>
<asrwt>0</asrwt>
<pdfrwt beam="2">  1        2 0.25265927E+00 0.35455283E+03</pdfrwt>
<pdfrwt beam="1">  1       -2 0.29440147E-02 0.35455283E+03</pdfrwt>
<totfact> 0.49998619E+03</totfact>
</mgrwt>
</event>
<event>
 6    1  0.4705246E-006  0.1590679E+03  0.7546771E-02  0.1197544E+00
          2   -1    0    0  501    0  0.00000000000E+00  0.00000000000E+00  0.15105134067E+03  0.15105134067E+03  0.00000000000E+00 0.  1.
         -2   -1    0    0    0  501 -0.00000000000E+00 -0.00000000000E+00 -0.14620196657E+03  0.14620196657E+03  0.00000000000E+00 0. -1.
          5    1    1    2  502    0  0.79032519569E+01  0.81518555298E+02  0.41722633035E+02  0.92035886244E+02  0.47000000000E+01 0. -1.
         -5    1    1    2    0  502  0.65638028252E+02 -0.16187585572E+02 -0.14613461314E+02  0.69325550348E+02  0.47000000000E+01 0. -1.
        -11    1    1    2    0    0  0.15149743908E+02 -0.35148882477E+02 -0.17498250484E+02  0.42085002671E+02  0.00000000000E+00 0.  1.
         11    1    1    2    0    0 -0.88691024116E+02 -0.30182087249E+02 -0.47615471411E+01  0.93806867982E+02  0.00000000000E+00 0. -1.
<mgrwt>
<rscale>  0 0.15240837E+03</rscale>
<asrwt>0</asrwt>
<pdfrwt beam="1">  1        2 0.23238668E-01 0.15906793E+03</pdfrwt>
<pdfrwt beam="2">  1       -2 0.22492610E-01 0.15906793E+03</pdfrwt>
<totfact> 0.38772184E+03</totfact>
</mgrwt>
</event>
<event>
 6    1  0.4705246E-006  0.1269780E+03  0.7546771E-02  0.1250945E+00
          1   -1    0    0  501    0  0.00000000000E+00  0.00000000000E+00  0.52251101332E+02  0.52251101332E+02  0.00000000000E+00 0. -1.
         -1   -1    0    0    0  501 -0.00000000000E+00 -0.00000000000E+00 -0.22065541777E+03  0.22065541777E+03  0.00000000000E+00 0.  1.
          5    1    1    2  502    0 -0.38031959220E+02 -0.46661898407E+02 -0.68097757404E+01  0.60763687600E+02  0.47000000000E+01 0. -1.
         -5    1    1    2    0  502  0.16275211526E+02  0.45195530755E+02 -0.78702098257E+02  0.92323500695E+02  0.47000000000E+01 0. -1.
        -11    1    1    2    0    0  0.15536789197E+02 -0.28402972079E+02 -0.83232696183E+02  0.89307347712E+02  0.00000000000E+00 0.  1.
         11    1    1    2    0    0  0.62199584975E+01  0.29869339732E+02  0.34025374340E+00  0.30511983094E+02  0.00000000000E+00 0. -1.
<mgrwt>
<rscale>  0 0.11536498E+03</rscale>
<asrwt>0</asrwt>
<pdfrwt beam="1">  1        1 0.80386308E-02 0.12697798E+03</pdfrwt>
<pdfrwt beam="2">  1       -1 0.33946988E-01 0.12697798E+03</pdfrwt>
<totfact> 0.67197904E+03</totfact>
</mgrwt>
</event>
<event>
 6    1  0.4705246E-006  0.1309099E+03  0.7546771E-02  0.1239137E+00
         -1   -1    0    0    0  501 -0.00000000000E+00  0.00000000000E+00  0.26190279944E+02  0.26190279944E+02  0.00000000000E+00 0.  1.
          1   -1    0    0  501    0  0.00000000000E+00 -0.00000000000E+00 -0.51558128564E+03  0.51558128564E+03  0.00000000000E+00 0. -1.
          5    1    1    2  502    0  0.28635370928E+01 -0.15779874976E+02 -0.25442316571E+03  0.25497145242E+03  0.47000000000E+01 0. -1.
         -5    1    1    2    0  502  0.16087778270E+02 -0.18176168826E+02  0.63477730962E+01  0.25525946528E+02  0.47000000000E+01 0. -1.
        -11    1    1    2    0    0  0.35302643789E+02  0.24995306095E+02 -0.13200951074E+03  0.13891563235E+03  0.00000000000E+00 0. -1.
         11    1    1    2    0    0 -0.54253959152E+02  0.89607377079E+01 -0.10930610234E+03  0.12235853429E+03  0.00000000000E+00 0.  1.
<mgrwt>
<rscale>  0 0.12243261E+03</rscale>
<asrwt>0</asrwt>
<pdfrwt beam="2">  1        1 0.79320195E-01 0.13090986E+03</pdfrwt>
<pdfrwt beam="1">  1       -1 0.40292740E-02 0.13090986E+03</pdfrwt>
<totfact> 0.10016590E+04</totfact>
</mgrwt>
</event>
<event>
 6    1  0.4705246E-006  0.2624428E+03  0.7546771E-02  0.1105684E+00
         -2   -1    0    0    0  501 -0.00000000000E+00  0.00000000000E+00  0.26341014432E+02  0.26341014432E+02  0.00000000000E+00 0.  1.
          2   -1    0    0  501    0  0.00000000000E+00 -0.00000000000E+00 -0.65369752507E+03  0.65369752507E+03  0.00000000000E+00 0. -1.
          5    1    1    2  502    0 -0.76051014188E+01 -0.53170948763E+02 -0.52148288315E+03  0.52426279172E+03  0.47000000000E+01 0. -1.
         -5    1    1    2    0  502 -0.28526979364E+01  0.23673096988E+02 -0.17599679543E+02  0.30006534730E+02  0.47000000000E+01 0. -1.
        -11    1    1    2    0    0  0.18458640005E+02  0.10257736986E+02  0.11360438327E+02  0.23979201778E+02  0.00000000000E+00 0.  1.
         11    1    1    2    0    0 -0.80008406502E+01  0.19240114789E+02 -0.99634386273E+02  0.10179001128E+03  0.00000000000E+00 0. -1.
<mgrwt>
<rscale>  0 0.26244280E+03</rscale>
<asrwt>0</asrwt>
<pdfrwt beam="2">  1        2 0.10056885E+00 0.26244280E+03</pdfrwt>
<pdfrwt beam="1">  1       -2 0.40524636E-02 0.26244280E+03</pdfrwt>
<totfact> 0.12195759E+04</totfact>
</mgrwt>
</event>
<event>
 6    1  0.4705246E-006  0.1653147E+03  0.7546771E-02  0.1194903E+00
          1   -1    0    0  501    0  0.00000000000E+00  0.00000000000E+00  0.78562677278E+03  0.78562677278E+03  0.00000000000E+00 0. -1.
         -1   -1    0    0    0  501 -0.00000000000E+00 -0.00000000000E+00 -0.28608893992E+02  0.28608893992E+02  0.00000000000E+00 0.  1.
          5    1    1    2  502    0  0.76290492085E+02 -0.98807555271E+01  0.24316529643E+03  0.25508688697E+03  0.47000000000E+01 0. -1.
         -5    1    1    2    0  502 -0.25721095098E+02  0.84278840547E+02  0.27562244680E+03  0.28940338781E+03  0.47000000000E+01 0.  1.
        -11    1    1    2    0    0 -0.54181298679E+02 -0.85967697248E+02  0.23662184954E+03  0.25751884936E+03  0.00000000000E+00 0.  1.
         11    1    1    2    0    0  0.36119016924E+01  0.11569612228E+02  0.16082860184E+01  0.12226542637E+02  0.00000000000E+00 0. -1.
<mgrwt>
<rscale>  0 0.15462474E+03</rscale>
<asrwt>0</asrwt>
<pdfrwt beam="1">  1        1 0.12086564E+00 0.16531466E+03</pdfrwt>
<pdfrwt beam="2">  1       -1 0.44013689E-02 0.16531466E+03</pdfrwt>
<totfact> 0.49496165E+03</totfact>
</mgrwt>
</event>
<event>
 6    1  0.4705246E-006  0.1391487E+03  0.7546771E-02  0.1225869E+00
         -2   -1    0    0    0  501 -0.00000000000E+00  0.00000000000E+00  0.41475284777E+03  0.41475284777E+03  0.00000000000E+00 0.  1.
          2   -1    0    0  501    0  0.00000000000E+00 -0.00000000000E+00 -0.37614665880E+02  0.37614665880E+02  0.00000000000E+00 0. -1.
          5    1    1    2  502    0  0.38008207889E+02 -0.72787912545E+01  0.46648280478E+02  0.60792735920E+02  0.47000000000E+01 0. -1.
         -5    1    1    2    0  502 -0.98642925216E+02  0.14937417694E+02  0.14310937113E+03  0.17451628934E+03  0.47000000000E+01 0. -1.
        -11    1    1    2    0    0  0.74617894883E+02 -0.18020859032E+02  0.90698993772E+02  0.11882293158E+03  0.00000000000E+00 0. -1.
         11    1    1    2    0    0 -0.13983177557E+02  0.10362232593E+02  0.96681536516E+02  0.98235556811E+02  0.00000000000E+00 0.  1.
<mgrwt>
<rscale>  0 0.13107514E+03</rscale>
<asrwt>0</asrwt>
<pdfrwt beam="2">  1        2 0.57868720E-02 0.13914874E+03</pdfrwt>
<pdfrwt beam="1">  1       -2 0.63808127E-01 0.13914874E+03</pdfrwt>
<totfact> 0.28864079E+03</totfact>
</mgrwt>
</event>
<event>
 6    1  0.4705246E-006  0.2464606E+03  0.7546771E-02  0.1115562E+00
          2   -1    0    0  501    0  0.00000000000E+00  0.00000000000E+00  0.44425643224E+03  0.44425643224E+03  0.00000000000E+00 0. -1.
         -2   -1    0    0    0  501 -0.00000000000E+00 -0.00000000000E+00 -0.34182313544E+02  0.34182313544E+02  0.00000000000E+00 0.  1.
          5    1    1    2  502    0  0.11685423347E+02 -0.22231050181E+02  0.16370228732E+03  0.16568433114E+03  0.47000000000E+01 0. -1.
         -5    1    1    2    0  502 -0.13050307776E+02  0.79318445996E+02  0.81625818013E+02  0.11465858265E+03  0.47000000000E+01 0.  1.
        -11    1    1    2    0    0 -0.46074726419E+02 -0.23276966060E+02  0.72654326673E+02  0.89125466326E+02  0.00000000000E+00 0.  1.
         11    1    1    2    0    0  0.47439610849E+02 -0.33810429755E+02  0.92091686695E+02  0.10897036568E+03  0.00000000000E+00 0. -1.
<mgrwt>
<rscale>  0 0.24646065E+03</rscale>
<asrwt>0</asrwt>
<pdfrwt beam="1">  1        2 0.68347139E-01 0.24646065E+03</pdfrwt>
<pdfrwt beam="2">  1       -2 0.52588178E-02 0.24646065E+03</pdfrwt>
<totfact> 0.12713554E+04</totfact>
</mgrwt>
</event>
<event>
 6    1  0.4705246E-006  0.1476487E+03  0.7546771E-02  0.1212564E+00
         -1   -1    0    0    0  501 -0.00000000000E+00  0.00000000000E+00  0.32541816900E+02  0.32541816900E+02  0.00000000000E+00 0.  1.
          1   -1    0    0  501    0  0.00000000000E+00 -0.00000000000E+00 -0.67359408526E+03  0.67359408526E+03  0.00000000000E+00 0. -1.
          5    1    1    2  502    0 -0.89857689773E+02 -0.65785413456E+01 -0.24019172597E+03  0.25657715573E+03  0.47000000000E+01 0.  1.
         -5    1    1    2    0  502  0.28699639082E+02 -0.42778720902E+02 -0.25334526491E+03  0.25857223652E+03  0.47000000000E+01 0.  1.
        -11    1    1    2    0    0  0.50733590183E+02  0.13152052250E+02 -0.14388828828E+03  0.15313625683E+03  0.00000000000E+00 0.  1.
         11    1    1    2    0    0  0.10424460509E+02  0.36205209998E+02 -0.36269891998E+01  0.37850253084E+02  0.00000000000E+00 0. -1.
<mgrwt>
<rscale>  0 0.14056997E+03</rscale>
<asrwt>0</asrwt>
<pdfrwt beam="2">  1        1 0.10362985E+00 0.14764869E+03</pdfrwt>
<pdfrwt beam="1">  1       -1 0.50064337E-02 0.14764869E+03</pdfrwt>
<totfact> 0.50933248E+03</totfact>
</mgrwt>
</event>
<event>
 6    1  0.4705246E-006  0.1343446E+03  0.7546771E-02  0.1234572E+00
         -3   -1    0    0    0  501 -0.00000000000E+00  0.00000000000E+00  0.10667867599E+04  0.10667867599E+04  0.00000000000E+00 0.  1.
          3   -1    0    0  501    0  0.00000000000E+00 -0.00000000000E+00 -0.13129717211E+02  0.13129717211E+02  0.00000000000E+00 0. -1.
          5    1    1    2  502    0 -0.10671417837E+02 -0.45794555130E+02  0.11796004735E+03  0.12707353465E+03  0.47000000000E+01 0. -1.
         -5    1    1    2    0  502 -0.21528738411E+02  0.74495989946E+02  0.44213212856E+03  0.44890538892E+03  0.47000000000E+01 0.  1.
        -11    1    1    2    0    0 -0.11057522860E+02  0.25810027731E+02  0.85815504100E+02  0.90292453102E+02  0.00000000000E+00 0.  1.
         11    1    1    2    0    0  0.43257679108E+02 -0.54511462547E+02  0.40774936268E+03  0.41364510044E+03  0.00000000000E+00 0. -1.
<mgrwt>
<rscale>  0 0.12531869E+03</rscale>
<asrwt>0</asrwt>
<pdfrwt beam="2">  1        3 0.20199573E-02 0.13434461E+03</pdfrwt>
<pdfrwt beam="1">  1       -3 0.16412097E+00 0.13434461E+03</pdfrwt>
<totfact> 0.59336349E+02</totfact>
</mgrwt>
</event>
<event>
 6    1  0.4705246E-006  0.1344577E+03  0.7546771E-02  0.1230236E+00
         -2   -1    0    0    0  501 -0.00000000000E+00  0.00000000000E+00  0.35208357702E+03  0.35208357702E+03  0.00000000000E+00 0.  1.
          2   -1    0    0  501    0  0.00000000000E+00 -0.00000000000E+00 -0.10319279102E+03  0.10319279102E+03  0.00000000000E+00 0. -1.
          5    1    1    2  502    0 -0.17150718603E+02  0.27169969479E+02 -0.80549743088E+02  0.86848750720E+02  0.47000000000E+01 0. -1.
         -5    1    1    2    0  502  0.12227453470E+02  0.39097267605E+02  0.36061240431E+02  0.54777824107E+02  0.47000000000E+01 0.  1.
        -11    1    1    2    0    0  0.44985486353E+02 -0.50123343708E+02  0.19125145960E+03  0.20276381425E+03  0.00000000000E+00 0. -1.
         11    1    1    2    0    0 -0.40062221219E+02 -0.16143893376E+02  0.10212782906E+03  0.11088597896E+03  0.00000000000E+00 0.  1.
<mgrwt>
<rscale>  0 0.12814404E+03</rscale>
<asrwt>0</asrwt>
<pdfrwt beam="2">  1        2 0.15875814E-01 0.13445765E+03</pdfrwt>
<pdfrwt beam="1">  1       -2 0.54166704E-01 0.13445765E+03</pdfrwt>
<totfact> 0.11632955E+03</totfact>
</mgrwt>
</event>
<event>
 6    1  0.4705246E-006  0.1180626E+03  0.7546771E-02  0.1256568E+00
          1   -1    0    0  501    0  0.00000000000E+00  0.00000000000E+00  0.57309592383E+03  0.57309592383E+03  0.00000000000E+00 0. -1.
         -1   -1    0    0    0  501 -0.00000000000E+00 -0.00000000000E+00 -0.25643839883E+02  0.25643839883E+02  0.00000000000E+00 0.  1.
          5    1    1    2  502    0  0.31694647294E+02  0.23742832321E+02  0.34726333586E+03  0.34954568683E+03  0.47000000000E+01 0. -1.
         -5    1    1    2    0  502 -0.50166389469E+02  0.76732468412E+00  0.87605797000E+02  0.10106493500E+03  0.47000000000E+01 0.  1.
        -11    1    1    2    0    0  0.36399285685E+02 -0.51800102323E+02  0.68576249798E+02  0.93331991490E+02  0.00000000000E+00 0.  1.
         11    1    1    2    0    0 -0.17927543511E+02  0.27289945318E+02  0.44006701293E+02  0.54797150387E+02  0.00000000000E+00 0. -1.
<mgrwt>
<rscale>  0 0.11218982E+03</rscale>
<asrwt>0</asrwt>
<pdfrwt beam="1">  1        1 0.88168594E-01 0.11806257E+03</pdfrwt>
<pdfrwt beam="2">  1       -1 0.39452066E-02 0.11806257E+03</pdfrwt>
<totfact> 0.89165797E+03</totfact>
</mgrwt>
</event>
<event>
 6    1  0.4705246E-006  0.2165906E+03  0.7546771E-02  0.1139930E+00
          1   -1    0    0  501    0  0.00000000000E+00  0.00000000000E+00  0.98794602359E+02  0.98794602359E+02  0.00000000000E+00 0. -1.
         -1   -1    0    0    0  501 -0.00000000000E+00 -0.00000000000E+00 -0.88646733662E+03  0.88646733662E+03  0.00000000000E+00 0.  1.
          5    1    1    2  502    0  0.10398232027E+03 -0.93585451338E+02 -0.13502665875E+01  0.13998025879E+03  0.47000000000E+01 0.  1.
         -5    1    1    2    0  502  0.59802648731E+02  0.26801628665E+02 -0.50134780680E+02  0.82645449531E+02  0.47000000000E+01 0.  1.
        -11    1    1    2    0    0 -0.62548010633E+02  0.73788151198E+02 -0.32331190573E+03  0.33747227039E+03  0.00000000000E+00 0. -1.
         11    1    1    2    0    0 -0.10123695837E+03 -0.70043285244E+01 -0.41287578125E+03  0.42516396026E+03  0.00000000000E+00 0.  1.
<mgrwt>
<rscale>  0 0.21207954E+03</rscale>
<asrwt>0</asrwt>
<pdfrwt beam="1">  1        1 0.15199169E-01 0.21659062E+03</pdfrwt>
<pdfrwt beam="2">  1       -1 0.13637959E+00 0.21659062E+03</pdfrwt>
<totfact> 0.17846616E+02</totfact>
</mgrwt>
</event>
<event>
 6    1  0.4705246E-006  0.1574333E+03  0.7546771E-02  0.1200148E+00
         -1   -1    0    0    0  501 -0.00000000000E+00  0.00000000000E+00  0.48602359845E+02  0.48602359845E+02  0.00000000000E+00 0.  1.
          1   -1    0    0  501    0  0.00000000000E+00 -0.00000000000E+00 -0.42812815638E+03  0.42812815638E+03  0.00000000000E+00 0. -1.
          5    1    1    2  502    0  0.46728316282E+02 -0.50934564683E+02 -0.30268181577E+02  0.75605014635E+02  0.47000000000E+01 0. -1.
         -5    1    1    2    0  502 -0.38860963924E+02 -0.44449937850E+02 -0.16447799113E+03  0.17481725046E+03  0.47000000000E+01 0. -1.
        -11    1    1    2    0    0  0.31154471013E+02  0.41977054823E+01 -0.46837118916E+02  0.56408665147E+02  0.00000000000E+00 0.  1.
         11    1    1    2    0    0 -0.39021823370E+02  0.91186797050E+02 -0.13794250490E+03  0.16989958597E+03  0.00000000000E+00 0. -1.
<mgrwt>
<rscale>  0 0.15026495E+03</rscale>
<asrwt>0</asrwt>
<pdfrwt beam="2">  1        1 0.65865871E-01 0.15743328E+03</pdfrwt>
<pdfrwt beam="1">  1       -1 0.74772860E-02 0.15743328E+03</pdfrwt>
<totfact> 0.51359396E+03</totfact>
</mgrwt>
</event>
<event>
 6    1  0.4705246E-006  0.1236010E+03  0.7546771E-02  0.1251100E+00
         -1   -1    0    0    0  501 -0.00000000000E+00  0.00000000000E+00  0.99769669033E+02  0.99769669033E+02  0.00000000000E+00 0.  1.
          1   -1    0    0  501    0  0.00000000000E+00 -0.00000000000E+00 -0.12023670634E+03  0.12023670634E+03  0.00000000000E+00 0. -1.
          5    1    1    2  502    0  0.40043020815E+02  0.59275399584E+02 -0.91574606171E+00  0.71693410455E+02  0.47000000000E+01 0. -1.
         -5    1    1    2    0  502 -0.80556778568E+01 -0.47584746609E+02 -0.25157270092E+02  0.54627651369E+02  0.47000000000E+01 0.  1.
        -11    1    1    2    0    0 -0.12358951304E+02  0.22516502796E+01 -0.40102265469E+02  0.42023865863E+02  0.00000000000E+00 0. -1.
         11    1    1    2    0    0 -0.19628391654E+02 -0.13942303255E+02  0.45708244314E+02  0.51661447688E+02  0.00000000000E+00 0.  1.
<mgrwt>
<rscale>  0 0.11527620E+03</rscale>
<asrwt>0</asrwt>
<pdfrwt beam="2">  1        1 0.18497955E-01 0.12360101E+03</pdfrwt>
<pdfrwt beam="1">  1       -1 0.15349180E-01 0.12360101E+03</pdfrwt>
<totfact> 0.82096781E+03</totfact>
</mgrwt>
</event>
<event>
 6    1  0.4705246E-006  0.2878323E+03  0.7546771E-02  0.1091486E+00
          2   -1    0    0  501    0  0.00000000000E+00  0.00000000000E+00  0.13813093678E+04  0.13813093678E+04  0.00000000000E+00 0.  1.
         -2   -1    0    0    0  501 -0.00000000000E+00 -0.00000000000E+00 -0.14994366364E+02  0.14994366364E+02  0.00000000000E+00 0. -1.
          5    1    1    2  502    0  0.50451759340E+02  0.70696025229E+02  0.96609813468E+03  0.97000567206E+03  0.47000000000E+01 0.  1.
         -5    1    1    2    0  502 -0.25594069007E+02 -0.32990950617E-01  0.48835111169E+02  0.55335481742E+02  0.47000000000E+01 0.  1.
        -11    1    1    2    0    0  0.17715850301E+02 -0.67820663321E+02  0.27146084879E+03  0.28036491605E+03  0.00000000000E+00 0.  1.
         11    1    1    2    0    0 -0.42573540634E+02 -0.28423709576E+01  0.79920906776E+02  0.90597664289E+02  0.00000000000E+00 0. -1.
<mgrwt>
<rscale>  0 0.28783230E+03</rscale>
<asrwt>0</asrwt>
<pdfrwt beam="1">  1        2 0.21250903E+00 0.28783230E+03</pdfrwt>
<pdfrwt beam="2">  1       -2 0.23068267E-02 0.28783230E+03</pdfrwt>
<totfact> 0.99145726E+03</totfact>
</mgrwt>
</event>
<event>
 6    1  0.4705246E-006  0.1253803E+03  0.7546771E-02  0.1249935E+00
         -2   -1    0    0    0  501 -0.00000000000E+00  0.00000000000E+00  0.35310721602E+02  0.35310721602E+02  0.00000000000E+00 0.  1.
          2   -1    0    0  501    0  0.00000000000E+00 -0.00000000000E+00 -0.33553197954E+03  0.33553197954E+03  0.00000000000E+00 0. -1.
          5    1    1    2  502    0 -0.53843682866E+02 -0.27113520359E+02 -0.90711321531E+02  0.10901797570E+03  0.47000000000E+01 0.  1.
         -5    1    1    2    0  502  0.60540641160E+02  0.19775768782E+02 -0.68794796609E+02  0.93867269607E+02  0.47000000000E+01 0.  1.
        -11    1    1    2    0    0 -0.62406415746E+01 -0.40897738338E+02 -0.82993163175E+02  0.92733142631E+02  0.00000000000E+00 0. -1.
         11    1    1    2    0    0 -0.45631671935E+00  0.48235489916E+02 -0.57721976624E+02  0.75224313209E+02  0.00000000000E+00 0.  1.
<mgrwt>
<rscale>  0 0.11594840E+03</rscale>
<asrwt>0</asrwt>
<pdfrwt beam="2">  1        2 0.51620305E-01 0.12538031E+03</pdfrwt>
<pdfrwt beam="1">  1       -2 0.54324187E-02 0.12538031E+03</pdfrwt>
<totfact> 0.15577047E+04</totfact>
</mgrwt>
</event>
<event>
 6    1  0.4705246E-006  0.1269389E+03  0.7546771E-02  0.1246936E+00
         -2   -1    0    0    0  501 -0.00000000000E+00  0.00000000000E+00  0.15423620608E+02  0.15423620608E+02  0.00000000000E+00 0.  1.
          2   -1    0    0  501    0  0.00000000000E+00 -0.00000000000E+00 -0.93108688759E+03  0.93108688759E+03  0.00000000000E+00 0. -1.
          5    1    1    2  502    0 -0.58627927100E+02  0.26310898903E+02 -0.36552471512E+03  0.37116021419E+03  0.47000000000E+01 0.  1.
         -5    1    1    2    0  502  0.62106402675E+02 -0.45119891181E+01 -0.33299033313E+03  0.33879524090E+03  0.47000000000E+01 0.  1.
        -11    1    1    2    0    0 -0.24837167403E+02  0.28772291991E+02 -0.10555399538E+03  0.11218901734E+03  0.00000000000E+00 0.  1.
         11    1    1    2    0    0  0.21358691828E+02 -0.50571201776E+02 -0.11159422335E+03  0.12436603576E+03  0.00000000000E+00 0. -1.
<mgrwt>
<rscale>  0 0.11770280E+03</rscale>
<asrwt>0</asrwt>
<pdfrwt beam="2">  1        2 0.14324414E+00 0.12693887E+03</pdfrwt>
<pdfrwt beam="1">  1       -2 0.23728646E-02 0.12693887E+03</pdfrwt>
<totfact> 0.16551666E+04</totfact>
</mgrwt>
</event>
<event>
 6    1  0.4705246E-006  0.1296913E+03  0.7546771E-02  0.1242125E+00
          2   -1    0    0  501    0  0.00000000000E+00  0.00000000000E+00  0.18164329368E+03  0.18164329368E+03  0.00000000000E+00 0. -1.
         -2   -1    0    0    0  501 -0.00000000000E+00 -0.00000000000E+00 -0.97129159714E+02  0.97129159714E+02  0.00000000000E+00 0.  1.
          5    1    1    2  502    0 -0.69217424854E+02  0.11716541950E+02  0.11520479800E+03  0.13499098022E+03  0.47000000000E+01 0.  1.
         -5    1    1    2    0  502  0.39940398195E+02  0.66748379398E+01  0.36578731843E+01  0.40929926774E+02  0.47000000000E+01 0.  1.
        -11    1    1    2    0    0  0.17826526583E+02 -0.29243132099E+02  0.24380925566E+02  0.42040163611E+02  0.00000000000E+00 0. -1.
         11    1    1    2    0    0  0.11450500076E+02  0.10851752210E+02 -0.58729462783E+02  0.60811382790E+02  0.00000000000E+00 0.  1.
<mgrwt>
<rscale>  0 0.12059134E+03</rscale>
<asrwt>0</asrwt>
<pdfrwt beam="1">  1        2 0.27945122E-01 0.12969129E+03</pdfrwt>
<pdfrwt beam="2">  1       -2 0.14942948E-01 0.12969129E+03</pdfrwt>
<totfact> 0.62016325E+03</totfact>
</mgrwt>
</event>
<event>
 6    1  0.4705246E-006  0.2972130E+03  0.7546771E-02  0.1086642E+00
         -1   -1    0    0    0  501 -0.00000000000E+00  0.00000000000E+00  0.26419626373E+02  0.26419626373E+02  0.00000000000E+00 0.  1.
          1   -1    0    0  501    0  0.00000000000E+00 -0.00000000000E+00 -0.83588975449E+03  0.83588975449E+03  0.00000000000E+00 0. -1.
          5    1    1    2  502    0  0.79138225326E+02  0.64547707566E+02 -0.38746426603E+03  0.40072423524E+03  0.47000000000E+01 0. -1.
         -5    1    1    2    0  502 -0.44929473173E+02  0.10248014765E+02 -0.22915663420E+03  0.23379164306E+03  0.47000000000E+01 0. -1.
        -11    1    1    2    0    0 -0.19484247535E+02 -0.34624262061E+02 -0.17819211192E+03  0.18256753320E+03  0.00000000000E+00 0. -1.
         11    1    1    2    0    0 -0.14724504618E+02 -0.40171460270E+02 -0.14657115958E+02  0.45225969362E+02  0.00000000000E+00 0.  1.
<mgrwt>
<rscale>  0 0.29721302E+03</rscale>
<asrwt>0</asrwt>
<pdfrwt beam="2">  1        1 0.12859839E+00 0.29721302E+03</pdfrwt>
<pdfrwt beam="1">  1       -1 0.40645589E-02 0.29721302E+03</pdfrwt>
<totfact> 0.51683569E+03</totfact>
</mgrwt>
</event>
<event>
 6    1  0.4705246E-006  0.1309919E+03  0.7546771E-02  0.1239751E+00
         -1   -1    0    0    0  501 -0.00000000000E+00  0.00000000000E+00  0.15124530495E+03  0.15124530495E+03  0.00000000000E+00 0.  1.
          1   -1    0    0  501    0  0.00000000000E+00 -0.00000000000E+00 -0.96704478593E+02  0.96704478593E+02  0.00000000000E+00 0. -1.
          5    1    1    2  502    0 -0.25755794855E+01 -0.21976527776E+02 -0.63792265365E+02  0.67684152526E+02  0.47000000000E+01 0. -1.
         -5    1    1    2    0  502  0.28643264653E+02 -0.72423872078E+01  0.56052445419E+02  0.63536252800E+02  0.47000000000E+01 0. -1.
        -11    1    1    2    0    0  0.12955203661E+02  0.28213941714E+01 -0.18770003276E+02  0.22980656866E+02  0.00000000000E+00 0. -1.
         11    1    1    2    0    0 -0.39022888828E+02  0.26397520812E+02  0.81050649578E+02  0.93748721349E+02  0.00000000000E+00 0.  1.
<mgrwt>
<rscale>  0 0.12205107E+03</rscale>
<asrwt>0</asrwt>
<pdfrwt beam="2">  1        1 0.14877612E-01 0.13099195E+03</pdfrwt>
<pdfrwt beam="1">  1       -1 0.23268508E-01 0.13099195E+03</pdfrwt>
<totfact> 0.56153661E+03</totfact>
</mgrwt>
</event>
<event>
 6    1  0.4705246E-006  0.1395312E+03  0.7546771E-02  0.1229104E+00
          1   -1    0    0  501    0  0.00000000000E+00  0.00000000000E+00  0.77988211440E+03  0.77988211440E+03  0.00000000000E+00 0. -1.
         -1   -1    0    0    0  501 -0.00000000000E+00 -0.00000000000E+00 -0.18657456250E+02  0.18657456250E+02  0.00000000000E+00 0.  1.
          5    1    1    2  502    0 -0.13243857397E+02 -0.41860347155E+02  0.37775542946E+02  0.58109982513E+02  0.47000000000E+01 0. -1.
         -5    1    1    2    0  502 -0.21610987095E+02 -0.94060451251E+01  0.41458463768E+03  0.41528065238E+03  0.47000000000E+01 0. -1.
        -11    1    1    2    0    0 -0.15715933913E+02  0.24128023382E+02  0.34939121421E+02  0.45275758378E+02  0.00000000000E+00 0.  1.
         11    1    1    2    0    0  0.50570778405E+02  0.27138368898E+02  0.27392535611E+03  0.27987317737E+03  0.00000000000E+00 0. -1.
<mgrwt>
<rscale>  0 0.12889543E+03</rscale>
<asrwt>0</asrwt>
<pdfrwt beam="1">  1        1 0.11998184E+00 0.13953122E+03</pdfrwt>
<pdfrwt beam="2">  1       -1 0.28703785E-02 0.13953122E+03</pdfrwt>
<totfact> 0.92913491E+03</totfact>
</mgrwt>
</event>
<event>
 6    1  0.4705246E-006  0.1143112E+03  0.7546771E-02  0.1260776E+00
         -2   -1    0    0    0  501 -0.00000000000E+00  0.00000000000E+00  0.21406919922E+02  0.21406919922E+02  0.00000000000E+00 0.  1.
          2   -1    0    0  501    0  0.00000000000E+00 -0.00000000000E+00 -0.15161869846E+04  0.15161869846E+04  0.00000000000E+00 0. -1.
          5    1    1    2  502    0  0.63641601623E+02 -0.30619962252E+02 -0.79650436360E+03  0.79964312463E+03  0.47000000000E+01 0. -1.
         -5    1    1    2    0  502 -0.41326437268E+02  0.10849823860E+02 -0.59232327979E+03  0.59388092314E+03  0.47000000000E+01 0.  1.
        -11    1    1    2    0    0 -0.53252592354E+02  0.14706189477E+02 -0.32232648469E+02  0.63961349491E+02  0.00000000000E+00 0.  1.
         11    1    1    2    0    0  0.30937427999E+02  0.50639489153E+01 -0.73719772866E+02  0.80108507296E+02  0.00000000000E+00 0. -1.
<mgrwt>
<rscale>  0 0.10988904E+03</rscale>
<asrwt>0</asrwt>
<pdfrwt beam="2">  1        2 0.23325945E+00 0.11431119E+03</pdfrwt>
<pdfrwt beam="1">  1       -2 0.32933735E-02 0.11431119E+03</pdfrwt>
<totfact> 0.48404596E+03</totfact>
</mgrwt>
</event>
<event>
 6    1  0.4705246E-006  0.1558012E+03  0.7546771E-02  0.1202744E+00
          2   -1    0    0  501    0  0.00000000000E+00  0.00000000000E+00  0.13169736239E+04  0.13169736239E+04  0.00000000000E+00 0. -1.
         -2   -1    0    0    0  501 -0.00000000000E+00 -0.00000000000E+00 -0.15737439281E+02  0.15737439281E+02  0.00000000000E+00 0.  1.
          5    1    1    2  502    0 -0.60551315178E+02  0.30760578687E+02  0.31099432091E+03  0.31835865405E+03  0.47000000000E+01 0. -1.
         -5    1    1    2    0  502  0.59549324315E+02  0.62245642394E+02  0.52192489054E+03  0.52900692187E+03  0.47000000000E+01 0. -1.
        -11    1    1    2    0    0 -0.40933819426E+02 -0.53901988625E+02  0.20596896769E+03  0.21680456084E+03  0.00000000000E+00 0.  1.
         11    1    1    2    0    0  0.41935810288E+02 -0.39104232456E+02  0.26234800543E+03  0.26854092637E+03  0.00000000000E+00 0. -1.
<mgrwt>
<rscale>  0 0.14816631E+03</rscale>
<asrwt>0</asrwt>
<pdfrwt beam="1">  1        2 0.20261124E+00 0.15580118E+03</pdfrwt>
<pdfrwt beam="2">  1       -2 0.24211455E-02 0.15580118E+03</pdfrwt>
<totfact> 0.97844964E+03</totfact>
</mgrwt>
</event>
<event>
 6    1  0.4705246E-006  0.3812684E+03  0.7546771E-02  0.1050466E+00
         -3   -1    0    0    0  501 -0.00000000000E+00  0.00000000000E+00  0.12945061705E+03  0.12945061705E+03  0.00000000000E+00 0.  1.
          3   -1    0    0  501    0  0.00000000000E+00 -0.00000000000E+00 -0.28073555213E+03  0.28073555213E+03  0.00000000000E+00 0. -1.
          5    1    1    2  502    0  0.10566314680E+03 -0.42877069616E+02 -0.30758617913E+02  0.11820036492E+03  0.47000000000E+01 0.  1.
         -5    1    1    2    0  502  0.19022899883E+02 -0.22102465418E+02 -0.11805249215E+03  0.12169170309E+03  0.47000000000E+01 0.  1.
        -11    1    1    2    0    0 -0.44801139504E+02  0.14779827578E+02 -0.46445269188E+02  0.66202329522E+02  0.00000000000E+00 0. -1.
         11    1    1    2    0    0 -0.79884907180E+02  0.50199707456E+02  0.43971444175E+02  0.10409177166E+03  0.00000000000E+00 0.  1.
<mgrwt>
<rscale>  0 0.38126836E+03</rscale>
<asrwt>0</asrwt>
<pdfrwt beam="2">  1        3 0.43190085E-01 0.38126836E+03</pdfrwt>
<pdfrwt beam="1">  1       -3 0.19915480E-01 0.38126836E+03</pdfrwt>
<totfact> 0.31448795E+02</totfact>
</mgrwt>
</event>
<event>
 6    1  0.4705246E-006  0.1292679E+03  0.7546771E-02  0.1239120E+00
          4   -1    0    0  501    0  0.00000000000E+00  0.00000000000E+00  0.58536113295E+03  0.58536113295E+03  0.00000000000E+00 0. -1.
         -4   -1    0    0    0  501 -0.00000000000E+00 -0.00000000000E+00 -0.36308964013E+02  0.36308964013E+02  0.00000000000E+00 0.  1.
          5    1    1    2  502    0  0.20641117798E+02  0.15613029578E+02  0.14599383445E+02  0.30084122615E+02  0.47000000000E+01 0.  1.
         -5    1    1    2    0  502  0.28225231769E+01 -0.38728183972E+02  0.46463330445E+03  0.46627678098E+03  0.47000000000E+01 0.  1.
        -11    1    1    2    0    0  0.10381176107E+02  0.97936952915E+01 -0.22183276873E+02  0.26377700007E+02  0.00000000000E+00 0.  1.
         11    1    1    2    0    0 -0.33844817081E+02  0.13321459102E+02  0.92002757913E+02  0.98931493366E+02  0.00000000000E+00 0. -1.
<mgrwt>
<rscale>  0 0.12244318E+03</rscale>
<asrwt>0</asrwt>
<pdfrwt beam="1">  1        4 0.90055552E-01 0.12926785E+03</pdfrwt>
<pdfrwt beam="2">  1       -4 0.55859949E-02 0.12926785E+03</pdfrwt>
<totfact> 0.35832355E+02</totfact>
</mgrwt>
</event>
<event>
 6    1  0.4705246E-006  0.1377084E+03  0.7546771E-02  0.1226121E+00
          1   -1    0    0  501    0  0.00000000000E+00  0.00000000000E+00  0.14100239284E+04  0.14100239284E+04  0.00000000000E+00 0. -1.
         -1   -1    0    0    0  501 -0.00000000000E+00 -0.00000000000E+00 -0.11271089158E+02  0.11271089158E+02  0.00000000000E+00 0.  1.
          5    1    1    2  502    0 -0.17857927912E+02 -0.61003253067E+02  0.85625742774E+03  0.85862633027E+03  0.47000000000E+01 0. -1.
         -5    1    1    2    0  502 -0.15521464622E+01 -0.83037543111E+01  0.11107641123E+01  0.97306367321E+01  0.47000000000E+01 0.  1.
        -11    1    1    2    0    0  0.14429191008E+02 -0.13697207683E+02  0.39671197383E+02  0.44380389287E+02  0.00000000000E+00 0.  1.
         11    1    1    2    0    0  0.49808833655E+01  0.83004215061E+02  0.50171345002E+03  0.50855766128E+03  0.00000000000E+00 0. -1.
<mgrwt>
<rscale>  0 0.13090380E+03</rscale>
<asrwt>0</asrwt>
<pdfrwt beam="1">  1        1 0.21692662E+00 0.13770841E+03</pdfrwt>
<pdfrwt beam="2">  1       -1 0.17340148E-02 0.13770841E+03</pdfrwt>
<totfact> 0.67906982E+03</totfact>
</mgrwt>
</event>
<event>
 6    1  0.4705246E-006  0.1816428E+03  0.7546771E-02  0.1171540E+00
          1   -1    0    0  501    0  0.00000000000E+00  0.00000000000E+00  0.36484503893E+03  0.36484503893E+03  0.00000000000E+00 0. -1.
         -1   -1    0    0    0  501 -0.00000000000E+00 -0.00000000000E+00 -0.81408924601E+02  0.81408924601E+02  0.00000000000E+00 0.  1.
          5    1    1    2  502    0  0.81604144985E+02  0.39588984245E+02  0.26268869523E+02  0.94544527384E+02  0.47000000000E+01 0.  1.
         -5    1    1    2    0  502  0.48417514572E+02 -0.18203154953E+02  0.14930904888E+03  0.15808508040E+03  0.47000000000E+01 0.  1.
        -11    1    1    2    0    0 -0.60994794336E+02 -0.41174020792E+02  0.95814281658E+02  0.12081407821E+03  0.00000000000E+00 0. -1.
         11    1    1    2    0    0 -0.69026865220E+02  0.19788191500E+02  0.12043914275E+02  0.72810277544E+02  0.00000000000E+00 0.  1.
<mgrwt>
<rscale>  0 0.17619190E+03</rscale>
<asrwt>0</asrwt>
<pdfrwt beam="1">  1        1 0.56130005E-01 0.18164282E+03</pdfrwt>
<pdfrwt beam="2">  1       -1 0.12524450E-01 0.18164282E+03</pdfrwt>
<totfact> 0.28718568E+03</totfact>
</mgrwt>
</event>
<event>
 6    1  0.4705246E-006  0.1598452E+03  0.7546771E-02  0.1196297E+00
          2   -1    0    0  501    0  0.00000000000E+00  0.00000000000E+00  0.79030910231E+03  0.79030910231E+03  0.00000000000E+00 0. -1.
         -2   -1    0    0    0  501 -0.00000000000E+00 -0.00000000000E+00 -0.34100668106E+02  0.34100668106E+02  0.00000000000E+00 0.  1.
          5    1    1    2  502    0  0.19651374167E+02  0.19231756607E+02  0.16909835395E+02  0.32620078202E+02  0.47000000000E+01 0. -1.
         -5    1    1    2    0  502  0.79981414293E+02 -0.14732111931E+02  0.56508081791E+03  0.57092248382E+03  0.47000000000E+01 0. -1.
        -11    1    1    2    0    0 -0.24886211827E+02  0.25416027478E+02  0.11648776817E+03  0.12179777553E+03  0.00000000000E+00 0. -1.
         11    1    1    2    0    0 -0.74746576633E+02 -0.29915672154E+02  0.57730012729E+02  0.99069432866E+02  0.00000000000E+00 0.  1.
<mgrwt>
<rscale>  0 0.15345000E+03</rscale>
<asrwt>0</asrwt>
<pdfrwt beam="1">  1        2 0.12158600E+00 0.15984525E+03</pdfrwt>
<pdfrwt beam="2">  1       -2 0.52462572E-02 0.15984525E+03</pdfrwt>
<totfact> 0.63915298E+03</totfact>
</mgrwt>
</event>
<event>
 6    1  0.4705246E-006  0.1328787E+03  0.7546771E-02  0.1235958E+00
         -2   -1    0    0    0  501 -0.00000000000E+00  0.00000000000E+00  0.18597587162E+02  0.18597587162E+02  0.00000000000E+00 0.  1.
          2   -1    0    0  501    0  0.00000000000E+00 -0.00000000000E+00 -0.11321374054E+04  0.11321374054E+04  0.00000000000E+00 0. -1.
          5    1    1    2  502    0 -0.72776210566E+01  0.81497480732E+01 -0.49131254855E+01  0.12868992343E+02  0.47000000000E+01 0. -1.
         -5    1    1    2    0  502  0.50596355954E+02  0.43033011352E+01 -0.93509076278E+03  0.93648029039E+03  0.47000000000E+01 0. -1.
        -11    1    1    2    0    0  0.18572602926E+02  0.13643770938E+02 -0.96343684311E+02  0.99061594836E+02  0.00000000000E+00 0. -1.
         11    1    1    2    0    0 -0.61891337823E+02 -0.26096820147E+02 -0.77192245634E+02  0.10232411497E+03  0.00000000000E+00 0.  1.
<mgrwt>
<rscale>  0 0.12443336E+03</rscale>
<asrwt>0</asrwt>
<pdfrwt beam="2">  1        2 0.17417492E+00 0.13287871E+03</pdfrwt>
<pdfrwt beam="1">  1       -2 0.28611683E-02 0.13287871E+03</pdfrwt>
<totfact> 0.96150016E+03</totfact>
</mgrwt>
</event>
<event>
 6    1  0.4705246E-006  0.1458462E+03  0.7546771E-02  0.1215844E+00
         -2   -1    0    0    0  501 -0.00000000000E+00  0.00000000000E+00  0.36767807973E+02  0.36767807973E+02  0.00000000000E+00 0. -1.
          2   -1    0    0  501    0  0.00000000000E+00 -0.00000000000E+00 -0.49511626032E+03  0.49511626032E+03  0.00000000000E+00 0.  1.
          5    1    1    2  502    0  0.85619122756E+01  0.46735155192E+02 -0.62009255547E+02  0.78260582966E+02  0.47000000000E+01 0.  1.
         -5    1    1    2    0  502  0.64395800025E+02 -0.64723820865E+02 -0.24884207307E+03  0.26510461969E+03  0.47000000000E+01 0.  1.
        -11    1    1    2    0    0 -0.27300191439E+02 -0.16482048002E+02 -0.17406062049E+01  0.31937252057E+02  0.00000000000E+00 0. -1.
         11    1    1    2    0    0 -0.45657520861E+02  0.34470713675E+02 -0.14575651752E+03  0.15658161359E+03  0.00000000000E+00 0.  1.
<mgrwt>
<rscale>  0 0.13814752E+03</rscale>
<asrwt>0</asrwt>
<pdfrwt beam="2">  1        2 0.76171728E-01 0.14584620E+03</pdfrwt>
<pdfrwt beam="1">  1       -2 0.56565862E-02 0.14584620E+03</pdfrwt>
<totfact> 0.97645967E+03</totfact>
</mgrwt>
</event>
<event>
 6    1  0.4705246E-006  0.1873365E+03  0.7546771E-02  0.1167816E+00
         -2   -1    0    0    0  501 -0.00000000000E+00  0.00000000000E+00  0.10693747706E+03  0.10693747706E+03  0.00000000000E+00 0.  1.
          2   -1    0    0  501    0  0.00000000000E+00 -0.00000000000E+00 -0.29888806305E+03  0.29888806305E+03  0.00000000000E+00 0. -1.
          5    1    1    2  502    0  0.30031971048E+02 -0.22393313405E+02 -0.11098665056E+03  0.11723270181E+03  0.47000000000E+01 0.  1.
         -5    1    1    2    0  502 -0.13632967180E+02 -0.11617093224E+03 -0.41104597623E+02  0.12406942104E+03  0.47000000000E+01 0.  1.
        -11    1    1    2    0    0  0.20035316172E+00  0.90426515633E+02  0.12734445397E+02  0.91319006622E+02  0.00000000000E+00 0.  1.
         11    1    1    2    0    0 -0.16599357030E+02  0.48137730016E+02 -0.52593783203E+02  0.73204410636E+02  0.00000000000E+00 0. -1.
<mgrwt>
<rscale>  0 0.17998653E+03</rscale>
<asrwt>0</asrwt>
<pdfrwt beam="2">  1        2 0.45982778E-01 0.18733651E+03</pdfrwt>
<pdfrwt beam="1">  1       -2 0.16451920E-01 0.18733651E+03</pdfrwt>
<totfact> 0.31597740E+03</totfact>
</mgrwt>
</event>
<event>
 6    1  0.4705246E-006  0.1324058E+03  0.7546771E-02  0.1236422E+00
         -2   -1    0    0    0  501 -0.00000000000E+00  0.00000000000E+00  0.99465094754E+01  0.99465094754E+01  0.00000000000E+00 0.  1.
          2   -1    0    0  501    0  0.00000000000E+00 -0.00000000000E+00 -0.17956589032E+04  0.17956589032E+04  0.00000000000E+00 0. -1.
          5    1    1    2  502    0 -0.70968591564E+02  0.37255885341E+02 -0.96284467533E+03  0.96618657659E+03  0.47000000000E+01 0. -1.
         -5    1    1    2    0  502  0.50436428918E+02  0.12817714783E+01 -0.44746877117E+03  0.45032862164E+03  0.47000000000E+01 0. -1.
        -11    1    1    2    0    0 -0.36401443354E+02 -0.17649441845E+02 -0.18032296346E+03  0.18480513799E+03  0.00000000000E+00 0. -1.
         11    1    1    2    0    0  0.56933605999E+02 -0.20888214975E+02 -0.19507598373E+03  0.20428507641E+03  0.00000000000E+00 0.  1.
<mgrwt>
<rscale>  0 0.12413866E+03</rscale>
<asrwt>0</asrwt>
<pdfrwt beam="2">  1        2 0.27625526E+00 0.13240578E+03</pdfrwt>
<pdfrwt beam="1">  1       -2 0.15302320E-02 0.13240578E+03</pdfrwt>
<totfact> 0.10659470E+04</totfact>
</mgrwt>
</event>
<event>
 6    1  0.4705246E-006  0.1261568E+04  0.7546771E-02  0.9060610E-01
         -2   -1    0    0    0  501 -0.00000000000E+00  0.00000000000E+00  0.96623235609E+03  0.96623235609E+03  0.00000000000E+00 0.  1.
          2   -1    0    0  501    0  0.00000000000E+00 -0.00000000000E+00 -0.41179352119E+03  0.41179352119E+03  0.00000000000E+00 0. -1.
          5    1    1    2  502    0  0.85765027622E+02  0.98907386268E+02  0.41650967499E+02  0.13745982728E+03  0.47000000000E+01 0. -1.
         -5    1    1    2    0  502 -0.89902233398E+02  0.21240185068E+03 -0.46012591068E+01  0.23073842187E+03  0.47000000000E+01 0.  1.
        -11    1    1    2    0    0 -0.35398685108E+02 -0.25325703427E+03  0.73655472550E+03  0.77968266363E+03  0.00000000000E+00 0.  1.
         11    1    1    2    0    0  0.39535890883E+02 -0.58052202681E+02 -0.21916559900E+03  0.23014496451E+03  0.00000000000E+00 0. -1.
<mgrwt>
<rscale>  0 0.12615676E+04</rscale>
<asrwt>0</asrwt>
<pdfrwt beam="2">  1        2 0.63352849E-01 0.12615676E+04</pdfrwt>
<pdfrwt beam="1">  1       -2 0.14865113E+00 0.12615676E+04</pdfrwt>
<totfact> 0.23182173E+01</totfact>
</mgrwt>
</event>
<event>
 6    1  0.4705246E-006  0.2667334E+03  0.7546771E-02  0.1105424E+00
         -4   -1    0    0    0  501 -0.00000000000E+00  0.00000000000E+00  0.20356796929E+03  0.20356796929E+03  0.00000000000E+00 0.  1.
          4   -1    0    0  501    0  0.00000000000E+00 -0.00000000000E+00 -0.43455349321E+03  0.43455349321E+03  0.00000000000E+00 0. -1.
          5    1    1    2  502    0 -0.53451525110E+01 -0.19655875525E+03 -0.24358004563E+03  0.31307705688E+03  0.47000000000E+01 0.  1.
         -5    1    1    2    0  502 -0.53654911842E+02 -0.31565534304E+02 -0.30897913234E+02  0.69656324644E+02  0.47000000000E+01 0.  1.
        -11    1    1    2    0    0 -0.13394644217E+02  0.84884792335E+02 -0.92923848201E+01  0.86436062376E+02  0.00000000000E+00 0. -1.
         11    1    1    2    0    0  0.72394708570E+02  0.14323949722E+03  0.52784819756E+02  0.16895201860E+03  0.00000000000E+00 0.  1.
<mgrwt>
<rscale>  0 0.26288177E+03</rscale>
<asrwt>0</asrwt>
<pdfrwt beam="2">  1        4 0.66854383E-01 0.26673337E+03</pdfrwt>
<pdfrwt beam="1">  1       -4 0.31318149E-01 0.26673337E+03</pdfrwt>
<totfact> 0.37776442E+01</totfact>
</mgrwt>
</event>
<event>
 6    1  0.4705246E-006  0.6252230E+03  0.7546771E-02  0.9854415E-01
         -2   -1    0    0    0  501 -0.00000000000E+00  0.00000000000E+00  0.80698168215E+02  0.80698168215E+02  0.00000000000E+00 0.  1.
          2   -1    0    0  501    0  0.00000000000E+00 -0.00000000000E+00 -0.12110058208E+04  0.12110058208E+04  0.00000000000E+00 0. -1.
          5    1    1    2  502    0 -0.24820387398E+03 -0.19899657300E+02 -0.83292135086E+03  0.86935678875E+03  0.47000000000E+01 0. -1.
         -5    1    1    2    0  502 -0.96713774245E+01 -0.17004471644E+02 -0.11596833312E+02  0.23222061494E+02  0.47000000000E+01 0. -1.
        -11    1    1    2    0    0  0.22091839703E+03  0.54470265415E+02 -0.19546487755E+03  0.29996410838E+03  0.00000000000E+00 0.  1.
         11    1    1    2    0    0  0.36956854375E+02 -0.17566136471E+02 -0.90324590906E+02  0.99161030441E+02  0.00000000000E+00 0. -1.
<mgrwt>
<rscale>  0 0.62522300E+03</rscale>
<asrwt>0</asrwt>
<pdfrwt beam="2">  1        2 0.18630857E+00 0.62522300E+03</pdfrwt>
<pdfrwt beam="1">  1       -2 0.12415104E-01 0.62522300E+03</pdfrwt>
<totfact> 0.90784112E+02</totfact>
</mgrwt>
</event>
<event>
 6    1  0.4705246E-006  0.1318273E+03  0.7546771E-02  0.1239717E+00
         -2   -1    0    0    0  501 -0.00000000000E+00  0.00000000000E+00  0.55290058019E+02  0.55290058019E+02  0.00000000000E+00 0.  1.
          2   -1    0    0  501    0  0.00000000000E+00 -0.00000000000E+00 -0.25321081898E+03  0.25321081898E+03  0.00000000000E+00 0. -1.
          5    1    1    2  502    0 -0.40216656091E+01 -0.56943620028E+02 -0.16683917653E+03  0.17639770543E+03  0.47000000000E+01 0.  1.
         -5    1    1    2    0  502 -0.92117784832E+01  0.17229481661E+02  0.14709161864E+02  0.24903038848E+02  0.47000000000E+01 0.  1.
        -11    1    1    2    0    0 -0.75100086023E+00 -0.27733634296E+02 -0.93793500448E+01  0.29286356564E+02  0.00000000000E+00 0.  1.
         11    1    1    2    0    0  0.13984444953E+02  0.67447772663E+02 -0.36411396249E+02  0.77913776154E+02  0.00000000000E+00 0. -1.
<mgrwt>
<rscale>  0 0.12207217E+03</rscale>
<asrwt>0</asrwt>
<pdfrwt beam="2">  1        2 0.38955510E-01 0.13182734E+03</pdfrwt>
<pdfrwt beam="1">  1       -2 0.85061628E-02 0.13182734E+03</pdfrwt>
<totfact> 0.10629485E+04</totfact>
</mgrwt>
</event>
<event>
 6    1  0.4705246E-006  0.2254531E+03  0.7546771E-02  0.1129882E+00
          2   -1    0    0  501    0  0.00000000000E+00  0.00000000000E+00  0.53226322187E+03  0.53226322187E+03  0.00000000000E+00 0. -1.
         -2   -1    0    0    0  501 -0.00000000000E+00 -0.00000000000E+00 -0.23874033493E+02  0.23874033493E+02  0.00000000000E+00 0.  1.
          5    1    1    2  502    0 -0.97282791488E+01 -0.59570862573E+00  0.32249925246E+03  0.32268072784E+03  0.47000000000E+01 0.  1.
         -5    1    1    2    0  502  0.31410538654E+02 -0.16702149014E+02  0.16118843637E+02  0.39338160105E+02  0.47000000000E+01 0.  1.
        -11    1    1    2    0    0  0.17138990179E+02  0.43153941471E+02  0.70243209214E+02  0.84202827088E+02  0.00000000000E+00 0. -1.
         11    1    1    2    0    0 -0.38821249684E+02 -0.25856083831E+02  0.99527883062E+02  0.10991554033E+03  0.00000000000E+00 0.  1.
<mgrwt>
<rscale>  0 0.22545305E+03</rscale>
<asrwt>0</asrwt>
<pdfrwt beam="1">  1        2 0.81886641E-01 0.22545305E+03</pdfrwt>
<pdfrwt beam="2">  1       -2 0.36729286E-02 0.22545305E+03</pdfrwt>
<totfact> 0.17779068E+04</totfact>
</mgrwt>
</event>
<event>
 6    1  0.4705246E-006  0.1692065E+03  0.7546771E-02  0.1184964E+00
          2   -1    0    0  501    0  0.00000000000E+00  0.00000000000E+00  0.62831294804E+03  0.62831294804E+03  0.00000000000E+00 0. -1.
         -2   -1    0    0    0  501 -0.00000000000E+00 -0.00000000000E+00 -0.41111181119E+02  0.41111181119E+02  0.00000000000E+00 0.  1.
          5    1    1    2  502    0 -0.81806171988E+02 -0.71084678733E+02  0.19268104253E+03  0.22111841957E+03  0.47000000000E+01 0. -1.
         -5    1    1    2    0  502  0.41316873652E+02 -0.35539162127E+02  0.18103616299E+03  0.18911979908E+03  0.47000000000E+01 0. -1.
        -11    1    1    2    0    0  0.25499977335E+02  0.10566609253E+03  0.21791936143E+03  0.24352498854E+03  0.00000000000E+00 0. -1.
         11    1    1    2    0    0  0.14989321001E+02  0.95774832938E+00 -0.44348000205E+01  0.15660921977E+02  0.00000000000E+00 0.  1.
<mgrwt>
<rscale>  0 0.16335174E+03</rscale>
<asrwt>0</asrwt>
<pdfrwt beam="1">  1        2 0.96663524E-01 0.16920652E+03</pdfrwt>
<pdfrwt beam="2">  1       -2 0.63247975E-02 0.16920652E+03</pdfrwt>
<totfact> 0.63526538E+03</totfact>
</mgrwt>
</event>
<event>
 6    1  0.4705246E-006  0.4062392E+03  0.7546771E-02  0.1041640E+00
          2   -1    0    0  501    0  0.00000000000E+00  0.00000000000E+00  0.14121243776E+04  0.14121243776E+04  0.00000000000E+00 0. -1.
         -2   -1    0    0    0  501 -0.00000000000E+00 -0.00000000000E+00 -0.29216672696E+02  0.29216672696E+02  0.00000000000E+00 0.  1.
          5    1    1    2  502    0  0.22317709694E+02  0.42738107809E+02  0.16037807644E+03  0.16753460367E+03  0.47000000000E+01 0.  1.
         -5    1    1    2    0  502 -0.11934024518E+03  0.68133987177E+02  0.87071752411E+03  0.88150747649E+03  0.47000000000E+01 0.  1.
        -11    1    1    2    0    0  0.88914151843E+02 -0.33206184125E+02  0.20870987577E+03  0.22927753773E+03  0.00000000000E+00 0. -1.
         11    1    1    2    0    0  0.81083836460E+01 -0.77665910861E+02  0.14310222856E+03  0.16302143238E+03  0.00000000000E+00 0.  1.
<mgrwt>
<rscale>  0 0.40623922E+03</rscale>
<asrwt>0</asrwt>
<pdfrwt beam="1">  1        2 0.21724985E+00 0.40623922E+03</pdfrwt>
<pdfrwt beam="2">  1       -2 0.44948738E-02 0.40623922E+03</pdfrwt>
<totfact> 0.35109209E+03</totfact>
</mgrwt>
</event>
<event>
 6    1  0.4705246E-006  0.3714021E+03  0.7546771E-02  0.1055115E+00
         -2   -1    0    0    0  501 -0.00000000000E+00  0.00000000000E+00  0.23131273815E+03  0.23131273815E+03  0.00000000000E+00 0.  1.
          2   -1    0    0  501    0  0.00000000000E+00 -0.00000000000E+00 -0.69855254720E+03  0.69855254720E+03  0.00000000000E+00 0. -1.
          5    1    1    2  502    0  0.17383811346E+03 -0.16158082295E+03 -0.36772259282E+03  0.43768715689E+03  0.47000000000E+01 0. -1.
         -5    1    1    2    0  502  0.67568193116E+02 -0.91478529595E+02 -0.59615826855E+02  0.12849092929E+03  0.47000000000E+01 0. -1.
        -11    1    1    2    0    0 -0.18382608886E+03  0.23297422628E+03 -0.13039843089E+02  0.29705059933E+03  0.00000000000E+00 0.  1.
         11    1    1    2    0    0 -0.57580217716E+02  0.20085126269E+02 -0.26861546284E+02  0.66636599840E+02  0.00000000000E+00 0. -1.
<mgrwt>
<rscale>  0 0.36889930E+03</rscale>
<asrwt>0</asrwt>
<pdfrwt beam="2">  1        2 0.10746962E+00 0.37140207E+03</pdfrwt>
<pdfrwt beam="1">  1       -2 0.35586575E-01 0.37140207E+03</pdfrwt>
<totfact> 0.31306144E+02</totfact>
</mgrwt>
</event>
<event>
 6    1  0.4705246E-006  0.1323442E+03  0.7546771E-02  0.1237114E+00
         -2   -1    0    0    0  501 -0.00000000000E+00  0.00000000000E+00  0.19237295394E+02  0.19237295394E+02  0.00000000000E+00 0. -1.
          2   -1    0    0  501    0  0.00000000000E+00 -0.00000000000E+00 -0.88005859058E+03  0.88005859058E+03  0.00000000000E+00 0.  1.
          5    1    1    2  502    0  0.39734411358E+02 -0.26263849056E+01 -0.36584857460E+03  0.36803938767E+03  0.47000000000E+01 0.  1.
         -5    1    1    2    0  502 -0.78691696600E+02  0.22036537827E+02 -0.30859268405E+03  0.31926403926E+03  0.47000000000E+01 0.  1.
        -11    1    1    2    0    0 -0.20655436038E+01  0.13813671059E+02  0.39194747090E+01  0.14506766025E+02  0.00000000000E+00 0. -1.
         11    1    1    2    0    0  0.41022828846E+02 -0.33223823980E+02 -0.19029951124E+03  0.19748569301E+03  0.00000000000E+00 0.  1.
<mgrwt>
<rscale>  0 0.12370043E+03</rscale>
<asrwt>0</asrwt>
<pdfrwt beam="2">  1        2 0.13539367E+00 0.13234421E+03</pdfrwt>
<pdfrwt beam="1">  1       -2 0.29595831E-02 0.13234421E+03</pdfrwt>
<totfact> 0.12936556E+04</totfact>
</mgrwt>
</event>
<event>
 6    1  0.4705246E-006  0.2605903E+03  0.7546771E-02  0.1106789E+00
         -4   -1    0    0    0  501 -0.00000000000E+00  0.00000000000E+00  0.90923079758E+01  0.90923079758E+01  0.00000000000E+00 0. -1.
          4   -1    0    0  501    0  0.00000000000E+00 -0.00000000000E+00 -0.18671638409E+04  0.18671638409E+04  0.00000000000E+00 0.  1.
          5    1    1    2  502    0  0.11899162128E+02 -0.28683441501E+02 -0.87977104960E+02  0.93415153336E+02  0.47000000000E+01 0.  1.
         -5    1    1    2    0  502 -0.74520470210E+01  0.23823121186E+01 -0.14030450467E+04  0.14030747312E+04  0.47000000000E+01 0.  1.
        -11    1    1    2    0    0 -0.44632852303E+02  0.15723704732E+02 -0.11567110940E+03  0.12497652558E+03  0.00000000000E+00 0.  1.
         11    1    1    2    0    0  0.40185737197E+02  0.10577424650E+02 -0.25137827192E+03  0.25478973876E+03  0.00000000000E+00 0. -1.
<mgrwt>
<rscale>  0 0.26059032E+03</rscale>
<asrwt>0</asrwt>
<pdfrwt beam="2">  1        4 0.28725566E+00 0.26059032E+03</pdfrwt>
<pdfrwt beam="1">  1       -4 0.13988182E-02 0.26059032E+03</pdfrwt>
<totfact> 0.14165573E+02</totfact>
</mgrwt>
</event>
<event>
 6    1  0.4705246E-006  0.1411652E+03  0.7546771E-02  0.1222969E+00
         -1   -1    0    0    0  501 -0.00000000000E+00  0.00000000000E+00  0.54688195245E+02  0.54688195245E+02  0.00000000000E+00 0.  1.
          1   -1    0    0  501    0  0.00000000000E+00 -0.00000000000E+00 -0.35542640836E+03  0.35542640836E+03  0.00000000000E+00 0. -1.
          5    1    1    2  502    0 -0.19291992691E+02  0.67433642712E+02 -0.23789689928E+03  0.24806551925E+03  0.47000000000E+01 0.  1.
         -5    1    1    2    0  502  0.37246560382E+02 -0.43693986729E+01 -0.13277388504E+02  0.40059667379E+02  0.47000000000E+01 0.  1.
        -11    1    1    2    0    0 -0.37746943191E+02 -0.15502723038E+02  0.11211197164E+02  0.42318519394E+02  0.00000000000E+00 0.  1.
         11    1    1    2    0    0  0.19792375501E+02 -0.47561521001E+02 -0.60775122494E+02  0.79670897586E+02  0.00000000000E+00 0. -1.
<mgrwt>
<rscale>  0 0.13307055E+03</rscale>
<asrwt>0</asrwt>
<pdfrwt beam="2">  1        1 0.54680988E-01 0.14116515E+03</pdfrwt>
<pdfrwt beam="1">  1       -1 0.84135682E-02 0.14116515E+03</pdfrwt>
<totfact> 0.54028397E+03</totfact>
</mgrwt>
</event>
<event>
 6    1  0.4705246E-006  0.1828735E+03  0.7546771E-02  0.1170403E+00
          1   -1    0    0  501    0  0.00000000000E+00  0.00000000000E+00  0.33965851445E+03  0.33965851445E+03  0.00000000000E+00 0. -1.
         -1   -1    0    0    0  501 -0.00000000000E+00 -0.00000000000E+00 -0.87945450348E+02  0.87945450348E+02  0.00000000000E+00 0.  1.
          5    1    1    2  502    0  0.20052271528E+02  0.60922780310E+02 -0.16067990953E+02  0.66286869645E+02  0.47000000000E+01 0. -1.
         -5    1    1    2    0  502  0.41950961419E+02  0.57271624336E+02  0.13282662356E+03  0.15068153186E+03  0.47000000000E+01 0. -1.
        -11    1    1    2    0    0 -0.64201997698E+02 -0.88045219160E+02  0.48919466071E+02  0.11944442761E+03  0.00000000000E+00 0.  1.
         11    1    1    2    0    0  0.21987647509E+01 -0.30149185486E+02  0.86034965423E+02  0.91191135683E+02  0.00000000000E+00 0. -1.
<mgrwt>
<rscale>  0 0.17733997E+03</rscale>
<asrwt>0</asrwt>
<pdfrwt beam="1">  1        1 0.52255156E-01 0.18287348E+03</pdfrwt>
<pdfrwt beam="2">  1       -1 0.13530069E-01 0.18287348E+03</pdfrwt>
<totfact> 0.27860929E+03</totfact>
</mgrwt>
</event>
<event>
 6    1  0.4705246E-006  0.1360625E+03  0.7546771E-02  0.1229499E+00
          1   -1    0    0  501    0  0.00000000000E+00  0.00000000000E+00  0.16302944396E+03  0.16302944396E+03  0.00000000000E+00 0. -1.
         -1   -1    0    0    0  501 -0.00000000000E+00 -0.00000000000E+00 -0.91913851747E+02  0.91913851747E+02  0.00000000000E+00 0.  1.
          5    1    1    2  502    0 -0.15247264835E+02 -0.43629442661E+02 -0.26949226050E+02  0.53706220650E+02  0.47000000000E+01 0.  1.
         -5    1    1    2    0  502 -0.38352870595E+02  0.39603937952E+02  0.69539285614E+02  0.88866286228E+02  0.47000000000E+01 0.  1.
        -11    1    1    2    0    0  0.24098851553E+02 -0.51761395452E+01  0.62055771058E+02  0.66771743937E+02  0.00000000000E+00 0. -1.
         11    1    1    2    0    0  0.29501283877E+02  0.92016442541E+01 -0.33530238409E+02  0.45599044893E+02  0.00000000000E+00 0.  1.
<mgrwt>
<rscale>  0 0.12863262E+03</rscale>
<asrwt>0</asrwt>
<pdfrwt beam="1">  1        1 0.25081453E-01 0.13606251E+03</pdfrwt>
<pdfrwt beam="2">  1       -1 0.14140593E-01 0.13606251E+03</pdfrwt>
<totfact> 0.63963467E+03</totfact>
</mgrwt>
</event>
<event>
 6    1  0.4705246E-006  0.1257372E+03  0.7546771E-02  0.1249319E+00
         -1   -1    0    0    0  501 -0.00000000000E+00  0.00000000000E+00  0.27084013688E+02  0.27084013688E+02  0.00000000000E+00 0.  1.
          1   -1    0    0  501    0  0.00000000000E+00 -0.00000000000E+00 -0.51349986776E+03  0.51349986776E+03  0.00000000000E+00 0. -1.
          5    1    1    2  502    0  0.72830822413E+01 -0.13572478907E+00  0.82886722614E+01  0.11993906620E+02  0.47000000000E+01 0.  1.
         -5    1    1    2    0  502  0.61962306279E+01  0.16337526910E+01 -0.38628191674E+03  0.38636365205E+03  0.47000000000E+01 0.  1.
        -11    1    1    2    0    0 -0.18987572651E+02  0.31752439335E+02 -0.10192283139E+02  0.38374834912E+02  0.00000000000E+00 0.  1.
         11    1    1    2    0    0  0.55082597820E+01 -0.33250467237E+02 -0.98230326451E+02  0.10385148787E+03  0.00000000000E+00 0. -1.
<mgrwt>
<rscale>  0 0.11630589E+03</rscale>
<asrwt>0</asrwt>
<pdfrwt beam="2">  1        1 0.78999982E-01 0.12573723E+03</pdfrwt>
<pdfrwt beam="1">  1       -1 0.41667712E-02 0.12573723E+03</pdfrwt>
<totfact> 0.95584766E+03</totfact>
</mgrwt>
</event>
<event>
 6    1  0.4705246E-006  0.1261610E+03  0.7546771E-02  0.1248030E+00
         -2   -1    0    0    0  501 -0.00000000000E+00  0.00000000000E+00  0.28328436202E+02  0.28328436202E+02  0.00000000000E+00 0.  1.
          2   -1    0    0  501    0  0.00000000000E+00 -0.00000000000E+00 -0.48431004341E+03  0.48431004341E+03  0.00000000000E+00 0. -1.
          5    1    1    2  502    0 -0.48913849862E+02 -0.27869302887E+02 -0.16259291781E+03  0.17212730659E+03  0.47000000000E+01 0.  1.
         -5    1    1    2    0  502  0.65372447498E+02  0.23310025583E+02 -0.18339423450E+03  0.19614395079E+03  0.47000000000E+01 0.  1.
        -11    1    1    2    0    0 -0.82246376916E+01 -0.33172069785E+02 -0.77106498900E+01  0.35035482025E+02  0.00000000000E+00 0.  1.
         11    1    1    2    0    0 -0.82339599444E+01  0.37731347089E+02 -0.10228380500E+03  0.10933174020E+03  0.00000000000E+00 0. -1.
<mgrwt>
<rscale>  0 0.11705831E+03</rscale>
<asrwt>0</asrwt>
<pdfrwt beam="2">  1        2 0.74509239E-01 0.12616105E+03</pdfrwt>
<pdfrwt beam="1">  1       -2 0.43582209E-02 0.12616105E+03</pdfrwt>
<totfact> 0.14638603E+04</totfact>
</mgrwt>
</event>
<event>
 6    1  0.4705246E-006  0.3920787E+03  0.7546771E-02  0.1046558E+00
          2   -1    0    0  501    0  0.00000000000E+00  0.00000000000E+00  0.31186349342E+03  0.31186349342E+03  0.00000000000E+00 0. -1.
         -2   -1    0    0    0  501 -0.00000000000E+00 -0.00000000000E+00 -0.12323154594E+03  0.12323154594E+03  0.00000000000E+00 0.  1.
          5    1    1    2  502    0  0.10474972403E+01 -0.32160734080E+02  0.25700871833E+02  0.41449184311E+02  0.47000000000E+01 0. -1.
         -5    1    1    2    0  502 -0.96957182605E+02  0.84398353144E+02  0.21040602942E+03  0.24661014677E+03  0.47000000000E+01 0.  1.
        -11    1    1    2    0    0  0.39819834379E+02 -0.54567703789E+02 -0.59042929288E+02  0.89718008257E+02  0.00000000000E+00 0. -1.
         11    1    1    2    0    0  0.56089850987E+02  0.23300847253E+01  0.11567975516E+02  0.57317700024E+02  0.00000000000E+00 0.  1.
<mgrwt>
<rscale>  0 0.39207867E+03</rscale>
<asrwt>0</asrwt>
<pdfrwt beam="1">  1        2 0.47978999E-01 0.39207867E+03</pdfrwt>
<pdfrwt beam="2">  1       -2 0.18958700E-01 0.39207867E+03</pdfrwt>
<totfact> 0.24301264E+03</totfact>
</mgrwt>
</event>
<event>
 6    1  0.4705246E-006  0.1436512E+03  0.7546771E-02  0.1218627E+00
         -1   -1    0    0    0  501 -0.00000000000E+00  0.00000000000E+00  0.19565644453E+02  0.19565644453E+02  0.00000000000E+00 0.  1.
          1   -1    0    0  501    0  0.00000000000E+00 -0.00000000000E+00 -0.16856986602E+04  0.16856986602E+04  0.00000000000E+00 0. -1.
          5    1    1    2  502    0  0.19644663448E+02  0.42227169035E+02 -0.91231846489E+03  0.91351853730E+03  0.47000000000E+01 0. -1.
         -5    1    1    2    0  502  0.47259108995E+02 -0.65352302633E+02 -0.56108204197E+03  0.56686814574E+03  0.47000000000E+01 0. -1.
        -11    1    1    2    0    0 -0.58092524829E+02 -0.14206225346E+02 -0.17017859640E+03  0.18038102160E+03  0.00000000000E+00 0. -1.
         11    1    1    2    0    0 -0.88112476134E+01  0.37331358944E+02 -0.22553912511E+02  0.44496600034E+02  0.00000000000E+00 0.  1.
<mgrwt>
<rscale>  0 0.13613437E+03</rscale>
<asrwt>0</asrwt>
<pdfrwt beam="2">  1        1 0.25933838E+00 0.14365124E+03</pdfrwt>
<pdfrwt beam="1">  1       -1 0.30100978E-02 0.14365124E+03</pdfrwt>
<totfact> 0.20284972E+03</totfact>
</mgrwt>
</event>
<event>
 6    1  0.4705246E-006  0.2444057E+03  0.7546771E-02  0.1118806E+00
         -1   -1    0    0    0  501 -0.00000000000E+00  0.00000000000E+00  0.21412772609E+03  0.21412772609E+03  0.00000000000E+00 0.  1.
          1   -1    0    0  501    0  0.00000000000E+00 -0.00000000000E+00 -0.26616356861E+03  0.26616356861E+03  0.00000000000E+00 0. -1.
          5    1    1    2  502    0  0.47741768265E+02 -0.71693032059E+02  0.39978520854E+02  0.95076492429E+02  0.47000000000E+01 0.  1.
         -5    1    1    2    0  502  0.12334655728E+03 -0.50118266650E+02 -0.71953247085E+02  0.15141193352E+03  0.47000000000E+01 0.  1.
        -11    1    1    2    0    0 -0.67545680024E+01 -0.10992154578E+02  0.14827221415E+02  0.19654468857E+02  0.00000000000E+00 0.  1.
         11    1    1    2    0    0 -0.16433375754E+03  0.13280345329E+03 -0.34888337699E+02  0.21414839990E+03  0.00000000000E+00 0. -1.
<mgrwt>
<rscale>  0 0.24148761E+03</rscale>
<asrwt>0</asrwt>
<pdfrwt beam="2">  1        1 0.40948242E-01 0.24440573E+03</pdfrwt>
<pdfrwt beam="1">  1       -1 0.32942727E-01 0.24440573E+03</pdfrwt>
<totfact> 0.88770131E+02</totfact>
</mgrwt>
</event>
<event>
 6    1  0.4705246E-006  0.3421254E+03  0.7546771E-02  0.1065894E+00
          2   -1    0    0  501    0  0.00000000000E+00  0.00000000000E+00  0.46703841178E+03  0.46703841178E+03  0.00000000000E+00 0. -1.
         -2   -1    0    0    0  501 -0.00000000000E+00 -0.00000000000E+00 -0.62655331302E+02  0.62655331302E+02  0.00000000000E+00 0.  1.
          5    1    1    2  502    0 -0.14285209131E+02 -0.27362781316E+02  0.14474730392E+03  0.14807653762E+03  0.47000000000E+01 0. -1.
         -5    1    1    2    0  502  0.10293062984E+03  0.50506608624E+02  0.21713144253E+03  0.24558865081E+03  0.47000000000E+01 0. -1.
        -11    1    1    2    0    0 -0.25311611923E+02 -0.41784122703E+02  0.49611950324E+02  0.69627122755E+02  0.00000000000E+00 0. -1.
         11    1    1    2    0    0 -0.63333808784E+02  0.18640295396E+02 -0.71076162989E+01  0.66401431890E+02  0.00000000000E+00 0.  1.
<mgrwt>
<rscale>  0 0.34212539E+03</rscale>
<asrwt>0</asrwt>
<pdfrwt beam="1">  1        2 0.71852061E-01 0.34212539E+03</pdfrwt>
<pdfrwt beam="2">  1       -2 0.96392820E-02 0.34212539E+03</pdfrwt>
<totfact> 0.47449841E+03</totfact>
</mgrwt>
</event>
<event>
 6    1  0.4705246E-006  0.1448920E+03  0.7546771E-02  0.1222285E+00
         -2   -1    0    0    0  501 -0.00000000000E+00  0.00000000000E+00  0.81320097899E+02  0.81320097899E+02  0.00000000000E+00 0.  1.
          2   -1    0    0  501    0  0.00000000000E+00 -0.00000000000E+00 -0.21732923708E+03  0.21732923708E+03  0.00000000000E+00 0. -1.
          5    1    1    2  502    0 -0.47630895068E+02 -0.17182604749E+02 -0.14941141222E+03  0.15782840104E+03  0.47000000000E+01 0. -1.
         -5    1    1    2    0  502 -0.18688559976E+02  0.22306965430E+02  0.20664814636E+02  0.35999827008E+02  0.47000000000E+01 0.  1.
        -11    1    1    2    0    0 -0.10471675268E+02  0.70945460643E+01 -0.22286579369E+02  0.25625771925E+02  0.00000000000E+00 0. -1.
         11    1    1    2    0    0  0.76791130313E+02 -0.12218906745E+02  0.15024037773E+02  0.79195335012E+02  0.00000000000E+00 0.  1.
<mgrwt>
<rscale>  0 0.13354705E+03</rscale>
<asrwt>0</asrwt>
<pdfrwt beam="2">  1        2 0.33435267E-01 0.14489201E+03</pdfrwt>
<pdfrwt beam="1">  1       -2 0.12510784E-01 0.14489201E+03</pdfrwt>
<totfact> 0.68595198E+03</totfact>
</mgrwt>
</event>
<event>
 6    1  0.4705246E-006  0.1418058E+03  0.7546771E-02  0.1222563E+00
         -1   -1    0    0    0  501 -0.00000000000E+00  0.00000000000E+00  0.22027068454E+03  0.22027068454E+03  0.00000000000E+00 0.  1.
          1   -1    0    0  501    0  0.00000000000E+00 -0.00000000000E+00 -0.79982226589E+02  0.79982226589E+02  0.00000000000E+00 0. -1.
          5    1    1    2  502    0  0.27848793686E+02  0.71973845399E+02  0.63511746700E+02  0.10005809163E+03  0.47000000000E+01 0. -1.
         -5    1    1    2    0  502 -0.32132328304E+02 -0.51469243712E+01 -0.31261195116E+02  0.45368818287E+02  0.47000000000E+01 0. -1.
        -11    1    1    2    0    0  0.44628102767E+02 -0.20372206659E+02  0.53747285184E+02  0.72769945894E+02  0.00000000000E+00 0.  1.
         11    1    1    2    0    0 -0.40344568148E+02 -0.46454714369E+02  0.54290621182E+02  0.82056055319E+02  0.00000000000E+00 0. -1.
<mgrwt>
<rscale>  0 0.13335331E+03</rscale>
<asrwt>0</asrwt>
<pdfrwt beam="2">  1        1 0.12304958E-01 0.14180581E+03</pdfrwt>
<pdfrwt beam="1">  1       -1 0.33887797E-01 0.14180581E+03</pdfrwt>
<totfact> 0.38615323E+03</totfact>
</mgrwt>
</event>
<event>
 6    1  0.4705246E-006  0.2037014E+03  0.7546771E-02  0.1150513E+00
          2   -1    0    0  501    0  0.00000000000E+00  0.00000000000E+00  0.23770519786E+03  0.23770519786E+03  0.00000000000E+00 0. -1.
         -2   -1    0    0    0  501 -0.00000000000E+00 -0.00000000000E+00 -0.18694961344E+03  0.18694961344E+03  0.00000000000E+00 0.  1.
          5    1    1    2  502    0 -0.75857166607E+02  0.37742002156E+02  0.34779138702E+02  0.91708488927E+02  0.47000000000E+01 0. -1.
         -5    1    1    2    0  502 -0.76287873765E+02 -0.89915320464E+02  0.72724712227E+02  0.13862026658E+03  0.47000000000E+01 0. -1.
        -11    1    1    2    0    0  0.98484565995E+02 -0.15270196409E+02 -0.29542911296E+02  0.10394793045E+03  0.00000000000E+00 0. -1.
         11    1    1    2    0    0  0.53660474377E+02  0.67443514717E+02 -0.27205355210E+02  0.90378125340E+02  0.00000000000E+00 0.  1.
<mgrwt>
<rscale>  0 0.19908536E+03</rscale>
<asrwt>0</asrwt>
<pdfrwt beam="1">  1        2 0.36570031E-01 0.20370139E+03</pdfrwt>
<pdfrwt beam="2">  1       -2 0.28761479E-01 0.20370139E+03</pdfrwt>
<totfact> 0.15442164E+03</totfact>
</mgrwt>
</event>
<event>
 6    1  0.4705246E-006  0.1295539E+03  0.7546771E-02  0.1238531E+00
         -4   -1    0    0    0  501 -0.00000000000E+00  0.00000000000E+00  0.48790652721E+03  0.48790652721E+03  0.00000000000E+00 0.  1.
          4   -1    0    0  501    0  0.00000000000E+00 -0.00000000000E+00 -0.29458735890E+02  0.29458735890E+02  0.00000000000E+00 0. -1.
          5    1    1    2  502    0  0.34838936265E+02  0.30787439083E+02  0.26575217292E+02  0.53758255734E+02  0.47000000000E+01 0.  1.
         -5    1    1    2    0  502 -0.62699687145E+02 -0.11298473885E+02  0.17061783156E+03  0.18218518251E+03  0.47000000000E+01 0.  1.
        -11    1    1    2    0    0  0.57039707961E+02 -0.39041768464E+02  0.18408948896E+03  0.19663857179E+03  0.00000000000E+00 0. -1.
         11    1    1    2    0    0 -0.29178957082E+02  0.19552803266E+02  0.77165253504E+02  0.84783253065E+02  0.00000000000E+00 0.  1.
<mgrwt>
<rscale>  0 0.12281059E+03</rscale>
<asrwt>0</asrwt>
<pdfrwt beam="2">  1        4 0.45321136E-02 0.12955388E+03</pdfrwt>
<pdfrwt beam="1">  1       -4 0.75062536E-01 0.12955388E+03</pdfrwt>
<totfact> 0.75144962E+02</totfact>
</mgrwt>
</event>
<event>
 6    1  0.4705246E-006  0.3416616E+03  0.7546771E-02  0.1066090E+00
          1   -1    0    0  501    0  0.00000000000E+00  0.00000000000E+00  0.24962111619E+03  0.24962111619E+03  0.00000000000E+00 0. -1.
         -1   -1    0    0    0  501 -0.00000000000E+00 -0.00000000000E+00 -0.11690984877E+03  0.11690984877E+03  0.00000000000E+00 0.  1.
          5    1    1    2  502    0 -0.23659339914E+02  0.13100011312E+03  0.13866838808E+03  0.19228053946E+03  0.47000000000E+01 0.  1.
         -5    1    1    2    0  502  0.78395747016E+01 -0.96605472837E+01 -0.16417499976E+02  0.21128402940E+02  0.47000000000E+01 0.  1.
        -11    1    1    2    0    0  0.31280605843E+02 -0.28204556089E+01  0.11910193877E+02  0.33589938820E+02  0.00000000000E+00 0. -1.
         11    1    1    2    0    0 -0.15460840631E+02 -0.11851911022E+03 -0.14498145675E+01  0.11953208374E+03  0.00000000000E+00 0.  1.
<mgrwt>
<rscale>  0 0.34166163E+03</rscale>
<asrwt>0</asrwt>
<pdfrwt beam="1">  1        1 0.38403249E-01 0.34166163E+03</pdfrwt>
<pdfrwt beam="2">  1       -1 0.17986131E-01 0.34166163E+03</pdfrwt>
<totfact> 0.26601649E+03</totfact>
</mgrwt>
</event>
<event>
 6    1  0.4705246E-006  0.1350924E+03  0.7546771E-02  0.1231246E+00
          1   -1    0    0  501    0  0.00000000000E+00  0.00000000000E+00  0.46974336384E+03  0.46974336384E+03  0.00000000000E+00 0. -1.
         -1   -1    0    0    0  501 -0.00000000000E+00 -0.00000000000E+00 -0.36574099447E+02  0.36574099447E+02  0.00000000000E+00 0.  1.
          5    1    1    2  502    0 -0.29036227904E+01  0.26280565339E+02  0.35858290729E+01  0.27093307476E+02  0.47000000000E+01 0. -1.
         -5    1    1    2    0  502  0.42018962464E+02  0.67888488356E+01  0.33064693376E+03  0.33340840793E+03  0.47000000000E+01 0. -1.
        -11    1    1    2    0    0 -0.50225803190E+02  0.19126702152E+02  0.50409233886E+02  0.73685499946E+02  0.00000000000E+00 0.  1.
         11    1    1    2    0    0  0.11110463516E+02 -0.52196116327E+02  0.48527267681E+02  0.72130247939E+02  0.00000000000E+00 0. -1.
<mgrwt>
<rscale>  0 0.12747837E+03</rscale>
<asrwt>0</asrwt>
<pdfrwt beam="1">  1        1 0.72268206E-01 0.13509236E+03</pdfrwt>
<pdfrwt beam="2">  1       -1 0.56267849E-02 0.13509236E+03</pdfrwt>
<totfact> 0.69194536E+03</totfact>
</mgrwt>
</event>
<event>
 6    1  0.4705246E-006  0.1343779E+03  0.7546771E-02  0.1229116E+00
         -2   -1    0    0    0  501 -0.00000000000E+00  0.00000000000E+00  0.68653842882E+02  0.68653842882E+02  0.00000000000E+00 0.  1.
          2   -1    0    0  501    0  0.00000000000E+00 -0.00000000000E+00 -0.22564096203E+03  0.22564096203E+03  0.00000000000E+00 0. -1.
          5    1    1    2  502    0  0.12031788480E+02 -0.85385902448E+02 -0.78219883053E+02  0.11651590611E+03  0.47000000000E+01 0. -1.
         -5    1    1    2    0  502  0.30264252996E+02  0.33605443819E+02 -0.18681016801E+02  0.49156090695E+02  0.47000000000E+01 0.  1.
        -11    1    1    2    0    0 -0.24110966284E+01  0.63671299840E+02 -0.59229692657E+02  0.86994277412E+02  0.00000000000E+00 0.  1.
         11    1    1    2    0    0 -0.39884944847E+02 -0.11890841211E+02 -0.85652663617E+00  0.41628530697E+02  0.00000000000E+00 0. -1.
<mgrwt>
<rscale>  0 0.12888736E+03</rscale>
<asrwt>0</asrwt>
<pdfrwt beam="2">  1        2 0.34713993E-01 0.13437792E+03</pdfrwt>
<pdfrwt beam="1">  1       -2 0.10562130E-01 0.13437792E+03</pdfrwt>
<totfact> 0.85815026E+03</totfact>
</mgrwt>
</event>
<event>
 6    1  0.4705246E-006  0.1567323E+03  0.7546771E-02  0.1202623E+00
          2   -1    0    0  501    0  0.00000000000E+00  0.00000000000E+00  0.62220275694E+02  0.62220275694E+02  0.00000000000E+00 0. -1.
         -2   -1    0    0    0  501 -0.00000000000E+00 -0.00000000000E+00 -0.34372219469E+03  0.34372219469E+03  0.00000000000E+00 0.  1.
          5    1    1    2  502    0 -0.21447310180E+02  0.29354114834E+01  0.29175516373E+02  0.36632014826E+02  0.47000000000E+01 0. -1.
         -5    1    1    2    0  502 -0.73105399840E+02 -0.26576415115E+01 -0.13148025150E+03  0.15053441161E+03  0.47000000000E+01 0. -1.
        -11    1    1    2    0    0  0.15021206884E+02 -0.32076618758E+02 -0.28599283157E+02  0.45524335517E+02  0.00000000000E+00 0. -1.
         11    1    1    2    0    0  0.79531503136E+02  0.31798848786E+02 -0.15059790071E+03  0.17325170843E+03  0.00000000000E+00 0.  1.
<mgrwt>
<rscale>  0 0.14826325E+03</rscale>
<asrwt>0</asrwt>
<pdfrwt beam="1">  1        2 0.95723501E-02 0.15673230E+03</pdfrwt>
<pdfrwt beam="2">  1       -2 0.52880338E-01 0.15673230E+03</pdfrwt>
<totfact> 0.22559044E+03</totfact>
</mgrwt>
</event>
<event>
 6    1  0.4705246E-006  0.2076415E+03  0.7546771E-02  0.1147437E+00
          2   -1    0    0  501    0  0.00000000000E+00  0.00000000000E+00  0.15998315416E+04  0.15998315416E+04  0.00000000000E+00 0. -1.
         -2   -1    0    0    0  501 -0.00000000000E+00 -0.00000000000E+00 -0.24870281667E+02  0.24870281667E+02  0.00000000000E+00 0.  1.
          5    1    1    2  502    0  0.44895120353E+02 -0.11804290968E+02  0.66950288283E+02  0.81604805115E+02  0.47000000000E+01 0.  1.
         -5    1    1    2    0  502  0.12080607494E+03  0.64489995271E+01  0.84882117853E+03  0.85741190828E+03  0.47000000000E+01 0.  1.
        -11    1    1    2    0    0 -0.72227861368E+02 -0.41995374321E+02  0.26948910696E+03  0.28214332208E+03  0.00000000000E+00 0. -1.
         11    1    1    2    0    0 -0.93473333927E+02  0.47350665761E+02  0.38970068615E+03  0.40354178778E+03  0.00000000000E+00 0.  1.
<mgrwt>
<rscale>  0 0.20275289E+03</rscale>
<asrwt>0</asrwt>
<pdfrwt beam="1">  1        2 0.24612785E+00 0.20764154E+03</pdfrwt>
<pdfrwt beam="2">  1       -2 0.38261984E-02 0.20764154E+03</pdfrwt>
<totfact> 0.35406327E+03</totfact>
</mgrwt>
</event>
<event>
 6    1  0.4705246E-006  0.1290119E+03  0.7546771E-02  0.1243490E+00
          1   -1    0    0  501    0  0.00000000000E+00  0.00000000000E+00  0.67478575041E+02  0.67478575041E+02  0.00000000000E+00 0. -1.
         -1   -1    0    0    0  501 -0.00000000000E+00 -0.00000000000E+00 -0.18960068588E+03  0.18960068588E+03  0.00000000000E+00 0.  1.
          5    1    1    2  502    0  0.35094707515E+02 -0.24423212170E+02 -0.76582723329E+02  0.87835842916E+02  0.47000000000E+01 0.  1.
         -5    1    1    2    0  502 -0.12215825966E+02  0.46679603916E+02  0.20756830815E+02  0.52736589302E+02  0.47000000000E+01 0.  1.
        -11    1    1    2    0    0  0.30695036638E+02 -0.13661968954E+02 -0.49277529734E+02  0.59641509090E+02  0.00000000000E+00 0.  1.
         11    1    1    2    0    0 -0.53573918187E+02 -0.85944227921E+01 -0.17018688588E+02  0.56865319610E+02  0.00000000000E+00 0. -1.
<mgrwt>
<rscale>  0 0.11976220E+03</rscale>
<asrwt>0</asrwt>
<pdfrwt beam="1">  1        1 0.10381319E-01 0.12901193E+03</pdfrwt>
<pdfrwt beam="2">  1       -1 0.29169336E-01 0.12901193E+03</pdfrwt>
<totfact> 0.61856057E+03</totfact>
</mgrwt>
</event>
<event>
 6    1  0.4705246E-006  0.1648705E+03  0.7546771E-02  0.1192303E+00
         -3   -1    0    0    0  501 -0.00000000000E+00  0.00000000000E+00  0.30127275685E+03  0.30127275685E+03  0.00000000000E+00 0.  1.
          3   -1    0    0  501    0  0.00000000000E+00 -0.00000000000E+00 -0.81952891356E+02  0.81952891356E+02  0.00000000000E+00 0. -1.
          5    1    1    2  502    0 -0.89927694175E+02  0.15268141535E+02  0.14886528186E+02  0.92540829081E+02  0.47000000000E+01 0.  1.
         -5    1    1    2    0  502 -0.33735874168E+01 -0.68659601037E+02  0.47730445116E+02  0.83820088866E+02  0.47000000000E+01 0.  1.
        -11    1    1    2    0    0  0.56019587599E+02 -0.10440814341E+02  0.94035636478E+02  0.10995410737E+03  0.00000000000E+00 0.  1.
         11    1    1    2    0    0  0.37281693992E+02  0.63832273843E+02  0.62667255714E+02  0.96910622894E+02  0.00000000000E+00 0. -1.
<mgrwt>
<rscale>  0 0.15684731E+03</rscale>
<asrwt>0</asrwt>
<pdfrwt beam="2">  1        3 0.12608137E-01 0.16487052E+03</pdfrwt>
<pdfrwt beam="1">  1       -3 0.46349654E-01 0.16487052E+03</pdfrwt>
<totfact> 0.55326533E+02</totfact>
</mgrwt>
</event>
<event>
 6    1  0.4705246E-006  0.3015668E+03  0.7546771E-02  0.1085982E+00
          2   -1    0    0  501    0  0.00000000000E+00  0.00000000000E+00  0.23140394325E+04  0.23140394325E+04  0.00000000000E+00 0. -1.
         -2   -1    0    0    0  501 -0.00000000000E+00 -0.00000000000E+00 -0.42720676105E+02  0.42720676105E+02  0.00000000000E+00 0.  1.
          5    1    1    2  502    0  0.25963898438E+01  0.10416221065E+02  0.10859010935E+02  0.15976452046E+02  0.47000000000E+01 0.  1.
         -5    1    1    2    0  502  0.27170897898E+03 -0.19071620152E+02  0.15469671026E+04  0.15707701304E+04  0.47000000000E+01 0.  1.
        -11    1    1    2    0    0 -0.20894240067E+03 -0.76877162729E+01  0.42355268275E+03  0.47234828553E+03  0.00000000000E+00 0. -1.
         11    1    1    2    0    0 -0.65362968156E+02  0.16343115360E+02  0.28993996010E+03  0.29766524065E+03  0.00000000000E+00 0.  1.
<mgrwt>
<rscale>  0 0.29852101E+03</rscale>
<asrwt>0</asrwt>
<pdfrwt beam="1">  1        2 0.35600597E+00 0.30156677E+03</pdfrwt>
<pdfrwt beam="2">  1       -2 0.65724135E-02 0.30156677E+03</pdfrwt>
<totfact> 0.64733477E+02</totfact>
</mgrwt>
</event>
<event>
 6    1  0.4705246E-006  0.2080721E+03  0.7546771E-02  0.1147439E+00
         -1   -1    0    0    0  501 -0.00000000000E+00  0.00000000000E+00  0.77416544852E+02  0.77416544852E+02  0.00000000000E+00 0.  1.
          1   -1    0    0  501    0  0.00000000000E+00 -0.00000000000E+00 -0.50554112100E+03  0.50554112100E+03  0.00000000000E+00 0. -1.
          5    1    1    2  502    0  0.26878152508E+02  0.23116020892E+02 -0.14054193807E+03  0.14502038429E+03  0.47000000000E+01 0. -1.
         -5    1    1    2    0  502  0.23947690870E+02  0.13530382400E+03 -0.84054409888E+02  0.16114543279E+03  0.47000000000E+01 0. -1.
        -11    1    1    2    0    0  0.20124582860E+02 -0.58228876569E+02 -0.45044123111E+02  0.76318896275E+02  0.00000000000E+00 0.  1.
         11    1    1    2    0    0 -0.70950426238E+02 -0.10019096833E+03 -0.15848410508E+03  0.20047295250E+03  0.00000000000E+00 0. -1.
<mgrwt>
<rscale>  0 0.20275087E+03</rscale>
<asrwt>0</asrwt>
<pdfrwt beam="2">  1        1 0.77775555E-01 0.20807207E+03</pdfrwt>
<pdfrwt beam="1">  1       -1 0.11910238E-01 0.20807207E+03</pdfrwt>
<totfact> 0.20475609E+03</totfact>
</mgrwt>
</event>
<event>
 6    1  0.4705246E-006  0.1528033E+03  0.7546771E-02  0.1205891E+00
          2   -1    0    0  501    0  0.00000000000E+00  0.00000000000E+00  0.98592746138E+03  0.98592746138E+03  0.00000000000E+00 0. -1.
         -2   -1    0    0    0  501 -0.00000000000E+00 -0.00000000000E+00 -0.24361453555E+02  0.24361453555E+02  0.00000000000E+00 0.  1.
          5    1    1    2  502    0  0.17753900766E+02 -0.21916421513E+02  0.60109125183E+02  0.66563709742E+02  0.47000000000E+01 0. -1.
         -5    1    1    2    0  502 -0.22790770337E+02  0.10965223141E+03  0.67695854443E+03  0.68617635630E+03  0.47000000000E+01 0. -1.
        -11    1    1    2    0    0  0.19869574658E+02  0.12887108410E+02  0.54893382850E+02  0.59784287576E+02  0.00000000000E+00 0.  1.
         11    1    1    2    0    0 -0.14832705087E+02 -0.10062291831E+03  0.16960495536E+03  0.19776456131E+03  0.00000000000E+00 0. -1.
<mgrwt>
<rscale>  0 0.14567435E+03</rscale>
<asrwt>0</asrwt>
<pdfrwt beam="1">  1        2 0.15168112E+00 0.15280333E+03</pdfrwt>
<pdfrwt beam="2">  1       -2 0.37479167E-02 0.15280333E+03</pdfrwt>
<totfact> 0.79096303E+03</totfact>
</mgrwt>
</event>
<event>
 6    1  0.4705246E-006  0.1302353E+03  0.7546771E-02  0.1241983E+00
          2   -1    0    0  501    0  0.00000000000E+00  0.00000000000E+00  0.10058676243E+04  0.10058676243E+04  0.00000000000E+00 0. -1.
         -2   -1    0    0    0  501 -0.00000000000E+00 -0.00000000000E+00 -0.13004352606E+02  0.13004352606E+02  0.00000000000E+00 0.  1.
          5    1    1    2  502    0  0.61365522613E+02  0.85028846008E+01  0.34515453694E+03  0.35070182603E+03  0.47000000000E+01 0. -1.
         -5    1    1    2    0  502 -0.60994464463E+02  0.28111080361E+02  0.29891594599E+03  0.30640396587E+03  0.47000000000E+01 0. -1.
        -11    1    1    2    0    0 -0.42194458726E+02 -0.33792545848E+02  0.20131582243E+03  0.20844752064E+03  0.00000000000E+00 0.  1.
         11    1    1    2    0    0  0.41823400577E+02 -0.28214191134E+01  0.14747696633E+03  0.15331866436E+03  0.00000000000E+00 0. -1.
<mgrwt>
<rscale>  0 0.12067805E+03</rscale>
<asrwt>0</asrwt>
<pdfrwt beam="1">  1        2 0.15474880E+00 0.13023531E+03</pdfrwt>
<pdfrwt beam="2">  1       -2 0.20006704E-02 0.13023531E+03</pdfrwt>
<totfact> 0.19144847E+04</totfact>
</mgrwt>
</event>
<event>
 6    1  0.4705246E-006  0.1459980E+03  0.7546771E-02  0.1215568E+00
         -1   -1    0    0    0  501 -0.00000000000E+00  0.00000000000E+00  0.20206566381E+03  0.20206566381E+03  0.00000000000E+00 0.  1.
          1   -1    0    0  501    0  0.00000000000E+00 -0.00000000000E+00 -0.13014246100E+03  0.13014246100E+03  0.00000000000E+00 0. -1.
          5    1    1    2  502    0 -0.77012098788E+02  0.58217239619E+02 -0.79083024783E+02  0.12488524796E+03  0.47000000000E+01 0.  1.
         -5    1    1    2    0  502  0.22946380382E+02 -0.56294559701E+01  0.21276310576E+02  0.32140294629E+02  0.47000000000E+01 0.  1.
        -11    1    1    2    0    0  0.75821432018E+02 -0.56282893801E+02  0.11427717120E+03  0.14824279256E+03  0.00000000000E+00 0.  1.
         11    1    1    2    0    0 -0.21755713612E+02  0.36951101524E+01  0.15452745809E+02  0.26939789659E+02  0.00000000000E+00 0. -1.
<mgrwt>
<rscale>  0 0.13834928E+03</rscale>
<asrwt>0</asrwt>
<pdfrwt beam="2">  1        1 0.20021917E-01 0.14599796E+03</pdfrwt>
<pdfrwt beam="1">  1       -1 0.31087025E-01 0.14599796E+03</pdfrwt>
<totfact> 0.23863951E+03</totfact>
</mgrwt>
</event>
<event>
 6    1  0.4705246E-006  0.1560397E+03  0.7546771E-02  0.1201343E+00
         -2   -1    0    0    0  501 -0.00000000000E+00  0.00000000000E+00  0.10310659918E+04  0.10310659918E+04  0.00000000000E+00 0.  1.
          2   -1    0    0  501    0  0.00000000000E+00 -0.00000000000E+00 -0.19954568949E+02  0.19954568949E+02  0.00000000000E+00 0. -1.
          5    1    1    2  502    0 -0.10738719307E+02  0.30571657382E+02  0.47876106095E+03  0.47987934922E+03  0.47000000000E+01 0.  1.
         -5    1    1    2    0  502 -0.28291655218E+02  0.54281044646E+02  0.83546656681E+02  0.10367730420E+03  0.47000000000E+01 0.  1.
        -11    1    1    2    0    0 -0.16448769059E+02 -0.62552773064E+02  0.16083664574E+03  0.17335465969E+03  0.00000000000E+00 0.  1.
         11    1    1    2    0    0  0.55479143584E+02 -0.22299928963E+02  0.28796705943E+03  0.29410924760E+03  0.00000000000E+00 0. -1.
<mgrwt>
<rscale>  0 0.14929447E+03</rscale>
<asrwt>0</asrwt>
<pdfrwt beam="2">  1        2 0.30699345E-02 0.15603973E+03</pdfrwt>
<pdfrwt beam="1">  1       -2 0.15862550E+00 0.15603973E+03</pdfrwt>
<totfact> 0.81309771E+02</totfact>
</mgrwt>
</event>
<event>
 6    1  0.4705246E-006  0.2240102E+03  0.7546771E-02  0.1130928E+00
         -3   -1    0    0    0  501 -0.00000000000E+00  0.00000000000E+00  0.95788449375E+02  0.95788449375E+02  0.00000000000E+00 0.  1.
          3   -1    0    0  501    0  0.00000000000E+00 -0.00000000000E+00 -0.13096720993E+03  0.13096720993E+03  0.00000000000E+00 0. -1.
          5    1    1    2  502    0 -0.38923273766E+01 -0.35102032562E+01  0.44727909669E+02  0.45278556102E+02  0.47000000000E+01 0.  1.
         -5    1    1    2    0  502  0.16391032498E+02  0.13255044283E+02 -0.83941449940E+02  0.86675366532E+02  0.47000000000E+01 0.  1.
        -11    1    1    2    0    0 -0.11474344485E+02  0.22420432048E+02  0.39541344869E+02  0.46881278872E+02  0.00000000000E+00 0.  1.
         11    1    1    2    0    0 -0.10243606364E+01 -0.32165273075E+02 -0.35506565152E+02  0.47920457798E+02  0.00000000000E+00 0. -1.
<mgrwt>
<rscale>  0 0.22401023E+03</rscale>
<asrwt>0</asrwt>
<pdfrwt beam="2">  1        3 0.20148801E-01 0.22401023E+03</pdfrwt>
<pdfrwt beam="1">  1       -3 0.14736685E-01 0.22401023E+03</pdfrwt>
<totfact> 0.21040641E+03</totfact>
</mgrwt>
</event>
<event>
 6    1  0.4705246E-006  0.1340851E+03  0.7546771E-02  0.1234151E+00
         -2   -1    0    0    0  501 -0.00000000000E+00  0.00000000000E+00  0.19589252177E+02  0.19589252177E+02  0.00000000000E+00 0.  1.
          2   -1    0    0  501    0  0.00000000000E+00 -0.00000000000E+00 -0.91479133676E+03  0.91479133676E+03  0.00000000000E+00 0. -1.
          5    1    1    2  502    0 -0.29243676627E+02 -0.60365663584E+02 -0.19091307127E+03  0.20240824278E+03  0.47000000000E+01 0. -1.
         -5    1    1    2    0  502 -0.99445816202E+01  0.31660844913E+02 -0.51739521918E+03  0.51847970706E+03  0.47000000000E+01 0. -1.
        -11    1    1    2    0    0  0.59794663825E+02  0.40457142169E+02 -0.16901166906E+03  0.18378554474E+03  0.00000000000E+00 0. -1.
         11    1    1    2    0    0 -0.20606405578E+02 -0.11752323498E+02 -0.17882125069E+02  0.29707094362E+02  0.00000000000E+00 0.  1.
<mgrwt>
<rscale>  0 0.12558942E+03</rscale>
<asrwt>0</asrwt>
<pdfrwt beam="2">  1        2 0.14073712E+00 0.13408505E+03</pdfrwt>
<pdfrwt beam="1">  1       -2 0.30137313E-02 0.13408505E+03</pdfrwt>
<totfact> 0.11986549E+04</totfact>
</mgrwt>
</event>
<event>
 6    1  0.4705246E-006  0.2818761E+03  0.7546771E-02  0.1094669E+00
          1   -1    0    0  501    0  0.00000000000E+00  0.00000000000E+00  0.54854775965E+03  0.54854775965E+03  0.00000000000E+00 0. -1.
         -1   -1    0    0    0  501 -0.00000000000E+00 -0.00000000000E+00 -0.36211137532E+02  0.36211137532E+02  0.00000000000E+00 0.  1.
          5    1    1    2  502    0  0.24391798308E+01 -0.95777300977E+02  0.18823552888E+03  0.21126747339E+03  0.47000000000E+01 0.  1.
         -5    1    1    2    0  502 -0.62358534985E+01  0.26469777254E+02  0.21088157019E+03  0.21267971606E+03  0.47000000000E+01 0.  1.
        -11    1    1    2    0    0  0.44602266633E+02  0.55049117652E+02  0.73940505251E+02  0.10240588782E+03  0.00000000000E+00 0.  1.
         11    1    1    2    0    0 -0.40805592965E+02  0.14258406071E+02  0.39279017804E+02  0.58405819920E+02  0.00000000000E+00 0. -1.
<mgrwt>
<rscale>  0 0.28187613E+03</rscale>
<asrwt>0</asrwt>
<pdfrwt beam="1">  1        1 0.84391957E-01 0.28187613E+03</pdfrwt>
<pdfrwt beam="2">  1       -1 0.55709446E-02 0.28187613E+03</pdfrwt>
<totfact> 0.59351432E+03</totfact>
</mgrwt>
</event>
<event>
 6    1  0.4705246E-006  0.2810699E+03  0.7546771E-02  0.1096917E+00
         -2   -1    0    0    0  501 -0.00000000000E+00  0.00000000000E+00  0.37953298924E+02  0.37953298924E+02  0.00000000000E+00 0.  1.
          2   -1    0    0  501    0  0.00000000000E+00 -0.00000000000E+00 -0.20362975208E+04  0.20362975208E+04  0.00000000000E+00 0. -1.
          5    1    1    2  502    0  0.77140451301E+02 -0.17080760991E+02 -0.27206642441E+03  0.28334542685E+03  0.47000000000E+01 0.  1.
         -5    1    1    2    0  502  0.70424201899E+02 -0.18687824854E+03 -0.91253662937E+03  0.93414572628E+03  0.47000000000E+01 0.  1.
        -11    1    1    2    0    0 -0.21647520085E+02  0.99189802868E+02 -0.37276774058E+03  0.38634572670E+03  0.00000000000E+00 0.  1.
         11    1    1    2    0    0 -0.12591713312E+03  0.10476920666E+03 -0.44097342749E+03  0.47041393987E+03  0.00000000000E+00 0. -1.
<mgrwt>
<rscale>  0 0.27776246E+03</rscale>
<asrwt>0</asrwt>
<pdfrwt beam="2">  1        2 0.31327659E+00 0.28106994E+03</pdfrwt>
<pdfrwt beam="1">  1       -2 0.58389681E-02 0.28106994E+03</pdfrwt>
<totfact> 0.10960927E+03</totfact>
</mgrwt>
</event>
<event>
 6    1  0.4705246E-006  0.1297782E+03  0.7546771E-02  0.1244888E+00
         -1   -1    0    0    0  501 -0.00000000000E+00  0.00000000000E+00  0.29854399551E+02  0.29854399551E+02  0.00000000000E+00 0.  1.
          1   -1    0    0  501    0  0.00000000000E+00 -0.00000000000E+00 -0.82617521245E+03  0.82617521245E+03  0.00000000000E+00 0. -1.
          5    1    1    2  502    0 -0.47138148535E+02  0.43073540822E+01 -0.40990457463E+03  0.41265531457E+03  0.47000000000E+01 0. -1.
         -5    1    1    2    0  502  0.67768689454E+02 -0.32484805526E+02 -0.32394598680E+03  0.33258224580E+03  0.47000000000E+01 0. -1.
        -11    1    1    2    0    0  0.21195077388E+01 -0.19226065643E+02 -0.54222354370E+02  0.57569068314E+02  0.00000000000E+00 0. -1.
         11    1    1    2    0    0 -0.22750048658E+02  0.47403517087E+02 -0.82478971089E+01  0.53222983315E+02  0.00000000000E+00 0.  1.
<mgrwt>
<rscale>  0 0.11892062E+03</rscale>
<asrwt>0</asrwt>
<pdfrwt beam="2">  1        1 0.12710389E+00 0.12977818E+03</pdfrwt>
<pdfrwt beam="1">  1       -1 0.45929842E-02 0.12977818E+03</pdfrwt>
<totfact> 0.42644150E+03</totfact>
</mgrwt>
</event>
<event>
 6    1  0.4705246E-006  0.1429638E+03  0.7546771E-02  0.1219913E+00
          2   -1    0    0  501    0  0.00000000000E+00  0.00000000000E+00  0.15936733441E+03  0.15936733441E+03  0.00000000000E+00 0. -1.
         -2   -1    0    0    0  501 -0.00000000000E+00 -0.00000000000E+00 -0.10420687386E+03  0.10420687386E+03  0.00000000000E+00 0.  1.
          5    1    1    2  502    0 -0.23815213621E+02 -0.64528042051E+02  0.15909617272E+02  0.70754777453E+02  0.47000000000E+01 0. -1.
         -5    1    1    2    0  502  0.72288799896E+02  0.14885157022E+02  0.21716620903E+02  0.77077494208E+02  0.47000000000E+01 0. -1.
        -11    1    1    2    0    0 -0.38801004664E+02  0.68853797369E+02 -0.11227447131E+02  0.79827432278E+02  0.00000000000E+00 0.  1.
         11    1    1    2    0    0 -0.96725816108E+01 -0.19210912340E+02  0.28761669512E+02  0.35914504327E+02  0.00000000000E+00 0. -1.
<mgrwt>
<rscale>  0 0.13521716E+03</rscale>
<asrwt>0</asrwt>
<pdfrwt beam="1">  1        2 0.24518052E-01 0.14296380E+03</pdfrwt>
<pdfrwt beam="2">  1       -2 0.16031827E-01 0.14296380E+03</pdfrwt>
<totfact> 0.64216079E+03</totfact>
</mgrwt>
</event>
<event>
 6    1  0.4705246E-006  0.1848450E+03  0.7546771E-02  0.1175535E+00
          2   -1    0    0  501    0  0.00000000000E+00  0.00000000000E+00  0.64857392185E+03  0.64857392185E+03  0.00000000000E+00 0. -1.
         -2   -1    0    0    0  501 -0.00000000000E+00 -0.00000000000E+00 -0.74471636548E+02  0.74471636548E+02  0.00000000000E+00 0.  1.
          5    1    1    2  502    0 -0.55898254948E+02  0.36342943197E+02  0.46006909138E+03  0.46489900330E+03  0.47000000000E+01 0. -1.
         -5    1    1    2    0  502  0.36858612371E+02  0.62468736650E+02  0.91720671488E+02  0.11702850910E+03  0.47000000000E+01 0.  1.
        -11    1    1    2    0    0  0.25710314042E+02 -0.57720998044E+02 -0.33477552640E+02  0.71508603636E+02  0.00000000000E+00 0.  1.
         11    1    1    2    0    0 -0.66706714650E+01 -0.41090681804E+02  0.55790075078E+02  0.69609442363E+02  0.00000000000E+00 0. -1.
<mgrwt>
<rscale>  0 0.17223725E+03</rscale>
<asrwt>0</asrwt>
<pdfrwt beam="1">  1        2 0.99780600E-01 0.18484504E+03</pdfrwt>
<pdfrwt beam="2">  1       -2 0.11457175E-01 0.18484504E+03</pdfrwt>
<totfact> 0.24268723E+03</totfact>
</mgrwt>
</event>
<event>
 6    1  0.4705246E-006  0.2551676E+03  0.7546771E-02  0.1110082E+00
          2   -1    0    0  501    0  0.00000000000E+00  0.00000000000E+00  0.68098639110E+03  0.68098639110E+03  0.00000000000E+00 0. -1.
         -2   -1    0    0    0  501 -0.00000000000E+00 -0.00000000000E+00 -0.23903003526E+02  0.23903003526E+02  0.00000000000E+00 0.  1.
          5    1    1    2  502    0 -0.15908540738E+02  0.70312652616E+02  0.82562334478E+02  0.10970679040E+03  0.47000000000E+01 0. -1.
         -5    1    1    2    0  502  0.11098662095E+02 -0.49021898705E+01  0.26657884106E+03  0.26689619755E+03  0.47000000000E+01 0. -1.
        -11    1    1    2    0    0 -0.29712416765E+02  0.90744797186E+01  0.70153540322E+02  0.76724788119E+02  0.00000000000E+00 0.  1.
         11    1    1    2    0    0  0.34522295407E+02 -0.74484942464E+02  0.23778867172E+03  0.25156161856E+03  0.00000000000E+00 0. -1.
<mgrwt>
<rscale>  0 0.25516755E+03</rscale>
<asrwt>0</asrwt>
<pdfrwt beam="1">  1        2 0.10476712E+00 0.25516755E+03</pdfrwt>
<pdfrwt beam="2">  1       -2 0.36773857E-02 0.25516755E+03</pdfrwt>
<totfact> 0.13420677E+04</totfact>
</mgrwt>
</event>
<event>
 6    1  0.4705246E-006  0.3499273E+03  0.7546771E-02  0.1062645E+00
          1   -1    0    0  501    0  0.00000000000E+00  0.00000000000E+00  0.21762888075E+03  0.21762888075E+03  0.00000000000E+00 0. -1.
         -1   -1    0    0    0  501 -0.00000000000E+00 -0.00000000000E+00 -0.14066275251E+03  0.14066275251E+03  0.00000000000E+00 0.  1.
          5    1    1    2  502    0 -0.13599441163E+03 -0.71345529901E+02  0.64889792498E+02  0.16678561030E+03  0.47000000000E+01 0.  1.
         -5    1    1    2    0  502  0.12295761841E+02  0.13100770037E+02 -0.16331191378E+02  0.24730825838E+02  0.47000000000E+01 0.  1.
        -11    1    1    2    0    0  0.72954925115E+02  0.50185385199E+02 -0.25656153135E+02  0.92191280389E+02  0.00000000000E+00 0.  1.
         11    1    1    2    0    0  0.50743724675E+02  0.80593746652E+01  0.54063680250E+02  0.74583916738E+02  0.00000000000E+00 0. -1.
<mgrwt>
<rscale>  0 0.34992729E+03</rscale>
<asrwt>0</asrwt>
<pdfrwt beam="1">  1        1 0.33481366E-01 0.34992729E+03</pdfrwt>
<pdfrwt beam="2">  1       -1 0.21640423E-01 0.34992729E+03</pdfrwt>
<totfact> 0.23399309E+03</totfact>
</mgrwt>
</event>
<event>
 6    1  0.4705246E-006  0.3887145E+03  0.7546771E-02  0.1047759E+00
          1   -1    0    0  501    0  0.00000000000E+00  0.00000000000E+00  0.28396470103E+03  0.28396470103E+03  0.00000000000E+00 0. -1.
         -1   -1    0    0    0  501 -0.00000000000E+00 -0.00000000000E+00 -0.13302615981E+03  0.13302615981E+03  0.00000000000E+00 0.  1.
          5    1    1    2  502    0  0.10561223532E+03  0.51268518832E+02  0.21445547110E+03  0.24453147927E+03  0.47000000000E+01 0. -1.
         -5    1    1    2    0  502 -0.51462863779E+01  0.72737515119E+01 -0.12204527088E+02  0.15825049952E+02  0.47000000000E+01 0.  1.
        -11    1    1    2    0    0 -0.91286190048E+02 -0.36043787468E+02 -0.74368070142E+02  0.12313786162E+03  0.00000000000E+00 0.  1.
         11    1    1    2    0    0 -0.91797588891E+01 -0.22498482877E+02  0.23055667347E+02  0.33496469991E+02  0.00000000000E+00 0. -1.
<mgrwt>
<rscale>  0 0.38871446E+03</rscale>
<asrwt>0</asrwt>
<pdfrwt beam="1">  1        1 0.43686877E-01 0.38871446E+03</pdfrwt>
<pdfrwt beam="2">  1       -1 0.20465563E-01 0.38871446E+03</pdfrwt>
<totfact> 0.18328570E+03</totfact>
</mgrwt>
</event>
<event>
 6    1  0.4705246E-006  0.1494582E+03  0.7546771E-02  0.1222249E+00
          2   -1    0    0  501    0  0.00000000000E+00  0.00000000000E+00  0.80314185312E+02  0.80314185312E+02  0.00000000000E+00 0. -1.
         -2   -1    0    0    0  501 -0.00000000000E+00 -0.00000000000E+00 -0.20712415163E+03  0.20712415163E+03  0.00000000000E+00 0.  1.
          5    1    1    2  502    0  0.55661779928E+02  0.21695716215E+02  0.17869565485E+02  0.62532785141E+02  0.47000000000E+01 0. -1.
         -5    1    1    2    0  502 -0.75186048062E+02 -0.32583559628E+01 -0.49607058491E+02  0.90258013266E+02  0.47000000000E+01 0.  1.
        -11    1    1    2    0    0 -0.25457762586E+02  0.16739560736E+02 -0.97703230242E+01  0.31996402634E+02  0.00000000000E+00 0.  1.
         11    1    1    2    0    0  0.44982030720E+02 -0.35176920988E+02 -0.85302150286E+02  0.10265113590E+03  0.00000000000E+00 0. -1.
<mgrwt>
<rscale>  0 0.13357261E+03</rscale>
<asrwt>0</asrwt>
<pdfrwt beam="1">  1        2 0.12356029E-01 0.14945822E+03</pdfrwt>
<pdfrwt beam="2">  1       -2 0.31865254E-01 0.14945822E+03</pdfrwt>
<totfact> 0.43324472E+03</totfact>
</mgrwt>
</event>
<event>
 6    1  0.4705246E-006  0.1415595E+03  0.7546771E-02  0.1222011E+00
          2   -1    0    0  501    0  0.00000000000E+00  0.00000000000E+00  0.87403108615E+03  0.87403108615E+03  0.00000000000E+00 0. -1.
         -2   -1    0    0    0  501 -0.00000000000E+00 -0.00000000000E+00 -0.26521217384E+02  0.26521217384E+02  0.00000000000E+00 0.  1.
          5    1    1    2  502    0 -0.51714322602E+02 -0.49676230696E+02  0.37250313200E+03  0.37937154928E+03  0.47000000000E+01 0. -1.
         -5    1    1    2    0  502  0.67819618712E+02 -0.14796824797E+02  0.33119415177E+03  0.33842296446E+03  0.47000000000E+01 0. -1.
        -11    1    1    2    0    0 -0.13734623080E+02 -0.12431831819E+02 -0.12349695325E+01  0.18566514570E+02  0.00000000000E+00 0.  1.
         11    1    1    2    0    0 -0.23706730306E+01  0.76904887312E+02  0.14504755453E+03  0.16419127522E+03  0.00000000000E+00 0. -1.
<mgrwt>
<rscale>  0 0.13373902E+03</rscale>
<asrwt>0</asrwt>
<pdfrwt beam="1">  1        2 0.13446630E+00 0.14155952E+03</pdfrwt>
<pdfrwt beam="2">  1       -2 0.40801880E-02 0.14155952E+03</pdfrwt>
<totfact> 0.81518732E+03</totfact>
</mgrwt>
</event>
<event>
 6    1  0.4705246E-006  0.3482122E+03  0.7546771E-02  0.1064533E+00
         -2   -1    0    0    0  501 -0.00000000000E+00  0.00000000000E+00  0.11961205118E+04  0.11961205118E+04  0.00000000000E+00 0.  1.
          2   -1    0    0  501    0  0.00000000000E+00 -0.00000000000E+00 -0.10413467338E+03  0.10413467338E+03  0.00000000000E+00 0. -1.
          5    1    1    2  502    0  0.16217108980E+03  0.78905745400E+02  0.23379159156E+03  0.29530692052E+03  0.47000000000E+01 0.  1.
         -5    1    1    2    0  502  0.66430945876E+02  0.15210792978E+03  0.16445854617E+03  0.23370621789E+03  0.47000000000E+01 0.  1.
        -11    1    1    2    0    0 -0.73903152509E+02 -0.10045995969E+03  0.35914973656E+03  0.38018733898E+03  0.00000000000E+00 0.  1.
         11    1    1    2    0    0 -0.15469888316E+03 -0.13055371549E+03  0.33458596410E+03  0.39105470775E+03  0.00000000000E+00 0. -1.
<mgrwt>
<rscale>  0 0.34536555E+03</rscale>
<asrwt>0</asrwt>
<pdfrwt beam="2">  1        2 0.16020720E-01 0.34821219E+03</pdfrwt>
<pdfrwt beam="1">  1       -2 0.18401853E+00 0.34821219E+03</pdfrwt>
<totfact> 0.65599799E+01</totfact>
</mgrwt>
</event>
<event>
 6    1  0.4705246E-006  0.3027266E+03  0.7546771E-02  0.1083886E+00
          2   -1    0    0  501    0  0.00000000000E+00  0.00000000000E+00  0.13717184736E+03  0.13717184736E+03  0.00000000000E+00 0. -1.
         -2   -1    0    0    0  501 -0.00000000000E+00 -0.00000000000E+00 -0.16702291507E+03  0.16702291507E+03  0.00000000000E+00 0.  1.
          5    1    1    2  502    0 -0.64015433286E+01  0.18833510295E+02 -0.50966120609E+02  0.54911895952E+02  0.47000000000E+01 0.  1.
         -5    1    1    2    0  502  0.10844033543E+03 -0.24255779956E+02  0.99575363233E+01  0.11166419184E+03  0.47000000000E+01 0.  1.
        -11    1    1    2    0    0 -0.11117289035E+02 -0.34063849229E+02  0.13955078282E+02  0.38453662370E+02  0.00000000000E+00 0.  1.
         11    1    1    2    0    0 -0.90921503069E+02  0.39486118890E+02 -0.27975617027E+01  0.99165012262E+02  0.00000000000E+00 0. -1.
<mgrwt>
<rscale>  0 0.30272656E+03</rscale>
<asrwt>0</asrwt>
<pdfrwt beam="1">  1        2 0.21103361E-01 0.30272656E+03</pdfrwt>
<pdfrwt beam="2">  1       -2 0.25695833E-01 0.30272656E+03</pdfrwt>
<totfact> 0.35283408E+03</totfact>
</mgrwt>
</event>
<event>
 6    1  0.4705246E-006  0.1362917E+03  0.7546771E-02  0.1222842E+00
          1   -1    0    0  501    0  0.00000000000E+00  0.00000000000E+00  0.50537847180E+03  0.50537847180E+03  0.00000000000E+00 0. -1.
         -1   -1    0    0    0  501 -0.00000000000E+00 -0.00000000000E+00 -0.48087794884E+02  0.48087794884E+02  0.00000000000E+00 0.  1.
          5    1    1    2  502    0  0.98661378352E+02 -0.15474884076E+02  0.22884108352E+03  0.24972759383E+03  0.47000000000E+01 0. -1.
         -5    1    1    2    0  502 -0.22865777705E+02  0.14482575626E+02  0.15919215634E+03  0.16154510648E+03  0.47000000000E+01 0.  1.
        -11    1    1    2    0    0 -0.47831239701E+00  0.10866086565E+02  0.65224171427E+02  0.66124830119E+02  0.00000000000E+00 0. -1.
         11    1    1    2    0    0 -0.75317288250E+02 -0.98737781150E+01  0.40332656302E+01  0.76068736254E+02  0.00000000000E+00 0.  1.
<mgrwt>
<rscale>  0 0.13315921E+03</rscale>
<asrwt>0</asrwt>
<pdfrwt beam="1">  1        1 0.77750530E-01 0.13629174E+03</pdfrwt>
<pdfrwt beam="2">  1       -1 0.73981227E-02 0.13629174E+03</pdfrwt>
<totfact> 0.41828061E+03</totfact>
</mgrwt>
</event>
<event>
 6    1  0.4705246E-006  0.1380242E+03  0.7546771E-02  0.1227632E+00
         -1   -1    0    0    0  501 -0.00000000000E+00  0.00000000000E+00  0.64491855720E+02  0.64491855720E+02  0.00000000000E+00 0. -1.
          1   -1    0    0  501    0  0.00000000000E+00 -0.00000000000E+00 -0.30309476943E+03  0.30309476943E+03  0.00000000000E+00 0.  1.
          5    1    1    2  502    0 -0.36140774292E+02 -0.66107985866E+02 -0.15869423968E+03  0.17573381311E+03  0.47000000000E+01 0.  1.
         -5    1    1    2    0  502 -0.20842768622E+02  0.52711606648E+02 -0.58387196130E+02  0.81511282355E+02  0.47000000000E+01 0.  1.
        -11    1    1    2    0    0  0.44957577667E+01  0.16635318216E+02 -0.48333307161E+02  0.51313294877E+02  0.00000000000E+00 0.  1.
         11    1    1    2    0    0  0.52487785147E+02 -0.32389389980E+01  0.26811829268E+02  0.59028234805E+02  0.00000000000E+00 0. -1.
<mgrwt>
<rscale>  0 0.12988104E+03</rscale>
<asrwt>0</asrwt>
<pdfrwt beam="2">  1        1 0.46629964E-01 0.13802423E+03</pdfrwt>
<pdfrwt beam="1">  1       -1 0.99218241E-02 0.13802423E+03</pdfrwt>
<totfact> 0.51200951E+03</totfact>
</mgrwt>
</event>
<event>
 6    1  0.4705246E-006  0.1743190E+03  0.7546771E-02  0.1180539E+00
         -1   -1    0    0    0  501 -0.00000000000E+00  0.00000000000E+00  0.57962753457E+03  0.57962753457E+03  0.00000000000E+00 0.  1.
          1   -1    0    0  501    0  0.00000000000E+00 -0.00000000000E+00 -0.46768242323E+02  0.46768242323E+02  0.00000000000E+00 0. -1.
          5    1    1    2  502    0 -0.87677311148E+02  0.81559866189E+01  0.90857619262E+02  0.12661369589E+03  0.47000000000E+01 0. -1.
         -5    1    1    2    0  502 -0.80368453794E+01 -0.82995278504E+02  0.13408225198E+03  0.15796501965E+03  0.47000000000E+01 0. -1.
        -11    1    1    2    0    0  0.42386397937E+02  0.25340312934E+02  0.22986368348E+03  0.23510859443E+03  0.00000000000E+00 0.  1.
         11    1    1    2    0    0  0.53327758590E+02  0.49498978951E+02  0.78055737516E+02  0.10670846692E+03  0.00000000000E+00 0. -1.
<mgrwt>
<rscale>  0 0.16744486E+03</rscale>
<asrwt>0</asrwt>
<pdfrwt beam="2">  1        1 0.71951146E-02 0.17431896E+03</pdfrwt>
<pdfrwt beam="1">  1       -1 0.89173462E-01 0.17431896E+03</pdfrwt>
<totfact> 0.12871429E+03</totfact>
</mgrwt>
</event>
<event>
 6    1  0.4705246E-006  0.2580541E+03  0.7546771E-02  0.1127116E+00
         -2   -1    0    0    0  501 -0.00000000000E+00  0.00000000000E+00  0.12595918427E+03  0.12595918427E+03  0.00000000000E+00 0.  1.
          2   -1    0    0  501    0  0.00000000000E+00 -0.00000000000E+00 -0.46579501246E+03  0.46579501246E+03  0.00000000000E+00 0. -1.
          5    1    1    2  502    0 -0.14687169243E+02  0.90307329281E+01 -0.26692526316E+03  0.26752280873E+03  0.47000000000E+01 0. -1.
         -5    1    1    2    0  502 -0.48705712667E+02 -0.13478544903E+03 -0.77951014503E+02  0.16321095055E+03  0.47000000000E+01 0.  1.
        -11    1    1    2    0    0  0.55014856232E+02  0.54785550063E+02  0.32894876474E+02  0.84321787221E+02  0.00000000000E+00 0.  1.
         11    1    1    2    0    0  0.83780256785E+01  0.70969166042E+02 -0.27854427009E+02  0.76698650229E+02  0.00000000000E+00 0. -1.
<mgrwt>
<rscale>  0 0.22932432E+03</rscale>
<asrwt>0</asrwt>
<pdfrwt beam="2">  1        2 0.71660770E-01 0.25805411E+03</pdfrwt>
<pdfrwt beam="1">  1       -2 0.19378336E-01 0.25805411E+03</pdfrwt>
<totfact> 0.14947062E+03</totfact>
</mgrwt>
</event>
<event>
 6    1  0.4705246E-006  0.1893397E+03  0.7546771E-02  0.1164239E+00
         -1   -1    0    0    0  501 -0.00000000000E+00  0.00000000000E+00  0.89991993105E+03  0.89991993105E+03  0.00000000000E+00 0.  1.
          1   -1    0    0  501    0  0.00000000000E+00 -0.00000000000E+00 -0.38151451449E+02  0.38151451449E+02  0.00000000000E+00 0. -1.
          5    1    1    2  502    0 -0.11619560359E+02  0.30285050024E+02  0.31858067266E+00  0.32777887844E+02  0.47000000000E+01 0. -1.
         -5    1    1    2    0  502 -0.19176525840E+02  0.10855169519E+03  0.33002754056E+03  0.34798200701E+03  0.47000000000E+01 0. -1.
        -11    1    1    2    0    0 -0.17642985742E+02 -0.55898745935E+01  0.23166355740E+02  0.29651335250E+02  0.00000000000E+00 0. -1.
         11    1    1    2    0    0  0.48439071941E+02 -0.13324687062E+03  0.50825600263E+03  0.52766015240E+03  0.00000000000E+00 0.  1.
<mgrwt>
<rscale>  0 0.18373260E+03</rscale>
<asrwt>0</asrwt>
<pdfrwt beam="2">  1        1 0.58694548E-02 0.18933974E+03</pdfrwt>
<pdfrwt beam="1">  1       -1 0.13844920E+00 0.18933974E+03</pdfrwt>
<totfact> 0.61738012E+02</totfact>
</mgrwt>
</event>
<event>
 6    1  0.4705246E-006  0.1326510E+03  0.7546771E-02  0.1230431E+00
         -1   -1    0    0    0  501 -0.00000000000E+00  0.00000000000E+00  0.11371277461E+03  0.11371277461E+03  0.00000000000E+00 0.  1.
          1   -1    0    0  501    0  0.00000000000E+00 -0.00000000000E+00 -0.14219246074E+03  0.14219246074E+03  0.00000000000E+00 0. -1.
          5    1    1    2  502    0 -0.27408571722E+02 -0.33669566804E+02  0.22237076607E+00  0.43669313956E+02  0.47000000000E+01 0. -1.
         -5    1    1    2    0  502 -0.26508623120E+02  0.80930161944E+02 -0.44326695117E+02  0.96121507021E+02  0.47000000000E+01 0.  1.
        -11    1    1    2    0    0 -0.19667965335E+02 -0.29656622856E+02 -0.87093363090E+01  0.36636002492E+02  0.00000000000E+00 0. -1.
         11    1    1    2    0    0  0.73585160177E+02 -0.17603972285E+02  0.24333974535E+02  0.79478411881E+02  0.00000000000E+00 0.  1.
<mgrwt>
<rscale>  0 0.12801545E+03</rscale>
<asrwt>0</asrwt>
<pdfrwt beam="2">  1        1 0.21875763E-01 0.13265098E+03</pdfrwt>
<pdfrwt beam="1">  1       -1 0.17494273E-01 0.13265098E+03</pdfrwt>
<totfact> 0.54282575E+03</totfact>
</mgrwt>
</event>
<event>
 6    1  0.4705246E-006  0.1523351E+03  0.7546771E-02  0.1206308E+00
          2   -1    0    0  501    0  0.00000000000E+00  0.00000000000E+00  0.12995454744E+04  0.12995454744E+04  0.00000000000E+00 0. -1.
         -2   -1    0    0    0  501 -0.00000000000E+00 -0.00000000000E+00 -0.25530418933E+02  0.25530418933E+02  0.00000000000E+00 0.  1.
          5    1    1    2  502    0  0.79723123903E+02 -0.50876837065E+00  0.56845415273E+03  0.57403680116E+03  0.47000000000E+01 0. -1.
         -5    1    1    2    0  502 -0.25546767837E+02 -0.67643540586E+02  0.52924175940E+03  0.53417901103E+03  0.47000000000E+01 0. -1.
        -11    1    1    2    0    0 -0.55530349720E+02  0.40528738536E+02  0.43865566830E+02  0.81549900924E+02  0.00000000000E+00 0.  1.
         11    1    1    2    0    0  0.13539936536E+01  0.27623570420E+02  0.13245357646E+03  0.13531018017E+03  0.00000000000E+00 0. -1.
<mgrwt>
<rscale>  0 0.14534846E+03</rscale>
<asrwt>0</asrwt>
<pdfrwt beam="1">  1        2 0.19993002E+00 0.15233506E+03</pdfrwt>
<pdfrwt beam="2">  1       -2 0.39277578E-02 0.15233506E+03</pdfrwt>
<totfact> 0.48914981E+03</totfact>
</mgrwt>
</event>
<event>
 6    1  0.4705246E-006  0.1977097E+03  0.7546771E-02  0.1156063E+00
         -2   -1    0    0    0  501 -0.00000000000E+00  0.00000000000E+00  0.13800919352E+03  0.13800919352E+03  0.00000000000E+00 0.  1.
          2   -1    0    0  501    0  0.00000000000E+00 -0.00000000000E+00 -0.25740106558E+03  0.25740106558E+03  0.00000000000E+00 0. -1.
          5    1    1    2  502    0  0.30195896485E+02  0.45883100317E+02 -0.87265511334E+02  0.10322020407E+03  0.47000000000E+01 0.  1.
         -5    1    1    2    0  502 -0.16866960655E+02  0.10671570906E+03  0.10974969465E+02  0.10869809969E+03  0.47000000000E+01 0.  1.
        -11    1    1    2    0    0  0.34721293875E+02 -0.40717850757E+02  0.22464346124E+01  0.53558921639E+02  0.00000000000E+00 0.  1.
         11    1    1    2    0    0 -0.48050229705E+02 -0.11188095862E+03 -0.45347764805E+02  0.12993303371E+03  0.00000000000E+00 0. -1.
<mgrwt>
<rscale>  0 0.19268331E+03</rscale>
<asrwt>0</asrwt>
<pdfrwt beam="2">  1        2 0.39600163E-01 0.19770969E+03</pdfrwt>
<pdfrwt beam="1">  1       -2 0.21232184E-01 0.19770969E+03</pdfrwt>
<totfact> 0.24145905E+03</totfact>
</mgrwt>
</event>
<event>
 6    1  0.4705246E-006  0.1327575E+03  0.7546771E-02  0.1238178E+00
          2   -1    0    0  501    0  0.00000000000E+00  0.00000000000E+00  0.96865091116E+02  0.96865091116E+02  0.00000000000E+00 0.  1.
         -2   -1    0    0    0  501 -0.00000000000E+00 -0.00000000000E+00 -0.16581790754E+03  0.16581790754E+03  0.00000000000E+00 0. -1.
          5    1    1    2  502    0 -0.25209645692E+02  0.18574527880E+02  0.68551085256E+02  0.75510797980E+02  0.47000000000E+01 0. -1.
         -5    1    1    2    0  502  0.56256640787E+01  0.21636900337E+02 -0.53426197028E+02  0.58105525395E+02  0.47000000000E+01 0. -1.
        -11    1    1    2    0    0  0.46571906961E+02 -0.50802589382E+02 -0.58205267671E+02  0.90209194601E+02  0.00000000000E+00 0.  1.
         11    1    1    2    0    0 -0.26987925348E+02  0.10591161165E+02 -0.25872436980E+02  0.38857480679E+02  0.00000000000E+00 0. -1.
<mgrwt>
<rscale>  0 0.12303165E+03</rscale>
<asrwt>0</asrwt>
<pdfrwt beam="1">  1        2 0.14902322E-01 0.13275752E+03</pdfrwt>
<pdfrwt beam="2">  1       -2 0.25510447E-01 0.13275752E+03</pdfrwt>
<totfact> 0.51204980E+03</totfact>
</mgrwt>
</event>
<event>
 6    1  0.4705246E-006  0.1474383E+03  0.7546771E-02  0.1212940E+00
          1   -1    0    0  501    0  0.00000000000E+00  0.00000000000E+00  0.96719938987E+02  0.96719938987E+02  0.00000000000E+00 0. -1.
         -1   -1    0    0    0  501 -0.00000000000E+00 -0.00000000000E+00 -0.24468499672E+03  0.24468499672E+03  0.00000000000E+00 0.  1.
          5    1    1    2  502    0  0.33489465364E+02  0.32681740517E+02 -0.55828504893E+02  0.72996934266E+02  0.47000000000E+01 0. -1.
         -5    1    1    2    0  502  0.42368211059E+02 -0.13744429953E+02  0.59517416026E+02  0.74487498773E+02  0.47000000000E+01 0. -1.
        -11    1    1    2    0    0  0.10902517127E+02  0.17184322821E+02 -0.72015783317E+01  0.21587694666E+02  0.00000000000E+00 0. -1.
         11    1    1    2    0    0 -0.86760193550E+02 -0.36121633384E+02 -0.14445239053E+03  0.17233280800E+03  0.00000000000E+00 0.  1.
<mgrwt>
<rscale>  0 0.14028945E+03</rscale>
<asrwt>0</asrwt>
<pdfrwt beam="1">  1        1 0.14879991E-01 0.14743829E+03</pdfrwt>
<pdfrwt beam="2">  1       -1 0.37643845E-01 0.14743829E+03</pdfrwt>
<totfact> 0.25190183E+03</totfact>
</mgrwt>
</event>
<event>
 6    1  0.4705246E-006  0.1554062E+03  0.7546771E-02  0.1202813E+00
          2   -1    0    0  501    0  0.00000000000E+00  0.00000000000E+00  0.13258847736E+04  0.13258847736E+04  0.00000000000E+00 0. -1.
         -2   -1    0    0    0  501 -0.00000000000E+00 -0.00000000000E+00 -0.16295184990E+02  0.16295184990E+02  0.00000000000E+00 0.  1.
          5    1    1    2  502    0 -0.34491601823E+02 -0.13758014362E+02  0.16670705255E+03  0.17085749888E+03  0.47000000000E+01 0.  1.
         -5    1    1    2    0  502  0.51090479870E+02  0.10456412776E+03  0.72228465849E+03  0.73161541252E+03  0.47000000000E+01 0.  1.
        -11    1    1    2    0    0 -0.14440059337E+02  0.82146941495E+00  0.69862279085E+01  0.16062300771E+02  0.00000000000E+00 0.  1.
         11    1    1    2    0    0 -0.21588187099E+01 -0.91627582808E+02  0.41361164968E+03  0.42364474644E+03  0.00000000000E+00 0. -1.
<mgrwt>
<rscale>  0 0.14811126E+03</rscale>
<asrwt>0</asrwt>
<pdfrwt beam="1">  1        2 0.20398219E+00 0.15540622E+03</pdfrwt>
<pdfrwt beam="2">  1       -2 0.25069526E-02 0.15540622E+03</pdfrwt>
<totfact> 0.91942428E+03</totfact>
</mgrwt>
</event>
<event>
 6    1  0.4705246E-006  0.3051393E+03  0.7546771E-02  0.1100629E+00
          1   -1    0    0  501    0  0.00000000000E+00  0.00000000000E+00  0.64402475882E+03  0.64402475882E+03  0.00000000000E+00 0. -1.
         -1   -1    0    0    0  501 -0.00000000000E+00 -0.00000000000E+00 -0.21315073823E+03  0.21315073823E+03  0.00000000000E+00 0.  1.
          5    1    1    2  502    0  0.14348913503E+03  0.16975932699E+03  0.30521407245E+03  0.37760439747E+03  0.47000000000E+01 0. -1.
         -5    1    1    2    0  502 -0.34254492722E+02 -0.44021127748E+02  0.24744614932E+03  0.25369847610E+03  0.47000000000E+01 0.  1.
        -11    1    1    2    0    0 -0.12286891010E+03 -0.12396988894E+03 -0.12042833315E+03  0.21205727023E+03  0.00000000000E+00 0.  1.
         11    1    1    2    0    0  0.13634267801E+02 -0.17683102995E+01 -0.13578680323E+01  0.13815353248E+02  0.00000000000E+00 0. -1.
<mgrwt>
<rscale>  0 0.27113903E+03</rscale>
<asrwt>0</asrwt>
<pdfrwt beam="1">  1        1 0.99080732E-01 0.30513931E+03</pdfrwt>
<pdfrwt beam="2">  1       -1 0.32792421E-01 0.30513931E+03</pdfrwt>
<totfact> 0.28016876E+02</totfact>
</mgrwt>
</event>
<event>
 6    1  0.4705246E-006  0.1262802E+03  0.7546771E-02  0.1247126E+00
         -2   -1    0    0    0  501 -0.00000000000E+00  0.00000000000E+00  0.47405461597E+02  0.47405461597E+02  0.00000000000E+00 0. -1.
          2   -1    0    0  501    0  0.00000000000E+00 -0.00000000000E+00 -0.33704287701E+03  0.33704287701E+03  0.00000000000E+00 0.  1.
          5    1    1    2  502    0 -0.49846336633E+01 -0.65886639869E+02 -0.11533735658E+03  0.13300635965E+03  0.47000000000E+01 0. -1.
         -5    1    1    2    0  502 -0.11059436401E+02  0.57734185204E+02 -0.13750148091E+03  0.14961381797E+03  0.47000000000E+01 0. -1.
        -11    1    1    2    0    0 -0.61628483688E+01  0.35815734895E+02  0.14776352582E+02  0.39231214125E+02  0.00000000000E+00 0. -1.
         11    1    1    2    0    0  0.22206918433E+02 -0.27663280229E+02 -0.51574930505E+02  0.62596946858E+02  0.00000000000E+00 0.  1.
<mgrwt>
<rscale>  0 0.11759021E+03</rscale>
<asrwt>0</asrwt>
<pdfrwt beam="2">  1        2 0.51852749E-01 0.12628019E+03</pdfrwt>
<pdfrwt beam="1">  1       -2 0.72931481E-02 0.12628019E+03</pdfrwt>
<totfact> 0.99200018E+03</totfact>
</mgrwt>
</event>
<event>
 6    1  0.4705246E-006  0.2134140E+03  0.7546771E-02  0.1143108E+00
          2   -1    0    0  501    0  0.00000000000E+00  0.00000000000E+00  0.19954742701E+04  0.19954742701E+04  0.00000000000E+00 0. -1.
         -2   -1    0    0    0  501 -0.00000000000E+00 -0.00000000000E+00 -0.21825639271E+02  0.21825639271E+02  0.00000000000E+00 0.  1.
          5    1    1    2  502    0 -0.41581677231E+02 -0.40936650019E+02  0.33632544705E+03  0.34138210488E+03  0.47000000000E+01 0.  1.
         -5    1    1    2    0  502  0.91819652496E+02 -0.12458225449E+03  0.92936937228E+03  0.94217891446E+03  0.47000000000E+01 0.  1.
        -11    1    1    2    0    0 -0.36118446411E+02  0.42048874356E+02  0.11201438584E+03  0.12497948888E+03  0.00000000000E+00 0. -1.
         11    1    1    2    0    0 -0.14119528854E+02  0.12347003015E+03  0.59593942569E+03  0.60875940119E+03  0.00000000000E+00 0.  1.
<mgrwt>
<rscale>  0 0.20806415E+03</rscale>
<asrwt>0</asrwt>
<pdfrwt beam="1">  1        2 0.30699590E+00 0.21341395E+03</pdfrwt>
<pdfrwt beam="2">  1       -2 0.33577922E-02 0.21341395E+03</pdfrwt>
<totfact> 0.26767391E+03</totfact>
</mgrwt>
</event>
<event>
 6    1  0.4705246E-006  0.1521812E+03  0.7546771E-02  0.1206188E+00
          2   -1    0    0  501    0  0.00000000000E+00  0.00000000000E+00  0.74151644427E+03  0.74151644427E+03  0.00000000000E+00 0. -1.
         -2   -1    0    0    0  501 -0.00000000000E+00 -0.00000000000E+00 -0.31997940995E+02  0.31997940995E+02  0.00000000000E+00 0.  1.
          5    1    1    2  502    0  0.83673482939E+01 -0.39422698760E+02  0.73943895700E+02  0.84344243468E+02  0.47000000000E+01 0.  1.
         -5    1    1    2    0  502  0.74053471900E+02  0.66773551500E+02  0.47019412617E+03  0.48067372527E+03  0.47000000000E+01 0.  1.
        -11    1    1    2    0    0 -0.16846773132E+02 -0.31994418936E+02  0.67491768048E+01  0.36783257000E+02  0.00000000000E+00 0.  1.
         11    1    1    2    0    0 -0.65574047062E+02  0.46435661953E+01  0.15863130460E+03  0.17171315953E+03  0.00000000000E+00 0. -1.
<mgrwt>
<rscale>  0 0.14544258E+03</rscale>
<asrwt>0</asrwt>
<pdfrwt beam="1">  1        2 0.11407944E+00 0.15218120E+03</pdfrwt>
<pdfrwt beam="2">  1       -2 0.49227607E-02 0.15218120E+03</pdfrwt>
<totfact> 0.75906526E+03</totfact>
</mgrwt>
</event>
<event>
 6    1  0.4705246E-006  0.1518745E+03  0.7546771E-02  0.1207176E+00
          1   -1    0    0  501    0  0.00000000000E+00  0.00000000000E+00  0.20572620887E+04  0.20572620887E+04  0.00000000000E+00 0. -1.
         -1   -1    0    0    0  501 -0.00000000000E+00 -0.00000000000E+00 -0.17447358142E+02  0.17447358142E+02  0.00000000000E+00 0.  1.
          5    1    1    2  502    0 -0.15383140059E+02 -0.14309802185E+02  0.71918991560E+02  0.75072250424E+02  0.47000000000E+01 0.  1.
         -5    1    1    2    0  502  0.93966111357E+02  0.49871135059E+02  0.17070142077E+04  0.17103322354E+04  0.47000000000E+01 0.  1.
        -11    1    1    2    0    0 -0.69000566447E+02 -0.22649728967E+02  0.26322197982E+03  0.27305658581E+03  0.00000000000E+00 0. -1.
         11    1    1    2    0    0 -0.95824048508E+01 -0.12911603907E+02 -0.23404485011E+01  0.16248375222E+02  0.00000000000E+00 0.  1.
<mgrwt>
<rscale>  0 0.14467279E+03</rscale>
<asrwt>0</asrwt>
<pdfrwt beam="1">  1        1 0.31650167E+00 0.15187446E+03</pdfrwt>
<pdfrwt beam="2">  1       -1 0.26842106E-02 0.15187446E+03</pdfrwt>
<totfact> 0.13885023E+03</totfact>
</mgrwt>
</event>
<event>
 6    1  0.4705246E-006  0.1271684E+03  0.7546771E-02  0.1246451E+00
         -1   -1    0    0    0  501 -0.00000000000E+00  0.00000000000E+00  0.36376365098E+02  0.36376365098E+02  0.00000000000E+00 0.  1.
          1   -1    0    0  501    0  0.00000000000E+00 -0.00000000000E+00 -0.42379321353E+03  0.42379321353E+03  0.00000000000E+00 0. -1.
          5    1    1    2  502    0  0.47836039690E+02  0.39799051939E+02 -0.27637993772E+03  0.28333762758E+03  0.47000000000E+01 0. -1.
         -5    1    1    2    0  502 -0.25205909789E+02 -0.34031141725E+02 -0.43492118598E+02  0.60886048283E+02  0.47000000000E+01 0. -1.
        -11    1    1    2    0    0  0.22116187612E+02 -0.14173372196E+02  0.82455259448E+01  0.27531780400E+02  0.00000000000E+00 0.  1.
         11    1    1    2    0    0 -0.44746317512E+02  0.84054619812E+01 -0.75790318060E+02  0.88414122366E+02  0.00000000000E+00 0. -1.
<mgrwt>
<rscale>  0 0.11798944E+03</rscale>
<asrwt>0</asrwt>
<pdfrwt beam="2">  1        1 0.65198951E-01 0.12716842E+03</pdfrwt>
<pdfrwt beam="1">  1       -1 0.55963643E-02 0.12716842E+03</pdfrwt>
<totfact> 0.79244573E+03</totfact>
</mgrwt>
</event>
<event>
 6    1  0.4705246E-006  0.1253705E+03  0.7546771E-02  0.1244478E+00
          4   -1    0    0  501    0  0.00000000000E+00  0.00000000000E+00  0.57511113007E+03  0.57511113007E+03  0.00000000000E+00 0. -1.
         -4   -1    0    0    0  501 -0.00000000000E+00 -0.00000000000E+00 -0.23525111312E+02  0.23525111312E+02  0.00000000000E+00 0.  1.
          5    1    1    2  502    0  0.25015547262E+02 -0.52778312394E+02  0.18641257563E+03  0.19540487767E+03  0.47000000000E+01 0. -1.
         -5    1    1    2    0  502 -0.33730463454E+02  0.56938210800E+02  0.17708112105E+03  0.18910187055E+03  0.47000000000E+01 0. -1.
        -11    1    1    2    0    0  0.55037593754E+02  0.27768878698E+01  0.92313973145E+02  0.10751147599E+03  0.00000000000E+00 0. -1.
         11    1    1    2    0    0 -0.46322677563E+02 -0.69367862753E+01  0.95778348935E+02  0.10661801717E+03  0.00000000000E+00 0.  1.
<mgrwt>
<rscale>  0 0.11916646E+03</rscale>
<asrwt>0</asrwt>
<pdfrwt beam="1">  1        4 0.88478625E-01 0.12537054E+03</pdfrwt>
<pdfrwt beam="2">  1       -4 0.36192483E-02 0.12537054E+03</pdfrwt>
<totfact> 0.74089620E+02</totfact>
</mgrwt>
</event>
<event>
 6    1  0.4705246E-006  0.3560581E+03  0.7546771E-02  0.1060156E+00
          2   -1    0    0  501    0  0.00000000000E+00  0.00000000000E+00  0.17645788940E+04  0.17645788940E+04  0.00000000000E+00 0. -1.
         -2   -1    0    0    0  501 -0.00000000000E+00 -0.00000000000E+00 -0.17961422710E+02  0.17961422710E+02  0.00000000000E+00 0.  1.
          5    1    1    2  502    0  0.22751614908E+02  0.64087585029E+01  0.12573392773E+03  0.12802272747E+03  0.47000000000E+01 0. -1.
         -5    1    1    2    0  502 -0.14884961821E+03 -0.69264230540E+02  0.88356955453E+03  0.89870517422E+03  0.47000000000E+01 0. -1.
        -11    1    1    2    0    0  0.36606319567E+02 -0.87417779277E+01  0.77924266259E+02  0.86536885694E+02  0.00000000000E+00 0.  1.
         11    1    1    2    0    0  0.89491683736E+02  0.71597249965E+02  0.65938972276E+03  0.66927552932E+03  0.00000000000E+00 0. -1.
<mgrwt>
<rscale>  0 0.35605813E+03</rscale>
<asrwt>0</asrwt>
<pdfrwt beam="1">  1        2 0.27147354E+00 0.35605813E+03</pdfrwt>
<pdfrwt beam="2">  1       -2 0.27632972E-02 0.35605813E+03</pdfrwt>
<totfact> 0.47321792E+03</totfact>
</mgrwt>
</event>
<event>
 6    1  0.4705246E-006  0.1803101E+03  0.7546771E-02  0.1172417E+00
          1   -1    0    0  501    0  0.00000000000E+00  0.00000000000E+00  0.11499593616E+04  0.11499593616E+04  0.00000000000E+00 0. -1.
         -1   -1    0    0    0  501 -0.00000000000E+00 -0.00000000000E+00 -0.32986907703E+02  0.32986907703E+02  0.00000000000E+00 0.  1.
          5    1    1    2  502    0 -0.90728672748E+02 -0.46378497091E+02  0.63818022854E+03  0.64628070616E+03  0.47000000000E+01 0.  1.
         -5    1    1    2    0  502 -0.38690576014E+02  0.58065864563E+02  0.22871571241E+03  0.23916850212E+03  0.47000000000E+01 0.  1.
        -11    1    1    2    0    0  0.11217064819E+03  0.22115173212E+02  0.13821169115E+03  0.17937058502E+03  0.00000000000E+00 0.  1.
         11    1    1    2    0    0  0.17248600576E+02 -0.33802540684E+02  0.11186482174E+03  0.11812647596E+03  0.00000000000E+00 0. -1.
<mgrwt>
<rscale>  0 0.17531382E+03</rscale>
<asrwt>0</asrwt>
<pdfrwt beam="1">  1        1 0.17691679E+00 0.18031009E+03</pdfrwt>
<pdfrwt beam="2">  1       -1 0.50749098E-02 0.18031009E+03</pdfrwt>
<totfact> 0.21307977E+03</totfact>
</mgrwt>
</event>
<event>
 6    1  0.4705246E-006  0.1567195E+03  0.7546771E-02  0.1212266E+00
         -2   -1    0    0    0  501 -0.00000000000E+00  0.00000000000E+00  0.15439174369E+03  0.15439174369E+03  0.00000000000E+00 0.  1.
          2   -1    0    0  501    0  0.00000000000E+00 -0.00000000000E+00 -0.33141572080E+03  0.33141572080E+03  0.00000000000E+00 0. -1.
          5    1    1    2  502    0  0.41315515755E+01 -0.64113027657E+02 -0.16997590831E+03  0.18177307127E+03  0.47000000000E+01 0. -1.
         -5    1    1    2    0  502 -0.47995177895E+02  0.71973190690E+02 -0.12242557472E+03  0.14997929399E+03  0.47000000000E+01 0.  1.
        -11    1    1    2    0    0  0.60403937100E+02 -0.21729288322E+02  0.11587020017E+03  0.13246396066E+03  0.00000000000E+00 0.  1.
         11    1    1    2    0    0 -0.16540310780E+02  0.13869125288E+02 -0.49269423580E+00  0.21591138566E+02  0.00000000000E+00 0. -1.
<mgrwt>
<rscale>  0 0.14079298E+03</rscale>
<asrwt>0</asrwt>
<pdfrwt beam="2">  1        2 0.50987034E-01 0.15671951E+03</pdfrwt>
<pdfrwt beam="1">  1       -2 0.23752576E-01 0.15671951E+03</pdfrwt>
<totfact> 0.15071804E+03</totfact>
</mgrwt>
</event>
<event>
 6    1  0.4705246E-006  0.1336069E+03  0.7546771E-02  0.1235498E+00
         -1   -1    0    0    0  501 -0.00000000000E+00  0.00000000000E+00  0.30734725458E+03  0.30734725458E+03  0.00000000000E+00 0.  1.
          1   -1    0    0  501    0  0.00000000000E+00 -0.00000000000E+00 -0.68300127548E+02  0.68300127548E+02  0.00000000000E+00 0. -1.
          5    1    1    2  502    0 -0.85754155496E+01  0.44752605469E+02  0.11085425358E+02  0.47130776606E+02  0.47000000000E+01 0. -1.
         -5    1    1    2    0  502  0.44605507191E+02 -0.75202845816E+02  0.10049312010E+02  0.88137381187E+02  0.47000000000E+01 0. -1.
        -11    1    1    2    0    0  0.14261587510E+02  0.46524669765E+02  0.10631663340E+03  0.11692375427E+03  0.00000000000E+00 0.  1.
         11    1    1    2    0    0 -0.50291679151E+02 -0.16074429418E+02  0.11159575627E+03  0.12345547007E+03  0.00000000000E+00 0. -1.
<mgrwt>
<rscale>  0 0.12472603E+03</rscale>
<asrwt>0</asrwt>
<pdfrwt beam="2">  1        1 0.10507712E-01 0.13360688E+03</pdfrwt>
<pdfrwt beam="1">  1       -1 0.47284192E-01 0.13360688E+03</pdfrwt>
<totfact> 0.26413196E+03</totfact>
</mgrwt>
</event>
<event>
 6    1  0.4705246E-006  0.3380318E+03  0.7546771E-02  0.1067637E+00
          1   -1    0    0  501    0  0.00000000000E+00  0.00000000000E+00  0.31455507592E+03  0.31455507592E+03  0.00000000000E+00 0. -1.
         -1   -1    0    0    0  501 -0.00000000000E+00 -0.00000000000E+00 -0.90815155229E+02  0.90815155229E+02  0.00000000000E+00 0.  1.
          5    1    1    2  502    0  0.45696006472E+02  0.41759425704E+02  0.50610422186E+02  0.80096688299E+02  0.47000000000E+01 0. -1.
         -5    1    1    2    0  502 -0.29543087696E+01 -0.10706486859E+02  0.21229291826E+03  0.21263520392E+03  0.47000000000E+01 0.  1.
        -11    1    1    2    0    0 -0.35266930142E+02 -0.51700794475E+02  0.55442614038E+01  0.62828873502E+02  0.00000000000E+00 0. -1.
         11    1    1    2    0    0 -0.74747675604E+01  0.20647855630E+02 -0.44707681158E+02  0.49809465433E+02  0.00000000000E+00 0.  1.
<mgrwt>
<rscale>  0 0.33803176E+03</rscale>
<asrwt>0</asrwt>
<pdfrwt beam="1">  1        1 0.48393088E-01 0.33803176E+03</pdfrwt>
<pdfrwt beam="2">  1       -1 0.13971562E-01 0.33803176E+03</pdfrwt>
<totfact> 0.29759631E+03</totfact>
</mgrwt>
</event>
<event>
 6    1  0.4705246E-006  0.1632855E+03  0.7546771E-02  0.1192688E+00
         -2   -1    0    0    0  501 -0.00000000000E+00  0.00000000000E+00  0.28081420875E+02  0.28081420875E+02  0.00000000000E+00 0.  1.
          2   -1    0    0  501    0  0.00000000000E+00 -0.00000000000E+00 -0.80747054190E+03  0.80747054190E+03  0.00000000000E+00 0. -1.
          5    1    1    2  502    0 -0.14984816310E+02  0.34100093888E+02 -0.35754334399E+03  0.35950896228E+03  0.47000000000E+01 0. -1.
         -5    1    1    2    0  502 -0.61250912736E+01  0.68811934698E+02 -0.71398103616E+02  0.99460435852E+02  0.47000000000E+01 0. -1.
        -11    1    1    2    0    0 -0.18045124530E+02 -0.96468376563E+02 -0.24660010234E+03  0.26541172670E+03  0.00000000000E+00 0.  1.
         11    1    1    2    0    0  0.39155032113E+02 -0.64436520234E+01 -0.10384757108E+03  0.11117083795E+03  0.00000000000E+00 0. -1.
<mgrwt>
<rscale>  0 0.15651548E+03</rscale>
<asrwt>0</asrwt>
<pdfrwt beam="2">  1        2 0.12422625E+00 0.16328546E+03</pdfrwt>
<pdfrwt beam="1">  1       -2 0.43202181E-02 0.16328546E+03</pdfrwt>
<totfact> 0.83418012E+03</totfact>
</mgrwt>
</event>
<event>
 6    1  0.4705246E-006  0.1613883E+03  0.7546771E-02  0.1194809E+00
         -2   -1    0    0    0  501 -0.00000000000E+00  0.00000000000E+00  0.16066049432E+02  0.16066049432E+02  0.00000000000E+00 0.  1.
          2   -1    0    0  501    0  0.00000000000E+00 -0.00000000000E+00 -0.13808166975E+04  0.13808166975E+04  0.00000000000E+00 0. -1.
          5    1    1    2  502    0  0.57655908223E+02  0.58504305947E+02 -0.23650144625E+03  0.25040363745E+03  0.47000000000E+01 0. -1.
         -5    1    1    2    0  502 -0.36559018817E+02  0.41383935108E+02 -0.53089340784E+03  0.53377813034E+03  0.47000000000E+01 0. -1.
        -11    1    1    2    0    0  0.22202783212E+02 -0.84305706951E+02 -0.32524859769E+03  0.33672996021E+03  0.00000000000E+00 0.  1.
         11    1    1    2    0    0 -0.43299672617E+02 -0.15582534104E+02 -0.27210719625E+03  0.27597101890E+03  0.00000000000E+00 0. -1.
<mgrwt>
<rscale>  0 0.15470390E+03</rscale>
<asrwt>0</asrwt>
<pdfrwt beam="2">  1        2 0.21243345E+00 0.16138830E+03</pdfrwt>
<pdfrwt beam="1">  1       -2 0.24716986E-02 0.16138830E+03</pdfrwt>
<totfact> 0.87842876E+03</totfact>
</mgrwt>
</event>
<event>
 6    1  0.4705246E-006  0.1472509E+03  0.7546771E-02  0.1214267E+00
         -1   -1    0    0    0  501 -0.00000000000E+00  0.00000000000E+00  0.34815061030E+03  0.34815061030E+03  0.00000000000E+00 0.  1.
          1   -1    0    0  501    0  0.00000000000E+00 -0.00000000000E+00 -0.66188199584E+02  0.66188199584E+02  0.00000000000E+00 0. -1.
          5    1    1    2  502    0 -0.25293523958E+02  0.34862391890E+02 -0.39293690266E+01  0.43504926887E+02  0.47000000000E+01 0.  1.
         -5    1    1    2    0  502  0.97426383842E+02 -0.56334077293E+01  0.56415988010E+02  0.11282060651E+03  0.47000000000E+01 0.  1.
        -11    1    1    2    0    0 -0.45199757346E+02 -0.59770424973E+02  0.12316405996E+03  0.14416971746E+03  0.00000000000E+00 0.  1.
         11    1    1    2    0    0 -0.26933102538E+02  0.30541440812E+02  0.10631173177E+03  0.11384355902E+03  0.00000000000E+00 0. -1.
<mgrwt>
<rscale>  0 0.13930479E+03</rscale>
<asrwt>0</asrwt>
<pdfrwt beam="2">  1        1 0.10182800E-01 0.14725090E+03</pdfrwt>
<pdfrwt beam="1">  1       -1 0.53561631E-01 0.14725090E+03</pdfrwt>
<totfact> 0.22018278E+03</totfact>
</mgrwt>
</event>
<event>
 6    1  0.4705246E-006  0.1319502E+03  0.7546771E-02  0.1238893E+00
         -1   -1    0    0    0  501 -0.00000000000E+00  0.00000000000E+00  0.96983609020E+02  0.96983609020E+02  0.00000000000E+00 0.  1.
          1   -1    0    0  501    0  0.00000000000E+00 -0.00000000000E+00 -0.14208682292E+03  0.14208682292E+03  0.00000000000E+00 0. -1.
          5    1    1    2  502    0  0.20636162210E+02 -0.43216386632E+02  0.11157543115E+02  0.49397247217E+02  0.47000000000E+01 0. -1.
         -5    1    1    2    0  502  0.14191917769E+02  0.67166839679E+02 -0.60022428383E+02  0.91310332337E+02  0.47000000000E+01 0. -1.
        -11    1    1    2    0    0  0.43875869801E+01 -0.26334579956E+02  0.37870034351E+02  0.46334657900E+02  0.00000000000E+00 0.  1.
         11    1    1    2    0    0 -0.39215666959E+02  0.23841269088E+01 -0.34108362983E+02  0.52028194487E+02  0.00000000000E+00 0. -1.
<mgrwt>
<rscale>  0 0.12258456E+03</rscale>
<asrwt>0</asrwt>
<pdfrwt beam="2">  1        1 0.21859511E-01 0.13195016E+03</pdfrwt>
<pdfrwt beam="1">  1       -1 0.14920555E-01 0.13195016E+03</pdfrwt>
<totfact> 0.69785204E+03</totfact>
</mgrwt>
</event>
<event>
 6    1  0.4705246E-006  0.1269560E+03  0.7546771E-02  0.1247474E+00
         -1   -1    0    0    0  501 -0.00000000000E+00  0.00000000000E+00  0.20235666664E+03  0.20235666664E+03  0.00000000000E+00 0.  1.
          1   -1    0    0  501    0  0.00000000000E+00 -0.00000000000E+00 -0.86687962052E+02  0.86687962052E+02  0.00000000000E+00 0. -1.
          5    1    1    2  502    0  0.38971846804E+02 -0.10702699246E+02 -0.61888306053E+02  0.74064870489E+02  0.47000000000E+01 0. -1.
         -5    1    1    2    0  502 -0.18703329019E+02  0.20680021816E+02  0.45882677487E+02  0.53896084385E+02  0.47000000000E+01 0.  1.
        -11    1    1    2    0    0  0.35697002671E+02  0.89947197742E+00  0.47728961945E+02  0.59608211330E+02  0.00000000000E+00 0. -1.
         11    1    1    2    0    0 -0.55965520456E+02 -0.10876794547E+02  0.83945371207E+02  0.10147546249E+03  0.00000000000E+00 0.  1.
<mgrwt>
<rscale>  0 0.11738543E+03</rscale>
<asrwt>0</asrwt>
<pdfrwt beam="2">  1        1 0.13336610E-01 0.12695600E+03</pdfrwt>
<pdfrwt beam="1">  1       -1 0.31131795E-01 0.12695600E+03</pdfrwt>
<totfact> 0.39883220E+03</totfact>
</mgrwt>
</event>
<event>
 6    1  0.4705246E-006  0.2383343E+03  0.7546771E-02  0.1123691E+00
          2   -1    0    0  501    0  0.00000000000E+00  0.00000000000E+00  0.14846929170E+04  0.14846929170E+04  0.00000000000E+00 0. -1.
         -2   -1    0    0    0  501 -0.00000000000E+00 -0.00000000000E+00 -0.36341357214E+02  0.36341357214E+02  0.00000000000E+00 0.  1.
          5    1    1    2  502    0 -0.23199165279E+02  0.78655708086E+02  0.15323075823E+03  0.17385820933E+03  0.47000000000E+01 0.  1.
         -5    1    1    2    0  502 -0.10434988336E+03  0.79175601886E+02  0.69341612659E+03  0.70569518116E+03  0.47000000000E+01 0.  1.
        -11    1    1    2    0    0  0.37618396882E+02 -0.11820102119E+03  0.32872368615E+03  0.35134866875E+03  0.00000000000E+00 0.  1.
         11    1    1    2    0    0  0.89930651758E+02 -0.39630288783E+02  0.27298098882E+03  0.29013221498E+03  0.00000000000E+00 0. -1.
<mgrwt>
<rscale>  0 0.23423931E+03</rscale>
<asrwt>0</asrwt>
<pdfrwt beam="1">  1        2 0.22841425E+00 0.23833426E+03</pdfrwt>
<pdfrwt beam="2">  1       -2 0.55909792E-02 0.23833426E+03</pdfrwt>
<totfact> 0.22952351E+03</totfact>
</mgrwt>
</event>
<event>
 6    1  0.4705246E-006  0.1255012E+03  0.7546771E-02  0.1248567E+00
         -1   -1    0    0    0  501 -0.00000000000E+00  0.00000000000E+00  0.14457110916E+02  0.14457110916E+02  0.00000000000E+00 0.  1.
          1   -1    0    0  501    0  0.00000000000E+00 -0.00000000000E+00 -0.87471391951E+03  0.87471391951E+03  0.00000000000E+00 0. -1.
          5    1    1    2  502    0  0.84738810579E+01 -0.57631511003E+02 -0.18676934196E+03  0.19569893924E+03  0.47000000000E+01 0.  1.
         -5    1    1    2    0  502 -0.19511720446E+02  0.55716374081E+02 -0.39837951870E+03  0.40275718801E+03  0.47000000000E+01 0.  1.
        -11    1    1    2    0    0  0.48323282280E+02 -0.75651195185E+01 -0.20490189089E+03  0.21065886056E+03  0.00000000000E+00 0. -1.
         11    1    1    2    0    0 -0.37285442892E+02  0.94802564410E+01 -0.70206057040E+02  0.80056042614E+02  0.00000000000E+00 0.  1.
<mgrwt>
<rscale>  0 0.11674430E+03</rscale>
<asrwt>0</asrwt>
<pdfrwt beam="2">  1        1 0.13457136E+00 0.12550118E+03</pdfrwt>
<pdfrwt beam="1">  1       -1 0.22241711E-02 0.12550118E+03</pdfrwt>
<totfact> 0.11209088E+04</totfact>
</mgrwt>
</event>
<event>
 6    1  0.4705246E-006  0.1514457E+03  0.7546771E-02  0.1206682E+00
         -1   -1    0    0    0  501 -0.00000000000E+00  0.00000000000E+00  0.42185111208E+02  0.42185111208E+02  0.00000000000E+00 0.  1.
          1   -1    0    0  501    0  0.00000000000E+00 -0.00000000000E+00 -0.47054830817E+03  0.47054830817E+03  0.00000000000E+00 0. -1.
          5    1    1    2  502    0 -0.52209112522E+02  0.26955164852E+02 -0.17730036726E+03  0.18684186516E+03  0.47000000000E+01 0. -1.
         -5    1    1    2    0  502  0.54628465558E+02  0.58507700441E+02 -0.91303022210E+02  0.12151441118E+03  0.47000000000E+01 0. -1.
        -11    1    1    2    0    0 -0.42845132690E+02 -0.27552335067E+02 -0.37756112313E+02  0.63406313407E+02  0.00000000000E+00 0.  1.
         11    1    1    2    0    0  0.40425779655E+02 -0.57910530226E+02 -0.12200369517E+03  0.14097082963E+03  0.00000000000E+00 0. -1.
<mgrwt>
<rscale>  0 0.14505705E+03</rscale>
<asrwt>0</asrwt>
<pdfrwt beam="2">  1        1 0.72392046E-01 0.15144574E+03</pdfrwt>
<pdfrwt beam="1">  1       -1 0.64900173E-02 0.15144574E+03</pdfrwt>
<totfact> 0.56164020E+03</totfact>
</mgrwt>
</event>
<event>
 6    1  0.4705246E-006  0.4159220E+03  0.7546771E-02  0.1039118E+00
          1   -1    0    0  501    0  0.00000000000E+00  0.00000000000E+00  0.54224008862E+03  0.54224008862E+03  0.00000000000E+00 0. -1.
         -1   -1    0    0    0  501 -0.00000000000E+00 -0.00000000000E+00 -0.49490678901E+03  0.49490678901E+03  0.00000000000E+00 0.  1.
          5    1    1    2  502    0 -0.81173427597E+01  0.55202321315E+02  0.46264025285E+02  0.72633584295E+02  0.47000000000E+01 0.  1.
         -5    1    1    2    0  502 -0.31300950055E+03  0.17762170555E+03  0.29239855107E+03  0.46372774382E+03  0.47000000000E+01 0.  1.
        -11    1    1    2    0    0  0.66342995917E+02 -0.32018049846E+02 -0.99862126181E+02  0.12409267855E+03  0.00000000000E+00 0.  1.
         11    1    1    2    0    0  0.25478384740E+03 -0.20080597702E+03 -0.19146715056E+03  0.37669287097E+03  0.00000000000E+00 0. -1.
<mgrwt>
<rscale>  0 0.41375583E+03</rscale>
<asrwt>0</asrwt>
<pdfrwt beam="1">  1        1 0.83421552E-01 0.41592203E+03</pdfrwt>
<pdfrwt beam="2">  1       -1 0.76139506E-01 0.41592203E+03</pdfrwt>
<totfact> 0.72326298E+01</totfact>
</mgrwt>
</event>
<event>
 6    1  0.4705246E-006  0.1585972E+03  0.7546771E-02  0.1198172E+00
         -2   -1    0    0    0  501 -0.00000000000E+00  0.00000000000E+00  0.64663270177E+03  0.64663270177E+03  0.00000000000E+00 0.  1.
          2   -1    0    0  501    0  0.00000000000E+00 -0.00000000000E+00 -0.37302030004E+02  0.37302030004E+02  0.00000000000E+00 0. -1.
          5    1    1    2  502    0 -0.20186458427E+02  0.39685129588E+02  0.14291600249E+03  0.14976473677E+03  0.47000000000E+01 0.  1.
         -5    1    1    2    0  502 -0.76876328301E+02 -0.50049190856E+02  0.68780091053E+02  0.11475052193E+03  0.47000000000E+01 0.  1.
        -11    1    1    2    0    0  0.59629914861E+02 -0.10615752278E+02  0.35043021275E+03  0.35562586373E+03  0.00000000000E+00 0.  1.
         11    1    1    2    0    0  0.37432871867E+02  0.20979813546E+02  0.47204365469E+02  0.63793609335E+02  0.00000000000E+00 0. -1.
<mgrwt>
<rscale>  0 0.15188767E+03</rscale>
<asrwt>0</asrwt>
<pdfrwt beam="2">  1        2 0.57387743E-02 0.15859724E+03</pdfrwt>
<pdfrwt beam="1">  1       -2 0.99481946E-01 0.15859724E+03</pdfrwt>
<totfact> 0.11113362E+03</totfact>
</mgrwt>
</event>
<event>
 6    1  0.4705246E-006  0.1277078E+03  0.7546771E-02  0.1245421E+00
          2   -1    0    0  501    0  0.00000000000E+00  0.00000000000E+00  0.20599344210E+03  0.20599344210E+03  0.00000000000E+00 0. -1.
         -2   -1    0    0    0  501 -0.00000000000E+00 -0.00000000000E+00 -0.66269678177E+02  0.66269678177E+02  0.00000000000E+00 0.  1.
          5    1    1    2  502    0 -0.16536074098E+02 -0.14249331163E+02 -0.20352188623E+02  0.30212361160E+02  0.47000000000E+01 0. -1.
         -5    1    1    2    0  502  0.36094754838E+02 -0.31263550910E+01  0.14034943156E+03  0.14502640574E+03  0.47000000000E+01 0. -1.
        -11    1    1    2    0    0 -0.17357847613E+02 -0.21599138506E+02 -0.25236843546E+02  0.37479540154E+02  0.00000000000E+00 0.  1.
         11    1    1    2    0    0 -0.22008331268E+01  0.38974824760E+02  0.44963364536E+02  0.59544813224E+02  0.00000000000E+00 0. -1.
<mgrwt>
<rscale>  0 0.11860187E+03</rscale>
<asrwt>0</asrwt>
<pdfrwt beam="1">  1        2 0.31691299E-01 0.12770782E+03</pdfrwt>
<pdfrwt beam="2">  1       -2 0.10195335E-01 0.12770782E+03</pdfrwt>
<totfact> 0.99658821E+03</totfact>
</mgrwt>
</event>
<event>
 6    1  0.4705246E-006  0.1449994E+03  0.7546771E-02  0.1216742E+00
         -2   -1    0    0    0  501 -0.00000000000E+00  0.00000000000E+00  0.20133047161E+03  0.20133047161E+03  0.00000000000E+00 0.  1.
          2   -1    0    0  501    0  0.00000000000E+00 -0.00000000000E+00 -0.95661879615E+02  0.95661879615E+02  0.00000000000E+00 0. -1.
          5    1    1    2  502    0  0.90640119843E+02  0.31528304996E+02 -0.17512495356E+02  0.97664951926E+02  0.47000000000E+01 0.  1.
         -5    1    1    2    0  502 -0.17255966646E+02 -0.35001533986E+02  0.26916827954E+02  0.47639074229E+02  0.47000000000E+01 0.  1.
        -11    1    1    2    0    0 -0.63354421966E+02 -0.28038034339E+02  0.25942530763E+02  0.73979247459E+02  0.00000000000E+00 0. -1.
         11    1    1    2    0    0 -0.10029731231E+02  0.31511263329E+02  0.70321728638E+02  0.77709077615E+02  0.00000000000E+00 0.  1.
<mgrwt>
<rscale>  0 0.13749376E+03</rscale>
<asrwt>0</asrwt>
<pdfrwt beam="2">  1        2 0.14717212E-01 0.14499937E+03</pdfrwt>
<pdfrwt beam="1">  1       -2 0.30973919E-01 0.14499937E+03</pdfrwt>
<totfact> 0.36986545E+03</totfact>
</mgrwt>
</event>
<event>
 6    1  0.4705246E-006  0.3702813E+03  0.7546771E-02  0.1054585E+00
          1   -1    0    0  501    0  0.00000000000E+00  0.00000000000E+00  0.15147172005E+03  0.15147172005E+03  0.00000000000E+00 0. -1.
         -1   -1    0    0    0  501 -0.00000000000E+00 -0.00000000000E+00 -0.22629342725E+03  0.22629342725E+03  0.00000000000E+00 0.  1.
          5    1    1    2  502    0 -0.21168018399E+02 -0.14456035984E+02  0.12145607594E+02  0.28751830605E+02  0.47000000000E+01 0.  1.
         -5    1    1    2    0  502  0.14601673565E+03  0.41510438028E+02  0.28127760214E+02  0.15445796985E+03  0.47000000000E+01 0.  1.
        -11    1    1    2    0    0 -0.92253214878E+02  0.76040621512E+01 -0.11415382692E+03  0.14696793398E+03  0.00000000000E+00 0.  1.
         11    1    1    2    0    0 -0.32595502374E+02 -0.34658464195E+02 -0.94124809041E+00  0.47587412866E+02  0.00000000000E+00 0. -1.
<mgrwt>
<rscale>  0 0.37028127E+03</rscale>
<asrwt>0</asrwt>
<pdfrwt beam="1">  1        1 0.23303342E-01 0.37028127E+03</pdfrwt>
<pdfrwt beam="2">  1       -1 0.34814373E-01 0.37028127E+03</pdfrwt>
<totfact> 0.16607210E+03</totfact>
</mgrwt>
</event>
<event>
 6    1  0.4705246E-006  0.1842567E+03  0.7546771E-02  0.1168968E+00
         -2   -1    0    0    0  501 -0.00000000000E+00  0.00000000000E+00  0.69741193407E+02  0.69741193407E+02  0.00000000000E+00 0.  1.
          2   -1    0    0  501    0  0.00000000000E+00 -0.00000000000E+00 -0.48915854772E+03  0.48915854772E+03  0.00000000000E+00 0. -1.
          5    1    1    2  502    0 -0.36300876279E+02  0.53304439284E+02 -0.27661421496E+03  0.28407152407E+03  0.47000000000E+01 0.  1.
         -5    1    1    2    0  502 -0.33456736298E+02  0.62737602494E+02 -0.38584271189E+02  0.81032067440E+02  0.47000000000E+01 0.  1.
        -11    1    1    2    0    0  0.19228339893E+02 -0.10692975473E+03 -0.51593848647E+02  0.12027313382E+03  0.00000000000E+00 0.  1.
         11    1    1    2    0    0  0.50529272684E+02 -0.91122870494E+01 -0.52625019518E+02  0.73523015801E+02  0.00000000000E+00 0. -1.
<mgrwt>
<rscale>  0 0.17880186E+03</rscale>
<asrwt>0</asrwt>
<pdfrwt beam="2">  1        2 0.75255161E-01 0.18425674E+03</pdfrwt>
<pdfrwt beam="1">  1       -2 0.10729414E-01 0.18425674E+03</pdfrwt>
<totfact> 0.37138683E+03</totfact>
</mgrwt>
</event>
<event>
 6    1  0.4705246E-006  0.1494944E+03  0.7546771E-02  0.1209446E+00
          2   -1    0    0  501    0  0.00000000000E+00  0.00000000000E+00  0.89818134918E+03  0.89818134918E+03  0.00000000000E+00 0. -1.
         -2   -1    0    0    0  501 -0.00000000000E+00 -0.00000000000E+00 -0.24502730816E+02  0.24502730816E+02  0.00000000000E+00 0.  1.
          5    1    1    2  502    0  0.33386918077E+02  0.59313816569E+02  0.63669948789E+03  0.64034455024E+03  0.47000000000E+01 0. -1.
         -5    1    1    2    0  502  0.19393319708E+02  0.34609658481E+01  0.85279617351E+01  0.21974878049E+02  0.47000000000E+01 0. -1.
        -11    1    1    2    0    0 -0.44083634454E+02 -0.56648197852E+02  0.23641773986E+03  0.24707434684E+03  0.00000000000E+00 0. -1.
         11    1    1    2    0    0 -0.86966033314E+01 -0.61265845652E+01 -0.79665711266E+01  0.13290304867E+02  0.00000000000E+00 0.  1.
<mgrwt>
<rscale>  0 0.14292511E+03</rscale>
<asrwt>0</asrwt>
<pdfrwt beam="1">  1        2 0.13818172E+00 0.14949436E+03</pdfrwt>
<pdfrwt beam="2">  1       -2 0.37696516E-02 0.14949436E+03</pdfrwt>
<totfact> 0.88762099E+03</totfact>
</mgrwt>
</event>
<event>
 6    1  0.4705246E-006  0.1930450E+03  0.7546771E-02  0.1160380E+00
          3   -1    0    0  501    0  0.00000000000E+00  0.00000000000E+00  0.51802743799E+03  0.51802743799E+03  0.00000000000E+00 0. -1.
         -3   -1    0    0    0  501 -0.00000000000E+00 -0.00000000000E+00 -0.64882326577E+02  0.64882326577E+02  0.00000000000E+00 0.  1.
          5    1    1    2  502    0 -0.74695824530E+02  0.94192710078E+01  0.92540259958E+02  0.11939002715E+03  0.47000000000E+01 0.  1.
         -5    1    1    2    0  502 -0.28966274435E+02 -0.11379905281E+03  0.13284486932E+03  0.17736718631E+03  0.47000000000E+01 0.  1.
        -11    1    1    2    0    0  0.12097872756E+02  0.28597761485E+02  0.12573594818E+03  0.12951339372E+03  0.00000000000E+00 0. -1.
         11    1    1    2    0    0  0.91564226209E+02  0.75782020319E+02  0.10202403395E+03  0.15663915739E+03  0.00000000000E+00 0.  1.
<mgrwt>
<rscale>  0 0.18788834E+03</rscale>
<asrwt>0</asrwt>
<pdfrwt beam="1">  1        3 0.79696526E-01 0.19304504E+03</pdfrwt>
<pdfrwt beam="2">  1       -3 0.99818968E-02 0.19304504E+03</pdfrwt>
<totfact> 0.27102484E+02</totfact>
</mgrwt>
</event>
<event>
 6    1  0.4705246E-006  0.1391433E+03  0.7546771E-02  0.1221719E+00
          1   -1    0    0  501    0  0.00000000000E+00  0.00000000000E+00  0.39760412384E+03  0.39760412384E+03  0.00000000000E+00 0. -1.
         -1   -1    0    0    0  501 -0.00000000000E+00 -0.00000000000E+00 -0.12143125481E+03  0.12143125481E+03  0.00000000000E+00 0.  1.
          5    1    1    2  502    0 -0.51786240864E+02  0.90078301324E+01  0.34546682919E+03  0.34947442799E+03  0.47000000000E+01 0. -1.
         -5    1    1    2    0  502 -0.19488622493E+02 -0.19252535565E+02  0.58639435370E+01  0.28406731001E+02  0.47000000000E+01 0.  1.
        -11    1    1    2    0    0 -0.14311684416E+02  0.68387669827E+01 -0.49138524818E+02  0.51635139836E+02  0.00000000000E+00 0. -1.
         11    1    1    2    0    0  0.85586547773E+02  0.34059384495E+01 -0.26019378879E+02  0.89519079830E+02  0.00000000000E+00 0.  1.
<mgrwt>
<rscale>  0 0.13394355E+03</rscale>
<asrwt>0</asrwt>
<pdfrwt beam="1">  1        1 0.61169864E-01 0.13914330E+03</pdfrwt>
<pdfrwt beam="2">  1       -1 0.18681732E-01 0.13914330E+03</pdfrwt>
<totfact> 0.13615239E+03</totfact>
</mgrwt>
</event>
<event>
 6    1  0.4705246E-006  0.1975514E+03  0.7546771E-02  0.1159935E+00
         -1   -1    0    0    0  501 -0.00000000000E+00  0.00000000000E+00  0.16362898575E+03  0.16362898575E+03  0.00000000000E+00 0.  1.
          1   -1    0    0  501    0  0.00000000000E+00 -0.00000000000E+00 -0.20993669812E+03  0.20993669812E+03  0.00000000000E+00 0. -1.
          5    1    1    2  502    0  0.11010974834E+02  0.79857386180E+01  0.38248194061E+02  0.40865975297E+02  0.47000000000E+01 0.  1.
         -5    1    1    2    0  502 -0.12145569881E+03  0.97841947022E+02 -0.20982422248E+02  0.15743851312E+03  0.47000000000E+01 0.  1.
        -11    1    1    2    0    0  0.87789282948E+02 -0.10103411513E+03 -0.34742674996E+02  0.13828197311E+03  0.00000000000E+00 0.  1.
         11    1    1    2    0    0  0.22655441028E+02 -0.47935705103E+01 -0.28830809195E+02  0.36979222345E+02  0.00000000000E+00 0. -1.
<mgrwt>
<rscale>  0 0.18837487E+03</rscale>
<asrwt>0</asrwt>
<pdfrwt beam="2">  1        1 0.32297953E-01 0.19755142E+03</pdfrwt>
<pdfrwt beam="1">  1       -1 0.25173690E-01 0.19755142E+03</pdfrwt>
<totfact> 0.18776183E+03</totfact>
</mgrwt>
</event>
<event>
 6    1  0.4705246E-006  0.1261446E+03  0.7546771E-02  0.1248201E+00
         -2   -1    0    0    0  501 -0.00000000000E+00  0.00000000000E+00  0.14463268313E+03  0.14463268313E+03  0.00000000000E+00 0. -1.
          2   -1    0    0  501    0  0.00000000000E+00 -0.00000000000E+00 -0.93866053220E+02  0.93866053220E+02  0.00000000000E+00 0.  1.
          5    1    1    2  502    0  0.31826391945E+02 -0.75184343542E+01  0.48319485202E+02  0.58534679717E+02  0.47000000000E+01 0. -1.
         -5    1    1    2    0  502 -0.31582456745E+02 -0.94716873518E+01 -0.59394436596E+02  0.68095179961E+02  0.47000000000E+01 0. -1.
        -11    1    1    2    0    0  0.16036418898E+02 -0.20638937592E+02 -0.10939616684E+02  0.28333861177E+02  0.00000000000E+00 0.  1.
         11    1    1    2    0    0 -0.16280354097E+02  0.37629059298E+02  0.72781197987E+02  0.83535015494E+02  0.00000000000E+00 0. -1.
<mgrwt>
<rscale>  0 0.11695820E+03</rscale>
<asrwt>0</asrwt>
<pdfrwt beam="2">  1        2 0.14440931E-01 0.12614463E+03</pdfrwt>
<pdfrwt beam="1">  1       -2 0.22251182E-01 0.12614463E+03</pdfrwt>
<totfact> 0.67070162E+03</totfact>
</mgrwt>
</event>
<event>
 6    1  0.4705246E-006  0.4152967E+03  0.7546771E-02  0.1038608E+00
          2   -1    0    0  501    0  0.00000000000E+00  0.00000000000E+00  0.61973443361E+02  0.61973443361E+02  0.00000000000E+00 0. -1.
         -2   -1    0    0    0  501 -0.00000000000E+00 -0.00000000000E+00 -0.69574690053E+03  0.69574690053E+03  0.00000000000E+00 0.  1.
          5    1    1    2  502    0 -0.10759163336E+03  0.47426872363E+02 -0.14438260816E+03  0.18626243672E+03  0.47000000000E+01 0. -1.
         -5    1    1    2    0  502 -0.65814272654E+01  0.20749409548E+02  0.23705395704E+02  0.32525205101E+02  0.47000000000E+01 0. -1.
        -11    1    1    2    0    0  0.57153202596E+01 -0.40429908396E+02 -0.24534515058E+03  0.24871969221E+03  0.00000000000E+00 0.  1.
         11    1    1    2    0    0  0.10845774037E+03 -0.27746373515E+02 -0.26775109413E+03  0.29021300987E+03  0.00000000000E+00 0. -1.
<mgrwt>
<rscale>  0 0.41529667E+03</rscale>
<asrwt>0</asrwt>
<pdfrwt beam="1">  1        2 0.95343759E-02 0.41529667E+03</pdfrwt>
<pdfrwt beam="2">  1       -2 0.10703798E+00 0.41529667E+03</pdfrwt>
<totfact> 0.49981707E+02</totfact>
</mgrwt>
</event>
<event>
 6    1  0.4705246E-006  0.3108021E+03  0.7546771E-02  0.1079962E+00
          2   -1    0    0  501    0  0.00000000000E+00  0.00000000000E+00  0.30090774135E+03  0.30090774135E+03  0.00000000000E+00 0. -1.
         -2   -1    0    0    0  501 -0.00000000000E+00 -0.00000000000E+00 -0.80255454034E+02  0.80255454034E+02  0.00000000000E+00 0.  1.
          5    1    1    2  502    0  0.29910981203E+02 -0.12750893801E+03  0.15052640546E+03  0.19958327788E+03  0.47000000000E+01 0.  1.
         -5    1    1    2    0  502  0.12682681734E+01  0.28924917548E+02  0.18410000013E+02  0.34630585611E+02  0.47000000000E+01 0.  1.
        -11    1    1    2    0    0 -0.44258312102E+02  0.11797162870E+02  0.34903594837E+02  0.57586736098E+02  0.00000000000E+00 0.  1.
         11    1    1    2    0    0  0.13079062726E+02  0.86786857595E+02  0.16812287012E+02  0.89362595797E+02  0.00000000000E+00 0. -1.
<mgrwt>
<rscale>  0 0.31080211E+03</rscale>
<asrwt>0</asrwt>
<pdfrwt beam="1">  1        2 0.46293498E-01 0.31080211E+03</pdfrwt>
<pdfrwt beam="2">  1       -2 0.12346993E-01 0.31080211E+03</pdfrwt>
<totfact> 0.51375561E+03</totfact>
</mgrwt>
</event>
<event>
 6    1  0.4705246E-006  0.1256554E+03  0.7546771E-02  0.1246631E+00
          2   -1    0    0  501    0  0.00000000000E+00  0.00000000000E+00  0.13775024745E+03  0.13775024745E+03  0.00000000000E+00 0. -1.
         -2   -1    0    0    0  501 -0.00000000000E+00 -0.00000000000E+00 -0.90274423961E+02  0.90274423961E+02  0.00000000000E+00 0.  1.
          5    1    1    2  502    0  0.60167978423E+02 -0.95373481004E+01  0.17534513083E+02  0.63566467460E+02  0.47000000000E+01 0. -1.
         -5    1    1    2    0  502 -0.60170915690E+02  0.22391069981E+02  0.11363636155E+02  0.65369116075E+02  0.47000000000E+01 0. -1.
        -11    1    1    2    0    0 -0.13226640441E+02  0.34680058109E+02  0.30829222456E+02  0.48250299533E+02  0.00000000000E+00 0. -1.
         11    1    1    2    0    0  0.13229577707E+02 -0.47533779990E+02 -0.12251548206E+02  0.50838788340E+02  0.00000000000E+00 0.  1.
<mgrwt>
<rscale>  0 0.11788262E+03</rscale>
<asrwt>0</asrwt>
<pdfrwt beam="1">  1        2 0.21192346E-01 0.12565541E+03</pdfrwt>
<pdfrwt beam="2">  1       -2 0.13888373E-01 0.12565541E+03</pdfrwt>
<totfact> 0.94571513E+03</totfact>
</mgrwt>
</event>
<event>
 6    1  0.4705246E-006  0.2136239E+03  0.7546771E-02  0.1142370E+00
          4   -1    0    0  501    0  0.00000000000E+00  0.00000000000E+00  0.25745585739E+03  0.25745585739E+03  0.00000000000E+00 0. -1.
         -4   -1    0    0    0  501 -0.00000000000E+00 -0.00000000000E+00 -0.18787149676E+03  0.18787149676E+03  0.00000000000E+00 0.  1.
          5    1    1    2  502    0 -0.11677808960E+03  0.55635470775E+02  0.15313020977E+02  0.13034188287E+03  0.47000000000E+01 0. -1.
         -5    1    1    2    0  502 -0.54850249470E+02 -0.32243590813E+02 -0.60677424155E+02  0.88045663252E+02  0.47000000000E+01 0. -1.
        -11    1    1    2    0    0  0.12802646408E+03 -0.37864486025E+02  0.40605069354E+02  0.13954664620E+03  0.00000000000E+00 0.  1.
         11    1    1    2    0    0  0.43601874991E+02  0.14472606063E+02  0.74343694452E+02  0.87393161825E+02  0.00000000000E+00 0. -1.
<mgrwt>
<rscale>  0 0.20898780E+03</rscale>
<asrwt>0</asrwt>
<pdfrwt beam="1">  1        4 0.39608594E-01 0.21362395E+03</pdfrwt>
<pdfrwt beam="2">  1       -4 0.28903307E-01 0.21362395E+03</pdfrwt>
<totfact> 0.12691483E+02</totfact>
</mgrwt>
</event>
<event>
 6    1  0.4705246E-006  0.1386962E+03  0.7546771E-02  0.1227979E+00
         -1   -1    0    0    0  501 -0.00000000000E+00  0.00000000000E+00  0.96850018380E+02  0.96850018380E+02  0.00000000000E+00 0.  1.
          1   -1    0    0  501    0  0.00000000000E+00 -0.00000000000E+00 -0.22445566283E+03  0.22445566283E+03  0.00000000000E+00 0. -1.
          5    1    1    2  502    0  0.27608007313E+02 -0.21737619793E+02 -0.13661734846E+03  0.14114218392E+03  0.47000000000E+01 0. -1.
         -5    1    1    2    0  502  0.14918577216E+02  0.64229351663E+02 -0.22251213967E+02  0.69750842892E+02  0.47000000000E+01 0. -1.
        -11    1    1    2    0    0 -0.40616997479E+02 -0.29259067343E+02  0.60344711818E+02  0.78404832443E+02  0.00000000000E+00 0.  1.
         11    1    1    2    0    0 -0.19095870497E+01 -0.13232664526E+02 -0.29081793836E+02  0.32007821948E+02  0.00000000000E+00 0. -1.
<mgrwt>
<rscale>  0 0.12964823E+03</rscale>
<asrwt>0</asrwt>
<pdfrwt beam="2">  1        1 0.34531640E-01 0.13869625E+03</pdfrwt>
<pdfrwt beam="1">  1       -1 0.14900003E-01 0.13869625E+03</pdfrwt>
<totfact> 0.39616970E+03</totfact>
</mgrwt>
</event>
<event>
 6    1  0.4705246E-006  0.1783692E+03  0.7546771E-02  0.1174472E+00
         -1   -1    0    0    0  501 -0.00000000000E+00  0.00000000000E+00  0.44314812073E+03  0.44314812073E+03  0.00000000000E+00 0.  1.
          1   -1    0    0  501    0  0.00000000000E+00 -0.00000000000E+00 -0.64213473534E+02  0.64213473534E+02  0.00000000000E+00 0. -1.
          5    1    1    2  502    0  0.79073026782E+02 -0.21056457932E+01  0.30519043034E+02  0.84914541137E+02  0.47000000000E+01 0. -1.
         -5    1    1    2    0  502  0.37431086871E+02  0.53260933043E+02  0.17742747337E+03  0.18905134636E+03  0.47000000000E+01 0. -1.
        -11    1    1    2    0    0 -0.79873219305E+01 -0.36108712904E+02  0.89555802600E+02  0.96891063770E+02  0.00000000000E+00 0. -1.
         11    1    1    2    0    0 -0.10851679172E+03 -0.15046574346E+02  0.81432328192E+02  0.13650464300E+03  0.00000000000E+00 0.  1.
<mgrwt>
<rscale>  0 0.17327811E+03</rscale>
<asrwt>0</asrwt>
<pdfrwt beam="2">  1        1 0.98789962E-02 0.17836915E+03</pdfrwt>
<pdfrwt beam="1">  1       -1 0.68176632E-01 0.17836915E+03</pdfrwt>
<totfact> 0.14555703E+03</totfact>
</mgrwt>
</event>
<event>
 6    1  0.4705246E-006  0.1457169E+03  0.7546771E-02  0.1215881E+00
         -2   -1    0    0    0  501 -0.00000000000E+00  0.00000000000E+00  0.76167995323E+02  0.76167995323E+02  0.00000000000E+00 0.  1.
          2   -1    0    0  501    0  0.00000000000E+00 -0.00000000000E+00 -0.22804199180E+03  0.22804199180E+03  0.00000000000E+00 0. -1.
          5    1    1    2  502    0 -0.19994304018E+02 -0.26595993745E+02 -0.42011305143E+02  0.53797386891E+02  0.47000000000E+01 0. -1.
         -5    1    1    2    0  502  0.45866036712E+02  0.96879847117E+02 -0.48521964348E+02  0.11775342511E+03  0.47000000000E+01 0. -1.
        -11    1    1    2    0    0 -0.47601573339E+02 -0.51637062338E+02 -0.61703634779E+01  0.70500846638E+02  0.00000000000E+00 0.  1.
         11    1    1    2    0    0  0.21729840645E+02 -0.18646791034E+02 -0.55170363508E+02  0.62158328484E+02  0.00000000000E+00 0. -1.
<mgrwt>
<rscale>  0 0.13812040E+03</rscale>
<asrwt>0</asrwt>
<pdfrwt beam="2">  1        2 0.35083383E-01 0.14571688E+03</pdfrwt>
<pdfrwt beam="1">  1       -2 0.11718153E-01 0.14571688E+03</pdfrwt>
<totfact> 0.72359481E+03</totfact>
</mgrwt>
</event>
<event>
 6    1  0.4705246E-006  0.1304150E+03  0.7546771E-02  0.1239334E+00
         -2   -1    0    0    0  501 -0.00000000000E+00  0.00000000000E+00  0.96582890684E+02  0.96582890684E+02  0.00000000000E+00 0.  1.
          2   -1    0    0  501    0  0.00000000000E+00 -0.00000000000E+00 -0.15583534317E+03  0.15583534317E+03  0.00000000000E+00 0. -1.
          5    1    1    2  502    0  0.56746396441E+02  0.60317597894E+02 -0.38985968094E+02  0.91653487839E+02  0.47000000000E+01 0.  1.
         -5    1    1    2    0  502 -0.27772997478E+02 -0.36995034568E+02 -0.35797709416E+02  0.58681666396E+02  0.47000000000E+01 0.  1.
        -11    1    1    2    0    0 -0.31210380402E+02  0.23865850180E+02  0.33407521186E+02  0.51572561711E+02  0.00000000000E+00 0.  1.
         11    1    1    2    0    0  0.22369814393E+01 -0.47188413507E+02 -0.17876296167E+02  0.50510517913E+02  0.00000000000E+00 0. -1.
<mgrwt>
<rscale>  0 0.12231018E+03</rscale>
<asrwt>0</asrwt>
<pdfrwt beam="2">  1        2 0.23974668E-01 0.13041495E+03</pdfrwt>
<pdfrwt beam="1">  1       -2 0.14858906E-01 0.13041495E+03</pdfrwt>
<totfact> 0.74085255E+03</totfact>
</mgrwt>
</event>
<event>
 6    1  0.4705246E-006  0.1277672E+03  0.7546771E-02  0.1245386E+00
          2   -1    0    0  501    0  0.00000000000E+00  0.00000000000E+00  0.64073963028E+03  0.64073963028E+03  0.00000000000E+00 0.  1.
         -2   -1    0    0    0  501 -0.00000000000E+00 -0.00000000000E+00 -0.22676580714E+02  0.22676580714E+02  0.00000000000E+00 0. -1.
          5    1    1    2  502    0  0.31759291260E+02 -0.21179456324E+02  0.34406117296E+03  0.34620427884E+03  0.47000000000E+01 0. -1.
         -5    1    1    2    0  502 -0.57630107435E+02  0.26642891907E+02  0.12969433658E+03  0.14447762426E+03  0.47000000000E+01 0. -1.
        -11    1    1    2    0    0  0.29584763736E+02  0.19129446618E+02  0.14359358088E+03  0.14785232647E+03  0.00000000000E+00 0.  1.
         11    1    1    2    0    0 -0.37139475600E+01 -0.24592882200E+02  0.71395914661E+00  0.24881981413E+02  0.00000000000E+00 0. -1.
<mgrwt>
<rscale>  0 0.11862328E+03</rscale>
<asrwt>0</asrwt>
<pdfrwt beam="1">  1        2 0.98575314E-01 0.12776716E+03</pdfrwt>
<pdfrwt beam="2">  1       -2 0.34887052E-02 0.12776716E+03</pdfrwt>
<totfact> 0.14901299E+04</totfact>
</mgrwt>
</event>
<event>
 6    1  0.4705246E-006  0.1760699E+03  0.7546771E-02  0.1184511E+00
          3   -1    0    0  501    0  0.00000000000E+00  0.00000000000E+00  0.42197630934E+03  0.42197630934E+03  0.00000000000E+00 0. -1.
         -3   -1    0    0    0  501 -0.00000000000E+00 -0.00000000000E+00 -0.94415642343E+02  0.94415642343E+02  0.00000000000E+00 0.  1.
          5    1    1    2  502    0  0.31406951370E+02  0.14428322021E+03  0.28378132795E+03  0.31993433126E+03  0.47000000000E+01 0. -1.
         -5    1    1    2    0  502 -0.18423166238E+02 -0.20969308300E+02  0.57382405241E+02  0.63984024381E+02  0.47000000000E+01 0. -1.
        -11    1    1    2    0    0 -0.23736333348E+02 -0.80615778658E+02 -0.23667582135E+02  0.87306767971E+02  0.00000000000E+00 0.  1.
         11    1    1    2    0    0  0.10752548217E+02 -0.42698133250E+02  0.10064515938E+02  0.45166828063E+02  0.00000000000E+00 0. -1.
<mgrwt>
<rscale>  0 0.16376486E+03</rscale>
<asrwt>0</asrwt>
<pdfrwt beam="1">  1        3 0.64919431E-01 0.17606990E+03</pdfrwt>
<pdfrwt beam="2">  1       -3 0.14525484E-01 0.17606990E+03</pdfrwt>
<totfact> 0.22076542E+02</totfact>
</mgrwt>
</event>
<event>
 6    1  0.4705246E-006  0.3326953E+03  0.7546771E-02  0.1069950E+00
         -2   -1    0    0    0  501 -0.00000000000E+00  0.00000000000E+00  0.17122648463E+03  0.17122648463E+03  0.00000000000E+00 0.  1.
          2   -1    0    0  501    0  0.00000000000E+00 -0.00000000000E+00 -0.16160787096E+03  0.16160787096E+03  0.00000000000E+00 0. -1.
          5    1    1    2  502    0 -0.94214493080E+02 -0.12243316369E+01 -0.97183883416E+02  0.13544248554E+03  0.47000000000E+01 0. -1.
         -5    1    1    2    0  502  0.11818111132E+02  0.34596158409E+02  0.13540827748E+02  0.39268383510E+02  0.47000000000E+01 0. -1.
        -11    1    1    2    0    0  0.32513108028E+02 -0.21340584944E+02 -0.12267426978E+02  0.40780050565E+02  0.00000000000E+00 0. -1.
         11    1    1    2    0    0  0.49883273920E+02 -0.12031241827E+02  0.10552909632E+03  0.11734343598E+03  0.00000000000E+00 0.  1.
<mgrwt>
<rscale>  0 0.33269534E+03</rscale>
<asrwt>0</asrwt>
<pdfrwt beam="2">  1        2 0.24862750E-01 0.33269534E+03</pdfrwt>
<pdfrwt beam="1">  1       -2 0.26342536E-01 0.33269534E+03</pdfrwt>
<totfact> 0.28097400E+03</totfact>
</mgrwt>
</event>
<event>
 6    1  0.4705246E-006  0.1489021E+03  0.7546771E-02  0.1211425E+00
          1   -1    0    0  501    0  0.00000000000E+00  0.00000000000E+00  0.65019539161E+03  0.65019539161E+03  0.00000000000E+00 0. -1.
         -1   -1    0    0    0  501 -0.00000000000E+00 -0.00000000000E+00 -0.34855388251E+02  0.34855388251E+02  0.00000000000E+00 0.  1.
          5    1    1    2  502    0  0.11605881330E+02 -0.95567747411E+02  0.22862272223E+03  0.24810951200E+03  0.47000000000E+01 0.  1.
         -5    1    1    2    0  502  0.28710031376E+02  0.25413525215E+02  0.25523238083E+03  0.25813905437E+03  0.47000000000E+01 0.  1.
        -11    1    1    2    0    0 -0.41292576696E+02 -0.34407033176E+01  0.22100941732E+02  0.46961334680E+02  0.00000000000E+00 0.  1.
         11    1    1    2    0    0  0.97666398966E+00  0.73594925513E+02  0.10938395857E+03  0.13184087881E+03  0.00000000000E+00 0. -1.
<mgrwt>
<rscale>  0 0.14142419E+03</rscale>
<asrwt>0</asrwt>
<pdfrwt beam="1">  1        1 0.10003005E+00 0.14890215E+03</pdfrwt>
<pdfrwt beam="2">  1       -1 0.53623679E-02 0.14890215E+03</pdfrwt>
<totfact> 0.48360983E+03</totfact>
</mgrwt>
</event>
<event>
 6    1  0.4705246E-006  0.1353278E+03  0.7546771E-02  0.1231547E+00
         -2   -1    0    0    0  501 -0.00000000000E+00  0.00000000000E+00  0.82788127931E+02  0.82788127931E+02  0.00000000000E+00 0.  1.
          2   -1    0    0  501    0  0.00000000000E+00 -0.00000000000E+00 -0.22672304709E+03  0.22672304709E+03  0.00000000000E+00 0. -1.
          5    1    1    2  502    0 -0.46317843556E+02 -0.14939849892E+02 -0.12296669226E+03  0.13233079442E+03  0.47000000000E+01 0.  1.
         -5    1    1    2    0  502  0.22163057281E+02  0.60814983494E+02 -0.28780005962E+02  0.70993253683E+02  0.47000000000E+01 0.  1.
        -11    1    1    2    0    0 -0.84166538411E+01  0.24735863144E+02 -0.69500425335E+01  0.27037124082E+02  0.00000000000E+00 0.  1.
         11    1    1    2    0    0  0.32571440117E+02 -0.70610996746E+02  0.14761821594E+02  0.79150002839E+02  0.00000000000E+00 0. -1.
<mgrwt>
<rscale>  0 0.12728100E+03</rscale>
<asrwt>0</asrwt>
<pdfrwt beam="2">  1        2 0.34880469E-01 0.13532778E+03</pdfrwt>
<pdfrwt beam="1">  1       -2 0.12736635E-01 0.13532778E+03</pdfrwt>
<totfact> 0.63408741E+03</totfact>
</mgrwt>
</event>
<event>
 6    1  0.4705246E-006  0.1268632E+03  0.7546771E-02  0.1246876E+00
         -2   -1    0    0    0  501 -0.00000000000E+00  0.00000000000E+00  0.32853695798E+02  0.32853695798E+02  0.00000000000E+00 0.  1.
          2   -1    0    0  501    0  0.00000000000E+00 -0.00000000000E+00 -0.37709320684E+03  0.37709320684E+03  0.00000000000E+00 0. -1.
          5    1    1    2  502    0 -0.60197044757E+02 -0.16211496917E+02 -0.10143362649E+03  0.11915270627E+03  0.47000000000E+01 0. -1.
         -5    1    1    2    0  502  0.52553723344E+02  0.36381534518E+02 -0.12033073959E+03  0.13633446659E+03  0.47000000000E+01 0. -1.
        -11    1    1    2    0    0  0.28028222607E+02 -0.42677613861E+02 -0.11066781317E+03  0.12187831989E+03  0.00000000000E+00 0. -1.
         11    1    1    2    0    0 -0.20384901195E+02  0.22507576260E+02 -0.11807331798E+02  0.32581409883E+02  0.00000000000E+00 0.  1.
<mgrwt>
<rscale>  0 0.11773794E+03</rscale>
<asrwt>0</asrwt>
<pdfrwt beam="2">  1        2 0.58014340E-01 0.12686316E+03</pdfrwt>
<pdfrwt beam="1">  1       -2 0.50544147E-02 0.12686316E+03</pdfrwt>
<totfact> 0.15353425E+04</totfact>
</mgrwt>
</event>
<event>
 6    1  0.4705246E-006  0.4485805E+03  0.7546771E-02  0.1028146E+00
          1   -1    0    0  501    0  0.00000000000E+00  0.00000000000E+00  0.86039061484E+03  0.86039061484E+03  0.00000000000E+00 0. -1.
         -1   -1    0    0    0  501 -0.00000000000E+00 -0.00000000000E+00 -0.58468937959E+02  0.58468937959E+02  0.00000000000E+00 0.  1.
          5    1    1    2  502    0 -0.12259383560E+03 -0.77579512627E+02  0.67199240469E+03  0.68749088086E+03  0.47000000000E+01 0.  1.
         -5    1    1    2    0  502 -0.22215805510E+01  0.24258343897E+02  0.33214077832E+02  0.41456816508E+02  0.47000000000E+01 0.  1.
        -11    1    1    2    0    0  0.48481817930E+02  0.41519736665E+02 -0.28550978285E+01  0.63894653815E+02  0.00000000000E+00 0.  1.
         11    1    1    2    0    0  0.76333598219E+02  0.11801432065E+02  0.99570292180E+02  0.12601720161E+03  0.00000000000E+00 0. -1.
<mgrwt>
<rscale>  0 0.44858054E+03</rscale>
<asrwt>0</asrwt>
<pdfrwt beam="1">  1        1 0.13236778E+00 0.44858054E+03</pdfrwt>
<pdfrwt beam="2">  1       -1 0.89952219E-02 0.44858054E+03</pdfrwt>
<totfact> 0.14759884E+03</totfact>
</mgrwt>
</event>
<event>
 6    1  0.4705246E-006  0.4562848E+03  0.7546771E-02  0.1047562E+00
         -2   -1    0    0    0  501 -0.00000000000E+00  0.00000000000E+00  0.16989954345E+03  0.16989954345E+03  0.00000000000E+00 0.  1.
          2   -1    0    0  501    0  0.00000000000E+00 -0.00000000000E+00 -0.87492831142E+03  0.87492831142E+03  0.00000000000E+00 0. -1.
          5    1    1    2  502    0 -0.20275078985E+02 -0.87386467195E+02 -0.61853953130E+03  0.62502857155E+03  0.47000000000E+01 0. -1.
         -5    1    1    2    0  502 -0.16508443381E+03 -0.36326947013E+02 -0.36055931950E+02  0.17290065817E+03  0.47000000000E+01 0.  1.
        -11    1    1    2    0    0  0.10904989960E+03  0.96760851742E+02 -0.72771923577E+02  0.16294261534E+03  0.00000000000E+00 0.  1.
         11    1    1    2    0    0  0.76309613196E+02  0.26952562465E+02  0.22338618856E+02  0.83956009802E+02  0.00000000000E+00 0. -1.
<mgrwt>
<rscale>  0 0.38926284E+03</rscale>
<asrwt>0</asrwt>
<pdfrwt beam="2">  1        2 0.13460436E+00 0.45628482E+03</pdfrwt>
<pdfrwt beam="1">  1       -2 0.26138391E-01 0.45628482E+03</pdfrwt>
<totfact> 0.41135244E+02</totfact>
</mgrwt>
</event>
<event>
 6    1  0.4705246E-006  0.2939716E+03  0.7546771E-02  0.1088294E+00
          1   -1    0    0  501    0  0.00000000000E+00  0.00000000000E+00  0.19833896064E+03  0.19833896064E+03  0.00000000000E+00 0. -1.
         -1   -1    0    0    0  501 -0.00000000000E+00 -0.00000000000E+00 -0.10892877289E+03  0.10892877289E+03  0.00000000000E+00 0.  1.
          5    1    1    2  502    0 -0.99816259659E+01  0.55540633145E+02 -0.21357225030E+02  0.60519549305E+02  0.47000000000E+01 0.  1.
         -5    1    1    2    0  502  0.33184950730E+01  0.31654158580E+02  0.11287865218E+03  0.11737409545E+03  0.47000000000E+01 0.  1.
        -11    1    1    2    0    0 -0.40903134296E+02 -0.46096752495E+02 -0.18622803568E+02  0.64380010862E+02  0.00000000000E+00 0.  1.
         11    1    1    2    0    0  0.47566265189E+02 -0.41098039230E+02  0.16511564166E+02  0.64994077913E+02  0.00000000000E+00 0. -1.
<mgrwt>
<rscale>  0 0.29397156E+03</rscale>
<asrwt>0</asrwt>
<pdfrwt beam="1">  1        1 0.30513686E-01 0.29397156E+03</pdfrwt>
<pdfrwt beam="2">  1       -1 0.16758273E-01 0.29397156E+03</pdfrwt>
<totfact> 0.39735535E+03</totfact>
</mgrwt>
</event>
<event>
 6    1  0.4705246E-006  0.1393099E+03  0.7546771E-02  0.1225270E+00
          2   -1    0    0  501    0  0.00000000000E+00  0.00000000000E+00  0.49127644473E+03  0.49127644473E+03  0.00000000000E+00 0. -1.
         -2   -1    0    0    0  501 -0.00000000000E+00 -0.00000000000E+00 -0.37464973491E+02  0.37464973491E+02  0.00000000000E+00 0.  1.
          5    1    1    2  502    0  0.20193850058E+02 -0.33594955815E+02  0.14540426926E+03  0.15066819225E+03  0.47000000000E+01 0.  1.
         -5    1    1    2    0  502 -0.76714941072E+02  0.57819750315E+02  0.20615957089E+03  0.22749102044E+03  0.47000000000E+01 0.  1.
        -11    1    1    2    0    0  0.45418814579E+02 -0.41390152487E+02  0.18205397350E+02  0.64089390177E+02  0.00000000000E+00 0.  1.
         11    1    1    2    0    0  0.11102276435E+02  0.17165357986E+02  0.84042233735E+02  0.86492815355E+02  0.00000000000E+00 0. -1.
<mgrwt>
<rscale>  0 0.13148383E+03</rscale>
<asrwt>0</asrwt>
<pdfrwt beam="1">  1        2 0.75580987E-01 0.13930993E+03</pdfrwt>
<pdfrwt beam="2">  1       -2 0.57638424E-02 0.13930993E+03</pdfrwt>
<totfact> 0.95431602E+03</totfact>
</mgrwt>
</event>
<event>
 6    1  0.4705246E-006  0.1136885E+03  0.7546771E-02  0.1263681E+00
          2   -1    0    0  501    0  0.00000000000E+00  0.00000000000E+00  0.47785682671E+03  0.47785682671E+03  0.00000000000E+00 0. -1.
         -2   -1    0    0    0  501 -0.00000000000E+00 -0.00000000000E+00 -0.26674568343E+02  0.26674568343E+02  0.00000000000E+00 0.  1.
          5    1    1    2  502    0 -0.45983774536E+02  0.66794194721E+01  0.19444002189E+03  0.19997033349E+03  0.47000000000E+01 0. -1.
         -5    1    1    2    0  502  0.57171730938E+02 -0.26158209321E+02  0.14872285529E+03  0.16153462917E+03  0.47000000000E+01 0.  1.
        -11    1    1    2    0    0 -0.43889595029E+02  0.28229373311E+01  0.93928751070E+02  0.10371535954E+03  0.00000000000E+00 0. -1.
         11    1    1    2    0    0  0.32701638626E+02  0.16655852518E+02  0.14090630115E+02  0.39311072854E+02  0.00000000000E+00 0.  1.
<mgrwt>
<rscale>  0 0.10833680E+03</rscale>
<asrwt>0</asrwt>
<pdfrwt beam="1">  1        2 0.73516429E-01 0.11368851E+03</pdfrwt>
<pdfrwt beam="2">  1       -2 0.41037801E-02 0.11368851E+03</pdfrwt>
<totfact> 0.16100423E+04</totfact>
</mgrwt>
</event>
<event>
 6    1  0.4705246E-006  0.1875017E+03  0.7546771E-02  0.1165493E+00
          1   -1    0    0  501    0  0.00000000000E+00  0.00000000000E+00  0.26803400811E+03  0.26803400811E+03  0.00000000000E+00 0. -1.
         -1   -1    0    0    0  501 -0.00000000000E+00 -0.00000000000E+00 -0.12445162366E+03  0.12445162366E+03  0.00000000000E+00 0.  1.
          5    1    1    2  502    0  0.11409164584E+03 -0.29241288507E+02  0.39555043222E+02  0.12433281163E+03  0.47000000000E+01 0.  1.
         -5    1    1    2    0  502  0.24057055376E+02  0.50479370993E+02  0.81147060762E+02  0.98660246703E+02  0.47000000000E+01 0.  1.
        -11    1    1    2    0    0 -0.98181852950E+02  0.30254104349E+02  0.12695146896E+02  0.10351885738E+03  0.00000000000E+00 0. -1.
         11    1    1    2    0    0 -0.39966848262E+02 -0.51492186835E+02  0.10185133573E+02  0.65973716061E+02  0.00000000000E+00 0.  1.
<mgrwt>
<rscale>  0 0.18240774E+03</rscale>
<asrwt>0</asrwt>
<pdfrwt beam="1">  1        1 0.41236001E-01 0.18750175E+03</pdfrwt>
<pdfrwt beam="2">  1       -1 0.19146404E-01 0.18750175E+03</pdfrwt>
<totfact> 0.21603832E+03</totfact>
</mgrwt>
</event>
<event>
 6    1  0.4705246E-006  0.2915497E+03  0.7546771E-02  0.1089543E+00
         -3   -1    0    0    0  501 -0.00000000000E+00  0.00000000000E+00  0.14223926866E+03  0.14223926866E+03  0.00000000000E+00 0.  1.
          3   -1    0    0  501    0  0.00000000000E+00 -0.00000000000E+00 -0.14939829523E+03  0.14939829523E+03  0.00000000000E+00 0. -1.
          5    1    1    2  502    0 -0.10555744454E+03 -0.17371424591E+02 -0.67417262241E+02  0.12653583579E+03  0.47000000000E+01 0.  1.
         -5    1    1    2    0  502  0.18213770178E+02  0.16358960757E+02  0.21290253154E+02  0.32782951370E+02  0.47000000000E+01 0.  1.
        -11    1    1    2    0    0  0.47254478875E+02  0.36063194712E+02 -0.96381311379E+01  0.60219875111E+02  0.00000000000E+00 0. -1.
         11    1    1    2    0    0  0.40089195491E+02 -0.35050730877E+02  0.48606113657E+02  0.72098901621E+02  0.00000000000E+00 0.  1.
<mgrwt>
<rscale>  0 0.29154968E+03</rscale>
<asrwt>0</asrwt>
<pdfrwt beam="2">  1        3 0.22984353E-01 0.29154968E+03</pdfrwt>
<pdfrwt beam="1">  1       -3 0.21882964E-01 0.29154968E+03</pdfrwt>
<totfact> 0.85517324E+02</totfact>
</mgrwt>
</event>
<event>
 6    1  0.4705246E-006  0.1811457E+03  0.7546771E-02  0.1175638E+00
         -1   -1    0    0    0  501 -0.00000000000E+00  0.00000000000E+00  0.61339678809E+03  0.61339678809E+03  0.00000000000E+00 0.  1.
          1   -1    0    0  501    0  0.00000000000E+00 -0.00000000000E+00 -0.80423339490E+02  0.80423339490E+02  0.00000000000E+00 0. -1.
          5    1    1    2  502    0  0.92055349588E+02  0.88627677293E+02  0.14851986057E+02  0.12873120857E+03  0.47000000000E+01 0. -1.
         -5    1    1    2    0  502 -0.44878986305E+02  0.16673285787E+02  0.33929444014E+02  0.58867809895E+02  0.47000000000E+01 0.  1.
        -11    1    1    2    0    0 -0.36917714214E+02  0.47056959554E+01  0.12437021189E+03  0.12981914652E+03  0.00000000000E+00 0. -1.
         11    1    1    2    0    0 -0.10258649069E+02 -0.11000665904E+03  0.35982180664E+03  0.37640196260E+03  0.00000000000E+00 0.  1.
<mgrwt>
<rscale>  0 0.17213637E+03</rscale>
<asrwt>0</asrwt>
<pdfrwt beam="2">  1        1 0.12372822E-01 0.18114570E+03</pdfrwt>
<pdfrwt beam="1">  1       -1 0.94368734E-01 0.18114570E+03</pdfrwt>
<totfact> 0.55171056E+02</totfact>
</mgrwt>
</event>
<event>
 6    1  0.4705246E-006  0.3943877E+03  0.7546771E-02  0.1045741E+00
          2   -1    0    0  501    0  0.00000000000E+00  0.00000000000E+00  0.98300530817E+03  0.98300530817E+03  0.00000000000E+00 0. -1.
         -2   -1    0    0    0  501 -0.00000000000E+00 -0.00000000000E+00 -0.39557681539E+02  0.39557681539E+02  0.00000000000E+00 0.  1.
          5    1    1    2  502    0 -0.12617273034E+03  0.10997759522E+03  0.39998834323E+03  0.43362125646E+03  0.47000000000E+01 0. -1.
         -5    1    1    2    0  502  0.24978544753E+02  0.18034920229E+02  0.15754127554E+03  0.16059430109E+03  0.47000000000E+01 0. -1.
        -11    1    1    2    0    0  0.80453142887E+02 -0.46051430616E+02  0.26546471281E+03  0.28118491462E+03  0.00000000000E+00 0. -1.
         11    1    1    2    0    0  0.20741042702E+02 -0.81961084833E+02  0.12045329505E+03  0.14716251754E+03  0.00000000000E+00 0.  1.
<mgrwt>
<rscale>  0 0.39438768E+03</rscale>
<asrwt>0</asrwt>
<pdfrwt beam="1">  1        2 0.15123157E+00 0.39438768E+03</pdfrwt>
<pdfrwt beam="2">  1       -2 0.60857979E-02 0.39438768E+03</pdfrwt>
<totfact> 0.39120845E+03</totfact>
</mgrwt>
</event>
<event>
 6    1  0.4705246E-006  0.1380822E+03  0.7546771E-02  0.1235095E+00
         -2   -1    0    0    0  501 -0.00000000000E+00  0.00000000000E+00  0.35833513938E+02  0.35833513938E+02  0.00000000000E+00 0.  1.
          2   -1    0    0  501    0  0.00000000000E+00 -0.00000000000E+00 -0.41901384457E+03  0.41901384457E+03  0.00000000000E+00 0. -1.
          5    1    1    2  502    0  0.55690158215E+02 -0.15593814351E+02 -0.28578270866E+03  0.29161345534E+03  0.47000000000E+01 0. -1.
         -5    1    1    2    0  502 -0.34970026669E+02  0.74904111308E+01 -0.14463141964E+02  0.38862340377E+02  0.47000000000E+01 0.  1.
        -11    1    1    2    0    0  0.25694674686E+02 -0.71228619302E+01 -0.68389691908E+02  0.73403688113E+02  0.00000000000E+00 0.  1.
         11    1    1    2    0    0 -0.46414806233E+02  0.15226265150E+02 -0.14544788101E+02  0.50967874675E+02  0.00000000000E+00 0. -1.
<mgrwt>
<rscale>  0 0.12498368E+03</rscale>
<asrwt>0</asrwt>
<pdfrwt beam="2">  1        2 0.64463669E-01 0.13808215E+03</pdfrwt>
<pdfrwt beam="1">  1       -2 0.55128483E-02 0.13808215E+03</pdfrwt>
<totfact> 0.12121634E+04</totfact>
</mgrwt>
</event>
<event>
 6    1  0.4705246E-006  0.3054417E+03  0.7546771E-02  0.1082552E+00
          2   -1    0    0  501    0  0.00000000000E+00  0.00000000000E+00  0.61323040171E+02  0.61323040171E+02  0.00000000000E+00 0. -1.
         -2   -1    0    0    0  501 -0.00000000000E+00 -0.00000000000E+00 -0.38034083685E+03  0.38034083685E+03  0.00000000000E+00 0.  1.
          5    1    1    2  502    0 -0.29515644139E+02 -0.92770951622E+02 -0.10278047438E+03  0.14164582107E+03  0.47000000000E+01 0.  1.
         -5    1    1    2    0  502  0.29501709152E+01  0.32318375316E+02  0.57721539268E+00  0.32796403295E+02  0.47000000000E+01 0.  1.
        -11    1    1    2    0    0 -0.22874852131E+01  0.29604730084E+02  0.13819770981E+02  0.32751468698E+02  0.00000000000E+00 0. -1.
         11    1    1    2    0    0  0.28852958437E+02  0.30847846222E+02 -0.23063430868E+03  0.23447018396E+03  0.00000000000E+00 0.  1.
<mgrwt>
<rscale>  0 0.30544169E+03</rscale>
<asrwt>0</asrwt>
<pdfrwt beam="1">  1        2 0.94343138E-02 0.30544169E+03</pdfrwt>
<pdfrwt beam="2">  1       -2 0.58513975E-01 0.30544169E+03</pdfrwt>
<totfact> 0.19237244E+03</totfact>
</mgrwt>
</event>
<event>
 6    1  0.4705246E-006  0.1587653E+03  0.7546771E-02  0.1198120E+00
          1   -1    0    0  501    0  0.00000000000E+00  0.00000000000E+00  0.54541251980E+03  0.54541251980E+03  0.00000000000E+00 0. -1.
         -1   -1    0    0    0  501 -0.00000000000E+00 -0.00000000000E+00 -0.62569815427E+02  0.62569815427E+02  0.00000000000E+00 0.  1.
          5    1    1    2  502    0  0.79872564973E+02 -0.13100683113E+02  0.14592626318E+03  0.16693657125E+03  0.47000000000E+01 0.  1.
         -5    1    1    2    0  502 -0.15999858769E+02 -0.61070272854E+02  0.29462294829E+03  0.30134754913E+03  0.47000000000E+01 0.  1.
        -11    1    1    2    0    0  0.30919165434E+01  0.57236336953E+02  0.41246580043E+02  0.70617551508E+02  0.00000000000E+00 0.  1.
         11    1    1    2    0    0 -0.66964622747E+02  0.16934619015E+02  0.10469128540E+01  0.69080663339E+02  0.00000000000E+00 0. -1.
<mgrwt>
<rscale>  0 0.15193071E+03</rscale>
<asrwt>0</asrwt>
<pdfrwt beam="1">  1        1 0.83909615E-01 0.15876527E+03</pdfrwt>
<pdfrwt beam="2">  1       -1 0.96261259E-02 0.15876527E+03</pdfrwt>
<totfact> 0.25527682E+03</totfact>
</mgrwt>
</event>
<event>
 6    1  0.4705246E-006  0.1410831E+03  0.7546771E-02  0.1222681E+00
         -2   -1    0    0    0  501 -0.00000000000E+00  0.00000000000E+00  0.12456446512E+03  0.12456446512E+03  0.00000000000E+00 0.  1.
          2   -1    0    0  501    0  0.00000000000E+00 -0.00000000000E+00 -0.18271041598E+03  0.18271041598E+03  0.00000000000E+00 0. -1.
          5    1    1    2  502    0 -0.79593392336E+02  0.55070798163E+02 -0.85410309187E+02  0.12917008876E+03  0.47000000000E+01 0.  1.
         -5    1    1    2    0  502  0.15820540465E+02 -0.40496524355E+02 -0.28993602367E+02  0.52468818966E+02  0.47000000000E+01 0.  1.
        -11    1    1    2    0    0  0.52440957426E+02 -0.38492960605E+02  0.70211926399E+02  0.95715602910E+02  0.00000000000E+00 0.  1.
         11    1    1    2    0    0  0.11331894445E+02  0.23918686798E+02 -0.13953965709E+02  0.29920370467E+02  0.00000000000E+00 0. -1.
<mgrwt>
<rscale>  0 0.13327118E+03</rscale>
<asrwt>0</asrwt>
<pdfrwt beam="2">  1        2 0.28109295E-01 0.14108309E+03</pdfrwt>
<pdfrwt beam="1">  1       -2 0.19163764E-01 0.14108309E+03</pdfrwt>
<totfact> 0.41018925E+03</totfact>
</mgrwt>
</event>
<event>
 6    1  0.4705246E-006  0.1309791E+03  0.7546771E-02  0.1240237E+00
         -1   -1    0    0    0  501 -0.00000000000E+00  0.00000000000E+00  0.26012747714E+02  0.26012747714E+02  0.00000000000E+00 0.  1.
          1   -1    0    0  501    0  0.00000000000E+00 -0.00000000000E+00 -0.50620979404E+03  0.50620979404E+03  0.00000000000E+00 0. -1.
          5    1    1    2  502    0  0.41943300553E+02 -0.64609214700E+02 -0.21032453629E+03  0.22403591598E+03  0.47000000000E+01 0.  1.
         -5    1    1    2    0  502 -0.43739804997E+02  0.25536674883E+02 -0.85479899603E+02  0.99469570932E+02  0.47000000000E+01 0.  1.
        -11    1    1    2    0    0 -0.24087723369E+02 -0.36308449159E+01 -0.83845935978E+01  0.25762431207E+02  0.00000000000E+00 0.  1.
         11    1    1    2    0    0  0.25884227813E+02  0.42703384732E+02 -0.17600801683E+03  0.18295462363E+03  0.00000000000E+00 0. -1.
<mgrwt>
<rscale>  0 0.12175062E+03</rscale>
<asrwt>0</asrwt>
<pdfrwt beam="2">  1        1 0.77878424E-01 0.13097914E+03</pdfrwt>
<pdfrwt beam="1">  1       -1 0.40019615E-02 0.13097914E+03</pdfrwt>
<totfact> 0.10363106E+04</totfact>
</mgrwt>
</event>
<event>
 6    1  0.4705246E-006  0.1458067E+03  0.7546771E-02  0.1214240E+00
         -1   -1    0    0    0  501 -0.00000000000E+00  0.00000000000E+00  0.43556704000E+02  0.43556704000E+02  0.00000000000E+00 0.  1.
          1   -1    0    0  501    0  0.00000000000E+00 -0.00000000000E+00 -0.41031452653E+03  0.41031452653E+03  0.00000000000E+00 0. -1.
          5    1    1    2  502    0  0.29175310844E+02 -0.20305816375E+02 -0.83619269796E+02  0.90982400620E+02  0.47000000000E+01 0.  1.
         -5    1    1    2    0  502 -0.48456577455E+02  0.92839869278E+02 -0.11808066089E+03  0.15790001172E+03  0.47000000000E+01 0.  1.
        -11    1    1    2    0    0  0.99690460772E+01  0.83387885707E+01  0.69144042618E+01  0.14721625617E+02  0.00000000000E+00 0.  1.
         11    1    1    2    0    0  0.93122205337E+01 -0.80872841474E+02 -0.17197229611E+03  0.19026719257E+03  0.00000000000E+00 0. -1.
<mgrwt>
<rscale>  0 0.13932493E+03</rscale>
<asrwt>0</asrwt>
<pdfrwt beam="2">  1        1 0.63125314E-01 0.14580670E+03</pdfrwt>
<pdfrwt beam="1">  1       -1 0.67010312E-02 0.14580670E+03</pdfrwt>
<totfact> 0.63658552E+03</totfact>
</mgrwt>
</event>
<event>
 6    1  0.4705246E-006  0.3245288E+03  0.7546771E-02  0.1073584E+00
          2   -1    0    0  501    0  0.00000000000E+00  0.00000000000E+00  0.69246019537E+03  0.69246019537E+03  0.00000000000E+00 0. -1.
         -2   -1    0    0    0  501 -0.00000000000E+00 -0.00000000000E+00 -0.38023458253E+02  0.38023458253E+02  0.00000000000E+00 0.  1.
          5    1    1    2  502    0 -0.49659459395E+02 -0.97371238285E+02  0.23787082498E+03  0.26182406178E+03  0.47000000000E+01 0. -1.
         -5    1    1    2    0  502  0.36946247388E+02 -0.69840393454E+01  0.24507371447E+03  0.24798592203E+03  0.47000000000E+01 0. -1.
        -11    1    1    2    0    0 -0.27300199589E+02  0.52555937815E+02  0.13084869889E+03  0.14362732852E+03  0.00000000000E+00 0. -1.
         11    1    1    2    0    0  0.40013411596E+02  0.51799339815E+02  0.40643498782E+02  0.77046341289E+02  0.00000000000E+00 0.  1.
<mgrwt>
<rscale>  0 0.32452877E+03</rscale>
<asrwt>0</asrwt>
<pdfrwt beam="1">  1        2 0.10653233E+00 0.32452877E+03</pdfrwt>
<pdfrwt beam="2">  1       -2 0.58497633E-02 0.32452877E+03</pdfrwt>
<totfact> 0.65568324E+03</totfact>
</mgrwt>
</event>
<event>
 6    1  0.4705246E-006  0.2462877E+03  0.7546771E-02  0.1144486E+00
         -1   -1    0    0    0  501 -0.00000000000E+00  0.00000000000E+00  0.47475720209E+02  0.47475720209E+02  0.00000000000E+00 0.  1.
          1   -1    0    0  501    0  0.00000000000E+00 -0.00000000000E+00 -0.74422232611E+03  0.74422232611E+03  0.00000000000E+00 0. -1.
          5    1    1    2  502    0 -0.21605860003E+02 -0.16676258068E+03 -0.35220248032E+03  0.39031429470E+03  0.47000000000E+01 0. -1.
         -5    1    1    2    0  502 -0.33675077054E+01  0.77403262885E+02 -0.18729417947E+03  0.20274073315E+03  0.47000000000E+01 0.  1.
        -11    1    1    2    0    0  0.38205606045E+01  0.30124811741E+02 -0.12366774259E+03  0.12734131899E+03  0.00000000000E+00 0. -1.
         11    1    1    2    0    0  0.21152807104E+02  0.59234506053E+02 -0.33582203522E+02  0.71301699483E+02  0.00000000000E+00 0.  1.
<mgrwt>
<rscale>  0 0.20635400E+03</rscale>
<asrwt>0</asrwt>
<pdfrwt beam="2">  1        1 0.11449573E+00 0.24628768E+03</pdfrwt>
<pdfrwt beam="1">  1       -1 0.73039575E-02 0.24628768E+03</pdfrwt>
<totfact> 0.25389062E+03</totfact>
</mgrwt>
</event>
<event>
 6    1  0.4705246E-006  0.1956444E+03  0.7546771E-02  0.1158217E+00
         -1   -1    0    0    0  501 -0.00000000000E+00  0.00000000000E+00  0.17519126670E+02  0.17519126670E+02  0.00000000000E+00 0. -1.
          1   -1    0    0  501    0  0.00000000000E+00 -0.00000000000E+00 -0.20357738934E+04  0.20357738934E+04  0.00000000000E+00 0.  1.
          5    1    1    2  502    0  0.37508572243E+02 -0.84342468603E+02 -0.37213179368E+03  0.38343800916E+03  0.47000000000E+01 0.  1.
         -5    1    1    2    0  502  0.81645755734E+02 -0.76133673949E+01 -0.88807303682E+03  0.89186310694E+03  0.47000000000E+01 0.  1.
        -11    1    1    2    0    0 -0.78842103872E+01  0.57930454317E+02 -0.23632006221E+03  0.24344459352E+03  0.00000000000E+00 0. -1.
         11    1    1    2    0    0 -0.11127011759E+03  0.34025381681E+02 -0.52172987405E+03  0.53454731048E+03  0.00000000000E+00 0.  1.
<mgrwt>
<rscale>  0 0.19027070E+03</rscale>
<asrwt>0</asrwt>
<pdfrwt beam="2">  1        1 0.31319573E+00 0.19564438E+03</pdfrwt>
<pdfrwt beam="1">  1       -1 0.26952524E-02 0.19564438E+03</pdfrwt>
<totfact> 0.14198919E+03</totfact>
</mgrwt>
</event>
<event>
 6    1  0.4705246E-006  0.1293814E+03  0.7546771E-02  0.1241181E+00
          2   -1    0    0  501    0  0.00000000000E+00  0.00000000000E+00  0.26842803227E+03  0.26842803227E+03  0.00000000000E+00 0. -1.
         -2   -1    0    0    0  501 -0.00000000000E+00 -0.00000000000E+00 -0.54580333181E+02  0.54580333181E+02  0.00000000000E+00 0.  1.
          5    1    1    2  502    0 -0.42056962651E+02 -0.33234600783E+02  0.23321954955E+02  0.58645804450E+02  0.47000000000E+01 0.  1.
         -5    1    1    2    0  502  0.49116353682E+02  0.63947543829E+00  0.14821534632E+03  0.15621364861E+03  0.47000000000E+01 0.  1.
        -11    1    1    2    0    0 -0.28317234323E+02  0.15119479256E+02  0.64991941747E+02  0.72487356861E+02  0.00000000000E+00 0. -1.
         11    1    1    2    0    0  0.21257843292E+02  0.17475646089E+02 -0.22681543932E+02  0.35661555530E+02  0.00000000000E+00 0.  1.
<mgrwt>
<rscale>  0 0.12116891E+03</rscale>
<asrwt>0</asrwt>
<pdfrwt beam="1">  1        2 0.41296620E-01 0.12938137E+03</pdfrwt>
<pdfrwt beam="2">  1       -2 0.83969745E-02 0.12938137E+03</pdfrwt>
<totfact> 0.10177912E+04</totfact>
</mgrwt>
</event>
<event>
 6    1  0.4705246E-006  0.1250274E+03  0.7546771E-02  0.1250870E+00
         -1   -1    0    0    0  501 -0.00000000000E+00  0.00000000000E+00  0.24016435903E+03  0.24016435903E+03  0.00000000000E+00 0.  1.
          1   -1    0    0  501    0  0.00000000000E+00 -0.00000000000E+00 -0.54314238753E+02  0.54314238753E+02  0.00000000000E+00 0. -1.
          5    1    1    2  502    0 -0.12784969747E+02 -0.59169000024E+02  0.11498557919E+02  0.61795896705E+02  0.47000000000E+01 0.  1.
         -5    1    1    2    0  502  0.10234635532E+02  0.58998249832E+02  0.46860797895E+02  0.76181136951E+02  0.47000000000E+01 0.  1.
        -11    1    1    2    0    0 -0.27557357889E+02 -0.18485020696E+02  0.11334636668E+02  0.35065338332E+02  0.00000000000E+00 0. -1.
         11    1    1    2    0    0  0.30107692104E+02  0.18655770888E+02  0.11615612779E+03  0.12143622580E+03  0.00000000000E+00 0.  1.
<mgrwt>
<rscale>  0 0.11540833E+03</rscale>
<asrwt>0</asrwt>
<pdfrwt beam="2">  1        1 0.83560368E-02 0.12502739E+03</pdfrwt>
<pdfrwt beam="1">  1       -1 0.36948362E-01 0.12502739E+03</pdfrwt>
<totfact> 0.55112084E+03</totfact>
</mgrwt>
</event>
<event>
 6    1  0.4705246E-006  0.3019652E+03  0.7546771E-02  0.1085820E+00
          2   -1    0    0  501    0  0.00000000000E+00  0.00000000000E+00  0.23424156925E+03  0.23424156925E+03  0.00000000000E+00 0. -1.
         -2   -1    0    0    0  501 -0.00000000000E+00 -0.00000000000E+00 -0.42146268371E+03  0.42146268371E+03  0.00000000000E+00 0.  1.
          5    1    1    2  502    0 -0.23375649000E+02 -0.15922352296E+03  0.36947749669E+02  0.16518407137E+03  0.47000000000E+01 0.  1.
         -5    1    1    2    0  502  0.78839745572E+02 -0.10999933346E+03 -0.21803758754E+02  0.13716068220E+03  0.47000000000E+01 0.  1.
        -11    1    1    2    0    0  0.23481323652E+02  0.95200605013E+02 -0.78849715132E+02  0.12582450211E+03  0.00000000000E+00 0.  1.
         11    1    1    2    0    0 -0.78945420224E+02  0.17402225141E+03 -0.12351539025E+03  0.22753499728E+03  0.00000000000E+00 0. -1.
<mgrwt>
<rscale>  0 0.29884451E+03</rscale>
<asrwt>0</asrwt>
<pdfrwt beam="1">  1        2 0.36037165E-01 0.30196525E+03</pdfrwt>
<pdfrwt beam="2">  1       -2 0.64840413E-01 0.30196525E+03</pdfrwt>
<totfact> 0.32324590E+02</totfact>
</mgrwt>
</event>
<event>
 6    1  0.4705246E-006  0.3191007E+03  0.7546771E-02  0.1076064E+00
         -2   -1    0    0    0  501 -0.00000000000E+00  0.00000000000E+00  0.50896191253E+03  0.50896191253E+03  0.00000000000E+00 0.  1.
          2   -1    0    0  501    0  0.00000000000E+00 -0.00000000000E+00 -0.50016136109E+02  0.50016136109E+02  0.00000000000E+00 0. -1.
          5    1    1    2  502    0 -0.28961151630E+02  0.27268537452E+02  0.43749896428E+02  0.59316649231E+02  0.47000000000E+01 0.  1.
         -5    1    1    2    0  502  0.11911640237E+03  0.21018501140E+02  0.10448981242E+03  0.15990842881E+03  0.47000000000E+01 0.  1.
        -11    1    1    2    0    0 -0.46062400240E+02  0.21297884279E+02  0.16188839467E+03  0.16965611371E+03  0.00000000000E+00 0.  1.
         11    1    1    2    0    0 -0.44092850502E+02 -0.69584922871E+02  0.14881767291E+03  0.17009685689E+03  0.00000000000E+00 0. -1.
<mgrwt>
<rscale>  0 0.31910066E+03</rscale>
<asrwt>0</asrwt>
<pdfrwt beam="2">  1        2 0.76947905E-02 0.31910066E+03</pdfrwt>
<pdfrwt beam="1">  1       -2 0.78301829E-01 0.31910066E+03</pdfrwt>
<totfact> 0.13398210E+03</totfact>
</mgrwt>
</event>
<event>
 6    1  0.4705246E-006  0.1601208E+03  0.7546771E-02  0.1195810E+00
         -1   -1    0    0    0  501 -0.00000000000E+00  0.00000000000E+00  0.93719874141E+02  0.93719874141E+02  0.00000000000E+00 0.  1.
          1   -1    0    0  501    0  0.00000000000E+00 -0.00000000000E+00 -0.39155794406E+03  0.39155794406E+03  0.00000000000E+00 0. -1.
          5    1    1    2  502    0  0.42377595197E+02  0.10149778656E+03 -0.14002215690E+03  0.17811781403E+03  0.47000000000E+01 0.  1.
         -5    1    1    2    0  502  0.77242865558E+01 -0.14876868518E+02 -0.16928162904E+03  0.17017445680E+03  0.47000000000E+01 0.  1.
        -11    1    1    2    0    0 -0.52026811037E+02 -0.10269709653E+03  0.22619050891E+02  0.11732478069E+03  0.00000000000E+00 0.  1.
         11    1    1    2    0    0  0.19249292845E+01  0.16076178480E+02 -0.11153334874E+02  0.19660766671E+02  0.00000000000E+00 0. -1.
<mgrwt>
<rscale>  0 0.15385899E+03</rscale>
<asrwt>0</asrwt>
<pdfrwt beam="2">  1        1 0.60239684E-01 0.16012081E+03</pdfrwt>
<pdfrwt beam="1">  1       -1 0.14418442E-01 0.16012081E+03</pdfrwt>
<totfact> 0.20988304E+03</totfact>
</mgrwt>
</event>
<event>
 6    1  0.7884307E-006  0.3335437E+03  0.7546771E-02  0.1070830E+00
          1   -1    0    0  501    0  0.00000000000E+00  0.00000000000E+00  0.49420960637E+03  0.49420960637E+03  0.00000000000E+00 0. -1.
         -1   -1    0    0    0  501 -0.00000000000E+00 -0.00000000000E+00 -0.21867691840E+03  0.21867691840E+03  0.00000000000E+00 0.  1.
          5    1    1    2  502    0 -0.53203065688E+02  0.24543849294E+02 -0.94078498737E+01  0.59527845384E+02  0.47000000000E+01 0. -1.
         -5    1    1    2    0  502 -0.13123423089E+03  0.22367077201E+03  0.17476008142E+03  0.31275263974E+03  0.47000000000E+01 0. -1.
        -11    1    1    2    0    0  0.10333344167E+03 -0.66149457536E+02  0.35021826507E+02  0.12759341375E+03  0.00000000000E+00 0. -1.
         11    1    1    2    0    0  0.81103854909E+02 -0.18206516377E+03  0.75158629915E+02  0.21301262589E+03  0.00000000000E+00 0.  1.
<mgrwt>
<rscale>  0 0.33069472E+03</rscale>
<asrwt>0</asrwt>
<pdfrwt beam="1">  1        1 0.76032247E-01 0.33354370E+03</pdfrwt>
<pdfrwt beam="2">  1       -1 0.33642603E-01 0.33354370E+03</pdfrwt>
<totfact> 0.38543820E+02</totfact>
</mgrwt>
</event>
<event>
 6    1  0.4705246E-006  0.1254182E+03  0.7546771E-02  0.1249267E+00
         -2   -1    0    0    0  501 -0.00000000000E+00  0.00000000000E+00  0.29916845758E+02  0.29916845758E+02  0.00000000000E+00 0. -1.
          2   -1    0    0  501    0  0.00000000000E+00 -0.00000000000E+00 -0.39829098558E+03  0.39829098558E+03  0.00000000000E+00 0.  1.
          5    1    1    2  502    0 -0.31107146566E+02  0.51210045223E+02 -0.11905412891E+03  0.13336453393E+03  0.47000000000E+01 0. -1.
         -5    1    1    2    0  502  0.41062539722E+02 -0.48648161245E+02 -0.88052442306E+02  0.10875706118E+03  0.47000000000E+01 0. -1.
        -11    1    1    2    0    0 -0.27729331748E+02  0.10383636815E+02 -0.16140369780E+03  0.16409719503E+03  0.00000000000E+00 0.  1.
         11    1    1    2    0    0  0.17773938592E+02 -0.12945520793E+02  0.13612919602E+00  0.21989041198E+02  0.00000000000E+00 0. -1.
<mgrwt>
<rscale>  0 0.11633606E+03</rscale>
<asrwt>0</asrwt>
<pdfrwt beam="2">  1        2 0.61275539E-01 0.12541824E+03</pdfrwt>
<pdfrwt beam="1">  1       -2 0.46025914E-02 0.12541824E+03</pdfrwt>
<totfact> 0.16647795E+04</totfact>
</mgrwt>
</event>
<event>
 6    1  0.4705246E-006  0.1796247E+03  0.7546771E-02  0.1174373E+00
          1   -1    0    0  501    0  0.00000000000E+00  0.00000000000E+00  0.52183970925E+03  0.52183970925E+03  0.00000000000E+00 0. -1.
         -1   -1    0    0    0  501 -0.00000000000E+00 -0.00000000000E+00 -0.71220021148E+02  0.71220021148E+02  0.00000000000E+00 0.  1.
          5    1    1    2  502    0  0.15000097497E+03  0.11614581176E+02  0.30419951825E+03  0.33940334101E+03  0.47000000000E+01 0. -1.
         -5    1    1    2    0  502 -0.26820119173E+02  0.64240965992E+01  0.78986496826E+02  0.83794656694E+02  0.47000000000E+01 0.  1.
        -11    1    1    2    0    0 -0.12432225212E+03 -0.35811262434E+02  0.36938493491E+02  0.13454709655E+03  0.00000000000E+00 0.  1.
         11    1    1    2    0    0  0.11413963190E+01  0.17772584659E+02  0.30495179541E+02  0.35314636148E+02  0.00000000000E+00 0. -1.
<mgrwt>
<rscale>  0 0.17337562E+03</rscale>
<asrwt>0</asrwt>
<pdfrwt beam="1">  1        1 0.80283030E-01 0.17962467E+03</pdfrwt>
<pdfrwt beam="2">  1       -1 0.10956927E-01 0.17962467E+03</pdfrwt>
<totfact> 0.22265743E+03</totfact>
</mgrwt>
</event>
<event>
 6    1  0.4705246E-006  0.1825019E+03  0.7546771E-02  0.1193547E+00
         -1   -1    0    0    0  501 -0.00000000000E+00  0.00000000000E+00  0.21374356615E+02  0.21374356615E+02  0.00000000000E+00 0.  1.
          1   -1    0    0  501    0  0.00000000000E+00 -0.00000000000E+00 -0.21357415553E+04  0.21357415553E+04  0.00000000000E+00 0. -1.
          5    1    1    2  502    0  0.20864917323E+02 -0.33414994478E+02 -0.19932293092E+04  0.19936241059E+04  0.47000000000E+01 0. -1.
         -5    1    1    2    0  502 -0.68809843807E+01  0.50431933432E+01 -0.20112894035E+01  0.99457041082E+01  0.47000000000E+01 0.  1.
        -11    1    1    2    0    0  0.33530512508E+02  0.13846822296E+02 -0.87310964461E+02  0.94547523880E+02  0.00000000000E+00 0. -1.
         11    1    1    2    0    0 -0.47514445451E+02  0.14524978839E+02 -0.31815635608E+02  0.58998577999E+02  0.00000000000E+00 0.  1.
<mgrwt>
<rscale>  0 0.15577806E+03</rscale>
<asrwt>0</asrwt>
<pdfrwt beam="2">  1        1 0.32857571E+00 0.18250188E+03</pdfrwt>
<pdfrwt beam="1">  1       -1 0.32883617E-02 0.18250188E+03</pdfrwt>
<totfact> 0.91556770E+02</totfact>
</mgrwt>
</event>
<event>
 6    1  0.4705246E-006  0.1354397E+03  0.7546771E-02  0.1232365E+00
          1   -1    0    0  501    0  0.00000000000E+00  0.00000000000E+00  0.26780367669E+02  0.26780367669E+02  0.00000000000E+00 0. -1.
         -1   -1    0    0    0  501 -0.00000000000E+00 -0.00000000000E+00 -0.53820895735E+03  0.53820895735E+03  0.00000000000E+00 0.  1.
          5    1    1    2  502    0 -0.33354265540E+02 -0.75439109427E+02 -0.12086576773E+03  0.14640420100E+03  0.47000000000E+01 0.  1.
         -5    1    1    2    0  502  0.17667355641E+02  0.25724777785E+02 -0.19117550767E+03  0.19376290764E+03  0.47000000000E+01 0.  1.
        -11    1    1    2    0    0  0.13763455955E+02  0.76134142817E+02 -0.15021940035E+03  0.16897250860E+03  0.00000000000E+00 0. -1.
         11    1    1    2    0    0  0.19234539440E+01 -0.26419811175E+02 -0.49167913934E+02  0.55849707772E+02  0.00000000000E+00 0.  1.
<mgrwt>
<rscale>  0 0.12674643E+03</rscale>
<asrwt>0</asrwt>
<pdfrwt beam="1">  1        1 0.41200567E-02 0.13543967E+03</pdfrwt>
<pdfrwt beam="2">  1       -1 0.82801374E-01 0.13543967E+03</pdfrwt>
<totfact> 0.31869825E+03</totfact>
</mgrwt>
</event>
<event>
 6    1  0.4705246E-006  0.1443054E+03  0.7546771E-02  0.1217363E+00
         -1   -1    0    0    0  501 -0.00000000000E+00  0.00000000000E+00  0.12657805356E+03  0.12657805356E+03  0.00000000000E+00 0.  1.
          1   -1    0    0  501    0  0.00000000000E+00 -0.00000000000E+00 -0.13928395472E+03  0.13928395472E+03  0.00000000000E+00 0. -1.
          5    1    1    2  502    0  0.67799957567E+01 -0.44807001534E+02 -0.26058497557E+02  0.52485912623E+02  0.47000000000E+01 0.  1.
         -5    1    1    2    0  502 -0.78424880698E+02  0.52944837524E+02 -0.34342190391E+01  0.94802434533E+02  0.47000000000E+01 0.  1.
        -11    1    1    2    0    0  0.25619749423E+02  0.33826600545E+02 -0.19271480325E+02  0.46604725284E+02  0.00000000000E+00 0. -1.
         11    1    1    2    0    0  0.46025135518E+02 -0.41964436536E+02  0.36058295754E+02  0.71968935840E+02  0.00000000000E+00 0.  1.
<mgrwt>
<rscale>  0 0.13704392E+03</rscale>
<asrwt>0</asrwt>
<pdfrwt beam="2">  1        1 0.21428301E-01 0.14430536E+03</pdfrwt>
<pdfrwt beam="1">  1       -1 0.19473547E-01 0.14430536E+03</pdfrwt>
<totfact> 0.47208948E+03</totfact>
</mgrwt>
</event>
<event>
 6    1  0.4705246E-006  0.3119296E+03  0.7546771E-02  0.1081865E+00
          1   -1    0    0  501    0  0.00000000000E+00  0.00000000000E+00  0.46428633948E+03  0.46428633948E+03  0.00000000000E+00 0. -1.
         -1   -1    0    0    0  501 -0.00000000000E+00 -0.00000000000E+00 -0.20651480846E+03  0.20651480846E+03  0.00000000000E+00 0.  1.
          5    1    1    2  502    0  0.52284800201E+02  0.24293459963E+03  0.12532823337E+03  0.27835261111E+03  0.47000000000E+01 0. -1.
         -5    1    1    2    0  502 -0.35207005966E+02  0.35968928295E+02  0.81543690191E+02  0.95941442984E+02  0.47000000000E+01 0.  1.
        -11    1    1    2    0    0  0.17482072414E+02 -0.70617181688E+02  0.44492251927E+02  0.85275844686E+02  0.00000000000E+00 0. -1.
         11    1    1    2    0    0 -0.34559866649E+02 -0.20828634624E+03  0.64073555269E+01  0.21123124915E+03  0.00000000000E+00 0.  1.
<mgrwt>
<rscale>  0 0.30685088E+03</rscale>
<asrwt>0</asrwt>
<pdfrwt beam="1">  1        1 0.71428667E-01 0.31192955E+03</pdfrwt>
<pdfrwt beam="2">  1       -1 0.31771509E-01 0.31192955E+03</pdfrwt>
<totfact> 0.46309223E+02</totfact>
</mgrwt>
</event>
<event>
 6    1  0.4705246E-006  0.2449846E+03  0.7546771E-02  0.1119124E+00
         -1   -1    0    0    0  501 -0.00000000000E+00  0.00000000000E+00  0.64934862764E+02  0.64934862764E+02  0.00000000000E+00 0.  1.
          1   -1    0    0  501    0  0.00000000000E+00 -0.00000000000E+00 -0.10375221858E+04  0.10375221858E+04  0.00000000000E+00 0. -1.
          5    1    1    2  502    0 -0.11299913934E+03  0.15945628909E+02 -0.43824985919E+03  0.45288861506E+03  0.47000000000E+01 0.  1.
         -5    1    1    2    0  502 -0.55479428278E+02  0.11056654887E+03 -0.28495446529E+03  0.31068322449E+03  0.47000000000E+01 0.  1.
        -11    1    1    2    0    0  0.11762733299E+03 -0.89692277446E+02 -0.10487201122E+03  0.18132576440E+03  0.00000000000E+00 0.  1.
         11    1    1    2    0    0  0.50851234636E+02 -0.36819900335E+02 -0.14451098735E+03  0.15755944462E+03  0.00000000000E+00 0. -1.
<mgrwt>
<rscale>  0 0.24100733E+03</rscale>
<asrwt>0</asrwt>
<pdfrwt beam="2">  1        1 0.15961880E+00 0.24498461E+03</pdfrwt>
<pdfrwt beam="1">  1       -1 0.99899790E-02 0.24498461E+03</pdfrwt>
<totfact> 0.91793341E+02</totfact>
</mgrwt>
</event>
<event>
 6    1  0.4705246E-006  0.1402234E+03  0.7546771E-02  0.1223975E+00
          2   -1    0    0  501    0  0.00000000000E+00  0.00000000000E+00  0.85636538628E+03  0.85636538628E+03  0.00000000000E+00 0. -1.
         -2   -1    0    0    0  501 -0.00000000000E+00 -0.00000000000E+00 -0.18659980406E+02  0.18659980406E+02  0.00000000000E+00 0.  1.
          5    1    1    2  502    0 -0.18216306525E+02  0.49597621855E+02  0.80097559981E+02  0.96070115187E+02  0.47000000000E+01 0.  1.
         -5    1    1    2    0  502 -0.41673897680E+02 -0.28390570244E+02  0.42923138638E+03  0.43220875891E+03  0.47000000000E+01 0.  1.
        -11    1    1    2    0    0 -0.20779855846E+02 -0.17754180863E+02  0.51066998196E+02  0.57921081239E+02  0.00000000000E+00 0.  1.
         11    1    1    2    0    0  0.80670060051E+02 -0.34528707474E+01  0.27730946132E+03  0.28882541135E+03  0.00000000000E+00 0. -1.
<mgrwt>
<rscale>  0 0.13237376E+03</rscale>
<asrwt>0</asrwt>
<pdfrwt beam="1">  1        2 0.13174849E+00 0.14022337E+03</pdfrwt>
<pdfrwt beam="2">  1       -2 0.28707669E-02 0.14022337E+03</pdfrwt>
<totfact> 0.14064982E+04</totfact>
</mgrwt>
</event>
<event>
 6    1  0.4705246E-006  0.1445275E+03  0.7546771E-02  0.1217285E+00
          2   -1    0    0  501    0  0.00000000000E+00  0.00000000000E+00  0.12632692568E+03  0.12632692568E+03  0.00000000000E+00 0. -1.
         -2   -1    0    0    0  501 -0.00000000000E+00 -0.00000000000E+00 -0.13579231343E+03  0.13579231343E+03  0.00000000000E+00 0.  1.
          5    1    1    2  502    0  0.12971895075E+02  0.20089806810E+02  0.48339208038E+02  0.54135380605E+02  0.47000000000E+01 0. -1.
         -5    1    1    2    0  502 -0.75667788924E+02  0.16322601794E+02 -0.46463008274E+02  0.90404329254E+02  0.47000000000E+01 0. -1.
        -11    1    1    2    0    0  0.66257787192E+01  0.12334098673E+02  0.29603052816E+02  0.32747086431E+02  0.00000000000E+00 0. -1.
         11    1    1    2    0    0  0.56070115129E+02 -0.48746507277E+02 -0.40944640328E+02  0.84832442815E+02  0.00000000000E+00 0.  1.
<mgrwt>
<rscale>  0 0.13710030E+03</rscale>
<asrwt>0</asrwt>
<pdfrwt beam="1">  1        2 0.19434912E-01 0.14452753E+03</pdfrwt>
<pdfrwt beam="2">  1       -2 0.20891125E-01 0.14452753E+03</pdfrwt>
<totfact> 0.53515821E+03</totfact>
</mgrwt>
</event>
<event>
 6    1  0.4705246E-006  0.2585449E+03  0.7546771E-02  0.1110266E+00
         -1   -1    0    0    0  501 -0.00000000000E+00  0.00000000000E+00  0.14881956760E+03  0.14881956760E+03  0.00000000000E+00 0.  1.
          1   -1    0    0  501    0  0.00000000000E+00 -0.00000000000E+00 -0.49131047774E+03  0.49131047774E+03  0.00000000000E+00 0. -1.
          5    1    1    2  502    0 -0.96192708451E+02 -0.19448222172E+03 -0.30482387830E+03  0.37418719714E+03  0.47000000000E+01 0.  1.
         -5    1    1    2    0  502  0.22091026038E+01 -0.11397574333E+02  0.11369005619E+02  0.16915351719E+02  0.47000000000E+01 0.  1.
        -11    1    1    2    0    0  0.95506852475E+02  0.12914141620E+03 -0.60067730694E+02  0.17148526619E+03  0.00000000000E+00 0.  1.
         11    1    1    2    0    0 -0.15232466280E+01  0.76738379857E+02  0.11031693235E+02  0.77542230294E+02  0.00000000000E+00 0. -1.
<mgrwt>
<rscale>  0 0.25486897E+03</rscale>
<asrwt>0</asrwt>
<pdfrwt beam="2">  1        1 0.75586228E-01 0.25854485E+03</pdfrwt>
<pdfrwt beam="1">  1       -1 0.22895318E-01 0.25854485E+03</pdfrwt>
<totfact> 0.74817666E+02</totfact>
</mgrwt>
</event>
<event>
 6    1  0.4705246E-006  0.4010265E+03  0.7546771E-02  0.1044254E+00
          1   -1    0    0  501    0  0.00000000000E+00  0.00000000000E+00  0.17900315104E+04  0.17900315104E+04  0.00000000000E+00 0. -1.
         -1   -1    0    0    0  501 -0.00000000000E+00 -0.00000000000E+00 -0.87942971069E+02  0.87942971069E+02  0.00000000000E+00 0.  1.
          5    1    1    2  502    0 -0.13294598932E+03 -0.35398850228E+03  0.90803465479E+03  0.98363180109E+03  0.47000000000E+01 0. -1.
         -5    1    1    2    0  502 -0.69203613376E+01 -0.47485934516E+00 -0.66718149969E+00  0.84054758101E+01  0.47000000000E+01 0. -1.
        -11    1    1    2    0    0  0.31469111020E+02  0.17700403214E+03  0.43056526633E+03  0.46659102103E+03  0.00000000000E+00 0.  1.
         11    1    1    2    0    0  0.10839723964E+03  0.17745932949E+03  0.36415579976E+03  0.41934618357E+03  0.00000000000E+00 0. -1.
<mgrwt>
<rscale>  0 0.39863338E+03</rscale>
<asrwt>0</asrwt>
<pdfrwt beam="1">  1        1 0.27538944E+00 0.40102647E+03</pdfrwt>
<pdfrwt beam="2">  1       -1 0.13529689E-01 0.40102647E+03</pdfrwt>
<totfact> 0.17154716E+02</totfact>
</mgrwt>
</event>
<event>
 6    1  0.4705246E-006  0.3291833E+03  0.7546771E-02  0.1072735E+00
          2   -1    0    0  501    0  0.00000000000E+00  0.00000000000E+00  0.87630243076E+03  0.87630243076E+03  0.00000000000E+00 0. -1.
         -2   -1    0    0    0  501 -0.00000000000E+00 -0.00000000000E+00 -0.12818825222E+03  0.12818825222E+03  0.00000000000E+00 0.  1.
          5    1    1    2  502    0  0.44909721264E+02  0.18860088719E+03  0.42224397927E+03  0.46464959458E+03  0.47000000000E+01 0.  1.
         -5    1    1    2    0  502  0.42147342646E+01  0.11193784593E+03  0.87825835381E+02  0.14241949549E+03  0.47000000000E+01 0.  1.
        -11    1    1    2    0    0  0.29727496630E+01 -0.13314088077E+03  0.15212834972E+03  0.20218399086E+03  0.00000000000E+00 0. -1.
         11    1    1    2    0    0 -0.52097205191E+02 -0.16739785235E+03  0.85916014175E+02  0.19523760205E+03  0.00000000000E+00 0.  1.
<mgrwt>
<rscale>  0 0.32641356E+03</rscale>
<asrwt>0</asrwt>
<pdfrwt beam="1">  1        2 0.13481576E+00 0.32918333E+03</pdfrwt>
<pdfrwt beam="2">  1       -2 0.19721270E-01 0.32918333E+03</pdfrwt>
<totfact> 0.67868166E+02</totfact>
</mgrwt>
</event>
<event>
 6    1  0.4705246E-006  0.2693848E+03  0.7546771E-02  0.1101632E+00
         -2   -1    0    0    0  501 -0.00000000000E+00  0.00000000000E+00  0.49805280643E+02  0.49805280643E+02  0.00000000000E+00 0. -1.
          2   -1    0    0  501    0  0.00000000000E+00 -0.00000000000E+00 -0.36425940200E+03  0.36425940200E+03  0.00000000000E+00 0.  1.
          5    1    1    2  502    0  0.28965584959E+02  0.53262409424E+02 -0.72425512187E+02  0.94569731866E+02  0.47000000000E+01 0. -1.
         -5    1    1    2    0  502 -0.32199306483E+02 -0.50316163331E+02 -0.13409009632E+03  0.14686985927E+03  0.47000000000E+01 0. -1.
        -11    1    1    2    0    0  0.64282573993E+01  0.45876652056E+02  0.77933476488E+01  0.46975801905E+02  0.00000000000E+00 0. -1.
         11    1    1    2    0    0 -0.31945358751E+01 -0.48822898150E+02 -0.11573186050E+03  0.12564928960E+03  0.00000000000E+00 0.  1.
<mgrwt>
<rscale>  0 0.26938479E+03</rscale>
<asrwt>0</asrwt>
<pdfrwt beam="2">  1        2 0.56039907E-01 0.26938479E+03</pdfrwt>
<pdfrwt beam="1">  1       -2 0.76623510E-02 0.26938479E+03</pdfrwt>
<totfact> 0.88769664E+03</totfact>
</mgrwt>
</event>
<event>
 6    1  0.4705246E-006  0.1612169E+03  0.7546771E-02  0.1193686E+00
         -4   -1    0    0    0  501 -0.00000000000E+00  0.00000000000E+00  0.65381960061E+02  0.65381960061E+02  0.00000000000E+00 0. -1.
          4   -1    0    0  501    0  0.00000000000E+00 -0.00000000000E+00 -0.40368389877E+03  0.40368389877E+03  0.00000000000E+00 0.  1.
          5    1    1    2  502    0 -0.85952903613E+01 -0.62566414410E+02 -0.27952098785E+02  0.69223154038E+02  0.47000000000E+01 0.  1.
         -5    1    1    2    0  502  0.14216182729E+02 -0.39102334906E+02 -0.23894621617E+03  0.24258704968E+03  0.47000000000E+01 0.  1.
        -11    1    1    2    0    0  0.42800925693E+02  0.62015596262E+02 -0.25169346818E+02  0.79444001908E+02  0.00000000000E+00 0. -1.
         11    1    1    2    0    0 -0.48421818061E+02  0.39653153054E+02 -0.46234276927E+02  0.77811653204E+02  0.00000000000E+00 0.  1.
<mgrwt>
<rscale>  0 0.15565941E+03</rscale>
<asrwt>0</asrwt>
<pdfrwt beam="2">  1        4 0.62105217E-01 0.16121691E+03</pdfrwt>
<pdfrwt beam="1">  1       -4 0.10058763E-01 0.16121691E+03</pdfrwt>
<totfact> 0.31816185E+02</totfact>
</mgrwt>
</event>
<event>
 6    1  0.4705246E-006  0.1294117E+03  0.7546771E-02  0.1242332E+00
          1   -1    0    0  501    0  0.00000000000E+00  0.00000000000E+00  0.11543926353E+03  0.11543926353E+03  0.00000000000E+00 0. -1.
         -1   -1    0    0    0  501 -0.00000000000E+00 -0.00000000000E+00 -0.11145376376E+03  0.11145376376E+03  0.00000000000E+00 0.  1.
          5    1    1    2  502    0 -0.11539478131E+02  0.18225073471E+02 -0.52452386180E+02  0.56909187963E+02  0.47000000000E+01 0.  1.
         -5    1    1    2    0  502  0.12202524207E+02 -0.51720630071E+02  0.49159623820E+02  0.72544357369E+02  0.47000000000E+01 0.  1.
        -11    1    1    2    0    0 -0.10190314880E+02 -0.13117797292E+02  0.37542038234E+02  0.41052694892E+02  0.00000000000E+00 0. -1.
         11    1    1    2    0    0  0.95272688048E+01  0.46613353893E+02 -0.30263776100E+02  0.56386787068E+02  0.00000000000E+00 0.  1.
<mgrwt>
<rscale>  0 0.12046477E+03</rscale>
<asrwt>0</asrwt>
<pdfrwt beam="1">  1        1 0.17759887E-01 0.12941166E+03</pdfrwt>
<pdfrwt beam="2">  1       -1 0.17146733E-01 0.12941166E+03</pdfrwt>
<totfact> 0.72903984E+03</totfact>
</mgrwt>
</event>
<event>
 6    1  0.4705246E-006  0.1311822E+03  0.7546771E-02  0.1239679E+00
          1   -1    0    0  501    0  0.00000000000E+00  0.00000000000E+00  0.39990685741E+03  0.39990685741E+03  0.00000000000E+00 0. -1.
         -1   -1    0    0    0  501 -0.00000000000E+00 -0.00000000000E+00 -0.34587467597E+02  0.34587467597E+02  0.00000000000E+00 0.  1.
          5    1    1    2  502    0 -0.61133110602E+02  0.43209244164E+02  0.23227159727E+03  0.24408293855E+03  0.47000000000E+01 0.  1.
         -5    1    1    2    0  502  0.30909512640E+02 -0.17337555974E+02  0.21844907358E+02  0.41896047502E+02  0.47000000000E+01 0.  1.
        -11    1    1    2    0    0  0.17199433601E+01  0.19111416375E+02 -0.57309562830E+01  0.20026190375E+02  0.00000000000E+00 0. -1.
         11    1    1    2    0    0  0.28503654601E+02 -0.44983104566E+02  0.11693384147E+03  0.12848914858E+03  0.00000000000E+00 0.  1.
<mgrwt>
<rscale>  0 0.12209583E+03</rscale>
<asrwt>0</asrwt>
<pdfrwt beam="1">  1        1 0.61524129E-01 0.13118225E+03</pdfrwt>
<pdfrwt beam="2">  1       -1 0.53211491E-02 0.13118225E+03</pdfrwt>
<totfact> 0.92086958E+03</totfact>
</mgrwt>
</event>
<event>
 6    1  0.4705246E-006  0.1166843E+03  0.7546771E-02  0.1270234E+00
         -1   -1    0    0    0  501 -0.00000000000E+00  0.00000000000E+00  0.76968557751E+01  0.76968557751E+01  0.00000000000E+00 0.  1.
          1   -1    0    0  501    0  0.00000000000E+00 -0.00000000000E+00 -0.13382800755E+04  0.13382800755E+04  0.00000000000E+00 0. -1.
          5    1    1    2  502    0 -0.24598068092E+02  0.56496428665E+02 -0.50016853489E+03  0.50397178958E+03  0.47000000000E+01 0. -1.
         -5    1    1    2    0  502  0.21903859313E+02 -0.49911958539E+02 -0.49490598830E+03  0.49792068637E+03  0.47000000000E+01 0.  1.
        -11    1    1    2    0    0 -0.14112482041E+02 -0.37438366144E+02 -0.14801316722E+03  0.15332544172E+03  0.00000000000E+00 0.  1.
         11    1    1    2    0    0  0.16806690820E+02  0.30853896018E+02 -0.18749552936E+03  0.19075901364E+03  0.00000000000E+00 0. -1.
<mgrwt>
<rscale>  0 0.10494204E+03</rscale>
<asrwt>0</asrwt>
<pdfrwt beam="2">  1        1 0.20588916E+00 0.11668430E+03</pdfrwt>
<pdfrwt beam="1">  1       -1 0.11841321E-02 0.11668430E+03</pdfrwt>
<totfact> 0.12958811E+04</totfact>
</mgrwt>
</event>
<event>
 6    1  0.4705246E-006  0.3428699E+03  0.7546771E-02  0.1065580E+00
          2   -1    0    0  501    0  0.00000000000E+00  0.00000000000E+00  0.20767968083E+04  0.20767968083E+04  0.00000000000E+00 0.  1.
         -2   -1    0    0    0  501 -0.00000000000E+00 -0.00000000000E+00 -0.14151572519E+02  0.14151572519E+02  0.00000000000E+00 0. -1.
          5    1    1    2  502    0  0.67453685430E+01 -0.93083485969E+01  0.12964324940E+02  0.17952968321E+02  0.47000000000E+01 0.  1.
         -5    1    1    2    0  502  0.89364715764E+02  0.24834680303E+02  0.16265563538E+04  0.16292054738E+04  0.47000000000E+01 0.  1.
        -11    1    1    2    0    0 -0.55336921021E+02 -0.50769480613E+02  0.30233966220E+03  0.31152686294E+03  0.00000000000E+00 0. -1.
         11    1    1    2    0    0 -0.40773163286E+02  0.35243148906E+02  0.12078489483E+03  0.13226307576E+03  0.00000000000E+00 0.  1.
<mgrwt>
<rscale>  0 0.34286989E+03</rscale>
<asrwt>0</asrwt>
<pdfrwt beam="1">  1        2 0.31950696E+00 0.34286989E+03</pdfrwt>
<pdfrwt beam="2">  1       -2 0.21771666E-02 0.34286989E+03</pdfrwt>
<totfact> 0.46105976E+03</totfact>
</mgrwt>
</event>
<event>
 6    1  0.4705246E-006  0.1497491E+03  0.7546771E-02  0.1211431E+00
          2   -1    0    0  501    0  0.00000000000E+00  0.00000000000E+00  0.83509128727E+02  0.83509128727E+02  0.00000000000E+00 0. -1.
         -2   -1    0    0    0  501 -0.00000000000E+00 -0.00000000000E+00 -0.23995516732E+03  0.23995516732E+03  0.00000000000E+00 0.  1.
          5    1    1    2  502    0  0.82946205093E+02 -0.65244209819E+02 -0.58991082052E+02  0.12099139480E+03  0.47000000000E+01 0.  1.
         -5    1    1    2    0  502 -0.18297014560E+02  0.14080137543E+02  0.23103003833E+02  0.32998027231E+02  0.47000000000E+01 0.  1.
        -11    1    1    2    0    0 -0.37369202853E+02  0.70626590376E+02 -0.10648186186E+03  0.13312760606E+03  0.00000000000E+00 0.  1.
         11    1    1    2    0    0 -0.27279987681E+02 -0.19462518100E+02 -0.14076098519E+02  0.36347267961E+02  0.00000000000E+00 0. -1.
<mgrwt>
<rscale>  0 0.14142019E+03</rscale>
<asrwt>0</asrwt>
<pdfrwt beam="1">  1        2 0.12847558E-01 0.14974908E+03</pdfrwt>
<pdfrwt beam="2">  1       -2 0.36916179E-01 0.14974908E+03</pdfrwt>
<totfact> 0.31525841E+03</totfact>
</mgrwt>
</event>
<event>
 6    1  0.4705246E-006  0.4768696E+03  0.7546771E-02  0.1019999E+00
          3   -1    0    0  501    0  0.00000000000E+00  0.00000000000E+00  0.10821389937E+03  0.10821389937E+03  0.00000000000E+00 0. -1.
         -3   -1    0    0    0  501 -0.00000000000E+00 -0.00000000000E+00 -0.52535898456E+03  0.52535898456E+03  0.00000000000E+00 0.  1.
          5    1    1    2  502    0 -0.14593659505E+03 -0.73450233337E+02  0.55815506907E+01  0.16354103540E+03  0.47000000000E+01 0.  1.
         -5    1    1    2    0  502 -0.44465514122E+01  0.20483392141E+02 -0.35207234769E+02  0.41242945495E+02  0.47000000000E+01 0.  1.
        -11    1    1    2    0    0  0.12200264394E+03  0.18949008040E+02 -0.34860393547E+03  0.36982213814E+03  0.00000000000E+00 0.  1.
         11    1    1    2    0    0  0.28380502525E+02  0.34017833156E+02 -0.38915465637E+02  0.58966764893E+02  0.00000000000E+00 0. -1.
<mgrwt>
<rscale>  0 0.47686956E+03</rscale>
<asrwt>0</asrwt>
<pdfrwt beam="1">  1        3 0.16648292E-01 0.47686956E+03</pdfrwt>
<pdfrwt beam="2">  1       -3 0.80824460E-01 0.47686956E+03</pdfrwt>
<totfact> 0.11774973E+02</totfact>
</mgrwt>
</event>
<event>
 6    1  0.4705246E-006  0.1355832E+03  0.7546771E-02  0.1234594E+00
         -2   -1    0    0    0  501 -0.00000000000E+00  0.00000000000E+00  0.72029661331E+02  0.72029661331E+02  0.00000000000E+00 0.  1.
          2   -1    0    0  501    0  0.00000000000E+00 -0.00000000000E+00 -0.19200978247E+03  0.19200978247E+03  0.00000000000E+00 0. -1.
          5    1    1    2  502    0  0.41072529455E+02 -0.34331167884E+02 -0.45095606244E+02  0.70151874292E+02  0.47000000000E+01 0. -1.
         -5    1    1    2    0  502 -0.39449611452E+02  0.69349529888E+02 -0.34345936124E+02  0.86990588385E+02  0.47000000000E+01 0.  1.
        -11    1    1    2    0    0  0.12210074839E+02  0.22167429620E+02  0.12008744790E+02  0.28012333265E+02  0.00000000000E+00 0.  1.
         11    1    1    2    0    0 -0.13832992843E+02 -0.57185791624E+02 -0.52547323565E+02  0.78884647863E+02  0.00000000000E+00 0. -1.
<mgrwt>
<rscale>  0 0.12530448E+03</rscale>
<asrwt>0</asrwt>
<pdfrwt beam="2">  1        2 0.29539966E-01 0.13558317E+03</pdfrwt>
<pdfrwt beam="1">  1       -2 0.11081487E-01 0.13558317E+03</pdfrwt>
<totfact> 0.94712027E+03</totfact>
</mgrwt>
</event>
<event>
 6    1  0.4705246E-006  0.1642785E+03  0.7546771E-02  0.1190791E+00
         -1   -1    0    0    0  501 -0.00000000000E+00  0.00000000000E+00  0.20108590104E+03  0.20108590104E+03  0.00000000000E+00 0.  1.
          1   -1    0    0  501    0  0.00000000000E+00 -0.00000000000E+00 -0.13851930928E+03  0.13851930928E+03  0.00000000000E+00 0. -1.
          5    1    1    2  502    0 -0.42084721823E+02  0.49774117035E+02 -0.15777088194E+02  0.67227918676E+02  0.47000000000E+01 0. -1.
         -5    1    1    2    0  502  0.86342346802E+02  0.47976545351E+02 -0.19304485934E+02  0.10075466705E+03  0.47000000000E+01 0.  1.
        -11    1    1    2    0    0 -0.19846907852E+02 -0.78611543622E+02  0.11132634791E+03  0.13772156796E+03  0.00000000000E+00 0.  1.
         11    1    1    2    0    0 -0.24410717127E+02 -0.19139118765E+02 -0.13678182020E+02  0.33901056637E+02  0.00000000000E+00 0. -1.
<mgrwt>
<rscale>  0 0.15815920E+03</rscale>
<asrwt>0</asrwt>
<pdfrwt beam="2">  1        1 0.21310663E-01 0.16427852E+03</pdfrwt>
<pdfrwt beam="1">  1       -1 0.30936293E-01 0.16427852E+03</pdfrwt>
<totfact> 0.22329854E+03</totfact>
</mgrwt>
</event>
<event>
 6    1  0.4705246E-006  0.1906573E+03  0.7546771E-02  0.1164508E+00
         -2   -1    0    0    0  501 -0.00000000000E+00  0.00000000000E+00  0.24581460166E+02  0.24581460166E+02  0.00000000000E+00 0.  1.
          2   -1    0    0  501    0  0.00000000000E+00 -0.00000000000E+00 -0.13464122516E+04  0.13464122516E+04  0.00000000000E+00 0. -1.
          5    1    1    2  502    0  0.51023516935E+02 -0.10588815069E+03 -0.58171877479E+03  0.59349349000E+03  0.47000000000E+01 0. -1.
         -5    1    1    2    0  502 -0.65672831442E+02 -0.29055593640E+02 -0.28477492918E+03  0.29372776273E+03  0.47000000000E+01 0.  1.
        -11    1    1    2    0    0 -0.70242695467E+01  0.12328100439E+03 -0.43391644829E+03  0.45114413495E+03  0.00000000000E+00 0.  1.
         11    1    1    2    0    0  0.21673584054E+02  0.11662739939E+02 -0.21420639152E+02  0.32628324050E+02  0.00000000000E+00 0. -1.
<mgrwt>
<rscale>  0 0.18344759E+03</rscale>
<asrwt>0</asrwt>
<pdfrwt beam="2">  1        2 0.20714043E+00 0.19065732E+03</pdfrwt>
<pdfrwt beam="1">  1       -2 0.37817615E-02 0.19065732E+03</pdfrwt>
<totfact> 0.49089628E+03</totfact>
</mgrwt>
</event>
<event>
 6    1  0.4705246E-006  0.1443148E+03  0.7546771E-02  0.1217871E+00
          1   -1    0    0  501    0  0.00000000000E+00  0.00000000000E+00  0.57508197954E+03  0.57508197954E+03  0.00000000000E+00 0. -1.
         -1   -1    0    0    0  501 -0.00000000000E+00 -0.00000000000E+00 -0.29562548666E+02  0.29562548666E+02  0.00000000000E+00 0.  1.
          5    1    1    2  502    0  0.42923079747E+02 -0.11563061765E+02  0.53760516418E+02  0.69916938562E+02  0.47000000000E+01 0. -1.
         -5    1    1    2    0  502 -0.78167172801E+02 -0.51366277447E+02  0.23280421401E+03  0.25093523751E+03  0.47000000000E+01 0. -1.
        -11    1    1    2    0    0 -0.88389718202E+01  0.59155423866E+01 -0.38299767056E+01  0.11304414453E+02  0.00000000000E+00 0.  1.
         11    1    1    2    0    0  0.44083064874E+02  0.57013796826E+02  0.26278467715E+03  0.27248793768E+03  0.00000000000E+00 0. -1.
<mgrwt>
<rscale>  0 0.13667741E+03</rscale>
<asrwt>0</asrwt>
<pdfrwt beam="1">  1        1 0.88474142E-01 0.14431484E+03</pdfrwt>
<pdfrwt beam="2">  1       -1 0.45480848E-02 0.14431484E+03</pdfrwt>
<totfact> 0.72939580E+03</totfact>
</mgrwt>
</event>
<event>
 6    1  0.4705246E-006  0.1324630E+03  0.7546771E-02  0.1236838E+00
          3   -1    0    0  501    0  0.00000000000E+00  0.00000000000E+00  0.41276088274E+03  0.41276088274E+03  0.00000000000E+00 0. -1.
         -3   -1    0    0    0  501 -0.00000000000E+00 -0.00000000000E+00 -0.46426251405E+02  0.46426251405E+02  0.00000000000E+00 0.  1.
          5    1    1    2  502    0  0.12575407988E+02 -0.74547829111E+02  0.11036527213E+03  0.13385851861E+03  0.47000000000E+01 0.  1.
         -5    1    1    2    0  502  0.17962584360E+01  0.33141808891E+02  0.21243203797E+03  0.21506061191E+03  0.47000000000E+01 0.  1.
        -11    1    1    2    0    0 -0.53270687051E+01  0.58918431502E+02  0.60241066126E+02  0.84431897288E+02  0.00000000000E+00 0. -1.
         11    1    1    2    0    0 -0.90445977189E+01 -0.17512411282E+02 -0.16703744895E+02  0.25836106331E+02  0.00000000000E+00 0.  1.
<mgrwt>
<rscale>  0 0.12387485E+03</rscale>
<asrwt>0</asrwt>
<pdfrwt beam="1">  1        3 0.63501672E-01 0.13246304E+03</pdfrwt>
<pdfrwt beam="2">  1       -3 0.71425005E-02 0.13246304E+03</pdfrwt>
<totfact> 0.72399090E+02</totfact>
</mgrwt>
</event>
<event>
 6    1  0.4705246E-006  0.1364274E+03  0.7546771E-02  0.1229951E+00
          2   -1    0    0  501    0  0.00000000000E+00  0.00000000000E+00  0.10339497752E+04  0.10339497752E+04  0.00000000000E+00 0. -1.
         -2   -1    0    0    0  501 -0.00000000000E+00 -0.00000000000E+00 -0.27469753661E+02  0.27469753661E+02  0.00000000000E+00 0.  1.
          5    1    1    2  502    0 -0.87806278467E+02 -0.15477063555E+02  0.77442542570E+03  0.77955520138E+03  0.47000000000E+01 0.  1.
         -5    1    1    2    0  502  0.36076010686E+02 -0.22105095528E+01  0.12667411018E+03  0.13181344806E+03  0.47000000000E+01 0.  1.
        -11    1    1    2    0    0  0.44912275061E+02 -0.13089001590E+02  0.10871448507E+03  0.11835232857E+03  0.00000000000E+00 0. -1.
         11    1    1    2    0    0  0.68179927199E+01  0.30776574698E+02 -0.33339993962E+01  0.31698550863E+02  0.00000000000E+00 0.  1.
<mgrwt>
<rscale>  0 0.12833290E+03</rscale>
<asrwt>0</asrwt>
<pdfrwt beam="1">  1        2 0.15906917E+00 0.13642742E+03</pdfrwt>
<pdfrwt beam="2">  1       -2 0.42261167E-02 0.13642742E+03</pdfrwt>
<totfact> 0.61623082E+03</totfact>
</mgrwt>
</event>
<event>
 6    1  0.1242095E-005  0.3394420E+03  0.7546771E-02  0.1068195E+00
          3   -1    0    0  501    0  0.00000000000E+00  0.00000000000E+00  0.16376937652E+04  0.16376937652E+04  0.00000000000E+00 0. -1.
         -3   -1    0    0    0  501 -0.00000000000E+00 -0.00000000000E+00 -0.68774551970E+02  0.68774551970E+02  0.00000000000E+00 0.  1.
          5    1    1    2  502    0 -0.29364605367E+02  0.66204921062E+01  0.10651192234E+03  0.11078353020E+03  0.47000000000E+01 0. -1.
         -5    1    1    2    0  502 -0.41459127958E+00  0.30755898953E+03  0.77129940622E+03  0.83037194555E+03  0.47000000000E+01 0. -1.
        -11    1    1    2    0    0 -0.27135266694E+02 -0.11986515272E+03  0.31578285183E+03  0.33885511217E+03  0.00000000000E+00 0. -1.
         11    1    1    2    0    0  0.56914463340E+02 -0.19431432892E+03  0.37532503289E+03  0.42645772929E+03  0.00000000000E+00 0.  1.
<mgrwt>
<rscale>  0 0.33673573E+03</rscale>
<asrwt>0</asrwt>
<pdfrwt beam="1">  1        3 0.25195286E+00 0.33944204E+03</pdfrwt>
<pdfrwt beam="2">  1       -3 0.10580702E-01 0.33944204E+03</pdfrwt>
<totfact> 0.13503615E+01</totfact>
</mgrwt>
</event>
<event>
 6    1  0.4705246E-006  0.1808974E+03  0.7546771E-02  0.1173192E+00
         -1   -1    0    0    0  501 -0.00000000000E+00  0.00000000000E+00  0.97364935895E+02  0.97364935895E+02  0.00000000000E+00 0.  1.
          1   -1    0    0  501    0  0.00000000000E+00 -0.00000000000E+00 -0.29347162157E+03  0.29347162157E+03  0.00000000000E+00 0. -1.
          5    1    1    2  502    0 -0.27025385623E+02  0.50917171067E+02 -0.19602924243E+02  0.61067949174E+02  0.47000000000E+01 0. -1.
         -5    1    1    2    0  502  0.11137986158E+03  0.48978631291E+02 -0.76046209702E+02  0.14356007767E+03  0.47000000000E+01 0. -1.
        -11    1    1    2    0    0 -0.38390522430E+02  0.79461127303E+01 -0.19871042625E+02  0.43952602368E+02  0.00000000000E+00 0.  1.
         11    1    1    2    0    0 -0.45963953531E+02 -0.10784191509E+03 -0.80586509101E+02  0.14225592825E+03  0.00000000000E+00 0. -1.
<mgrwt>
<rscale>  0 0.17454250E+03</rscale>
<asrwt>0</asrwt>
<pdfrwt beam="2">  1        1 0.45149480E-01 0.18089741E+03</pdfrwt>
<pdfrwt beam="1">  1       -1 0.14979221E-01 0.18089741E+03</pdfrwt>
<totfact> 0.28497430E+03</totfact>
</mgrwt>
</event>
<event>
 6    1  0.4705246E-006  0.1747098E+03  0.7546771E-02  0.1179091E+00
          4   -1    0    0  501    0  0.00000000000E+00  0.00000000000E+00  0.35188768198E+02  0.35188768198E+02  0.00000000000E+00 0. -1.
         -4   -1    0    0    0  501 -0.00000000000E+00 -0.00000000000E+00 -0.77168770507E+03  0.77168770507E+03  0.00000000000E+00 0.  1.
          5    1    1    2  502    0  0.27454497690E+02 -0.35074252003E+02 -0.97446095812E+02  0.10724637143E+03  0.47000000000E+01 0. -1.
         -5    1    1    2    0  502  0.69331225114E+02  0.10946800303E+03 -0.24546186396E+03  0.27760345661E+03  0.47000000000E+01 0. -1.
        -11    1    1    2    0    0 -0.42880590737E+02 -0.86484532915E+02 -0.23327161922E+03  0.25245587303E+03  0.00000000000E+00 0. -1.
         11    1    1    2    0    0 -0.53905132066E+02  0.12090781889E+02 -0.16031935787E+03  0.16957077218E+03  0.00000000000E+00 0.  1.
<mgrwt>
<rscale>  0 0.16881333E+03</rscale>
<asrwt>0</asrwt>
<pdfrwt beam="1">  1        4 0.54136560E-02 0.17470982E+03</pdfrwt>
<pdfrwt beam="2">  1       -4 0.11872120E+00 0.17470982E+03</pdfrwt>
<totfact> 0.20837747E+02</totfact>
</mgrwt>
</event>
<event>
 6    1  0.4705246E-006  0.1484779E+03  0.7546771E-02  0.1211894E+00
          1   -1    0    0  501    0  0.00000000000E+00  0.00000000000E+00  0.16362740896E+03  0.16362740896E+03  0.00000000000E+00 0. -1.
         -1   -1    0    0    0  501 -0.00000000000E+00 -0.00000000000E+00 -0.11136226713E+03  0.11136226713E+03  0.00000000000E+00 0.  1.
          5    1    1    2  502    0  0.73716588721E+02  0.23119171154E+02  0.38999805646E+02  0.86670100773E+02  0.47000000000E+01 0. -1.
         -5    1    1    2    0  502 -0.26691368157E+01 -0.60184864574E+02 -0.18548199451E+02  0.63209713794E+02  0.47000000000E+01 0. -1.
        -11    1    1    2    0    0 -0.11744371253E+02 -0.50500412306E+00  0.50996244674E+02  0.52333567202E+02  0.00000000000E+00 0. -1.
         11    1    1    2    0    0 -0.59303080653E+02  0.37570697542E+02 -0.19182709046E+02  0.72776294321E+02  0.00000000000E+00 0.  1.
<mgrwt>
<rscale>  0 0.14107187E+03</rscale>
<asrwt>0</asrwt>
<pdfrwt beam="1">  1        1 0.25173448E-01 0.14847791E+03</pdfrwt>
<pdfrwt beam="2">  1       -1 0.17132656E-01 0.14847791E+03</pdfrwt>
<totfact> 0.47330080E+03</totfact>
</mgrwt>
</event>
<event>
 6    1  0.4705246E-006  0.1483723E+03  0.7546771E-02  0.1210231E+00
         -2   -1    0    0    0  501 -0.00000000000E+00  0.00000000000E+00  0.21215239177E+02  0.21215239177E+02  0.00000000000E+00 0.  1.
          2   -1    0    0  501    0  0.00000000000E+00 -0.00000000000E+00 -0.88899712623E+03  0.88899712623E+03  0.00000000000E+00 0. -1.
          5    1    1    2  502    0 -0.39258999317E+02  0.30607740457E+02 -0.41775020376E+03  0.42073201155E+03  0.47000000000E+01 0.  1.
         -5    1    1    2    0  502 -0.36085144910E+02 -0.39153683445E+01 -0.20493224506E+02  0.41946752474E+02  0.47000000000E+01 0.  1.
        -11    1    1    2    0    0  0.23019681349E+02  0.36525867601E+02 -0.16530407762E+03  0.17084929854E+03  0.00000000000E+00 0.  1.
         11    1    1    2    0    0  0.52324462878E+02 -0.63218239713E+02 -0.26423438117E+03  0.27668430284E+03  0.00000000000E+00 0. -1.
<mgrwt>
<rscale>  0 0.14232737E+03</rscale>
<asrwt>0</asrwt>
<pdfrwt beam="2">  1        2 0.13676880E+00 0.14837229E+03</pdfrwt>
<pdfrwt beam="1">  1       -2 0.32638826E-02 0.14837229E+03</pdfrwt>
<totfact> 0.11132268E+04</totfact>
</mgrwt>
</event>
<event>
 6    1  0.4705246E-006  0.1965618E+03  0.7546771E-02  0.1157685E+00
         -2   -1    0    0    0  501 -0.00000000000E+00  0.00000000000E+00  0.29148587972E+03  0.29148587972E+03  0.00000000000E+00 0.  1.
          2   -1    0    0  501    0  0.00000000000E+00 -0.00000000000E+00 -0.17009246405E+03  0.17009246405E+03  0.00000000000E+00 0. -1.
          5    1    1    2  502    0  0.28253886178E+02  0.51776372670E+02 -0.69119511257E+02  0.90987206174E+02  0.47000000000E+01 0.  1.
         -5    1    1    2    0  502 -0.65311496802E+02  0.95327459115E+02  0.50281975639E+01  0.11575961665E+03  0.47000000000E+01 0.  1.
        -11    1    1    2    0    0 -0.28535535890E+02 -0.49291056818E+02  0.62087935222E+02  0.84254357697E+02  0.00000000000E+00 0. -1.
         11    1    1    2    0    0  0.65593146515E+02 -0.97812774966E+02  0.12339679414E+03  0.17057716324E+03  0.00000000000E+00 0.  1.
<mgrwt>
<rscale>  0 0.19086367E+03</rscale>
<asrwt>0</asrwt>
<pdfrwt beam="2">  1        2 0.26168071E-01 0.19656183E+03</pdfrwt>
<pdfrwt beam="1">  1       -2 0.44843981E-01 0.19656183E+03</pdfrwt>
<totfact> 0.96916690E+02</totfact>
</mgrwt>
</event>
<event>
 6    1  0.4705246E-006  0.2668811E+03  0.7546771E-02  0.1103078E+00
         -1   -1    0    0    0  501 -0.00000000000E+00  0.00000000000E+00  0.47175999373E+02  0.47175999373E+02  0.00000000000E+00 0.  1.
          1   -1    0    0  501    0  0.00000000000E+00 -0.00000000000E+00 -0.37744575227E+03  0.37744575227E+03  0.00000000000E+00 0. -1.
          5    1    1    2  502    0 -0.65641958861E+02 -0.33159934388E+02 -0.68425986969E+02  0.10056169104E+03  0.47000000000E+01 0. -1.
         -5    1    1    2    0  502  0.15017274841E+02  0.18298961082E+02 -0.18801495544E+03  0.18955760071E+03  0.47000000000E+01 0. -1.
        -11    1    1    2    0    0  0.13930787041E+02 -0.37779768548E+02 -0.53962191667E+02  0.67329754705E+02  0.00000000000E+00 0. -1.
         11    1    1    2    0    0  0.36693896979E+02  0.52640741854E+02 -0.19866618822E+02  0.67172705185E+02  0.00000000000E+00 0.  1.
<mgrwt>
<rscale>  0 0.26688110E+03</rscale>
<asrwt>0</asrwt>
<pdfrwt beam="2">  1        1 0.58068577E-01 0.26688110E+03</pdfrwt>
<pdfrwt beam="1">  1       -1 0.72578461E-02 0.26688110E+03</pdfrwt>
<totfact> 0.64795975E+03</totfact>
</mgrwt>
</event>
<event>
 6    1  0.4705246E-006  0.1262870E+03  0.7546771E-02  0.1247769E+00
         -2   -1    0    0    0  501 -0.00000000000E+00  0.00000000000E+00  0.32471762391E+02  0.32471762391E+02  0.00000000000E+00 0.  1.
          2   -1    0    0  501    0  0.00000000000E+00 -0.00000000000E+00 -0.39133289403E+03  0.39133289403E+03  0.00000000000E+00 0. -1.
          5    1    1    2  502    0 -0.12928306227E+02  0.58535733128E+02 -0.11926124855E+03  0.13356237704E+03  0.47000000000E+01 0. -1.
         -5    1    1    2    0  502 -0.35033018303E+01 -0.65896393521E+02 -0.13129436986E+03  0.14702009849E+03  0.47000000000E+01 0. -1.
        -11    1    1    2    0    0 -0.37466775782E+02 -0.55356696294E+01 -0.50725654841E+02  0.63304778530E+02  0.00000000000E+00 0. -1.
         11    1    1    2    0    0  0.53898383840E+02  0.12896330023E+02 -0.57579858396E+02  0.79917402369E+02  0.00000000000E+00 0.  1.
<mgrwt>
<rscale>  0 0.11721180E+03</rscale>
<asrwt>0</asrwt>
<pdfrwt beam="2">  1        2 0.60205057E-01 0.12628701E+03</pdfrwt>
<pdfrwt beam="1">  1       -2 0.49956560E-02 0.12628701E+03</pdfrwt>
<totfact> 0.15015472E+04</totfact>
</mgrwt>
</event>
<event>
 6    1  0.4705246E-006  0.1214020E+03  0.7546771E-02  0.1250292E+00
         -1   -1    0    0    0  501 -0.00000000000E+00  0.00000000000E+00  0.30591540891E+02  0.30591540891E+02  0.00000000000E+00 0.  1.
          1   -1    0    0  501    0  0.00000000000E+00 -0.00000000000E+00 -0.10160572435E+04  0.10160572435E+04  0.00000000000E+00 0. -1.
          5    1    1    2  502    0  0.71594470081E+02  0.36419301453E+01 -0.37538381771E+03  0.38219645786E+03  0.47000000000E+01 0. -1.
         -5    1    1    2    0  502 -0.31040693841E+02 -0.17319199903E+02 -0.54211021615E+03  0.54329463077E+03  0.47000000000E+01 0.  1.
        -11    1    1    2    0    0 -0.60104530271E+01 -0.13742821276E+02  0.18662700749E+02  0.23943414156E+02  0.00000000000E+00 0.  1.
         11    1    1    2    0    0 -0.34543323213E+02  0.27420091034E+02 -0.86634369468E+02  0.97214281584E+02  0.00000000000E+00 0. -1.
<mgrwt>
<rscale>  0 0.11574148E+03</rscale>
<asrwt>0</asrwt>
<pdfrwt beam="2">  1        1 0.15631649E+00 0.12140203E+03</pdfrwt>
<pdfrwt beam="1">  1       -1 0.47063911E-02 0.12140203E+03</pdfrwt>
<totfact> 0.29451818E+03</totfact>
</mgrwt>
</event>
<event>
 6    1  0.4705246E-006  0.3395352E+03  0.7546771E-02  0.1066994E+00
          2   -1    0    0  501    0  0.00000000000E+00  0.00000000000E+00  0.90462859292E+03  0.90462859292E+03  0.00000000000E+00 0. -1.
         -2   -1    0    0    0  501 -0.00000000000E+00 -0.00000000000E+00 -0.31859527143E+02  0.31859527143E+02  0.00000000000E+00 0.  1.
          5    1    1    2  502    0 -0.18085226023E+02  0.13495076844E+02  0.27139779873E+02  0.35606883476E+02  0.47000000000E+01 0.  1.
         -5    1    1    2    0  502  0.13583466904E+03 -0.69449479265E+02  0.40130340719E+03  0.42934927752E+03  0.47000000000E+01 0.  1.
        -11    1    1    2    0    0 -0.31734578385E+02  0.11725965908E+02  0.27403220611E+02  0.43537549788E+02  0.00000000000E+00 0.  1.
         11    1    1    2    0    0 -0.86014864635E+02  0.44228436514E+02  0.41692265810E+03  0.42799440928E+03  0.00000000000E+00 0. -1.
<mgrwt>
<rscale>  0 0.33953521E+03</rscale>
<asrwt>0</asrwt>
<pdfrwt beam="1">  1        2 0.13917361E+00 0.33953521E+03</pdfrwt>
<pdfrwt beam="2">  1       -2 0.49014664E-02 0.33953521E+03</pdfrwt>
<totfact> 0.61127051E+03</totfact>
</mgrwt>
</event>
<event>
 6    1  0.4705246E-006  0.1501440E+03  0.7546771E-02  0.1217326E+00
         -2   -1    0    0    0  501 -0.00000000000E+00  0.00000000000E+00  0.87697992347E+02  0.87697992347E+02  0.00000000000E+00 0.  1.
          2   -1    0    0  501    0  0.00000000000E+00 -0.00000000000E+00 -0.18754432974E+03  0.18754432974E+03  0.00000000000E+00 0. -1.
          5    1    1    2  502    0  0.32260992658E+02 -0.15779412415E+02 -0.81917130793E+02  0.89567113500E+02  0.47000000000E+01 0.  1.
         -5    1    1    2    0  502 -0.40548068111E+02 -0.66977970845E+02  0.60246403043E+01  0.78667532673E+02  0.47000000000E+01 0.  1.
        -11    1    1    2    0    0 -0.22200990720E+02  0.33232092977E+02  0.78394268872E+01  0.40727295595E+02  0.00000000000E+00 0.  1.
         11    1    1    2    0    0  0.30488066173E+02  0.49525290282E+02 -0.31793273789E+02  0.66280380315E+02  0.00000000000E+00 0. -1.
<mgrwt>
<rscale>  0 0.13707048E+03</rscale>
<asrwt>0</asrwt>
<pdfrwt beam="2">  1        2 0.28852973E-01 0.15014402E+03</pdfrwt>
<pdfrwt beam="1">  1       -2 0.13491999E-01 0.15014402E+03</pdfrwt>
<totfact> 0.71412582E+03</totfact>
</mgrwt>
</event>
<event>
 6    1  0.4705246E-006  0.1592439E+03  0.7546771E-02  0.1197075E+00
         -1   -1    0    0    0  501 -0.00000000000E+00  0.00000000000E+00  0.65488384023E+02  0.65488384023E+02  0.00000000000E+00 0.  1.
          1   -1    0    0  501    0  0.00000000000E+00 -0.00000000000E+00 -0.34545494361E+03  0.34545494361E+03  0.00000000000E+00 0. -1.
          5    1    1    2  502    0 -0.87069892914E+02  0.16699538344E+02 -0.62642866536E+02  0.10865661306E+03  0.47000000000E+01 0.  1.
         -5    1    1    2    0  502 -0.40171137697E+01 -0.54588419087E+02 -0.13101017198E+03  0.14206261951E+03  0.47000000000E+01 0.  1.
        -11    1    1    2    0    0  0.62510872538E+02  0.14890783395E+02  0.23182053583E+01  0.64301778293E+02  0.00000000000E+00 0.  1.
         11    1    1    2    0    0  0.28576134146E+02  0.22998097348E+02 -0.88631726431E+02  0.95922316769E+02  0.00000000000E+00 0. -1.
<mgrwt>
<rscale>  0 0.15279914E+03</rscale>
<asrwt>0</asrwt>
<pdfrwt beam="2">  1        1 0.53146916E-01 0.15924395E+03</pdfrwt>
<pdfrwt beam="1">  1       -1 0.10075136E-01 0.15924395E+03</pdfrwt>
<totfact> 0.42820723E+03</totfact>
</mgrwt>
</event>
<event>
 6    1  0.4705246E-006  0.1459704E+03  0.7546771E-02  0.1216246E+00
         -2   -1    0    0    0  501 -0.00000000000E+00  0.00000000000E+00  0.12992193038E+03  0.12992193038E+03  0.00000000000E+00 0.  1.
          2   -1    0    0  501    0  0.00000000000E+00 -0.00000000000E+00 -0.14756683045E+03  0.14756683045E+03  0.00000000000E+00 0. -1.
          5    1    1    2  502    0  0.24043410366E+02  0.15722971462E+02 -0.88371929073E+02  0.93042921610E+02  0.47000000000E+01 0. -1.
         -5    1    1    2    0  502  0.51201120342E+02 -0.11131109624E+02  0.34097330550E+02  0.62691102051E+02  0.47000000000E+01 0. -1.
        -11    1    1    2    0    0 -0.90315131837E+02  0.14208498670E+02  0.33886866508E+02  0.97503970150E+02  0.00000000000E+00 0.  1.
         11    1    1    2    0    0  0.15070601129E+02 -0.18800360508E+02  0.27428319436E+01  0.24250767013E+02  0.00000000000E+00 0. -1.
<mgrwt>
<rscale>  0 0.13785414E+03</rscale>
<asrwt>0</asrwt>
<pdfrwt beam="2">  1        2 0.22702589E-01 0.14597039E+03</pdfrwt>
<pdfrwt beam="1">  1       -2 0.19987989E-01 0.14597039E+03</pdfrwt>
<totfact> 0.48455930E+03</totfact>
</mgrwt>
</event>
<event>
 6    1  0.4705246E-006  0.2396304E+03  0.7546771E-02  0.1122743E+00
          1   -1    0    0  501    0  0.00000000000E+00  0.00000000000E+00  0.14207871193E+04  0.14207871193E+04  0.00000000000E+00 0. -1.
         -1   -1    0    0    0  501 -0.00000000000E+00 -0.00000000000E+00 -0.38410990658E+02  0.38410990658E+02  0.00000000000E+00 0.  1.
          5    1    1    2  502    0 -0.10538489719E+03  0.13881117029E+03  0.72124151816E+03  0.74201478090E+03  0.47000000000E+01 0. -1.
         -5    1    1    2    0  502  0.19126187504E+02  0.46554500937E+02  0.83132066585E+02  0.97294208978E+02  0.47000000000E+01 0. -1.
        -11    1    1    2    0    0 -0.93618166261E+01 -0.79500381085E+02  0.24062665908E+03  0.25359247477E+03  0.00000000000E+00 0. -1.
         11    1    1    2    0    0  0.95620526309E+02 -0.10586529014E+03  0.33737588485E+03  0.36629664534E+03  0.00000000000E+00 0.  1.
<mgrwt>
<rscale>  0 0.23562315E+03</rscale>
<asrwt>0</asrwt>
<pdfrwt beam="1">  1        1 0.21858259E+00 0.23963038E+03</pdfrwt>
<pdfrwt beam="2">  1       -1 0.59093843E-02 0.23963038E+03</pdfrwt>
<totfact> 0.11075693E+03</totfact>
</mgrwt>
</event>
<event>
 6    1  0.4705246E-006  0.1254714E+03  0.7546771E-02  0.1245753E+00
         -1   -1    0    0    0  501 -0.00000000000E+00  0.00000000000E+00  0.30896647565E+02  0.30896647565E+02  0.00000000000E+00 0.  1.
          1   -1    0    0  501    0  0.00000000000E+00 -0.00000000000E+00 -0.43381175737E+03  0.43381175737E+03  0.00000000000E+00 0. -1.
          5    1    1    2  502    0 -0.10412959706E+02 -0.62287689823E+01  0.77389878577E+01  0.15139657392E+02  0.47000000000E+01 0.  1.
         -5    1    1    2    0  502  0.47073067987E+02 -0.11619769276E+02 -0.28576741884E+03  0.28988963493E+03  0.47000000000E+01 0.  1.
        -11    1    1    2    0    0  0.13299069054E+02  0.15315176562E+02  0.46581993040E+01  0.20811503828E+02  0.00000000000E+00 0.  1.
         11    1    1    2    0    0 -0.49959177335E+02  0.25333616962E+01 -0.12954487813E+03  0.13886760879E+03  0.00000000000E+00 0. -1.
<mgrwt>
<rscale>  0 0.11840414E+03</rscale>
<asrwt>0</asrwt>
<pdfrwt beam="2">  1        1 0.66740267E-01 0.12547135E+03</pdfrwt>
<pdfrwt beam="1">  1       -1 0.47533306E-02 0.12547135E+03</pdfrwt>
<totfact> 0.97836712E+03</totfact>
</mgrwt>
</event>
<event>
 6    1  0.4705246E-006  0.1440550E+03  0.7546771E-02  0.1218129E+00
         -2   -1    0    0    0  501 -0.00000000000E+00  0.00000000000E+00  0.23036591743E+02  0.23036591743E+02  0.00000000000E+00 0. -1.
          2   -1    0    0  501    0  0.00000000000E+00 -0.00000000000E+00 -0.74275958828E+03  0.74275958828E+03  0.00000000000E+00 0.  1.
          5    1    1    2  502    0  0.61794307464E+01 -0.57014621949E+02 -0.35304447082E+03  0.35770286671E+03  0.47000000000E+01 0. -1.
         -5    1    1    2    0  502  0.55196368362E+02  0.20178843203E+02 -0.85192912136E+02  0.10360379854E+03  0.47000000000E+01 0. -1.
        -11    1    1    2    0    0  0.96526997679E+01  0.40369455133E+02 -0.14168924219E+03  0.14764385823E+03  0.00000000000E+00 0.  1.
         11    1    1    2    0    0 -0.71028498876E+02 -0.35336763869E+01 -0.13979637140E+03  0.15684565655E+03  0.00000000000E+00 0. -1.
<mgrwt>
<rscale>  0 0.13649171E+03</rscale>
<asrwt>0</asrwt>
<pdfrwt beam="2">  1        2 0.11427070E+00 0.14405497E+03</pdfrwt>
<pdfrwt beam="1">  1       -2 0.35440912E-02 0.14405497E+03</pdfrwt>
<totfact> 0.12329388E+04</totfact>
</mgrwt>
</event>
<event>
 6    1  0.4705246E-006  0.2611860E+03  0.7546771E-02  0.1106433E+00
          2   -1    0    0  501    0  0.00000000000E+00  0.00000000000E+00  0.53224497161E+03  0.53224497161E+03  0.00000000000E+00 0.  1.
         -2   -1    0    0    0  501 -0.00000000000E+00 -0.00000000000E+00 -0.32042624764E+02  0.32042624764E+02  0.00000000000E+00 0. -1.
          5    1    1    2  502    0 -0.29064630474E+01 -0.28070093402E+02  0.14154306269E+02  0.31918835458E+02  0.47000000000E+01 0.  1.
         -5    1    1    2    0  502 -0.25101670581E+02  0.96170779919E+02  0.25732768212E+03  0.27589588391E+03  0.47000000000E+01 0.  1.
        -11    1    1    2    0    0  0.32591360986E+02 -0.29674129048E+02  0.20791526209E+03  0.21253589569E+03  0.00000000000E+00 0.  1.
         11    1    1    2    0    0 -0.45832273578E+01 -0.38426557469E+02  0.20805096367E+02  0.43936981312E+02  0.00000000000E+00 0. -1.
<mgrwt>
<rscale>  0 0.26118596E+03</rscale>
<asrwt>0</asrwt>
<pdfrwt beam="1">  1        2 0.81883835E-01 0.26118596E+03</pdfrwt>
<pdfrwt beam="2">  1       -2 0.49296350E-02 0.26118596E+03</pdfrwt>
<totfact> 0.11502623E+04</totfact>
</mgrwt>
</event>
<event>
 6    1  0.4705246E-006  0.2754344E+03  0.7546771E-02  0.1098209E+00
         -1   -1    0    0    0  501 -0.00000000000E+00  0.00000000000E+00  0.13783367709E+03  0.13783367709E+03  0.00000000000E+00 0.  1.
          1   -1    0    0  501    0  0.00000000000E+00 -0.00000000000E+00 -0.13760083147E+03  0.13760083147E+03  0.00000000000E+00 0. -1.
          5    1    1    2  502    0  0.62667831744E+02  0.84990713182E+02 -0.16203953271E+02  0.10693613311E+03  0.47000000000E+01 0. -1.
         -5    1    1    2    0  502  0.50680608235E+01 -0.41925140225E+02 -0.13172969349E+02  0.44486174761E+02  0.47000000000E+01 0. -1.
        -11    1    1    2    0    0 -0.46410087528E+02  0.11958919793E+02  0.41985700807E+02  0.63715861913E+02  0.00000000000E+00 0.  1.
         11    1    1    2    0    0 -0.21325805039E+02 -0.55024492750E+02 -0.12375932575E+02  0.60296338778E+02  0.00000000000E+00 0. -1.
<mgrwt>
<rscale>  0 0.27543441E+03</rscale>
<asrwt>0</asrwt>
<pdfrwt beam="2">  1        1 0.21169359E-01 0.27543441E+03</pdfrwt>
<pdfrwt beam="1">  1       -1 0.21205181E-01 0.27543441E+03</pdfrwt>
<totfact> 0.43166233E+03</totfact>
</mgrwt>
</event>
<event>
 6    1  0.4705246E-006  0.1402946E+03  0.7546771E-02  0.1221622E+00
         -2   -1    0    0    0  501 -0.00000000000E+00  0.00000000000E+00  0.22580157130E+02  0.22580157130E+02  0.00000000000E+00 0.  1.
          2   -1    0    0  501    0  0.00000000000E+00 -0.00000000000E+00 -0.85279025119E+03  0.85279025119E+03  0.00000000000E+00 0. -1.
          5    1    1    2  502    0  0.76824639144E+02 -0.23379986487E+02 -0.61167579756E+03  0.61694247728E+03  0.47000000000E+01 0. -1.
         -5    1    1    2    0  502  0.66535482368E+01  0.71601191105E+01 -0.23805775176E+00  0.10848210973E+02  0.47000000000E+01 0.  1.
        -11    1    1    2    0    0  0.11143127016E+02  0.16502974003E+02 -0.59343456205E+02  0.62595233245E+02  0.00000000000E+00 0. -1.
         11    1    1    2    0    0 -0.94621314397E+02 -0.28310662639E+00 -0.15895278254E+03  0.18498448682E+03  0.00000000000E+00 0.  1.
<mgrwt>
<rscale>  0 0.13401160E+03</rscale>
<asrwt>0</asrwt>
<pdfrwt beam="2">  1        2 0.13119850E+00 0.14029463E+03</pdfrwt>
<pdfrwt beam="1">  1       -2 0.34738703E-02 0.14029463E+03</pdfrwt>
<totfact> 0.10676549E+04</totfact>
</mgrwt>
</event>
<event>
 6    1  0.4705246E-006  0.1489980E+03  0.7546771E-02  0.1210677E+00
          2   -1    0    0  501    0  0.00000000000E+00  0.00000000000E+00  0.22330123457E+03  0.22330123457E+03  0.00000000000E+00 0. -1.
         -2   -1    0    0    0  501 -0.00000000000E+00 -0.00000000000E+00 -0.88844324426E+02  0.88844324426E+02  0.00000000000E+00 0.  1.
          5    1    1    2  502    0 -0.27451917276E+02  0.69545936207E+02  0.54403093353E+02  0.92585266492E+02  0.47000000000E+01 0. -1.
         -5    1    1    2    0  502 -0.51843356588E+02 -0.52609903627E+02  0.59520855682E+02  0.94975564453E+02  0.47000000000E+01 0. -1.
        -11    1    1    2    0    0  0.52422207548E+02  0.35930608927E+02  0.94302713876E+01  0.64249720004E+02  0.00000000000E+00 0. -1.
         11    1    1    2    0    0  0.26873066316E+02 -0.52866641507E+02  0.11102689726E+02  0.60335008052E+02  0.00000000000E+00 0.  1.
<mgrwt>
<rscale>  0 0.14198959E+03</rscale>
<asrwt>0</asrwt>
<pdfrwt beam="1">  1        2 0.34354036E-01 0.14899798E+03</pdfrwt>
<pdfrwt beam="2">  1       -2 0.13668358E-01 0.14899798E+03</pdfrwt>
<totfact> 0.57862314E+03</totfact>
</mgrwt>
</event>
<event>
 6    1  0.4705246E-006  0.2083661E+03  0.7546771E-02  0.1146502E+00
          2   -1    0    0  501    0  0.00000000000E+00  0.00000000000E+00  0.16955339430E+03  0.16955339430E+03  0.00000000000E+00 0. -1.
         -2   -1    0    0    0  501 -0.00000000000E+00 -0.00000000000E+00 -0.26057823756E+03  0.26057823756E+03  0.00000000000E+00 0.  1.
          5    1    1    2  502    0  0.48373598437E+02 -0.76811826309E+02  0.54444056607E+02  0.10595426837E+03  0.47000000000E+01 0.  1.
         -5    1    1    2    0  502 -0.37891858161E+02 -0.89567577535E+02 -0.34653999670E+02  0.10334956968E+03  0.47000000000E+01 0.  1.
        -11    1    1    2    0    0 -0.28173111986E+02  0.94920918168E+02 -0.10890522336E+03  0.14718713470E+03  0.00000000000E+00 0.  1.
         11    1    1    2    0    0  0.17691371710E+02  0.71458485677E+02 -0.19096768352E+01  0.73640659108E+02  0.00000000000E+00 0. -1.
<mgrwt>
<rscale>  0 0.20388469E+03</rscale>
<asrwt>0</asrwt>
<pdfrwt beam="1">  1        2 0.26085138E-01 0.20836614E+03</pdfrwt>
<pdfrwt beam="2">  1       -2 0.40088959E-01 0.20836614E+03</pdfrwt>
<totfact> 0.12088342E+03</totfact>
</mgrwt>
</event>
<event>
 6    1  0.4705246E-006  0.1455462E+03  0.7546771E-02  0.1216059E+00
          2   -1    0    0  501    0  0.00000000000E+00  0.00000000000E+00  0.53320250191E+03  0.53320250191E+03  0.00000000000E+00 0. -1.
         -2   -1    0    0    0  501 -0.00000000000E+00 -0.00000000000E+00 -0.33157681008E+02  0.33157681008E+02  0.00000000000E+00 0.  1.
          5    1    1    2  502    0  0.47616210257E+02 -0.58993470677E+02  0.10629922443E+03  0.13064895015E+03  0.47000000000E+01 0. -1.
         -5    1    1    2    0  502 -0.54354629970E+02 -0.15260845043E+02  0.21040674212E+03  0.21789999156E+03  0.47000000000E+01 0. -1.
        -11    1    1    2    0    0  0.41117410868E+02  0.61574227182E+02  0.15398488757E+03  0.17086068164E+03  0.00000000000E+00 0.  1.
         11    1    1    2    0    0 -0.34378991156E+02  0.12680088538E+02  0.29353966784E+02  0.46950559572E+02  0.00000000000E+00 0. -1.
<mgrwt>
<rscale>  0 0.13799010E+03</rscale>
<asrwt>0</asrwt>
<pdfrwt beam="1">  1        2 0.82031148E-01 0.14554620E+03</pdfrwt>
<pdfrwt beam="2">  1       -2 0.51011821E-02 0.14554620E+03</pdfrwt>
<totfact> 0.10513625E+04</totfact>
</mgrwt>
</event>
<event>
 6    1  0.4705246E-006  0.2170582E+03  0.7546771E-02  0.1139609E+00
          2   -1    0    0  501    0  0.00000000000E+00  0.00000000000E+00  0.29479453702E+03  0.29479453702E+03  0.00000000000E+00 0. -1.
         -2   -1    0    0    0  501 -0.00000000000E+00 -0.00000000000E+00 -0.14751344631E+03  0.14751344631E+03  0.00000000000E+00 0.  1.
          5    1    1    2  502    0 -0.68404029517E+02  0.49045578247E+02  0.92422192632E+02  0.12509409135E+03  0.47000000000E+01 0.  1.
         -5    1    1    2    0  502 -0.10705264687E+03 -0.22559704834E+02 -0.32848059308E+01  0.10955404801E+03  0.47000000000E+01 0.  1.
        -11    1    1    2    0    0  0.67340875710E+02 -0.32184977402E+02 -0.16137698378E+02  0.76361584718E+02  0.00000000000E+00 0.  1.
         11    1    1    2    0    0  0.10811580068E+03  0.56991039888E+01  0.74281402386E+02  0.13129825925E+03  0.00000000000E+00 0. -1.
<mgrwt>
<rscale>  0 0.21248990E+03</rscale>
<asrwt>0</asrwt>
<pdfrwt beam="1">  1        2 0.45353006E-01 0.21705823E+03</pdfrwt>
<pdfrwt beam="2">  1       -2 0.22694376E-01 0.21705823E+03</pdfrwt>
<totfact> 0.18652782E+03</totfact>
</mgrwt>
</event>
<event>
 6    1  0.4705246E-006  0.2517291E+03  0.7546771E-02  0.1113726E+00
          2   -1    0    0  501    0  0.00000000000E+00  0.00000000000E+00  0.60505425933E+03  0.60505425933E+03  0.00000000000E+00 0. -1.
         -2   -1    0    0    0  501 -0.00000000000E+00 -0.00000000000E+00 -0.10125323862E+03  0.10125323862E+03  0.00000000000E+00 0.  1.
          5    1    1    2  502    0 -0.28425150962E+02 -0.58626444086E+02  0.45377352933E+02  0.79537684859E+02  0.47000000000E+01 0. -1.
         -5    1    1    2    0  502 -0.18206563345E+03 -0.52344061585E-02  0.23392746041E+03  0.29646591987E+03  0.47000000000E+01 0. -1.
        -11    1    1    2    0    0  0.17864595252E+03  0.63464426749E+02  0.12845089964E+03  0.22900162321E+03  0.00000000000E+00 0.  1.
         11    1    1    2    0    0  0.31844831897E+02 -0.48327482561E+01  0.96045307728E+02  0.10130227002E+03  0.00000000000E+00 0. -1.
<mgrwt>
<rscale>  0 0.24933415E+03</rscale>
<asrwt>0</asrwt>
<pdfrwt beam="1">  1        2 0.93085268E-01 0.25172908E+03</pdfrwt>
<pdfrwt beam="2">  1       -2 0.15577422E-01 0.25172908E+03</pdfrwt>
<totfact> 0.16036453E+03</totfact>
</mgrwt>
</event>
<event>
 6    1  0.4705246E-006  0.1597104E+03  0.7546771E-02  0.1205080E+00
          2   -1    0    0  501    0  0.00000000000E+00  0.00000000000E+00  0.37964248564E+03  0.37964248564E+03  0.00000000000E+00 0. -1.
         -2   -1    0    0    0  501 -0.00000000000E+00 -0.00000000000E+00 -0.49136572745E+02  0.49136572745E+02  0.00000000000E+00 0.  1.
          5    1    1    2  502    0 -0.15971074771E+02  0.31928140654E+02  0.12414087745E+03  0.12925760654E+03  0.47000000000E+01 0. -1.
         -5    1    1    2    0  502  0.51661623588E+02 -0.90040447878E+02  0.87273393792E+02  0.13570166126E+03  0.47000000000E+01 0.  1.
        -11    1    1    2    0    0 -0.16161064879E+02  0.59819784573E+02  0.12805857073E+03  0.14226237796E+03  0.00000000000E+00 0.  1.
         11    1    1    2    0    0 -0.19529483938E+02 -0.17074773492E+01 -0.89669290783E+01  0.21557412621E+02  0.00000000000E+00 0. -1.
<mgrwt>
<rscale>  0 0.14631164E+03</rscale>
<asrwt>0</asrwt>
<pdfrwt beam="1">  1        2 0.58406534E-01 0.15971042E+03</pdfrwt>
<pdfrwt beam="2">  1       -2 0.75594730E-02 0.15971042E+03</pdfrwt>
<totfact> 0.84066106E+03</totfact>
</mgrwt>
</event>
<event>
 6    1  0.4705246E-006  0.2843190E+03  0.7546771E-02  0.1093353E+00
          2   -1    0    0  501    0  0.00000000000E+00  0.00000000000E+00  0.45742770205E+02  0.45742770205E+02  0.00000000000E+00 0. -1.
         -2   -1    0    0    0  501 -0.00000000000E+00 -0.00000000000E+00 -0.44180378121E+03  0.44180378121E+03  0.00000000000E+00 0.  1.
          5    1    1    2  502    0 -0.53084800779E+01 -0.11130952164E+03 -0.13484241634E+03  0.17499301932E+03  0.47000000000E+01 0.  1.
         -5    1    1    2    0  502 -0.29852912125E+02  0.28970611975E+02 -0.61406582263E+02  0.74319250977E+02  0.47000000000E+01 0.  1.
        -11    1    1    2    0    0 -0.16441541349E+02  0.75457990718E+02 -0.12889404351E+03  0.15025946592E+03  0.00000000000E+00 0. -1.
         11    1    1    2    0    0  0.51602933552E+02  0.68809189472E+01 -0.70917968896E+02  0.87974815198E+02  0.00000000000E+00 0.  1.
<mgrwt>
<rscale>  0 0.28431904E+03</rscale>
<asrwt>0</asrwt>
<pdfrwt beam="1">  1        2 0.70373491E-02 0.28431904E+03</pdfrwt>
<pdfrwt beam="2">  1       -2 0.67969814E-01 0.28431904E+03</pdfrwt>
<totfact> 0.20366124E+03</totfact>
</mgrwt>
</event>
<event>
 6    1  0.4705246E-006  0.1250444E+03  0.7546771E-02  0.1250337E+00
          2   -1    0    0  501    0  0.00000000000E+00  0.00000000000E+00  0.64546588452E+03  0.64546588452E+03  0.00000000000E+00 0. -1.
         -2   -1    0    0    0  501 -0.00000000000E+00 -0.00000000000E+00 -0.19724399191E+02  0.19724399191E+02  0.00000000000E+00 0.  1.
          5    1    1    2  502    0 -0.15950350050E+02 -0.19384864525E+02  0.44082537893E+03  0.44156459476E+03  0.47000000000E+01 0.  1.
         -5    1    1    2    0  502  0.13964133017E+02  0.17687407162E+02  0.80260101821E+01  0.24379258038E+02  0.47000000000E+01 0.  1.
        -11    1    1    2    0    0  0.32571105694E+02 -0.30010928279E+02  0.11536893003E+03  0.12357800273E+03  0.00000000000E+00 0. -1.
         11    1    1    2    0    0 -0.30584888661E+02  0.31708385643E+02  0.61521166195E+02  0.75668428188E+02  0.00000000000E+00 0.  1.
<mgrwt>
<rscale>  0 0.11571548E+03</rscale>
<asrwt>0</asrwt>
<pdfrwt beam="1">  1        2 0.99302427E-01 0.12504441E+03</pdfrwt>
<pdfrwt beam="2">  1       -2 0.30345235E-02 0.12504441E+03</pdfrwt>
<totfact> 0.18109792E+04</totfact>
</mgrwt>
</event>
<event>
 6    1  0.4705246E-006  0.4234435E+03  0.7546771E-02  0.1049847E+00
          2   -1    0    0  501    0  0.00000000000E+00  0.00000000000E+00  0.21475838391E+04  0.21475838391E+04  0.00000000000E+00 0. -1.
         -2   -1    0    0    0  501 -0.00000000000E+00 -0.00000000000E+00 -0.60579349527E+02  0.60579349527E+02  0.00000000000E+00 0.  1.
          5    1    1    2  502    0  0.75349126062E+02 -0.15145050945E+03  0.60869978401E+03  0.63178498294E+03  0.47000000000E+01 0. -1.
         -5    1    1    2    0  502 -0.24853994799E+03 -0.52078628156E+02  0.85071821216E+03  0.88782197301E+03  0.47000000000E+01 0.  1.
        -11    1    1    2    0    0  0.26148927767E+02  0.25377886742E+02  0.19283184772E+03  0.19624455420E+03  0.00000000000E+00 0.  1.
         11    1    1    2    0    0  0.14704189416E+03  0.17815125086E+03  0.43475464564E+03  0.49231167844E+03  0.00000000000E+00 0. -1.
<mgrwt>
<rscale>  0 0.38295592E+03</rscale>
<asrwt>0</asrwt>
<pdfrwt beam="1">  1        2 0.33039745E+00 0.42344352E+03</pdfrwt>
<pdfrwt beam="2">  1       -2 0.93199016E-02 0.42344352E+03</pdfrwt>
<totfact> 0.45092295E+02</totfact>
</mgrwt>
</event>
<event>
 6    1  0.4705246E-006  0.1273767E+03  0.7546771E-02  0.1246961E+00
          1   -1    0    0  501    0  0.00000000000E+00  0.00000000000E+00  0.84516204042E+02  0.84516204042E+02  0.00000000000E+00 0. -1.
         -1   -1    0    0    0  501 -0.00000000000E+00 -0.00000000000E+00 -0.15880784944E+03  0.15880784944E+03  0.00000000000E+00 0.  1.
          5    1    1    2  502    0  0.12962818351E+02  0.54087670979E+02 -0.47719363340E+02  0.73435267066E+02  0.47000000000E+01 0.  1.
         -5    1    1    2    0  502 -0.10090998336E+01 -0.32706414111E+02  0.42747364148E+02  0.54038458047E+02  0.47000000000E+01 0.  1.
        -11    1    1    2    0    0 -0.45252525400E+02  0.89491903890E+01 -0.45938651947E+02  0.65101757322E+02  0.00000000000E+00 0.  1.
         11    1    1    2    0    0  0.33298806882E+02 -0.30330447257E+02 -0.23380994257E+02  0.50748571044E+02  0.00000000000E+00 0. -1.
<mgrwt>
<rscale>  0 0.11768776E+03</rscale>
<asrwt>0</asrwt>
<pdfrwt beam="1">  1        1 0.13002493E-01 0.12737672E+03</pdfrwt>
<pdfrwt beam="2">  1       -1 0.24431976E-01 0.12737672E+03</pdfrwt>
<totfact> 0.61645005E+03</totfact>
</mgrwt>
</event>
<event>
 6    1  0.4705246E-006  0.1673355E+03  0.7546771E-02  0.1187355E+00
          2   -1    0    0  501    0  0.00000000000E+00  0.00000000000E+00  0.47474563160E+03  0.47474563160E+03  0.00000000000E+00 0. -1.
         -2   -1    0    0    0  501 -0.00000000000E+00 -0.00000000000E+00 -0.51355964921E+02  0.51355964921E+02  0.00000000000E+00 0.  1.
          5    1    1    2  502    0 -0.10033685489E+03 -0.16013108964E+02  0.21271443375E+03  0.23578257874E+03  0.47000000000E+01 0.  1.
         -5    1    1    2    0  502 -0.49834968202E+01  0.51846507028E+02  0.34181179164E+02  0.62476703983E+02  0.47000000000E+01 0.  1.
        -11    1    1    2    0    0  0.72172279012E+02 -0.64981513028E+02  0.99145273994E+02  0.13878479833E+03  0.00000000000E+00 0.  1.
         11    1    1    2    0    0  0.33148072700E+02  0.29148114964E+02  0.77348779766E+02  0.89057515466E+02  0.00000000000E+00 0. -1.
<mgrwt>
<rscale>  0 0.16119425E+03</rscale>
<asrwt>0</asrwt>
<pdfrwt beam="1">  1        2 0.73037787E-01 0.16733546E+03</pdfrwt>
<pdfrwt beam="2">  1       -2 0.79009180E-02 0.16733546E+03</pdfrwt>
<totfact> 0.61798883E+03</totfact>
</mgrwt>
</event>
<event>
 6    1  0.4705246E-006  0.2555430E+03  0.7546771E-02  0.1109851E+00
         -2   -1    0    0    0  501 -0.00000000000E+00  0.00000000000E+00  0.17138543207E+02  0.17138543207E+02  0.00000000000E+00 0. -1.
          2   -1    0    0  501    0  0.00000000000E+00 -0.00000000000E+00 -0.95256352794E+03  0.95256352794E+03  0.00000000000E+00 0.  1.
          5    1    1    2  502    0  0.39603171474E+02 -0.16883668442E+01 -0.17156727326E+03  0.17614959843E+03  0.47000000000E+01 0. -1.
         -5    1    1    2    0  502 -0.97051482769E+02 -0.21987036477E+02 -0.45680878835E+03  0.46754548356E+03  0.47000000000E+01 0. -1.
        -11    1    1    2    0    0  0.45617842422E+02 -0.10105875593E+02 -0.27174547057E+03  0.27573305395E+03  0.00000000000E+00 0.  1.
         11    1    1    2    0    0  0.11830468873E+02  0.33781278914E+02 -0.35303452558E+02  0.50273935208E+02  0.00000000000E+00 0. -1.
<mgrwt>
<rscale>  0 0.25554296E+03</rscale>
<asrwt>0</asrwt>
<pdfrwt beam="2">  1        2 0.14654826E+00 0.25554296E+03</pdfrwt>
<pdfrwt beam="1">  1       -2 0.26366985E-02 0.25554296E+03</pdfrwt>
<totfact> 0.14341535E+04</totfact>
</mgrwt>
</event>
<event>
 6    1  0.4705246E-006  0.1477429E+03  0.7546771E-02  0.1212055E+00
          1   -1    0    0  501    0  0.00000000000E+00  0.00000000000E+00  0.15913092284E+03  0.15913092284E+03  0.00000000000E+00 0. -1.
         -1   -1    0    0    0  501 -0.00000000000E+00 -0.00000000000E+00 -0.12090937623E+03  0.12090937623E+03  0.00000000000E+00 0.  1.
          5    1    1    2  502    0  0.60983967533E+02  0.91858955334E+02  0.40412454043E+02  0.11752603292E+03  0.47000000000E+01 0.  1.
         -5    1    1    2    0  502 -0.47072382302E+01 -0.36765400824E+02  0.12143200548E+02  0.39286131256E+02  0.47000000000E+01 0.  1.
        -11    1    1    2    0    0  0.21094145132E+02 -0.29039227077E+02  0.11349126334E+02  0.37643622788E+02  0.00000000000E+00 0. -1.
         11    1    1    2    0    0 -0.77370874435E+02 -0.26054327433E+02 -0.25683234310E+02  0.85584512112E+02  0.00000000000E+00 0.  1.
<mgrwt>
<rscale>  0 0.14095089E+03</rscale>
<asrwt>0</asrwt>
<pdfrwt beam="1">  1        1 0.24481680E-01 0.14774288E+03</pdfrwt>
<pdfrwt beam="2">  1       -1 0.18601443E-01 0.14774288E+03</pdfrwt>
<totfact> 0.42989271E+03</totfact>
</mgrwt>
</event>
<event>
 6    1  0.4705246E-006  0.1293244E+03  0.7546771E-02  0.1242771E+00
         -3   -1    0    0    0  501 -0.00000000000E+00  0.00000000000E+00  0.27455971855E+02  0.27455971855E+02  0.00000000000E+00 0.  1.
          3   -1    0    0  501    0  0.00000000000E+00 -0.00000000000E+00 -0.46464168615E+03  0.46464168615E+03  0.00000000000E+00 0. -1.
          5    1    1    2  502    0 -0.14608011281E+01  0.41801120840E+02 -0.28170230012E+02  0.50647008819E+02  0.47000000000E+01 0.  1.
         -5    1    1    2    0  502 -0.29098087102E+02 -0.54679638057E+02 -0.22808149862E+03  0.23638913153E+03  0.47000000000E+01 0.  1.
        -11    1    1    2    0    0  0.32391624616E+02  0.48775772777E+02 -0.13145121631E+03  0.14390175685E+03  0.00000000000E+00 0. -1.
         11    1    1    2    0    0 -0.18327363865E+01 -0.35897255559E+02 -0.49482769355E+02  0.61159760811E+02  0.00000000000E+00 0.  1.
<mgrwt>
<rscale>  0 0.12019799E+03</rscale>
<asrwt>0</asrwt>
<pdfrwt beam="2">  1        3 0.71483331E-01 0.12932439E+03</pdfrwt>
<pdfrwt beam="1">  1       -3 0.42239960E-02 0.12932439E+03</pdfrwt>
<totfact> 0.12960766E+03</totfact>
</mgrwt>
</event>
<event>
 6    1  0.4705246E-006  0.1406562E+03  0.7546771E-02  0.1222328E+00
          2   -1    0    0  501    0  0.00000000000E+00  0.00000000000E+00  0.11695503303E+03  0.11695503303E+03  0.00000000000E+00 0. -1.
         -2   -1    0    0    0  501 -0.00000000000E+00 -0.00000000000E+00 -0.14710976914E+03  0.14710976914E+03  0.00000000000E+00 0.  1.
          5    1    1    2  502    0  0.33323615847E+02  0.10695842260E+02  0.26274360254E+02  0.44014729597E+02  0.47000000000E+01 0. -1.
         -5    1    1    2    0  502 -0.77421217027E+02 -0.57734128987E+02 -0.11687048940E+02  0.97395850060E+02  0.47000000000E+01 0. -1.
        -11    1    1    2    0    0  0.34265199491E+02  0.69622215972E+02 -0.55877662349E+02  0.95622539197E+02  0.00000000000E+00 0.  1.
         11    1    1    2    0    0  0.98324016895E+01 -0.22583929244E+02  0.11135614923E+02  0.27031683315E+02  0.00000000000E+00 0. -1.
<mgrwt>
<rscale>  0 0.13351745E+03</rscale>
<asrwt>0</asrwt>
<pdfrwt beam="1">  1        2 0.17993082E-01 0.14065619E+03</pdfrwt>
<pdfrwt beam="2">  1       -2 0.22632272E-01 0.14065619E+03</pdfrwt>
<totfact> 0.50859378E+03</totfact>
</mgrwt>
</event>
<event>
 6    1  0.4705246E-006  0.1758776E+03  0.7546771E-02  0.1177394E+00
         -2   -1    0    0    0  501 -0.00000000000E+00  0.00000000000E+00  0.39184863236E+02  0.39184863236E+02  0.00000000000E+00 0.  1.
          2   -1    0    0  501    0  0.00000000000E+00 -0.00000000000E+00 -0.70012261173E+03  0.70012261173E+03  0.00000000000E+00 0. -1.
          5    1    1    2  502    0 -0.12288165001E+03  0.49242508425E+02 -0.26488653001E+03  0.29616159158E+03  0.47000000000E+01 0.  1.
         -5    1    1    2    0  502 -0.66693570049E+00 -0.42780749391E+02 -0.10162604243E+03  0.11036566415E+03  0.47000000000E+01 0.  1.
        -11    1    1    2    0    0  0.17890671690E+02 -0.39648211357E+02 -0.67999940312E+02  0.80722045810E+02  0.00000000000E+00 0.  1.
         11    1    1    2    0    0  0.10565791403E+03  0.33186452323E+02 -0.22642523574E+03  0.25205817343E+03  0.00000000000E+00 0. -1.
<mgrwt>
<rscale>  0 0.17043626E+03</rscale>
<asrwt>0</asrwt>
<pdfrwt beam="2">  1        2 0.10771117E+00 0.17587764E+03</pdfrwt>
<pdfrwt beam="1">  1       -2 0.60284407E-02 0.17587764E+03</pdfrwt>
<totfact> 0.60273947E+03</totfact>
</mgrwt>
</event>
<event>
 6    1  0.4705246E-006  0.1698010E+03  0.7546771E-02  0.1200048E+00
         -2   -1    0    0    0  501 -0.00000000000E+00  0.00000000000E+00  0.16494983817E+03  0.16494983817E+03  0.00000000000E+00 0.  1.
          2   -1    0    0  501    0  0.00000000000E+00 -0.00000000000E+00 -0.22167688612E+03  0.22167688612E+03  0.00000000000E+00 0. -1.
          5    1    1    2  502    0  0.37995771145E+02 -0.62239727271E+02 -0.17110103182E+03  0.18605137830E+03  0.47000000000E+01 0. -1.
         -5    1    1    2    0  502  0.11779013653E+02  0.48407399176E+02  0.64680632513E+01  0.50457381024E+02  0.47000000000E+01 0.  1.
        -11    1    1    2    0    0 -0.71923021634E+02  0.18673711162E+02  0.10285850988E+03  0.12689169233E+03  0.00000000000E+00 0.  1.
         11    1    1    2    0    0  0.22148236836E+02 -0.48413830669E+01  0.50474107477E+01  0.23226272628E+02  0.00000000000E+00 0. -1.
<mgrwt>
<rscale>  0 0.15034612E+03</rscale>
<asrwt>0</asrwt>
<pdfrwt beam="2">  1        2 0.34104136E-01 0.16980100E+03</pdfrwt>
<pdfrwt beam="1">  1       -2 0.25376898E-01 0.16980100E+03</pdfrwt>
<totfact> 0.20691169E+03</totfact>
</mgrwt>
</event>
<event>
 6    1  0.4705246E-006  0.1258475E+03  0.7546771E-02  0.1248907E+00
          1   -1    0    0  501    0  0.00000000000E+00  0.00000000000E+00  0.50567533170E+02  0.50567533170E+02  0.00000000000E+00 0. -1.
         -1   -1    0    0    0  501 -0.00000000000E+00 -0.00000000000E+00 -0.24417070755E+03  0.24417070755E+03  0.00000000000E+00 0.  1.
          5    1    1    2  502    0  0.43292156093E+02 -0.22494005043E+02  0.78661843969E+00  0.49019381989E+02  0.47000000000E+01 0.  1.
         -5    1    1    2    0  502 -0.55189178788E+02  0.14065617165E+02 -0.84930632884E+02  0.10236693530E+03  0.47000000000E+01 0.  1.
        -11    1    1    2    0    0 -0.39874841561E+02  0.36462030219E+01 -0.55317363662E+02  0.68288421482E+02  0.00000000000E+00 0.  1.
         11    1    1    2    0    0  0.51771864256E+02  0.47821848557E+01 -0.54141796277E+02  0.75063501947E+02  0.00000000000E+00 0. -1.
<mgrwt>
<rscale>  0 0.11654574E+03</rscale>
<asrwt>0</asrwt>
<pdfrwt beam="1">  1        1 0.77796204E-02 0.12584753E+03</pdfrwt>
<pdfrwt beam="2">  1       -1 0.37564725E-01 0.12584753E+03</pdfrwt>
<totfact> 0.58958912E+03</totfact>
</mgrwt>
</event>
<event>
 6    1  0.4705246E-006  0.1433232E+03  0.7546771E-02  0.1217095E+00
         -2   -1    0    0    0  501 -0.00000000000E+00  0.00000000000E+00  0.14406255924E+02  0.14406255924E+02  0.00000000000E+00 0.  1.
          2   -1    0    0  501    0  0.00000000000E+00 -0.00000000000E+00 -0.12779185763E+04  0.12779185763E+04  0.00000000000E+00 0. -1.
          5    1    1    2  502    0 -0.59126131404E+02  0.61720163620E+02 -0.78873150555E+03  0.79336294081E+03  0.47000000000E+01 0.  1.
         -5    1    1    2    0  502  0.26965058682E+02  0.58315060727E+00 -0.45585998257E+02  0.53175442560E+02  0.47000000000E+01 0.  1.
        -11    1    1    2    0    0  0.22068897962E+02  0.23691343601E+02 -0.87697181628E+02  0.93483216057E+02  0.00000000000E+00 0.  1.
         11    1    1    2    0    0  0.10092174761E+02 -0.85994657828E+02 -0.34149763499E+03  0.35230323284E+03  0.00000000000E+00 0. -1.
<mgrwt>
<rscale>  0 0.13723767E+03</rscale>
<asrwt>0</asrwt>
<pdfrwt beam="2">  1        2 0.19660290E+00 0.14332319E+03</pdfrwt>
<pdfrwt beam="1">  1       -2 0.22163466E-02 0.14332319E+03</pdfrwt>
<totfact> 0.11643409E+04</totfact>
</mgrwt>
</event>
<event>
 6    1  0.4705246E-006  0.1264021E+03  0.7546771E-02  0.1246995E+00
         -1   -1    0    0    0  501 -0.00000000000E+00  0.00000000000E+00  0.31101927890E+02  0.31101927890E+02  0.00000000000E+00 0.  1.
          1   -1    0    0  501    0  0.00000000000E+00 -0.00000000000E+00 -0.39470450260E+03  0.39470450260E+03  0.00000000000E+00 0. -1.
          5    1    1    2  502    0 -0.29810634606E+02  0.51250412299E+02 -0.93005424997E+02  0.11039645726E+03  0.47000000000E+01 0.  1.
         -5    1    1    2    0  502  0.47940489710E+02 -0.45891754886E+02 -0.12501017225E+03  0.14161206477E+03  0.47000000000E+01 0.  1.
        -11    1    1    2    0    0  0.25474487549E+02 -0.49722607609E+01 -0.47778075579E+01  0.26391292845E+02  0.00000000000E+00 0.  1.
         11    1    1    2    0    0 -0.43604342653E+02 -0.38639665234E+00 -0.14080916990E+03  0.14740661562E+03  0.00000000000E+00 0. -1.
<mgrwt>
<rscale>  0 0.11766769E+03</rscale>
<asrwt>0</asrwt>
<pdfrwt beam="2">  1        1 0.60723767E-01 0.12640211E+03</pdfrwt>
<pdfrwt beam="1">  1       -1 0.47849122E-02 0.12640211E+03</pdfrwt>
<totfact> 0.10922118E+04</totfact>
</mgrwt>
</event>
<event>
 6    1  0.4705246E-006  0.4979580E+03  0.7546771E-02  0.1014313E+00
          1   -1    0    0  501    0  0.00000000000E+00  0.00000000000E+00  0.28665547155E+04  0.28665547155E+04  0.00000000000E+00 0. -1.
         -1   -1    0    0    0  501 -0.00000000000E+00 -0.00000000000E+00 -0.21625456212E+02  0.21625456212E+02  0.00000000000E+00 0.  1.
          5    1    1    2  502    0  0.15989337875E+02 -0.69476325052E+01  0.35282752574E+03  0.35328923200E+03  0.47000000000E+01 0.  1.
         -5    1    1    2    0  502 -0.84771166978E+02  0.18889925546E+03  0.17515575172E+04  0.17637587435E+04  0.47000000000E+01 0.  1.
        -11    1    1    2    0    0  0.26990338384E+01 -0.37304746804E+02  0.49589951597E+02  0.62113542945E+02  0.00000000000E+00 0.  1.
         11    1    1    2    0    0  0.66082795264E+02 -0.14464687615E+03  0.69095426482E+03  0.70901865326E+03  0.00000000000E+00 0. -1.
<mgrwt>
<rscale>  0 0.49795804E+03</rscale>
<asrwt>0</asrwt>
<pdfrwt beam="1">  1        1 0.44100812E+00 0.49795804E+03</pdfrwt>
<pdfrwt beam="2">  1       -1 0.33269955E-02 0.49795804E+03</pdfrwt>
<totfact> 0.27916860E+02</totfact>
</mgrwt>
</event>
<event>
 6    1  0.5854460E-006  0.2092811E+03  0.7546771E-02  0.1146231E+00
          1   -1    0    0  501    0  0.00000000000E+00  0.00000000000E+00  0.88171136407E+03  0.88171136407E+03  0.00000000000E+00 0. -1.
         -1   -1    0    0    0  501 -0.00000000000E+00 -0.00000000000E+00 -0.57684096667E+02  0.57684096667E+02  0.00000000000E+00 0.  1.
          5    1    1    2  502    0 -0.95740306156E+02 -0.98382653463E+02  0.54231253990E+03  0.55943751542E+03  0.47000000000E+01 0.  1.
         -5    1    1    2    0  502  0.25242451496E+02 -0.53943131707E+02  0.10428631341E+03  0.12018638850E+03  0.47000000000E+01 0.  1.
        -11    1    1    2    0    0 -0.17957241556E+02  0.52144698708E+02  0.63979262236E+02  0.84468207770E+02  0.00000000000E+00 0. -1.
         11    1    1    2    0    0  0.88455096215E+02  0.10018108646E+03  0.11344915186E+03  0.17530334905E+03  0.00000000000E+00 0.  1.
<mgrwt>
<rscale>  0 0.20421420E+03</rscale>
<asrwt>0</asrwt>
<pdfrwt beam="1">  1        1 0.13564789E+00 0.20928109E+03</pdfrwt>
<pdfrwt beam="2">  1       -1 0.88744771E-02 0.20928109E+03</pdfrwt>
<totfact> 0.14480567E+03</totfact>
</mgrwt>
</event>
<event>
 6    1  0.4705246E-006  0.1503831E+03  0.7546771E-02  0.1210027E+00
          2   -1    0    0  501    0  0.00000000000E+00  0.00000000000E+00  0.69694135283E+03  0.69694135283E+03  0.00000000000E+00 0.  1.
         -2   -1    0    0    0  501 -0.00000000000E+00 -0.00000000000E+00 -0.26552726936E+02  0.26552726936E+02  0.00000000000E+00 0. -1.
          5    1    1    2  502    0  0.58226065104E+02  0.29664604713E+02  0.99636267819E+02  0.11924654836E+03  0.47000000000E+01 0.  1.
         -5    1    1    2    0  502 -0.45211902218E+02  0.52921557771E+02  0.29332804320E+03  0.30150993069E+03  0.47000000000E+01 0.  1.
        -11    1    1    2    0    0 -0.19145260945E+02 -0.21257947867E+02  0.13357054169E+02  0.31572967238E+02  0.00000000000E+00 0. -1.
         11    1    1    2    0    0  0.61310980589E+01 -0.61328214616E+02  0.26406726071E+03  0.27116463348E+03  0.00000000000E+00 0.  1.
<mgrwt>
<rscale>  0 0.14248246E+03</rscale>
<asrwt>0</asrwt>
<pdfrwt beam="1">  1        2 0.10722173E+00 0.15038306E+03</pdfrwt>
<pdfrwt beam="2">  1       -2 0.40850354E-02 0.15038306E+03</pdfrwt>
<totfact> 0.10807004E+04</totfact>
</mgrwt>
</event>
<event>
 6    1  0.4705246E-006  0.1278032E+03  0.7546771E-02  0.1246636E+00
         -1   -1    0    0    0  501 -0.00000000000E+00  0.00000000000E+00  0.22328331511E+03  0.22328331511E+03  0.00000000000E+00 0.  1.
          1   -1    0    0  501    0  0.00000000000E+00 -0.00000000000E+00 -0.55041877464E+02  0.55041877464E+02  0.00000000000E+00 0. -1.
          5    1    1    2  502    0 -0.53387221363E+02  0.34155239236E+02  0.14713023469E+02  0.65232958171E+02  0.47000000000E+01 0. -1.
         -5    1    1    2    0  502  0.29406569798E+02 -0.45730636252E+02  0.67199340624E+02  0.86567192513E+02  0.47000000000E+01 0. -1.
        -11    1    1    2    0    0  0.28791211817E+02 -0.61370807588E+01 -0.79366215623E+01  0.30489139049E+02  0.00000000000E+00 0. -1.
         11    1    1    2    0    0 -0.48105602526E+01  0.17712477775E+02  0.94265695119E+02  0.96035902844E+02  0.00000000000E+00 0.  1.
<mgrwt>
<rscale>  0 0.11787977E+03</rscale>
<asrwt>0</asrwt>
<pdfrwt beam="2">  1        1 0.84679813E-02 0.12780317E+03</pdfrwt>
<pdfrwt beam="1">  1       -1 0.34351279E-01 0.12780317E+03</pdfrwt>
<totfact> 0.61459589E+03</totfact>
</mgrwt>
</event>
<event>
 6    1  0.4705246E-006  0.1350677E+03  0.7546771E-02  0.1233353E+00
          2   -1    0    0  501    0  0.00000000000E+00  0.00000000000E+00  0.33329781159E+03  0.33329781159E+03  0.00000000000E+00 0. -1.
         -2   -1    0    0    0  501 -0.00000000000E+00 -0.00000000000E+00 -0.52376322375E+02  0.52376322375E+02  0.00000000000E+00 0.  1.
          5    1    1    2  502    0  0.44727605351E+02 -0.52583939005E+02  0.14648112333E+03  0.16200135436E+03  0.47000000000E+01 0.  1.
         -5    1    1    2    0  502 -0.63725200286E+02  0.50247344444E+01  0.93100936772E+02  0.11303107332E+03  0.47000000000E+01 0.  1.
        -11    1    1    2    0    0  0.33638488488E+02  0.36700989147E+02  0.64303218988E+02  0.81322902582E+02  0.00000000000E+00 0. -1.
         11    1    1    2    0    0 -0.14640893553E+02  0.10858215414E+02 -0.22963789869E+02  0.29318803712E+02  0.00000000000E+00 0.  1.
<mgrwt>
<rscale>  0 0.12610453E+03</rscale>
<asrwt>0</asrwt>
<pdfrwt beam="1">  1        2 0.51276585E-01 0.13506766E+03</pdfrwt>
<pdfrwt beam="2">  1       -2 0.80578959E-02 0.13506766E+03</pdfrwt>
<totfact> 0.86531355E+03</totfact>
</mgrwt>
</event>
<event>
 6    1  0.4705246E-006  0.6919809E+03  0.7546771E-02  0.9972379E-01
         -1   -1    0    0    0  501 -0.00000000000E+00  0.00000000000E+00  0.71084641087E+03  0.71084641087E+03  0.00000000000E+00 0.  1.
          1   -1    0    0  501    0  0.00000000000E+00 -0.00000000000E+00 -0.35743465915E+03  0.35743465915E+03  0.00000000000E+00 0. -1.
          5    1    1    2  502    0  0.10931549925E+03  0.40622480804E+03  0.17948305093E+03  0.45738903420E+03  0.47000000000E+01 0. -1.
         -5    1    1    2    0  502 -0.23348112716E+03 -0.12981848175E+03  0.51335843439E+02  0.27207303020E+03  0.47000000000E+01 0.  1.
        -11    1    1    2    0    0  0.84477257513E+01 -0.21399370156E+02  0.41212934837E+02  0.47199609229E+02  0.00000000000E+00 0. -1.
         11    1    1    2    0    0  0.11571790216E+03 -0.25500695613E+03  0.81379922521E+02  0.29161939638E+03  0.00000000000E+00 0.  1.
<mgrwt>
<rscale>  0 0.56878115E+03</rscale>
<asrwt>0</asrwt>
<pdfrwt beam="2">  1        1 0.54989948E-01 0.69198088E+03</pdfrwt>
<pdfrwt beam="1">  1       -1 0.10936099E+00 0.69198088E+03</pdfrwt>
<totfact> 0.55238121E+01</totfact>
</mgrwt>
</event>
<event>
 6    1  0.4705246E-006  0.1824219E+03  0.7546771E-02  0.1171185E+00
         -1   -1    0    0    0  501 -0.00000000000E+00  0.00000000000E+00  0.25917580464E+02  0.25917580464E+02  0.00000000000E+00 0.  1.
          1   -1    0    0  501    0  0.00000000000E+00 -0.00000000000E+00 -0.13340320506E+04  0.13340320506E+04  0.00000000000E+00 0. -1.
          5    1    1    2  502    0 -0.99788143888E+02  0.31310960132E+02 -0.61424017861E+03  0.62309801549E+03  0.47000000000E+01 0.  1.
         -5    1    1    2    0  502 -0.26985457576E+02 -0.71069650701E+02 -0.34067097201E+03  0.34908152535E+03  0.47000000000E+01 0.  1.
        -11    1    1    2    0    0  0.62103459956E+02  0.47652689879E+02 -0.10385990873E+03  0.13005575433E+03  0.00000000000E+00 0.  1.
         11    1    1    2    0    0  0.64670141507E+02 -0.78939993103E+01 -0.24934341077E+03  0.25771433588E+03  0.00000000000E+00 0. -1.
<mgrwt>
<rscale>  0 0.17654907E+03</rscale>
<asrwt>0</asrwt>
<pdfrwt beam="2">  1        1 0.20523568E+00 0.18242191E+03</pdfrwt>
<pdfrwt beam="1">  1       -1 0.39873204E-02 0.18242191E+03</pdfrwt>
<totfact> 0.22806037E+03</totfact>
</mgrwt>
</event>
<event>
 6    1  0.4705246E-006  0.1343254E+03  0.7546771E-02  0.1232996E+00
         -1   -1    0    0    0  501 -0.00000000000E+00  0.00000000000E+00  0.43831677340E+02  0.43831677340E+02  0.00000000000E+00 0.  1.
          1   -1    0    0  501    0  0.00000000000E+00 -0.00000000000E+00 -0.39434604773E+03  0.39434604773E+03  0.00000000000E+00 0. -1.
          5    1    1    2  502    0  0.46844637484E+01  0.40413740663E+02 -0.16228047499E+03  0.16736862669E+03  0.47000000000E+01 0. -1.
         -5    1    1    2    0  502  0.28466248595E+02 -0.76671527139E+02 -0.12070270197E+03  0.14587694351E+03  0.47000000000E+01 0. -1.
        -11    1    1    2    0    0  0.14280321728E+02 -0.67906118926E+01  0.14089143258E+02  0.21178856350E+02  0.00000000000E+00 0.  1.
         11    1    1    2    0    0 -0.47431034072E+02  0.43048398368E+02 -0.81620336680E+02  0.10375329853E+03  0.00000000000E+00 0. -1.
<mgrwt>
<rscale>  0 0.12633596E+03</rscale>
<asrwt>0</asrwt>
<pdfrwt beam="2">  1        1 0.60668620E-01 0.13432538E+03</pdfrwt>
<pdfrwt beam="1">  1       -1 0.67433353E-02 0.13432538E+03</pdfrwt>
<totfact> 0.65977845E+03</totfact>
</mgrwt>
</event>
<event>
 6    1  0.4705246E-006  0.1700517E+03  0.7546771E-02  0.1184700E+00
         -2   -1    0    0    0  501 -0.00000000000E+00  0.00000000000E+00  0.14111156562E+03  0.14111156562E+03  0.00000000000E+00 0.  1.
          2   -1    0    0  501    0  0.00000000000E+00 -0.00000000000E+00 -0.17670322996E+03  0.17670322996E+03  0.00000000000E+00 0. -1.
          5    1    1    2  502    0 -0.14823492495E+01 -0.58838062282E+02  0.54304594531E+02  0.80219660430E+02  0.47000000000E+01 0. -1.
         -5    1    1    2    0  502  0.17880423809E+02 -0.55283916937E+02 -0.69203663400E+02  0.90483468410E+02  0.47000000000E+01 0. -1.
        -11    1    1    2    0    0 -0.16685882906E+02  0.90488080397E+02 -0.53682642976E+02  0.10652857616E+03  0.00000000000E+00 0. -1.
         11    1    1    2    0    0  0.28780834642E+00  0.23633898822E+02  0.32990047503E+02  0.40583090584E+02  0.00000000000E+00 0.  1.
<mgrwt>
<rscale>  0 0.16359222E+03</rscale>
<asrwt>0</asrwt>
<pdfrwt beam="2">  1        2 0.27185112E-01 0.17005169E+03</pdfrwt>
<pdfrwt beam="1">  1       -2 0.21709472E-01 0.17005169E+03</pdfrwt>
<totfact> 0.34750458E+03</totfact>
</mgrwt>
</event>
<event>
 6    1  0.4705246E-006  0.1295872E+03  0.7546771E-02  0.1242841E+00
          2   -1    0    0  501    0  0.00000000000E+00  0.00000000000E+00  0.55500593429E+03  0.55500593429E+03  0.00000000000E+00 0. -1.
         -2   -1    0    0    0  501 -0.00000000000E+00 -0.00000000000E+00 -0.49110927263E+02  0.49110927263E+02  0.00000000000E+00 0.  1.
          5    1    1    2  502    0  0.37310208159E+02 -0.33910251209E+02  0.37722438369E+03  0.38060778030E+03  0.47000000000E+01 0.  1.
         -5    1    1    2    0  502 -0.10837164624E+02  0.55518691831E+02  0.11299787644E+03  0.12645307177E+03  0.47000000000E+01 0.  1.
        -11    1    1    2    0    0 -0.41444680573E+02 -0.43366703137E+02 -0.93057339074E+01  0.60703617457E+02  0.00000000000E+00 0.  1.
         11    1    1    2    0    0  0.14971637038E+02  0.21758262515E+02  0.24978480805E+02  0.36352392035E+02  0.00000000000E+00 0. -1.
<mgrwt>
<rscale>  0 0.12015527E+03</rscale>
<asrwt>0</asrwt>
<pdfrwt beam="1">  1        2 0.85385524E-01 0.12958720E+03</pdfrwt>
<pdfrwt beam="2">  1       -2 0.75555277E-02 0.12958720E+03</pdfrwt>
<totfact> 0.54953877E+03</totfact>
</mgrwt>
</event>
<event>
 6    1  0.4705246E-006  0.2569101E+03  0.7546771E-02  0.1109014E+00
          2   -1    0    0  501    0  0.00000000000E+00  0.00000000000E+00  0.28883659925E+03  0.28883659925E+03  0.00000000000E+00 0. -1.
         -2   -1    0    0    0  501 -0.00000000000E+00 -0.00000000000E+00 -0.57128137737E+02  0.57128137737E+02  0.00000000000E+00 0.  1.
          5    1    1    2  502    0  0.19884998769E+02  0.25738514568E+02  0.70721846566E+01  0.33615325434E+02  0.47000000000E+01 0. -1.
         -5    1    1    2    0  502 -0.78258857985E+02 -0.61448430531E+02  0.13339633045E+03  0.16648432192E+03  0.47000000000E+01 0. -1.
        -11    1    1    2    0    0  0.58795537926E+01  0.56828174653E+02  0.42909258763E+02  0.71450787783E+02  0.00000000000E+00 0.  1.
         11    1    1    2    0    0  0.52494305423E+02 -0.21118258689E+02  0.48330687649E+02  0.74414301855E+02  0.00000000000E+00 0. -1.
<mgrwt>
<rscale>  0 0.25691008E+03</rscale>
<asrwt>0</asrwt>
<pdfrwt beam="1">  1        2 0.44436399E-01 0.25691008E+03</pdfrwt>
<pdfrwt beam="2">  1       -2 0.87889444E-02 0.25691008E+03</pdfrwt>
<totfact> 0.91758972E+03</totfact>
</mgrwt>
</event>
<event>
 6    1  0.4962876E-006  0.1744173E+03  0.7546771E-02  0.1179366E+00
          1   -1    0    0  501    0  0.00000000000E+00  0.00000000000E+00  0.21712879405E+03  0.21712879405E+03  0.00000000000E+00 0. -1.
         -1   -1    0    0    0  501 -0.00000000000E+00 -0.00000000000E+00 -0.12568737581E+03  0.12568737581E+03  0.00000000000E+00 0.  1.
          5    1    1    2  502    0 -0.24781913998E+02  0.91905983619E+02  0.10751285960E+03  0.14367309444E+03  0.47000000000E+01 0.  1.
         -5    1    1    2    0  502 -0.26450568032E+02  0.18419128050E+02 -0.32661006475E+02  0.46127303967E+02  0.47000000000E+01 0.  1.
        -11    1    1    2    0    0  0.42860398783E+02 -0.87055593074E+02 -0.28893121532E+02  0.10124476550E+03  0.00000000000E+00 0.  1.
         11    1    1    2    0    0  0.83720832470E+01 -0.23269518595E+02  0.45482686641E+02  0.51771005955E+02  0.00000000000E+00 0. -1.
<mgrwt>
<rscale>  0 0.16855216E+03</rscale>
<asrwt>0</asrwt>
<pdfrwt beam="1">  1        1 0.33404430E-01 0.17441729E+03</pdfrwt>
<pdfrwt beam="2">  1       -1 0.19336519E-01 0.17441729E+03</pdfrwt>
<totfact> 0.27583620E+03</totfact>
</mgrwt>
</event>
<event>
 6    1  0.4705246E-006  0.1409906E+03  0.7546771E-02  0.1223920E+00
          1   -1    0    0  501    0  0.00000000000E+00  0.00000000000E+00  0.51826595738E+03  0.51826595738E+03  0.00000000000E+00 0. -1.
         -1   -1    0    0    0  501 -0.00000000000E+00 -0.00000000000E+00 -0.32042895885E+02  0.32042895885E+02  0.00000000000E+00 0.  1.
          5    1    1    2  502    0  0.52293551331E+02  0.42318523364E+02  0.31007129648E+03  0.31731966821E+03  0.47000000000E+01 0. -1.
         -5    1    1    2    0  502  0.12701605948E+02 -0.36543393981E+02  0.25250965801E+02  0.46437610955E+02  0.47000000000E+01 0. -1.
        -11    1    1    2    0    0 -0.76983681779E+02  0.17472344459E+02  0.86849247243E+02  0.11736507925E+03  0.00000000000E+00 0.  1.
         11    1    1    2    0    0  0.11988524501E+02 -0.23247473842E+02  0.64051551968E+02  0.69186494847E+02  0.00000000000E+00 0. -1.
<mgrwt>
<rscale>  0 0.13241211E+03</rscale>
<asrwt>0</asrwt>
<pdfrwt beam="1">  1        1 0.79733218E-01 0.14099056E+03</pdfrwt>
<pdfrwt beam="2">  1       -1 0.49296767E-02 0.14099056E+03</pdfrwt>
<totfact> 0.74265918E+03</totfact>
</mgrwt>
</event>
<event>
 6    1  0.4705246E-006  0.1298977E+03  0.7546771E-02  0.1241339E+00
          2   -1    0    0  501    0  0.00000000000E+00  0.00000000000E+00  0.10921729550E+04  0.10921729550E+04  0.00000000000E+00 0.  1.
         -2   -1    0    0    0  501 -0.00000000000E+00 -0.00000000000E+00 -0.15887676331E+02  0.15887676331E+02  0.00000000000E+00 0. -1.
          5    1    1    2  502    0  0.40921831712E+02  0.31465100291E+02  0.72569266803E+03  0.72754146774E+03  0.47000000000E+01 0. -1.
         -5    1    1    2    0  502 -0.47764552354E+02  0.31978889860E+01  0.14457030749E+03  0.15236253727E+03  0.47000000000E+01 0. -1.
        -11    1    1    2    0    0 -0.30273348006E+02 -0.48178994456E+02  0.10059883282E+03  0.11557601945E+03  0.00000000000E+00 0. -1.
         11    1    1    2    0    0  0.37116068649E+02  0.13516005179E+02  0.10542347029E+03  0.11258060683E+03  0.00000000000E+00 0.  1.
<mgrwt>
<rscale>  0 0.12107179E+03</rscale>
<asrwt>0</asrwt>
<pdfrwt beam="1">  1        2 0.16802655E+00 0.12989770E+03</pdfrwt>
<pdfrwt beam="2">  1       -2 0.24442587E-02 0.12989770E+03</pdfrwt>
<totfact> 0.12739510E+04</totfact>
</mgrwt>
</event>
<event>
 6    1  0.4705246E-006  0.1251592E+03  0.7546771E-02  0.1250226E+00
          1   -1    0    0  501    0  0.00000000000E+00  0.00000000000E+00  0.38308856536E+03  0.38308856536E+03  0.00000000000E+00 0. -1.
         -1   -1    0    0    0  501 -0.00000000000E+00 -0.00000000000E+00 -0.32495867167E+02  0.32495867167E+02  0.00000000000E+00 0.  1.
          5    1    1    2  502    0 -0.54728341608E+02 -0.44157883348E+01  0.17951216945E+03  0.18778018943E+03  0.47000000000E+01 0.  1.
         -5    1    1    2    0  502  0.58514300727E+02 -0.72210378147E+00  0.69968350208E+02  0.91335123880E+02  0.47000000000E+01 0.  1.
        -11    1    1    2    0    0 -0.64337223965E+01  0.29549198522E+02  0.10702266297E+03  0.11121330095E+03  0.00000000000E+00 0. -1.
         11    1    1    2    0    0  0.26477632781E+01 -0.24411306405E+02 -0.59104844298E+01  0.25255818280E+02  0.00000000000E+00 0.  1.
<mgrwt>
<rscale>  0 0.11577985E+03</rscale>
<asrwt>0</asrwt>
<pdfrwt beam="1">  1        1 0.58936699E-01 0.12515921E+03</pdfrwt>
<pdfrwt beam="2">  1       -1 0.49993644E-02 0.12515921E+03</pdfrwt>
<totfact> 0.10620558E+04</totfact>
</mgrwt>
</event>
<event>
 6    1  0.4705246E-006  0.1387125E+03  0.7546771E-02  0.1226502E+00
          2   -1    0    0  501    0  0.00000000000E+00  0.00000000000E+00  0.11994876726E+04  0.11994876726E+04  0.00000000000E+00 0. -1.
         -2   -1    0    0    0  501 -0.00000000000E+00 -0.00000000000E+00 -0.12807372650E+02  0.12807372650E+02  0.00000000000E+00 0.  1.
          5    1    1    2  502    0 -0.13686443321E+02 -0.46142333385E+02  0.21713455790E+03  0.22245435463E+03  0.47000000000E+01 0.  1.
         -5    1    1    2    0  502  0.73558533018E+02  0.52100702343E+02  0.43807060419E+03  0.44727316622E+03  0.47000000000E+01 0.  1.
        -11    1    1    2    0    0 -0.66527636864E+02 -0.37868837711E+02  0.37433990693E+03  0.38208682424E+03  0.00000000000E+00 0.  1.
         11    1    1    2    0    0  0.66555471661E+01  0.31910468753E+02  0.15713523093E+03  0.16048070016E+03  0.00000000000E+00 0. -1.
<mgrwt>
<rscale>  0 0.13064489E+03</rscale>
<asrwt>0</asrwt>
<pdfrwt beam="1">  1        2 0.18453648E+00 0.13871246E+03</pdfrwt>
<pdfrwt beam="2">  1       -2 0.19703660E-02 0.13871246E+03</pdfrwt>
<totfact> 0.15228170E+04</totfact>
</mgrwt>
</event>
<event>
 6    1  0.4705246E-006  0.1414871E+03  0.7546771E-02  0.1222892E+00
          1   -1    0    0  501    0  0.00000000000E+00  0.00000000000E+00  0.10703784558E+03  0.10703784558E+03  0.00000000000E+00 0. -1.
         -1   -1    0    0    0  501 -0.00000000000E+00 -0.00000000000E+00 -0.15280360043E+03  0.15280360043E+03  0.00000000000E+00 0.  1.
          5    1    1    2  502    0 -0.90066524794E+02 -0.18840818464E+02  0.15707194697E+02  0.93465294597E+02  0.47000000000E+01 0. -1.
         -5    1    1    2    0  502  0.25753628184E+02  0.34860957804E+02 -0.20314552636E+02  0.48096848051E+02  0.47000000000E+01 0. -1.
        -11    1    1    2    0    0  0.41250800077E+02 -0.80933065462E+01 -0.69292816897E+02  0.81047051713E+02  0.00000000000E+00 0.  1.
         11    1    1    2    0    0  0.23062096533E+02 -0.79268327941E+01  0.28134419992E+02  0.37232251649E+02  0.00000000000E+00 0. -1.
<mgrwt>
<rscale>  0 0.13312454E+03</rscale>
<asrwt>0</asrwt>
<pdfrwt beam="1">  1        1 0.16467361E-01 0.14148715E+03</pdfrwt>
<pdfrwt beam="2">  1       -1 0.23508246E-01 0.14148715E+03</pdfrwt>
<totfact> 0.48678330E+03</totfact>
</mgrwt>
</event>
<event>
 6    1  0.4705246E-006  0.2122477E+03  0.7546771E-02  0.1143447E+00
          1   -1    0    0  501    0  0.00000000000E+00  0.00000000000E+00  0.12774866427E+04  0.12774866427E+04  0.00000000000E+00 0. -1.
         -1   -1    0    0    0  501 -0.00000000000E+00 -0.00000000000E+00 -0.47393364408E+02  0.47393364408E+02  0.00000000000E+00 0.  1.
          5    1    1    2  502    0  0.18906108932E+02 -0.12692228875E+03  0.51252036909E+03  0.52836154957E+03  0.47000000000E+01 0. -1.
         -5    1    1    2    0  502 -0.69843659508E+02 -0.36880028982E+02  0.49375158118E+03  0.50005098463E+03  0.47000000000E+01 0. -1.
        -11    1    1    2    0    0 -0.58833098688E+01  0.11944269455E+03  0.11481661966E+03  0.16578307141E+03  0.00000000000E+00 0. -1.
         11    1    1    2    0    0  0.56820860445E+02  0.44359623177E+02  0.10900470839E+03  0.13068440152E+03  0.00000000000E+00 0.  1.
<mgrwt>
<rscale>  0 0.20764163E+03</rscale>
<asrwt>0</asrwt>
<pdfrwt beam="1">  1        1 0.19653638E+00 0.21224774E+03</pdfrwt>
<pdfrwt beam="2">  1       -1 0.72912878E-02 0.21224774E+03</pdfrwt>
<totfact> 0.10082845E+03</totfact>
</mgrwt>
</event>
<event>
 6    1  0.4705246E-006  0.1292455E+03  0.7546771E-02  0.1244676E+00
          4   -1    0    0  501    0  0.00000000000E+00  0.00000000000E+00  0.13767198591E+03  0.13767198591E+03  0.00000000000E+00 0. -1.
         -4   -1    0    0    0  501 -0.00000000000E+00 -0.00000000000E+00 -0.90942615972E+02  0.90942615972E+02  0.00000000000E+00 0.  1.
          5    1    1    2  502    0  0.54488636239E+02  0.31107459368E+02  0.35190263922E+02  0.72091124158E+02  0.47000000000E+01 0.  1.
         -5    1    1    2    0  502 -0.62885401279E+02  0.53162590086E+00  0.50088630760E+01  0.63261639478E+02  0.47000000000E+01 0.  1.
        -11    1    1    2    0    0 -0.44507916473E+01 -0.22062177689E+02 -0.38981058653E+02  0.45011911361E+02  0.00000000000E+00 0.  1.
         11    1    1    2    0    0  0.12847556688E+02 -0.95769075800E+01  0.45511301589E+02  0.48249926881E+02  0.00000000000E+00 0. -1.
<mgrwt>
<rscale>  0 0.11904763E+03</rscale>
<asrwt>0</asrwt>
<pdfrwt beam="1">  1        4 0.21180306E-01 0.12924551E+03</pdfrwt>
<pdfrwt beam="2">  1       -4 0.13991172E-01 0.12924551E+03</pdfrwt>
<totfact> 0.14103630E+03</totfact>
</mgrwt>
</event>
<event>
 6    1  0.4705246E-006  0.1347346E+03  0.7546771E-02  0.1233266E+00
         -2   -1    0    0    0  501 -0.00000000000E+00  0.00000000000E+00  0.13381598165E+03  0.13381598165E+03  0.00000000000E+00 0.  1.
          2   -1    0    0  501    0  0.00000000000E+00 -0.00000000000E+00 -0.10619335706E+03  0.10619335706E+03  0.00000000000E+00 0. -1.
          5    1    1    2  502    0  0.45838840953E+02  0.50285214032E+02 -0.33703979367E+02  0.76077922654E+02  0.47000000000E+01 0. -1.
         -5    1    1    2    0  502  0.26869503856E+01 -0.37110175929E+02  0.45804388958E+02  0.59198960360E+02  0.47000000000E+01 0. -1.
        -11    1    1    2    0    0 -0.47255910130E+02 -0.34327556655E+02  0.41172610165E+02  0.71461080428E+02  0.00000000000E+00 0.  1.
         11    1    1    2    0    0 -0.12698812092E+01  0.21152518553E+02 -0.25650395166E+02  0.33271375258E+02  0.00000000000E+00 0. -1.
<mgrwt>
<rscale>  0 0.12616066E+03</rscale>
<asrwt>0</asrwt>
<pdfrwt beam="2">  1        2 0.16337439E-01 0.13473461E+03</pdfrwt>
<pdfrwt beam="1">  1       -2 0.20587074E-01 0.13473461E+03</pdfrwt>
<totfact> 0.66647547E+03</totfact>
</mgrwt>
</event>
<event>
 6    1  0.4705246E-006  0.2389594E+03  0.7546771E-02  0.1123338E+00
         -1   -1    0    0    0  501 -0.00000000000E+00  0.00000000000E+00  0.41549057876E+02  0.41549057876E+02  0.00000000000E+00 0.  1.
          1   -1    0    0  501    0  0.00000000000E+00 -0.00000000000E+00 -0.16284450235E+04  0.16284450235E+04  0.00000000000E+00 0. -1.
          5    1    1    2  502    0 -0.40880165280E+02  0.24078916075E+02 -0.64180861673E+03  0.64357701375E+03  0.47000000000E+01 0.  1.
         -5    1    1    2    0  502 -0.11013962578E+03  0.11254517227E+03 -0.55891727848E+03  0.58069593347E+03  0.47000000000E+01 0.  1.
        -11    1    1    2    0    0  0.86489130506E+02 -0.39484790742E+02 -0.24381104898E+03  0.26169303774E+03  0.00000000000E+00 0. -1.
         11    1    1    2    0    0  0.64530660549E+02 -0.97139297603E+02 -0.14235902144E+03  0.18402809643E+03  0.00000000000E+00 0.  1.
<mgrwt>
<rscale>  0 0.23475375E+03</rscale>
<asrwt>0</asrwt>
<pdfrwt beam="2">  1        1 0.25053004E+00 0.23895936E+03</pdfrwt>
<pdfrwt beam="1">  1       -1 0.63921619E-02 0.23895936E+03</pdfrwt>
<totfact> 0.71744584E+02</totfact>
</mgrwt>
</event>
<event>
 6    1  0.4705246E-006  0.3192997E+03  0.7546771E-02  0.1075972E+00
          1   -1    0    0  501    0  0.00000000000E+00  0.00000000000E+00  0.26554475354E+03  0.26554475354E+03  0.00000000000E+00 0. -1.
         -1   -1    0    0    0  501 -0.00000000000E+00 -0.00000000000E+00 -0.95984125740E+02  0.95984125740E+02  0.00000000000E+00 0.  1.
          5    1    1    2  502    0  0.19482172518E+02 -0.12582421655E+03  0.51605335491E+02  0.13746450148E+03  0.47000000000E+01 0.  1.
         -5    1    1    2    0  502 -0.17933849578E+02  0.10761769520E+02  0.65404506921E+02  0.68827888021E+02  0.47000000000E+01 0.  1.
        -11    1    1    2    0    0  0.39266215056E+02  0.77146041618E+02  0.48869473399E+02  0.99406100479E+02  0.00000000000E+00 0. -1.
         11    1    1    2    0    0 -0.40814537997E+02  0.37916405410E+02  0.36813119854E+01  0.55830389297E+02  0.00000000000E+00 0.  1.
<mgrwt>
<rscale>  0 0.31929974E+03</rscale>
<asrwt>0</asrwt>
<pdfrwt beam="1">  1        1 0.40853039E-01 0.31929974E+03</pdfrwt>
<pdfrwt beam="2">  1       -1 0.14766789E-01 0.31929974E+03</pdfrwt>
<totfact> 0.33721813E+03</totfact>
</mgrwt>
</event>
<event>
 6    1  0.4705246E-006  0.1856378E+03  0.7546771E-02  0.1166997E+00
         -1   -1    0    0    0  501 -0.00000000000E+00  0.00000000000E+00  0.26765718476E+02  0.26765718476E+02  0.00000000000E+00 0.  1.
          1   -1    0    0  501    0  0.00000000000E+00 -0.00000000000E+00 -0.27057034026E+04  0.27057034026E+04  0.00000000000E+00 0. -1.
          5    1    1    2  502    0 -0.26774009587E+02 -0.48720799870E+02 -0.47119637348E+03  0.47448780418E+03  0.47000000000E+01 0. -1.
         -5    1    1    2    0  502 -0.11042236242E+03  0.52479293001E+02 -0.19295861020E+04  0.19334610907E+04  0.47000000000E+01 0. -1.
        -11    1    1    2    0    0  0.33390798130E+02 -0.37834368089E+01 -0.17492376149E+03  0.17812237964E+03  0.00000000000E+00 0. -1.
         11    1    1    2    0    0  0.10380557388E+03  0.24943677299E-01 -0.10323144717E+03  0.14639784655E+03  0.00000000000E+00 0.  1.
<mgrwt>
<rscale>  0 0.18083564E+03</rscale>
<asrwt>0</asrwt>
<pdfrwt beam="2">  1        1 0.41626228E+00 0.18563778E+03</pdfrwt>
<pdfrwt beam="1">  1       -1 0.41178007E-02 0.18563778E+03</pdfrwt>
<totfact> 0.27779913E+02</totfact>
</mgrwt>
</event>
<event>
 6    1  0.4705246E-006  0.2392505E+03  0.7546771E-02  0.1123008E+00
          2   -1    0    0  501    0  0.00000000000E+00  0.00000000000E+00  0.20691895626E+04  0.20691895626E+04  0.00000000000E+00 0. -1.
         -2   -1    0    0    0  501 -0.00000000000E+00 -0.00000000000E+00 -0.70766732006E+02  0.70766732006E+02  0.00000000000E+00 0.  1.
          5    1    1    2  502    0 -0.16052465625E+03  0.67480364261E+02  0.10245357664E+04  0.10392388520E+04  0.47000000000E+01 0.  1.
         -5    1    1    2    0  502 -0.23558529893E+02  0.20423384242E+02  0.83899601131E+03  0.83958830146E+03  0.47000000000E+01 0.  1.
        -11    1    1    2    0    0  0.10269057306E+03 -0.73227805316E+02  0.33914842932E+02  0.13060582620E+03  0.00000000000E+00 0.  1.
         11    1    1    2    0    0  0.81392613087E+02 -0.14675943188E+02  0.10097620995E+03  0.13052331497E+03  0.00000000000E+00 0. -1.
<mgrwt>
<rscale>  0 0.23523561E+03</rscale>
<asrwt>0</asrwt>
<pdfrwt beam="1">  1        2 0.31833681E+00 0.23925047E+03</pdfrwt>
<pdfrwt beam="2">  1       -2 0.10887191E-01 0.23925047E+03</pdfrwt>
<totfact> 0.39900564E+02</totfact>
</mgrwt>
</event>
<event>
 6    1  0.4705246E-006  0.1581326E+03  0.7546771E-02  0.1199299E+00
         -2   -1    0    0    0  501 -0.00000000000E+00  0.00000000000E+00  0.13205597980E+02  0.13205597980E+02  0.00000000000E+00 0. -1.
          2   -1    0    0  501    0  0.00000000000E+00 -0.00000000000E+00 -0.38574908834E+04  0.38574908834E+04  0.00000000000E+00 0.  1.
          5    1    1    2  502    0 -0.14760557933E+01  0.12199666673E+03 -0.22694305454E+04  0.22727125766E+04  0.47000000000E+01 0. -1.
         -5    1    1    2    0  502  0.91192090450E+01 -0.25436880769E+02 -0.12083041493E+04  0.12086154070E+04  0.47000000000E+01 0. -1.
        -11    1    1    2    0    0  0.23399855773E+02 -0.22389482344E+02 -0.32896139656E+02  0.46162735773E+02  0.00000000000E+00 0. -1.
         11    1    1    2    0    0 -0.31043009025E+02 -0.74170303613E+02 -0.33365445114E+03  0.34320576206E+03  0.00000000000E+00 0.  1.
<mgrwt>
<rscale>  0 0.15095933E+03</rscale>
<asrwt>0</asrwt>
<pdfrwt beam="2">  1        2 0.59346110E+00 0.15813261E+03</pdfrwt>
<pdfrwt beam="1">  1       -2 0.20316272E-02 0.15813261E+03</pdfrwt>
<totfact> 0.45115803E+02</totfact>
</mgrwt>
</event>
<event>
 6    1  0.4705246E-006  0.1176311E+03  0.7546771E-02  0.1314924E+00
         -2   -1    0    0    0  501 -0.00000000000E+00  0.00000000000E+00  0.57112753396E+02  0.57112753396E+02  0.00000000000E+00 0.  1.
          2   -1    0    0  501    0  0.00000000000E+00 -0.00000000000E+00 -0.10749584338E+03  0.10749584338E+03  0.00000000000E+00 0. -1.
          5    1    1    2  502    0  0.18026449462E+02  0.23788509398E+02 -0.84418199412E+02  0.89662525346E+02  0.47000000000E+01 0. -1.
         -5    1    1    2    0  502  0.12855793000E+02 -0.29383033799E+02  0.26113902839E+02  0.41625232856E+02  0.47000000000E+01 0.  1.
        -11    1    1    2    0    0 -0.16959513452E+02 -0.93943243807E+00  0.42403455933E+01  0.17506803266E+02  0.00000000000E+00 0.  1.
         11    1    1    2    0    0 -0.13922729009E+02  0.65339568391E+01  0.36808609959E+01  0.15814035308E+02  0.00000000000E+00 0. -1.
<mgrwt>
<rscale>  0 0.85194719E+02</rscale>
<asrwt>0</asrwt>
<pdfrwt beam="2">  1        2 0.16537822E-01 0.11763114E+03</pdfrwt>
<pdfrwt beam="1">  1       -2 0.87865776E-02 0.11763114E+03</pdfrwt>
<totfact> 0.25693574E+04</totfact>
</mgrwt>
</event>
<event>
 6    1  0.4705246E-006  0.1905353E+03  0.7546771E-02  0.1162807E+00
         -1   -1    0    0    0  501 -0.00000000000E+00  0.00000000000E+00  0.74158728348E+02  0.74158728348E+02  0.00000000000E+00 0.  1.
          1   -1    0    0  501    0  0.00000000000E+00 -0.00000000000E+00 -0.45550668709E+03  0.45550668709E+03  0.00000000000E+00 0. -1.
          5    1    1    2  502    0  0.73766910803E+01  0.46033990558E+02 -0.23627787087E+02  0.52477673163E+02  0.47000000000E+01 0.  1.
         -5    1    1    2    0  502 -0.12686587114E+03  0.33959021378E+02 -0.22781236928E+03  0.26299948667E+03  0.47000000000E+01 0.  1.
        -11    1    1    2    0    0  0.98466411256E+02 -0.40939308765E+02 -0.39922037228E+02  0.11386584301E+03  0.00000000000E+00 0.  1.
         11    1    1    2    0    0  0.21022768801E+02 -0.39053703171E+02 -0.89985765140E+02  0.10032241259E+03  0.00000000000E+00 0. -1.
<mgrwt>
<rscale>  0 0.18526029E+03</rscale>
<asrwt>0</asrwt>
<pdfrwt beam="2">  1        1 0.70077952E-01 0.19053526E+03</pdfrwt>
<pdfrwt beam="1">  1       -1 0.11409035E-01 0.19053526E+03</pdfrwt>
<totfact> 0.25041443E+03</totfact>
</mgrwt>
</event>
<event>
 6    1  0.4705246E-006  0.1497102E+03  0.7546771E-02  0.1208874E+00
         -2   -1    0    0    0  501 -0.00000000000E+00  0.00000000000E+00  0.13948516394E+02  0.13948516394E+02  0.00000000000E+00 0.  1.
          2   -1    0    0  501    0  0.00000000000E+00 -0.00000000000E+00 -0.16474191671E+04  0.16474191671E+04  0.00000000000E+00 0. -1.
          5    1    1    2  502    0 -0.71217716058E+02 -0.25374705096E+02 -0.10497134255E+04  0.10524429697E+04  0.47000000000E+01 0. -1.
         -5    1    1    2    0  502 -0.84799554294E+01  0.46213403555E+02 -0.17041683140E+03  0.17683770734E+03  0.47000000000E+01 0. -1.
        -11    1    1    2    0    0  0.96149625177E+02 -0.36771393691E+02 -0.34266120559E+03  0.35778986519E+03  0.00000000000E+00 0.  1.
         11    1    1    2    0    0 -0.16451953690E+02  0.15932695232E+02 -0.70679188241E+02  0.74297141318E+02  0.00000000000E+00 0. -1.
<mgrwt>
<rscale>  0 0.14336343E+03</rscale>
<asrwt>0</asrwt>
<pdfrwt beam="2">  1        2 0.25344921E+00 0.14971018E+03</pdfrwt>
<pdfrwt beam="1">  1       -2 0.21459247E-02 0.14971018E+03</pdfrwt>
<totfact> 0.78109019E+03</totfact>
</mgrwt>
</event>
<event>
 6    1  0.4705246E-006  0.1275225E+03  0.7546771E-02  0.1245475E+00
          2   -1    0    0  501    0  0.00000000000E+00  0.00000000000E+00  0.52750424921E+02  0.52750424921E+02  0.00000000000E+00 0. -1.
         -2   -1    0    0    0  501 -0.00000000000E+00 -0.00000000000E+00 -0.29531192330E+03  0.29531192330E+03  0.00000000000E+00 0.  1.
          5    1    1    2  502    0  0.62754587862E+02  0.12724372786E+01 -0.62517067773E+02  0.88714323293E+02  0.47000000000E+01 0.  1.
         -5    1    1    2    0  502 -0.46380427470E+02 -0.20463373773E+02  0.50446167412E+01  0.51160843196E+02  0.47000000000E+01 0.  1.
        -11    1    1    2    0    0 -0.39401707035E+02  0.63533078954E+01 -0.17573921345E+03  0.18021412315E+03  0.00000000000E+00 0.  1.
         11    1    1    2    0    0  0.23027546643E+02  0.12837628599E+02 -0.93498338950E+01  0.27973058580E+02  0.00000000000E+00 0. -1.
<mgrwt>
<rscale>  0 0.11856987E+03</rscale>
<asrwt>0</asrwt>
<pdfrwt beam="1">  1        2 0.81154500E-02 0.12752247E+03</pdfrwt>
<pdfrwt beam="2">  1       -2 0.45432604E-01 0.12752247E+03</pdfrwt>
<totfact> 0.36911813E+03</totfact>
</mgrwt>
</event>
<event>
 6    1  0.1047321E-005  0.2585373E+03  0.7546771E-02  0.1110741E+00
          1   -1    0    0  501    0  0.00000000000E+00  0.00000000000E+00  0.11324020737E+04  0.11324020737E+04  0.00000000000E+00 0. -1.
         -1   -1    0    0    0  501 -0.00000000000E+00 -0.00000000000E+00 -0.55671403742E+02  0.55671403742E+02  0.00000000000E+00 0.  1.
          5    1    1    2  502    0 -0.69757085369E+02 -0.13345977817E+03  0.20330884068E+03  0.25304967506E+03  0.47000000000E+01 0.  1.
         -5    1    1    2    0  502 -0.82835441295E+02 -0.33668604374E+02  0.29566465741E+03  0.30892550056E+03  0.47000000000E+01 0.  1.
        -11    1    1    2    0    0  0.60079930768E+02  0.12190126893E+03  0.28465635103E+03  0.31543423345E+03  0.00000000000E+00 0.  1.
         11    1    1    2    0    0  0.92512595896E+02  0.45227113616E+02  0.29310082082E+03  0.31066406836E+03  0.00000000000E+00 0. -1.
<mgrwt>
<rscale>  0 0.25409951E+03</rscale>
<asrwt>0</asrwt>
<pdfrwt beam="1">  1        1 0.17421569E+00 0.25853732E+03</pdfrwt>
<pdfrwt beam="2">  1       -1 0.85648322E-02 0.25853732E+03</pdfrwt>
<totfact> 0.99288989E+02</totfact>
</mgrwt>
</event>
<event>
 6    1  0.1251700E-005  0.3131017E+03  0.7546771E-02  0.1080223E+00
         -1   -1    0    0    0  501 -0.00000000000E+00  0.00000000000E+00  0.12884382731E+03  0.12884382731E+03  0.00000000000E+00 0.  1.
          1   -1    0    0  501    0  0.00000000000E+00 -0.00000000000E+00 -0.73936266998E+03  0.73936266998E+03  0.00000000000E+00 0. -1.
          5    1    1    2  502    0  0.15125298396E+02  0.85543146816E+01  0.72187900619E+01  0.19394635372E+02  0.47000000000E+01 0. -1.
         -5    1    1    2    0  502  0.26655497426E+03 -0.63921600535E+02 -0.35555983055E+03  0.44897929620E+03  0.47000000000E+01 0. -1.
        -11    1    1    2    0    0 -0.17392766317E+03  0.41986977350E+02 -0.10090961378E+03  0.20541783866E+03  0.00000000000E+00 0.  1.
         11    1    1    2    0    0 -0.10775260948E+03  0.13380308503E+02 -0.16126818841E+03  0.19441472706E+03  0.00000000000E+00 0. -1.
<mgrwt>
<rscale>  0 0.31025661E+03</rscale>
<asrwt>0</asrwt>
<pdfrwt beam="2">  1        1 0.11374810E+00 0.31310168E+03</pdfrwt>
<pdfrwt beam="1">  1       -1 0.19822128E-01 0.31310168E+03</pdfrwt>
<totfact> 0.53303057E+02</totfact>
</mgrwt>
</event>
<event>
 6    1  0.4705246E-006  0.1312162E+03  0.7546771E-02  0.1237271E+00
          2   -1    0    0  501    0  0.00000000000E+00  0.00000000000E+00  0.13359769107E+03  0.13359769107E+03  0.00000000000E+00 0. -1.
         -2   -1    0    0    0  501 -0.00000000000E+00 -0.00000000000E+00 -0.15524149916E+03  0.15524149916E+03  0.00000000000E+00 0.  1.
          5    1    1    2  502    0 -0.21509511301E+02 -0.19569597032E+02  0.89446032466E+02  0.94171709809E+02  0.47000000000E+01 0. -1.
         -5    1    1    2    0  502 -0.11767421395E+02  0.50940490251E+02 -0.17676952380E+02  0.55389262486E+02  0.47000000000E+01 0.  1.
        -11    1    1    2    0    0 -0.12278292197E+02  0.19883660334E+02  0.35502885543E-01  0.23369160618E+02  0.00000000000E+00 0.  1.
         11    1    1    2    0    0  0.45555224893E+02 -0.51254553552E+02 -0.93448391068E+02  0.11590905732E+03  0.00000000000E+00 0. -1.
<mgrwt>
<rscale>  0 0.12360145E+03</rscale>
<asrwt>0</asrwt>
<pdfrwt beam="1">  1        2 0.20553491E-01 0.13121617E+03</pdfrwt>
<pdfrwt beam="2">  1       -2 0.23883308E-01 0.13121617E+03</pdfrwt>
<totfact> 0.39674494E+03</totfact>
</mgrwt>
</event>
<event>
 6    1  0.4705246E-006  0.1321039E+03  0.7546771E-02  0.1238028E+00
         -3   -1    0    0    0  501 -0.00000000000E+00  0.00000000000E+00  0.12588438911E+03  0.12588438911E+03  0.00000000000E+00 0.  1.
          3   -1    0    0  501    0  0.00000000000E+00 -0.00000000000E+00 -0.10686991750E+03  0.10686991750E+03  0.00000000000E+00 0. -1.
          5    1    1    2  502    0 -0.11202262242E+02 -0.30604039797E+02 -0.55373605698E+02  0.64423785508E+02  0.47000000000E+01 0. -1.
         -5    1    1    2    0  502 -0.26139951710E+02  0.98173985735E+01  0.61635435198E+02  0.67828425179E+02  0.47000000000E+01 0. -1.
        -11    1    1    2    0    0  0.36278835579E+02 -0.22692421910E+02  0.31506398461E+02  0.53138997610E+02  0.00000000000E+00 0.  1.
         11    1    1    2    0    0  0.10633783731E+01  0.43479063133E+02 -0.18753756353E+02  0.47363098313E+02  0.00000000000E+00 0. -1.
<mgrwt>
<rscale>  0 0.12312587E+03</rscale>
<asrwt>0</asrwt>
<pdfrwt beam="2">  1        3 0.16441526E-01 0.13210389E+03</pdfrwt>
<pdfrwt beam="1">  1       -3 0.19366829E-01 0.13210389E+03</pdfrwt>
<totfact> 0.17188939E+03</totfact>
</mgrwt>
</event>
<event>
 6    1  0.4705246E-006  0.2591439E+03  0.7546771E-02  0.1109862E+00
          2   -1    0    0  501    0  0.00000000000E+00  0.00000000000E+00  0.11638032246E+04  0.11638032246E+04  0.00000000000E+00 0. -1.
         -2   -1    0    0    0  501 -0.00000000000E+00 -0.00000000000E+00 -0.57717515224E+02  0.57717515224E+02  0.00000000000E+00 0.  1.
          5    1    1    2  502    0  0.77030084185E+02  0.11970029373E+03  0.32930645703E+03  0.35878493116E+03  0.47000000000E+01 0. -1.
         -5    1    1    2    0  502 -0.41855972660E+02  0.10456171080E+03  0.38054702008E+03  0.39689192270E+03  0.47000000000E+01 0. -1.
        -11    1    1    2    0    0 -0.32422141396E+02 -0.50055722945E+02  0.17092249262E+03  0.18102836556E+03  0.00000000000E+00 0. -1.
         11    1    1    2    0    0 -0.27519701293E+01 -0.17420628158E+03  0.22530973962E+03  0.28481552038E+03  0.00000000000E+00 0.  1.
<mgrwt>
<rscale>  0 0.25552545E+03</rscale>
<asrwt>0</asrwt>
<pdfrwt beam="1">  1        2 0.17904663E+00 0.25914388E+03</pdfrwt>
<pdfrwt beam="2">  1       -2 0.88796186E-02 0.25914388E+03</pdfrwt>
<totfact> 0.16814771E+03</totfact>
</mgrwt>
</event>
<event>
 6    1  0.4705246E-006  0.1286666E+03  0.7546771E-02  0.1245391E+00
          4   -1    0    0  501    0  0.00000000000E+00  0.00000000000E+00  0.15061872740E+03  0.15061872740E+03  0.00000000000E+00 0.  1.
         -4   -1    0    0    0  501 -0.00000000000E+00 -0.00000000000E+00 -0.84064869521E+02  0.84064869521E+02  0.00000000000E+00 0. -1.
          5    1    1    2  502    0  0.46897813607E+02  0.63244908457E+01 -0.22227668519E+02  0.52493460101E+02  0.47000000000E+01 0.  1.
         -5    1    1    2    0  502 -0.30916926317E+02  0.19658042918E+02  0.80870798138E+02  0.88907091819E+02  0.47000000000E+01 0.  1.
        -11    1    1    2    0    0 -0.40388648694E+02 -0.36198160356E+02 -0.17105940784E+02  0.56869701657E+02  0.00000000000E+00 0. -1.
         11    1    1    2    0    0  0.24407761404E+02  0.10215626592E+02  0.25016669040E+02  0.36413343341E+02  0.00000000000E+00 0.  1.
<mgrwt>
<rscale>  0 0.11862010E+03</rscale>
<asrwt>0</asrwt>
<pdfrwt beam="1">  1        4 0.23172112E-01 0.12866662E+03</pdfrwt>
<pdfrwt beam="2">  1       -4 0.12933057E-01 0.12866662E+03</pdfrwt>
<totfact> 0.13705531E+03</totfact>
</mgrwt>
</event>
<event>
 6    1  0.4705246E-006  0.3176004E+03  0.7546771E-02  0.1076759E+00
          2   -1    0    0  501    0  0.00000000000E+00  0.00000000000E+00  0.50484421533E+03  0.50484421533E+03  0.00000000000E+00 0. -1.
         -2   -1    0    0    0  501 -0.00000000000E+00 -0.00000000000E+00 -0.49951056640E+02  0.49951056640E+02  0.00000000000E+00 0.  1.
          5    1    1    2  502    0 -0.18202195232E+02  0.10589645473E+03  0.12594920570E+03  0.16562207417E+03  0.47000000000E+01 0.  1.
         -5    1    1    2    0  502  0.25329918006E+02  0.28671708070E+01  0.18484545700E+03  0.18665411431E+03  0.47000000000E+01 0.  1.
        -11    1    1    2    0    0  0.64140161504E+00 -0.46740999515E+02  0.14402878974E+01  0.46767583441E+02  0.00000000000E+00 0.  1.
         11    1    1    2    0    0 -0.77691243887E+01 -0.62022626022E+02  0.14265820809E+03  0.15575150005E+03  0.00000000000E+00 0. -1.
<mgrwt>
<rscale>  0 0.31760039E+03</rscale>
<asrwt>0</asrwt>
<pdfrwt beam="1">  1        2 0.77668337E-01 0.31760039E+03</pdfrwt>
<pdfrwt beam="2">  1       -2 0.76847783E-02 0.31760039E+03</pdfrwt>
<totfact> 0.62063680E+03</totfact>
</mgrwt>
</event>
<event>
 6    1  0.4705246E-006  0.1633260E+03  0.7546771E-02  0.1189668E+00
         -1   -1    0    0    0  501 -0.00000000000E+00  0.00000000000E+00  0.35235749546E+02  0.35235749546E+02  0.00000000000E+00 0.  1.
          1   -1    0    0  501    0  0.00000000000E+00 -0.00000000000E+00 -0.12194830308E+04  0.12194830308E+04  0.00000000000E+00 0. -1.
          5    1    1    2  502    0 -0.11430715609E+03 -0.61727809391E+02 -0.79386475342E+03  0.80443755824E+03  0.47000000000E+01 0. -1.
         -5    1    1    2    0  502  0.29486977036E+02 -0.14297064932E+02 -0.23078868993E+03  0.23315101818E+03  0.47000000000E+01 0.  1.
        -11    1    1    2    0    0  0.87416853482E+02  0.92246167553E+02 -0.15423880229E+03  0.19985161954E+03  0.00000000000E+00 0.  1.
         11    1    1    2    0    0 -0.25966744232E+01 -0.16221293230E+02 -0.53550356297E+01  0.17278584395E+02  0.00000000000E+00 0. -1.
<mgrwt>
<rscale>  0 0.15914286E+03</rscale>
<asrwt>0</asrwt>
<pdfrwt beam="2">  1        1 0.18761279E+00 0.16332598E+03</pdfrwt>
<pdfrwt beam="1">  1       -1 0.54208842E-02 0.16332598E+03</pdfrwt>
<totfact> 0.17272097E+03</totfact>
</mgrwt>
</event>
<event>
 6    1  0.4705246E-006  0.1301179E+03  0.7546771E-02  0.1240281E+00
         -1   -1    0    0    0  501 -0.00000000000E+00  0.00000000000E+00  0.70556387163E+02  0.70556387163E+02  0.00000000000E+00 0.  1.
          1   -1    0    0  501    0  0.00000000000E+00 -0.00000000000E+00 -0.19694381177E+03  0.19694381177E+03  0.00000000000E+00 0. -1.
          5    1    1    2  502    0 -0.12962286058E+02  0.43552735073E+02 -0.20657814641E+02  0.50136781887E+02  0.47000000000E+01 0. -1.
         -5    1    1    2    0  502  0.23340405860E+02 -0.78164325053E+02 -0.80204358246E+02  0.11449570009E+03  0.47000000000E+01 0. -1.
        -11    1    1    2    0    0  0.35892652283E+02 -0.75239442033E+01 -0.13884890145E+02  0.39213293646E+02  0.00000000000E+00 0.  1.
         11    1    1    2    0    0 -0.46270772084E+02  0.42135534183E+02 -0.11640361580E+02  0.63654423318E+02  0.00000000000E+00 0. -1.
<mgrwt>
<rscale>  0 0.12172303E+03</rscale>
<asrwt>0</asrwt>
<pdfrwt beam="2">  1        1 0.30299048E-01 0.13011793E+03</pdfrwt>
<pdfrwt beam="1">  1       -1 0.10854829E-01 0.13011793E+03</pdfrwt>
<totfact> 0.75795708E+03</totfact>
</mgrwt>
</event>
<event>
 6    1  0.4705246E-006  0.2729541E+03  0.7546771E-02  0.1101533E+00
          1   -1    0    0  501    0  0.00000000000E+00  0.00000000000E+00  0.14861428102E+04  0.14861428102E+04  0.00000000000E+00 0. -1.
         -1   -1    0    0    0  501 -0.00000000000E+00 -0.00000000000E+00 -0.54751906177E+02  0.54751906177E+02  0.00000000000E+00 0.  1.
          5    1    1    2  502    0 -0.10042371419E+02  0.12749464441E+02  0.26085350778E+03  0.26140015415E+03  0.47000000000E+01 0. -1.
         -5    1    1    2    0  502  0.82001452186E+02  0.21898214040E+03  0.74662860822E+03  0.78240257194E+03  0.47000000000E+01 0. -1.
        -11    1    1    2    0    0 -0.55444880205E+02 -0.12897918997E+03  0.15701998546E+03  0.21063010711E+03  0.00000000000E+00 0.  1.
         11    1    1    2    0    0 -0.16514200562E+02 -0.10275241486E+03  0.26688880261E+03  0.28646188322E+03  0.00000000000E+00 0. -1.
<mgrwt>
<rscale>  0 0.26955730E+03</rscale>
<asrwt>0</asrwt>
<pdfrwt beam="1">  1        1 0.22863732E+00 0.27295406E+03</pdfrwt>
<pdfrwt beam="2">  1       -1 0.84233713E-02 0.27295406E+03</pdfrwt>
<totfact> 0.58217647E+02</totfact>
</mgrwt>
</event>
<event>
 6    1  0.4705246E-006  0.1442767E+03  0.7546771E-02  0.1228771E+00
         -1   -1    0    0    0  501 -0.00000000000E+00  0.00000000000E+00  0.11094780360E+03  0.11094780360E+03  0.00000000000E+00 0.  1.
          1   -1    0    0  501    0  0.00000000000E+00 -0.00000000000E+00 -0.13456432752E+03  0.13456432752E+03  0.00000000000E+00 0. -1.
          5    1    1    2  502    0 -0.57936671008E+02 -0.44306231646E+02 -0.56527833022E+02  0.92396893434E+02  0.47000000000E+01 0. -1.
         -5    1    1    2    0  502  0.55256645239E+02  0.13137050354E+02  0.12701953496E+02  0.58389284613E+02  0.47000000000E+01 0.  1.
        -11    1    1    2    0    0  0.15934741562E+02 -0.51036350814E+01 -0.28205684800E+02  0.32795178529E+02  0.00000000000E+00 0. -1.
         11    1    1    2    0    0 -0.13254715793E+02  0.36272816373E+02  0.48415040401E+02  0.61930774542E+02  0.00000000000E+00 0.  1.
<mgrwt>
<rscale>  0 0.12911760E+03</rscale>
<asrwt>0</asrwt>
<pdfrwt beam="2">  1        1 0.20702204E-01 0.14427669E+03</pdfrwt>
<pdfrwt beam="1">  1       -1 0.17068893E-01 0.14427669E+03</pdfrwt>
<totfact> 0.60854619E+03</totfact>
</mgrwt>
</event>
<event>
 6    1  0.4705246E-006  0.1307905E+03  0.7546771E-02  0.1234561E+00
         -2   -1    0    0    0  501 -0.00000000000E+00  0.00000000000E+00  0.20968211768E+02  0.20968211768E+02  0.00000000000E+00 0.  1.
          2   -1    0    0  501    0  0.00000000000E+00 -0.00000000000E+00 -0.70203505291E+03  0.70203505291E+03  0.00000000000E+00 0. -1.
          5    1    1    2  502    0  0.18279701438E+02 -0.16685271718E+02 -0.25822731932E+03  0.25945324091E+03  0.47000000000E+01 0. -1.
         -5    1    1    2    0  502 -0.78456551965E+02  0.23303516315E+01 -0.15223487632E+03  0.17134295624E+03  0.47000000000E+01 0.  1.
        -11    1    1    2    0    0 -0.19945699091E+02  0.18194459575E+02 -0.10170470660E+03  0.10522697666E+03  0.00000000000E+00 0.  1.
         11    1    1    2    0    0  0.80122549619E+02 -0.38395394890E+01 -0.16889993891E+03  0.18698009088E+03  0.00000000000E+00 0. -1.
<mgrwt>
<rscale>  0 0.12532574E+03</rscale>
<asrwt>0</asrwt>
<pdfrwt beam="2">  1        2 0.10800537E+00 0.13079048E+03</pdfrwt>
<pdfrwt beam="1">  1       -2 0.32258793E-02 0.13079048E+03</pdfrwt>
<totfact> 0.15056350E+04</totfact>
</mgrwt>
</event>
<event>
 6    1  0.4705246E-006  0.1443137E+03  0.7546771E-02  0.1217806E+00
         -1   -1    0    0    0  501 -0.00000000000E+00  0.00000000000E+00  0.85219107213E+02  0.85219107213E+02  0.00000000000E+00 0.  1.
          1   -1    0    0  501    0  0.00000000000E+00 -0.00000000000E+00 -0.20064055480E+03  0.20064055480E+03  0.00000000000E+00 0. -1.
          5    1    1    2  502    0  0.18845970413E+02  0.52462537050E+02  0.85316593961E+01  0.56589465509E+02  0.47000000000E+01 0. -1.
         -5    1    1    2    0  502  0.51932575625E+02 -0.38554711271E+02 -0.84444123696E+02  0.10647233537E+03  0.47000000000E+01 0. -1.
        -11    1    1    2    0    0 -0.22608291619E+02 -0.27219291847E+02 -0.59293200005E+02  0.69048593508E+02  0.00000000000E+00 0. -1.
         11    1    1    2    0    0 -0.48170254419E+02  0.13311466068E+02  0.19784216716E+02  0.53749267630E+02  0.00000000000E+00 0.  1.
<mgrwt>
<rscale>  0 0.13672445E+03</rscale>
<asrwt>0</asrwt>
<pdfrwt beam="2">  1        1 0.30867778E-01 0.14431372E+03</pdfrwt>
<pdfrwt beam="1">  1       -1 0.13110632E-01 0.14431372E+03</pdfrwt>
<totfact> 0.55728304E+03</totfact>
</mgrwt>
</event>
<event>
 6    1  0.4705246E-006  0.1934721E+03  0.7546771E-02  0.1162920E+00
         -2   -1    0    0    0  501 -0.00000000000E+00  0.00000000000E+00  0.27773765613E+03  0.27773765613E+03  0.00000000000E+00 0.  1.
          2   -1    0    0  501    0  0.00000000000E+00 -0.00000000000E+00 -0.43143356156E+03  0.43143356156E+03  0.00000000000E+00 0. -1.
          5    1    1    2  502    0 -0.34672189184E+01  0.40014432772E+02 -0.91931358881E+02  0.10043227162E+03  0.47000000000E+01 0. -1.
         -5    1    1    2    0  502  0.15041718497E+03 -0.25437067555E+02 -0.29059324251E+03  0.32823603783E+03  0.47000000000E+01 0. -1.
        -11    1    1    2    0    0 -0.94985046725E+02  0.42431289064E+01  0.89354578303E+02  0.13047759926E+03  0.00000000000E+00 0. -1.
         11    1    1    2    0    0 -0.51964919325E+02 -0.18820494123E+02  0.13947411766E+03  0.15002530899E+03  0.00000000000E+00 0.  1.
<mgrwt>
<rscale>  0 0.18513906E+03</rscale>
<asrwt>0</asrwt>
<pdfrwt beam="2">  1        2 0.66374394E-01 0.19347209E+03</pdfrwt>
<pdfrwt beam="1">  1       -2 0.42728870E-01 0.19347209E+03</pdfrwt>
<totfact> 0.38861127E+02</totfact>
</mgrwt>
</event>
<event>
 6    1  0.4705246E-006  0.3141418E+03  0.7546771E-02  0.1078377E+00
         -2   -1    0    0    0  501 -0.00000000000E+00  0.00000000000E+00  0.35391717493E+02  0.35391717493E+02  0.00000000000E+00 0.  1.
          2   -1    0    0  501    0  0.00000000000E+00 -0.00000000000E+00 -0.69709167497E+03  0.69709167497E+03  0.00000000000E+00 0. -1.
          5    1    1    2  502    0  0.10503986388E+03 -0.18089103964E+02 -0.23203741351E+03  0.25538997622E+03  0.47000000000E+01 0. -1.
         -5    1    1    2    0  502 -0.45573617639E+01  0.50409682502E+02 -0.20671254175E+03  0.21287101858E+03  0.47000000000E+01 0. -1.
        -11    1    1    2    0    0 -0.64250026715E+02  0.14682570835E+02 -0.54166626239E+02  0.85309244618E+02  0.00000000000E+00 0.  1.
         11    1    1    2    0    0 -0.36232475398E+02 -0.47003149373E+02 -0.16878337599E+03  0.17891315305E+03  0.00000000000E+00 0. -1.
<mgrwt>
<rscale>  0 0.31414183E+03</rscale>
<asrwt>0</asrwt>
<pdfrwt beam="2">  1        2 0.10724487E+00 0.31414183E+03</pdfrwt>
<pdfrwt beam="1">  1       -2 0.54448796E-02 0.31414183E+03</pdfrwt>
<totfact> 0.72548647E+03</totfact>
</mgrwt>
</event>
<event>
 6    1  0.4705246E-006  0.1593426E+03  0.7546771E-02  0.1197723E+00
         -2   -1    0    0    0  501 -0.00000000000E+00  0.00000000000E+00  0.11784862873E+02  0.11784862873E+02  0.00000000000E+00 0.  1.
          2   -1    0    0  501    0  0.00000000000E+00 -0.00000000000E+00 -0.28389116465E+04  0.28389116465E+04  0.00000000000E+00 0. -1.
          5    1    1    2  502    0 -0.52924566538E+02  0.27965564834E+02 -0.49313478278E+03  0.49677669687E+03  0.47000000000E+01 0.  1.
         -5    1    1    2    0  502  0.39909560884E+02  0.69990227772E+02 -0.18575808132E+04  0.18593332064E+04  0.47000000000E+01 0.  1.
        -11    1    1    2    0    0  0.47157778725E+02 -0.52155204076E+02 -0.19140196959E+03  0.20390864467E+03  0.00000000000E+00 0.  1.
         11    1    1    2    0    0 -0.34142773071E+02 -0.45800588530E+02 -0.28500921806E+03  0.29067796139E+03  0.00000000000E+00 0. -1.
<mgrwt>
<rscale>  0 0.15226032E+03</rscale>
<asrwt>0</asrwt>
<pdfrwt beam="2">  1        2 0.43675622E+00 0.15934260E+03</pdfrwt>
<pdfrwt beam="1">  1       -2 0.18130534E-02 0.15934260E+03</pdfrwt>
<totfact> 0.23436945E+03</totfact>
</mgrwt>
</event>
<event>
 6    1  0.4705246E-006  0.1849616E+03  0.7546771E-02  0.1197613E+00
          2   -1    0    0  501    0  0.00000000000E+00  0.00000000000E+00  0.37332048635E+03  0.37332048635E+03  0.00000000000E+00 0. -1.
         -2   -1    0    0    0  501 -0.00000000000E+00 -0.00000000000E+00 -0.54899280561E+02  0.54899280561E+02  0.00000000000E+00 0.  1.
          5    1    1    2  502    0 -0.95620994910E+02 -0.37781548415E+02  0.27335289777E+03  0.29208683090E+03  0.47000000000E+01 0. -1.
         -5    1    1    2    0  502  0.41392825253E+02 -0.10926483248E+01  0.47997652145E+01  0.41948630596E+02  0.47000000000E+01 0.  1.
        -11    1    1    2    0    0  0.64031534257E+02  0.33503035401E+02  0.27776575153E+02  0.77421113965E+02  0.00000000000E+00 0.  1.
         11    1    1    2    0    0 -0.98033645999E+01  0.53711613395E+01  0.12491967652E+02  0.16763191445E+02  0.00000000000E+00 0. -1.
<mgrwt>
<rscale>  0 0.15235154E+03</rscale>
<asrwt>0</asrwt>
<pdfrwt beam="1">  1        2 0.57433919E-01 0.18496158E+03</pdfrwt>
<pdfrwt beam="2">  1       -2 0.84460434E-02 0.18496158E+03</pdfrwt>
<totfact> 0.72693315E+03</totfact>
</mgrwt>
</event>
<event>
 6    1  0.4705246E-006  0.3360020E+03  0.7546771E-02  0.1068512E+00
         -2   -1    0    0    0  501 -0.00000000000E+00  0.00000000000E+00  0.12817761100E+03  0.12817761100E+03  0.00000000000E+00 0.  1.
          2   -1    0    0  501    0  0.00000000000E+00 -0.00000000000E+00 -0.22019706152E+03  0.22019706152E+03  0.00000000000E+00 0. -1.
          5    1    1    2  502    0  0.97633815257E+01 -0.72507608600E+02 -0.27905639644E+02  0.78444194481E+02  0.47000000000E+01 0.  1.
         -5    1    1    2    0  502 -0.30240432724E+01  0.11093972817E+02 -0.13684527537E+03  0.13740793450E+03  0.47000000000E+01 0.  1.
        -11    1    1    2    0    0 -0.15746718438E+02  0.16729748812E+02  0.82725945260E+02  0.85857007030E+02  0.00000000000E+00 0.  1.
         11    1    1    2    0    0  0.90073801848E+01  0.44683886971E+02 -0.99944807681E+01  0.46665536518E+02  0.00000000000E+00 0. -1.
<mgrwt>
<rscale>  0 0.33600198E+03</rscale>
<asrwt>0</asrwt>
<pdfrwt beam="2">  1        2 0.33876471E-01 0.33600198E+03</pdfrwt>
<pdfrwt beam="1">  1       -2 0.19719633E-01 0.33600198E+03</pdfrwt>
<totfact> 0.33103226E+03</totfact>
</mgrwt>
</event>
<event>
 6    1  0.4705246E-006  0.1297862E+03  0.7546771E-02  0.1240665E+00
          2   -1    0    0  501    0  0.00000000000E+00  0.00000000000E+00  0.34832449016E+03  0.34832449016E+03  0.00000000000E+00 0.  1.
         -2   -1    0    0    0  501 -0.00000000000E+00 -0.00000000000E+00 -0.40960396862E+02  0.40960396862E+02  0.00000000000E+00 0. -1.
          5    1    1    2  502    0 -0.42120512249E+02 -0.19154060750E+02  0.10851672163E+03  0.11806347644E+03  0.47000000000E+01 0. -1.
         -5    1    1    2    0  502  0.76450062028E+02  0.25566378646E+02  0.11761217818E+03  0.14266382217E+03  0.47000000000E+01 0. -1.
        -11    1    1    2    0    0 -0.29515853239E+02  0.37970022886E+02  0.65422183177E+02  0.81197107596E+02  0.00000000000E+00 0.  1.
         11    1    1    2    0    0 -0.48136965394E+01 -0.44382340782E+02  0.15813010308E+02  0.47360480811E+02  0.00000000000E+00 0. -1.
<mgrwt>
<rscale>  0 0.12148661E+03</rscale>
<asrwt>0</asrwt>
<pdfrwt beam="1">  1        2 0.53588381E-01 0.12978615E+03</pdfrwt>
<pdfrwt beam="2">  1       -2 0.63015997E-02 0.12978615E+03</pdfrwt>
<totfact> 0.11997576E+04</totfact>
</mgrwt>
</event>
<event>
 6    1  0.4705246E-006  0.1559745E+03  0.7546771E-02  0.1201222E+00
         -2   -1    0    0    0  501 -0.00000000000E+00  0.00000000000E+00  0.46933287689E+02  0.46933287689E+02  0.00000000000E+00 0.  1.
          2   -1    0    0  501    0  0.00000000000E+00 -0.00000000000E+00 -0.44005168084E+03  0.44005168084E+03  0.00000000000E+00 0. -1.
          5    1    1    2  502    0 -0.21324665377E+02  0.48633530309E+02 -0.11803942211E+02  0.54602057429E+02  0.47000000000E+01 0.  1.
         -5    1    1    2    0  502 -0.51576777939E+02  0.95920915762E+01 -0.21031805253E+03  0.21681315796E+03  0.47000000000E+01 0.  1.
        -11    1    1    2    0    0 -0.16059082446E+02 -0.34951184210E+02 -0.62042247613E+02  0.72998081451E+02  0.00000000000E+00 0.  1.
         11    1    1    2    0    0  0.88960525762E+02 -0.23274437676E+02 -0.10895415080E+03  0.14257167169E+03  0.00000000000E+00 0. -1.
<mgrwt>
<rscale>  0 0.14939207E+03</rscale>
<asrwt>0</asrwt>
<pdfrwt beam="2">  1        2 0.67700259E-01 0.15597448E+03</pdfrwt>
<pdfrwt beam="1">  1       -2 0.72205057E-02 0.15597448E+03</pdfrwt>
<totfact> 0.76846545E+03</totfact>
</mgrwt>
</event>
<event>
 6    1  0.4705246E-006  0.1248706E+03  0.7546771E-02  0.1241908E+00
          2   -1    0    0  501    0  0.00000000000E+00  0.00000000000E+00  0.13782110684E+03  0.13782110684E+03  0.00000000000E+00 0.  1.
         -2   -1    0    0    0  501 -0.00000000000E+00 -0.00000000000E+00 -0.10717113219E+03  0.10717113219E+03  0.00000000000E+00 0. -1.
          5    1    1    2  502    0 -0.47457244325E+02 -0.14044370402E+02  0.67182248409E+02  0.83576186083E+02  0.47000000000E+01 0. -1.
         -5    1    1    2    0  502  0.46618243072E+02  0.78756743304E+01 -0.17754918501E+02  0.50720942068E+02  0.47000000000E+01 0. -1.
        -11    1    1    2    0    0  0.14077210727E+01 -0.40103845881E+02  0.24764493820E+02  0.47154854334E+02  0.00000000000E+00 0.  1.
         11    1    1    2    0    0 -0.56871981991E+00  0.46272541952E+02 -0.43541849083E+02  0.63540256551E+02  0.00000000000E+00 0. -1.
<mgrwt>
<rscale>  0 0.12072359E+03</rscale>
<asrwt>0</asrwt>
<pdfrwt beam="1">  1        2 0.21203247E-01 0.12487056E+03</pdfrwt>
<pdfrwt beam="2">  1       -2 0.16487866E-01 0.12487056E+03</pdfrwt>
<totfact> 0.71392866E+03</totfact>
</mgrwt>
</event>
<event>
 6    1  0.4705246E-006  0.1726826E+03  0.7546771E-02  0.1181209E+00
          2   -1    0    0  501    0  0.00000000000E+00  0.00000000000E+00  0.62328282672E+03  0.62328282672E+03  0.00000000000E+00 0. -1.
         -2   -1    0    0    0  501 -0.00000000000E+00 -0.00000000000E+00 -0.44737268464E+02  0.44737268464E+02  0.00000000000E+00 0.  1.
          5    1    1    2  502    0  0.25589851631E+02 -0.16548423346E+02  0.10934103653E+03  0.11360564727E+03  0.47000000000E+01 0. -1.
         -5    1    1    2    0  502 -0.27198670073E+02  0.13568383540E+03  0.28306669027E+03  0.31511698143E+03  0.47000000000E+01 0. -1.
        -11    1    1    2    0    0 -0.27269282544E+02 -0.26786077146E+02  0.10914148937E+03  0.11564156866E+03  0.00000000000E+00 0. -1.
         11    1    1    2    0    0  0.28878100987E+02 -0.92349334908E+02  0.76996342083E+02  0.12365589783E+03  0.00000000000E+00 0.  1.
<mgrwt>
<rscale>  0 0.16681623E+03</rscale>
<asrwt>0</asrwt>
<pdfrwt beam="1">  1        2 0.95889660E-01 0.17268257E+03</pdfrwt>
<pdfrwt beam="2">  1       -2 0.68826571E-02 0.17268257E+03</pdfrwt>
<totfact> 0.56379881E+03</totfact>
</mgrwt>
</event>
<event>
 6    1  0.4705246E-006  0.1259833E+03  0.7546771E-02  0.1246347E+00
         -1   -1    0    0    0  501 -0.00000000000E+00  0.00000000000E+00  0.23272656541E+02  0.23272656541E+02  0.00000000000E+00 0.  1.
          1   -1    0    0  501    0  0.00000000000E+00 -0.00000000000E+00 -0.11523159468E+04  0.11523159468E+04  0.00000000000E+00 0. -1.
          5    1    1    2  502    0  0.23171691702E+02 -0.17673178994E+02 -0.88199303209E+03  0.88248686517E+03  0.47000000000E+01 0. -1.
         -5    1    1    2    0  502 -0.29014705936E+02  0.35748050489E+02 -0.14505100948E+03  0.15225525155E+03  0.47000000000E+01 0.  1.
        -11    1    1    2    0    0  0.34421198587E+02 -0.44992947704E+02 -0.49072825032E+02  0.74948825287E+02  0.00000000000E+00 0.  1.
         11    1    1    2    0    0 -0.28578184353E+02  0.26918076209E+02 -0.52926423680E+02  0.65897661349E+02  0.00000000000E+00 0. -1.
<mgrwt>
<rscale>  0 0.11805136E+03</rscale>
<asrwt>0</asrwt>
<pdfrwt beam="2">  1        1 0.17727941E+00 0.12598327E+03</pdfrwt>
<pdfrwt beam="1">  1       -1 0.35804081E-02 0.12598327E+03</pdfrwt>
<totfact> 0.35270508E+03</totfact>
</mgrwt>
</event>
<event>
 6    1  0.4705246E-006  0.3581125E+03  0.7546771E-02  0.1059334E+00
         -2   -1    0    0    0  501 -0.00000000000E+00  0.00000000000E+00  0.78859746165E+02  0.78859746165E+02  0.00000000000E+00 0. -1.
          2   -1    0    0  501    0  0.00000000000E+00 -0.00000000000E+00 -0.40655901621E+03  0.40655901621E+03  0.00000000000E+00 0.  1.
          5    1    1    2  502    0 -0.19699565661E+02 -0.10296065545E+03 -0.26684335409E+03  0.28673408427E+03  0.47000000000E+01 0. -1.
         -5    1    1    2    0  502  0.34777277129E+02 -0.15809999134E+02 -0.10007582548E+02  0.39770048850E+02  0.47000000000E+01 0. -1.
        -11    1    1    2    0    0  0.27178124062E+02  0.63543532147E+02 -0.56330741416E+02  0.89160435922E+02  0.00000000000E+00 0.  1.
         11    1    1    2    0    0 -0.42255835530E+02  0.55227122439E+02  0.54824080168E+01  0.69754193328E+02  0.00000000000E+00 0. -1.
<mgrwt>
<rscale>  0 0.35811250E+03</rscale>
<asrwt>0</asrwt>
<pdfrwt beam="2">  1        2 0.62547539E-01 0.35811250E+03</pdfrwt>
<pdfrwt beam="1">  1       -2 0.12132269E-01 0.35811250E+03</pdfrwt>
<totfact> 0.38236767E+03</totfact>
</mgrwt>
</event>
<event>
 6    1  0.4705246E-006  0.2181073E+03  0.7546771E-02  0.1138904E+00
         -2   -1    0    0    0  501 -0.00000000000E+00  0.00000000000E+00  0.68685764953E+02  0.68685764953E+02  0.00000000000E+00 0.  1.
          2   -1    0    0  501    0  0.00000000000E+00 -0.00000000000E+00 -0.75484028030E+03  0.75484028030E+03  0.00000000000E+00 0. -1.
          5    1    1    2  502    0 -0.24867363547E+02 -0.42102913480E+02 -0.47320475590E+02  0.68208199678E+02  0.47000000000E+01 0.  1.
         -5    1    1    2    0  502  0.73627283955E+02 -0.12984905598E+03 -0.47170568999E+03  0.49478288395E+03  0.47000000000E+01 0.  1.
        -11    1    1    2    0    0 -0.12878644781E+02  0.14479998492E+03 -0.15785033559E+03  0.21459176025E+03  0.00000000000E+00 0.  1.
         11    1    1    2    0    0 -0.35881275628E+02  0.27151984547E+02 -0.92780141837E+01  0.45943201376E+02  0.00000000000E+00 0. -1.
<mgrwt>
<rscale>  0 0.21339666E+03</rscale>
<asrwt>0</asrwt>
<pdfrwt beam="2">  1        2 0.11612928E+00 0.21810731E+03</pdfrwt>
<pdfrwt beam="1">  1       -2 0.10567040E-01 0.21810731E+03</pdfrwt>
<totfact> 0.23077794E+03</totfact>
</mgrwt>
</event>
<event>
 6    1  0.4705246E-006  0.1426239E+03  0.7546771E-02  0.1231425E+00
         -4   -1    0    0    0  501 -0.00000000000E+00  0.00000000000E+00  0.13291463045E+03  0.13291463045E+03  0.00000000000E+00 0. -1.
          4   -1    0    0  501    0  0.00000000000E+00 -0.00000000000E+00 -0.12082316803E+03  0.12082316803E+03  0.00000000000E+00 0.  1.
          5    1    1    2  502    0 -0.54938599758E+02  0.43982602437E+02  0.29573035690E+02  0.76481197038E+02  0.47000000000E+01 0.  1.
         -5    1    1    2    0  502  0.92118988065E+01  0.72573592961E+01 -0.70889605100E+02  0.72006627854E+02  0.47000000000E+01 0.  1.
        -11    1    1    2    0    0 -0.10981725957E+01 -0.26992647947E+02 -0.39893437694E+01  0.27307945546E+02  0.00000000000E+00 0.  1.
         11    1    1    2    0    0  0.46824873547E+02 -0.24247313786E+02  0.57397375599E+02  0.77942028034E+02  0.00000000000E+00 0. -1.
<mgrwt>
<rscale>  0 0.12736119E+03</rscale>
<asrwt>0</asrwt>
<pdfrwt beam="2">  1        4 0.18588180E-01 0.14262389E+03</pdfrwt>
<pdfrwt beam="1">  1       -4 0.20448405E-01 0.14262389E+03</pdfrwt>
<totfact> 0.93101828E+02</totfact>
</mgrwt>
</event>
<event>
 6    1  0.4705246E-006  0.1718010E+03  0.7546771E-02  0.1182295E+00
         -1   -1    0    0    0  501 -0.00000000000E+00  0.00000000000E+00  0.32645911155E+03  0.32645911155E+03  0.00000000000E+00 0.  1.
          1   -1    0    0  501    0  0.00000000000E+00 -0.00000000000E+00 -0.84920517981E+02  0.84920517981E+02  0.00000000000E+00 0. -1.
          5    1    1    2  502    0 -0.55246376329E+02 -0.39574821969E+01  0.93440096742E+02  0.10872426335E+03  0.47000000000E+01 0.  1.
         -5    1    1    2    0  502 -0.50289385692E+02  0.56429855375E+02 -0.19669721204E+02  0.78245375730E+02  0.47000000000E+01 0.  1.
        -11    1    1    2    0    0  0.71908200852E+02 -0.42535363605E+02  0.16984741472E+03  0.18928336112E+03  0.00000000000E+00 0.  1.
         11    1    1    2    0    0  0.33627561169E+02 -0.99370095731E+01 -0.20791966903E+01  0.35126629333E+02  0.00000000000E+00 0. -1.
<mgrwt>
<rscale>  0 0.16580467E+03</rscale>
<asrwt>0</asrwt>
<pdfrwt beam="2">  1        1 0.13064695E-01 0.17180098E+03</pdfrwt>
<pdfrwt beam="1">  1       -1 0.50224478E-01 0.17180098E+03</pdfrwt>
<totfact> 0.17946111E+03</totfact>
</mgrwt>
</event>
<event>
 6    1  0.4705246E-006  0.1313570E+03  0.7546771E-02  0.1239969E+00
          1   -1    0    0  501    0  0.00000000000E+00  0.00000000000E+00  0.59591014403E+02  0.59591014403E+02  0.00000000000E+00 0. -1.
         -1   -1    0    0    0  501 -0.00000000000E+00 -0.00000000000E+00 -0.22118921871E+03  0.22118921871E+03  0.00000000000E+00 0.  1.
          5    1    1    2  502    0 -0.43979376275E+02 -0.55970208523E+02 -0.28683565988E+02  0.76887494025E+02  0.47000000000E+01 0.  1.
         -5    1    1    2    0  502  0.40735259666E+01  0.50008957099E+02 -0.75481242264E+02  0.90757905097E+02  0.47000000000E+01 0.  1.
        -11    1    1    2    0    0  0.22344193384E+02  0.45018838169E+02 -0.47543781177E+02  0.69183595575E+02  0.00000000000E+00 0. -1.
         11    1    1    2    0    0  0.17561656924E+02 -0.39057586744E+02 -0.98896148827E+01  0.43951238421E+02  0.00000000000E+00 0.  1.
<mgrwt>
<rscale>  0 0.12191597E+03</rscale>
<asrwt>0</asrwt>
<pdfrwt beam="1">  1        1 0.91678485E-02 0.13135704E+03</pdfrwt>
<pdfrwt beam="2">  1       -1 0.34029110E-01 0.13135704E+03</pdfrwt>
<totfact> 0.56297189E+03</totfact>
</mgrwt>
</event>
<event>
 6    1  0.4705246E-006  0.1314793E+03  0.7546771E-02  0.1237334E+00
          2   -1    0    0  501    0  0.00000000000E+00  0.00000000000E+00  0.17752560858E+04  0.17752560858E+04  0.00000000000E+00 0. -1.
         -2   -1    0    0    0  501 -0.00000000000E+00 -0.00000000000E+00 -0.88398484080E+01  0.88398484080E+01  0.00000000000E+00 0.  1.
          5    1    1    2  502    0 -0.53180081976E+02 -0.39841279325E+01  0.83653627987E+03  0.83824759584E+03  0.47000000000E+01 0.  1.
         -5    1    1    2    0  502  0.50336954800E+02  0.44748152940E+02  0.45821074890E+03  0.46315805792E+03  0.47000000000E+01 0.  1.
        -11    1    1    2    0    0  0.44965464970E+02 -0.16122132231E+01  0.21494604945E+03  0.21960486435E+03  0.00000000000E+00 0.  1.
         11    1    1    2    0    0 -0.42122337794E+02 -0.39151811785E+02  0.25672315914E+03  0.26308541606E+03  0.00000000000E+00 0. -1.
<mgrwt>
<rscale>  0 0.12356203E+03</rscale>
<asrwt>0</asrwt>
<pdfrwt beam="1">  1        2 0.27311604E+00 0.13147930E+03</pdfrwt>
<pdfrwt beam="2">  1       -2 0.13599781E-02 0.13147930E+03</pdfrwt>
<totfact> 0.12935157E+04</totfact>
</mgrwt>
</event>
<event>
 6    1  0.4705246E-006  0.3660470E+03  0.7546771E-02  0.1097611E+00
          2   -1    0    0  501    0  0.00000000000E+00  0.00000000000E+00  0.49411436791E+03  0.49411436791E+03  0.00000000000E+00 0. -1.
         -2   -1    0    0    0  501 -0.00000000000E+00 -0.00000000000E+00 -0.12466393870E+03  0.12466393870E+03  0.00000000000E+00 0.  1.
          5    1    1    2  502    0  0.13605889711E+03 -0.10221429344E+02  0.23045782646E+03  0.26786078638E+03  0.47000000000E+01 0. -1.
         -5    1    1    2    0  502 -0.20018902734E+03  0.26830435577E+02  0.10063183675E+03  0.22570860751E+03  0.47000000000E+01 0.  1.
        -11    1    1    2    0    0  0.61538457267E+02 -0.38383159094E+02  0.60203231683E+02  0.94258568469E+02  0.00000000000E+00 0. -1.
         11    1    1    2    0    0  0.25916729582E+01  0.21774152861E+02 -0.21842465681E+02  0.30950344240E+02  0.00000000000E+00 0.  1.
<mgrwt>
<rscale>  0 0.27650980E+03</rscale>
<asrwt>0</asrwt>
<pdfrwt beam="1">  1        2 0.76017594E-01 0.36604697E+03</pdfrwt>
<pdfrwt beam="2">  1       -2 0.19179068E-01 0.36604697E+03</pdfrwt>
<totfact> 0.14295124E+03</totfact>
</mgrwt>
</event>
<event>
 6    1  0.4705246E-006  0.1438903E+03  0.7546771E-02  0.1218420E+00
          2   -1    0    0  501    0  0.00000000000E+00  0.00000000000E+00  0.11681192693E+04  0.11681192693E+04  0.00000000000E+00 0. -1.
         -2   -1    0    0    0  501 -0.00000000000E+00 -0.00000000000E+00 -0.15737032747E+02  0.15737032747E+02  0.00000000000E+00 0.  1.
          5    1    1    2  502    0 -0.29570993477E+02  0.25179808434E+02  0.33263522989E+03  0.33492798117E+03  0.47000000000E+01 0. -1.
         -5    1    1    2    0  502  0.99277755428E+02 -0.10322867788E+02  0.47026303160E+03  0.48076194027E+03  0.47000000000E+01 0. -1.
        -11    1    1    2    0    0 -0.94276737577E+01 -0.40767338806E+02  0.20857358239E+03  0.21272939669E+03  0.00000000000E+00 0.  1.
         11    1    1    2    0    0 -0.60279088193E+02  0.25910398161E+02  0.14091039271E+03  0.15543698395E+03  0.00000000000E+00 0. -1.
<mgrwt>
<rscale>  0 0.13628308E+03</rscale>
<asrwt>0</asrwt>
<pdfrwt beam="1">  1        2 0.17971059E+00 0.14389034E+03</pdfrwt>
<pdfrwt beam="2">  1       -2 0.24210829E-02 0.14389034E+03</pdfrwt>
<totfact> 0.11767730E+04</totfact>
</mgrwt>
</event>
<event>
 6    1  0.4705246E-006  0.3530377E+03  0.7546771E-02  0.1061375E+00
         -2   -1    0    0    0  501 -0.00000000000E+00  0.00000000000E+00  0.60813674741E+02  0.60813674741E+02  0.00000000000E+00 0.  1.
          2   -1    0    0  501    0  0.00000000000E+00 -0.00000000000E+00 -0.51236684688E+03  0.51236684688E+03  0.00000000000E+00 0. -1.
          5    1    1    2  502    0 -0.32874402861E+01 -0.85410384211E+02 -0.41309217926E+03  0.42186843869E+03  0.47000000000E+01 0.  1.
         -5    1    1    2    0  502 -0.22929204836E+01 -0.83536069403E+01  0.77807430972E+01  0.12556679354E+02  0.47000000000E+01 0.  1.
        -11    1    1    2    0    0 -0.25649570156E+02  0.53606273377E+02 -0.61622904514E+02  0.85609084537E+02  0.00000000000E+00 0. -1.
         11    1    1    2    0    0  0.31229930926E+02  0.40157717774E+02  0.15381168536E+02  0.53146319045E+02  0.00000000000E+00 0.  1.
<mgrwt>
<rscale>  0 0.35303774E+03</rscale>
<asrwt>0</asrwt>
<pdfrwt beam="2">  1        2 0.78825668E-01 0.35303774E+03</pdfrwt>
<pdfrwt beam="1">  1       -2 0.93559501E-02 0.35303774E+03</pdfrwt>
<totfact> 0.44862890E+03</totfact>
</mgrwt>
</event>
<event>
 6    1  0.4705246E-006  0.1250772E+03  0.7546771E-02  0.1251957E+00
          2   -1    0    0  501    0  0.00000000000E+00  0.00000000000E+00  0.32740091650E+03  0.32740091650E+03  0.00000000000E+00 0. -1.
         -2   -1    0    0    0  501 -0.00000000000E+00 -0.00000000000E+00 -0.35659826588E+02  0.35659826588E+02  0.00000000000E+00 0.  1.
          5    1    1    2  502    0  0.36249739343E+02  0.20632687775E+02  0.11145142694E+02  0.43428741783E+02  0.47000000000E+01 0. -1.
         -5    1    1    2    0  502 -0.35632256650E+02 -0.16606731234E+02  0.18509810260E+03  0.18928507290E+03  0.47000000000E+01 0. -1.
        -11    1    1    2    0    0 -0.37491949620E+02 -0.13179703958E+02  0.17171515055E+02  0.43292168021E+02  0.00000000000E+00 0. -1.
         11    1    1    2    0    0  0.36874466927E+02  0.91537474181E+01  0.78326329562E+02  0.87054760384E+02  0.00000000000E+00 0.  1.
<mgrwt>
<rscale>  0 0.11478465E+03</rscale>
<asrwt>0</asrwt>
<pdfrwt beam="1">  1        2 0.50369370E-01 0.12507721E+03</pdfrwt>
<pdfrwt beam="2">  1       -2 0.54861274E-02 0.12507721E+03</pdfrwt>
<totfact> 0.15748174E+04</totfact>
</mgrwt>
</event>
<event>
 6    1  0.4705246E-006  0.1251805E+03  0.7546771E-02  0.1249495E+00
          2   -1    0    0  501    0  0.00000000000E+00  0.00000000000E+00  0.17676512063E+04  0.17676512063E+04  0.00000000000E+00 0. -1.
         -2   -1    0    0    0  501 -0.00000000000E+00 -0.00000000000E+00 -0.81172522111E+01  0.81172522111E+01  0.00000000000E+00 0.  1.
          5    1    1    2  502    0  0.63692331387E+02  0.66283632245E+01  0.55435136487E+03  0.55805750063E+03  0.47000000000E+01 0. -1.
         -5    1    1    2    0  502 -0.57208374060E+02 -0.49183195668E+01  0.79695240449E+03  0.79903204751E+03  0.47000000000E+01 0. -1.
        -11    1    1    2    0    0 -0.11092619403E+02  0.44781812331E+02  0.21241655143E+03  0.21736892198E+03  0.00000000000E+00 0. -1.
         11    1    1    2    0    0  0.46086620762E+01 -0.46491855989E+02  0.19581363329E+03  0.20130998838E+03  0.00000000000E+00 0.  1.
<mgrwt>
<rscale>  0 0.11620310E+03</rscale>
<asrwt>0</asrwt>
<pdfrwt beam="1">  1        2 0.27194603E+00 0.12518053E+03</pdfrwt>
<pdfrwt beam="2">  1       -2 0.12488094E-02 0.12518053E+03</pdfrwt>
<totfact> 0.14717846E+04</totfact>
</mgrwt>
</event>
<event>
 6    1  0.4705246E-006  0.1471319E+03  0.7546771E-02  0.1212893E+00
          3   -1    0    0  501    0  0.00000000000E+00  0.00000000000E+00  0.26528568123E+03  0.26528568123E+03  0.00000000000E+00 0. -1.
         -3   -1    0    0    0  501 -0.00000000000E+00 -0.00000000000E+00 -0.70777220221E+02  0.70777220221E+02  0.00000000000E+00 0.  1.
          5    1    1    2  502    0 -0.56084056544E+02 -0.69818821939E+02  0.79406676140E+02  0.11978146564E+03  0.47000000000E+01 0. -1.
         -5    1    1    2    0  502  0.56530413994E+02 -0.77943424239E+01  0.59082098953E+02  0.82275293356E+02  0.47000000000E+01 0. -1.
        -11    1    1    2    0    0  0.24756559063E+02  0.50301444927E+02  0.73904527038E+02  0.92763148367E+02  0.00000000000E+00 0. -1.
         11    1    1    2    0    0 -0.25202916513E+02  0.27311719436E+02 -0.17884841121E+02  0.41242994087E+02  0.00000000000E+00 0.  1.
<mgrwt>
<rscale>  0 0.14032469E+03</rscale>
<asrwt>0</asrwt>
<pdfrwt beam="1">  1        3 0.40813181E-01 0.14713189E+03</pdfrwt>
<pdfrwt beam="2">  1       -3 0.10888803E-01 0.14713189E+03</pdfrwt>
<totfact> 0.89332706E+02</totfact>
</mgrwt>
</event>
<event>
 6    1  0.4705246E-006  0.1771204E+03  0.7546771E-02  0.1176387E+00
         -2   -1    0    0    0  501 -0.00000000000E+00  0.00000000000E+00  0.82310119585E+02  0.82310119585E+02  0.00000000000E+00 0.  1.
          2   -1    0    0  501    0  0.00000000000E+00 -0.00000000000E+00 -0.35105287563E+03  0.35105287563E+03  0.00000000000E+00 0. -1.
          5    1    1    2  502    0  0.47240653180E+02  0.12522876937E+03 -0.71846453357E+02  0.15198002122E+03  0.47000000000E+01 0. -1.
         -5    1    1    2    0  502 -0.42892165184E+02  0.15169011154E+00 -0.25775616083E+02  0.50261647690E+02  0.47000000000E+01 0. -1.
        -11    1    1    2    0    0  0.20738575886E+02  0.43102615677E+01 -0.12104578140E+02  0.24396468935E+02  0.00000000000E+00 0.  1.
         11    1    1    2    0    0 -0.25087063882E+02 -0.12969072105E+03 -0.15901610847E+03  0.20672485736E+03  0.00000000000E+00 0. -1.
<mgrwt>
<rscale>  0 0.17140828E+03</rscale>
<asrwt>0</asrwt>
<pdfrwt beam="2">  1        2 0.54008134E-01 0.17712037E+03</pdfrwt>
<pdfrwt beam="1">  1       -2 0.12663095E-01 0.17712037E+03</pdfrwt>
<totfact> 0.40743538E+03</totfact>
</mgrwt>
</event>
<event>
 6    1  0.4705246E-006  0.1298502E+03  0.7546771E-02  0.1241343E+00
         -2   -1    0    0    0  501 -0.00000000000E+00  0.00000000000E+00  0.11226307599E+03  0.11226307599E+03  0.00000000000E+00 0.  1.
          2   -1    0    0  501    0  0.00000000000E+00 -0.00000000000E+00 -0.11689567001E+03  0.11689567001E+03  0.00000000000E+00 0. -1.
          5    1    1    2  502    0  0.17898929508E+02  0.23675457550E+02  0.62749396584E+02  0.69573527577E+02  0.47000000000E+01 0. -1.
         -5    1    1    2    0  502 -0.24451224899E+02  0.10871376836E+02 -0.54126626483E+02  0.60562619889E+02  0.47000000000E+01 0. -1.
        -11    1    1    2    0    0 -0.19710012985E+02 -0.38720050737E+02  0.26722843634E+02  0.51008208289E+02  0.00000000000E+00 0.  1.
         11    1    1    2    0    0  0.26262308376E+02  0.41732163509E+01 -0.39978207754E+02  0.48014390251E+02  0.00000000000E+00 0. -1.
<mgrwt>
<rscale>  0 0.12106925E+03</rscale>
<asrwt>0</asrwt>
<pdfrwt beam="2">  1        2 0.17983949E-01 0.12985016E+03</pdfrwt>
<pdfrwt beam="1">  1       -2 0.17271242E-01 0.12985016E+03</pdfrwt>
<totfact> 0.79904532E+03</totfact>
</mgrwt>
</event>
<event>
 6    1  0.4705246E-006  0.1646498E+03  0.7546771E-02  0.1191221E+00
          3   -1    0    0  501    0  0.00000000000E+00  0.00000000000E+00  0.10636388848E+03  0.10636388848E+03  0.00000000000E+00 0. -1.
         -3   -1    0    0    0  501 -0.00000000000E+00 -0.00000000000E+00 -0.21828214103E+03  0.21828214103E+03  0.00000000000E+00 0.  1.
          5    1    1    2  502    0 -0.36059405950E+02 -0.61503600861E+01  0.22333783656E+02  0.43116071006E+02  0.47000000000E+01 0. -1.
         -5    1    1    2    0  502  0.75800599910E+01  0.10763629151E+03 -0.68453479215E+02  0.12787101851E+03  0.47000000000E+01 0.  1.
        -11    1    1    2    0    0  0.39819810405E+02 -0.21391707397E+02 -0.56314471838E+02  0.72211787019E+02  0.00000000000E+00 0.  1.
         11    1    1    2    0    0 -0.11340464446E+02 -0.80094224024E+02 -0.94840851515E+01  0.81447152970E+02  0.00000000000E+00 0. -1.
<mgrwt>
<rscale>  0 0.15778432E+03</rscale>
<asrwt>0</asrwt>
<pdfrwt beam="1">  1        3 0.16363675E-01 0.16464981E+03</pdfrwt>
<pdfrwt beam="2">  1       -3 0.33581868E-01 0.16464981E+03</pdfrwt>
<totfact> 0.65975268E+02</totfact>
</mgrwt>
</event>
<event>
 6    1  0.4705246E-006  0.1571272E+03  0.7546771E-02  0.1199823E+00
          1   -1    0    0  501    0  0.00000000000E+00  0.00000000000E+00  0.46215660335E+03  0.46215660335E+03  0.00000000000E+00 0. -1.
         -1   -1    0    0    0  501 -0.00000000000E+00 -0.00000000000E+00 -0.51292646456E+02  0.51292646456E+02  0.00000000000E+00 0.  1.
          5    1    1    2  502    0 -0.66809673872E+02 -0.85470967020E+02  0.21095351593E+03  0.23725997262E+03  0.47000000000E+01 0. -1.
         -5    1    1    2    0  502 -0.19065790611E+02  0.44378011245E+02  0.97251239419E+02  0.10868673250E+03  0.47000000000E+01 0. -1.
        -11    1    1    2    0    0 -0.14300959472E+02 -0.29121009542E+01 -0.35456839317E+01  0.15018976275E+02  0.00000000000E+00 0.  1.
         11    1    1    2    0    0  0.10017642396E+03  0.44005056730E+02  0.10620488548E+03  0.15248356841E+03  0.00000000000E+00 0. -1.
<mgrwt>
<rscale>  0 0.15053055E+03</rscale>
<asrwt>0</asrwt>
<pdfrwt beam="1">  1        1 0.71101013E-01 0.15712718E+03</pdfrwt>
<pdfrwt beam="2">  1       -1 0.78911767E-02 0.15712718E+03</pdfrwt>
<totfact> 0.42908404E+03</totfact>
</mgrwt>
</event>
<event>
 6    1  0.4705246E-006  0.1354395E+03  0.7546771E-02  0.1232315E+00
          2   -1    0    0  501    0  0.00000000000E+00  0.00000000000E+00  0.13059894090E+03  0.13059894090E+03  0.00000000000E+00 0. -1.
         -2   -1    0    0    0  501 -0.00000000000E+00 -0.00000000000E+00 -0.14795278770E+03  0.14795278770E+03  0.00000000000E+00 0.  1.
          5    1    1    2  502    0 -0.50221856775E+02  0.53993731131E+02  0.34332723184E+02  0.81476277410E+02  0.47000000000E+01 0. -1.
         -5    1    1    2    0  502  0.61278774096E+02 -0.30342320247E+01  0.26481831449E+02  0.66990089682E+02  0.47000000000E+01 0. -1.
        -11    1    1    2    0    0 -0.47500827916E+02 -0.47818422266E+02 -0.50698925705E+02  0.84340448353E+02  0.00000000000E+00 0. -1.
         11    1    1    2    0    0  0.36443910596E+02 -0.31410768409E+01 -0.27469475722E+02  0.45744913156E+02  0.00000000000E+00 0.  1.
<mgrwt>
<rscale>  0 0.12677882E+03</rscale>
<asrwt>0</asrwt>
<pdfrwt beam="1">  1        2 0.20092145E-01 0.13543948E+03</pdfrwt>
<pdfrwt beam="2">  1       -2 0.22761967E-01 0.13543948E+03</pdfrwt>
<totfact> 0.44313975E+03</totfact>
</mgrwt>
</event>
<event>
 6    1  0.4705246E-006  0.2874410E+03  0.7546771E-02  0.1091693E+00
         -1   -1    0    0    0  501 -0.00000000000E+00  0.00000000000E+00  0.43475230651E+02  0.43475230651E+02  0.00000000000E+00 0.  1.
          1   -1    0    0  501    0  0.00000000000E+00 -0.00000000000E+00 -0.47511138200E+03  0.47511138200E+03  0.00000000000E+00 0. -1.
          5    1    1    2  502    0  0.12788905997E+02 -0.28229640483E+02 -0.41409540283E+02  0.51935621156E+02  0.47000000000E+01 0. -1.
         -5    1    1    2    0  502 -0.11234032901E+03  0.33354251186E+02 -0.14197454042E+03  0.18415133917E+03  0.47000000000E+01 0.  1.
        -11    1    1    2    0    0  0.20955740433E+02 -0.40862222946E+02 -0.61485253597E+02  0.76741779567E+02  0.00000000000E+00 0.  1.
         11    1    1    2    0    0  0.78595682576E+02  0.35737612242E+02 -0.18676681705E+03  0.20575787276E+03  0.00000000000E+00 0. -1.
<mgrwt>
<rscale>  0 0.28744096E+03</rscale>
<asrwt>0</asrwt>
<pdfrwt beam="2">  1        1 0.73094057E-01 0.28744096E+03</pdfrwt>
<pdfrwt beam="1">  1       -1 0.66884972E-02 0.28744096E+03</pdfrwt>
<totfact> 0.54590668E+03</totfact>
</mgrwt>
</event>
<event>
 6    1  0.4705246E-006  0.2759777E+03  0.7546771E-02  0.1097906E+00
         -3   -1    0    0    0  501 -0.00000000000E+00  0.00000000000E+00  0.14125013151E+03  0.14125013151E+03  0.00000000000E+00 0.  1.
          3   -1    0    0  501    0  0.00000000000E+00 -0.00000000000E+00 -0.13480291023E+03  0.13480291023E+03  0.00000000000E+00 0. -1.
          5    1    1    2  502    0  0.50013297793E+02  0.64896797277E+02 -0.48671775836E+02  0.95414653047E+02  0.47000000000E+01 0. -1.
         -5    1    1    2    0  502 -0.23956091657E+02  0.14853203429E+02  0.47153832834E+02  0.55136974260E+02  0.47000000000E+01 0. -1.
        -11    1    1    2    0    0  0.14297474148E+02 -0.37590731443E+02  0.41829711983E+02  0.58027628437E+02  0.00000000000E+00 0.  1.
         11    1    1    2    0    0 -0.40354680284E+02 -0.42159269263E+02 -0.33864547696E+02  0.67473785994E+02  0.00000000000E+00 0. -1.
<mgrwt>
<rscale>  0 0.27597774E+03</rscale>
<asrwt>0</asrwt>
<pdfrwt beam="2">  1        3 0.20738909E-01 0.27597774E+03</pdfrwt>
<pdfrwt beam="1">  1       -3 0.21730790E-01 0.27597774E+03</pdfrwt>
<totfact> 0.10359291E+03</totfact>
</mgrwt>
</event>
<event>
 6    1  0.4705246E-006  0.1717030E+03  0.7546771E-02  0.1181660E+00
          2   -1    0    0  501    0  0.00000000000E+00  0.00000000000E+00  0.62641012742E+03  0.62641012742E+03  0.00000000000E+00 0. -1.
         -2   -1    0    0    0  501 -0.00000000000E+00 -0.00000000000E+00 -0.41865271835E+02  0.41865271835E+02  0.00000000000E+00 0.  1.
          5    1    1    2  502    0 -0.29974675889E+02  0.80408543057E+02  0.20006972400E+03  0.21774755901E+03  0.47000000000E+01 0. -1.
         -5    1    1    2    0  502  0.78916352251E+02  0.26502545060E+02  0.13299666284E+03  0.15697253860E+03  0.47000000000E+01 0. -1.
        -11    1    1    2    0    0 -0.15147806426E+02 -0.74657938021E+02  0.61465122525E+02  0.97883732234E+02  0.00000000000E+00 0.  1.
         11    1    1    2    0    0 -0.33793869937E+02 -0.32253150096E+02  0.19001334622E+03  0.19567156941E+03  0.00000000000E+00 0. -1.
<mgrwt>
<rscale>  0 0.16639558E+03</rscale>
<asrwt>0</asrwt>
<pdfrwt beam="1">  1        2 0.96370782E-01 0.17170304E+03</pdfrwt>
<pdfrwt beam="2">  1       -2 0.64408115E-02 0.17170304E+03</pdfrwt>
<totfact> 0.62045466E+03</totfact>
</mgrwt>
</event>
<event>
 6    1  0.4705246E-006  0.1785181E+03  0.7546771E-02  0.1174675E+00
          1   -1    0    0  501    0  0.00000000000E+00  0.00000000000E+00  0.12829711161E+04  0.12829711161E+04  0.00000000000E+00 0. -1.
         -1   -1    0    0    0  501 -0.00000000000E+00 -0.00000000000E+00 -0.22257727316E+02  0.22257727316E+02  0.00000000000E+00 0.  1.
          5    1    1    2  502    0 -0.66434643552E+01  0.49144147467E+02  0.39798264193E+03  0.40108796557E+03  0.47000000000E+01 0. -1.
         -5    1    1    2    0  502 -0.95349312303E+02  0.27334289152E+02  0.20532077909E+03  0.22807316161E+03  0.47000000000E+01 0. -1.
        -11    1    1    2    0    0  0.51721205009E+02  0.10980352960E+02  0.15930249025E+03  0.16784795084E+03  0.00000000000E+00 0.  1.
         11    1    1    2    0    0  0.50271571650E+02 -0.87458789580E+02  0.49810747750E+03  0.50821976539E+03  0.00000000000E+00 0. -1.
<mgrwt>
<rscale>  0 0.17307817E+03</rscale>
<asrwt>0</asrwt>
<pdfrwt beam="1">  1        1 0.19738011E+00 0.17851808E+03</pdfrwt>
<pdfrwt beam="2">  1       -1 0.34242668E-02 0.17851808E+03</pdfrwt>
<totfact> 0.30895755E+03</totfact>
</mgrwt>
</event>
<event>
 6    1  0.4705246E-006  0.2965066E+03  0.7546771E-02  0.1087000E+00
          2   -1    0    0  501    0  0.00000000000E+00  0.00000000000E+00  0.15113469253E+03  0.15113469253E+03  0.00000000000E+00 0.  1.
         -2   -1    0    0    0  501 -0.00000000000E+00 -0.00000000000E+00 -0.14542683581E+03  0.14542683581E+03  0.00000000000E+00 0. -1.
          5    1    1    2  502    0  0.18277744431E+02  0.89881671088E+02  0.51512608013E+02  0.10530161216E+03  0.47000000000E+01 0.  1.
         -5    1    1    2    0  502 -0.87772039065E+01  0.11241150475E+02 -0.53716854696E+02  0.55776278567E+02  0.47000000000E+01 0.  1.
        -11    1    1    2    0    0  0.32496360726E+02 -0.56843364172E+02  0.28031732944E+02  0.71224711742E+02  0.00000000000E+00 0. -1.
         11    1    1    2    0    0 -0.41996901251E+02 -0.44279457391E+02 -0.20119629537E+02  0.64258925872E+02  0.00000000000E+00 0.  1.
<mgrwt>
<rscale>  0 0.29650659E+03</rscale>
<asrwt>0</asrwt>
<pdfrwt beam="1">  1        2 0.23251491E-01 0.29650659E+03</pdfrwt>
<pdfrwt beam="2">  1       -2 0.22373360E-01 0.29650659E+03</pdfrwt>
<totfact> 0.40292104E+03</totfact>
</mgrwt>
</event>
<event>
 6    1  0.4705246E-006  0.1224034E+03  0.7546771E-02  0.1247100E+00
         -1   -1    0    0    0  501 -0.00000000000E+00  0.00000000000E+00  0.31187001278E+02  0.31187001278E+02  0.00000000000E+00 0.  1.
          1   -1    0    0  501    0  0.00000000000E+00 -0.00000000000E+00 -0.84063741688E+03  0.84063741688E+03  0.00000000000E+00 0. -1.
          5    1    1    2  502    0  0.13663663905E+02 -0.75842626321E+02 -0.41110971062E+03  0.41829664575E+03  0.47000000000E+01 0. -1.
         -5    1    1    2    0  502 -0.33770754220E+02  0.27541224514E+02 -0.32022245920E+03  0.32320813149E+03  0.47000000000E+01 0.  1.
        -11    1    1    2    0    0 -0.61486708498E+01  0.53181468569E+02 -0.87020355405E+02  0.10216955029E+03  0.00000000000E+00 0. -1.
         11    1    1    2    0    0  0.26255761165E+02 -0.48800667625E+01  0.89021096259E+01  0.28150090617E+02  0.00000000000E+00 0.  1.
<mgrwt>
<rscale>  0 0.11760545E+03</rscale>
<asrwt>0</asrwt>
<pdfrwt beam="2">  1        1 0.12932885E+00 0.12240340E+03</pdfrwt>
<pdfrwt beam="1">  1       -1 0.47979994E-02 0.12240340E+03</pdfrwt>
<totfact> 0.38848266E+03</totfact>
</mgrwt>
</event>
<event>
 6    1  0.4705246E-006  0.1257444E+03  0.7546771E-02  0.1245686E+00
          2   -1    0    0  501    0  0.00000000000E+00  0.00000000000E+00  0.13733867852E+04  0.13733867852E+04  0.00000000000E+00 0. -1.
         -2   -1    0    0    0  501 -0.00000000000E+00 -0.00000000000E+00 -0.15360210357E+02  0.15360210357E+02  0.00000000000E+00 0.  1.
          5    1    1    2  502    0 -0.75133315112E+02  0.17340665766E+02  0.64054879124E+03  0.64519032672E+03  0.47000000000E+01 0. -1.
         -5    1    1    2    0  502  0.32929214422E+02 -0.33556474374E+02  0.52494044149E+03  0.52706254586E+03  0.47000000000E+01 0.  1.
        -11    1    1    2    0    0  0.65782910614E+02  0.25271427117E+02  0.16330649344E+03  0.17786243886E+03  0.00000000000E+00 0.  1.
         11    1    1    2    0    0 -0.23578809924E+02 -0.90556185088E+01  0.29230848671E+02  0.38631684121E+02  0.00000000000E+00 0. -1.
<mgrwt>
<rscale>  0 0.11844440E+03</rscale>
<asrwt>0</asrwt>
<pdfrwt beam="1">  1        2 0.21129018E+00 0.12574437E+03</pdfrwt>
<pdfrwt beam="2">  1       -2 0.23631104E-02 0.12574437E+03</pdfrwt>
<totfact> 0.93672925E+03</totfact>
</mgrwt>
</event>
<event>
 6    1  0.4705246E-006  0.1655908E+03  0.7546771E-02  0.1189731E+00
          2   -1    0    0  501    0  0.00000000000E+00  0.00000000000E+00  0.10586628179E+04  0.10586628179E+04  0.00000000000E+00 0. -1.
         -2   -1    0    0    0  501 -0.00000000000E+00 -0.00000000000E+00 -0.25493943451E+02  0.25493943451E+02  0.00000000000E+00 0.  1.
          5    1    1    2  502    0 -0.12288631586E+03 -0.24746515778E+02  0.44822489980E+03  0.46544719085E+03  0.47000000000E+01 0. -1.
         -5    1    1    2    0  502  0.14501573464E+02  0.17812024117E+02  0.29842673327E+03  0.29934623593E+03  0.47000000000E+01 0. -1.
        -11    1    1    2    0    0  0.12331311791E+03  0.63140215662E+01  0.23170702151E+03  0.26255311031E+03  0.00000000000E+00 0.  1.
         11    1    1    2    0    0 -0.14928375515E+02  0.62047009442E+00  0.54810219910E+02  0.56810224302E+02  0.00000000000E+00 0. -1.
<mgrwt>
<rscale>  0 0.15908750E+03</rscale>
<asrwt>0</asrwt>
<pdfrwt beam="1">  1        2 0.16287117E+00 0.16559083E+03</pdfrwt>
<pdfrwt beam="2">  1       -2 0.39221460E-02 0.16559083E+03</pdfrwt>
<totfact> 0.67137290E+03</totfact>
</mgrwt>
</event>
<event>
 6    1  0.4705246E-006  0.3900412E+03  0.7546771E-02  0.1047284E+00
          2   -1    0    0  501    0  0.00000000000E+00  0.00000000000E+00  0.15758371075E+04  0.15758371075E+04  0.00000000000E+00 0. -1.
         -2   -1    0    0    0  501 -0.00000000000E+00 -0.00000000000E+00 -0.24135134086E+02  0.24135134086E+02  0.00000000000E+00 0.  1.
          5    1    1    2  502    0  0.61134787983E+02 -0.10345227960E+03  0.66943386820E+03  0.68014971171E+03  0.47000000000E+01 0. -1.
         -5    1    1    2    0  502 -0.30471144933E+01  0.82993544636E+01  0.62440515166E+03  0.62448542626E+03  0.47000000000E+01 0. -1.
        -11    1    1    2    0    0 -0.14041223608E+02  0.83965154331E+02  0.10134952895E+03  0.13235947311E+03  0.00000000000E+00 0.  1.
         11    1    1    2    0    0 -0.44046449882E+02  0.11187770806E+02  0.15651342457E+03  0.16297763047E+03  0.00000000000E+00 0. -1.
<mgrwt>
<rscale>  0 0.39004123E+03</rscale>
<asrwt>0</asrwt>
<pdfrwt beam="1">  1        2 0.24243640E+00 0.39004123E+03</pdfrwt>
<pdfrwt beam="2">  1       -2 0.37130988E-02 0.39004123E+03</pdfrwt>
<totfact> 0.38250743E+03</totfact>
</mgrwt>
</event>
<event>
 6    1  0.4705246E-006  0.2482136E+03  0.7546771E-02  0.1115869E+00
          1   -1    0    0  501    0  0.00000000000E+00  0.00000000000E+00  0.84047440738E+03  0.84047440738E+03  0.00000000000E+00 0. -1.
         -1   -1    0    0    0  501 -0.00000000000E+00 -0.00000000000E+00 -0.77844690966E+02  0.77844690966E+02  0.00000000000E+00 0.  1.
          5    1    1    2  502    0 -0.13756834199E+03 -0.26056680868E+02  0.25995403541E+03  0.29530016908E+03  0.47000000000E+01 0. -1.
         -5    1    1    2    0  502 -0.77379645603E+02  0.72011785188E+02  0.26641344016E+03  0.28665574800E+03  0.47000000000E+01 0.  1.
        -11    1    1    2    0    0  0.61144436211E+02  0.12900156307E+02  0.22268741100E+02  0.66339678493E+02  0.00000000000E+00 0. -1.
         11    1    1    2    0    0  0.15380355138E+03 -0.58855260627E+02  0.21399349974E+03  0.27002350278E+03  0.00000000000E+00 0.  1.
<mgrwt>
<rscale>  0 0.24598449E+03</rscale>
<asrwt>0</asrwt>
<pdfrwt beam="1">  1        1 0.12930375E+00 0.24821356E+03</pdfrwt>
<pdfrwt beam="2">  1       -1 0.11976107E-01 0.24821356E+03</pdfrwt>
<totfact> 0.98221399E+02</totfact>
</mgrwt>
</event>
<event>
 6    1  0.4705246E-006  0.1346441E+03  0.7546771E-02  0.1231560E+00
         -2   -1    0    0    0  501 -0.00000000000E+00  0.00000000000E+00  0.37209326269E+03  0.37209326269E+03  0.00000000000E+00 0.  1.
          2   -1    0    0  501    0  0.00000000000E+00 -0.00000000000E+00 -0.40463134089E+02  0.40463134089E+02  0.00000000000E+00 0. -1.
          5    1    1    2  502    0 -0.16745243717E+02 -0.30958247116E+02  0.20843525202E+03  0.21143831378E+03  0.47000000000E+01 0.  1.
         -5    1    1    2    0  502 -0.33173496553E+02  0.27402541377E+02  0.88450257980E+01  0.44178101236E+02  0.47000000000E+01 0.  1.
        -11    1    1    2    0    0  0.78008614813E+02 -0.48473665699E+01  0.82110696802E+02  0.11336228419E+03  0.00000000000E+00 0. -1.
         11    1    1    2    0    0 -0.28089874543E+02  0.84030723090E+01  0.32239153989E+02  0.43577697575E+02  0.00000000000E+00 0.  1.
<mgrwt>
<rscale>  0 0.12727213E+03</rscale>
<asrwt>0</asrwt>
<pdfrwt beam="2">  1        2 0.62250978E-02 0.13464410E+03</pdfrwt>
<pdfrwt beam="1">  1       -2 0.57245115E-01 0.13464410E+03</pdfrwt>
<totfact> 0.32776829E+03</totfact>
</mgrwt>
</event>
<event>
 6    1  0.4705246E-006  0.2647468E+03  0.7546771E-02  0.1105750E+00
          2   -1    0    0  501    0  0.00000000000E+00  0.00000000000E+00  0.15573074035E+04  0.15573074035E+04  0.00000000000E+00 0. -1.
         -2   -1    0    0    0  501 -0.00000000000E+00 -0.00000000000E+00 -0.43407152020E+02  0.43407152020E+02  0.00000000000E+00 0.  1.
          5    1    1    2  502    0 -0.13502247528E+03 -0.28354849576E+02  0.57558468464E+03  0.59190783533E+03  0.47000000000E+01 0. -1.
         -5    1    1    2    0  502 -0.97462279768E+02  0.48750774026E+02  0.20286483604E+03  0.23032968903E+03  0.47000000000E+01 0. -1.
        -11    1    1    2    0    0 -0.11850355773E+00 -0.22201896647E+02  0.77544961234E+02  0.80660766613E+02  0.00000000000E+00 0.  1.
         11    1    1    2    0    0  0.23260325861E+03  0.18059721974E+01  0.65790576953E+03  0.69781626452E+03  0.00000000000E+00 0. -1.
<mgrwt>
<rscale>  0 0.26233304E+03</rscale>
<asrwt>0</asrwt>
<pdfrwt beam="1">  1        2 0.23958571E+00 0.26474684E+03</pdfrwt>
<pdfrwt beam="2">  1       -2 0.66780246E-02 0.26474684E+03</pdfrwt>
<totfact> 0.15955533E+03</totfact>
</mgrwt>
</event>
<event>
 6    1  0.4705246E-006  0.1348068E+03  0.7546771E-02  0.1233085E+00
          1   -1    0    0  501    0  0.00000000000E+00  0.00000000000E+00  0.20893701957E+03  0.20893701957E+03  0.00000000000E+00 0. -1.
         -1   -1    0    0    0  501 -0.00000000000E+00 -0.00000000000E+00 -0.73985153770E+02  0.73985153770E+02  0.00000000000E+00 0.  1.
          5    1    1    2  502    0  0.23376245224E+02 -0.33233689272E+02  0.67158951507E+02  0.78634227350E+02  0.47000000000E+01 0. -1.
         -5    1    1    2    0  502 -0.20340942792E+02  0.83616481179E+02  0.47909696154E+02  0.98604760858E+02  0.47000000000E+01 0. -1.
        -11    1    1    2    0    0  0.14504852629E+01 -0.68727054595E+02 -0.10868024243E+02  0.69596162910E+02  0.00000000000E+00 0.  1.
         11    1    1    2    0    0 -0.44857876953E+01  0.18344262688E+02  0.30751242381E+02  0.36087022221E+02  0.00000000000E+00 0. -1.
<mgrwt>
<rscale>  0 0.12627834E+03</rscale>
<asrwt>0</asrwt>
<pdfrwt beam="1">  1        1 0.32144157E-01 0.13480677E+03</pdfrwt>
<pdfrwt beam="2">  1       -1 0.11382331E-01 0.13480677E+03</pdfrwt>
<totfact> 0.65648909E+03</totfact>
</mgrwt>
</event>
<event>
 6    1  0.4705246E-006  0.1966515E+03  0.7546771E-02  0.1156998E+00
          1   -1    0    0  501    0  0.00000000000E+00  0.00000000000E+00  0.22120122489E+03  0.22120122489E+03  0.00000000000E+00 0.  1.
         -1   -1    0    0    0  501 -0.00000000000E+00 -0.00000000000E+00 -0.23859300728E+03  0.23859300728E+03  0.00000000000E+00 0. -1.
          5    1    1    2  502    0 -0.75786093917E+02 -0.81579939017E+02  0.13537189622E+03  0.17534668165E+03  0.47000000000E+01 0. -1.
         -5    1    1    2    0  502 -0.55815413832E+02  0.58964251096E+01 -0.10927153380E+02  0.57372649680E+02  0.47000000000E+01 0. -1.
        -11    1    1    2    0    0  0.69130209389E+01 -0.19205563927E+02 -0.20175791067E+02  0.28700280302E+02  0.00000000000E+00 0.  1.
         11    1    1    2    0    0  0.12468848681E+03  0.94889077835E+02 -0.12166073416E+03  0.19837462053E+03  0.00000000000E+00 0. -1.
<mgrwt>
<rscale>  0 0.19163178E+03</rscale>
<asrwt>0</asrwt>
<pdfrwt beam="1">  1        1 0.34030958E-01 0.19665145E+03</pdfrwt>
<pdfrwt beam="2">  1       -1 0.36706617E-01 0.19665145E+03</pdfrwt>
<totfact> 0.92635237E+02</totfact>
</mgrwt>
</event>
<event>
 6    1  0.4909795E-006  0.2083739E+03  0.7546771E-02  0.1146826E+00
         -1   -1    0    0    0  501 -0.00000000000E+00  0.00000000000E+00  0.20875221726E+03  0.20875221726E+03  0.00000000000E+00 0.  1.
          1   -1    0    0  501    0  0.00000000000E+00 -0.00000000000E+00 -0.21122150592E+03  0.21122150592E+03  0.00000000000E+00 0. -1.
          5    1    1    2  502    0 -0.93288844232E+01  0.26173792896E+02 -0.64890445095E+01  0.28918734720E+02  0.47000000000E+01 0. -1.
         -5    1    1    2    0  502  0.17546443085E+03 -0.40089809114E+02 -0.61911277030E+02  0.19039447342E+03  0.47000000000E+01 0. -1.
        -11    1    1    2    0    0 -0.29806228160E+02 -0.15539332452E+02 -0.17745566885E+02  0.38010356934E+02  0.00000000000E+00 0. -1.
         11    1    1    2    0    0 -0.13632931826E+03  0.29455348671E+02  0.83676599763E+02  0.16265015810E+03  0.00000000000E+00 0.  1.
<mgrwt>
<rscale>  0 0.20349142E+03</rscale>
<asrwt>0</asrwt>
<pdfrwt beam="2">  1        1 0.32495616E-01 0.20837389E+03</pdfrwt>
<pdfrwt beam="1">  1       -1 0.32115726E-01 0.20837389E+03</pdfrwt>
<totfact> 0.12375287E+03</totfact>
</mgrwt>
</event>
<event>
 6    1  0.4705246E-006  0.1861277E+03  0.7546771E-02  0.1167101E+00
         -2   -1    0    0    0  501 -0.00000000000E+00  0.00000000000E+00  0.28355683649E+02  0.28355683649E+02  0.00000000000E+00 0.  1.
          2   -1    0    0  501    0  0.00000000000E+00 -0.00000000000E+00 -0.13095618318E+04  0.13095618318E+04  0.00000000000E+00 0. -1.
          5    1    1    2  502    0 -0.64989708909E+02  0.47045772214E+02 -0.23158300983E+03  0.24513210191E+03  0.47000000000E+01 0.  1.
         -5    1    1    2    0  502  0.11707697623E+02  0.80147580488E+02 -0.71403373013E+03  0.71862852894E+03  0.47000000000E+01 0.  1.
        -11    1    1    2    0    0 -0.26254130695E+02 -0.31105327770E+02 -0.84242155898E+02  0.93560470416E+02  0.00000000000E+00 0.  1.
         11    1    1    2    0    0  0.79536141981E+02 -0.96088024932E+02 -0.25134725233E+03  0.28059641421E+03  0.00000000000E+00 0. -1.
<mgrwt>
<rscale>  0 0.18072734E+03</rscale>
<asrwt>0</asrwt>
<pdfrwt beam="2">  1        2 0.20147104E+00 0.18612774E+03</pdfrwt>
<pdfrwt beam="1">  1       -2 0.43624130E-02 0.18612774E+03</pdfrwt>
<totfact> 0.41477732E+03</totfact>
</mgrwt>
</event>
<event>
 6    1  0.4705246E-006  0.3177754E+03  0.7546771E-02  0.1076678E+00
          1   -1    0    0  501    0  0.00000000000E+00  0.00000000000E+00  0.46551673649E+02  0.46551673649E+02  0.00000000000E+00 0. -1.
         -1   -1    0    0    0  501 -0.00000000000E+00 -0.00000000000E+00 -0.54230707883E+03  0.54230707883E+03  0.00000000000E+00 0.  1.
          5    1    1    2  502    0  0.31202606206E+02  0.20392357068E+02 -0.15007822577E+03  0.15470945256E+03  0.47000000000E+01 0. -1.
         -5    1    1    2    0  502 -0.97227190652E+02  0.65230769417E+02 -0.18645815364E+03  0.22022014654E+03  0.47000000000E+01 0. -1.
        -11    1    1    2    0    0  0.57218985515E+02 -0.14177956123E+02 -0.11559048268E+03  0.12975433107E+03  0.00000000000E+00 0.  1.
         11    1    1    2    0    0  0.88055989310E+01 -0.71445170362E+02 -0.43628543088E+02  0.84174822320E+02  0.00000000000E+00 0. -1.
<mgrwt>
<rscale>  0 0.31777541E+03</rscale>
<asrwt>0</asrwt>
<pdfrwt beam="1">  1        1 0.71617959E-02 0.31777541E+03</pdfrwt>
<pdfrwt beam="2">  1       -1 0.83431859E-01 0.31777541E+03</pdfrwt>
<totfact> 0.15149025E+03</totfact>
</mgrwt>
</event>
<event>
 6    1  0.4705246E-006  0.1441463E+03  0.7546771E-02  0.1218294E+00
         -1   -1    0    0    0  501 -0.00000000000E+00  0.00000000000E+00  0.51949603193E+02  0.51949603193E+02  0.00000000000E+00 0.  1.
          1   -1    0    0  501    0  0.00000000000E+00 -0.00000000000E+00 -0.33066821220E+03  0.33066821220E+03  0.00000000000E+00 0. -1.
          5    1    1    2  502    0 -0.52257700130E+02  0.39023123930E+02 -0.17106231554E+03  0.18313404168E+03  0.47000000000E+01 0. -1.
         -5    1    1    2    0  502 -0.19441108896E+02 -0.42563433434E+02 -0.96194056316E+01  0.48002349375E+02  0.47000000000E+01 0. -1.
        -11    1    1    2    0    0  0.13296021561E+02  0.12653668725E+02  0.15143397074E+02  0.23795419654E+02  0.00000000000E+00 0.  1.
         11    1    1    2    0    0  0.58402787465E+02 -0.91133592211E+01 -0.11318028491E+03  0.12768600468E+03  0.00000000000E+00 0. -1.
<mgrwt>
<rscale>  0 0.13637296E+03</rscale>
<asrwt>0</asrwt>
<pdfrwt beam="2">  1        1 0.50872034E-01 0.14414627E+03</pdfrwt>
<pdfrwt beam="1">  1       -1 0.79922464E-02 0.14414627E+03</pdfrwt>
<totfact> 0.63976883E+03</totfact>
</mgrwt>
</event>
<event>
 6    1  0.4705246E-006  0.1422657E+03  0.7546771E-02  0.1220098E+00
         -4   -1    0    0    0  501 -0.00000000000E+00  0.00000000000E+00  0.15256861144E+03  0.15256861144E+03  0.00000000000E+00 0.  1.
          4   -1    0    0  501    0  0.00000000000E+00 -0.00000000000E+00 -0.62911985392E+03  0.62911985392E+03  0.00000000000E+00 0. -1.
          5    1    1    2  502    0  0.41958449897E+02 -0.19282155244E+02 -0.17721970364E+03  0.18319723356E+03  0.47000000000E+01 0.  1.
         -5    1    1    2    0  502 -0.38898592326E+02  0.87151661099E+02 -0.42036473761E+03  0.43108829159E+03  0.47000000000E+01 0.  1.
        -11    1    1    2    0    0 -0.22208197069E+02  0.17226340363E+02  0.24324369764E+02  0.37170227115E+02  0.00000000000E+00 0. -1.
         11    1    1    2    0    0  0.19148339498E+02 -0.85095846218E+02  0.96708829014E+02  0.13023271309E+03  0.00000000000E+00 0.  1.
<mgrwt>
<rscale>  0 0.13508614E+03</rscale>
<asrwt>0</asrwt>
<pdfrwt beam="2">  1        4 0.96787672E-01 0.14226574E+03</pdfrwt>
<pdfrwt beam="1">  1       -4 0.23472093E-01 0.14226574E+03</pdfrwt>
<totfact> 0.26482714E+01</totfact>
</mgrwt>
</event>
<event>
 6    1  0.4705246E-006  0.1281223E+03  0.7546771E-02  0.1244188E+00
          2   -1    0    0  501    0  0.00000000000E+00  0.00000000000E+00  0.14189146797E+03  0.14189146797E+03  0.00000000000E+00 0. -1.
         -2   -1    0    0    0  501 -0.00000000000E+00 -0.00000000000E+00 -0.89907366615E+02  0.89907366615E+02  0.00000000000E+00 0.  1.
          5    1    1    2  502    0  0.51071796393E+02  0.18974493033E+02  0.26751421799E+02  0.60877650587E+02  0.47000000000E+01 0.  1.
         -5    1    1    2    0  502 -0.54999080882E+02 -0.46797910262E+02  0.15280551182E+02  0.73963021485E+02  0.47000000000E+01 0.  1.
        -11    1    1    2    0    0  0.25744739197E+02 -0.27054194958E+02  0.52923623143E+01  0.37719095429E+02  0.00000000000E+00 0.  1.
         11    1    1    2    0    0 -0.21817454709E+02  0.54877612188E+02  0.46597660600E+01  0.59239067085E+02  0.00000000000E+00 0. -1.
<mgrwt>
<rscale>  0 0.11934099E+03</rscale>
<asrwt>0</asrwt>
<pdfrwt beam="1">  1        2 0.21829457E-01 0.12812229E+03</pdfrwt>
<pdfrwt beam="2">  1       -2 0.13831902E-01 0.12812229E+03</pdfrwt>
<totfact> 0.92239300E+03</totfact>
</mgrwt>
</event>
<event>
 6    1  0.4705246E-006  0.1264653E+03  0.7546771E-02  0.1244514E+00
          1   -1    0    0  501    0  0.00000000000E+00  0.00000000000E+00  0.13151783046E+04  0.13151783046E+04  0.00000000000E+00 0. -1.
         -1   -1    0    0    0  501 -0.00000000000E+00 -0.00000000000E+00 -0.10795545046E+02  0.10795545046E+02  0.00000000000E+00 0.  1.
          5    1    1    2  502    0  0.25963726613E+02  0.53604314723E+02  0.23867169048E+03  0.24603618330E+03  0.47000000000E+01 0.  1.
         -5    1    1    2    0  502 -0.18390786127E+02 -0.35946936656E+02  0.69141379833E+03  0.69260777774E+03  0.47000000000E+01 0.  1.
        -11    1    1    2    0    0  0.44384840127E+02  0.10286963217E+01  0.17036132983E+03  0.17605128500E+03  0.00000000000E+00 0. -1.
         11    1    1    2    0    0 -0.51957780613E+02 -0.18686074389E+02  0.20393594088E+03  0.21127860357E+03  0.00000000000E+00 0.  1.
<mgrwt>
<rscale>  0 0.11914485E+03</rscale>
<asrwt>0</asrwt>
<pdfrwt beam="1">  1        1 0.20233500E+00 0.12646529E+03</pdfrwt>
<pdfrwt beam="2">  1       -1 0.16608541E-02 0.12646529E+03</pdfrwt>
<totfact> 0.83139393E+03</totfact>
</mgrwt>
</event>
<event>
 6    1  0.4705246E-006  0.4544514E+03  0.7546771E-02  0.1026403E+00
          2   -1    0    0  501    0  0.00000000000E+00  0.00000000000E+00  0.38691838999E+03  0.38691838999E+03  0.00000000000E+00 0. -1.
         -2   -1    0    0    0  501 -0.00000000000E+00 -0.00000000000E+00 -0.13344293973E+03  0.13344293973E+03  0.00000000000E+00 0.  1.
          5    1    1    2  502    0  0.16673447018E+03 -0.25034309316E+02  0.15009524304E+03  0.22578257721E+03  0.47000000000E+01 0.  1.
         -5    1    1    2    0  502  0.10607673396E+02  0.42555676438E+02  0.77343458409E+02  0.89037120858E+02  0.47000000000E+01 0.  1.
        -11    1    1    2    0    0 -0.11528862367E+03 -0.58715915147E+02  0.15002251542E+02  0.13024627822E+03  0.00000000000E+00 0. -1.
         11    1    1    2    0    0 -0.62053519906E+02  0.41194548025E+02  0.11034497274E+02  0.75295353441E+02  0.00000000000E+00 0.  1.
<mgrwt>
<rscale>  0 0.45445144E+03</rscale>
<asrwt>0</asrwt>
<pdfrwt beam="1">  1        2 0.59525906E-01 0.45445144E+03</pdfrwt>
<pdfrwt beam="2">  1       -2 0.20529683E-01 0.45445144E+03</pdfrwt>
<totfact> 0.16745712E+03</totfact>
</mgrwt>
</event>
<event>
 6    1  0.4705246E-006  0.1394572E+03  0.7546771E-02  0.1225301E+00
         -2   -1    0    0    0  501 -0.00000000000E+00  0.00000000000E+00  0.38975649583E+02  0.38975649583E+02  0.00000000000E+00 0.  1.
          2   -1    0    0  501    0  0.00000000000E+00 -0.00000000000E+00 -0.43245518928E+03  0.43245518928E+03  0.00000000000E+00 0. -1.
          5    1    1    2  502    0  0.19399712298E+01 -0.68551085974E+02 -0.87555139468E+02  0.11131490163E+03  0.47000000000E+01 0.  1.
         -5    1    1    2    0  502  0.48767005196E+02  0.33135526045E+02 -0.19514713249E+03  0.20391340613E+03  0.47000000000E+01 0.  1.
        -11    1    1    2    0    0 -0.73267771809E+02  0.69367689474E+01 -0.78500453152E+02  0.10760393252E+03  0.00000000000E+00 0.  1.
         11    1    1    2    0    0  0.22560795384E+02  0.28478790981E+02 -0.32276814588E+02  0.48598598581E+02  0.00000000000E+00 0. -1.
<mgrwt>
<rscale>  0 0.13146274E+03</rscale>
<asrwt>0</asrwt>
<pdfrwt beam="2">  1        2 0.66531565E-01 0.13945720E+03</pdfrwt>
<pdfrwt beam="1">  1       -2 0.59962540E-02 0.13945720E+03</pdfrwt>
<totfact> 0.10324716E+04</totfact>
</mgrwt>
</event>
<event>
 6    1  0.4705246E-006  0.1629212E+03  0.7546771E-02  0.1205260E+00
          1   -1    0    0  501    0  0.00000000000E+00  0.00000000000E+00  0.15386557978E+04  0.15386557978E+04  0.00000000000E+00 0. -1.
         -1   -1    0    0    0  501 -0.00000000000E+00 -0.00000000000E+00 -0.65138242842E+02  0.65138242842E+02  0.00000000000E+00 0.  1.
          5    1    1    2  502    0  0.24354221319E+02 -0.44579524335E+02  0.82183229039E+03  0.82341415194E+03  0.47000000000E+01 0. -1.
         -5    1    1    2    0  502 -0.73690365558E+02  0.65904842383E+02  0.66647992944E+03  0.67378876851E+03  0.47000000000E+01 0.  1.
        -11    1    1    2    0    0  0.23174058169E+02 -0.22744339978E+02 -0.51868351072E+02  0.61193690982E+02  0.00000000000E+00 0.  1.
         11    1    1    2    0    0  0.26162086071E+02  0.14190219297E+01  0.37073686222E+02  0.45397429232E+02  0.00000000000E+00 0. -1.
<mgrwt>
<rscale>  0 0.14616973E+03</rscale>
<asrwt>0</asrwt>
<pdfrwt beam="1">  1        1 0.23671625E+00 0.16292121E+03</pdfrwt>
<pdfrwt beam="2">  1       -1 0.10021269E-01 0.16292121E+03</pdfrwt>
<totfact> 0.41888018E+02</totfact>
</mgrwt>
</event>
<event>
 6    1  0.4705246E-006  0.1580110E+03  0.7546771E-02  0.1198467E+00
          2   -1    0    0  501    0  0.00000000000E+00  0.00000000000E+00  0.34715913104E+03  0.34715913104E+03  0.00000000000E+00 0. -1.
         -2   -1    0    0    0  501 -0.00000000000E+00 -0.00000000000E+00 -0.66960360911E+02  0.66960360911E+02  0.00000000000E+00 0.  1.
          5    1    1    2  502    0  0.12099648378E+03  0.13041549760E+02  0.16331477358E+03  0.20372539453E+03  0.47000000000E+01 0. -1.
         -5    1    1    2    0  502 -0.25163584208E+02 -0.25609104431E+02  0.46690793743E+02  0.59085974819E+02  0.47000000000E+01 0. -1.
        -11    1    1    2    0    0  0.95415587214E+01 -0.13448327915E+02 -0.72102445510E+01  0.17996846752E+02  0.00000000000E+00 0.  1.
         11    1    1    2    0    0 -0.10537445829E+03  0.26015882585E+02  0.77403447359E+02  0.13331127585E+03  0.00000000000E+00 0. -1.
<mgrwt>
<rscale>  0 0.15164397E+03</rscale>
<asrwt>0</asrwt>
<pdfrwt beam="1">  1        2 0.53409096E-01 0.15801100E+03</pdfrwt>
<pdfrwt beam="2">  1       -2 0.10301594E-01 0.15801100E+03</pdfrwt>
<totfact> 0.57009238E+03</totfact>
</mgrwt>
</event>
<event>
 6    1  0.4705246E-006  0.2300134E+03  0.7546771E-02  0.1131976E+00
         -1   -1    0    0    0  501 -0.00000000000E+00  0.00000000000E+00  0.44585542045E+03  0.44585542045E+03  0.00000000000E+00 0.  1.
          1   -1    0    0  501    0  0.00000000000E+00 -0.00000000000E+00 -0.10692992444E+03  0.10692992444E+03  0.00000000000E+00 0. -1.
          5    1    1    2  502    0  0.38830204821E+02  0.11972610038E+03  0.13906770917E+02  0.12671863397E+03  0.47000000000E+01 0. -1.
         -5    1    1    2    0  502  0.16668705449E+02  0.65220069931E+02  0.12481510422E+03  0.14188870112E+03  0.47000000000E+01 0. -1.
        -11    1    1    2    0    0 -0.25383059816E+02 -0.28295548039E+02  0.63923830779E+02  0.74371996786E+02  0.00000000000E+00 0.  1.
         11    1    1    2    0    0 -0.30115850454E+02 -0.15665062227E+03  0.13627979009E+03  0.20980601301E+03  0.00000000000E+00 0. -1.
<mgrwt>
<rscale>  0 0.22257767E+03</rscale>
<asrwt>0</asrwt>
<pdfrwt beam="2">  1        1 0.16450758E-01 0.23001335E+03</pdfrwt>
<pdfrwt beam="1">  1       -1 0.68593140E-01 0.23001335E+03</pdfrwt>
<totfact> 0.73644336E+02</totfact>
</mgrwt>
</event>
<event>
 6    1  0.4705246E-006  0.2654609E+03  0.7546771E-02  0.1105430E+00
          2   -1    0    0  501    0  0.00000000000E+00  0.00000000000E+00  0.21744785011E+04  0.21744785011E+04  0.00000000000E+00 0. -1.
         -2   -1    0    0    0  501 -0.00000000000E+00 -0.00000000000E+00 -0.47052665289E+02  0.47052665289E+02  0.00000000000E+00 0.  1.
          5    1    1    2  502    0 -0.60499854751E+02 -0.19626538299E+03  0.15463573965E+04  0.15599434672E+04  0.47000000000E+01 0. -1.
         -5    1    1    2    0  502 -0.46378631993E+02 -0.15881085843E+02  0.17635745325E+03  0.18310441750E+03  0.47000000000E+01 0.  1.
        -11    1    1    2    0    0  0.12262331478E+03  0.16863169061E+03  0.34201452517E+03  0.40055843498E+03  0.00000000000E+00 0.  1.
         11    1    1    2    0    0 -0.15744828036E+02  0.43514778225E+02  0.62696460901E+02  0.77924846765E+02  0.00000000000E+00 0. -1.
<mgrwt>
<rscale>  0 0.26287185E+03</rscale>
<asrwt>0</asrwt>
<pdfrwt beam="1">  1        2 0.33453508E+00 0.26546087E+03</pdfrwt>
<pdfrwt beam="2">  1       -2 0.72388732E-02 0.26546087E+03</pdfrwt>
<totfact> 0.66546256E+02</totfact>
</mgrwt>
</event>
<event>
 6    1  0.4705246E-006  0.1642061E+03  0.7546771E-02  0.1189152E+00
         -2   -1    0    0    0  501 -0.00000000000E+00  0.00000000000E+00  0.17516691760E+03  0.17516691760E+03  0.00000000000E+00 0.  1.
          2   -1    0    0  501    0  0.00000000000E+00 -0.00000000000E+00 -0.88277677265E+03  0.88277677265E+03  0.00000000000E+00 0. -1.
          5    1    1    2  502    0  0.29546377711E+02  0.80208465240E+02 -0.64925292018E+03  0.65487237741E+03  0.47000000000E+01 0. -1.
         -5    1    1    2    0  502  0.62008291408E+02 -0.14004054213E+02 -0.19350204701E+03  0.20373088606E+03  0.47000000000E+01 0.  1.
        -11    1    1    2    0    0 -0.10120983151E+03 -0.27671321097E+02  0.11152638192E+03  0.15312500080E+03  0.00000000000E+00 0. -1.
         11    1    1    2    0    0  0.96551623913E+01 -0.38533089931E+02  0.23618730231E+02  0.46215425976E+02  0.00000000000E+00 0.  1.
<mgrwt>
<rscale>  0 0.15959782E+03</rscale>
<asrwt>0</asrwt>
<pdfrwt beam="2">  1        2 0.13581181E+00 0.16420606E+03</pdfrwt>
<pdfrwt beam="1">  1       -2 0.26948756E-01 0.16420606E+03</pdfrwt>
<totfact> 0.39469881E+02</totfact>
</mgrwt>
</event>
<event>
 6    1  0.4705246E-006  0.3152759E+03  0.7546771E-02  0.1077844E+00
          4   -1    0    0  501    0  0.00000000000E+00  0.00000000000E+00  0.78481203673E+03  0.78481203673E+03  0.00000000000E+00 0. -1.
         -4   -1    0    0    0  501 -0.00000000000E+00 -0.00000000000E+00 -0.31663285337E+02  0.31663285337E+02  0.00000000000E+00 0.  1.
          5    1    1    2  502    0  0.95981899855E+02  0.39206398071E+02  0.23936157032E+03  0.26089407447E+03  0.47000000000E+01 0.  1.
         -5    1    1    2    0  502 -0.46956241750E+01 -0.80585397069E+01  0.32417973411E+03  0.32434792886E+03  0.47000000000E+01 0.  1.
        -11    1    1    2    0    0 -0.33267585169E+02  0.16033061354E+02  0.13133668375E+03  0.13642989328E+03  0.00000000000E+00 0. -1.
         11    1    1    2    0    0 -0.58018690511E+02 -0.47180919719E+02  0.58270763216E+02  0.94803425465E+02  0.00000000000E+00 0.  1.
<mgrwt>
<rscale>  0 0.31527593E+03</rscale>
<asrwt>0</asrwt>
<pdfrwt beam="1">  1        4 0.12074030E+00 0.31527593E+03</pdfrwt>
<pdfrwt beam="2">  1       -4 0.48712753E-02 0.31527593E+03</pdfrwt>
<totfact> 0.25764118E+02</totfact>
</mgrwt>
</event>
<event>
 6    1  0.4705246E-006  0.6633797E+03  0.7546771E-02  0.1013205E+00
         -2   -1    0    0    0  501 -0.00000000000E+00  0.00000000000E+00  0.20926398797E+03  0.20926398797E+03  0.00000000000E+00 0.  1.
          2   -1    0    0  501    0  0.00000000000E+00 -0.00000000000E+00 -0.11701014428E+04  0.11701014428E+04  0.00000000000E+00 0. -1.
          5    1    1    2  502    0 -0.21298536799E+03  0.20952132122E+03 -0.93925747106E+03  0.98564123187E+03  0.47000000000E+01 0. -1.
         -5    1    1    2    0  502  0.17416884829E+02 -0.17421623937E+03 -0.13974332331E+02  0.17570434798E+03  0.47000000000E+01 0.  1.
        -11    1    1    2    0    0  0.27089778414E+02  0.13600011050E+02  0.25353757148E+02  0.39517456859E+02  0.00000000000E+00 0. -1.
         11    1    1    2    0    0  0.16847870474E+03 -0.48905092905E+02 -0.32959408573E+02  0.17850239404E+03  0.00000000000E+00 0.  1.
<mgrwt>
<rscale>  0 0.50220330E+03</rscale>
<asrwt>0</asrwt>
<pdfrwt beam="2">  1        2 0.18001561E+00 0.66337974E+03</pdfrwt>
<pdfrwt beam="1">  1       -2 0.32194459E-01 0.66337974E+03</pdfrwt>
<totfact> 0.18045254E+02</totfact>
</mgrwt>
</event>
<event>
 6    1  0.4705246E-006  0.2438702E+03  0.7546771E-02  0.1120046E+00
          2   -1    0    0  501    0  0.00000000000E+00  0.00000000000E+00  0.28914241609E+04  0.28914241609E+04  0.00000000000E+00 0. -1.
         -2   -1    0    0    0  501 -0.00000000000E+00 -0.00000000000E+00 -0.19509502573E+02  0.19509502573E+02  0.00000000000E+00 0.  1.
          5    1    1    2  502    0  0.10049077407E+03 -0.13453111906E+03  0.10582098477E+04  0.10714603070E+04  0.47000000000E+01 0.  1.
         -5    1    1    2    0  502 -0.35783361563E+02 -0.64626356701E+02  0.61183196570E+03  0.61629332237E+03  0.47000000000E+01 0.  1.
        -11    1    1    2    0    0 -0.86549057423E+02  0.17117208362E+03  0.10115138981E+04  0.10295392113E+04  0.00000000000E+00 0. -1.
         11    1    1    2    0    0  0.21841644914E+02  0.27985392140E+02  0.19035894683E+03  0.19364082282E+03  0.00000000000E+00 0.  1.
<mgrwt>
<rscale>  0 0.23962102E+03</rscale>
<asrwt>0</asrwt>
<pdfrwt beam="1">  1        2 0.44483415E+00 0.24387016E+03</pdfrwt>
<pdfrwt beam="2">  1       -2 0.30014642E-02 0.24387016E+03</pdfrwt>
<totfact> 0.10259964E+03</totfact>
</mgrwt>
</event>
<event>
 6    1  0.4705246E-006  0.1431521E+03  0.7546771E-02  0.1219764E+00
         -2   -1    0    0    0  501 -0.00000000000E+00  0.00000000000E+00  0.33615813483E+02  0.33615813483E+02  0.00000000000E+00 0.  1.
          2   -1    0    0  501    0  0.00000000000E+00 -0.00000000000E+00 -0.49819680685E+03  0.49819680685E+03  0.00000000000E+00 0. -1.
          5    1    1    2  502    0 -0.43997971131E+02 -0.77502557423E+01 -0.23829338327E+03  0.24249064814E+03  0.47000000000E+01 0.  1.
         -5    1    1    2    0  502 -0.18657229381E+01  0.60323196659E+02 -0.46769363615E+02  0.76497270214E+02  0.47000000000E+01 0.  1.
        -11    1    1    2    0    0  0.15950369918E+01 -0.28612555081E+02 -0.24739381984E+01  0.28763567607E+02  0.00000000000E+00 0.  1.
         11    1    1    2    0    0  0.44268657077E+02 -0.23960385835E+02 -0.17704430829E+03  0.18406113437E+03  0.00000000000E+00 0. -1.
<mgrwt>
<rscale>  0 0.13532330E+03</rscale>
<asrwt>0</asrwt>
<pdfrwt beam="2">  1        2 0.76645650E-01 0.14315210E+03</pdfrwt>
<pdfrwt beam="1">  1       -2 0.51716645E-02 0.14315210E+03</pdfrwt>
<totfact> 0.11089484E+04</totfact>
</mgrwt>
</event>
<event>
 6    1  0.4705246E-006  0.1395476E+03  0.7546771E-02  0.1233153E+00
          1   -1    0    0  501    0  0.00000000000E+00  0.00000000000E+00  0.12421399607E+03  0.12421399607E+03  0.00000000000E+00 0. -1.
         -1   -1    0    0    0  501 -0.00000000000E+00 -0.00000000000E+00 -0.12179598315E+03  0.12179598315E+03  0.00000000000E+00 0.  1.
          5    1    1    2  502    0 -0.23812015975E+02 -0.43508086097E+02  0.32906193098E+01  0.49928787649E+02  0.47000000000E+01 0. -1.
         -5    1    1    2    0  502  0.87690550732E+02 -0.26391162725E+01  0.36904566112E+02  0.95292363924E+02  0.47000000000E+01 0.  1.
        -11    1    1    2    0    0 -0.51856040300E+02  0.24506671697E+02 -0.21378165217E+01  0.57395088054E+02  0.00000000000E+00 0. -1.
         11    1    1    2    0    0 -0.12022494456E+02  0.21640530673E+02 -0.35639355982E+02  0.43393739589E+02  0.00000000000E+00 0.  1.
<mgrwt>
<rscale>  0 0.12623403E+03</rscale>
<asrwt>0</asrwt>
<pdfrwt beam="1">  1        1 0.19109845E-01 0.13954759E+03</pdfrwt>
<pdfrwt beam="2">  1       -1 0.18737844E-01 0.13954759E+03</pdfrwt>
<totfact> 0.57961481E+03</totfact>
</mgrwt>
</event>
<event>
 6    1  0.4705246E-006  0.1286672E+03  0.7546771E-02  0.1248854E+00
         -2   -1    0    0    0  501 -0.00000000000E+00  0.00000000000E+00  0.30276101408E+02  0.30276101408E+02  0.00000000000E+00 0.  1.
          2   -1    0    0  501    0  0.00000000000E+00 -0.00000000000E+00 -0.38436733656E+03  0.38436733656E+03  0.00000000000E+00 0. -1.
          5    1    1    2  502    0  0.46075126819E+02  0.96971000040E+00 -0.23397184640E+03  0.23851367373E+03  0.47000000000E+01 0.  1.
         -5    1    1    2    0  502 -0.15558270039E+02 -0.25274971370E+00  0.10500965859E+02  0.19351587351E+02  0.47000000000E+01 0.  1.
        -11    1    1    2    0    0 -0.25695891681E+02  0.24466086628E+02 -0.12577546421E+03  0.13068410631E+03  0.00000000000E+00 0. -1.
         11    1    1    2    0    0 -0.48209650979E+01 -0.25183046915E+02 -0.48448904023E+01  0.26094070580E+02  0.00000000000E+00 0.  1.
<mgrwt>
<rscale>  0 0.11657670E+03</rscale>
<asrwt>0</asrwt>
<pdfrwt beam="2">  1        2 0.59133442E-01 0.12866724E+03</pdfrwt>
<pdfrwt beam="1">  1       -2 0.46578613E-02 0.12866724E+03</pdfrwt>
<totfact> 0.17023203E+04</totfact>
</mgrwt>
</event>
<event>
 6    1  0.4705246E-006  0.1354637E+03  0.7546771E-02  0.1232066E+00
          1   -1    0    0  501    0  0.00000000000E+00  0.00000000000E+00  0.20447903444E+03  0.20447903444E+03  0.00000000000E+00 0. -1.
         -1   -1    0    0    0  501 -0.00000000000E+00 -0.00000000000E+00 -0.77303075981E+02  0.77303075981E+02  0.00000000000E+00 0.  1.
          5    1    1    2  502    0 -0.80198222472E+02  0.29382448503E+02  0.10807423827E+03  0.13783038179E+03  0.47000000000E+01 0. -1.
         -5    1    1    2    0  502  0.37908173931E+02  0.12312908393E+01  0.48436524813E+01  0.38523975616E+02  0.47000000000E+01 0. -1.
        -11    1    1    2    0    0  0.41132745141E+02 -0.11651381103E+02  0.49491297225E+02  0.65399127712E+02  0.00000000000E+00 0. -1.
         11    1    1    2    0    0  0.11573034009E+01 -0.18962358239E+02 -0.35233229518E+02  0.40028625300E+02  0.00000000000E+00 0.  1.
<mgrwt>
<rscale>  0 0.12694155E+03</rscale>
<asrwt>0</asrwt>
<pdfrwt beam="1">  1        1 0.31458313E-01 0.13546368E+03</pdfrwt>
<pdfrwt beam="2">  1       -1 0.11892781E-01 0.13546368E+03</pdfrwt>
<totfact> 0.63045813E+03</totfact>
</mgrwt>
</event>
<event>
 6    1  0.7027518E-006  0.1569066E+03  0.7546771E-02  0.1199920E+00
          1   -1    0    0  501    0  0.00000000000E+00  0.00000000000E+00  0.22907359619E+03  0.22907359619E+03  0.00000000000E+00 0. -1.
         -1   -1    0    0    0  501 -0.00000000000E+00 -0.00000000000E+00 -0.91952682160E+02  0.91952682160E+02  0.00000000000E+00 0.  1.
          5    1    1    2  502    0 -0.46588530842E+02 -0.86807276511E+01 -0.28059514011E+02  0.55274520035E+02  0.47000000000E+01 0.  1.
         -5    1    1    2    0  502 -0.44229332925E+02 -0.18644260817E+02  0.11364722828E+03  0.12345697569E+03  0.47000000000E+01 0.  1.
        -11    1    1    2    0    0  0.54723660720E+02  0.60651262525E+02  0.43388023835E+02  0.92497434023E+02  0.00000000000E+00 0.  1.
         11    1    1    2    0    0  0.36094203046E+02 -0.33326274057E+02  0.81451759228E+01  0.49797348593E+02  0.00000000000E+00 0. -1.
<mgrwt>
<rscale>  0 0.15045125E+03</rscale>
<asrwt>0</asrwt>
<pdfrwt beam="1">  1        1 0.35242092E-01 0.15690663E+03</pdfrwt>
<pdfrwt beam="2">  1       -1 0.14146567E-01 0.15690663E+03</pdfrwt>
<totfact> 0.42172090E+03</totfact>
</mgrwt>
</event>
<event>
 6    1  0.4705246E-006  0.2646449E+03  0.7546771E-02  0.1106404E+00
         -1   -1    0    0    0  501 -0.00000000000E+00  0.00000000000E+00  0.86309644460E+02  0.86309644460E+02  0.00000000000E+00 0.  1.
          1   -1    0    0  501    0  0.00000000000E+00 -0.00000000000E+00 -0.83273228558E+03  0.83273228558E+03  0.00000000000E+00 0. -1.
          5    1    1    2  502    0 -0.73514088983E+02  0.14789895677E+03 -0.15199032978E+03  0.22450294662E+03  0.47000000000E+01 0.  1.
         -5    1    1    2    0  502 -0.98528633039E+02  0.96223263785E+01 -0.10505467515E+03  0.14442664389E+03  0.47000000000E+01 0.  1.
        -11    1    1    2    0    0  0.36158889847E+02 -0.75221301621E+02 -0.10451041419E+03  0.13374653718E+03  0.00000000000E+00 0.  1.
         11    1    1    2    0    0  0.13588383218E+03 -0.82299981527E+02 -0.38486722200E+03  0.41636580236E+03  0.00000000000E+00 0. -1.
<mgrwt>
<rscale>  0 0.26123404E+03</rscale>
<asrwt>0</asrwt>
<pdfrwt beam="2">  1        1 0.12811265E+00 0.26464487E+03</pdfrwt>
<pdfrwt beam="1">  1       -1 0.13278407E-01 0.26464487E+03</pdfrwt>
<totfact> 0.84695656E+02</totfact>
</mgrwt>
</event>
<event>
 6    1  0.4705246E-006  0.1601698E+03  0.7546771E-02  0.1199335E+00
          1   -1    0    0  501    0  0.00000000000E+00  0.00000000000E+00  0.48764870988E+02  0.48764870988E+02  0.00000000000E+00 0. -1.
         -1   -1    0    0    0  501 -0.00000000000E+00 -0.00000000000E+00 -0.48553425219E+03  0.48553425219E+03  0.00000000000E+00 0.  1.
          5    1    1    2  502    0 -0.29225787986E+02  0.38137862307E+02 -0.90513338974E+01  0.49118834168E+02  0.47000000000E+01 0. -1.
         -5    1    1    2    0  502  0.95644356672E+02  0.16623215541E+02 -0.13467042607E+03  0.16607946265E+03  0.47000000000E+01 0.  1.
        -11    1    1    2    0    0  0.15434241601E+02  0.60858983815E+01 -0.93910516697E+02  0.95364768752E+02  0.00000000000E+00 0. -1.
         11    1    1    2    0    0 -0.81852810287E+02 -0.60846976229E+02 -0.19913710454E+03  0.22373605761E+03  0.00000000000E+00 0.  1.
<mgrwt>
<rscale>  0 0.15092987E+03</rscale>
<asrwt>0</asrwt>
<pdfrwt beam="1">  1        1 0.75022879E-02 0.16016979E+03</pdfrwt>
<pdfrwt beam="2">  1       -1 0.74697577E-01 0.16016979E+03</pdfrwt>
<totfact> 0.17501243E+03</totfact>
</mgrwt>
</event>
<event>
 6    1  0.4705246E-006  0.1593456E+03  0.7546771E-02  0.1196226E+00
         -1   -1    0    0    0  501 -0.00000000000E+00  0.00000000000E+00  0.34761135009E+03  0.34761135009E+03  0.00000000000E+00 0.  1.
          1   -1    0    0  501    0  0.00000000000E+00 -0.00000000000E+00 -0.89007753418E+02  0.89007753418E+02  0.00000000000E+00 0. -1.
          5    1    1    2  502    0 -0.23346213643E+02  0.38874716586E+02 -0.49235840437E+02  0.67101022829E+02  0.47000000000E+01 0. -1.
         -5    1    1    2    0  502 -0.62880951897E+02  0.94108693578E+01  0.68216414158E+02  0.93371021918E+02  0.47000000000E+01 0. -1.
        -11    1    1    2    0    0  0.92182417909E+02 -0.23107597052E+02  0.22943911415E+03  0.24834223626E+03  0.00000000000E+00 0.  1.
         11    1    1    2    0    0 -0.59552523693E+01 -0.25177988892E+02  0.10183908805E+02  0.27804822495E+02  0.00000000000E+00 0. -1.
<mgrwt>
<rscale>  0 0.15350919E+03</rscale>
<asrwt>0</asrwt>
<pdfrwt beam="2">  1        1 0.13693501E-01 0.15934558E+03</pdfrwt>
<pdfrwt beam="1">  1       -1 0.53478669E-01 0.15934558E+03</pdfrwt>
<totfact> 0.14989829E+03</totfact>
</mgrwt>
</event>
<event>
 6    1  0.4705246E-006  0.2183571E+03  0.7546771E-02  0.1138940E+00
          1   -1    0    0  501    0  0.00000000000E+00  0.00000000000E+00  0.68679729956E+03  0.68679729956E+03  0.00000000000E+00 0. -1.
         -1   -1    0    0    0  501 -0.00000000000E+00 -0.00000000000E+00 -0.64189552597E+02  0.64189552597E+02  0.00000000000E+00 0.  1.
          5    1    1    2  502    0 -0.37157069501E+01  0.30919184589E+02  0.56127711904E+02  0.64360022509E+02  0.47000000000E+01 0. -1.
         -5    1    1    2    0  502  0.18273588935E+03 -0.32046877865E+02  0.22805823693E+03  0.29402730668E+03  0.47000000000E+01 0. -1.
        -11    1    1    2    0    0 -0.80842881073E+02  0.39932879475E+02  0.19168843697E+03  0.21183640658E+03  0.00000000000E+00 0.  1.
         11    1    1    2    0    0 -0.98177301330E+02 -0.38805186199E+02  0.14673336116E+03  0.18076311639E+03  0.00000000000E+00 0. -1.
<mgrwt>
<rscale>  0 0.21335083E+03</rscale>
<asrwt>0</asrwt>
<pdfrwt beam="1">  1        1 0.10566112E+00 0.21835710E+03</pdfrwt>
<pdfrwt beam="2">  1       -1 0.98753163E-02 0.21835710E+03</pdfrwt>
<totfact> 0.17955379E+03</totfact>
</mgrwt>
</event>
<event>
 6    1  0.4705246E-006  0.1551893E+03  0.7546771E-02  0.1202858E+00
         -2   -1    0    0    0  501 -0.00000000000E+00  0.00000000000E+00  0.10945770064E+03  0.10945770064E+03  0.00000000000E+00 0.  1.
          2   -1    0    0  501    0  0.00000000000E+00 -0.00000000000E+00 -0.18507409340E+03  0.18507409340E+03  0.00000000000E+00 0. -1.
          5    1    1    2  502    0 -0.34262896658E+02  0.18220402470E+02 -0.42473478458E+02  0.57723613244E+02  0.47000000000E+01 0. -1.
         -5    1    1    2    0  502  0.90209410708E+02  0.54788439555E+02 -0.10104922325E+02  0.10613062868E+03  0.47000000000E+01 0. -1.
        -11    1    1    2    0    0 -0.32279609424E+02 -0.57644380340E+02 -0.56482354453E+02  0.86920102013E+02  0.00000000000E+00 0. -1.
         11    1    1    2    0    0 -0.23666904626E+02 -0.15364461685E+02  0.33444362477E+02  0.43757450097E+02  0.00000000000E+00 0.  1.
<mgrwt>
<rscale>  0 0.14807529E+03</rscale>
<asrwt>0</asrwt>
<pdfrwt beam="2">  1        2 0.28472937E-01 0.15518932E+03</pdfrwt>
<pdfrwt beam="1">  1       -2 0.16839646E-01 0.15518932E+03</pdfrwt>
<totfact> 0.50484822E+03</totfact>
</mgrwt>
</event>
<event>
 6    1  0.4705246E-006  0.1740843E+03  0.7546771E-02  0.1180171E+00
          2   -1    0    0  501    0  0.00000000000E+00  0.00000000000E+00  0.11833256091E+04  0.11833256091E+04  0.00000000000E+00 0. -1.
         -2   -1    0    0    0  501 -0.00000000000E+00 -0.00000000000E+00 -0.25789099917E+02  0.25789099917E+02  0.00000000000E+00 0.  1.
          5    1    1    2  502    0  0.47142066220E+02  0.12059043172E+03  0.64294904961E+03  0.65587346114E+03  0.47000000000E+01 0.  1.
         -5    1    1    2    0  502 -0.44071845244E+02  0.53636640212E+00  0.19675040720E+03  0.20168150129E+03  0.47000000000E+01 0.  1.
        -11    1    1    2    0    0  0.14122730115E+02 -0.85785433330E+01  0.30334924986E+01  0.16800148462E+02  0.00000000000E+00 0.  1.
         11    1    1    2    0    0 -0.17192951091E+02 -0.11254825479E+03  0.31480355987E+03  0.33475959811E+03  0.00000000000E+00 0. -1.
<mgrwt>
<rscale>  0 0.16779167E+03</rscale>
<asrwt>0</asrwt>
<pdfrwt beam="1">  1        2 0.18205005E+00 0.17408428E+03</pdfrwt>
<pdfrwt beam="2">  1       -2 0.39675547E-02 0.17408428E+03</pdfrwt>
<totfact> 0.56066819E+03</totfact>
</mgrwt>
</event>
<event>
 6    1  0.4705246E-006  0.1880039E+03  0.7546771E-02  0.1164297E+00
          1   -1    0    0  501    0  0.00000000000E+00  0.00000000000E+00  0.69969388628E+03  0.69969388628E+03  0.00000000000E+00 0. -1.
         -1   -1    0    0    0  501 -0.00000000000E+00 -0.00000000000E+00 -0.76817676118E+02  0.76817676118E+02  0.00000000000E+00 0.  1.
          5    1    1    2  502    0  0.68827551866E+02  0.98455341798E+01  0.11342278412E+03  0.13312018779E+03  0.47000000000E+01 0.  1.
         -5    1    1    2    0  502  0.49227948660E+02 -0.85892961065E+02  0.45201815640E+03  0.46275641044E+03  0.47000000000E+01 0.  1.
        -11    1    1    2    0    0 -0.22361370300E+02 -0.23618922269E+02  0.52859940751E+01  0.32951875580E+02  0.00000000000E+00 0.  1.
         11    1    1    2    0    0 -0.95694130226E+02  0.99666349155E+02  0.52149275573E+02  0.14768308859E+03  0.00000000000E+00 0. -1.
<mgrwt>
<rscale>  0 0.18367053E+03</rscale>
<asrwt>0</asrwt>
<pdfrwt beam="1">  1        1 0.10764521E+00 0.18800389E+03</pdfrwt>
<pdfrwt beam="2">  1       -1 0.11818104E-01 0.18800389E+03</pdfrwt>
<totfact> 0.13214578E+03</totfact>
</mgrwt>
</event>
<event>
 6    1  0.4705246E-006  0.1612576E+03  0.7546771E-02  0.1194781E+00
          2   -1    0    0  501    0  0.00000000000E+00  0.00000000000E+00  0.80181187581E+03  0.80181187581E+03  0.00000000000E+00 0. -1.
         -2   -1    0    0    0  501 -0.00000000000E+00 -0.00000000000E+00 -0.33388020049E+02  0.33388020049E+02  0.00000000000E+00 0.  1.
          5    1    1    2  502    0  0.31638631145E+02  0.45566838484E+01  0.40596702173E+03  0.40725063423E+03  0.47000000000E+01 0.  1.
         -5    1    1    2    0  502  0.37707503979E+02 -0.79177567860E+02  0.17673690948E+03  0.19735492971E+03  0.47000000000E+01 0.  1.
        -11    1    1    2    0    0 -0.12347610860E+02  0.19645508697E+02  0.13403759214E+03  0.13603119353E+03  0.00000000000E+00 0. -1.
         11    1    1    2    0    0 -0.56998524265E+02  0.54975375314E+02  0.51682332419E+02  0.94563138397E+02  0.00000000000E+00 0.  1.
<mgrwt>
<rscale>  0 0.15472756E+03</rscale>
<asrwt>0</asrwt>
<pdfrwt beam="1">  1        2 0.12335566E+00 0.16125761E+03</pdfrwt>
<pdfrwt beam="2">  1       -2 0.51366191E-02 0.16125761E+03</pdfrwt>
<totfact> 0.64831582E+03</totfact>
</mgrwt>
</event>
<event>
 6    1  0.4705246E-006  0.1672995E+03  0.7546771E-02  0.1187109E+00
         -2   -1    0    0    0  501 -0.00000000000E+00  0.00000000000E+00  0.53370797450E+02  0.53370797450E+02  0.00000000000E+00 0.  1.
          2   -1    0    0  501    0  0.00000000000E+00 -0.00000000000E+00 -0.52172976071E+03  0.52172976071E+03  0.00000000000E+00 0. -1.
          5    1    1    2  502    0  0.73585632272E+02 -0.16808696239E+02 -0.29350993670E+03  0.30309660256E+03  0.47000000000E+01 0. -1.
         -5    1    1    2    0  502  0.30803763069E+02  0.55113619197E+02 -0.56565351698E+02  0.84900599838E+02  0.47000000000E+01 0. -1.
        -11    1    1    2    0    0 -0.69169318227E+02 -0.82051179368E+01 -0.11360927127E+02  0.70574706585E+02  0.00000000000E+00 0.  1.
         11    1    1    2    0    0 -0.35220077114E+02 -0.30099805021E+02 -0.10692274774E+03  0.11652864918E+03  0.00000000000E+00 0. -1.
<mgrwt>
<rscale>  0 0.16141407E+03</rscale>
<asrwt>0</asrwt>
<pdfrwt beam="2">  1        2 0.80266115E-01 0.16729950E+03</pdfrwt>
<pdfrwt beam="1">  1       -2 0.82108921E-02 0.16729950E+03</pdfrwt>
<totfact> 0.52443814E+03</totfact>
</mgrwt>
</event>
<event>
 6    1  0.4705246E-006  0.1917733E+03  0.7546771E-02  0.1161832E+00
         -2   -1    0    0    0  501 -0.00000000000E+00  0.00000000000E+00  0.29783240740E+02  0.29783240740E+02  0.00000000000E+00 0.  1.
          2   -1    0    0  501    0  0.00000000000E+00 -0.00000000000E+00 -0.14850125212E+04  0.14850125212E+04  0.00000000000E+00 0. -1.
          5    1    1    2  502    0  0.61406768239E+02 -0.97332717754E+01 -0.37800866567E+03  0.38311639105E+03  0.47000000000E+01 0.  1.
         -5    1    1    2    0  502 -0.15765955486E+02 -0.12835836064E+03 -0.76414543175E+03  0.77502565439E+03  0.47000000000E+01 0.  1.
        -11    1    1    2    0    0 -0.69556708076E+02  0.73485991772E+02 -0.16945701601E+03  0.19736769468E+03  0.00000000000E+00 0.  1.
         11    1    1    2    0    0  0.23915895323E+02  0.64605640642E+02 -0.14361816707E+03  0.15928602187E+03  0.00000000000E+00 0. -1.
<mgrwt>
<rscale>  0 0.18631063E+03</rscale>
<asrwt>0</asrwt>
<pdfrwt beam="2">  1        2 0.22846343E+00 0.19177334E+03</pdfrwt>
<pdfrwt beam="1">  1       -2 0.45820377E-02 0.19177334E+03</pdfrwt>
<totfact> 0.31022329E+03</totfact>
</mgrwt>
</event>
<event>
 6    1  0.4705246E-006  0.1946223E+03  0.7546771E-02  0.1159013E+00
          2   -1    0    0  501    0  0.00000000000E+00  0.00000000000E+00  0.28366590343E+03  0.28366590343E+03  0.00000000000E+00 0.  1.
         -2   -1    0    0    0  501 -0.00000000000E+00 -0.00000000000E+00 -0.12186867179E+03  0.12186867179E+03  0.00000000000E+00 0. -1.
          5    1    1    2  502    0 -0.71643628566E+02 -0.25233839991E+01  0.11975902546E+03  0.13965490024E+03  0.47000000000E+01 0. -1.
         -5    1    1    2    0  502 -0.72757540236E+02  0.39943170606E+02 -0.10083344596E+02  0.83742942255E+02  0.47000000000E+01 0. -1.
        -11    1    1    2    0    0  0.79878488668E+02 -0.41900772459E+02 -0.12077599329E+02  0.91006132157E+02  0.00000000000E+00 0. -1.
         11    1    1    2    0    0  0.64522680134E+02  0.44809858523E+01  0.64199150097E+02  0.91130600564E+02  0.00000000000E+00 0.  1.
<mgrwt>
<rscale>  0 0.18938936E+03</rscale>
<asrwt>0</asrwt>
<pdfrwt beam="1">  1        2 0.43640908E-01 0.19462230E+03</pdfrwt>
<pdfrwt beam="2">  1       -2 0.18749026E-01 0.19462230E+03</pdfrwt>
<totfact> 0.26881130E+03</totfact>
</mgrwt>
</event>
<event>
 6    1  0.4705246E-006  0.1332693E+03  0.7546771E-02  0.1253233E+00
         -2   -1    0    0    0  501 -0.00000000000E+00  0.00000000000E+00  0.10436085810E+04  0.10436085810E+04  0.00000000000E+00 0.  1.
          2   -1    0    0  501    0  0.00000000000E+00 -0.00000000000E+00 -0.10052818625E+02  0.10052818625E+02  0.00000000000E+00 0. -1.
          5    1    1    2  502    0 -0.41971404545E+02 -0.24411571158E+02  0.36436980716E+03  0.36762068763E+03  0.47000000000E+01 0. -1.
         -5    1    1    2    0  502  0.33594968578E+02  0.69939299306E+02  0.29401554288E+03  0.30411734077E+03  0.47000000000E+01 0. -1.
        -11    1    1    2    0    0 -0.20709488734E+02 -0.34794891594E+02  0.21531681126E+03  0.21909106923E+03  0.00000000000E+00 0.  1.
         11    1    1    2    0    0  0.29085924702E+02 -0.10732836553E+02  0.15985360103E+03  0.16283230196E+03  0.00000000000E+00 0. -1.
<mgrwt>
<rscale>  0 0.11405861E+03</rscale>
<asrwt>0</asrwt>
<pdfrwt beam="2">  1        2 0.15465883E-02 0.13326931E+03</pdfrwt>
<pdfrwt beam="1">  1       -2 0.16055508E+00 0.13326931E+03</pdfrwt>
<totfact> 0.19856216E+03</totfact>
</mgrwt>
</event>
<event>
 6    1  0.4705246E-006  0.1528116E+03  0.7546771E-02  0.1206261E+00
          2   -1    0    0  501    0  0.00000000000E+00  0.00000000000E+00  0.92812609447E+03  0.92812609447E+03  0.00000000000E+00 0. -1.
         -2   -1    0    0    0  501 -0.00000000000E+00 -0.00000000000E+00 -0.40291884184E+02  0.40291884184E+02  0.00000000000E+00 0.  1.
          5    1    1    2  502    0  0.12845604658E+01 -0.11489941733E+03  0.69875884322E+03  0.70815925975E+03  0.47000000000E+01 0. -1.
         -5    1    1    2    0  502 -0.15768851928E+02  0.28205718112E+02  0.10369685327E+03  0.10871681841E+03  0.47000000000E+01 0. -1.
        -11    1    1    2    0    0  0.30545257142E+02  0.12243493610E+02 -0.50717597240E+01  0.33296225257E+02  0.00000000000E+00 0.  1.
         11    1    1    2    0    0 -0.16060965680E+02  0.74450205605E+02  0.90450273516E+02  0.11824567524E+03  0.00000000000E+00 0. -1.
<mgrwt>
<rscale>  0 0.14538505E+03</rscale>
<asrwt>0</asrwt>
<pdfrwt beam="1">  1        2 0.14278861E+00 0.15281159E+03</pdfrwt>
<pdfrwt beam="2">  1       -2 0.61987522E-02 0.15281159E+03</pdfrwt>
<totfact> 0.40275025E+03</totfact>
</mgrwt>
</event>
<event>
 6    1  0.4705246E-006  0.1463055E+03  0.7546771E-02  0.1215244E+00
          2   -1    0    0  501    0  0.00000000000E+00  0.00000000000E+00  0.38380733412E+03  0.38380733412E+03  0.00000000000E+00 0. -1.
         -2   -1    0    0    0  501 -0.00000000000E+00 -0.00000000000E+00 -0.53584336879E+02  0.53584336879E+02  0.00000000000E+00 0.  1.
          5    1    1    2  502    0  0.36049627028E+02  0.22719164813E+02  0.71314961084E+02  0.83208471522E+02  0.47000000000E+01 0.  1.
         -5    1    1    2    0  502 -0.30506774208E+02 -0.98547976188E+02  0.19380205534E+03  0.21959893792E+03  0.47000000000E+01 0.  1.
        -11    1    1    2    0    0  0.88414761482E+01  0.48913554224E+01 -0.20273904183E+02  0.22652334298E+02  0.00000000000E+00 0.  1.
         11    1    1    2    0    0 -0.14384328968E+02  0.70937455953E+02  0.85379885005E+02  0.11193192726E+03  0.00000000000E+00 0. -1.
<mgrwt>
<rscale>  0 0.13858659E+03</rscale>
<asrwt>0</asrwt>
<pdfrwt beam="1">  1        2 0.59047280E-01 0.14630548E+03</pdfrwt>
<pdfrwt beam="2">  1       -2 0.82437444E-02 0.14630548E+03</pdfrwt>
<totfact> 0.72258204E+03</totfact>
</mgrwt>
</event>
<event>
 6    1  0.4705246E-006  0.3542258E+03  0.7546771E-02  0.1060894E+00
          2   -1    0    0  501    0  0.00000000000E+00  0.00000000000E+00  0.42493347758E+03  0.42493347758E+03  0.00000000000E+00 0. -1.
         -2   -1    0    0    0  501 -0.00000000000E+00 -0.00000000000E+00 -0.73820904125E+02  0.73820904125E+02  0.00000000000E+00 0.  1.
          5    1    1    2  502    0 -0.28484292506E+02 -0.11375768775E+02  0.52987450915E+01  0.31479036427E+02  0.47000000000E+01 0. -1.
         -5    1    1    2    0  502 -0.22286928842E+02  0.13972256608E+03  0.20876640981E+03  0.25223918517E+03  0.47000000000E+01 0. -1.
        -11    1    1    2    0    0  0.54592514576E+02 -0.21731984688E+02  0.54544266672E+02  0.80172930800E+02  0.00000000000E+00 0. -1.
         11    1    1    2    0    0 -0.38212932274E+01 -0.10661481261E+03  0.82503151884E+02  0.13486322932E+03  0.00000000000E+00 0.  1.
<mgrwt>
<rscale>  0 0.35422577E+03</rscale>
<asrwt>0</asrwt>
<pdfrwt beam="1">  1        2 0.65374379E-01 0.35422577E+03</pdfrwt>
<pdfrwt beam="2">  1       -2 0.11357062E-01 0.35422577E+03</pdfrwt>
<totfact> 0.40528210E+03</totfact>
</mgrwt>
</event>
<event>
 6    1  0.4705246E-006  0.1392214E+03  0.7546771E-02  0.1224167E+00
          3   -1    0    0  501    0  0.00000000000E+00  0.00000000000E+00  0.13616212270E+03  0.13616212270E+03  0.00000000000E+00 0. -1.
         -3   -1    0    0    0  501 -0.00000000000E+00 -0.00000000000E+00 -0.12042359215E+03  0.12042359215E+03  0.00000000000E+00 0.  1.
          5    1    1    2  502    0 -0.33825739856E+02 -0.31324127461E+02  0.58645388407E+02  0.74744586556E+02  0.47000000000E+01 0.  1.
         -5    1    1    2    0  502  0.55109286241E+02 -0.26169851823E+02 -0.28820107169E+02  0.67635664790E+02  0.47000000000E+01 0.  1.
        -11    1    1    2    0    0 -0.30039594026E+02 -0.49704585990E+01 -0.36258232256E+02  0.47347038707E+02  0.00000000000E+00 0.  1.
         11    1    1    2    0    0  0.87560476414E+01  0.62464437883E+02  0.22171481572E+02  0.66858424790E+02  0.00000000000E+00 0. -1.
<mgrwt>
<rscale>  0 0.13224183E+03</rscale>
<asrwt>0</asrwt>
<pdfrwt beam="1">  1        3 0.20948019E-01 0.13922137E+03</pdfrwt>
<pdfrwt beam="2">  1       -3 0.18526706E-01 0.13922137E+03</pdfrwt>
<totfact> 0.12272268E+03</totfact>
</mgrwt>
</event>
<event>
 6    1  0.4705246E-006  0.1286327E+03  0.7546771E-02  0.1243528E+00
          1   -1    0    0  501    0  0.00000000000E+00  0.00000000000E+00  0.27277562576E+03  0.27277562576E+03  0.00000000000E+00 0. -1.
         -1   -1    0    0    0  501 -0.00000000000E+00 -0.00000000000E+00 -0.60178201584E+02  0.60178201584E+02  0.00000000000E+00 0.  1.
          5    1    1    2  502    0  0.42615765730E+00 -0.41296969901E+02  0.21727824320E+02  0.46902128769E+02  0.47000000000E+01 0.  1.
         -5    1    1    2    0  502 -0.16834927078E+02  0.66838368113E+02  0.17504324889E+03  0.18818345093E+03  0.47000000000E+01 0.  1.
        -11    1    1    2    0    0 -0.10085798492E+02 -0.32660274272E+02 -0.29323790025E+02  0.45036668484E+02  0.00000000000E+00 0.  1.
         11    1    1    2    0    0  0.26494567913E+02  0.71188760602E+01  0.45150140989E+02  0.52831579161E+02  0.00000000000E+00 0. -1.
<mgrwt>
<rscale>  0 0.11973897E+03</rscale>
<asrwt>0</asrwt>
<pdfrwt beam="1">  1        1 0.41965480E-01 0.12863271E+03</pdfrwt>
<pdfrwt beam="2">  1       -1 0.92581850E-02 0.12863271E+03</pdfrwt>
<totfact> 0.64523356E+03</totfact>
</mgrwt>
</event>
<event>
 6    1  0.4705246E-006  0.4527408E+03  0.7546771E-02  0.1026908E+00
         -1   -1    0    0    0  501 -0.00000000000E+00  0.00000000000E+00  0.34933472819E+03  0.34933472819E+03  0.00000000000E+00 0.  1.
          1   -1    0    0  501    0  0.00000000000E+00 -0.00000000000E+00 -0.14668899856E+03  0.14668899856E+03  0.00000000000E+00 0. -1.
          5    1    1    2  502    0  0.36971932435E+01  0.26312076939E+01 -0.13452935916E+03  0.13468790208E+03  0.47000000000E+01 0. -1.
         -5    1    1    2    0  502 -0.41112363724E+00  0.25631577615E+02  0.29150305079E+02  0.39102136513E+02  0.47000000000E+01 0.  1.
        -11    1    1    2    0    0 -0.95165657072E+01 -0.56129240198E+02  0.26165801751E+03  0.26777971311E+03  0.00000000000E+00 0.  1.
         11    1    1    2    0    0  0.62304961010E+01  0.27866454889E+02  0.46366766205E+02  0.54453975044E+02  0.00000000000E+00 0. -1.
<mgrwt>
<rscale>  0 0.45274082E+03</rscale>
<asrwt>0</asrwt>
<pdfrwt beam="2">  1        1 0.22567538E-01 0.45274082E+03</pdfrwt>
<pdfrwt beam="1">  1       -1 0.53743804E-01 0.45274082E+03</pdfrwt>
<totfact> 0.78559546E+02</totfact>
</mgrwt>
</event>
<event>
 6    1  0.4705246E-006  0.2315875E+03  0.7546771E-02  0.1125527E+00
         -2   -1    0    0    0  501 -0.00000000000E+00  0.00000000000E+00  0.57689747782E+02  0.57689747782E+02  0.00000000000E+00 0.  1.
          2   -1    0    0  501    0  0.00000000000E+00 -0.00000000000E+00 -0.23241888864E+03  0.23241888864E+03  0.00000000000E+00 0. -1.
          5    1    1    2  502    0  0.90396311107E+01 -0.48363281541E+02 -0.41337858589E+00  0.49426539571E+02  0.47000000000E+01 0.  1.
         -5    1    1    2    0  502 -0.14026859680E+02  0.14589886484E+02 -0.14040216114E+03  0.14193123135E+03  0.47000000000E+01 0.  1.
        -11    1    1    2    0    0 -0.29067724722E+02  0.21505562689E+02  0.13937219644E+02  0.38751360473E+02  0.00000000000E+00 0.  1.
         11    1    1    2    0    0  0.34054953292E+02  0.12267832369E+02 -0.47850820783E+02  0.59999505034E+02  0.00000000000E+00 0. -1.
<mgrwt>
<rscale>  0 0.23158745E+03</rscale>
<asrwt>0</asrwt>
<pdfrwt beam="2">  1        2 0.35756752E-01 0.23158745E+03</pdfrwt>
<pdfrwt beam="1">  1       -2 0.88753459E-02 0.23158745E+03</pdfrwt>
<totfact> 0.11359840E+04</totfact>
</mgrwt>
</event>
<event>
 6    1  0.4705246E-006  0.1729358E+03  0.7546771E-02  0.1180092E+00
         -2   -1    0    0    0  501 -0.00000000000E+00  0.00000000000E+00  0.84512012956E+02  0.84512012956E+02  0.00000000000E+00 0.  1.
          2   -1    0    0  501    0  0.00000000000E+00 -0.00000000000E+00 -0.31682873582E+03  0.31682873582E+03  0.00000000000E+00 0. -1.
          5    1    1    2  502    0  0.53759657936E+02  0.33272324146E+02 -0.84713151577E+02  0.10580905644E+03  0.47000000000E+01 0. -1.
         -5    1    1    2    0  502 -0.54711885863E+02  0.86223099319E+02 -0.52310630594E+02  0.11483163930E+03  0.47000000000E+01 0. -1.
        -11    1    1    2    0    0 -0.19676594445E+02 -0.55911623112E+02  0.57452579507E+01  0.59550700725E+02  0.00000000000E+00 0.  1.
         11    1    1    2    0    0  0.20628822371E+02 -0.63583800353E+02 -0.10103819865E+03  0.12114935231E+03  0.00000000000E+00 0. -1.
<mgrwt>
<rscale>  0 0.16786600E+03</rscale>
<asrwt>0</asrwt>
<pdfrwt beam="2">  1        2 0.48742881E-01 0.17293583E+03</pdfrwt>
<pdfrwt beam="1">  1       -2 0.13001848E-01 0.17293583E+03</pdfrwt>
<totfact> 0.43520654E+03</totfact>
</mgrwt>
</event>
<event>
 6    1  0.4705246E-006  0.1593046E+03  0.7546771E-02  0.1214154E+00
         -2   -1    0    0    0  501 -0.00000000000E+00  0.00000000000E+00  0.20585658029E+03  0.20585658029E+03  0.00000000000E+00 0.  1.
          2   -1    0    0  501    0  0.00000000000E+00 -0.00000000000E+00 -0.77538522914E+02  0.77538522914E+02  0.00000000000E+00 0. -1.
          5    1    1    2  502    0 -0.37633068429E+02 -0.88776095521E+01 -0.37079904471E+02  0.53777961158E+02  0.47000000000E+01 0. -1.
         -5    1    1    2    0  502  0.41294178717E+02 -0.15758996385E+01  0.11756319976E+03  0.12470320202E+03  0.47000000000E+01 0.  1.
        -11    1    1    2    0    0 -0.26588076449E+02 -0.13164175589E+02 -0.15546706531E+02  0.33495095345E+02  0.00000000000E+00 0.  1.
         11    1    1    2    0    0  0.22926966161E+02  0.23617684780E+02  0.63381468613E+02  0.71418844679E+02  0.00000000000E+00 0. -1.
<mgrwt>
<rscale>  0 0.13938890E+03</rscale>
<asrwt>0</asrwt>
<pdfrwt beam="2">  1        2 0.11929004E-01 0.15930463E+03</pdfrwt>
<pdfrwt beam="1">  1       -2 0.31670243E-01 0.15930463E+03</pdfrwt>
<totfact> 0.45894963E+03</totfact>
</mgrwt>
</event>
<event>
 6    1  0.4705246E-006  0.2561464E+03  0.7546771E-02  0.1109481E+00
         -3   -1    0    0    0  501 -0.00000000000E+00  0.00000000000E+00  0.99066263957E+02  0.99066263957E+02  0.00000000000E+00 0.  1.
          3   -1    0    0  501    0  0.00000000000E+00 -0.00000000000E+00 -0.16557347617E+03  0.16557347617E+03  0.00000000000E+00 0. -1.
          5    1    1    2  502    0  0.23143221363E+01 -0.38021761558E+02 -0.53046460409E+01  0.38745834725E+02  0.47000000000E+01 0.  1.
         -5    1    1    2    0  502 -0.40451442071E+02  0.94730467228E+02 -0.42313830374E+02  0.11145730495E+03  0.47000000000E+01 0.  1.
        -11    1    1    2    0    0 -0.18737743895E+02 -0.47096414112E+02 -0.24844679856E+02  0.56448502067E+02  0.00000000000E+00 0.  1.
         11    1    1    2    0    0  0.56874863830E+02 -0.96122915581E+01  0.59559440550E+01  0.57988098384E+02  0.00000000000E+00 0. -1.
<mgrwt>
<rscale>  0 0.25614641E+03</rscale>
<asrwt>0</asrwt>
<pdfrwt beam="2">  1        3 0.25472842E-01 0.25614641E+03</pdfrwt>
<pdfrwt beam="1">  1       -3 0.15240964E-01 0.25614641E+03</pdfrwt>
<totfact> 0.13234789E+03</totfact>
</mgrwt>
</event>
<event>
 6    1  0.4705246E-006  0.1280071E+03  0.7546771E-02  0.1242359E+00
          2   -1    0    0  501    0  0.00000000000E+00  0.00000000000E+00  0.10400235855E+04  0.10400235855E+04  0.00000000000E+00 0. -1.
         -2   -1    0    0    0  501 -0.00000000000E+00 -0.00000000000E+00 -0.15075668272E+02  0.15075668272E+02  0.00000000000E+00 0.  1.
          5    1    1    2  502    0 -0.20702576773E+00 -0.40660119425E+02  0.11736096215E+03  0.12429390013E+03  0.47000000000E+01 0. -1.
         -5    1    1    2    0  502  0.34134024283E+01  0.68009413426E+02  0.66198064326E+03  0.66549034079E+03  0.47000000000E+01 0. -1.
        -11    1    1    2    0    0 -0.49081668662E+02 -0.17117009593E+02  0.10704114622E+03  0.11899499654E+03  0.00000000000E+00 0.  1.
         11    1    1    2    0    0  0.45875292001E+02 -0.10232284407E+02  0.13856516557E+03  0.14632001630E+03  0.00000000000E+00 0. -1.
<mgrwt>
<rscale>  0 0.12044866E+03</rscale>
<asrwt>0</asrwt>
<pdfrwt beam="1">  1        2 0.16000357E+00 0.12800707E+03</pdfrwt>
<pdfrwt beam="2">  1       -2 0.23193344E-02 0.12800707E+03</pdfrwt>
<totfact> 0.14727477E+04</totfact>
</mgrwt>
</event>
<event>
 6    1  0.4705246E-006  0.2047414E+03  0.7546771E-02  0.1160918E+00
         -2   -1    0    0    0  501 -0.00000000000E+00  0.00000000000E+00  0.27861915332E+03  0.27861915332E+03  0.00000000000E+00 0.  1.
          2   -1    0    0  501    0  0.00000000000E+00 -0.00000000000E+00 -0.10901798031E+03  0.10901798031E+03  0.00000000000E+00 0. -1.
          5    1    1    2  502    0  0.32822669106E+02 -0.34077569508E+02 -0.37865335823E+02  0.60782250763E+02  0.47000000000E+01 0. -1.
         -5    1    1    2    0  502  0.75109252198E+02  0.66909530734E+02  0.12815224617E+03  0.16298273917E+03  0.47000000000E+01 0.  1.
        -11    1    1    2    0    0 -0.48025627305E+01  0.24376176529E+02  0.82334871990E+01  0.26173515286E+02  0.00000000000E+00 0.  1.
         11    1    1    2    0    0 -0.10312935857E+03 -0.57208137755E+02  0.71080775464E+02  0.13769862841E+03  0.00000000000E+00 0. -1.
<mgrwt>
<rscale>  0 0.18730136E+03</rscale>
<asrwt>0</asrwt>
<pdfrwt beam="2">  1        2 0.16771997E-01 0.20474141E+03</pdfrwt>
<pdfrwt beam="1">  1       -2 0.42864485E-01 0.20474141E+03</pdfrwt>
<totfact> 0.17568976E+03</totfact>
</mgrwt>
</event>
<event>
 6    1  0.4705246E-006  0.1806641E+03  0.7546771E-02  0.1172632E+00
          1   -1    0    0  501    0  0.00000000000E+00  0.00000000000E+00  0.13765633625E+04  0.13765633625E+04  0.00000000000E+00 0. -1.
         -1   -1    0    0    0  501 -0.00000000000E+00 -0.00000000000E+00 -0.21245144098E+02  0.21245144098E+02  0.00000000000E+00 0.  1.
          5    1    1    2  502    0 -0.95621816114E+02 -0.59815937599E+01  0.67607125502E+03  0.68284239986E+03  0.47000000000E+01 0.  1.
         -5    1    1    2    0  502 -0.20061135566E+02 -0.54264754739E+02  0.11776979147E+03  0.13129709269E+03  0.47000000000E+01 0.  1.
        -11    1    1    2    0    0  0.79007920164E+02  0.84086801199E+02  0.39094395220E+03  0.40761503327E+03  0.00000000000E+00 0. -1.
         11    1    1    2    0    0  0.36675031517E+02 -0.23840452700E+02  0.17053321971E+03  0.17605398077E+03  0.00000000000E+00 0.  1.
<mgrwt>
<rscale>  0 0.17509979E+03</rscale>
<asrwt>0</asrwt>
<pdfrwt beam="1">  1        1 0.21177891E+00 0.18066407E+03</pdfrwt>
<pdfrwt beam="2">  1       -1 0.32684848E-02 0.18066407E+03</pdfrwt>
<totfact> 0.28632895E+03</totfact>
</mgrwt>
</event>
<event>
 6    1  0.4705246E-006  0.2830075E+03  0.7546771E-02  0.1095859E+00
          1   -1    0    0  501    0  0.00000000000E+00  0.00000000000E+00  0.33735722346E+03  0.33735722346E+03  0.00000000000E+00 0. -1.
         -1   -1    0    0    0  501 -0.00000000000E+00 -0.00000000000E+00 -0.23294398122E+03  0.23294398122E+03  0.00000000000E+00 0.  1.
          5    1    1    2  502    0 -0.26089658648E+02 -0.94331810297E+01  0.56622701207E+02  0.63228755204E+02  0.47000000000E+01 0.  1.
         -5    1    1    2    0  502 -0.21403529990E+03  0.91930099091E+02  0.43823560706E+02  0.23707561493E+03  0.47000000000E+01 0.  1.
        -11    1    1    2    0    0  0.10138318861E+03 -0.67200608532E+02 -0.32165216484E+02  0.12581364739E+03  0.00000000000E+00 0.  1.
         11    1    1    2    0    0  0.13874176994E+03 -0.15296309529E+02  0.36132196811E+02  0.14418318715E+03  0.00000000000E+00 0. -1.
<mgrwt>
<rscale>  0 0.27968968E+03</rscale>
<asrwt>0</asrwt>
<pdfrwt beam="1">  1        1 0.51901111E-01 0.28300753E+03</pdfrwt>
<pdfrwt beam="2">  1       -1 0.35837536E-01 0.28300753E+03</pdfrwt>
<totfact> 0.56832513E+02</totfact>
</mgrwt>
</event>
<event>
 6    1  0.4705246E-006  0.1719807E+03  0.7546771E-02  0.1182053E+00
         -4   -1    0    0    0  501 -0.00000000000E+00  0.00000000000E+00  0.41995203631E+02  0.41995203631E+02  0.00000000000E+00 0.  1.
          4   -1    0    0  501    0  0.00000000000E+00 -0.00000000000E+00 -0.61967965402E+03  0.61967965402E+03  0.00000000000E+00 0. -1.
          5    1    1    2  502    0 -0.43561149349E+02 -0.27527817232E+02 -0.29589762660E+03  0.30038783244E+03  0.47000000000E+01 0. -1.
         -5    1    1    2    0  502 -0.54331668023E+02 -0.38567927268E+02 -0.42400499732E+02  0.79115785665E+02  0.47000000000E+01 0. -1.
        -11    1    1    2    0    0  0.47991981491E+01  0.39308149189E+02 -0.13076139811E+03  0.13662615464E+03  0.00000000000E+00 0. -1.
         11    1    1    2    0    0  0.93093619223E+02  0.26787595311E+02 -0.10862492595E+03  0.14554508491E+03  0.00000000000E+00 0.  1.
<mgrwt>
<rscale>  0 0.16602901E+03</rscale>
<asrwt>0</asrwt>
<pdfrwt beam="2">  1        4 0.95335329E-01 0.17198074E+03</pdfrwt>
<pdfrwt beam="1">  1       -4 0.64608007E-02 0.17198074E+03</pdfrwt>
<totfact> 0.26109888E+02</totfact>
</mgrwt>
</event>
<event>
 6    1  0.4705246E-006  0.2789977E+03  0.7546771E-02  0.1096238E+00
          2   -1    0    0  501    0  0.00000000000E+00  0.00000000000E+00  0.49838980961E+02  0.49838980961E+02  0.00000000000E+00 0. -1.
         -2   -1    0    0    0  501 -0.00000000000E+00 -0.00000000000E+00 -0.39045596542E+03  0.39045596542E+03  0.00000000000E+00 0.  1.
          5    1    1    2  502    0  0.11824677860E+02  0.84587717563E+02 -0.23901065026E+02  0.88815853756E+02  0.47000000000E+01 0. -1.
         -5    1    1    2    0  502  0.57138616430E+01 -0.73245426611E+00 -0.11977991183E+03  0.12001042447E+03  0.47000000000E+01 0. -1.
        -11    1    1    2    0    0 -0.19492039082E+02  0.51610335196E+01 -0.63994745589E+01  0.21154884287E+02  0.00000000000E+00 0. -1.
         11    1    1    2    0    0  0.19534995786E+01 -0.89016296817E+02 -0.19053653305E+03  0.21031378387E+03  0.00000000000E+00 0.  1.
<mgrwt>
<rscale>  0 0.27899769E+03</rscale>
<asrwt>0</asrwt>
<pdfrwt beam="1">  1        2 0.76675354E-02 0.27899769E+03</pdfrwt>
<pdfrwt beam="2">  1       -2 0.60070149E-01 0.27899769E+03</pdfrwt>
<totfact> 0.23638950E+03</totfact>
</mgrwt>
</event>
<event>
 6    1  0.4705246E-006  0.1450200E+03  0.7546771E-02  0.1220328E+00
         -1   -1    0    0    0  501 -0.00000000000E+00  0.00000000000E+00  0.98998168703E+02  0.98998168703E+02  0.00000000000E+00 0.  1.
          1   -1    0    0  501    0  0.00000000000E+00 -0.00000000000E+00 -0.18290038982E+03  0.18290038982E+03  0.00000000000E+00 0. -1.
          5    1    1    2  502    0 -0.41750357957E+02  0.43306750304E+01 -0.11375982056E+03  0.12134757480E+03  0.47000000000E+01 0. -1.
         -5    1    1    2    0  502 -0.21319400137E+02 -0.42131742360E+02  0.19836081068E+02  0.51431125290E+02  0.47000000000E+01 0. -1.
        -11    1    1    2    0    0  0.29332183343E+02  0.24466685223E+02 -0.34651445460E+02  0.51572457165E+02  0.00000000000E+00 0. -1.
         11    1    1    2    0    0  0.33737574751E+02  0.13334382106E+02  0.44672963829E+02  0.57547401275E+02  0.00000000000E+00 0.  1.
<mgrwt>
<rscale>  0 0.13492335E+03</rscale>
<asrwt>0</asrwt>
<pdfrwt beam="2">  1        1 0.28138521E-01 0.14502003E+03</pdfrwt>
<pdfrwt beam="1">  1       -1 0.15230488E-01 0.14502003E+03</pdfrwt>
<totfact> 0.49501110E+03</totfact>
</mgrwt>
</event>
<event>
 6    1  0.4705246E-006  0.1318371E+03  0.7546771E-02  0.1231202E+00
          1   -1    0    0  501    0  0.00000000000E+00  0.00000000000E+00  0.84021904601E+03  0.84021904601E+03  0.00000000000E+00 0.  1.
         -1   -1    0    0    0  501 -0.00000000000E+00 -0.00000000000E+00 -0.29484231779E+02  0.29484231779E+02  0.00000000000E+00 0. -1.
          5    1    1    2  502    0  0.34305196444E+02  0.25701091157E+02  0.57399200125E+03  0.57560950313E+03  0.47000000000E+01 0.  1.
         -5    1    1    2    0  502 -0.49544784375E+02  0.13331535703E+02  0.11692218668E+03  0.12777051006E+03  0.47000000000E+01 0.  1.
        -11    1    1    2    0    0 -0.26233351544E+02 -0.46921315010E+01 -0.78340491135E+01  0.27777277707E+02  0.00000000000E+00 0. -1.
         11    1    1    2    0    0  0.41472939476E+02 -0.34340495359E+02  0.12765467542E+03  0.13854598690E+03  0.00000000000E+00 0.  1.
<mgrwt>
<rscale>  0 0.12750760E+03</rscale>
<asrwt>0</asrwt>
<pdfrwt beam="1">  1        1 0.12926445E+00 0.13183713E+03</pdfrwt>
<pdfrwt beam="2">  1       -1 0.45360363E-02 0.13183713E+03</pdfrwt>
<totfact> 0.42355090E+03</totfact>
</mgrwt>
</event>
<event>
 6    1  0.4705246E-006  0.1274285E+03  0.7546771E-02  0.1246661E+00
         -2   -1    0    0    0  501 -0.00000000000E+00  0.00000000000E+00  0.17100467345E+03  0.17100467345E+03  0.00000000000E+00 0.  1.
          2   -1    0    0  501    0  0.00000000000E+00 -0.00000000000E+00 -0.74893519936E+02  0.74893519936E+02  0.00000000000E+00 0. -1.
          5    1    1    2  502    0 -0.65173694308E+02 -0.33904705542E+02  0.28003913178E+02  0.78761974588E+02  0.47000000000E+01 0.  1.
         -5    1    1    2    0  502  0.49312033450E+02  0.14950335458E+02  0.16439938839E+00  0.51742692242E+02  0.47000000000E+01 0.  1.
        -11    1    1    2    0    0 -0.28769742543E+02  0.28694737191E+02  0.10439326944E+02  0.41953135466E+02  0.00000000000E+00 0.  1.
         11    1    1    2    0    0  0.44631403401E+02 -0.97403671072E+01  0.57503514006E+02  0.73440391094E+02  0.00000000000E+00 0. -1.
<mgrwt>
<rscale>  0 0.11786537E+03</rscale>
<asrwt>0</asrwt>
<pdfrwt beam="2">  1        2 0.11522080E-01 0.12742847E+03</pdfrwt>
<pdfrwt beam="1">  1       -2 0.26308411E-01 0.12742847E+03</pdfrwt>
<totfact> 0.65658049E+03</totfact>
</mgrwt>
</event>
<event>
 6    1  0.4705246E-006  0.1324294E+03  0.7546771E-02  0.1237188E+00
         -2   -1    0    0    0  501 -0.00000000000E+00  0.00000000000E+00  0.21165207321E+02  0.21165207321E+02  0.00000000000E+00 0.  1.
          2   -1    0    0  501    0  0.00000000000E+00 -0.00000000000E+00 -0.10256764690E+04  0.10256764690E+04  0.00000000000E+00 0. -1.
          5    1    1    2  502    0  0.27417324931E+02  0.21486648592E+01 -0.52417670692E+02  0.59380372749E+02  0.47000000000E+01 0. -1.
         -5    1    1    2    0  502 -0.70769372912E+02 -0.79198959895E+01 -0.81102419784E+03  0.81415807334E+03  0.47000000000E+01 0. -1.
        -11    1    1    2    0    0 -0.21166595416E+02  0.23440493010E+02 -0.63155202485E+02  0.70612046245E+02  0.00000000000E+00 0. -1.
         11    1    1    2    0    0  0.64518643397E+02 -0.17669261880E+02 -0.77914190625E+02  0.10269118395E+03  0.00000000000E+00 0.  1.
<mgrwt>
<rscale>  0 0.12365395E+03</rscale>
<asrwt>0</asrwt>
<pdfrwt beam="2">  1        2 0.15779633E+00 0.13242944E+03</pdfrwt>
<pdfrwt beam="1">  1       -2 0.32561867E-02 0.13242944E+03</pdfrwt>
<totfact> 0.91563981E+03</totfact>
</mgrwt>
</event>
<event>
 6    1  0.4705246E-006  0.1425660E+03  0.7546771E-02  0.1283454E+00
          2   -1    0    0  501    0  0.00000000000E+00  0.00000000000E+00  0.37915246402E+03  0.37915246402E+03  0.00000000000E+00 0. -1.
         -2   -1    0    0    0  501 -0.00000000000E+00 -0.00000000000E+00 -0.27007250913E+02  0.27007250913E+02  0.00000000000E+00 0.  1.
          5    1    1    2  502    0 -0.11555844915E+01  0.34342462437E+02  0.28825315882E+03  0.29033207482E+03  0.47000000000E+01 0. -1.
         -5    1    1    2    0  502 -0.21486970428E+02 -0.56172588734E+02  0.56153124011E+02  0.82415489803E+02  0.47000000000E+01 0.  1.
        -11    1    1    2    0    0  0.10393686975E+02  0.14495836385E+02  0.17242768658E+01  0.17920132034E+02  0.00000000000E+00 0. -1.
         11    1    1    2    0    0  0.12248867945E+02  0.73342899125E+01  0.60146534095E+01  0.15492018270E+02  0.00000000000E+00 0.  1.
<mgrwt>
<rscale>  0 0.98513246E+02</rscale>
<asrwt>0</asrwt>
<pdfrwt beam="1">  1        2 0.58331144E-01 0.14256598E+03</pdfrwt>
<pdfrwt beam="2">  1       -2 0.41549620E-02 0.14256598E+03</pdfrwt>
<totfact> 0.20669008E+04</totfact>
</mgrwt>
</event>
<event>
 6    1  0.4705246E-006  0.1396623E+03  0.7546771E-02  0.1224989E+00
          1   -1    0    0  501    0  0.00000000000E+00  0.00000000000E+00  0.80528120924E+02  0.80528120924E+02  0.00000000000E+00 0. -1.
         -1   -1    0    0    0  501 -0.00000000000E+00 -0.00000000000E+00 -0.19425393343E+03  0.19425393343E+03  0.00000000000E+00 0.  1.
          5    1    1    2  502    0 -0.33162184525E+02 -0.14669497940E+02 -0.76586656865E+02  0.84867724501E+02  0.47000000000E+01 0.  1.
         -5    1    1    2    0  502  0.44375281406E+02 -0.46615092272E+02  0.17373384968E+02  0.66828563748E+02  0.47000000000E+01 0.  1.
        -11    1    1    2    0    0  0.22812109511E+02  0.66488664461E+02 -0.17291803895E+02  0.72388820436E+02  0.00000000000E+00 0. -1.
         11    1    1    2    0    0 -0.34025206392E+02 -0.52040742494E+01 -0.37220736719E+02  0.50696945674E+02  0.00000000000E+00 0.  1.
<mgrwt>
<rscale>  0 0.13167657E+03</rscale>
<asrwt>0</asrwt>
<pdfrwt beam="1">  1        1 0.12388942E-01 0.13966228E+03</pdfrwt>
<pdfrwt beam="2">  1       -1 0.29885220E-01 0.13966228E+03</pdfrwt>
<totfact> 0.47315485E+03</totfact>
</mgrwt>
</event>
<event>
 6    1  0.4705246E-006  0.1310178E+03  0.7546771E-02  0.1239299E+00
          2   -1    0    0  501    0  0.00000000000E+00  0.00000000000E+00  0.34303084713E+03  0.34303084713E+03  0.00000000000E+00 0. -1.
         -2   -1    0    0    0  501 -0.00000000000E+00 -0.00000000000E+00 -0.38839231769E+02  0.38839231769E+02  0.00000000000E+00 0.  1.
          5    1    1    2  502    0 -0.26699218020E+02 -0.47188967286E+02  0.99371746265E+02  0.11329819430E+03  0.47000000000E+01 0.  1.
         -5    1    1    2    0  502 -0.23289112822E+01  0.73832729707E+02  0.82300855964E+02  0.11068973167E+03  0.47000000000E+01 0.  1.
        -11    1    1    2    0    0  0.52221351518E+02 -0.40670340794E+02  0.10917003100E+03  0.12766848414E+03  0.00000000000E+00 0. -1.
         11    1    1    2    0    0 -0.23193222216E+02  0.14026578373E+02  0.13348982127E+02  0.30213668785E+02  0.00000000000E+00 0.  1.
<mgrwt>
<rscale>  0 0.12233169E+03</rscale>
<asrwt>0</asrwt>
<pdfrwt beam="1">  1        2 0.52773975E-01 0.13101777E+03</pdfrwt>
<pdfrwt beam="2">  1       -2 0.59752666E-02 0.13101777E+03</pdfrwt>
<totfact> 0.13228383E+04</totfact>
</mgrwt>
</event>
<event>
 6    1  0.4705246E-006  0.3201567E+03  0.7546771E-02  0.1075577E+00
         -1   -1    0    0    0  501 -0.00000000000E+00  0.00000000000E+00  0.27278195083E+02  0.27278195083E+02  0.00000000000E+00 0.  1.
          1   -1    0    0  501    0  0.00000000000E+00 -0.00000000000E+00 -0.93939761303E+03  0.93939761303E+03  0.00000000000E+00 0. -1.
          5    1    1    2  502    0 -0.22266393358E+02  0.20739515421E+02 -0.30336864235E+02  0.43224242095E+02  0.47000000000E+01 0.  1.
         -5    1    1    2    0  502  0.11099029245E+03  0.55704379274E+02 -0.44515049791E+03  0.46217191463E+03  0.47000000000E+01 0.  1.
        -11    1    1    2    0    0 -0.22116428760E+02 -0.59596889922E+02 -0.10612559663E+03  0.12370759059E+03  0.00000000000E+00 0.  1.
         11    1    1    2    0    0 -0.66607470330E+02 -0.16847004773E+02 -0.33050645917E+03  0.33757206079E+03  0.00000000000E+00 0. -1.
<mgrwt>
<rscale>  0 0.32015666E+03</rscale>
<asrwt>0</asrwt>
<pdfrwt beam="2">  1        1 0.14452272E+00 0.32015666E+03</pdfrwt>
<pdfrwt beam="1">  1       -1 0.41966451E-02 0.32015666E+03</pdfrwt>
<totfact> 0.40812088E+03</totfact>
</mgrwt>
</event>
<event>
 6    1  0.4705246E-006  0.1919559E+03  0.7546771E-02  0.1228075E+00
         -2   -1    0    0    0  501 -0.00000000000E+00  0.00000000000E+00  0.20618376291E+02  0.20618376291E+02  0.00000000000E+00 0.  1.
          2   -1    0    0  501    0  0.00000000000E+00 -0.00000000000E+00 -0.69791399687E+03  0.69791399687E+03  0.00000000000E+00 0. -1.
          5    1    1    2  502    0 -0.38687046534E+02 -0.59050021918E+02 -0.36108558122E+03  0.36795173545E+03  0.47000000000E+01 0. -1.
         -5    1    1    2    0  502  0.54514788512E+02  0.94509406398E+02 -0.25656181827E+03  0.27883677422E+03  0.47000000000E+01 0.  1.
        -11    1    1    2    0    0 -0.99879402196E+01 -0.16500458548E+02 -0.36298247930E+02  0.41104584719E+02  0.00000000000E+00 0.  1.
         11    1    1    2    0    0 -0.58398017587E+01 -0.18958925932E+02 -0.23349973171E+02  0.30639278780E+02  0.00000000000E+00 0. -1.
<mgrwt>
<rscale>  0 0.12958384E+03</rscale>
<asrwt>0</asrwt>
<pdfrwt beam="2">  1        2 0.10737139E+00 0.19195590E+03</pdfrwt>
<pdfrwt beam="1">  1       -2 0.31720577E-02 0.19195590E+03</pdfrwt>
<totfact> 0.15970270E+04</totfact>
</mgrwt>
</event>
<event>
 6    1  0.4705246E-006  0.1381148E+03  0.7546771E-02  0.1226182E+00
         -4   -1    0    0    0  501 -0.00000000000E+00  0.00000000000E+00  0.23100690061E+03  0.23100690061E+03  0.00000000000E+00 0.  1.
          4   -1    0    0  501    0  0.00000000000E+00 -0.00000000000E+00 -0.70515426611E+02  0.70515426611E+02  0.00000000000E+00 0. -1.
          5    1    1    2  502    0 -0.76854025989E+02  0.11583653486E+02  0.58078620998E+02  0.97138759287E+02  0.47000000000E+01 0. -1.
         -5    1    1    2    0  502  0.27759949270E+02 -0.43840955202E+02 -0.14775391840E+01  0.52124056428E+02  0.47000000000E+01 0. -1.
        -11    1    1    2    0    0  0.44831862897E+02  0.59883067759E+01  0.11488301126E+03  0.12346603592E+03  0.00000000000E+00 0.  1.
         11    1    1    2    0    0  0.42622138218E+01  0.26268994940E+02 -0.10992619081E+02  0.28793475582E+02  0.00000000000E+00 0. -1.
<mgrwt>
<rscale>  0 0.13086184E+03</rscale>
<asrwt>0</asrwt>
<pdfrwt beam="2">  1        4 0.10848527E-01 0.13811483E+03</pdfrwt>
<pdfrwt beam="1">  1       -4 0.35539523E-01 0.13811483E+03</pdfrwt>
<totfact> 0.84092890E+02</totfact>
</mgrwt>
</event>
<event>
 6    1  0.4705246E-006  0.1451334E+03  0.7546771E-02  0.1216245E+00
          2   -1    0    0  501    0  0.00000000000E+00  0.00000000000E+00  0.10952952955E+03  0.10952952955E+03  0.00000000000E+00 0. -1.
         -2   -1    0    0    0  501 -0.00000000000E+00 -0.00000000000E+00 -0.15854692424E+03  0.15854692424E+03  0.00000000000E+00 0.  1.
          5    1    1    2  502    0  0.57588819232E+02 -0.43110314634E+02 -0.34546222272E+02  0.79940620473E+02  0.47000000000E+01 0. -1.
         -5    1    1    2    0  502  0.13242055063E+02  0.63707176234E+02  0.13759964074E+02  0.66673704992E+02  0.47000000000E+01 0. -1.
        -11    1    1    2    0    0 -0.68729915756E+02  0.41383768441E+01  0.16047310777E+02  0.70699672318E+02  0.00000000000E+00 0. -1.
         11    1    1    2    0    0 -0.21009585383E+01 -0.24735238444E+02 -0.44278447270E+02  0.50762456011E+02  0.00000000000E+00 0.  1.
<mgrwt>
<rscale>  0 0.13785444E+03</rscale>
<asrwt>0</asrwt>
<pdfrwt beam="1">  1        2 0.16850697E-01 0.14513336E+03</pdfrwt>
<pdfrwt beam="2">  1       -2 0.24391834E-01 0.14513336E+03</pdfrwt>
<totfact> 0.48274185E+03</totfact>
</mgrwt>
</event>
<event>
 6    1  0.4705246E-006  0.1272531E+03  0.7546771E-02  0.1246641E+00
         -1   -1    0    0    0  501 -0.00000000000E+00  0.00000000000E+00  0.21878246814E+03  0.21878246814E+03  0.00000000000E+00 0.  1.
          1   -1    0    0  501    0  0.00000000000E+00 -0.00000000000E+00 -0.56844399305E+02  0.56844399305E+02  0.00000000000E+00 0. -1.
          5    1    1    2  502    0  0.47515790141E+02  0.20675770892E+02  0.33784851954E+02  0.62038246560E+02  0.47000000000E+01 0. -1.
         -5    1    1    2    0  502 -0.65702624092E+02 -0.36046390992E+02  0.40635371356E+02  0.85378571792E+02  0.47000000000E+01 0. -1.
        -11    1    1    2    0    0 -0.28719065628E+02  0.20951555109E+01  0.71201101963E+02  0.76803459088E+02  0.00000000000E+00 0.  1.
         11    1    1    2    0    0  0.46905899579E+02  0.13275464590E+02  0.16316743562E+02  0.51406590004E+02  0.00000000000E+00 0. -1.
<mgrwt>
<rscale>  0 0.11787683E+03</rscale>
<asrwt>0</asrwt>
<pdfrwt beam="2">  1        1 0.87452923E-02 0.12725309E+03</pdfrwt>
<pdfrwt beam="1">  1       -1 0.33658841E-01 0.12725309E+03</pdfrwt>
<totfact> 0.60935760E+03</totfact>
</mgrwt>
</event>
<event>
 6    1  0.4705246E-006  0.1276237E+03  0.7546771E-02  0.1246113E+00
          2   -1    0    0  501    0  0.00000000000E+00  0.00000000000E+00  0.16685166152E+03  0.16685166152E+03  0.00000000000E+00 0. -1.
         -2   -1    0    0    0  501 -0.00000000000E+00 -0.00000000000E+00 -0.87910043000E+02  0.87910043000E+02  0.00000000000E+00 0.  1.
          5    1    1    2  502    0 -0.43116631291E+02  0.34446813100E+02  0.50980563579E+02  0.75277717084E+02  0.47000000000E+01 0. -1.
         -5    1    1    2    0  502  0.38657818933E+02 -0.59820855178E+02  0.44573838664E+02  0.84153899328E+02  0.47000000000E+01 0. -1.
        -11    1    1    2    0    0  0.41543173434E+02  0.10722337810E+02  0.13922875744E+02  0.45107097624E+02  0.00000000000E+00 0. -1.
         11    1    1    2    0    0 -0.37084361077E+02  0.14651704267E+02 -0.30535659464E+02  0.50222990486E+02  0.00000000000E+00 0.  1.
<mgrwt>
<rscale>  0 0.11819027E+03</rscale>
<asrwt>0</asrwt>
<pdfrwt beam="1">  1        2 0.25669486E-01 0.12762365E+03</pdfrwt>
<pdfrwt beam="2">  1       -2 0.13524622E-01 0.12762365E+03</pdfrwt>
<totfact> 0.79910195E+03</totfact>
</mgrwt>
</event>
<event>
 6    1  0.4705246E-006  0.1301527E+03  0.7546771E-02  0.1240825E+00
          3   -1    0    0  501    0  0.00000000000E+00  0.00000000000E+00  0.24779730836E+03  0.24779730836E+03  0.00000000000E+00 0. -1.
         -3   -1    0    0    0  501 -0.00000000000E+00 -0.00000000000E+00 -0.68010091765E+02  0.68010091765E+02  0.00000000000E+00 0.  1.
          5    1    1    2  502    0 -0.29033317890E+02  0.39365732234E+02  0.56125554093E+02  0.74597334029E+02  0.47000000000E+01 0. -1.
         -5    1    1    2    0  502  0.64150086905E+02 -0.48283340619E+02  0.11769594079E+03  0.14255153142E+03  0.47000000000E+01 0. -1.
        -11    1    1    2    0    0  0.72054479158E+01 -0.12183062430E+02 -0.33944731999E+02  0.36777579043E+02  0.00000000000E+00 0.  1.
         11    1    1    2    0    0 -0.42322216931E+02  0.21100670814E+02  0.39910453707E+02  0.61880955632E+02  0.00000000000E+00 0. -1.
<mgrwt>
<rscale>  0 0.12138768E+03</rscale>
<asrwt>0</asrwt>
<pdfrwt beam="1">  1        3 0.38122662E-01 0.13015267E+03</pdfrwt>
<pdfrwt beam="2">  1       -3 0.10463091E-01 0.13015267E+03</pdfrwt>
<totfact> 0.10677047E+03</totfact>
</mgrwt>
</event>
<event>
 6    1  0.4705246E-006  0.3493128E+03  0.7546771E-02  0.1062897E+00
         -1   -1    0    0    0  501 -0.00000000000E+00  0.00000000000E+00  0.20633644200E+02  0.20633644200E+02  0.00000000000E+00 0.  1.
          1   -1    0    0  501    0  0.00000000000E+00 -0.00000000000E+00 -0.14784036206E+04  0.14784036206E+04  0.00000000000E+00 0. -1.
          5    1    1    2  502    0  0.16418399778E+02  0.63463938795E+01 -0.22450137640E+03  0.22523942500E+03  0.47000000000E+01 0.  1.
         -5    1    1    2    0  502 -0.14960045254E+03 -0.35889843899E+02 -0.55794438605E+03  0.57878528334E+03  0.47000000000E+01 0.  1.
        -11    1    1    2    0    0  0.91310171900E+02 -0.15546107308E+02 -0.51544218218E+03  0.52369826438E+03  0.00000000000E+00 0. -1.
         11    1    1    2    0    0  0.41871880859E+02  0.45089557328E+02 -0.15988203175E+03  0.17131429205E+03  0.00000000000E+00 0.  1.
<mgrwt>
<rscale>  0 0.34931278E+03</rscale>
<asrwt>0</asrwt>
<pdfrwt beam="2">  1        1 0.22744674E+00 0.34931278E+03</pdfrwt>
<pdfrwt beam="1">  1       -1 0.31744064E-02 0.34931278E+03</pdfrwt>
<totfact> 0.25667065E+03</totfact>
</mgrwt>
</event>
<event>
 6    1  0.4705246E-006  0.3040962E+03  0.7546771E-02  0.1083211E+00
          3   -1    0    0  501    0  0.00000000000E+00  0.00000000000E+00  0.57534351543E+03  0.57534351543E+03  0.00000000000E+00 0. -1.
         -3   -1    0    0    0  501 -0.00000000000E+00 -0.00000000000E+00 -0.40182300024E+02  0.40182300024E+02  0.00000000000E+00 0.  1.
          5    1    1    2  502    0  0.24817027880E+02 -0.71843852503E+01  0.16170382358E+03  0.16382221102E+03  0.47000000000E+01 0. -1.
         -5    1    1    2    0  502 -0.54331496349E+02 -0.93920344326E+02  0.11982130172E+03  0.16171634710E+03  0.47000000000E+01 0. -1.
        -11    1    1    2    0    0  0.29719314089E+02  0.52790124634E+02  0.22673342803E+03  0.23468720092E+03  0.00000000000E+00 0. -1.
         11    1    1    2    0    0 -0.20484561909E+00  0.48314604942E+02  0.26902662079E+02  0.55300056414E+02  0.00000000000E+00 0.  1.
<mgrwt>
<rscale>  0 0.30409621E+03</rscale>
<asrwt>0</asrwt>
<pdfrwt beam="1">  1        3 0.88514381E-01 0.30409621E+03</pdfrwt>
<pdfrwt beam="2">  1       -3 0.61818927E-02 0.30409621E+03</pdfrwt>
<totfact> 0.49599289E+02</totfact>
</mgrwt>
</event>
<event>
 6    1  0.4705246E-006  0.2178700E+03  0.7546771E-02  0.1138834E+00
         -3   -1    0    0    0  501 -0.00000000000E+00  0.00000000000E+00  0.70231042702E+02  0.70231042702E+02  0.00000000000E+00 0.  1.
          3   -1    0    0  501    0  0.00000000000E+00 -0.00000000000E+00 -0.76387480833E+03  0.76387480833E+03  0.00000000000E+00 0. -1.
          5    1    1    2  502    0 -0.13013403875E+02  0.36880537575E+01 -0.20119875372E+03  0.20170765707E+03  0.47000000000E+01 0. -1.
         -5    1    1    2    0  502 -0.10500494687E+03 -0.13753214498E+03 -0.33538706934E+03  0.37742245038E+03  0.47000000000E+01 0. -1.
        -11    1    1    2    0    0  0.20320519780E+02 -0.83678860295E+01 -0.42574052772E+02  0.47911324446E+02  0.00000000000E+00 0. -1.
         11    1    1    2    0    0  0.97697830968E+02  0.14221197725E+03 -0.11448388979E+03  0.20706441914E+03  0.00000000000E+00 0.  1.
<mgrwt>
<rscale>  0 0.21348746E+03</rscale>
<asrwt>0</asrwt>
<pdfrwt beam="2">  1        3 0.11751921E+00 0.21787000E+03</pdfrwt>
<pdfrwt beam="1">  1       -3 0.10804775E-01 0.21787000E+03</pdfrwt>
<totfact> 0.99376785E+01</totfact>
</mgrwt>
</event>
<event>
 6    1  0.4705246E-006  0.5934268E+03  0.7546771E-02  0.9919138E-01
         -2   -1    0    0    0  501 -0.00000000000E+00  0.00000000000E+00  0.10849654469E+03  0.10849654469E+03  0.00000000000E+00 0.  1.
          2   -1    0    0  501    0  0.00000000000E+00 -0.00000000000E+00 -0.81144384431E+03  0.81144384431E+03  0.00000000000E+00 0. -1.
          5    1    1    2  502    0  0.14613788905E+02 -0.33124602627E+02 -0.46577339823E+03  0.46720204476E+03  0.47000000000E+01 0.  1.
         -5    1    1    2    0  502 -0.84549253701E+02 -0.52069875950E+02 -0.28478831150E+03  0.30163938843E+03  0.47000000000E+01 0.  1.
        -11    1    1    2    0    0  0.60511440582E+02  0.33335500926E+02 -0.13502309603E+02  0.70393198733E+02  0.00000000000E+00 0. -1.
         11    1    1    2    0    0  0.94240242145E+01  0.51858977651E+02  0.61116719719E+02  0.80705757072E+02  0.00000000000E+00 0.  1.
<mgrwt>
<rscale>  0 0.59342684E+03</rscale>
<asrwt>0</asrwt>
<pdfrwt beam="2">  1        2 0.12483751E+00 0.59342684E+03</pdfrwt>
<pdfrwt beam="1">  1       -2 0.16691777E-01 0.59342684E+03</pdfrwt>
<totfact> 0.99236437E+02</totfact>
</mgrwt>
</event>
<event>
 6    1  0.4705246E-006  0.2368897E+03  0.7546771E-02  0.1124664E+00
          1   -1    0    0  501    0  0.00000000000E+00  0.00000000000E+00  0.14513430664E+03  0.14513430664E+03  0.00000000000E+00 0. -1.
         -1   -1    0    0    0  501 -0.00000000000E+00 -0.00000000000E+00 -0.36141929856E+03  0.36141929856E+03  0.00000000000E+00 0.  1.
          5    1    1    2  502    0  0.21513121192E+02 -0.90824368517E+02  0.16290260547E+02  0.94864866461E+02  0.47000000000E+01 0.  1.
         -5    1    1    2    0  502  0.54731276166E+02 -0.95398961562E+02 -0.12264565375E+03  0.16480449278E+03  0.47000000000E+01 0.  1.
        -11    1    1    2    0    0 -0.87148312414E+02  0.96902036061E+02 -0.54977043781E+02  0.14144719259E+03  0.00000000000E+00 0. -1.
         11    1    1    2    0    0  0.10903915056E+02  0.89321294018E+02 -0.54952554943E+02  0.10543705337E+03  0.00000000000E+00 0.  1.
<mgrwt>
<rscale>  0 0.23282889E+03</rscale>
<asrwt>0</asrwt>
<pdfrwt beam="1">  1        1 0.22328355E-01 0.23688965E+03</pdfrwt>
<pdfrwt beam="2">  1       -1 0.55602968E-01 0.23688965E+03</pdfrwt>
<totfact> 0.74517898E+02</totfact>
</mgrwt>
</event>
<event>
 6    1  0.4705246E-006  0.1270709E+03  0.7546771E-02  0.1244235E+00
         -2   -1    0    0    0  501 -0.00000000000E+00  0.00000000000E+00  0.15274832927E+03  0.15274832927E+03  0.00000000000E+00 0.  1.
          2   -1    0    0  501    0  0.00000000000E+00 -0.00000000000E+00 -0.11319909868E+03  0.11319909868E+03  0.00000000000E+00 0. -1.
          5    1    1    2  502    0 -0.14650012171E+02  0.21094879831E+02 -0.74389491490E+02  0.78838463048E+02  0.47000000000E+01 0.  1.
         -5    1    1    2    0  502  0.29351558874E+02 -0.38649392768E+02  0.28248553916E+02  0.56350336006E+02  0.47000000000E+01 0.  1.
        -11    1    1    2    0    0  0.16550066744E+02 -0.33431276878E+02  0.21618749716E+02  0.43115256259E+02  0.00000000000E+00 0. -1.
         11    1    1    2    0    0 -0.31251613447E+02  0.50985789815E+02  0.64071418441E+02  0.87643372637E+02  0.00000000000E+00 0.  1.
<mgrwt>
<rscale>  0 0.11931312E+03</rscale>
<asrwt>0</asrwt>
<pdfrwt beam="2">  1        2 0.17415246E-01 0.12707095E+03</pdfrwt>
<pdfrwt beam="1">  1       -2 0.23499743E-01 0.12707095E+03</pdfrwt>
<totfact> 0.49154734E+03</totfact>
</mgrwt>
</event>
<event>
 6    1  0.4705246E-006  0.1259845E+03  0.7546771E-02  0.1248699E+00
         -1   -1    0    0    0  501 -0.00000000000E+00  0.00000000000E+00  0.17370962680E+02  0.17370962680E+02  0.00000000000E+00 0. -1.
          1   -1    0    0  501    0  0.00000000000E+00 -0.00000000000E+00 -0.13778108390E+04  0.13778108390E+04  0.00000000000E+00 0.  1.
          5    1    1    2  502    0  0.42303322892E+02 -0.13551769268E+02 -0.18984529709E+03  0.19502960904E+03  0.47000000000E+01 0.  1.
         -5    1    1    2    0  502 -0.42248081777E+02  0.29279157716E+02 -0.10329028265E+04  0.10341917175E+04  0.47000000000E+01 0.  1.
        -11    1    1    2    0    0  0.33682302892E+02 -0.26106392039E+02 -0.11818009060E+03  0.12562871904E+03  0.00000000000E+00 0.  1.
         11    1    1    2    0    0 -0.33737544007E+02  0.10379003592E+02 -0.19511662090E+02  0.40331756083E+02  0.00000000000E+00 0. -1.
<mgrwt>
<rscale>  0 0.11666704E+03</rscale>
<asrwt>0</asrwt>
<pdfrwt beam="2">  1        1 0.21197093E+00 0.12598451E+03</pdfrwt>
<pdfrwt beam="1">  1       -1 0.26724553E-02 0.12598451E+03</pdfrwt>
<totfact> 0.38070077E+03</totfact>
</mgrwt>
</event>
<event>
 6    1  0.4705246E-006  0.3491477E+03  0.7546771E-02  0.1062965E+00
          1   -1    0    0  501    0  0.00000000000E+00  0.00000000000E+00  0.10624784219E+04  0.10624784219E+04  0.00000000000E+00 0. -1.
         -1   -1    0    0    0  501 -0.00000000000E+00 -0.00000000000E+00 -0.28683903875E+02  0.28683903875E+02  0.00000000000E+00 0.  1.
          5    1    1    2  502    0 -0.14815273410E+02 -0.10542240059E+02  0.14402382941E+02  0.23667483729E+02  0.47000000000E+01 0.  1.
         -5    1    1    2    0  502 -0.53144611853E+02  0.88585198918E+02  0.80818840408E+03  0.81477743815E+03  0.47000000000E+01 0.  1.
        -11    1    1    2    0    0  0.80854069164E+02 -0.41518574457E+02  0.10085351190E+03  0.13576672416E+03  0.00000000000E+00 0.  1.
         11    1    1    2    0    0 -0.12894183900E+02 -0.36524384403E+02  0.11035021910E+03  0.11695067973E+03  0.00000000000E+00 0. -1.
<mgrwt>
<rscale>  0 0.34914770E+03</rscale>
<asrwt>0</asrwt>
<pdfrwt beam="1">  1        1 0.16345819E+00 0.34914770E+03</pdfrwt>
<pdfrwt beam="2">  1       -1 0.44129091E-02 0.34914770E+03</pdfrwt>
<totfact> 0.30583982E+03</totfact>
</mgrwt>
</event>
<event>
 6    1  0.4705246E-006  0.1339746E+03  0.7546771E-02  0.1234537E+00
          4   -1    0    0  501    0  0.00000000000E+00  0.00000000000E+00  0.15058137618E+03  0.15058137618E+03  0.00000000000E+00 0.  1.
         -4   -1    0    0    0  501 -0.00000000000E+00 -0.00000000000E+00 -0.93909787230E+02  0.93909787230E+02  0.00000000000E+00 0. -1.
          5    1    1    2  502    0  0.24623319522E+02 -0.10359545285E+02  0.52930871124E+02  0.59476004916E+02  0.47000000000E+01 0. -1.
         -5    1    1    2    0  502 -0.37787745588E+02  0.56747188466E+02 -0.33143012602E+02  0.75952000630E+02  0.47000000000E+01 0. -1.
        -11    1    1    2    0    0  0.40279973520E+02 -0.46517370359E+02 -0.21084477176E+01  0.61569371961E+02  0.00000000000E+00 0. -1.
         11    1    1    2    0    0 -0.27115547455E+02  0.12972717733E+00  0.38992178144E+02  0.47493785902E+02  0.00000000000E+00 0.  1.
<mgrwt>
<rscale>  0 0.12534090E+03</rscale>
<asrwt>0</asrwt>
<pdfrwt beam="1">  1        4 0.23166366E-01 0.13397457E+03</pdfrwt>
<pdfrwt beam="2">  1       -4 0.14447660E-01 0.13397457E+03</pdfrwt>
<totfact> 0.11422078E+03</totfact>
</mgrwt>
</event>
<event>
 6    1  0.4705246E-006  0.3191213E+03  0.7546771E-02  0.1077451E+00
         -1   -1    0    0    0  501 -0.00000000000E+00  0.00000000000E+00  0.58810705612E+03  0.58810705612E+03  0.00000000000E+00 0.  1.
          1   -1    0    0  501    0  0.00000000000E+00 -0.00000000000E+00 -0.21249018520E+03  0.21249018520E+03  0.00000000000E+00 0. -1.
          5    1    1    2  502    0  0.11943986146E+03 -0.13283070828E+03 -0.56643807046E+02  0.18745796447E+03  0.47000000000E+01 0.  1.
         -5    1    1    2    0  502  0.59768343238E+02 -0.99765476885E+02  0.61627831378E+02  0.13170225826E+03  0.47000000000E+01 0.  1.
        -11    1    1    2    0    0 -0.66619927403E+02  0.14687454204E+03  0.15618463380E+03  0.22450831980E+03  0.00000000000E+00 0. -1.
         11    1    1    2    0    0 -0.11258827730E+03  0.85721643124E+02  0.21444821279E+03  0.25692869877E+03  0.00000000000E+00 0.  1.
<mgrwt>
<rscale>  0 0.31611548E+03</rscale>
<asrwt>0</asrwt>
<pdfrwt beam="2">  1        1 0.32690798E-01 0.31912130E+03</pdfrwt>
<pdfrwt beam="1">  1       -1 0.90478008E-01 0.31912130E+03</pdfrwt>
<totfact> 0.17094226E+02</totfact>
</mgrwt>
</event>
<event>
 6    1  0.4705246E-006  0.2183128E+03  0.7546771E-02  0.1152315E+00
          2   -1    0    0  501    0  0.00000000000E+00  0.00000000000E+00  0.71987020499E+03  0.71987020499E+03  0.00000000000E+00 0.  1.
         -2   -1    0    0    0  501 -0.00000000000E+00 -0.00000000000E+00 -0.45813287204E+02  0.45813287204E+02  0.00000000000E+00 0. -1.
          5    1    1    2  502    0  0.15071879930E+02  0.15989852238E+02 -0.14351816563E+02  0.26662737629E+02  0.47000000000E+01 0. -1.
         -5    1    1    2    0  502  0.92475331294E+02 -0.49470857065E+02  0.43233996579E+03  0.44490334750E+03  0.47000000000E+01 0.  1.
        -11    1    1    2    0    0 -0.34217424764E+02  0.55937130178E+02  0.91648135673E+02  0.11269061834E+03  0.00000000000E+00 0.  1.
         11    1    1    2    0    0 -0.73329786460E+02 -0.22456125350E+02  0.16442063289E+03  0.18142678873E+03  0.00000000000E+00 0. -1.
<mgrwt>
<rscale>  0 0.19697699E+03</rscale>
<asrwt>0</asrwt>
<pdfrwt beam="1">  1        2 0.11074925E+00 0.21831280E+03</pdfrwt>
<pdfrwt beam="2">  1       -2 0.70481986E-02 0.21831280E+03</pdfrwt>
<totfact> 0.46224494E+03</totfact>
</mgrwt>
</event>
<event>
 6    1  0.4705246E-006  0.2270509E+03  0.7546771E-02  0.1131855E+00
         -2   -1    0    0    0  501 -0.00000000000E+00  0.00000000000E+00  0.79854654309E+02  0.79854654309E+02  0.00000000000E+00 0.  1.
          2   -1    0    0  501    0  0.00000000000E+00 -0.00000000000E+00 -0.62016067893E+03  0.62016067893E+03  0.00000000000E+00 0. -1.
          5    1    1    2  502    0 -0.71020930248E+01 -0.29592854516E+02 -0.10337239689E+01  0.30811286065E+02  0.47000000000E+01 0.  1.
         -5    1    1    2    0  502  0.85212436072E+02 -0.14310651736E+03 -0.34396982038E+03  0.38220146769E+03  0.47000000000E+01 0.  1.
        -11    1    1    2    0    0 -0.80918390804E+02  0.90259535911E+02 -0.15011624369E+03  0.19294936231E+03  0.00000000000E+00 0. -1.
         11    1    1    2    0    0  0.28080477567E+01  0.82439835965E+02 -0.45186236584E+02  0.94053217185E+02  0.00000000000E+00 0.  1.
<mgrwt>
<rscale>  0 0.22274287E+03</rscale>
<asrwt>0</asrwt>
<pdfrwt beam="2">  1        2 0.95409334E-01 0.22705085E+03</pdfrwt>
<pdfrwt beam="1">  1       -2 0.12285332E-01 0.22705085E+03</pdfrwt>
<totfact> 0.22964892E+03</totfact>
</mgrwt>
</event>
<event>
 6    1  0.4705246E-006  0.1342448E+03  0.7546771E-02  0.1234353E+00
          1   -1    0    0  501    0  0.00000000000E+00  0.00000000000E+00  0.88824186832E+03  0.88824186832E+03  0.00000000000E+00 0. -1.
         -1   -1    0    0    0  501 -0.00000000000E+00 -0.00000000000E+00 -0.15774515374E+02  0.15774515374E+02  0.00000000000E+00 0.  1.
          5    1    1    2  502    0 -0.36503362099E+02  0.22579919067E+02  0.46825250744E+03  0.47023914013E+03  0.47000000000E+01 0.  1.
         -5    1    1    2    0  502 -0.10499212507E+02 -0.36276524264E+02  0.39058292901E+02  0.54533108478E+02  0.47000000000E+01 0.  1.
        -11    1    1    2    0    0  0.70103933228E+02 -0.66746895661E+01  0.22589153302E+03  0.23661381538E+03  0.00000000000E+00 0. -1.
         11    1    1    2    0    0 -0.23101358622E+02  0.20371294763E+02  0.13926501958E+03  0.14263031971E+03  0.00000000000E+00 0.  1.
<mgrwt>
<rscale>  0 0.12545948E+03</rscale>
<asrwt>0</asrwt>
<pdfrwt beam="1">  1        1 0.13665256E+00 0.13424479E+03</pdfrwt>
<pdfrwt beam="2">  1       -1 0.24268492E-02 0.13424479E+03</pdfrwt>
<totfact> 0.96868102E+03</totfact>
</mgrwt>
</event>
<event>
 6    1  0.4705246E-006  0.1415520E+03  0.7546771E-02  0.1221640E+00
         -1   -1    0    0    0  501 -0.00000000000E+00  0.00000000000E+00  0.27140565319E+03  0.27140565319E+03  0.00000000000E+00 0.  1.
          1   -1    0    0  501    0  0.00000000000E+00 -0.00000000000E+00 -0.67999001883E+02  0.67999001883E+02  0.00000000000E+00 0. -1.
          5    1    1    2  502    0 -0.32060958941E+02  0.52398897710E+02 -0.18171807413E+02  0.64232812130E+02  0.47000000000E+01 0.  1.
         -5    1    1    2    0  502 -0.32521481943E+02 -0.36861945660E+02  0.71789680580E+02  0.87133794038E+02  0.47000000000E+01 0.  1.
        -11    1    1    2    0    0 -0.18414653448E+02  0.26327066379E+01  0.66529224784E+02  0.69080882712E+02  0.00000000000E+00 0.  1.
         11    1    1    2    0    0  0.82997094332E+02 -0.18169658687E+02  0.83259553360E+02  0.11895716620E+03  0.00000000000E+00 0. -1.
<mgrwt>
<rscale>  0 0.13399905E+03</rscale>
<asrwt>0</asrwt>
<pdfrwt beam="2">  1        1 0.10461385E-01 0.14155202E+03</pdfrwt>
<pdfrwt beam="1">  1       -1 0.41754715E-01 0.14155202E+03</pdfrwt>
<totfact> 0.33273715E+03</totfact>
</mgrwt>
</event>
<event>
 6    1  0.4705246E-006  0.1188574E+03  0.7546771E-02  0.1255709E+00
         -3   -1    0    0    0  501 -0.00000000000E+00  0.00000000000E+00  0.98805285712E+02  0.98805285712E+02  0.00000000000E+00 0.  1.
          3   -1    0    0  501    0  0.00000000000E+00 -0.00000000000E+00 -0.46808512205E+03  0.46808512205E+03  0.00000000000E+00 0. -1.
          5    1    1    2  502    0  0.26707015307E+02 -0.27613666111E+02 -0.29843063203E+03  0.30092974489E+03  0.47000000000E+01 0. -1.
         -5    1    1    2    0  502 -0.24016160769E+02  0.57016179945E+02 -0.13632997888E+03  0.14978509237E+03  0.47000000000E+01 0.  1.
        -11    1    1    2    0    0  0.13889023662E+02  0.26019480466E+02  0.94783796671E+00  0.29509604179E+02  0.00000000000E+00 0. -1.
         11    1    1    2    0    0 -0.16579878200E+02 -0.55421994300E+02  0.64532936605E+02  0.86665966332E+02  0.00000000000E+00 0.  1.
<mgrwt>
<rscale>  0 0.11266690E+03</rscale>
<asrwt>0</asrwt>
<pdfrwt beam="2">  1        3 0.72013095E-01 0.11885738E+03</pdfrwt>
<pdfrwt beam="1">  1       -3 0.15200813E-01 0.11885738E+03</pdfrwt>
<totfact> 0.15670256E+02</totfact>
</mgrwt>
</event>
<event>
 6    1  0.4705246E-006  0.1261357E+03  0.7546771E-02  0.1247733E+00
          1   -1    0    0  501    0  0.00000000000E+00  0.00000000000E+00  0.10827530748E+03  0.10827530748E+03  0.00000000000E+00 0. -1.
         -1   -1    0    0    0  501 -0.00000000000E+00 -0.00000000000E+00 -0.11201974455E+03  0.11201974455E+03  0.00000000000E+00 0.  1.
          5    1    1    2  502    0  0.65310076724E+01  0.48956072016E+02 -0.34790878649E+02  0.60595761284E+02  0.47000000000E+01 0. -1.
         -5    1    1    2    0  502 -0.23293879181E+02 -0.51084259012E+02  0.33497148051E+02  0.65546588421E+02  0.47000000000E+01 0. -1.
        -11    1    1    2    0    0 -0.31809875455E+02 -0.22477388779E+02 -0.67628457851E+01  0.39532736636E+02  0.00000000000E+00 0.  1.
         11    1    1    2    0    0  0.48572746964E+02  0.24605575774E+02  0.43121393180E+01  0.54619965693E+02  0.00000000000E+00 0. -1.
<mgrwt>
<rscale>  0 0.11723302E+03</rscale>
<asrwt>0</asrwt>
<pdfrwt beam="1">  1        1 0.16657740E-01 0.12613572E+03</pdfrwt>
<pdfrwt beam="2">  1       -1 0.17233807E-01 0.12613572E+03</pdfrwt>
<totfact> 0.78354430E+03</totfact>
</mgrwt>
</event>
<event>
 6    1  0.4705246E-006  0.3654467E+03  0.7546771E-02  0.1057363E+00
         -2   -1    0    0    0  501 -0.00000000000E+00  0.00000000000E+00  0.24581116661E+03  0.24581116661E+03  0.00000000000E+00 0.  1.
          2   -1    0    0  501    0  0.00000000000E+00 -0.00000000000E+00 -0.56299116557E+03  0.56299116557E+03  0.00000000000E+00 0. -1.
          5    1    1    2  502    0 -0.13725346691E+03 -0.20967848405E+02 -0.35276796781E+02  0.14333425005E+03  0.47000000000E+01 0.  1.
         -5    1    1    2    0  502 -0.19227075056E+03 -0.75680019871E+02 -0.22375238613E+03  0.30460257259E+03  0.47000000000E+01 0.  1.
        -11    1    1    2    0    0  0.22283719232E+03  0.62974067482E+02  0.64954714357E+01  0.23165564661E+03  0.00000000000E+00 0.  1.
         11    1    1    2    0    0  0.10668702515E+03  0.33673800794E+02 -0.64646287487E+02  0.12920986294E+03  0.00000000000E+00 0. -1.
<mgrwt>
<rscale>  0 0.36309986E+03</rscale>
<asrwt>0</asrwt>
<pdfrwt beam="2">  1        2 0.86614025E-01 0.36544668E+03</pdfrwt>
<pdfrwt beam="1">  1       -2 0.37817103E-01 0.36544668E+03</pdfrwt>
<totfact> 0.36114117E+02</totfact>
</mgrwt>
</event>
<event>
 6    1  0.4705246E-006  0.1241323E+03  0.7546771E-02  0.1253531E+00
          1   -1    0    0  501    0  0.00000000000E+00  0.00000000000E+00  0.13204285593E+04  0.13204285593E+04  0.00000000000E+00 0. -1.
         -1   -1    0    0    0  501 -0.00000000000E+00 -0.00000000000E+00 -0.45986115686E+02  0.45986115686E+02  0.00000000000E+00 0.  1.
          5    1    1    2  502    0 -0.10435610624E+02  0.66570018951E+02  0.66061572205E+03  0.66406000603E+03  0.47000000000E+01 0. -1.
         -5    1    1    2    0  502  0.12244554261E+02 -0.54878060563E+02  0.61177348161E+03  0.61436993207E+03  0.47000000000E+01 0.  1.
        -11    1    1    2    0    0 -0.20592778902E+02 -0.30519517215E+02  0.31393701339E+02  0.48384583885E+02  0.00000000000E+00 0. -1.
         11    1    1    2    0    0  0.18783835265E+02  0.18827558827E+02 -0.29340461414E+02  0.39600152962E+02  0.00000000000E+00 0.  1.
<mgrwt>
<rscale>  0 0.11389005E+03</rscale>
<asrwt>0</asrwt>
<pdfrwt beam="1">  1        1 0.20314283E+00 0.12413227E+03</pdfrwt>
<pdfrwt beam="2">  1       -1 0.70747880E-02 0.12413227E+03</pdfrwt>
<totfact> 0.99259100E+02</totfact>
</mgrwt>
</event>
<event>
 6    1  0.4705246E-006  0.2782132E+03  0.7546771E-02  0.1098538E+00
         -2   -1    0    0    0  501 -0.00000000000E+00  0.00000000000E+00  0.51212587330E+02  0.51212587330E+02  0.00000000000E+00 0.  1.
          2   -1    0    0  501    0  0.00000000000E+00 -0.00000000000E+00 -0.18307767883E+04  0.18307767883E+04  0.00000000000E+00 0. -1.
          5    1    1    2  502    0 -0.97275648529E+02 -0.17275828478E+02 -0.63907731135E+03  0.64668609536E+03  0.47000000000E+01 0.  1.
         -5    1    1    2    0  502 -0.13351292919E+03  0.10954754585E+03 -0.70218164919E+03  0.72312345109E+03  0.47000000000E+01 0.  1.
        -11    1    1    2    0    0  0.10832300999E+03  0.37376854001E+01 -0.20192646196E+03  0.22917709489E+03  0.00000000000E+00 0. -1.
         11    1    1    2    0    0  0.12246556774E+03 -0.96009402774E+02 -0.23637877848E+03  0.28300273430E+03  0.00000000000E+00 0.  1.
<mgrwt>
<rscale>  0 0.27484533E+03</rscale>
<asrwt>0</asrwt>
<pdfrwt beam="2">  1        2 0.28165800E+00 0.27821322E+03</pdfrwt>
<pdfrwt beam="1">  1       -2 0.78788587E-02 0.27821322E+03</pdfrwt>
<totfact> 0.88312579E+02</totfact>
</mgrwt>
</event>
<event>
 6    1  0.4705246E-006  0.1298418E+03  0.7546771E-02  0.1242588E+00
          2   -1    0    0  501    0  0.00000000000E+00  0.00000000000E+00  0.26122245238E+02  0.26122245238E+02  0.00000000000E+00 0. -1.
         -2   -1    0    0    0  501 -0.00000000000E+00 -0.00000000000E+00 -0.52879133898E+03  0.52879133898E+03  0.00000000000E+00 0.  1.
          5    1    1    2  502    0  0.18037573810E+02  0.29336662507E+02 -0.98581236059E+01  0.36128471280E+02  0.47000000000E+01 0. -1.
         -5    1    1    2    0  502 -0.50443764872E+02 -0.42890577832E+02 -0.19920648010E+03  0.20997496707E+03  0.47000000000E+01 0. -1.
        -11    1    1    2    0    0  0.40065282786E+02  0.34209211501E+02 -0.27492482880E+03  0.27992705930E+03  0.00000000000E+00 0.  1.
         11    1    1    2    0    0 -0.76590917240E+01 -0.20655296176E+02 -0.18679661236E+02  0.28883086574E+02  0.00000000000E+00 0. -1.
<mgrwt>
<rscale>  0 0.12030910E+03</rscale>
<asrwt>0</asrwt>
<pdfrwt beam="1">  1        2 0.40188073E-02 0.12984180E+03</pdfrwt>
<pdfrwt beam="2">  1       -2 0.81352506E-01 0.12984180E+03</pdfrwt>
<totfact> 0.27536695E+03</totfact>
</mgrwt>
</event>
<event>
 6    1  0.4705246E-006  0.1256771E+03  0.7546771E-02  0.1248966E+00
          1   -1    0    0  501    0  0.00000000000E+00  0.00000000000E+00  0.29866054679E+03  0.29866054679E+03  0.00000000000E+00 0. -1.
         -1   -1    0    0    0  501 -0.00000000000E+00 -0.00000000000E+00 -0.40032670016E+02  0.40032670016E+02  0.00000000000E+00 0.  1.
          5    1    1    2  502    0  0.24570165638E+02 -0.55948560475E+02  0.31485998755E+02  0.68901324925E+02  0.47000000000E+01 0. -1.
         -5    1    1    2    0  502 -0.21756648366E+02  0.43219459317E+02  0.11046913398E+03  0.12069296986E+03  0.47000000000E+01 0. -1.
        -11    1    1    2    0    0 -0.28061416788E+02 -0.30768757696E+02  0.63236640927E+02  0.75716790199E+02  0.00000000000E+00 0.  1.
         11    1    1    2    0    0  0.25247899516E+02  0.43497858854E+02  0.53436103118E+02  0.73382131826E+02  0.00000000000E+00 0. -1.
<mgrwt>
<rscale>  0 0.11651121E+03</rscale>
<asrwt>0</asrwt>
<pdfrwt beam="1">  1        1 0.45947775E-01 0.12567711E+03</pdfrwt>
<pdfrwt beam="2">  1       -1 0.61588725E-02 0.12567711E+03</pdfrwt>
<totfact> 0.10625003E+04</totfact>
</mgrwt>
</event>
<event>
 6    1  0.4705246E-006  0.1525212E+03  0.7546771E-02  0.1206049E+00
         -2   -1    0    0    0  501 -0.00000000000E+00  0.00000000000E+00  0.10716107097E+03  0.10716107097E+03  0.00000000000E+00 0.  1.
          2   -1    0    0  501    0  0.00000000000E+00 -0.00000000000E+00 -0.22333499344E+03  0.22333499344E+03  0.00000000000E+00 0. -1.
          5    1    1    2  502    0  0.67627261634E+02  0.12045366578E+01 -0.46643066639E+02  0.82295583662E+02  0.47000000000E+01 0.  1.
         -5    1    1    2    0  502 -0.27171067465E+02 -0.78669993630E+02 -0.87014937185E+02  0.12050279706E+03  0.47000000000E+01 0.  1.
        -11    1    1    2    0    0  0.23742085015E+02  0.11779434318E+02  0.23815364119E+02  0.35631632601E+02  0.00000000000E+00 0.  1.
         11    1    1    2    0    0 -0.64198279184E+02  0.65686022655E+02 -0.63312827690E+01  0.92066051093E+02  0.00000000000E+00 0. -1.
<mgrwt>
<rscale>  0 0.14555130E+03</rscale>
<asrwt>0</asrwt>
<pdfrwt beam="2">  1        2 0.34359230E-01 0.15252122E+03</pdfrwt>
<pdfrwt beam="1">  1       -2 0.16486319E-01 0.15252122E+03</pdfrwt>
<totfact> 0.42613903E+03</totfact>
</mgrwt>
</event>
<event>
 6    1  0.4705246E-006  0.1557452E+03  0.7546771E-02  0.1202805E+00
          1   -1    0    0  501    0  0.00000000000E+00  0.00000000000E+00  0.64556815739E+02  0.64556815739E+02  0.00000000000E+00 0. -1.
         -1   -1    0    0    0  501 -0.00000000000E+00 -0.00000000000E+00 -0.34652918029E+03  0.34652918029E+03  0.00000000000E+00 0.  1.
          5    1    1    2  502    0  0.30362884926E+02  0.31118987439E+02  0.89557396191E+01  0.44638452397E+02  0.47000000000E+01 0. -1.
         -5    1    1    2    0  502 -0.79752762909E+02  0.47565740253E+02 -0.96586063142E+02  0.13406699978E+03  0.47000000000E+01 0. -1.
        -11    1    1    2    0    0  0.21631449210E+02 -0.52548030484E+02 -0.31170261279E+02  0.64813581068E+02  0.00000000000E+00 0. -1.
         11    1    1    2    0    0  0.27758428773E+02 -0.26136697209E+02 -0.16317177975E+03  0.16756696278E+03  0.00000000000E+00 0.  1.
<mgrwt>
<rscale>  0 0.14811775E+03</rscale>
<asrwt>0</asrwt>
<pdfrwt beam="1">  1        1 0.99318177E-02 0.15574519E+03</pdfrwt>
<pdfrwt beam="2">  1       -1 0.53312182E-01 0.15574519E+03</pdfrwt>
<totfact> 0.23015694E+03</totfact>
</mgrwt>
</event>
<event>
 6    1  0.4705246E-006  0.1396901E+03  0.7546771E-02  0.1225059E+00
         -1   -1    0    0    0  501 -0.00000000000E+00  0.00000000000E+00  0.14524380535E+03  0.14524380535E+03  0.00000000000E+00 0.  1.
          1   -1    0    0  501    0  0.00000000000E+00 -0.00000000000E+00 -0.11219831534E+03  0.11219831534E+03  0.00000000000E+00 0. -1.
          5    1    1    2  502    0  0.40579122746E+02 -0.37892930917E+02 -0.26916111215E+02  0.61879774234E+02  0.47000000000E+01 0.  1.
         -5    1    1    2    0  502 -0.74124668056E+02 -0.14665547649E+02  0.18930494444E+02  0.78038441310E+02  0.47000000000E+01 0.  1.
        -11    1    1    2    0    0  0.42577300225E+02  0.50752769852E+01  0.52561734543E+02  0.67833036709E+02  0.00000000000E+00 0.  1.
         11    1    1    2    0    0 -0.90317549155E+01  0.47483201580E+02 -0.11530627762E+02  0.49690868434E+02  0.00000000000E+00 0. -1.
<mgrwt>
<rscale>  0 0.13162834E+03</rscale>
<asrwt>0</asrwt>
<pdfrwt beam="2">  1        1 0.17261279E-01 0.13969015E+03</pdfrwt>
<pdfrwt beam="1">  1       -1 0.22345201E-01 0.13969015E+03</pdfrwt>
<totfact> 0.49726074E+03</totfact>
</mgrwt>
</event>
<event>
 6    1  0.4705246E-006  0.1426354E+03  0.7546771E-02  0.1220953E+00
          2   -1    0    0  501    0  0.00000000000E+00  0.00000000000E+00  0.16873317366E+03  0.16873317366E+03  0.00000000000E+00 0.  1.
         -2   -1    0    0    0  501 -0.00000000000E+00 -0.00000000000E+00 -0.10100014571E+03  0.10100014571E+03  0.00000000000E+00 0. -1.
          5    1    1    2  502    0  0.45748898480E+02 -0.13375156165E+02  0.96507200172E+01  0.48857782506E+02  0.47000000000E+01 0.  1.
         -5    1    1    2    0  502 -0.42583648549E+02  0.82026306115E+02  0.55954225735E+02  0.10814179301E+03  0.47000000000E+01 0.  1.
        -11    1    1    2    0    0 -0.24536546905E+02 -0.81037773147E+02  0.13147978951E+02  0.85685659016E+02  0.00000000000E+00 0.  1.
         11    1    1    2    0    0  0.21371296973E+02  0.12386623196E+02 -0.11019896750E+02  0.27048084829E+02  0.00000000000E+00 0. -1.
<mgrwt>
<rscale>  0 0.13448215E+03</rscale>
<asrwt>0</asrwt>
<pdfrwt beam="1">  1        2 0.25958950E-01 0.14263540E+03</pdfrwt>
<pdfrwt beam="2">  1       -2 0.15538484E-01 0.14263540E+03</pdfrwt>
<totfact> 0.63464826E+03</totfact>
</mgrwt>
</event>
<event>
 6    1  0.4705246E-006  0.3615855E+03  0.7546771E-02  0.1059024E+00
          2   -1    0    0  501    0  0.00000000000E+00  0.00000000000E+00  0.71651524837E+03  0.71651524837E+03  0.00000000000E+00 0. -1.
         -2   -1    0    0    0  501 -0.00000000000E+00 -0.00000000000E+00 -0.26097262207E+03  0.26097262207E+03  0.00000000000E+00 0.  1.
          5    1    1    2  502    0 -0.21514921612E+03  0.17942268888E+03  0.45508635959E+03  0.53442246507E+03  0.47000000000E+01 0.  1.
         -5    1    1    2    0  502 -0.15233420752E+02  0.69658959115E+02  0.51995350259E+02  0.88374397545E+02  0.47000000000E+01 0.  1.
        -11    1    1    2    0    0  0.73689557155E+02 -0.96409810430E+02 -0.60792291369E+02  0.13572289811E+03  0.00000000000E+00 0.  1.
         11    1    1    2    0    0  0.15669307972E+03 -0.15267183757E+03  0.92532078231E+01  0.21896810972E+03  0.00000000000E+00 0. -1.
<mgrwt>
<rscale>  0 0.35889078E+03</rscale>
<asrwt>0</asrwt>
<pdfrwt beam="1">  1        2 0.11023311E+00 0.36158550E+03</pdfrwt>
<pdfrwt beam="2">  1       -2 0.40149634E-01 0.36158550E+03</pdfrwt>
<totfact> 0.24118901E+02</totfact>
</mgrwt>
</event>
<event>
 6    1  0.4705246E-006  0.1383728E+03  0.7546771E-02  0.1226409E+00
          2   -1    0    0  501    0  0.00000000000E+00  0.00000000000E+00  0.19390474707E+03  0.19390474707E+03  0.00000000000E+00 0.  1.
         -2   -1    0    0    0  501 -0.00000000000E+00 -0.00000000000E+00 -0.13079563494E+03  0.13079563494E+03  0.00000000000E+00 0. -1.
          5    1    1    2  502    0  0.86400304218E+02  0.28670810983E+02  0.75242083534E+02  0.11819682359E+03  0.47000000000E+01 0.  1.
         -5    1    1    2    0  502 -0.43563017162E+02  0.12425337849E+02  0.59623271068E+02  0.75027661151E+02  0.47000000000E+01 0.  1.
        -11    1    1    2    0    0 -0.27724575424E+02  0.27572286510E+02 -0.33152226226E+02  0.51263565712E+02  0.00000000000E+00 0.  1.
         11    1    1    2    0    0 -0.15112711632E+02 -0.68668435341E+02 -0.38604016239E+02  0.80212331563E+02  0.00000000000E+00 0. -1.
<mgrwt>
<rscale>  0 0.13070789E+03</rscale>
<asrwt>0</asrwt>
<pdfrwt beam="1">  1        2 0.29831500E-01 0.13837282E+03</pdfrwt>
<pdfrwt beam="2">  1       -2 0.20122405E-01 0.13837282E+03</pdfrwt>
<totfact> 0.35370364E+03</totfact>
</mgrwt>
</event>
<event>
 6    1  0.4705246E-006  0.1602581E+03  0.7546771E-02  0.1195958E+00
         -2   -1    0    0    0  501 -0.00000000000E+00  0.00000000000E+00  0.73619416060E+02  0.73619416060E+02  0.00000000000E+00 0.  1.
          2   -1    0    0  501    0  0.00000000000E+00 -0.00000000000E+00 -0.31352750629E+03  0.31352750629E+03  0.00000000000E+00 0. -1.
          5    1    1    2  502    0 -0.13057604508E+02  0.42780330977E+02 -0.12213764175E+00  0.44975133926E+02  0.47000000000E+01 0. -1.
         -5    1    1    2    0  502  0.70336545650E+02  0.39534702063E+02 -0.17292595918E+03  0.19088137594E+03  0.47000000000E+01 0. -1.
        -11    1    1    2    0    0  0.35742803428E+01 -0.44160715629E+02  0.10702486124E+02  0.45579463513E+02  0.00000000000E+00 0.  1.
         11    1    1    2    0    0 -0.60853221485E+02 -0.38154317411E+02 -0.77562479533E+02  0.10571094898E+03  0.00000000000E+00 0. -1.
<mgrwt>
<rscale>  0 0.15373466E+03</rscale>
<asrwt>0</asrwt>
<pdfrwt beam="2">  1        2 0.48235002E-01 0.16025807E+03</pdfrwt>
<pdfrwt beam="1">  1       -2 0.11326064E-01 0.16025807E+03</pdfrwt>
<totfact> 0.54715349E+03</totfact>
</mgrwt>
</event>
<event>
 6    1  0.4705246E-006  0.2242451E+03  0.7546771E-02  0.1130757E+00
          1   -1    0    0  501    0  0.00000000000E+00  0.00000000000E+00  0.11065307911E+03  0.11065307911E+03  0.00000000000E+00 0. -1.
         -1   -1    0    0    0  501 -0.00000000000E+00 -0.00000000000E+00 -0.11361155230E+03  0.11361155230E+03  0.00000000000E+00 0.  1.
          5    1    1    2  502    0 -0.89360717817E+01 -0.22980022016E+01 -0.61779027965E+02  0.62640821270E+02  0.47000000000E+01 0.  1.
         -5    1    1    2    0  502  0.35724152272E+02  0.68737015771E+01  0.54267266629E+02  0.65501824832E+02  0.47000000000E+01 0.  1.
        -11    1    1    2    0    0 -0.59599276281E+01 -0.46594627430E+02 -0.78168711673E+01  0.47620200730E+02  0.00000000000E+00 0.  1.
         11    1    1    2    0    0 -0.20828152862E+02  0.42018928055E+02  0.12370159312E+02  0.48501784585E+02  0.00000000000E+00 0. -1.
<mgrwt>
<rscale>  0 0.22424512E+03</rscale>
<asrwt>0</asrwt>
<pdfrwt beam="1">  1        1 0.17023551E-01 0.22424512E+03</pdfrwt>
<pdfrwt beam="2">  1       -1 0.17478700E-01 0.22424512E+03</pdfrwt>
<totfact> 0.77522969E+03</totfact>
</mgrwt>
</event>
<event>
 6    1  0.4705246E-006  0.1546177E+03  0.7546771E-02  0.1203807E+00
          2   -1    0    0  501    0  0.00000000000E+00  0.00000000000E+00  0.15620395970E+04  0.15620395970E+04  0.00000000000E+00 0. -1.
         -2   -1    0    0    0  501 -0.00000000000E+00 -0.00000000000E+00 -0.18110331634E+02  0.18110331634E+02  0.00000000000E+00 0.  1.
          5    1    1    2  502    0  0.67336979005E+01 -0.33262010176E+02  0.21430597682E+03  0.21702729255E+03  0.47000000000E+01 0.  1.
         -5    1    1    2    0  502  0.37797235012E+02  0.11262306426E+03  0.10391493078E+04  0.10459282764E+04  0.47000000000E+01 0.  1.
        -11    1    1    2    0    0 -0.23314967233E+02 -0.97037818715E+02  0.22581778334E+03  0.24688782317E+03  0.00000000000E+00 0. -1.
         11    1    1    2    0    0 -0.21215965680E+02  0.17676764632E+02  0.64656197453E+02  0.70306536514E+02  0.00000000000E+00 0.  1.
<mgrwt>
<rscale>  0 0.14731873E+03</rscale>
<asrwt>0</asrwt>
<pdfrwt beam="1">  1        2 0.24031368E+00 0.15461765E+03</pdfrwt>
<pdfrwt beam="2">  1       -2 0.27862061E-02 0.15461765E+03</pdfrwt>
<totfact> 0.59056781E+03</totfact>
</mgrwt>
</event>
<event>
 6    1  0.4705246E-006  0.3171915E+03  0.7546771E-02  0.1076949E+00
          2   -1    0    0  501    0  0.00000000000E+00  0.00000000000E+00  0.85294342459E+02  0.85294342459E+02  0.00000000000E+00 0. -1.
         -2   -1    0    0    0  501 -0.00000000000E+00 -0.00000000000E+00 -0.29489193376E+03  0.29489193376E+03  0.00000000000E+00 0.  1.
          5    1    1    2  502    0  0.11031790455E+03  0.57406289405E+01  0.56049149900E+01  0.11070907803E+03  0.47000000000E+01 0.  1.
         -5    1    1    2    0  502 -0.24440346227E+01  0.86961509131E+01 -0.64326011546E+02  0.65126969124E+02  0.47000000000E+01 0.  1.
        -11    1    1    2    0    0 -0.87780423568E+02  0.14324786244E+02 -0.14298196160E+03  0.16838777748E+03  0.00000000000E+00 0.  1.
         11    1    1    2    0    0 -0.20093446360E+02 -0.28761566097E+02 -0.78945331535E+01  0.35962451595E+02  0.00000000000E+00 0. -1.
<mgrwt>
<rscale>  0 0.31719151E+03</rscale>
<asrwt>0</asrwt>
<pdfrwt beam="1">  1        2 0.13122207E-01 0.31719151E+03</pdfrwt>
<pdfrwt beam="2">  1       -2 0.45367988E-01 0.31719151E+03</pdfrwt>
<totfact> 0.21397059E+03</totfact>
</mgrwt>
</event>
<event>
 6    1  0.4705246E-006  0.1427545E+03  0.7546771E-02  0.1223217E+00
          1   -1    0    0  501    0  0.00000000000E+00  0.00000000000E+00  0.29087201557E+03  0.29087201557E+03  0.00000000000E+00 0. -1.
         -1   -1    0    0    0  501 -0.00000000000E+00 -0.00000000000E+00 -0.61309396632E+02  0.61309396632E+02  0.00000000000E+00 0.  1.
          5    1    1    2  502    0  0.32530979061E+02  0.43814432477E+02  0.13016887355E+03  0.14122320890E+03  0.47000000000E+01 0. -1.
         -5    1    1    2    0  502 -0.74724744030E+02 -0.11435139567E+02  0.60346645682E+02  0.96841919809E+02  0.47000000000E+01 0.  1.
        -11    1    1    2    0    0 -0.20398361703E+02 -0.19768980076E+02 -0.13474898706E+02  0.31440079970E+02  0.00000000000E+00 0.  1.
         11    1    1    2    0    0  0.62592126672E+02 -0.12610312834E+02  0.52521998417E+02  0.82676203522E+02  0.00000000000E+00 0. -1.
<mgrwt>
<rscale>  0 0.13289829E+03</rscale>
<asrwt>0</asrwt>
<pdfrwt beam="1">  1        1 0.44749540E-01 0.14275448E+03</pdfrwt>
<pdfrwt beam="2">  1       -1 0.94322150E-02 0.14275448E+03</pdfrwt>
<totfact> 0.58315953E+03</totfact>
</mgrwt>
</event>
<event>
 6    1  0.4705246E-006  0.2747535E+03  0.7546771E-02  0.1098589E+00
         -2   -1    0    0    0  501 -0.00000000000E+00  0.00000000000E+00  0.16606849106E+02  0.16606849106E+02  0.00000000000E+00 0. -1.
          2   -1    0    0  501    0  0.00000000000E+00 -0.00000000000E+00 -0.11364205852E+04  0.11364205852E+04  0.00000000000E+00 0.  1.
          5    1    1    2  502    0  0.35070381344E+02 -0.84808807112E+02 -0.74744649231E+03  0.75307424221E+03  0.47000000000E+01 0.  1.
         -5    1    1    2    0  502  0.25905820610E+01  0.26602410296E+02 -0.48228788386E+02  0.55339907645E+02  0.47000000000E+01 0.  1.
        -11    1    1    2    0    0 -0.55282501759E+02  0.20348930936E+02 -0.26940067221E+03  0.27576612588E+03  0.00000000000E+00 0.  1.
         11    1    1    2    0    0  0.17621538354E+02  0.37857465879E+02 -0.54737783199E+02  0.68847158593E+02  0.00000000000E+00 0. -1.
<mgrwt>
<rscale>  0 0.27475345E+03</rscale>
<asrwt>0</asrwt>
<pdfrwt beam="2">  1        2 0.17483398E+00 0.27475345E+03</pdfrwt>
<pdfrwt beam="1">  1       -2 0.25548992E-02 0.27475345E+03</pdfrwt>
<totfact> 0.11681113E+04</totfact>
</mgrwt>
</event>
<event>
 6    1  0.4705246E-006  0.1859731E+03  0.7546771E-02  0.1167399E+00
          2   -1    0    0  501    0  0.00000000000E+00  0.00000000000E+00  0.36493336840E+03  0.36493336840E+03  0.00000000000E+00 0. -1.
         -2   -1    0    0    0  501 -0.00000000000E+00 -0.00000000000E+00 -0.11713748040E+03  0.11713748040E+03  0.00000000000E+00 0.  1.
          5    1    1    2  502    0 -0.54184539649E+02  0.83868450655E+02  0.63600492759E+02  0.11847782084E+03  0.47000000000E+01 0.  1.
         -5    1    1    2    0  502 -0.43857358082E+02  0.12822220501E+02  0.19323208805E+03  0.19861673406E+03  0.47000000000E+01 0.  1.
        -11    1    1    2    0    0  0.46749179821E+02 -0.21752090608E+02  0.36708002657E+02  0.63293891639E+02  0.00000000000E+00 0. -1.
         11    1    1    2    0    0  0.51292717910E+02 -0.74938580548E+02 -0.45744695464E+02  0.10168240225E+03  0.00000000000E+00 0.  1.
<mgrwt>
<rscale>  0 0.18041797E+03</rscale>
<asrwt>0</asrwt>
<pdfrwt beam="1">  1        2 0.56143595E-01 0.18597307E+03</pdfrwt>
<pdfrwt beam="2">  1       -2 0.18021151E-01 0.18597307E+03</pdfrwt>
<totfact> 0.21899248E+03</totfact>
</mgrwt>
</event>
<event>
 6    1  0.5087781E-006  0.1252488E+03  0.7546771E-02  0.1250235E+00
          1   -1    0    0  501    0  0.00000000000E+00  0.00000000000E+00  0.26802688007E+02  0.26802688007E+02  0.00000000000E+00 0. -1.
         -1   -1    0    0    0  501 -0.00000000000E+00 -0.00000000000E+00 -0.47412928969E+03  0.47412928969E+03  0.00000000000E+00 0.  1.
          5    1    1    2  502    0 -0.25450513037E+02 -0.10592582088E+02 -0.18768114508E+03  0.18975308595E+03  0.47000000000E+01 0. -1.
         -5    1    1    2    0  502  0.32426977883E+02  0.14248791604E+02  0.18303856930E+00  0.35730385667E+02  0.47000000000E+01 0. -1.
        -11    1    1    2    0    0  0.33454395664E+02 -0.25722354289E+02 -0.16058316332E+03  0.16603550356E+03  0.00000000000E+00 0. -1.
         11    1    1    2    0    0 -0.40430860511E+02  0.22066144774E+02 -0.99245331849E+02  0.10941300252E+03  0.00000000000E+00 0.  1.
<mgrwt>
<rscale>  0 0.11577442E+03</rscale>
<asrwt>0</asrwt>
<pdfrwt beam="1">  1        1 0.41234906E-02 0.12524878E+03</pdfrwt>
<pdfrwt beam="2">  1       -1 0.72942965E-01 0.12524878E+03</pdfrwt>
<totfact> 0.40961237E+03</totfact>
</mgrwt>
</event>
<event>
 6    1  0.4705246E-006  0.1295530E+03  0.7546771E-02  0.1241711E+00
         -1   -1    0    0    0  501 -0.00000000000E+00  0.00000000000E+00  0.36784026909E+02  0.36784026909E+02  0.00000000000E+00 0.  1.
          1   -1    0    0  501    0  0.00000000000E+00 -0.00000000000E+00 -0.36414088115E+03  0.36414088115E+03  0.00000000000E+00 0. -1.
          5    1    1    2  502    0  0.44007469975E+02 -0.39370054410E+02 -0.37845072701E+02  0.70292233750E+02  0.47000000000E+01 0. -1.
         -5    1    1    2    0  502 -0.11718204543E+02  0.28622717994E+02 -0.18375847442E+03  0.18640236914E+03  0.47000000000E+01 0. -1.
        -11    1    1    2    0    0  0.14176074798E+02  0.39786424425E+02 -0.56591061410E+02  0.70614933950E+02  0.00000000000E+00 0. -1.
         11    1    1    2    0    0 -0.46465340230E+02 -0.29039088010E+02 -0.49162245710E+02  0.73615371210E+02  0.00000000000E+00 0.  1.
<mgrwt>
<rscale>  0 0.12084391E+03</rscale>
<asrwt>0</asrwt>
<pdfrwt beam="2">  1        1 0.56021671E-01 0.12955303E+03</pdfrwt>
<pdfrwt beam="1">  1       -1 0.56590814E-02 0.12955303E+03</pdfrwt>
<totfact> 0.94438489E+03</totfact>
</mgrwt>
</event>
<event>
 6    1  0.4705246E-006  0.3752922E+03  0.7546771E-02  0.1052688E+00
         -1   -1    0    0    0  501 -0.00000000000E+00  0.00000000000E+00  0.26234455590E+02  0.26234455590E+02  0.00000000000E+00 0.  1.
          1   -1    0    0  501    0  0.00000000000E+00 -0.00000000000E+00 -0.13421681617E+04  0.13421681617E+04  0.00000000000E+00 0. -1.
          5    1    1    2  502    0 -0.13244487539E+03  0.65181435094E+02 -0.48646823166E+03  0.50839324829E+03  0.47000000000E+01 0. -1.
         -5    1    1    2    0  502 -0.14362057380E+02 -0.30764413042E+02 -0.30619356708E+03  0.30810600176E+03  0.47000000000E+01 0. -1.
        -11    1    1    2    0    0  0.84231157046E+02 -0.60709935069E+02 -0.25857358710E+03  0.27864113835E+03  0.00000000000E+00 0.  1.
         11    1    1    2    0    0  0.62575775719E+02  0.26292913017E+02 -0.26469832027E+03  0.27326222889E+03  0.00000000000E+00 0. -1.
<mgrwt>
<rscale>  0 0.37529216E+03</rscale>
<asrwt>0</asrwt>
<pdfrwt beam="2">  1        1 0.20648741E+00 0.37529216E+03</pdfrwt>
<pdfrwt beam="1">  1       -1 0.40360701E-02 0.37529216E+03</pdfrwt>
<totfact> 0.22161472E+03</totfact>
</mgrwt>
</event>
<event>
 6    1  0.4705246E-006  0.1869320E+03  0.7546771E-02  0.1166244E+00
          2   -1    0    0  501    0  0.00000000000E+00  0.00000000000E+00  0.35187848405E+03  0.35187848405E+03  0.00000000000E+00 0. -1.
         -2   -1    0    0    0  501 -0.00000000000E+00 -0.00000000000E+00 -0.89654929291E+02  0.89654929291E+02  0.00000000000E+00 0.  1.
          5    1    1    2  502    0 -0.27768223199E+02 -0.64610785320E+02 -0.13404815142E+01  0.70494784843E+02  0.47000000000E+01 0.  1.
         -5    1    1    2    0  502 -0.20170267805E+02 -0.65840672659E+02  0.16162728617E+03  0.17574784071E+03  0.47000000000E+01 0.  1.
        -11    1    1    2    0    0  0.62711306790E+02  0.56564213415E+02  0.26119937173E+02  0.88399487308E+02  0.00000000000E+00 0.  1.
         11    1    1    2    0    0 -0.14772815786E+02  0.73887244565E+02  0.75816812930E+02  0.10689130048E+03  0.00000000000E+00 0. -1.
<mgrwt>
<rscale>  0 0.18162076E+03</rscale>
<asrwt>0</asrwt>
<pdfrwt beam="1">  1        2 0.54135151E-01 0.18693200E+03</pdfrwt>
<pdfrwt beam="2">  1       -2 0.13793066E-01 0.18693200E+03</pdfrwt>
<totfact> 0.35459882E+03</totfact>
</mgrwt>
</event>
<event>
 6    1  0.4705246E-006  0.1312770E+03  0.7546771E-02  0.1238378E+00
         -2   -1    0    0    0  501 -0.00000000000E+00  0.00000000000E+00  0.28272512374E+02  0.28272512374E+02  0.00000000000E+00 0.  1.
          2   -1    0    0  501    0  0.00000000000E+00 -0.00000000000E+00 -0.63397981880E+03  0.63397981880E+03  0.00000000000E+00 0. -1.
          5    1    1    2  502    0 -0.49402750623E+02  0.58108015512E+02 -0.39261438230E+03  0.39998164511E+03  0.47000000000E+01 0.  1.
         -5    1    1    2    0  502  0.41658326745E+02 -0.18770720036E+02 -0.10401882462E+03  0.11370911130E+03  0.47000000000E+01 0.  1.
        -11    1    1    2    0    0  0.44726142803E+01 -0.69940616484E+02 -0.75359947130E+02  0.10291168905E+03  0.00000000000E+00 0.  1.
         11    1    1    2    0    0  0.32718095973E+01  0.30603321008E+02 -0.33714152383E+02  0.45649885714E+02  0.00000000000E+00 0. -1.
<mgrwt>
<rscale>  0 0.12290644E+03</rscale>
<asrwt>0</asrwt>
<pdfrwt beam="2">  1        2 0.97535350E-01 0.13127700E+03</pdfrwt>
<pdfrwt beam="1">  1       -2 0.43496176E-02 0.13127700E+03</pdfrwt>
<totfact> 0.10898870E+04</totfact>
</mgrwt>
</event>
<event>
 6    1  0.4705246E-006  0.1296106E+03  0.7546771E-02  0.1240681E+00
          1   -1    0    0  501    0  0.00000000000E+00  0.00000000000E+00  0.15939679382E+04  0.15939679382E+04  0.00000000000E+00 0. -1.
         -1   -1    0    0    0  501 -0.00000000000E+00 -0.00000000000E+00 -0.98580330288E+01  0.98580330288E+01  0.00000000000E+00 0.  1.
          5    1    1    2  502    0  0.19277706671E+02 -0.41146172258E+02  0.16764052906E+03  0.17375291206E+03  0.47000000000E+01 0.  1.
         -5    1    1    2    0  502  0.14955918612E+02  0.39648296867E+02  0.10296989716E+04  0.10305812579E+04  0.47000000000E+01 0.  1.
        -11    1    1    2    0    0 -0.45445293729E+02  0.39486461991E+02  0.22077916993E+03  0.22884033140E+03  0.00000000000E+00 0.  1.
         11    1    1    2    0    0  0.11211668446E+02 -0.37988586600E+02  0.16599123461E+03  0.17065146992E+03  0.00000000000E+00 0. -1.
<mgrwt>
<rscale>  0 0.12147676E+03</rscale>
<asrwt>0</asrwt>
<pdfrwt beam="1">  1        1 0.24522563E+00 0.12961062E+03</pdfrwt>
<pdfrwt beam="2">  1       -1 0.15166217E-02 0.12961062E+03</pdfrwt>
<totfact> 0.62413824E+03</totfact>
</mgrwt>
</event>
<event>
 6    1  0.4705246E-006  0.1427639E+03  0.7546771E-02  0.1220058E+00
          1   -1    0    0  501    0  0.00000000000E+00  0.00000000000E+00  0.26988325377E+03  0.26988325377E+03  0.00000000000E+00 0. -1.
         -1   -1    0    0    0  501 -0.00000000000E+00 -0.00000000000E+00 -0.64028509862E+02  0.64028509862E+02  0.00000000000E+00 0.  1.
          5    1    1    2  502    0  0.15025238850E+02  0.52629927675E+02  0.10495498104E+03  0.11846225194E+03  0.47000000000E+01 0. -1.
         -5    1    1    2    0  502 -0.73789019211E+02 -0.16518515937E+02  0.42884123516E+02  0.87056411450E+02  0.47000000000E+01 0. -1.
        -11    1    1    2    0    0  0.15479350202E+02 -0.17836953257E+02  0.74847471715E+02  0.78485101811E+02  0.00000000000E+00 0. -1.
         11    1    1    2    0    0  0.43284430159E+02 -0.18274458481E+02 -0.16831832360E+02  0.49907998433E+02  0.00000000000E+00 0.  1.
<mgrwt>
<rscale>  0 0.13511426E+03</rscale>
<asrwt>0</asrwt>
<pdfrwt beam="1">  1        1 0.41520500E-01 0.14276386E+03</pdfrwt>
<pdfrwt beam="2">  1       -1 0.98505401E-02 0.14276386E+03</pdfrwt>
<totfact> 0.59883897E+03</totfact>
</mgrwt>
</event>
<event>
 6    1  0.4705246E-006  0.1365029E+03  0.7546771E-02  0.1230655E+00
          1   -1    0    0  501    0  0.00000000000E+00  0.00000000000E+00  0.10513298608E+04  0.10513298608E+04  0.00000000000E+00 0. -1.
         -1   -1    0    0    0  501 -0.00000000000E+00 -0.00000000000E+00 -0.17951421532E+02  0.17951421532E+02  0.00000000000E+00 0.  1.
          5    1    1    2  502    0  0.61813431944E+02  0.50702812810E+02  0.73328289790E+03  0.73764325656E+03  0.47000000000E+01 0. -1.
         -5    1    1    2    0  502 -0.35161505176E+02 -0.27617724484E+01  0.88254288925E+02  0.95157071976E+02  0.47000000000E+01 0. -1.
        -11    1    1    2    0    0  0.64706762819E+00 -0.50923193455E+02  0.46782592511E+02  0.69153461882E+02  0.00000000000E+00 0.  1.
         11    1    1    2    0    0 -0.27298994396E+02  0.29821530941E+01  0.16505865995E+03  0.16732749193E+03  0.00000000000E+00 0. -1.
<mgrwt>
<rscale>  0 0.12786733E+03</rscale>
<asrwt>0</asrwt>
<pdfrwt beam="1">  1        1 0.16174301E+00 0.13650289E+03</pdfrwt>
<pdfrwt beam="2">  1       -1 0.27617580E-02 0.13650289E+03</pdfrwt>
<totfact> 0.60807624E+03</totfact>
</mgrwt>
</event>
<event>
 6    1  0.4705246E-006  0.1438386E+03  0.7546771E-02  0.1219569E+00
         -1   -1    0    0    0  501 -0.00000000000E+00  0.00000000000E+00  0.17177739897E+03  0.17177739897E+03  0.00000000000E+00 0.  1.
          1   -1    0    0  501    0  0.00000000000E+00 -0.00000000000E+00 -0.96431240131E+02  0.96431240131E+02  0.00000000000E+00 0. -1.
          5    1    1    2  502    0 -0.38042063167E+02 -0.24008035673E+02 -0.31677218237E+00  0.45230240896E+02  0.47000000000E+01 0. -1.
         -5    1    1    2    0  502  0.94545369946E+02 -0.19259303714E+02  0.34852067560E+02  0.10269617506E+03  0.47000000000E+01 0. -1.
        -11    1    1    2    0    0 -0.52380082325E+02  0.11695369766E+02  0.62025395221E+02  0.82021974804E+02  0.00000000000E+00 0.  1.
         11    1    1    2    0    0 -0.41232244546E+01  0.31571969621E+02 -0.21214531760E+02  0.38260248346E+02  0.00000000000E+00 0. -1.
<mgrwt>
<rscale>  0 0.13546200E+03</rscale>
<asrwt>0</asrwt>
<pdfrwt beam="2">  1        1 0.14835575E-01 0.14383858E+03</pdfrwt>
<pdfrwt beam="1">  1       -1 0.26427292E-01 0.14383858E+03</pdfrwt>
<totfact> 0.46002527E+03</totfact>
</mgrwt>
</event>
<event>
 6    1  0.4705246E-006  0.1253482E+03  0.7546771E-02  0.1249269E+00
          2   -1    0    0  501    0  0.00000000000E+00  0.00000000000E+00  0.16918297873E+03  0.16918297873E+03  0.00000000000E+00 0. -1.
         -2   -1    0    0    0  501 -0.00000000000E+00 -0.00000000000E+00 -0.70467478803E+02  0.70467478803E+02  0.00000000000E+00 0.  1.
          5    1    1    2  502    0 -0.60443324389E+01  0.48450810990E+02  0.67697211361E+02  0.83600343697E+02  0.47000000000E+01 0.  1.
         -5    1    1    2    0  502 -0.28309163428E+01 -0.51339465184E+02 -0.12873734632E+02  0.53212571974E+02  0.47000000000E+01 0.  1.
        -11    1    1    2    0    0 -0.27602993879E+02  0.23121932382E+02 -0.73636037565E+01  0.36752845991E+02  0.00000000000E+00 0.  1.
         11    1    1    2    0    0  0.36478242660E+02 -0.20233278188E+02  0.51255626955E+02  0.66084695871E+02  0.00000000000E+00 0. -1.
<mgrwt>
<rscale>  0 0.11633476E+03</rscale>
<asrwt>0</asrwt>
<pdfrwt beam="1">  1        2 0.26028150E-01 0.12534816E+03</pdfrwt>
<pdfrwt beam="2">  1       -2 0.10841151E-01 0.12534816E+03</pdfrwt>
<totfact> 0.11184637E+04</totfact>
</mgrwt>
</event>
<event>
 6    1  0.4705246E-006  0.1415560E+03  0.7546771E-02  0.1222205E+00
          2   -1    0    0  501    0  0.00000000000E+00  0.00000000000E+00  0.13786366418E+04  0.13786366418E+04  0.00000000000E+00 0. -1.
         -2   -1    0    0    0  501 -0.00000000000E+00 -0.00000000000E+00 -0.11690811130E+02  0.11690811130E+02  0.00000000000E+00 0.  1.
          5    1    1    2  502    0 -0.16305656917E+02 -0.50319408501E+02  0.47220475247E+03  0.47518137124E+03  0.47000000000E+01 0.  1.
         -5    1    1    2    0  502  0.74149345451E+02  0.17640681626E+02  0.27996680970E+03  0.29019445827E+03  0.47000000000E+01 0.  1.
        -11    1    1    2    0    0 -0.57221481244E+02 -0.19265430384E+02  0.33139970154E+03  0.33685488998E+03  0.00000000000E+00 0. -1.
         11    1    1    2    0    0 -0.62220728959E+00  0.51944157259E+02  0.28337456693E+03  0.28809673340E+03  0.00000000000E+00 0.  1.
<mgrwt>
<rscale>  0 0.13360302E+03</rscale>
<asrwt>0</asrwt>
<pdfrwt beam="1">  1        2 0.21209782E+00 0.14155600E+03</pdfrwt>
<pdfrwt beam="2">  1       -2 0.17985874E-02 0.14155600E+03</pdfrwt>
<totfact> 0.13917336E+04</totfact>
</mgrwt>
</event>
<event>
 6    1  0.4705246E-006  0.1436105E+03  0.7546771E-02  0.1218557E+00
         -1   -1    0    0    0  501 -0.00000000000E+00  0.00000000000E+00  0.31853587995E+02  0.31853587995E+02  0.00000000000E+00 0.  1.
          1   -1    0    0  501    0  0.00000000000E+00 -0.00000000000E+00 -0.59794648965E+03  0.59794648965E+03  0.00000000000E+00 0. -1.
          5    1    1    2  502    0 -0.50635097392E+02 -0.63160895452E+02 -0.39819217310E+03  0.40636474812E+03  0.47000000000E+01 0. -1.
         -5    1    1    2    0  502 -0.97057610869E+01  0.26305403528E+02 -0.17379738471E+02  0.33321484996E+02  0.47000000000E+01 0. -1.
        -11    1    1    2    0    0  0.81531782254E+02  0.13685218720E+02 -0.91903118283E+02  0.12361593699E+03  0.00000000000E+00 0.  1.
         11    1    1    2    0    0 -0.21190923775E+02  0.23170273204E+02 -0.58617871799E+02  0.66497907524E+02  0.00000000000E+00 0. -1.
<mgrwt>
<rscale>  0 0.13618455E+03</rscale>
<asrwt>0</asrwt>
<pdfrwt beam="2">  1        1 0.91991755E-01 0.14361048E+03</pdfrwt>
<pdfrwt beam="1">  1       -1 0.49005527E-02 0.14361048E+03</pdfrwt>
<totfact> 0.61937866E+03</totfact>
</mgrwt>
</event>
<event>
 6    1  0.4705246E-006  0.2865176E+03  0.7546771E-02  0.1092181E+00
         -1   -1    0    0    0  501 -0.00000000000E+00  0.00000000000E+00  0.10132306942E+03  0.10132306942E+03  0.00000000000E+00 0.  1.
          1   -1    0    0  501    0  0.00000000000E+00 -0.00000000000E+00 -0.20255091941E+03  0.20255091941E+03  0.00000000000E+00 0. -1.
          5    1    1    2  502    0 -0.31404165720E+02 -0.26036730502E+01 -0.29749202691E+01  0.31999076370E+02  0.47000000000E+01 0.  1.
         -5    1    1    2    0  502  0.10003877424E+03 -0.22106475290E+01 -0.12044117039E+03  0.15665506324E+03  0.47000000000E+01 0.  1.
        -11    1    1    2    0    0 -0.27643642674E+02  0.46747192710E+02  0.13258786433E+02  0.55904082357E+02  0.00000000000E+00 0. -1.
         11    1    1    2    0    0 -0.40990965844E+02 -0.41932872131E+02  0.89294542371E+01  0.59315766866E+02  0.00000000000E+00 0.  1.
<mgrwt>
<rscale>  0 0.28651758E+03</rscale>
<asrwt>0</asrwt>
<pdfrwt beam="2">  1        1 0.31161679E-01 0.28651758E+03</pdfrwt>
<pdfrwt beam="1">  1       -1 0.15588165E-01 0.28651758E+03</pdfrwt>
<totfact> 0.43411182E+03</totfact>
</mgrwt>
</event>
<event>
 6    1  0.4705246E-006  0.1541487E+03  0.7546771E-02  0.1204145E+00
          2   -1    0    0  501    0  0.00000000000E+00  0.00000000000E+00  0.35943002755E+03  0.35943002755E+03  0.00000000000E+00 0. -1.
         -2   -1    0    0    0  501 -0.00000000000E+00 -0.00000000000E+00 -0.75537261975E+02  0.75537261975E+02  0.00000000000E+00 0.  1.
          5    1    1    2  502    0 -0.28950521653E+02 -0.60267699417E+02  0.26782093068E+03  0.27608054840E+03  0.47000000000E+01 0.  1.
         -5    1    1    2    0  502 -0.27188937655E+02 -0.10339625823E+02 -0.37357692174E+01  0.29701719893E+02  0.47000000000E+01 0.  1.
        -11    1    1    2    0    0  0.16024071148E+02 -0.18967657348E+02  0.18610065206E+02  0.31030266006E+02  0.00000000000E+00 0.  1.
         11    1    1    2    0    0  0.40115388160E+02  0.89574982588E+02  0.11975389046E+01  0.98154755220E+02  0.00000000000E+00 0. -1.
<mgrwt>
<rscale>  0 0.14705049E+03</rscale>
<asrwt>0</asrwt>
<pdfrwt beam="1">  1        2 0.55296926E-01 0.15414870E+03</pdfrwt>
<pdfrwt beam="2">  1       -2 0.11621117E-01 0.15414870E+03</pdfrwt>
<totfact> 0.45299330E+03</totfact>
</mgrwt>
</event>
<event>
 6    1  0.4705246E-006  0.3281171E+03  0.7546771E-02  0.1071973E+00
         -1   -1    0    0    0  501 -0.00000000000E+00  0.00000000000E+00  0.27006489692E+03  0.27006489692E+03  0.00000000000E+00 0.  1.
          1   -1    0    0  501    0  0.00000000000E+00 -0.00000000000E+00 -0.99661993936E+02  0.99661993936E+02  0.00000000000E+00 0. -1.
          5    1    1    2  502    0  0.10763357579E+03 -0.45359606304E+02  0.73363760264E+02  0.13801018746E+03  0.47000000000E+01 0. -1.
         -5    1    1    2    0  502 -0.27533400073E+02 -0.46879223540E+02  0.93739794733E+01  0.55368864991E+02  0.47000000000E+01 0. -1.
        -11    1    1    2    0    0 -0.75132006074E+02  0.23237610613E+02  0.69179773402E+02  0.10474085130E+03  0.00000000000E+00 0.  1.
         11    1    1    2    0    0 -0.49681696443E+01  0.69001219230E+02  0.18485389848E+02  0.71606987108E+02  0.00000000000E+00 0. -1.
<mgrwt>
<rscale>  0 0.32811709E+03</rscale>
<asrwt>0</asrwt>
<pdfrwt beam="2">  1        1 0.15332615E-01 0.32811709E+03</pdfrwt>
<pdfrwt beam="1">  1       -1 0.41548445E-01 0.32811709E+03</pdfrwt>
<totfact> 0.20918202E+03</totfact>
</mgrwt>
</event>
<event>
 6    1  0.4705246E-006  0.1370411E+03  0.7546771E-02  0.1229243E+00
         -2   -1    0    0    0  501 -0.00000000000E+00  0.00000000000E+00  0.85278634611E+02  0.85278634611E+02  0.00000000000E+00 0.  1.
          2   -1    0    0  501    0  0.00000000000E+00 -0.00000000000E+00 -0.21933243430E+03  0.21933243430E+03  0.00000000000E+00 0. -1.
          5    1    1    2  502    0 -0.42409451623E+01  0.26173659013E+02  0.17206760405E+02  0.31956355324E+02  0.47000000000E+01 0.  1.
         -5    1    1    2    0  502  0.41629417255E+02  0.15742093902E+02 -0.15924465539E+03  0.16541394189E+03  0.47000000000E+01 0.  1.
        -11    1    1    2    0    0 -0.43997842631E+02 -0.63821593291E+02  0.21783683860E+02  0.80520399955E+02  0.00000000000E+00 0.  1.
         11    1    1    2    0    0  0.66093705381E+01  0.21905840376E+02 -0.13799588561E+02  0.26720371740E+02  0.00000000000E+00 0. -1.
<mgrwt>
<rscale>  0 0.12880314E+03</rscale>
<asrwt>0</asrwt>
<pdfrwt beam="2">  1        2 0.33743452E-01 0.13704113E+03</pdfrwt>
<pdfrwt beam="1">  1       -2 0.13119790E-01 0.13704113E+03</pdfrwt>
<totfact> 0.62694774E+03</totfact>
</mgrwt>
</event>
<event>
 6    1  0.4705246E-006  0.1684853E+03  0.7546771E-02  0.1186997E+00
          2   -1    0    0  501    0  0.00000000000E+00  0.00000000000E+00  0.73765772705E+03  0.73765772705E+03  0.00000000000E+00 0. -1.
         -2   -1    0    0    0  501 -0.00000000000E+00 -0.00000000000E+00 -0.35198199188E+02  0.35198199188E+02  0.00000000000E+00 0.  1.
          5    1    1    2  502    0 -0.23213362285E+02  0.52290635710E+02  0.39549811175E+03  0.39964236158E+03  0.47000000000E+01 0.  1.
         -5    1    1    2    0  502 -0.67254782589E+02  0.15392109653E+02  0.85228939910E+02  0.10975511386E+03  0.47000000000E+01 0.  1.
        -11    1    1    2    0    0  0.47673995130E+02 -0.35909256801E+02  0.19480390513E+03  0.20374210657E+03  0.00000000000E+00 0. -1.
         11    1    1    2    0    0  0.42794149744E+02 -0.31773488562E+02  0.26928571069E+02  0.59716344224E+02  0.00000000000E+00 0.  1.
<mgrwt>
<rscale>  0 0.16151444E+03</rscale>
<asrwt>0</asrwt>
<pdfrwt beam="1">  1        2 0.11348579E+00 0.16848528E+03</pdfrwt>
<pdfrwt beam="2">  1       -2 0.54151081E-02 0.16848528E+03</pdfrwt>
<totfact> 0.66484883E+03</totfact>
</mgrwt>
</event>
<event>
 6    1  0.4705246E-006  0.1458771E+03  0.7546771E-02  0.1220609E+00
         -1   -1    0    0    0  501 -0.00000000000E+00  0.00000000000E+00  0.16184179749E+02  0.16184179749E+02  0.00000000000E+00 0.  1.
          1   -1    0    0  501    0  0.00000000000E+00 -0.00000000000E+00 -0.99725715981E+03  0.99725715981E+03  0.00000000000E+00 0. -1.
          5    1    1    2  502    0  0.31109392257E+02  0.43847109130E+02 -0.16819974937E+03  0.17664543287E+03  0.47000000000E+01 0. -1.
         -5    1    1    2    0  502 -0.11322868008E+02 -0.86644914738E+02 -0.46238562156E+03  0.47059335059E+03  0.47000000000E+01 0.  1.
        -11    1    1    2    0    0 -0.40365847881E+02  0.55354995170E+02 -0.32042669821E+03  0.32766880549E+03  0.00000000000E+00 0.  1.
         11    1    1    2    0    0  0.20579323632E+02 -0.12557189562E+02 -0.30060910914E+02  0.38533750607E+02  0.00000000000E+00 0. -1.
<mgrwt>
<rscale>  0 0.13472430E+03</rscale>
<asrwt>0</asrwt>
<pdfrwt beam="2">  1        1 0.15342418E+00 0.14587712E+03</pdfrwt>
<pdfrwt beam="1">  1       -1 0.24898739E-02 0.14587712E+03</pdfrwt>
<totfact> 0.77609893E+03</totfact>
</mgrwt>
</event>
<event>
 6    1  0.4705246E-006  0.1811797E+03  0.7546771E-02  0.1172164E+00
         -1   -1    0    0    0  501 -0.00000000000E+00  0.00000000000E+00  0.28066272338E+03  0.28066272338E+03  0.00000000000E+00 0.  1.
          1   -1    0    0  501    0  0.00000000000E+00 -0.00000000000E+00 -0.10437488397E+03  0.10437488397E+03  0.00000000000E+00 0. -1.
          5    1    1    2  502    0  0.32311511445E+02 -0.13455867730E+03  0.59063727714E+02  0.15053466491E+03  0.47000000000E+01 0.  1.
         -5    1    1    2    0  502 -0.42269077328E+02  0.39240850293E+01  0.17336146356E+02  0.46094525836E+02  0.47000000000E+01 0.  1.
        -11    1    1    2    0    0  0.22506933093E+02  0.36858623825E+02 -0.90456037281E+01  0.44124178569E+02  0.00000000000E+00 0. -1.
         11    1    1    2    0    0 -0.12549367210E+02  0.93775968441E+02  0.10893356907E+03  0.14428423803E+03  0.00000000000E+00 0.  1.
<mgrwt>
<rscale>  0 0.17556687E+03</rscale>
<asrwt>0</asrwt>
<pdfrwt beam="2">  1        1 0.16057675E-01 0.18117974E+03</pdfrwt>
<pdfrwt beam="1">  1       -1 0.43178880E-01 0.18117974E+03</pdfrwt>
<totfact> 0.18057525E+03</totfact>
</mgrwt>
</event>
<event>
 6    1  0.4705246E-006  0.1433767E+03  0.7546771E-02  0.1224959E+00
          2   -1    0    0  501    0  0.00000000000E+00  0.00000000000E+00  0.58007240106E+03  0.58007240106E+03  0.00000000000E+00 0. -1.
         -2   -1    0    0    0  501 -0.00000000000E+00 -0.00000000000E+00 -0.42287986503E+02  0.42287986503E+02  0.00000000000E+00 0.  1.
          5    1    1    2  502    0  0.67055227674E+02  0.77191790204E+01  0.42067529651E+03  0.42608189868E+03  0.47000000000E+01 0. -1.
         -5    1    1    2    0  502 -0.37856409933E+02  0.28875757107E+02  0.67662731478E+02  0.82868886517E+02  0.47000000000E+01 0.  1.
        -11    1    1    2    0    0 -0.59760087183E+01 -0.31399807601E+02 -0.21537864573E+02  0.38542706287E+02  0.00000000000E+00 0.  1.
         11    1    1    2    0    0 -0.23222809023E+02 -0.51951285267E+01  0.70984251142E+02  0.74866896086E+02  0.00000000000E+00 0. -1.
<mgrwt>
<rscale>  0 0.13169693E+03</rscale>
<asrwt>0</asrwt>
<pdfrwt beam="1">  1        2 0.89241903E-01 0.14337668E+03</pdfrwt>
<pdfrwt beam="2">  1       -2 0.65058445E-02 0.14337668E+03</pdfrwt>
<totfact> 0.66107590E+03</totfact>
</mgrwt>
</event>
<event>
 6    1  0.4705246E-006  0.1543088E+03  0.7546771E-02  0.1203837E+00
         -2   -1    0    0    0  501 -0.00000000000E+00  0.00000000000E+00  0.18932276621E+03  0.18932276621E+03  0.00000000000E+00 0.  1.
          2   -1    0    0  501    0  0.00000000000E+00 -0.00000000000E+00 -0.11781662832E+03  0.11781662832E+03  0.00000000000E+00 0. -1.
          5    1    1    2  502    0 -0.40406024908E+02 -0.82587596385E+02 -0.79396200431E+01  0.92403925739E+02  0.47000000000E+01 0.  1.
         -5    1    1    2    0  502  0.61817305845E+02 -0.53180080422E+01 -0.31607634419E+01  0.62303618972E+02  0.47000000000E+01 0.  1.
        -11    1    1    2    0    0  0.32203106411E+01  0.93040075294E+02  0.86370409281E+02  0.12699084066E+03  0.00000000000E+00 0.  1.
         11    1    1    2    0    0 -0.24631591578E+02 -0.51344708669E+01 -0.37638879030E+01  0.25441009157E+02  0.00000000000E+00 0. -1.
<mgrwt>
<rscale>  0 0.14729466E+03</rscale>
<asrwt>0</asrwt>
<pdfrwt beam="2">  1        2 0.18125635E-01 0.15430880E+03</pdfrwt>
<pdfrwt beam="1">  1       -2 0.29126579E-01 0.15430880E+03</pdfrwt>
<totfact> 0.32551040E+03</totfact>
</mgrwt>
</event>
<event>
 6    1  0.4705246E-006  0.1597046E+03  0.7546771E-02  0.1197736E+00
         -2   -1    0    0    0  501 -0.00000000000E+00  0.00000000000E+00  0.93960273739E+02  0.93960273739E+02  0.00000000000E+00 0.  1.
          2   -1    0    0  501    0  0.00000000000E+00 -0.00000000000E+00 -0.29591145178E+03  0.29591145178E+03  0.00000000000E+00 0. -1.
          5    1    1    2  502    0  0.11485401102E+03 -0.51356085835E+02 -0.18049842887E+03  0.22006968038E+03  0.47000000000E+01 0.  1.
         -5    1    1    2    0  502 -0.30413600802E+02 -0.10828636575E+01 -0.22084379379E+02  0.37894188473E+02  0.47000000000E+01 0.  1.
        -11    1    1    2    0    0 -0.21761371896E+02  0.14622824279E+02  0.40732190905E+02  0.48440640712E+02  0.00000000000E+00 0.  1.
         11    1    1    2    0    0 -0.62679038319E+02  0.37816125213E+02 -0.40100560695E+02  0.83467215952E+02  0.00000000000E+00 0. -1.
<mgrwt>
<rscale>  0 0.15224902E+03</rscale>
<asrwt>0</asrwt>
<pdfrwt beam="2">  1        2 0.45524839E-01 0.15970461E+03</pdfrwt>
<pdfrwt beam="1">  1       -2 0.14455427E-01 0.15970461E+03</pdfrwt>
<totfact> 0.39249895E+03</totfact>
</mgrwt>
</event>
<event>
 6    1  0.4705246E-006  0.3438797E+03  0.7546771E-02  0.1065155E+00
          2   -1    0    0  501    0  0.00000000000E+00  0.00000000000E+00  0.38356606030E+03  0.38356606030E+03  0.00000000000E+00 0. -1.
         -2   -1    0    0    0  501 -0.00000000000E+00 -0.00000000000E+00 -0.77074877735E+02  0.77074877735E+02  0.00000000000E+00 0.  1.
          5    1    1    2  502    0  0.32947144030E+02 -0.11100523017E+02  0.13495581412E+03  0.13944137720E+03  0.47000000000E+01 0.  1.
         -5    1    1    2    0  502 -0.80576242859E+02 -0.77903065720E+02  0.14476744076E+03  0.18314235028E+03  0.47000000000E+01 0.  1.
        -11    1    1    2    0    0  0.41588080947E+02  0.30106546083E+02  0.52562214426E+02  0.73476247722E+02  0.00000000000E+00 0. -1.
         11    1    1    2    0    0  0.60410178819E+01  0.58897042654E+02 -0.25794286750E+02  0.64580962825E+02  0.00000000000E+00 0.  1.
<mgrwt>
<rscale>  0 0.34387967E+03</rscale>
<asrwt>0</asrwt>
<pdfrwt beam="1">  1        2 0.59010162E-01 0.34387967E+03</pdfrwt>
<pdfrwt beam="2">  1       -2 0.11857674E-01 0.34387967E+03</pdfrwt>
<totfact> 0.42265683E+03</totfact>
</mgrwt>
</event>
<event>
 6    1  0.4705246E-006  0.2345137E+03  0.7546771E-02  0.1126337E+00
         -1   -1    0    0    0  501 -0.00000000000E+00  0.00000000000E+00  0.81816291759E+02  0.81816291759E+02  0.00000000000E+00 0.  1.
          1   -1    0    0  501    0  0.00000000000E+00 -0.00000000000E+00 -0.70225152046E+03  0.70225152046E+03  0.00000000000E+00 0. -1.
          5    1    1    2  502    0  0.10005775313E+03 -0.64474424886E+02 -0.35410096372E+03  0.37360150954E+03  0.47000000000E+01 0. -1.
         -5    1    1    2    0  502  0.91726651422E+02  0.13573035510E+02 -0.93800057948E+02  0.13197934212E+03  0.47000000000E+01 0. -1.
        -11    1    1    2    0    0 -0.10044391768E+03 -0.16665671200E+02 -0.10527155114E+03  0.14645417261E+03  0.00000000000E+00 0. -1.
         11    1    1    2    0    0 -0.91340486868E+02  0.67567060576E+02 -0.67262655893E+02  0.13203278795E+03  0.00000000000E+00 0.  1.
<mgrwt>
<rscale>  0 0.23043041E+03</rscale>
<asrwt>0</asrwt>
<pdfrwt beam="2">  1        1 0.10803869E+00 0.23451369E+03</pdfrwt>
<pdfrwt beam="1">  1       -1 0.12587122E-01 0.23451369E+03</pdfrwt>
<totfact> 0.11927144E+03</totfact>
</mgrwt>
</event>
<event>
 6    1  0.4705246E-006  0.1318478E+03  0.7546771E-02  0.1240183E+00
         -2   -1    0    0    0  501 -0.00000000000E+00  0.00000000000E+00  0.15938479751E+02  0.15938479751E+02  0.00000000000E+00 0.  1.
          2   -1    0    0  501    0  0.00000000000E+00 -0.00000000000E+00 -0.94175545677E+03  0.94175545677E+03  0.00000000000E+00 0. -1.
          5    1    1    2  502    0 -0.33860087153E+02  0.20785642928E+02 -0.62723236071E+03  0.62850701888E+03  0.47000000000E+01 0. -1.
         -5    1    1    2    0  502  0.35598802699E+02  0.21083857124E+02 -0.73095568439E+02  0.84124050724E+02  0.47000000000E+01 0. -1.
        -11    1    1    2    0    0 -0.33440634839E+02  0.15091164519E+01 -0.41109286116E+02  0.53014402721E+02  0.00000000000E+00 0.  1.
         11    1    1    2    0    0  0.31701919293E+02 -0.43378616505E+02 -0.18437976175E+03  0.19204846420E+03  0.00000000000E+00 0. -1.
<mgrwt>
<rscale>  0 0.12178393E+03</rscale>
<asrwt>0</asrwt>
<pdfrwt beam="2">  1        2 0.14488545E+00 0.13184776E+03</pdfrwt>
<pdfrwt beam="1">  1       -2 0.24520739E-02 0.13184776E+03</pdfrwt>
<totfact> 0.15583007E+04</totfact>
</mgrwt>
</event>
<event>
 6    1  0.4705246E-006  0.1349425E+03  0.7546771E-02  0.1232553E+00
          2   -1    0    0  501    0  0.00000000000E+00  0.00000000000E+00  0.13736429249E+04  0.13736429249E+04  0.00000000000E+00 0. -1.
         -2   -1    0    0    0  501 -0.00000000000E+00 -0.00000000000E+00 -0.10687490477E+02  0.10687490477E+02  0.00000000000E+00 0.  1.
          5    1    1    2  502    0  0.90514885012E+02 -0.18279197079E+02  0.59886537978E+03  0.60596114278E+03  0.47000000000E+01 0.  1.
         -5    1    1    2    0  502 -0.39767238382E+02  0.14167951101E+02  0.27037537330E+03  0.27369160852E+03  0.47000000000E+01 0.  1.
        -11    1    1    2    0    0  0.24206358123E+02  0.15212548022E+02  0.11997375627E+03  0.12333317309E+03  0.00000000000E+00 0. -1.
         11    1    1    2    0    0 -0.74954004753E+02 -0.11101302044E+02  0.37374092507E+03  0.38134449099E+03  0.00000000000E+00 0.  1.
<mgrwt>
<rscale>  0 0.12662378E+03</rscale>
<asrwt>0</asrwt>
<pdfrwt beam="1">  1        2 0.21132954E+00 0.13494249E+03</pdfrwt>
<pdfrwt beam="2">  1       -2 0.16442304E-02 0.13494249E+03</pdfrwt>
<totfact> 0.15901969E+04</totfact>
</mgrwt>
</event>
<event>
 6    1  0.4705246E-006  0.1738211E+03  0.7546771E-02  0.1182672E+00
          3   -1    0    0  501    0  0.00000000000E+00  0.00000000000E+00  0.21807845302E+02  0.21807845302E+02  0.00000000000E+00 0. -1.
         -3   -1    0    0    0  501 -0.00000000000E+00 -0.00000000000E+00 -0.11558707837E+04  0.11558707837E+04  0.00000000000E+00 0.  1.
          5    1    1    2  502    0 -0.78782078332E+00  0.36119282666E+02 -0.17822562346E+03  0.18191120389E+03  0.47000000000E+01 0.  1.
         -5    1    1    2    0  502  0.11885284257E+03 -0.61720421005E+02 -0.39732881789E+03  0.41931812277E+03  0.47000000000E+01 0.  1.
        -11    1    1    2    0    0 -0.35942650992E+02  0.45492901279E+02 -0.21170691606E+03  0.21950238389E+03  0.00000000000E+00 0.  1.
         11    1    1    2    0    0 -0.82122370795E+02 -0.19891762940E+02 -0.34680158101E+03  0.35694691847E+03  0.00000000000E+00 0. -1.
<mgrwt>
<rscale>  0 0.16545491E+03</rscale>
<asrwt>0</asrwt>
<pdfrwt beam="1">  1        3 0.33550528E-02 0.17382114E+03</pdfrwt>
<pdfrwt beam="2">  1       -3 0.17782629E+00 0.17382114E+03</pdfrwt>
<totfact> 0.22739628E+02</totfact>
</mgrwt>
</event>
<event>
 6    1  0.4705246E-006  0.1480703E+03  0.7546771E-02  0.1212637E+00
         -1   -1    0    0    0  501 -0.00000000000E+00  0.00000000000E+00  0.18949440990E+03  0.18949440990E+03  0.00000000000E+00 0.  1.
          1   -1    0    0  501    0  0.00000000000E+00 -0.00000000000E+00 -0.19442182357E+03  0.19442182357E+03  0.00000000000E+00 0. -1.
          5    1    1    2  502    0  0.49899276210E+02  0.74797360012E+02 -0.11187592015E+03  0.14360673501E+03  0.47000000000E+01 0. -1.
         -5    1    1    2    0  502  0.24365598964E+02 -0.46931972262E+02 -0.27708723431E+02  0.59884520432E+02  0.47000000000E+01 0. -1.
        -11    1    1    2    0    0 -0.65574149975E+02 -0.51769222114E+02  0.63740569216E+02  0.10508511630E+03  0.00000000000E+00 0. -1.
         11    1    1    2    0    0 -0.86907251984E+01  0.23903834365E+02  0.70916660690E+02  0.75339861729E+02  0.00000000000E+00 0.  1.
<mgrwt>
<rscale>  0 0.14051540E+03</rscale>
<asrwt>0</asrwt>
<pdfrwt beam="2">  1        1 0.29911050E-01 0.14807032E+03</pdfrwt>
<pdfrwt beam="1">  1       -1 0.29152986E-01 0.14807032E+03</pdfrwt>
<totfact> 0.16045030E+03</totfact>
</mgrwt>
</event>
<event>
 6    1  0.4705246E-006  0.1654351E+03  0.7546771E-02  0.1189720E+00
          1   -1    0    0  501    0  0.00000000000E+00  0.00000000000E+00  0.20635580726E+03  0.20635580726E+03  0.00000000000E+00 0. -1.
         -1   -1    0    0    0  501 -0.00000000000E+00 -0.00000000000E+00 -0.11633555674E+03  0.11633555674E+03  0.00000000000E+00 0.  1.
          5    1    1    2  502    0 -0.80479028281E+02  0.94694864912E+02  0.21743308685E+02  0.12624916992E+03  0.47000000000E+01 0. -1.
         -5    1    1    2    0  502  0.42485342026E+00 -0.21630528017E+02  0.48821467962E+02  0.53606771742E+02  0.47000000000E+01 0. -1.
        -11    1    1    2    0    0  0.13608770676E+02  0.26800980824E-01 -0.29576011992E+02  0.32556717324E+02  0.00000000000E+00 0.  1.
         11    1    1    2    0    0  0.66445404184E+02 -0.73091137876E+02  0.49031485868E+02  0.11027870501E+03  0.00000000000E+00 0. -1.
<mgrwt>
<rscale>  0 0.15909740E+03</rscale>
<asrwt>0</asrwt>
<pdfrwt beam="1">  1        1 0.31747047E-01 0.16543510E+03</pdfrwt>
<pdfrwt beam="2">  1       -1 0.17897778E-01 0.16543510E+03</pdfrwt>
<totfact> 0.33200368E+03</totfact>
</mgrwt>
</event>
<event>
 6    1  0.4705246E-006  0.2873847E+03  0.7546771E-02  0.1093533E+00
         -2   -1    0    0    0  501 -0.00000000000E+00  0.00000000000E+00  0.62107048939E+02  0.62107048939E+02  0.00000000000E+00 0.  1.
          2   -1    0    0  501    0  0.00000000000E+00 -0.00000000000E+00 -0.36083865175E+04  0.36083865175E+04  0.00000000000E+00 0. -1.
          5    1    1    2  502    0 -0.10104692211E+03  0.19479335606E+03 -0.30542277696E+04  0.30621045526E+04  0.47000000000E+01 0. -1.
         -5    1    1    2    0  502  0.30068345236E+01  0.44692646779E+02 -0.21142824866E+03  0.21617231104E+03  0.47000000000E+01 0. -1.
        -11    1    1    2    0    0  0.89622468967E+02 -0.10021780747E+03 -0.14133502600E+03  0.19506764328E+03  0.00000000000E+00 0. -1.
         11    1    1    2    0    0  0.84176186214E+01 -0.13926819537E+03 -0.13928842422E+03  0.19714905951E+03  0.00000000000E+00 0.  1.
<mgrwt>
<rscale>  0 0.28398242E+03</rscale>
<asrwt>0</asrwt>
<pdfrwt beam="2">  1        2 0.55513636E+00 0.28738470E+03</pdfrwt>
<pdfrwt beam="1">  1       -2 0.95549310E-02 0.28738470E+03</pdfrwt>
<totfact> 0.60920357E+01</totfact>
</mgrwt>
</event>
<event>
 6    1  0.4705246E-006  0.3027605E+03  0.7546771E-02  0.1083869E+00
         -1   -1    0    0    0  501 -0.00000000000E+00  0.00000000000E+00  0.41555319599E+02  0.41555319599E+02  0.00000000000E+00 0.  1.
          1   -1    0    0  501    0  0.00000000000E+00 -0.00000000000E+00 -0.55145718990E+03  0.55145718990E+03  0.00000000000E+00 0. -1.
          5    1    1    2  502    0  0.20084585715E+02 -0.42308209439E+02 -0.15565581805E+03  0.16261672380E+03  0.47000000000E+01 0.  1.
         -5    1    1    2    0  502  0.64121502588E+02  0.83797575866E+02 -0.21018715672E+03  0.23523250555E+03  0.47000000000E+01 0.  1.
        -11    1    1    2    0    0 -0.39906329673E+02 -0.28115421317E+02 -0.14051528755E+03  0.14875327929E+03  0.00000000000E+00 0. -1.
         11    1    1    2    0    0 -0.44299758629E+02 -0.13373945110E+02 -0.35436079854E+01  0.46410000862E+02  0.00000000000E+00 0.  1.
<mgrwt>
<rscale>  0 0.30276050E+03</rscale>
<asrwt>0</asrwt>
<pdfrwt beam="2">  1        1 0.84839569E-01 0.30276050E+03</pdfrwt>
<pdfrwt beam="1">  1       -1 0.63931260E-02 0.30276050E+03</pdfrwt>
<totfact> 0.47945055E+03</totfact>
</mgrwt>
</event>
<event>
 6    1  0.4705246E-006  0.1655441E+03  0.7546771E-02  0.1189481E+00
         -2   -1    0    0    0  501 -0.00000000000E+00  0.00000000000E+00  0.40695220445E+02  0.40695220445E+02  0.00000000000E+00 0.  1.
          2   -1    0    0  501    0  0.00000000000E+00 -0.00000000000E+00 -0.58123070967E+03  0.58123070967E+03  0.00000000000E+00 0. -1.
          5    1    1    2  502    0 -0.31449396560E+02  0.20865486824E+02 -0.90089263072E+02  0.97788539232E+02  0.47000000000E+01 0.  1.
         -5    1    1    2    0  502  0.11622271371E+03  0.46914620764E+02 -0.19391141052E+03  0.23093814314E+03  0.47000000000E+01 0.  1.
        -11    1    1    2    0    0  0.10918199884E+02 -0.41151320087E+02 -0.72855672956E+02  0.84383572545E+02  0.00000000000E+00 0.  1.
         11    1    1    2    0    0 -0.95691517035E+02 -0.26628787500E+02 -0.18367914267E+03  0.20881567520E+03  0.00000000000E+00 0. -1.
<mgrwt>
<rscale>  0 0.15930705E+03</rscale>
<asrwt>0</asrwt>
<pdfrwt beam="2">  1        2 0.89420110E-01 0.16554410E+03</pdfrwt>
<pdfrwt beam="1">  1       -2 0.62608031E-02 0.16554410E+03</pdfrwt>
<totfact> 0.70487090E+03</totfact>
</mgrwt>
</event>
<event>
 6    1  0.4705246E-006  0.1307925E+03  0.7546771E-02  0.1235786E+00
         -2   -1    0    0    0  501 -0.00000000000E+00  0.00000000000E+00  0.38957674077E+02  0.38957674077E+02  0.00000000000E+00 0.  1.
          2   -1    0    0  501    0  0.00000000000E+00 -0.00000000000E+00 -0.46159475382E+03  0.46159475382E+03  0.00000000000E+00 0. -1.
          5    1    1    2  502    0 -0.17851814176E+02  0.59106891399E+02 -0.33581925383E+03  0.34148056038E+03  0.47000000000E+01 0.  1.
         -5    1    1    2    0  502  0.87341036081E+01 -0.21712803738E+02 -0.61544929498E+01  0.24651535357E+02  0.47000000000E+01 0.  1.
        -11    1    1    2    0    0 -0.30092536302E+02  0.21214275950E+02 -0.31549975070E+02  0.48487185648E+02  0.00000000000E+00 0.  1.
         11    1    1    2    0    0  0.39210246870E+02 -0.58608363611E+02 -0.49113357900E+02  0.85933146509E+02  0.00000000000E+00 0. -1.
<mgrwt>
<rscale>  0 0.12454243E+03</rscale>
<asrwt>0</asrwt>
<pdfrwt beam="2">  1        2 0.71014575E-01 0.13079246E+03</pdfrwt>
<pdfrwt beam="1">  1       -2 0.59934885E-02 0.13079246E+03</pdfrwt>
<totfact> 0.95859695E+03</totfact>
</mgrwt>
</event>
<event>
 6    1  0.4705246E-006  0.3427392E+03  0.7546771E-02  0.1065635E+00
          3   -1    0    0  501    0  0.00000000000E+00  0.00000000000E+00  0.25334190227E+03  0.25334190227E+03  0.00000000000E+00 0. -1.
         -3   -1    0    0    0  501 -0.00000000000E+00 -0.00000000000E+00 -0.11592056282E+03  0.11592056282E+03  0.00000000000E+00 0.  1.
          5    1    1    2  502    0  0.22019125254E+01 -0.29915832438E+01 -0.21596903310E+02  0.22412367604E+02  0.47000000000E+01 0.  1.
         -5    1    1    2    0  502  0.75012134629E+02 -0.70781363330E+02  0.17093508808E+03  0.19969405618E+03  0.47000000000E+01 0.  1.
        -11    1    1    2    0    0 -0.91114255949E+02  0.36525771515E+02  0.14777833488E+02  0.99268947735E+02  0.00000000000E+00 0.  1.
         11    1    1    2    0    0  0.13900208794E+02  0.37247175059E+02 -0.26694678805E+02  0.47887093574E+02  0.00000000000E+00 0. -1.
<mgrwt>
<rscale>  0 0.34273918E+03</rscale>
<asrwt>0</asrwt>
<pdfrwt beam="1">  1        3 0.38975677E-01 0.34273918E+03</pdfrwt>
<pdfrwt beam="2">  1       -3 0.17833933E-01 0.34273918E+03</pdfrwt>
<totfact> 0.46439599E+02</totfact>
</mgrwt>
</event>
<event>
 6    1  0.4705246E-006  0.1691522E+03  0.7546771E-02  0.1185820E+00
          1   -1    0    0  501    0  0.00000000000E+00  0.00000000000E+00  0.21958419525E+03  0.21958419525E+03  0.00000000000E+00 0. -1.
         -1   -1    0    0    0  501 -0.00000000000E+00 -0.00000000000E+00 -0.11372391027E+03  0.11372391027E+03  0.00000000000E+00 0.  1.
          5    1    1    2  502    0  0.12745788600E+03  0.56105864900E+02  0.78098189276E+02  0.15973352168E+03  0.47000000000E+01 0. -1.
         -5    1    1    2    0  502 -0.25766563281E+02 -0.46683283600E+01  0.64500920069E-01  0.26604571663E+02  0.47000000000E+01 0. -1.
        -11    1    1    2    0    0 -0.11304448991E+03 -0.25304842032E+02  0.21914639457E+02  0.11789674784E+03  0.00000000000E+00 0.  1.
         11    1    1    2    0    0  0.11353167185E+02 -0.26132694508E+02  0.57829553256E+01  0.29073264345E+02  0.00000000000E+00 0. -1.
<mgrwt>
<rscale>  0 0.16257447E+03</rscale>
<asrwt>0</asrwt>
<pdfrwt beam="1">  1        1 0.33782184E-01 0.16915224E+03</pdfrwt>
<pdfrwt beam="2">  1       -1 0.17495986E-01 0.16915224E+03</pdfrwt>
<totfact> 0.31887873E+03</totfact>
</mgrwt>
</event>
<event>
 6    1  0.4705246E-006  0.3680908E+03  0.7546771E-02  0.1055425E+00
         -2   -1    0    0    0  501 -0.00000000000E+00  0.00000000000E+00  0.48620781782E+02  0.48620781782E+02  0.00000000000E+00 0.  1.
          2   -1    0    0  501    0  0.00000000000E+00 -0.00000000000E+00 -0.69667158910E+03  0.69667158910E+03  0.00000000000E+00 0. -1.
          5    1    1    2  502    0  0.75078773320E+01 -0.29843370850E+02 -0.53606791117E+02  0.61990104530E+02  0.47000000000E+01 0. -1.
         -5    1    1    2    0  502  0.89650097644E+02  0.11378068958E+03 -0.42800479875E+03  0.45187761959E+03  0.47000000000E+01 0. -1.
        -11    1    1    2    0    0 -0.18192910463E+02 -0.61709378545E+02 -0.27268231729E+02  0.69875502525E+02  0.00000000000E+00 0.  1.
         11    1    1    2    0    0 -0.78965064513E+02 -0.22227940186E+02 -0.13917098572E+03  0.16154914424E+03  0.00000000000E+00 0. -1.
<mgrwt>
<rscale>  0 0.36809084E+03</rscale>
<asrwt>0</asrwt>
<pdfrwt beam="2">  1        2 0.10718025E+00 0.36809084E+03</pdfrwt>
<pdfrwt beam="1">  1       -2 0.74801200E-02 0.36809084E+03</pdfrwt>
<totfact> 0.44540758E+03</totfact>
</mgrwt>
</event>
<event>
 6    1  0.4705246E-006  0.1590112E+03  0.7546771E-02  0.1200910E+00
         -1   -1    0    0    0  501 -0.00000000000E+00  0.00000000000E+00  0.43806424441E+02  0.43806424441E+02  0.00000000000E+00 0.  1.
          1   -1    0    0  501    0  0.00000000000E+00 -0.00000000000E+00 -0.51452556359E+03  0.51452556359E+03  0.00000000000E+00 0. -1.
          5    1    1    2  502    0 -0.57178542896E+02  0.44048533060E+02 -0.82388853440E+02  0.10963426565E+03  0.47000000000E+01 0. -1.
         -5    1    1    2    0  502  0.34181407665E+02  0.51508643365E+02 -0.26910080329E+03  0.27615003404E+03  0.47000000000E+01 0. -1.
        -11    1    1    2    0    0 -0.86740820966E+00 -0.60444622639E+02 -0.11495210012E+03  0.12987798168E+03  0.00000000000E+00 0. -1.
         11    1    1    2    0    0  0.23864543441E+02 -0.35112553786E+02 -0.42773822947E+01  0.42669706659E+02  0.00000000000E+00 0.  1.
<mgrwt>
<rscale>  0 0.14964477E+03</rscale>
<asrwt>0</asrwt>
<pdfrwt beam="2">  1        1 0.79157779E-01 0.15901115E+03</pdfrwt>
<pdfrwt beam="1">  1       -1 0.67394499E-02 0.15901115E+03</pdfrwt>
<totfact> 0.47343983E+03</totfact>
</mgrwt>
</event>
<event>
 6    1  0.4705246E-006  0.1433629E+03  0.7546771E-02  0.1219121E+00
          2   -1    0    0  501    0  0.00000000000E+00  0.00000000000E+00  0.10676640449E+03  0.10676640449E+03  0.00000000000E+00 0. -1.
         -2   -1    0    0    0  501 -0.00000000000E+00 -0.00000000000E+00 -0.15843850184E+03  0.15843850184E+03  0.00000000000E+00 0.  1.
          5    1    1    2  502    0 -0.10174634658E+03 -0.12457299743E+02 -0.18055308426E+01  0.10262969015E+03  0.47000000000E+01 0.  1.
         -5    1    1    2    0  502  0.36606570577E+02 -0.13726946615E+02 -0.13132525467E+02  0.41509315797E+02  0.47000000000E+01 0.  1.
        -11    1    1    2    0    0  0.29628165545E+02  0.16219936558E+01  0.29603067599E+02  0.41914206043E+02  0.00000000000E+00 0. -1.
         11    1    1    2    0    0  0.35511610458E+02  0.24562252702E+02 -0.66337108630E+02  0.79151694338E+02  0.00000000000E+00 0.  1.
<mgrwt>
<rscale>  0 0.13578125E+03</rscale>
<asrwt>0</asrwt>
<pdfrwt beam="1">  1        2 0.16425601E-01 0.14336285E+03</pdfrwt>
<pdfrwt beam="2">  1       -2 0.24375154E-01 0.14336285E+03</pdfrwt>
<totfact> 0.49744663E+03</totfact>
</mgrwt>
</event>
<event>
 6    1  0.4705246E-006  0.1198445E+03  0.7546771E-02  0.1287265E+00
          2   -1    0    0  501    0  0.00000000000E+00  0.00000000000E+00  0.53370319808E+02  0.53370319808E+02  0.00000000000E+00 0. -1.
         -2   -1    0    0    0  501 -0.00000000000E+00 -0.00000000000E+00 -0.16087275975E+03  0.16087275975E+03  0.00000000000E+00 0.  1.
          5    1    1    2  502    0 -0.61313018575E+02 -0.33910397791E+02  0.99467430589E+01  0.70924107485E+02  0.47000000000E+01 0. -1.
         -5    1    1    2    0  502  0.18096835432E+02  0.24980030616E+02 -0.43491241824E+02  0.53526400006E+02  0.47000000000E+01 0.  1.
        -11    1    1    2    0    0  0.26920065463E+02  0.15710549400E+02 -0.34084743929E+02  0.46187455610E+02  0.00000000000E+00 0. -1.
         11    1    1    2    0    0  0.16296117680E+02 -0.67801822252E+01 -0.39873197252E+02  0.43605116461E+02  0.00000000000E+00 0.  1.
<mgrwt>
<rscale>  0 0.96758095E+02</rscale>
<asrwt>0</asrwt>
<pdfrwt beam="1">  1        2 0.82108185E-02 0.11984446E+03</pdfrwt>
<pdfrwt beam="2">  1       -2 0.24749655E-01 0.11984446E+03</pdfrwt>
<totfact> 0.11013027E+04</totfact>
</mgrwt>
</event>
<event>
 6    1  0.4705246E-006  0.3733814E+03  0.7546771E-02  0.1053407E+00
         -1   -1    0    0    0  501 -0.00000000000E+00  0.00000000000E+00  0.20942454554E+02  0.20942454554E+02  0.00000000000E+00 0.  1.
          1   -1    0    0  501    0  0.00000000000E+00 -0.00000000000E+00 -0.16642470531E+04  0.16642470531E+04  0.00000000000E+00 0. -1.
          5    1    1    2  502    0  0.36800926038E+02 -0.70318220608E+02 -0.13606722930E+04  0.13629930811E+04  0.47000000000E+01 0.  1.
         -5    1    1    2    0  502 -0.32395044253E+01 -0.20213071165E+02 -0.30008196346E+02  0.36628465471E+02  0.47000000000E+01 0.  1.
        -11    1    1    2    0    0 -0.50357357005E+02  0.40782683610E+02 -0.20385306922E+03  0.21390456872E+03  0.00000000000E+00 0. -1.
         11    1    1    2    0    0  0.16795935393E+02  0.49748608163E+02 -0.48771040007E+02  0.71663392351E+02  0.00000000000E+00 0.  1.
<mgrwt>
<rscale>  0 0.37338140E+03</rscale>
<asrwt>0</asrwt>
<pdfrwt beam="2">  1        1 0.25603799E+00 0.37338140E+03</pdfrwt>
<pdfrwt beam="1">  1       -1 0.32219164E-02 0.37338140E+03</pdfrwt>
<totfact> 0.18876236E+03</totfact>
</mgrwt>
</event>
<event>
 6    1  0.4705246E-006  0.3097862E+03  0.7546771E-02  0.1080448E+00
         -1   -1    0    0    0  501 -0.00000000000E+00  0.00000000000E+00  0.51687119629E+03  0.51687119629E+03  0.00000000000E+00 0.  1.
          1   -1    0    0  501    0  0.00000000000E+00 -0.00000000000E+00 -0.46417520390E+02  0.46417520390E+02  0.00000000000E+00 0. -1.
          5    1    1    2  502    0  0.86475494663E+01 -0.70729421589E+01  0.93854671215E+02  0.94634010437E+02  0.47000000000E+01 0.  1.
         -5    1    1    2    0  502 -0.33630973226E+02  0.65311201403E+02 -0.75236651187E+00  0.73615565230E+02  0.47000000000E+01 0.  1.
        -11    1    1    2    0    0  0.45512524106E+02 -0.72997492371E+02  0.33354802483E+03  0.34446234716E+03  0.00000000000E+00 0.  1.
         11    1    1    2    0    0 -0.20529100347E+02  0.14759233127E+02  0.43803346372E+02  0.50576793857E+02  0.00000000000E+00 0. -1.
<mgrwt>
<rscale>  0 0.30978624E+03</rscale>
<asrwt>0</asrwt>
<pdfrwt beam="2">  1        1 0.71411573E-02 0.30978624E+03</pdfrwt>
<pdfrwt beam="1">  1       -1 0.79518642E-01 0.30978624E+03</pdfrwt>
<totfact> 0.16811035E+03</totfact>
</mgrwt>
</event>
<event>
 6    1  0.4705246E-006  0.1260631E+03  0.7546771E-02  0.1247909E+00
         -1   -1    0    0    0  501 -0.00000000000E+00  0.00000000000E+00  0.64302102655E+02  0.64302102655E+02  0.00000000000E+00 0. -1.
          1   -1    0    0  501    0  0.00000000000E+00 -0.00000000000E+00 -0.22438598635E+03  0.22438598635E+03  0.00000000000E+00 0.  1.
          5    1    1    2  502    0  0.50723546943E+02 -0.53528675891E+01 -0.99896934282E+01  0.52186352437E+02  0.47000000000E+01 0.  1.
         -5    1    1    2    0  502 -0.34340109788E+02  0.47097187361E+01 -0.13729784843E+03  0.14168349859E+03  0.47000000000E+01 0.  1.
        -11    1    1    2    0    0  0.30634116138E+02  0.46688980080E+01  0.20419587961E+02  0.37110743089E+02  0.00000000000E+00 0. -1.
         11    1    1    2    0    0 -0.47017553292E+02 -0.40257491550E+01 -0.33215929807E+02  0.57707494893E+02  0.00000000000E+00 0.  1.
<mgrwt>
<rscale>  0 0.11712943E+03</rscale>
<asrwt>0</asrwt>
<pdfrwt beam="2">  1        1 0.34520921E-01 0.12606308E+03</pdfrwt>
<pdfrwt beam="1">  1       -1 0.98926312E-02 0.12606308E+03</pdfrwt>
<totfact> 0.74135400E+03</totfact>
</mgrwt>
</event>
<event>
 6    1  0.4705246E-006  0.1284441E+03  0.7546771E-02  0.1244983E+00
         -2   -1    0    0    0  501 -0.00000000000E+00  0.00000000000E+00  0.51766938398E+02  0.51766938398E+02  0.00000000000E+00 0.  1.
          2   -1    0    0  501    0  0.00000000000E+00 -0.00000000000E+00 -0.24518351520E+03  0.24518351520E+03  0.00000000000E+00 0. -1.
          5    1    1    2  502    0  0.20181065009E+01  0.15766804993E+02  0.22314956059E+02  0.27797700579E+02  0.47000000000E+01 0. -1.
         -5    1    1    2    0  502 -0.20362866529E+02  0.73862798892E+01 -0.15609606157E+03  0.15766189743E+03  0.47000000000E+01 0. -1.
        -11    1    1    2    0    0  0.48670668862E+02 -0.14621507328E+02 -0.86391311043E+01  0.51548589411E+02  0.00000000000E+00 0. -1.
         11    1    1    2    0    0 -0.30325908833E+02 -0.85315775542E+01 -0.50996340182E+02  0.59942266174E+02  0.00000000000E+00 0.  1.
<mgrwt>
<rscale>  0 0.11886373E+03</rscale>
<asrwt>0</asrwt>
<pdfrwt beam="2">  1        2 0.37720540E-01 0.12844407E+03</pdfrwt>
<pdfrwt beam="1">  1       -2 0.79641445E-02 0.12844407E+03</pdfrwt>
<totfact> 0.12152928E+04</totfact>
</mgrwt>
</event>
<event>
 6    1  0.4705246E-006  0.2719900E+03  0.7546771E-02  0.1100146E+00
          2   -1    0    0  501    0  0.00000000000E+00  0.00000000000E+00  0.21297215698E+04  0.21297215698E+04  0.00000000000E+00 0. -1.
         -2   -1    0    0    0  501 -0.00000000000E+00 -0.00000000000E+00 -0.86840643683E+01  0.86840643683E+01  0.00000000000E+00 0.  1.
          5    1    1    2  502    0 -0.13998240168E+02 -0.29219036924E+02  0.11671166566E+03  0.12121635924E+03  0.47000000000E+01 0.  1.
         -5    1    1    2    0  502  0.97799213754E+01  0.50416827613E+01  0.16649752442E+04  0.16650182339E+04  0.47000000000E+01 0.  1.
        -11    1    1    2    0    0 -0.36201068908E+02  0.40163021170E+01  0.68515065417E+02  0.77594859764E+02  0.00000000000E+00 0.  1.
         11    1    1    2    0    0  0.40419387700E+02  0.20161052046E+02  0.27083553018E+03  0.27457618128E+03  0.00000000000E+00 0. -1.
<mgrwt>
<rscale>  0 0.27198999E+03</rscale>
<asrwt>0</asrwt>
<pdfrwt beam="1">  1        2 0.32764906E+00 0.27198999E+03</pdfrwt>
<pdfrwt beam="2">  1       -2 0.13360116E-02 0.27198999E+03</pdfrwt>
<totfact> 0.88671770E+03</totfact>
</mgrwt>
</event>
<event>
 6    1  0.4705246E-006  0.1265269E+03  0.7546771E-02  0.1248260E+00
          1   -1    0    0  501    0  0.00000000000E+00  0.00000000000E+00  0.67114082557E+02  0.67114082557E+02  0.00000000000E+00 0. -1.
         -1   -1    0    0    0  501 -0.00000000000E+00 -0.00000000000E+00 -0.17872801897E+03  0.17872801897E+03  0.00000000000E+00 0.  1.
          5    1    1    2  502    0  0.44143781097E+02 -0.24707432016E+02 -0.56771544600E+01  0.51121919850E+02  0.47000000000E+01 0. -1.
         -5    1    1    2    0  502 -0.52762505326E+02  0.42231645112E+02 -0.64615191054E+02  0.93619478380E+02  0.47000000000E+01 0. -1.
        -11    1    1    2    0    0  0.48875696221E+02 -0.16431753837E+02 -0.18311549301E+02  0.54718818089E+02  0.00000000000E+00 0. -1.
         11    1    1    2    0    0 -0.40256971992E+02 -0.10924592586E+01 -0.23010041601E+02  0.46381885210E+02  0.00000000000E+00 0.  1.
<mgrwt>
<rscale>  0 0.11692385E+03</rscale>
<asrwt>0</asrwt>
<pdfrwt beam="1">  1        1 0.10325243E-01 0.12652691E+03</pdfrwt>
<pdfrwt beam="2">  1       -1 0.27496618E-01 0.12652691E+03</pdfrwt>
<totfact> 0.68636795E+03</totfact>
</mgrwt>
</event>
<event>
 6    1  0.4705246E-006  0.2830428E+03  0.7546771E-02  0.1094039E+00
          2   -1    0    0  501    0  0.00000000000E+00  0.00000000000E+00  0.58662367845E+03  0.58662367845E+03  0.00000000000E+00 0. -1.
         -2   -1    0    0    0  501 -0.00000000000E+00 -0.00000000000E+00 -0.34141654971E+02  0.34141654971E+02  0.00000000000E+00 0.  1.
          5    1    1    2  502    0  0.29823922210E+02  0.16974189673E+02  0.24903740893E+03  0.25143450538E+03  0.47000000000E+01 0.  1.
         -5    1    1    2    0  502 -0.62382049421E+02 -0.61585111067E+02  0.21277939828E+03  0.23017690659E+03  0.47000000000E+01 0.  1.
        -11    1    1    2    0    0 -0.17724188269E+02  0.51654942695E+02  0.42931408821E+02  0.69465716853E+02  0.00000000000E+00 0.  1.
         11    1    1    2    0    0  0.50282315480E+02 -0.70440213009E+01  0.47733807454E+02  0.69688204599E+02  0.00000000000E+00 0. -1.
<mgrwt>
<rscale>  0 0.28304278E+03</rscale>
<asrwt>0</asrwt>
<pdfrwt beam="1">  1        2 0.90249789E-01 0.28304278E+03</pdfrwt>
<pdfrwt beam="2">  1       -2 0.52525627E-02 0.28304278E+03</pdfrwt>
<totfact> 0.93754366E+03</totfact>
</mgrwt>
</event>
<event>
 6    1  0.4705246E-006  0.1311536E+03  0.7546771E-02  0.1239480E+00
         -1   -1    0    0    0  501 -0.00000000000E+00  0.00000000000E+00  0.22229867683E+02  0.22229867683E+02  0.00000000000E+00 0.  1.
          1   -1    0    0  501    0  0.00000000000E+00 -0.00000000000E+00 -0.60740424634E+03  0.60740424634E+03  0.00000000000E+00 0. -1.
          5    1    1    2  502    0 -0.37968198424E+02 -0.39681027936E+02 -0.35434276557E+03  0.35860431339E+03  0.47000000000E+01 0. -1.
         -5    1    1    2    0  502 -0.12250960177E+01  0.33247910676E+02 -0.22575503990E+02  0.40480462016E+02  0.47000000000E+01 0. -1.
        -11    1    1    2    0    0  0.65837833710E+02  0.45934025906E+01 -0.10603313422E+03  0.12489493684E+03  0.00000000000E+00 0.  1.
         11    1    1    2    0    0 -0.26644539268E+02  0.18397146694E+01 -0.10222297488E+03  0.10565440178E+03  0.00000000000E+00 0. -1.
<mgrwt>
<rscale>  0 0.12221960E+03</rscale>
<asrwt>0</asrwt>
<pdfrwt beam="2">  1        1 0.93446802E-01 0.13115364E+03</pdfrwt>
<pdfrwt beam="1">  1       -1 0.34199798E-02 0.13115364E+03</pdfrwt>
<totfact> 0.10230668E+04</totfact>
</mgrwt>
</event>
<event>
 6    1  0.4705246E-006  0.2911767E+03  0.7546771E-02  0.1089736E+00
         -1   -1    0    0    0  501 -0.00000000000E+00  0.00000000000E+00  0.12154306875E+03  0.12154306875E+03  0.00000000000E+00 0.  1.
          1   -1    0    0  501    0  0.00000000000E+00 -0.00000000000E+00 -0.17439062580E+03  0.17439062580E+03  0.00000000000E+00 0. -1.
          5    1    1    2  502    0 -0.24006828847E+02  0.31255493338E+02  0.11702871977E+02  0.41379716137E+02  0.47000000000E+01 0.  1.
         -5    1    1    2    0  502  0.10300195569E+03  0.20399336721E+02 -0.67379950146E+02  0.12485064476E+03  0.47000000000E+01 0.  1.
        -11    1    1    2    0    0 -0.31328597684E+02 -0.34512230645E+02  0.44249384671E+02  0.64269612887E+02  0.00000000000E+00 0.  1.
         11    1    1    2    0    0 -0.47666529161E+02 -0.17142599414E+02 -0.41419863546E+02  0.65433720765E+02  0.00000000000E+00 0. -1.
<mgrwt>
<rscale>  0 0.29117673E+03</rscale>
<asrwt>0</asrwt>
<pdfrwt beam="2">  1        1 0.26829327E-01 0.29117673E+03</pdfrwt>
<pdfrwt beam="1">  1       -1 0.18698934E-01 0.29117673E+03</pdfrwt>
<totfact> 0.39194541E+03</totfact>
</mgrwt>
</event>
<event>
 6    1  0.4705246E-006  0.3414341E+03  0.7546771E-02  0.1066187E+00
          2   -1    0    0  501    0  0.00000000000E+00  0.00000000000E+00  0.16282213765E+03  0.16282213765E+03  0.00000000000E+00 0.  1.
         -2   -1    0    0    0  501 -0.00000000000E+00 -0.00000000000E+00 -0.17899479444E+03  0.17899479444E+03  0.00000000000E+00 0. -1.
          5    1    1    2  502    0 -0.12111610126E+02  0.24200552694E+02 -0.65081812318E+01  0.28227721720E+02  0.47000000000E+01 0. -1.
         -5    1    1    2    0  502  0.12201960824E+03 -0.89200713234E+02 -0.33848678277E+02  0.15496249565E+03  0.47000000000E+01 0. -1.
        -11    1    1    2    0    0 -0.95468955236E+02  0.31378012874E+02  0.51540732444E+02  0.11293957768E+03  0.00000000000E+00 0.  1.
         11    1    1    2    0    0 -0.14439042873E+02  0.33622147667E+02 -0.27356529725E+02  0.45687137045E+02  0.00000000000E+00 0. -1.
<mgrwt>
<rscale>  0 0.34143412E+03</rscale>
<asrwt>0</asrwt>
<pdfrwt beam="1">  1        2 0.25049560E-01 0.34143412E+03</pdfrwt>
<pdfrwt beam="2">  1       -2 0.27537661E-01 0.34143412E+03</pdfrwt>
<totfact> 0.25744754E+03</totfact>
</mgrwt>
</event>
<event>
 6    1  0.4705246E-006  0.1305383E+03  0.7546771E-02  0.1239857E+00
          2   -1    0    0  501    0  0.00000000000E+00  0.00000000000E+00  0.49794339309E+03  0.49794339309E+03  0.00000000000E+00 0. -1.
         -2   -1    0    0    0  501 -0.00000000000E+00 -0.00000000000E+00 -0.32559261412E+02  0.32559261412E+02  0.00000000000E+00 0.  1.
          5    1    1    2  502    0  0.14793095888E+02  0.45520460572E+02  0.14091647065E+03  0.14889758130E+03  0.47000000000E+01 0.  1.
         -5    1    1    2    0  502 -0.58877485213E+01 -0.82068287321E+02  0.23019870572E+03  0.24450644876E+03  0.47000000000E+01 0.  1.
        -11    1    1    2    0    0  0.75101533815E+01 -0.15106799492E+02  0.79010442937E+02  0.80791508761E+02  0.00000000000E+00 0. -1.
         11    1    1    2    0    0 -0.16415500748E+02  0.51654626242E+02  0.15258512364E+02  0.56307115683E+02  0.00000000000E+00 0.  1.
<mgrwt>
<rscale>  0 0.12198585E+03</rscale>
<asrwt>0</asrwt>
<pdfrwt beam="1">  1        2 0.76606670E-01 0.13053833E+03</pdfrwt>
<pdfrwt beam="2">  1       -2 0.50091175E-02 0.13053833E+03</pdfrwt>
<totfact> 0.11564928E+04</totfact>
</mgrwt>
</event>
<event>
 6    1  0.4705246E-006  0.2249564E+03  0.7546771E-02  0.1133411E+00
          2   -1    0    0  501    0  0.00000000000E+00  0.00000000000E+00  0.11448401137E+04  0.11448401137E+04  0.00000000000E+00 0. -1.
         -2   -1    0    0    0  501 -0.00000000000E+00 -0.00000000000E+00 -0.41375816212E+02  0.41375816212E+02  0.00000000000E+00 0.  1.
          5    1    1    2  502    0  0.42954869077E+02 -0.12388548059E+03  0.26454198754E+03  0.29529186621E+03  0.47000000000E+01 0.  1.
         -5    1    1    2    0  502 -0.67908800438E+02 -0.61469159476E+02  0.24924220383E+03  0.26558205683E+03  0.47000000000E+01 0.  1.
        -11    1    1    2    0    0  0.31473340090E+02  0.12942990772E+03  0.51421771991E+03  0.53118973599E+03  0.00000000000E+00 0. -1.
         11    1    1    2    0    0 -0.65194087290E+01  0.55924732347E+02  0.75462386194E+02  0.94152270861E+02  0.00000000000E+00 0.  1.
<mgrwt>
<rscale>  0 0.22063392E+03</rscale>
<asrwt>0</asrwt>
<pdfrwt beam="1">  1        2 0.17612922E+00 0.22495636E+03</pdfrwt>
<pdfrwt beam="2">  1       -2 0.63655111E-02 0.22495636E+03</pdfrwt>
<totfact> 0.28952649E+03</totfact>
</mgrwt>
</event>
<event>
 6    1  0.4705246E-006  0.1315744E+03  0.7546771E-02  0.1238102E+00
          2   -1    0    0  501    0  0.00000000000E+00  0.00000000000E+00  0.31867724278E+03  0.31867724278E+03  0.00000000000E+00 0. -1.
         -2   -1    0    0    0  501 -0.00000000000E+00 -0.00000000000E+00 -0.43250399878E+02  0.43250399878E+02  0.00000000000E+00 0.  1.
          5    1    1    2  502    0  0.76890156327E+02 -0.30754241962E+02  0.15010095806E+03  0.17149433562E+03  0.47000000000E+01 0.  1.
         -5    1    1    2    0  502 -0.37550362695E+02  0.18964573955E+02  0.31510552634E+02  0.52770159476E+02  0.47000000000E+01 0.  1.
        -11    1    1    2    0    0  0.10176143883E+02  0.15658973127E+02 -0.11001390750E+02  0.21674592087E+02  0.00000000000E+00 0.  1.
         11    1    1    2    0    0 -0.49515937515E+02 -0.38693051204E+01  0.10481672296E+03  0.11598855548E+03  0.00000000000E+00 0. -1.
<mgrwt>
<rscale>  0 0.12307954E+03</rscale>
<asrwt>0</asrwt>
<pdfrwt beam="1">  1        2 0.49027266E-01 0.13157440E+03</pdfrwt>
<pdfrwt beam="2">  1       -2 0.66539079E-02 0.13157440E+03</pdfrwt>
<totfact> 0.12149313E+04</totfact>
</mgrwt>
</event>
<event>
 6    1  0.4705246E-006  0.1967044E+03  0.7546771E-02  0.1157073E+00
         -2   -1    0    0    0  501 -0.00000000000E+00  0.00000000000E+00  0.11904545683E+03  0.11904545683E+03  0.00000000000E+00 0.  1.
          2   -1    0    0  501    0  0.00000000000E+00 -0.00000000000E+00 -0.31612520427E+03  0.31612520427E+03  0.00000000000E+00 0. -1.
          5    1    1    2  502    0 -0.14574525937E+03 -0.43510122032E+02 -0.14824381219E+03  0.21244559115E+03  0.47000000000E+01 0.  1.
         -5    1    1    2    0  502  0.16493656098E+02 -0.36253529960E+02 -0.13814221373E+02  0.42417942409E+02  0.47000000000E+01 0.  1.
        -11    1    1    2    0    0  0.11081093559E+03  0.76018049732E+02  0.66916740619E+01  0.13454585030E+03  0.00000000000E+00 0.  1.
         11    1    1    2    0    0  0.18440667681E+02  0.37456022595E+01 -0.41713387945E+02  0.45761277240E+02  0.00000000000E+00 0. -1.
<mgrwt>
<rscale>  0 0.19154731E+03</rscale>
<asrwt>0</asrwt>
<pdfrwt beam="2">  1        2 0.48634647E-01 0.19670438E+03</pdfrwt>
<pdfrwt beam="1">  1       -2 0.18314686E-01 0.19670438E+03</pdfrwt>
<totfact> 0.24908898E+03</totfact>
</mgrwt>
</event>
<event>
 6    1  0.4705246E-006  0.1260984E+03  0.7546771E-02  0.1263927E+00
         -1   -1    0    0    0  501 -0.00000000000E+00  0.00000000000E+00  0.17537397498E+02  0.17537397498E+02  0.00000000000E+00 0.  1.
          1   -1    0    0  501    0  0.00000000000E+00 -0.00000000000E+00 -0.56161398857E+03  0.56161398857E+03  0.00000000000E+00 0. -1.
          5    1    1    2  502    0 -0.10217036128E+02 -0.51607409870E+02 -0.30260862501E+03  0.30718362995E+03  0.47000000000E+01 0.  1.
         -5    1    1    2    0  502  0.26716891937E+02  0.49673421756E+02 -0.10238939812E+03  0.11699111074E+03  0.47000000000E+01 0.  1.
        -11    1    1    2    0    0 -0.71614722477E+01  0.33569251356E+02 -0.57266936329E+02  0.66765884386E+02  0.00000000000E+00 0.  1.
         11    1    1    2    0    0 -0.93383835613E+01 -0.31635263241E+02 -0.81811631607E+02  0.88210760988E+02  0.00000000000E+00 0. -1.
<mgrwt>
<rscale>  0 0.10820664E+03</rscale>
<asrwt>0</asrwt>
<pdfrwt beam="2">  1        1 0.86402150E-01 0.12609842E+03</pdfrwt>
<pdfrwt beam="1">  1       -1 0.26980612E-02 0.12609842E+03</pdfrwt>
<totfact> 0.16006516E+04</totfact>
</mgrwt>
</event>
<event>
 6    1  0.4705246E-006  0.2475064E+03  0.7546771E-02  0.1114891E+00
         -2   -1    0    0    0  501 -0.00000000000E+00  0.00000000000E+00  0.16880001715E+03  0.16880001715E+03  0.00000000000E+00 0.  1.
          2   -1    0    0  501    0  0.00000000000E+00 -0.00000000000E+00 -0.90727771593E+02  0.90727771593E+02  0.00000000000E+00 0. -1.
          5    1    1    2  502    0 -0.20960609393E+01  0.92361254629E+01 -0.28859819214E+02  0.30735625097E+02  0.47000000000E+01 0. -1.
         -5    1    1    2    0  502  0.34592198368E+02 -0.28292960589E+02  0.12095999396E+03  0.12903690149E+03  0.47000000000E+01 0. -1.
        -11    1    1    2    0    0 -0.13227177898E+02 -0.37002697684E+02 -0.25728427095E+01  0.39379911003E+02  0.00000000000E+00 0.  1.
         11    1    1    2    0    0 -0.19268959531E+02  0.56059532810E+02 -0.11455086484E+02  0.60375351151E+02  0.00000000000E+00 0. -1.
<mgrwt>
<rscale>  0 0.24750636E+03</rscale>
<asrwt>0</asrwt>
<pdfrwt beam="2">  1        2 0.13958119E-01 0.24750636E+03</pdfrwt>
<pdfrwt beam="1">  1       -2 0.25969233E-01 0.24750636E+03</pdfrwt>
<totfact> 0.55714951E+03</totfact>
</mgrwt>
</event>
<event>
 6    1  0.4705246E-006  0.1316459E+03  0.7546771E-02  0.1235563E+00
          2   -1    0    0  501    0  0.00000000000E+00  0.00000000000E+00  0.57465102510E+03  0.57465102510E+03  0.00000000000E+00 0. -1.
         -2   -1    0    0    0  501 -0.00000000000E+00 -0.00000000000E+00 -0.25969933475E+02  0.25969933475E+02  0.00000000000E+00 0.  1.
          5    1    1    2  502    0 -0.45273431561E+02  0.91060538390E+01  0.60697149139E+02  0.76412287856E+02  0.47000000000E+01 0. -1.
         -5    1    1    2    0  502  0.42256842358E+02 -0.50279793889E+02  0.31141660163E+03  0.31830188213E+03  0.47000000000E+01 0. -1.
        -11    1    1    2    0    0  0.44719136047E+02  0.45044015630E+02  0.95667692065E+02  0.11480884887E+03  0.00000000000E+00 0. -1.
         11    1    1    2    0    0 -0.41702546845E+02 -0.38702755795E+01  0.80899648796E+02  0.91097939722E+02  0.00000000000E+00 0.  1.
<mgrwt>
<rscale>  0 0.12468441E+03</rscale>
<asrwt>0</asrwt>
<pdfrwt beam="1">  1        2 0.88407840E-01 0.13164586E+03</pdfrwt>
<pdfrwt beam="2">  1       -2 0.39953748E-02 0.13164586E+03</pdfrwt>
<totfact> 0.13833157E+04</totfact>
</mgrwt>
</event>
<event>
 6    1  0.4705246E-006  0.2967538E+03  0.7546771E-02  0.1086875E+00
          1   -1    0    0  501    0  0.00000000000E+00  0.00000000000E+00  0.23861501519E+02  0.23861501519E+02  0.00000000000E+00 0. -1.
         -1   -1    0    0    0  501 -0.00000000000E+00 -0.00000000000E+00 -0.92264511072E+03  0.92264511072E+03  0.00000000000E+00 0.  1.
          5    1    1    2  502    0  0.73025259696E+02  0.10191843785E+03 -0.29215392270E+03  0.31795606783E+03  0.47000000000E+01 0. -1.
         -5    1    1    2    0  502 -0.25902885235E+02 -0.14458115860E+02 -0.12897136806E+03  0.13242243147E+03  0.47000000000E+01 0. -1.
        -11    1    1    2    0    0  0.17134962411E+02 -0.45016501435E+02 -0.27782745286E+03  0.28197195942E+03  0.00000000000E+00 0.  1.
         11    1    1    2    0    0 -0.64257336873E+02 -0.42443820551E+02 -0.19983086559E+03  0.21415615351E+03  0.00000000000E+00 0. -1.
<mgrwt>
<rscale>  0 0.29675375E+03</rscale>
<asrwt>0</asrwt>
<pdfrwt beam="1">  1        1 0.36710003E-02 0.29675375E+03</pdfrwt>
<pdfrwt beam="2">  1       -1 0.14194540E+00 0.29675375E+03</pdfrwt>
<totfact> 0.11207013E+03</totfact>
</mgrwt>
</event>
<event>
 6    1  0.4705246E-006  0.1280824E+03  0.7546771E-02  0.1248479E+00
         -2   -1    0    0    0  501 -0.00000000000E+00  0.00000000000E+00  0.26551738214E+02  0.26551738214E+02  0.00000000000E+00 0.  1.
          2   -1    0    0  501    0  0.00000000000E+00 -0.00000000000E+00 -0.45467241159E+03  0.45467241159E+03  0.00000000000E+00 0. -1.
          5    1    1    2  502    0  0.40381841705E+02 -0.68620151218E+01 -0.26139299666E+02  0.48817347102E+02  0.47000000000E+01 0. -1.
         -5    1    1    2    0  502 -0.42295879061E+02 -0.20983427310E+02 -0.26552610530E+03  0.26973217866E+03  0.47000000000E+01 0. -1.
        -11    1    1    2    0    0  0.30171365054E+02  0.10161533549E+02 -0.12244375164E+03  0.12651498073E+03  0.00000000000E+00 0. -1.
         11    1    1    2    0    0 -0.28257327698E+02  0.17683908883E+02 -0.14011516758E+02  0.36159643304E+02  0.00000000000E+00 0.  1.
<mgrwt>
<rscale>  0 0.11679580E+03</rscale>
<asrwt>0</asrwt>
<pdfrwt beam="2">  1        2 0.69949605E-01 0.12808236E+03</pdfrwt>
<pdfrwt beam="1">  1       -2 0.40848826E-02 0.12808236E+03</pdfrwt>
<totfact> 0.17283793E+04</totfact>
</mgrwt>
</event>
<event>
 6    1  0.4705246E-006  0.1495372E+03  0.7546771E-02  0.1211852E+00
         -2   -1    0    0    0  501 -0.00000000000E+00  0.00000000000E+00  0.75258389663E+02  0.75258389663E+02  0.00000000000E+00 0.  1.
          2   -1    0    0  501    0  0.00000000000E+00 -0.00000000000E+00 -0.26725791779E+03  0.26725791779E+03  0.00000000000E+00 0. -1.
          5    1    1    2  502    0  0.50009874536E+02  0.59620295339E+01 -0.10918130102E+03  0.12032946372E+03  0.47000000000E+01 0. -1.
         -5    1    1    2    0  502 -0.33172711702E+02 -0.78069075457E+02 -0.52332053698E+02  0.99779472782E+02  0.47000000000E+01 0.  1.
        -11    1    1    2    0    0 -0.87263823602E+01  0.52671258938E+02 -0.63677878525E+02  0.83098035360E+02  0.00000000000E+00 0.  1.
         11    1    1    2    0    0 -0.81107804735E+01  0.19435786985E+02  0.33191705119E+02  0.39309335587E+02  0.00000000000E+00 0. -1.
<mgrwt>
<rscale>  0 0.14110343E+03</rscale>
<asrwt>0</asrwt>
<pdfrwt beam="2">  1        2 0.41116603E-01 0.14953722E+03</pdfrwt>
<pdfrwt beam="1">  1       -2 0.11578214E-01 0.14953722E+03</pdfrwt>
<totfact> 0.62355698E+03</totfact>
</mgrwt>
</event>
<event>
 6    1  0.4705246E-006  0.3590230E+03  0.7546771E-02  0.1058971E+00
         -2   -1    0    0    0  501 -0.00000000000E+00  0.00000000000E+00  0.32907599165E+02  0.32907599165E+02  0.00000000000E+00 0.  1.
          2   -1    0    0  501    0  0.00000000000E+00 -0.00000000000E+00 -0.97923800805E+03  0.97923800805E+03  0.00000000000E+00 0. -1.
          5    1    1    2  502    0 -0.18988381033E+02  0.37680059354E+02 -0.34222015763E+03  0.34484354681E+03  0.47000000000E+01 0. -1.
         -5    1    1    2    0  502 -0.58383359592E+02 -0.90467912121E+02 -0.46187735211E+03  0.47428455403E+03  0.47000000000E+01 0. -1.
        -11    1    1    2    0    0  0.52347960376E+02 -0.14757875808E+02 -0.85471692499E+02  0.10130900292E+03  0.00000000000E+00 0. -1.
         11    1    1    2    0    0  0.25023780249E+02  0.67545728576E+02 -0.56761206654E+02  0.91708503464E+02  0.00000000000E+00 0.  1.
<mgrwt>
<rscale>  0 0.35902296E+03</rscale>
<asrwt>0</asrwt>
<pdfrwt beam="2">  1        2 0.15065198E+00 0.35902296E+03</pdfrwt>
<pdfrwt beam="1">  1       -2 0.50627083E-02 0.35902296E+03</pdfrwt>
<totfact> 0.52183211E+03</totfact>
</mgrwt>
</event>
<event>
 6    1  0.4705246E-006  0.2399259E+03  0.7546771E-02  0.1121686E+00
         -1   -1    0    0    0  501 -0.00000000000E+00  0.00000000000E+00  0.48105718688E+03  0.48105718688E+03  0.00000000000E+00 0.  1.
          1   -1    0    0  501    0  0.00000000000E+00 -0.00000000000E+00 -0.12269676687E+03  0.12269676687E+03  0.00000000000E+00 0. -1.
          5    1    1    2  502    0  0.12164742458E+03  0.62728688058E+02  0.12975328821E+03  0.18865574471E+03  0.47000000000E+01 0. -1.
         -5    1    1    2    0  502  0.63514548381E+02  0.24761672175E+02 -0.25508249252E+02  0.72938323568E+02  0.47000000000E+01 0. -1.
        -11    1    1    2    0    0 -0.17237543167E+03 -0.10479194482E+03  0.20063933807E+03  0.28451851455E+03  0.00000000000E+00 0.  1.
         11    1    1    2    0    0 -0.12786541289E+02  0.17301584589E+02  0.53476042985E+02  0.57641370913E+02  0.00000000000E+00 0. -1.
<mgrwt>
<rscale>  0 0.23717912E+03</rscale>
<asrwt>0</asrwt>
<pdfrwt beam="2">  1        1 0.18876426E-01 0.23992588E+03</pdfrwt>
<pdfrwt beam="1">  1       -1 0.74008797E-01 0.23992588E+03</pdfrwt>
<totfact> 0.52871441E+02</totfact>
</mgrwt>
</event>
<event>
 6    1  0.4705246E-006  0.1620328E+03  0.7546771E-02  0.1211310E+00
         -1   -1    0    0    0  501 -0.00000000000E+00  0.00000000000E+00  0.15805443251E+02  0.15805443251E+02  0.00000000000E+00 0.  1.
          1   -1    0    0  501    0  0.00000000000E+00 -0.00000000000E+00 -0.10432784071E+04  0.10432784071E+04  0.00000000000E+00 0. -1.
          5    1    1    2  502    0 -0.33489630623E+01  0.45948521938E+02 -0.62420450100E+02  0.77723129200E+02  0.47000000000E+01 0. -1.
         -5    1    1    2    0  502  0.45605508809E+01 -0.67396320822E+02 -0.61920793951E+03  0.62289936992E+03  0.47000000000E+01 0.  1.
        -11    1    1    2    0    0 -0.30236893884E+02 -0.25154654960E+02 -0.14893594589E+03  0.15404201503E+03  0.00000000000E+00 0.  1.
         11    1    1    2    0    0  0.29025306065E+02  0.46602453844E+02 -0.19690862837E+03  0.20441933623E+03  0.00000000000E+00 0. -1.
<mgrwt>
<rscale>  0 0.14151123E+03</rscale>
<asrwt>0</asrwt>
<pdfrwt beam="2">  1        1 0.16050439E+00 0.16203279E+03</pdfrwt>
<pdfrwt beam="1">  1       -1 0.24316063E-02 0.16203279E+03</pdfrwt>
<totfact> 0.74726078E+03</totfact>
</mgrwt>
</event>
<event>
 6    1  0.4705246E-006  0.2769073E+03  0.7546771E-02  0.1140909E+00
         -2   -1    0    0    0  501 -0.00000000000E+00  0.00000000000E+00  0.39705236800E+02  0.39705236800E+02  0.00000000000E+00 0.  1.
          2   -1    0    0  501    0  0.00000000000E+00 -0.00000000000E+00 -0.88159074895E+03  0.88159074895E+03  0.00000000000E+00 0. -1.
          5    1    1    2  502    0 -0.39853764371E+02  0.73355117017E+02 -0.63713465303E+03  0.64259781498E+03  0.47000000000E+01 0. -1.
         -5    1    1    2    0  502  0.21467229881E+02 -0.80847231778E+02 -0.48414230848E+02  0.96763343233E+02  0.47000000000E+01 0.  1.
        -11    1    1    2    0    0  0.28184722009E+02  0.39679065881E+02 -0.13119994008E+03  0.13993652526E+03  0.00000000000E+00 0.  1.
         11    1    1    2    0    0 -0.97981875197E+01 -0.32186951120E+02 -0.25136688190E+02  0.41998302278E+02  0.00000000000E+00 0. -1.
<mgrwt>
<rscale>  0 0.21083133E+03</rscale>
<asrwt>0</asrwt>
<pdfrwt beam="2">  1        2 0.13562933E+00 0.27690730E+03</pdfrwt>
<pdfrwt beam="1">  1       -2 0.61084989E-02 0.27690730E+03</pdfrwt>
<totfact> 0.44868583E+03</totfact>
</mgrwt>
</event>
<event>
 6    1  0.4705246E-006  0.1439712E+03  0.7546771E-02  0.1228563E+00
         -2   -1    0    0    0  501 -0.00000000000E+00  0.00000000000E+00  0.18623937109E+03  0.18623937109E+03  0.00000000000E+00 0.  1.
          2   -1    0    0  501    0  0.00000000000E+00 -0.00000000000E+00 -0.16537540049E+04  0.16537540049E+04  0.00000000000E+00 0. -1.
          5    1    1    2  502    0 -0.97831867267E+01 -0.44776305945E+02 -0.13126559839E+04  0.13134642935E+04  0.47000000000E+01 0. -1.
         -5    1    1    2    0  502 -0.32584492238E+01  0.59885207204E+02 -0.32599458196E+03  0.33149873756E+03  0.47000000000E+01 0.  1.
        -11    1    1    2    0    0  0.20903251062E+01  0.38117227999E+02  0.85101734478E+02  0.93271634169E+02  0.00000000000E+00 0.  1.
         11    1    1    2    0    0  0.10951310844E+02 -0.53226129258E+02  0.86034197603E+02  0.10175871069E+03  0.00000000000E+00 0. -1.
<mgrwt>
<rscale>  0 0.12925682E+03</rscale>
<asrwt>0</asrwt>
<pdfrwt beam="2">  1        2 0.25442369E+00 0.14397117E+03</pdfrwt>
<pdfrwt beam="1">  1       -2 0.28652211E-01 0.14397117E+03</pdfrwt>
<totfact> 0.13251475E+02</totfact>
</mgrwt>
</event>
<event>
 6    1  0.4705246E-006  0.4444264E+03  0.7546771E-02  0.1084178E+00
          2   -1    0    0  501    0  0.00000000000E+00  0.00000000000E+00  0.17225450186E+03  0.17225450186E+03  0.00000000000E+00 0. -1.
         -2   -1    0    0    0  501 -0.00000000000E+00 -0.00000000000E+00 -0.56018127968E+03  0.56018127968E+03  0.00000000000E+00 0.  1.
          5    1    1    2  502    0 -0.74993366676E+01 -0.79433174856E+01  0.16310633720E+03  0.16353930285E+03  0.47000000000E+01 0. -1.
         -5    1    1    2    0  502 -0.13926363343E+02 -0.58077229231E+01 -0.30153209516E+03  0.30194596810E+03  0.47000000000E+01 0.  1.
        -11    1    1    2    0    0  0.50080075674E+02 -0.11374040903E+02 -0.18535437594E+03  0.19233727529E+03  0.00000000000E+00 0.  1.
         11    1    1    2    0    0 -0.28654375664E+02  0.25125081312E+02 -0.64146643913E+02  0.74613235294E+02  0.00000000000E+00 0. -1.
<mgrwt>
<rscale>  0 0.30213528E+03</rscale>
<asrwt>0</asrwt>
<pdfrwt beam="1">  1        2 0.26500693E-01 0.44442642E+03</pdfrwt>
<pdfrwt beam="2">  1       -2 0.86181735E-01 0.44442642E+03</pdfrwt>
<totfact> 0.24299598E+02</totfact>
</mgrwt>
</event>
<event>
 6    1  0.4705246E-006  0.1300924E+03  0.7546771E-02  0.1240217E+00
         -1   -1    0    0    0  501 -0.00000000000E+00  0.00000000000E+00  0.78093425803E+02  0.78093425803E+02  0.00000000000E+00 0.  1.
          1   -1    0    0  501    0  0.00000000000E+00 -0.00000000000E+00 -0.18162573910E+03  0.18162573910E+03  0.00000000000E+00 0. -1.
          5    1    1    2  502    0  0.37007278803E+02  0.28692991122E+02 -0.58199908979E+02  0.74847483786E+02  0.47000000000E+01 0.  1.
         -5    1    1    2    0  502 -0.72887188827E+02 -0.25562409151E+02 -0.33539436693E+02  0.84338383138E+02  0.47000000000E+01 0.  1.
        -11    1    1    2    0    0  0.66184805929E+02  0.97477155174E+01 -0.71491212299E+01  0.67279688079E+02  0.00000000000E+00 0.  1.
         11    1    1    2    0    0 -0.30304895905E+02 -0.12878297489E+02 -0.46438463959E+01  0.33253609900E+02  0.00000000000E+00 0. -1.
<mgrwt>
<rscale>  0 0.12176269E+03</rscale>
<asrwt>0</asrwt>
<pdfrwt beam="2">  1        1 0.27942422E-01 0.13009240E+03</pdfrwt>
<pdfrwt beam="1">  1       -1 0.12014373E-01 0.13009240E+03</pdfrwt>
<totfact> 0.71721566E+03</totfact>
</mgrwt>
</event>
<event>
 6    1  0.4705246E-006  0.1442690E+03  0.7546771E-02  0.1218285E+00
         -1   -1    0    0    0  501 -0.00000000000E+00  0.00000000000E+00  0.74158446441E+02  0.74158446441E+02  0.00000000000E+00 0.  1.
          1   -1    0    0  501    0  0.00000000000E+00 -0.00000000000E+00 -0.26394742506E+03  0.26394742506E+03  0.00000000000E+00 0. -1.
          5    1    1    2  502    0 -0.17047700278E+02  0.81056955901E+01 -0.11342220349E+03  0.11507828914E+03  0.47000000000E+01 0.  1.
         -5    1    1    2    0  502  0.80062654333E+02 -0.42993236395E+02 -0.53540092873E+02  0.10557972599E+03  0.47000000000E+01 0.  1.
        -11    1    1    2    0    0 -0.11311992530E+02 -0.93681713995E+01 -0.43828456969E+02  0.46223992154E+02  0.00000000000E+00 0. -1.
         11    1    1    2    0    0 -0.51702961525E+02  0.44255712204E+02  0.21001774718E+02  0.71223864220E+02  0.00000000000E+00 0.  1.
<mgrwt>
<rscale>  0 0.13638001E+03</rscale>
<asrwt>0</asrwt>
<pdfrwt beam="2">  1        1 0.40607296E-01 0.14426902E+03</pdfrwt>
<pdfrwt beam="1">  1       -1 0.11408992E-01 0.14426902E+03</pdfrwt>
<totfact> 0.49171155E+03</totfact>
</mgrwt>
</event>
<event>
 6    1  0.4705246E-006  0.1631593E+03  0.7546771E-02  0.1193050E+00
          4   -1    0    0  501    0  0.00000000000E+00  0.00000000000E+00  0.37805259171E+03  0.37805259171E+03  0.00000000000E+00 0. -1.
         -4   -1    0    0    0  501 -0.00000000000E+00 -0.00000000000E+00 -0.60272286100E+02  0.60272286100E+02  0.00000000000E+00 0.  1.
          5    1    1    2  502    0  0.28981156374E+02  0.21838998496E+02  0.17938155368E+03  0.18307561575E+03  0.47000000000E+01 0.  1.
         -5    1    1    2    0  502  0.65139941675E+02  0.24429141549E+02  0.16125093145E+02  0.71568873033E+02  0.47000000000E+01 0.  1.
        -11    1    1    2    0    0 -0.38724747988E+02 -0.64158084037E+02  0.90015590725E+02  0.11712673660E+03  0.00000000000E+00 0. -1.
         11    1    1    2    0    0 -0.55396350061E+02  0.17889943992E+02  0.32258068057E+02  0.66553652424E+02  0.00000000000E+00 0.  1.
<mgrwt>
<rscale>  0 0.15620429E+03</rscale>
<asrwt>0</asrwt>
<pdfrwt beam="1">  1        4 0.58161935E-01 0.16315933E+03</pdfrwt>
<pdfrwt beam="2">  1       -4 0.92726597E-02 0.16315933E+03</pdfrwt>
<totfact> 0.41996220E+02</totfact>
</mgrwt>
</event>
<event>
 6    1  0.4705246E-006  0.1279005E+03  0.7546771E-02  0.1245629E+00
          2   -1    0    0  501    0  0.00000000000E+00  0.00000000000E+00  0.11415867196E+04  0.11415867196E+04  0.00000000000E+00 0. -1.
         -2   -1    0    0    0  501 -0.00000000000E+00 -0.00000000000E+00 -0.11299717423E+02  0.11299717423E+02  0.00000000000E+00 0.  1.
          5    1    1    2  502    0 -0.36093572307E+02 -0.37482107932E+02  0.45835430572E+03  0.46132246200E+03  0.47000000000E+01 0. -1.
         -5    1    1    2    0  502  0.27546851842E+02  0.63109465791E+02  0.30867400213E+03  0.31629632200E+03  0.47000000000E+01 0. -1.
        -11    1    1    2    0    0  0.24051310478E+02  0.28286940637E+02  0.11942831079E+03  0.12506693394E+03  0.00000000000E+00 0.  1.
         11    1    1    2    0    0 -0.15504590013E+02 -0.53914298497E+02  0.24383038353E+03  0.25020071908E+03  0.00000000000E+00 0. -1.
<mgrwt>
<rscale>  0 0.11847813E+03</rscale>
<asrwt>0</asrwt>
<pdfrwt beam="1">  1        2 0.17562863E+00 0.12790054E+03</pdfrwt>
<pdfrwt beam="2">  1       -2 0.17384190E-02 0.12790054E+03</pdfrwt>
<totfact> 0.19562930E+04</totfact>
</mgrwt>
</event>
<event>
 6    1  0.4705246E-006  0.1501465E+03  0.7546771E-02  0.1206164E+00
          1   -1    0    0  501    0  0.00000000000E+00  0.00000000000E+00  0.48542419048E+03  0.48542419048E+03  0.00000000000E+00 0. -1.
         -1   -1    0    0    0  501 -0.00000000000E+00 -0.00000000000E+00 -0.80745641621E+02  0.80745641621E+02  0.00000000000E+00 0.  1.
          5    1    1    2  502    0 -0.19617559950E+02  0.41226266686E+01  0.22972620510E+03  0.23064705509E+03  0.47000000000E+01 0. -1.
         -5    1    1    2    0  502  0.49849177294E+02  0.85703494254E+02  0.17735139876E+03  0.20323788536E+03  0.47000000000E+01 0.  1.
        -11    1    1    2    0    0 -0.26306860024E+02 -0.57880205612E+01  0.31619803667E+02  0.41537501733E+02  0.00000000000E+00 0. -1.
         11    1    1    2    0    0 -0.39247573209E+01 -0.84038100362E+02 -0.34018858669E+02  0.90747389922E+02  0.00000000000E+00 0.  1.
<mgrwt>
<rscale>  0 0.14546083E+03</rscale>
<asrwt>0</asrwt>
<pdfrwt beam="1">  1        1 0.74680643E-01 0.15014648E+03</pdfrwt>
<pdfrwt beam="2">  1       -1 0.12422407E-01 0.15014648E+03</pdfrwt>
<totfact> 0.20068141E+03</totfact>
</mgrwt>
</event>
<event>
 6    1  0.4705246E-006  0.3056118E+03  0.7546771E-02  0.1082468E+00
         -2   -1    0    0    0  501 -0.00000000000E+00  0.00000000000E+00  0.18994356311E+02  0.18994356311E+02  0.00000000000E+00 0.  1.
          2   -1    0    0  501    0  0.00000000000E+00 -0.00000000000E+00 -0.12292940700E+04  0.12292940700E+04  0.00000000000E+00 0. -1.
          5    1    1    2  502    0  0.18098154848E+02  0.31037693325E+02 -0.13477092338E+03  0.13955706147E+03  0.47000000000E+01 0. -1.
         -5    1    1    2    0  502 -0.11219880969E+03 -0.32746238933E+02 -0.71356997679E+03  0.72309410925E+03  0.47000000000E+01 0. -1.
        -11    1    1    2    0    0  0.48139003170E+02  0.29029841068E+02 -0.74941632419E+02  0.93682141138E+02  0.00000000000E+00 0.  1.
         11    1    1    2    0    0  0.45961651677E+02 -0.27321295460E+02 -0.28701718115E+03  0.29195511450E+03  0.00000000000E+00 0. -1.
<mgrwt>
<rscale>  0 0.30561184E+03</rscale>
<asrwt>0</asrwt>
<pdfrwt beam="2">  1        2 0.18912219E+00 0.30561184E+03</pdfrwt>
<pdfrwt beam="1">  1       -2 0.29222083E-02 0.30561184E+03</pdfrwt>
<totfact> 0.84859916E+03</totfact>
</mgrwt>
</event>
<event>
 6    1  0.4705246E-006  0.1335154E+03  0.7546771E-02  0.1234836E+00
         -3   -1    0    0    0  501 -0.00000000000E+00  0.00000000000E+00  0.16078780668E+02  0.16078780668E+02  0.00000000000E+00 0.  1.
          3   -1    0    0  501    0  0.00000000000E+00 -0.00000000000E+00 -0.93006359235E+03  0.93006359235E+03  0.00000000000E+00 0. -1.
          5    1    1    2  502    0  0.65223046345E+02  0.57355587468E+02 -0.40272005934E+03  0.41200636570E+03  0.47000000000E+01 0. -1.
         -5    1    1    2    0  502 -0.43478844651E+02 -0.15753448824E+02 -0.22832782551E+03  0.23301130227E+03  0.47000000000E+01 0. -1.
        -11    1    1    2    0    0  0.25203727008E+02 -0.14533600170E+02 -0.27607844072E+02  0.40107934917E+02  0.00000000000E+00 0.  1.
         11    1    1    2    0    0 -0.46947928703E+02 -0.27068538474E+02 -0.25532908276E+03  0.26101677013E+03  0.00000000000E+00 0. -1.
<mgrwt>
<rscale>  0 0.12514926E+03</rscale>
<asrwt>0</asrwt>
<pdfrwt beam="2">  1        3 0.14308670E+00 0.13351539E+03</pdfrwt>
<pdfrwt beam="1">  1       -3 0.24736588E-02 0.13351539E+03</pdfrwt>
<totfact> 0.61574754E+02</totfact>
</mgrwt>
</event>
<event>
 6    1  0.4705246E-006  0.1263016E+03  0.7546771E-02  0.1251149E+00
          2   -1    0    0  501    0  0.00000000000E+00  0.00000000000E+00  0.82583354272E+03  0.82583354272E+03  0.00000000000E+00 0. -1.
         -2   -1    0    0    0  501 -0.00000000000E+00 -0.00000000000E+00 -0.14183337031E+02  0.14183337031E+02  0.00000000000E+00 0.  1.
          5    1    1    2  502    0  0.61086499535E+01  0.63335723955E+02  0.36739554271E+03  0.37289449491E+03  0.47000000000E+01 0.  1.
         -5    1    1    2    0  502 -0.20648520033E+02 -0.52708933608E+02  0.17396227398E+03  0.18300151865E+03  0.47000000000E+01 0.  1.
        -11    1    1    2    0    0  0.28464735590E+02  0.30898886193E+02  0.10419171271E+03  0.11234275828E+03  0.00000000000E+00 0.  1.
         11    1    1    2    0    0 -0.13924865510E+02 -0.41525676540E+02  0.16610067630E+03  0.17177810791E+03  0.00000000000E+00 0. -1.
<mgrwt>
<rscale>  0 0.11524779E+03</rscale>
<asrwt>0</asrwt>
<pdfrwt beam="1">  1        2 0.12705128E+00 0.12630159E+03</pdfrwt>
<pdfrwt beam="2">  1       -2 0.21820525E-02 0.12630159E+03</pdfrwt>
<totfact> 0.21814033E+04</totfact>
</mgrwt>
</event>
<event>
 6    1  0.4705246E-006  0.1221634E+03  0.7546771E-02  0.1249376E+00
         -1   -1    0    0    0  501 -0.00000000000E+00  0.00000000000E+00  0.93668782822E+02  0.93668782822E+02  0.00000000000E+00 0.  1.
          1   -1    0    0  501    0  0.00000000000E+00 -0.00000000000E+00 -0.13448097211E+03  0.13448097211E+03  0.00000000000E+00 0. -1.
          5    1    1    2  502    0 -0.61523464448E+02  0.40593882511E+02 -0.41143361457E+02  0.84545054066E+02  0.47000000000E+01 0. -1.
         -5    1    1    2    0  502  0.34466990236E+02 -0.25563962724E+02  0.34352863036E+01  0.43305667043E+02  0.47000000000E+01 0.  1.
        -11    1    1    2    0    0  0.60049339122E+02 -0.25098901721E+02 -0.75438690632E+01  0.65519370853E+02  0.00000000000E+00 0.  1.
         11    1    1    2    0    0 -0.32992864909E+02  0.10068981933E+02  0.44397549323E+01  0.34779662965E+02  0.00000000000E+00 0. -1.
<mgrwt>
<rscale>  0 0.11627280E+03</rscale>
<asrwt>0</asrwt>
<pdfrwt beam="2">  1        1 0.20689380E-01 0.12216345E+03</pdfrwt>
<pdfrwt beam="1">  1       -1 0.14410582E-01 0.12216345E+03</pdfrwt>
<totfact> 0.78529219E+03</totfact>
</mgrwt>
</event>
<event>
 6    1  0.4705246E-006  0.1358989E+03  0.7546771E-02  0.1230811E+00
          2   -1    0    0  501    0  0.00000000000E+00  0.00000000000E+00  0.24742258354E+03  0.24742258354E+03  0.00000000000E+00 0. -1.
         -2   -1    0    0    0  501 -0.00000000000E+00 -0.00000000000E+00 -0.66573917954E+02  0.66573917954E+02  0.00000000000E+00 0.  1.
          5    1    1    2  502    0  0.60182466015E+02  0.52255684430E+02  0.14733585725E+03  0.16757843120E+03  0.47000000000E+01 0. -1.
         -5    1    1    2    0  502 -0.99296129543E+01 -0.34412889721E+02  0.48409526763E+01  0.36446797049E+02  0.47000000000E+01 0. -1.
        -11    1    1    2    0    0  0.11019198023E+02 -0.18832999210E+02  0.41935247275E+02  0.47272291550E+02  0.00000000000E+00 0. -1.
         11    1    1    2    0    0 -0.61272051083E+02  0.99020450087E+00 -0.13263391616E+02  0.62698981699E+02  0.00000000000E+00 0.  1.
<mgrwt>
<rscale>  0 0.12776450E+03</rscale>
<asrwt>0</asrwt>
<pdfrwt beam="1">  1        2 0.38065012E-01 0.13589890E+03</pdfrwt>
<pdfrwt beam="2">  1       -2 0.10242141E-01 0.13589890E+03</pdfrwt>
<totfact> 0.81695212E+03</totfact>
</mgrwt>
</event>
<event>
 6    1  0.4705246E-006  0.1413150E+03  0.7546771E-02  0.1223242E+00
          1   -1    0    0  501    0  0.00000000000E+00  0.00000000000E+00  0.19503157398E+03  0.19503157398E+03  0.00000000000E+00 0. -1.
         -1   -1    0    0    0  501 -0.00000000000E+00 -0.00000000000E+00 -0.91295479935E+02  0.91295479935E+02  0.00000000000E+00 0.  1.
          5    1    1    2  502    0 -0.42767854141E+02  0.15049927463E+02 -0.18414609917E+02  0.49160731512E+02  0.47000000000E+01 0.  1.
         -5    1    1    2    0  502 -0.23025156165E+02 -0.18769514873E+02  0.12305970587E+03  0.12668162342E+03  0.47000000000E+01 0.  1.
        -11    1    1    2    0    0  0.50893486281E+02  0.31188481163E+02 -0.30863753626E+02  0.67197020701E+02  0.00000000000E+00 0.  1.
         11    1    1    2    0    0  0.14899524024E+02 -0.27468893753E+02  0.29954751726E+02  0.43287678283E+02  0.00000000000E+00 0. -1.
<mgrwt>
<rscale>  0 0.13288107E+03</rscale>
<asrwt>0</asrwt>
<pdfrwt beam="1">  1        1 0.30004857E-01 0.14131503E+03</pdfrwt>
<pdfrwt beam="2">  1       -1 0.14045458E-01 0.14131503E+03</pdfrwt>
<totfact> 0.51791409E+03</totfact>
</mgrwt>
</event>
<event>
 6    1  0.4705246E-006  0.1522392E+03  0.7546771E-02  0.1203086E+00
         -2   -1    0    0    0  501 -0.00000000000E+00  0.00000000000E+00  0.54564105730E+02  0.54564105730E+02  0.00000000000E+00 0.  1.
          2   -1    0    0  501    0  0.00000000000E+00 -0.00000000000E+00 -0.58725473926E+03  0.58725473926E+03  0.00000000000E+00 0. -1.
          5    1    1    2  502    0 -0.40494666450E+02 -0.47079081565E+02 -0.39567840458E+03  0.40054930756E+03  0.47000000000E+01 0. -1.
         -5    1    1    2    0  502 -0.40414803559E+02  0.38359810795E+02 -0.71264311834E+02  0.90584345072E+02  0.47000000000E+01 0.  1.
        -11    1    1    2    0    0  0.98608613438E+02 -0.63170007961E+01 -0.76625481864E+02  0.12504010402E+03  0.00000000000E+00 0.  1.
         11    1    1    2    0    0 -0.17699143429E+02  0.15036271567E+02  0.10877564753E+02  0.25645088335E+02  0.00000000000E+00 0. -1.
<mgrwt>
<rscale>  0 0.14789298E+03</rscale>
<asrwt>0</asrwt>
<pdfrwt beam="2">  1        2 0.90346887E-01 0.15223917E+03</pdfrwt>
<pdfrwt beam="1">  1       -2 0.83944775E-02 0.15223917E+03</pdfrwt>
<totfact> 0.44165235E+03</totfact>
</mgrwt>
</event>
<event>
 6    1  0.4705246E-006  0.1514780E+03  0.7546771E-02  0.1207451E+00
          2   -1    0    0  501    0  0.00000000000E+00  0.00000000000E+00  0.12462254004E+04  0.12462254004E+04  0.00000000000E+00 0. -1.
         -2   -1    0    0    0  501 -0.00000000000E+00 -0.00000000000E+00 -0.17778118870E+02  0.17778118870E+02  0.00000000000E+00 0.  1.
          5    1    1    2  502    0 -0.55737990098E+02  0.10155335645E+03  0.71489428400E+03  0.72423458565E+03  0.47000000000E+01 0.  1.
         -5    1    1    2    0  502  0.28098874912E+02 -0.20549417971E+02  0.18139045140E+03  0.18476041570E+03  0.47000000000E+01 0.  1.
        -11    1    1    2    0    0  0.74667895708E+01 -0.98155041995E+02  0.27247669274E+03  0.28971315693E+03  0.00000000000E+00 0. -1.
         11    1    1    2    0    0  0.20172325615E+02  0.17151103520E+02  0.59685853434E+02  0.65295361037E+02  0.00000000000E+00 0.  1.
<mgrwt>
<rscale>  0 0.14445963E+03</rscale>
<asrwt>0</asrwt>
<pdfrwt beam="1">  1        2 0.19172692E+00 0.15147800E+03</pdfrwt>
<pdfrwt beam="2">  1       -2 0.27350962E-02 0.15147800E+03</pdfrwt>
<totfact> 0.89301207E+03</totfact>
</mgrwt>
</event>
<event>
 6    1  0.4705246E-006  0.1548586E+03  0.7546771E-02  0.1203117E+00
         -1   -1    0    0    0  501 -0.00000000000E+00  0.00000000000E+00  0.64500257926E+02  0.64500257926E+02  0.00000000000E+00 0.  1.
          1   -1    0    0  501    0  0.00000000000E+00 -0.00000000000E+00 -0.35213347501E+03  0.35213347501E+03  0.00000000000E+00 0. -1.
          5    1    1    2  502    0 -0.97525330112E+02  0.42302691192E+02 -0.13213555268E+03  0.16965436033E+03  0.47000000000E+01 0.  1.
         -5    1    1    2    0  502  0.61481861220E+01 -0.44864552974E+02 -0.93710573060E+02  0.10418440291E+03  0.47000000000E+01 0.  1.
        -11    1    1    2    0    0  0.17958171581E+02  0.26508998274E+02 -0.57053656535E+02  0.65424327586E+02  0.00000000000E+00 0. -1.
         11    1    1    2    0    0  0.73418972410E+02 -0.23947136492E+02 -0.47334348047E+01  0.77370642113E+02  0.00000000000E+00 0.  1.
<mgrwt>
<rscale>  0 0.14786858E+03</rscale>
<asrwt>0</asrwt>
<pdfrwt beam="2">  1        1 0.54174381E-01 0.15485863E+03</pdfrwt>
<pdfrwt beam="1">  1       -1 0.99231167E-02 0.15485863E+03</pdfrwt>
<totfact> 0.42730668E+03</totfact>
</mgrwt>
</event>
<event>
 6    1  0.4705246E-006  0.1283429E+03  0.7546771E-02  0.1246662E+00
         -2   -1    0    0    0  501 -0.00000000000E+00  0.00000000000E+00  0.23873422788E+02  0.23873422788E+02  0.00000000000E+00 0.  1.
          2   -1    0    0  501    0  0.00000000000E+00 -0.00000000000E+00 -0.50623521524E+03  0.50623521524E+03  0.00000000000E+00 0. -1.
          5    1    1    2  502    0 -0.10526078392E+02 -0.49057580374E+01  0.10135669552E+02  0.16114793995E+02  0.47000000000E+01 0. -1.
         -5    1    1    2    0  502 -0.17282699866E+02 -0.37229932343E+01 -0.30404385204E+03  0.30459367419E+03  0.47000000000E+01 0. -1.
        -11    1    1    2    0    0  0.18014649964E+01 -0.27202950921E+02 -0.16564185502E+02  0.31900126274E+02  0.00000000000E+00 0.  1.
         11    1    1    2    0    0  0.26007313262E+02  0.35831702192E+02 -0.17188942446E+03  0.17750004357E+03  0.00000000000E+00 0. -1.
<mgrwt>
<rscale>  0 0.11786461E+03</rscale>
<asrwt>0</asrwt>
<pdfrwt beam="2">  1        2 0.77882331E-01 0.12834291E+03</pdfrwt>
<pdfrwt beam="1">  1       -2 0.36728348E-02 0.12834291E+03</pdfrwt>
<totfact> 0.18002723E+04</totfact>
</mgrwt>
</event>
<event>
 6    1  0.4705246E-006  0.1449928E+03  0.7546771E-02  0.1216878E+00
          2   -1    0    0  501    0  0.00000000000E+00  0.00000000000E+00  0.34680804818E+03  0.34680804818E+03  0.00000000000E+00 0. -1.
         -2   -1    0    0    0  501 -0.00000000000E+00 -0.00000000000E+00 -0.64082168577E+02  0.64082168577E+02  0.00000000000E+00 0.  1.
          5    1    1    2  502    0 -0.21030333936E+02 -0.22977166877E+02  0.84656141873E+01  0.32618733371E+02  0.47000000000E+01 0.  1.
         -5    1    1    2    0  502 -0.21385334594E+02  0.82962326255E+02  0.24234446078E+03  0.25708560400E+03  0.47000000000E+01 0.  1.
        -11    1    1    2    0    0  0.23853523751E+02 -0.81771238902E+02  0.11328623568E+02  0.85929411838E+02  0.00000000000E+00 0.  1.
         11    1    1    2    0    0  0.18562144778E+02  0.21786079524E+02  0.20587181073E+02  0.35256467553E+02  0.00000000000E+00 0. -1.
<mgrwt>
<rscale>  0 0.13739488E+03</rscale>
<asrwt>0</asrwt>
<pdfrwt beam="1">  1        2 0.53355083E-01 0.14499279E+03</pdfrwt>
<pdfrwt beam="2">  1       -2 0.98587954E-02 0.14499279E+03</pdfrwt>
<totfact> 0.60858025E+03</totfact>
</mgrwt>
</event>
<event>
 6    1  0.4705246E-006  0.1379945E+03  0.7546771E-02  0.1256370E+00
          2   -1    0    0  501    0  0.00000000000E+00  0.00000000000E+00  0.25702217978E+03  0.25702217978E+03  0.00000000000E+00 0. -1.
         -2   -1    0    0    0  501 -0.00000000000E+00 -0.00000000000E+00 -0.40231956685E+02  0.40231956685E+02  0.00000000000E+00 0.  1.
          5    1    1    2  502    0  0.16825818964E+02 -0.54586232941E+02  0.11866616608E+03  0.13178207003E+03  0.47000000000E+01 0. -1.
         -5    1    1    2    0  502 -0.19275226826E+02  0.69524420363E+02  0.59891337833E+02  0.93884193256E+02  0.47000000000E+01 0.  1.
        -11    1    1    2    0    0 -0.10238997001E+02 -0.34602783524E+02  0.29497872566E+02  0.46608091284E+02  0.00000000000E+00 0. -1.
         11    1    1    2    0    0  0.12688404863E+02  0.19664596102E+02  0.87348466149E+01  0.24979781889E+02  0.00000000000E+00 0.  1.
<mgrwt>
<rscale>  0 0.11229933E+03</rscale>
<asrwt>0</asrwt>
<pdfrwt beam="1">  1        2 0.39541873E-01 0.13799449E+03</pdfrwt>
<pdfrwt beam="2">  1       -2 0.61895320E-02 0.13799449E+03</pdfrwt>
<totfact> 0.17103199E+04</totfact>
</mgrwt>
</event>
<event>
 6    1  0.4705246E-006  0.2028683E+03  0.7546771E-02  0.1151470E+00
          2   -1    0    0  501    0  0.00000000000E+00  0.00000000000E+00  0.10849874250E+03  0.10849874250E+03  0.00000000000E+00 0. -1.
         -2   -1    0    0    0  501 -0.00000000000E+00 -0.00000000000E+00 -0.34767838048E+03  0.34767838048E+03  0.00000000000E+00 0.  1.
          5    1    1    2  502    0 -0.11549357038E+03 -0.86583859136E+02 -0.67887984892E+02  0.15958194746E+03  0.47000000000E+01 0.  1.
         -5    1    1    2    0  502 -0.38335416305E+02  0.43315793972E+02 -0.36632240621E+02  0.68628515965E+02  0.47000000000E+01 0.  1.
        -11    1    1    2    0    0  0.13924998212E+03  0.10297897911E+01 -0.10281694599E+03  0.17309807154E+03  0.00000000000E+00 0.  1.
         11    1    1    2    0    0  0.14579004561E+02  0.42238275373E+02 -0.31842466472E+02  0.54868588022E+02  0.00000000000E+00 0. -1.
<mgrwt>
<rscale>  0 0.19796226E+03</rscale>
<asrwt>0</asrwt>
<pdfrwt beam="1">  1        2 0.16692114E-01 0.20286828E+03</pdfrwt>
<pdfrwt beam="2">  1       -2 0.53488982E-01 0.20286828E+03</pdfrwt>
<totfact> 0.11403850E+03</totfact>
</mgrwt>
</event>
<event>
 6    1  0.4705246E-006  0.1562146E+03  0.7546771E-02  0.1199633E+00
         -2   -1    0    0    0  501 -0.00000000000E+00  0.00000000000E+00  0.62753611128E+02  0.62753611128E+02  0.00000000000E+00 0.  1.
          2   -1    0    0  501    0  0.00000000000E+00 -0.00000000000E+00 -0.40566026759E+03  0.40566026759E+03  0.00000000000E+00 0. -1.
          5    1    1    2  502    0 -0.52518530269E+02 -0.79235717410E+02 -0.96303846971E+02  0.13539946779E+03  0.47000000000E+01 0. -1.
         -5    1    1    2    0  502  0.24051402300E+02 -0.10037960793E+02 -0.18058356442E+03  0.18251505239E+03  0.47000000000E+01 0. -1.
        -11    1    1    2    0    0 -0.17099757031E+02  0.24999782967E+02  0.18068309402E+02  0.35268323515E+02  0.00000000000E+00 0.  1.
         11    1    1    2    0    0  0.45566884999E+02  0.64273895235E+02 -0.84087554478E+02  0.11523103504E+03  0.00000000000E+00 0. -1.
<mgrwt>
<rscale>  0 0.15068584E+03</rscale>
<asrwt>0</asrwt>
<pdfrwt beam="2">  1        2 0.62409271E-01 0.15621461E+03</pdfrwt>
<pdfrwt beam="1">  1       -2 0.96544018E-02 0.15621461E+03</pdfrwt>
<totfact> 0.53416755E+03</totfact>
</mgrwt>
</event>
<event>
 6    1  0.4705246E-006  0.1256263E+03  0.7546771E-02  0.1249145E+00
         -2   -1    0    0    0  501 -0.00000000000E+00  0.00000000000E+00  0.18515469199E+02  0.18515469199E+02  0.00000000000E+00 0.  1.
          2   -1    0    0  501    0  0.00000000000E+00 -0.00000000000E+00 -0.91857678742E+03  0.91857678742E+03  0.00000000000E+00 0. -1.
          5    1    1    2  502    0 -0.15800044974E+02  0.66568642312E+02 -0.38883362980E+03  0.39483503799E+03  0.47000000000E+01 0.  1.
         -5    1    1    2    0  502  0.16717069012E+02 -0.54110090825E+02 -0.36338355716E+03  0.36780030172E+03  0.47000000000E+01 0.  1.
        -11    1    1    2    0    0  0.16054576158E+02 -0.33661346765E+02 -0.14181544941E+03  0.14663716232E+03  0.00000000000E+00 0. -1.
         11    1    1    2    0    0 -0.16971600197E+02  0.21202795278E+02 -0.60286818459E+01  0.27819754594E+02  0.00000000000E+00 0.  1.
<mgrwt>
<rscale>  0 0.11640708E+03</rscale>
<asrwt>0</asrwt>
<pdfrwt beam="2">  1        2 0.14131948E+00 0.12562629E+03</pdfrwt>
<pdfrwt beam="1">  1       -2 0.28485343E-02 0.12562629E+03</pdfrwt>
<totfact> 0.12895084E+04</totfact>
</mgrwt>
</event>
<event>
 6    1  0.4705246E-006  0.2335166E+03  0.7546771E-02  0.1142125E+00
         -2   -1    0    0    0  501 -0.00000000000E+00  0.00000000000E+00  0.43587608332E+03  0.43587608332E+03  0.00000000000E+00 0.  1.
          2   -1    0    0  501    0  0.00000000000E+00 -0.00000000000E+00 -0.10776201742E+03  0.10776201742E+03  0.00000000000E+00 0. -1.
          5    1    1    2  502    0  0.31918490229E+02 -0.53511995771E+00 -0.44601999056E+02  0.55050019907E+02  0.47000000000E+01 0. -1.
         -5    1    1    2    0  502 -0.14901930572E+03  0.21433086851E+02  0.11292667430E+03  0.18825688422E+03  0.47000000000E+01 0.  1.
        -11    1    1    2    0    0  0.10231339438E+03  0.14905683805E+02  0.13739038180E+03  0.17194861759E+03  0.00000000000E+00 0.  1.
         11    1    1    2    0    0  0.14787421104E+02 -0.35803650699E+02  0.12239900887E+03  0.12838257903E+03  0.00000000000E+00 0. -1.
<mgrwt>
<rscale>  0 0.20929621E+03</rscale>
<asrwt>0</asrwt>
<pdfrwt beam="2">  1        2 0.16578772E-01 0.23351657E+03</pdfrwt>
<pdfrwt beam="1">  1       -2 0.67057858E-01 0.23351657E+03</pdfrwt>
<totfact> 0.72212547E+02</totfact>
</mgrwt>
</event>
<event>
 6    1  0.4705246E-006  0.1691592E+03  0.7546771E-02  0.1185385E+00
          4   -1    0    0  501    0  0.00000000000E+00  0.00000000000E+00  0.23948428483E+03  0.23948428483E+03  0.00000000000E+00 0. -1.
         -4   -1    0    0    0  501 -0.00000000000E+00 -0.00000000000E+00 -0.11710865761E+03  0.11710865761E+03  0.00000000000E+00 0.  1.
          5    1    1    2  502    0  0.46720698862E+01  0.78088651562E+02  0.13802787845E+03  0.15872444982E+03  0.47000000000E+01 0. -1.
         -5    1    1    2    0  502  0.43760796674E+02  0.25079925310E+02 -0.12195385146E+02  0.52104005585E+02  0.47000000000E+01 0. -1.
        -11    1    1    2    0    0 -0.18459897151E+02  0.91936744624E+01 -0.19487572200E+02  0.28373525040E+02  0.00000000000E+00 0.  1.
         11    1    1    2    0    0 -0.29972969409E+02 -0.11236225133E+03  0.16030706106E+02  0.11739096200E+03  0.00000000000E+00 0. -1.
<mgrwt>
<rscale>  0 0.16296864E+03</rscale>
<asrwt>0</asrwt>
<pdfrwt beam="1">  1        4 0.36843736E-01 0.16915916E+03</pdfrwt>
<pdfrwt beam="2">  1       -4 0.18016717E-01 0.16915916E+03</pdfrwt>
<totfact> 0.33693829E+02</totfact>
</mgrwt>
</event>
<event>
 6    1  0.4705246E-006  0.1299901E+03  0.7546771E-02  0.1241072E+00
          2   -1    0    0  501    0  0.00000000000E+00  0.00000000000E+00  0.33497672560E+03  0.33497672560E+03  0.00000000000E+00 0. -1.
         -2   -1    0    0    0  501 -0.00000000000E+00 -0.00000000000E+00 -0.39091991608E+02  0.39091991608E+02  0.00000000000E+00 0.  1.
          5    1    1    2  502    0 -0.17718590978E+02  0.12606855840E+02  0.19845279317E+03  0.19969597491E+03  0.47000000000E+01 0. -1.
         -5    1    1    2    0  502 -0.10588281285E+02  0.91999398630E+01 -0.17622099611E+02  0.23008237411E+02  0.47000000000E+01 0. -1.
        -11    1    1    2    0    0  0.53480023634E+02 -0.40255694041E+02  0.73795362386E+02  0.99631266881E+02  0.00000000000E+00 0. -1.
         11    1    1    2    0    0 -0.25173151370E+02  0.18448898338E+02  0.41258678048E+02  0.51733238001E+02  0.00000000000E+00 0.  1.
<mgrwt>
<rscale>  0 0.12123618E+03</rscale>
<asrwt>0</asrwt>
<pdfrwt beam="1">  1        2 0.51534879E-01 0.12999010E+03</pdfrwt>
<pdfrwt beam="2">  1       -2 0.60141528E-02 0.12999010E+03</pdfrwt>
<totfact> 0.13424300E+04</totfact>
</mgrwt>
</event>
<event>
 6    1  0.4705246E-006  0.1419878E+03  0.7546771E-02  0.1221075E+00
          2   -1    0    0  501    0  0.00000000000E+00  0.00000000000E+00  0.54614514943E+02  0.54614514943E+02  0.00000000000E+00 0. -1.
         -2   -1    0    0    0  501 -0.00000000000E+00 -0.00000000000E+00 -0.32563533595E+03  0.32563533595E+03  0.00000000000E+00 0.  1.
          5    1    1    2  502    0  0.71384484280E+02  0.63613670383E+02 -0.71466345103E+02  0.11946535957E+03  0.47000000000E+01 0.  1.
         -5    1    1    2    0  502 -0.66429381709E+01 -0.45041669173E+02 -0.24544413295E+02  0.51936488266E+02  0.47000000000E+01 0.  1.
        -11    1    1    2    0    0 -0.43899650948E+02  0.27359122109E+00 -0.17533496954E+03  0.18074735337E+03  0.00000000000E+00 0.  1.
         11    1    1    2    0    0 -0.20841895161E+02 -0.18845592431E+02  0.32490693620E+00  0.28100649681E+02  0.00000000000E+00 0. -1.
<mgrwt>
<rscale>  0 0.13439560E+03</rscale>
<asrwt>0</asrwt>
<pdfrwt beam="1">  1        2 0.84022331E-02 0.14198777E+03</pdfrwt>
<pdfrwt beam="2">  1       -2 0.50097744E-01 0.14198777E+03</pdfrwt>
<totfact> 0.29386184E+03</totfact>
</mgrwt>
</event>
<event>
 6    1  0.4705246E-006  0.1997371E+03  0.7546771E-02  0.1154298E+00
         -3   -1    0    0    0  501 -0.00000000000E+00  0.00000000000E+00  0.49926596173E+03  0.49926596173E+03  0.00000000000E+00 0.  1.
          3   -1    0    0  501    0  0.00000000000E+00 -0.00000000000E+00 -0.72380525256E+02  0.72380525256E+02  0.00000000000E+00 0. -1.
          5    1    1    2  502    0  0.51023328278E+02  0.16011779753E+03  0.19898598728E+03  0.26049683731E+03  0.47000000000E+01 0. -1.
         -5    1    1    2    0  502  0.21733120263E+02 -0.22364806688E+02  0.33573736801E+02  0.46062988368E+02  0.47000000000E+01 0. -1.
        -11    1    1    2    0    0 -0.98761912495E+01 -0.22346327401E+02 -0.63145590223E+01  0.25234324987E+02  0.00000000000E+00 0. -1.
         11    1    1    2    0    0 -0.62880257292E+02 -0.11540666344E+03  0.20064027141E+03  0.23985233632E+03  0.00000000000E+00 0.  1.
<mgrwt>
<rscale>  0 0.19468996E+03</rscale>
<asrwt>0</asrwt>
<pdfrwt beam="2">  1        3 0.11135466E-01 0.19973708E+03</pdfrwt>
<pdfrwt beam="1">  1       -3 0.76810146E-01 0.19973708E+03</pdfrwt>
<totfact> 0.24516173E+02</totfact>
</mgrwt>
</event>
<event>
 6    1  0.4705246E-006  0.1407244E+03  0.7546771E-02  0.1222837E+00
          3   -1    0    0  501    0  0.00000000000E+00  0.00000000000E+00  0.11955909935E+03  0.11955909935E+03  0.00000000000E+00 0. -1.
         -3   -1    0    0    0  501 -0.00000000000E+00 -0.00000000000E+00 -0.13457806249E+03  0.13457806249E+03  0.00000000000E+00 0.  1.
          5    1    1    2  502    0 -0.67586985154E+01 -0.12924252238E+02  0.57355746059E+02  0.59367397681E+02  0.47000000000E+01 0. -1.
         -5    1    1    2    0  502  0.13931481699E+02 -0.51289305174E+02 -0.61498959234E+02  0.81418001660E+02  0.47000000000E+01 0. -1.
        -11    1    1    2    0    0  0.72033667954E+01 -0.70447808531E+01 -0.35264462019E+02  0.36675601044E+02  0.00000000000E+00 0.  1.
         11    1    1    2    0    0 -0.14376149979E+02  0.71258338265E+02  0.24388712054E+02  0.76676161459E+02  0.00000000000E+00 0. -1.
<mgrwt>
<rscale>  0 0.13316255E+03</rscale>
<asrwt>0</asrwt>
<pdfrwt beam="1">  1        3 0.18393707E-01 0.14072442E+03</pdfrwt>
<pdfrwt beam="2">  1       -3 0.20704317E-01 0.14072442E+03</pdfrwt>
<totfact> 0.12709193E+03</totfact>
</mgrwt>
</event>
<event>
 6    1  0.4705246E-006  0.1400783E+03  0.7546771E-02  0.1230236E+00
          1   -1    0    0  501    0  0.00000000000E+00  0.00000000000E+00  0.26759673884E+03  0.26759673884E+03  0.00000000000E+00 0. -1.
         -1   -1    0    0    0  501 -0.00000000000E+00 -0.00000000000E+00 -0.56882045868E+02  0.56882045868E+02  0.00000000000E+00 0.  1.
          5    1    1    2  502    0  0.76015740187E+02  0.88731656433E+01  0.10573834163E+03  0.13061321799E+03  0.47000000000E+01 0. -1.
         -5    1    1    2    0  502 -0.50781107680E+02 -0.35307284133E+02  0.58689482002E+02  0.85392449946E+02  0.47000000000E+01 0.  1.
        -11    1    1    2    0    0  0.19290485503E+02 -0.13756711919E+02  0.42145347300E+02  0.48348735793E+02  0.00000000000E+00 0. -1.
         11    1    1    2    0    0 -0.44525118010E+02  0.40190830408E+02  0.41415220417E+01  0.60124380974E+02  0.00000000000E+00 0.  1.
<mgrwt>
<rscale>  0 0.12814373E+03</rscale>
<asrwt>0</asrwt>
<pdfrwt beam="1">  1        1 0.41168728E-01 0.14007833E+03</pdfrwt>
<pdfrwt beam="2">  1       -1 0.87510842E-02 0.14007833E+03</pdfrwt>
<totfact> 0.72371106E+03</totfact>
</mgrwt>
</event>
<event>
 6    1  0.4705246E-006  0.1328886E+03  0.7546771E-02  0.1235994E+00
          2   -1    0    0  501    0  0.00000000000E+00  0.00000000000E+00  0.62913559393E+03  0.62913559393E+03  0.00000000000E+00 0. -1.
         -2   -1    0    0    0  501 -0.00000000000E+00 -0.00000000000E+00 -0.22642578113E+02  0.22642578113E+02  0.00000000000E+00 0.  1.
          5    1    1    2  502    0  0.75159189200E+02  0.14008846244E+02  0.32302282974E+03  0.33198040609E+03  0.47000000000E+01 0.  1.
         -5    1    1    2    0  502 -0.42052167780E+02  0.16627935674E+02  0.75687245385E+02  0.88292254325E+02  0.47000000000E+01 0.  1.
        -11    1    1    2    0    0 -0.54797721546E+02 -0.39546591195E+02  0.96690144900E+02  0.11796485613E+03  0.00000000000E+00 0.  1.
         11    1    1    2    0    0  0.21690700125E+02  0.89098092764E+01  0.11109279579E+03  0.11354065550E+03  0.00000000000E+00 0. -1.
<mgrwt>
<rscale>  0 0.12440986E+03</rscale>
<asrwt>0</asrwt>
<pdfrwt beam="1">  1        2 0.96790078E-01 0.13288862E+03</pdfrwt>
<pdfrwt beam="2">  1       -2 0.34834740E-02 0.13288862E+03</pdfrwt>
<totfact> 0.15298811E+04</totfact>
</mgrwt>
</event>
<event>
 6    1  0.4705246E-006  0.1659820E+03  0.7546771E-02  0.1189012E+00
         -2   -1    0    0    0  501 -0.00000000000E+00  0.00000000000E+00  0.51856072281E+02  0.51856072281E+02  0.00000000000E+00 0.  1.
          2   -1    0    0  501    0  0.00000000000E+00 -0.00000000000E+00 -0.46010921645E+03  0.46010921645E+03  0.00000000000E+00 0. -1.
          5    1    1    2  502    0 -0.10966050453E+03  0.42557765610E+02 -0.15646238560E+03  0.19580387579E+03  0.47000000000E+01 0.  1.
         -5    1    1    2    0  502  0.55858707994E+00 -0.47418050662E+02 -0.79523198486E+02  0.92708212395E+02  0.47000000000E+01 0.  1.
        -11    1    1    2    0    0  0.85436568305E+02 -0.98084038778E+01 -0.53086991218E+02  0.10106354747E+03  0.00000000000E+00 0.  1.
         11    1    1    2    0    0  0.23665349144E+02  0.14668688929E+02 -0.11918056887E+03  0.12238965308E+03  0.00000000000E+00 0. -1.
<mgrwt>
<rscale>  0 0.15972132E+03</rscale>
<asrwt>0</asrwt>
<pdfrwt beam="2">  1        2 0.70786035E-01 0.16598201E+03</pdfrwt>
<pdfrwt beam="1">  1       -2 0.79778571E-02 0.16598201E+03</pdfrwt>
<totfact> 0.62974222E+03</totfact>
</mgrwt>
</event>
<event>
 6    1  0.4705246E-006  0.1315068E+03  0.7546771E-02  0.1238437E+00
         -2   -1    0    0    0  501 -0.00000000000E+00  0.00000000000E+00  0.21014213999E+02  0.21014213999E+02  0.00000000000E+00 0.  1.
          2   -1    0    0  501    0  0.00000000000E+00 -0.00000000000E+00 -0.64626498745E+03  0.64626498745E+03  0.00000000000E+00 0. -1.
          5    1    1    2  502    0  0.35070416436E+02 -0.56755430555E+02 -0.26733649974E+03  0.27557577379E+03  0.47000000000E+01 0. -1.
         -5    1    1    2    0  502 -0.54674288540E+02  0.20902687001E+02 -0.12256786082E+03  0.13590868500E+03  0.47000000000E+01 0. -1.
        -11    1    1    2    0    0  0.43086891919E+02 -0.87819215365E+01 -0.15333960911E+03  0.15952002421E+03  0.00000000000E+00 0. -1.
         11    1    1    2    0    0 -0.23483019815E+02  0.44634665090E+02 -0.82006803775E+02  0.96274718450E+02  0.00000000000E+00 0.  1.
<mgrwt>
<rscale>  0 0.12286955E+03</rscale>
<asrwt>0</asrwt>
<pdfrwt beam="2">  1        2 0.99425395E-01 0.13150684E+03</pdfrwt>
<pdfrwt beam="1">  1       -2 0.32329556E-02 0.13150684E+03</pdfrwt>
<totfact> 0.16543748E+04</totfact>
</mgrwt>
</event>
<event>
 6    1  0.4705246E-006  0.2264965E+03  0.7546771E-02  0.1132425E+00
          2   -1    0    0  501    0  0.00000000000E+00  0.00000000000E+00  0.21960337473E+03  0.21960337473E+03  0.00000000000E+00 0. -1.
         -2   -1    0    0    0  501 -0.00000000000E+00 -0.00000000000E+00 -0.23590921027E+03  0.23590921027E+03  0.00000000000E+00 0.  1.
          5    1    1    2  502    0  0.56370260040E+02 -0.77284063418E+02  0.12667122936E+02  0.96607342779E+02  0.47000000000E+01 0. -1.
         -5    1    1    2    0  502 -0.65934769733E+02 -0.11135354136E+03  0.45287577934E+02  0.13718622288E+03  0.47000000000E+01 0. -1.
        -11    1    1    2    0    0 -0.13674291033E+02  0.10069041564E+03 -0.81790209760E+02  0.13044226481E+03  0.00000000000E+00 0.  1.
         11    1    1    2    0    0  0.23238800726E+02  0.87947189134E+02  0.75296733483E+01  0.91276754524E+02  0.00000000000E+00 0. -1.
<mgrwt>
<rscale>  0 0.22196659E+03</rscale>
<asrwt>0</asrwt>
<pdfrwt beam="1">  1        2 0.33785135E-01 0.22649654E+03</pdfrwt>
<pdfrwt beam="2">  1       -2 0.36293725E-01 0.22649654E+03</pdfrwt>
<totfact> 0.11000090E+03</totfact>
</mgrwt>
</event>
<event>
 6    1  0.4705246E-006  0.1537545E+03  0.7546771E-02  0.1204992E+00
         -2   -1    0    0    0  501 -0.00000000000E+00  0.00000000000E+00  0.66900302783E+02  0.66900302783E+02  0.00000000000E+00 0.  1.
          2   -1    0    0  501    0  0.00000000000E+00 -0.00000000000E+00 -0.34138589835E+03  0.34138589835E+03  0.00000000000E+00 0. -1.
          5    1    1    2  502    0 -0.17979167862E+02 -0.12898794043E+02  0.10006036525E+02  0.24735402396E+02  0.47000000000E+01 0.  1.
         -5    1    1    2    0  502 -0.67401851954E+02  0.39855175114E+02 -0.23524067189E+03  0.24797521720E+03  0.47000000000E+01 0.  1.
        -11    1    1    2    0    0  0.80949888171E+02 -0.42577332253E+02 -0.86790428933E+01  0.91875129400E+02  0.00000000000E+00 0.  1.
         11    1    1    2    0    0  0.44311316446E+01  0.15620951182E+02 -0.40571917301E+02  0.43700452137E+02  0.00000000000E+00 0. -1.
<mgrwt>
<rscale>  0 0.14638050E+03</rscale>
<asrwt>0</asrwt>
<pdfrwt beam="2">  1        2 0.52520908E-01 0.15375448E+03</pdfrwt>
<pdfrwt beam="1">  1       -2 0.10292354E-01 0.15375448E+03</pdfrwt>
<totfact> 0.58029305E+03</totfact>
</mgrwt>
</event>
<event>
 6    1  0.4705246E-006  0.1733913E+03  0.7546771E-02  0.1180618E+00
          1   -1    0    0  501    0  0.00000000000E+00  0.00000000000E+00  0.10084307638E+04  0.10084307638E+04  0.00000000000E+00 0. -1.
         -1   -1    0    0    0  501 -0.00000000000E+00 -0.00000000000E+00 -0.26799196868E+02  0.26799196868E+02  0.00000000000E+00 0.  1.
          5    1    1    2  502    0 -0.12908649777E+02 -0.28456920268E+02  0.20764934797E+03  0.21003992778E+03  0.47000000000E+01 0.  1.
         -5    1    1    2    0  502 -0.72731345562E+02  0.11276436042E+03  0.40523460537E+03  0.42689908058E+03  0.47000000000E+01 0.  1.
        -11    1    1    2    0    0  0.87496514322E+01  0.19435108287E+02  0.47565955354E+02  0.52122931067E+02  0.00000000000E+00 0. -1.
         11    1    1    2    0    0  0.76890343907E+02 -0.10374254844E+03  0.32118165827E+03  0.34616802127E+03  0.00000000000E+00 0.  1.
<mgrwt>
<rscale>  0 0.16737098E+03</rscale>
<asrwt>0</asrwt>
<pdfrwt beam="1">  1        1 0.15514317E+00 0.17339135E+03</pdfrwt>
<pdfrwt beam="2">  1       -1 0.41229541E-02 0.17339135E+03</pdfrwt>
<totfact> 0.36619024E+03</totfact>
</mgrwt>
</event>
<event>
 6    1  0.4705246E-006  0.4129970E+03  0.7546771E-02  0.1040123E+00
         -1   -1    0    0    0  501 -0.00000000000E+00  0.00000000000E+00  0.16795880937E+03  0.16795880937E+03  0.00000000000E+00 0.  1.
          1   -1    0    0  501    0  0.00000000000E+00 -0.00000000000E+00 -0.12725583177E+04  0.12725583177E+04  0.00000000000E+00 0. -1.
          5    1    1    2  502    0 -0.14414211269E+03 -0.22290678319E+03 -0.53175289250E+03  0.59434637319E+03  0.47000000000E+01 0.  1.
         -5    1    1    2    0  502 -0.13491396406E+03 -0.54704246425E+02 -0.36246036803E+03  0.39063274398E+03  0.47000000000E+01 0.  1.
        -11    1    1    2    0    0  0.21885222476E+03  0.24859804937E+03 -0.14340369574E+03  0.36091814360E+03  0.00000000000E+00 0.  1.
         11    1    1    2    0    0  0.60203851994E+02  0.29012980251E+02 -0.66982552064E+02  0.94619866301E+02  0.00000000000E+00 0. -1.
<mgrwt>
<rscale>  0 0.41074061E+03</rscale>
<asrwt>0</asrwt>
<pdfrwt beam="2">  1        1 0.19577821E+00 0.41299698E+03</pdfrwt>
<pdfrwt beam="1">  1       -1 0.25839816E-01 0.41299698E+03</pdfrwt>
<totfact> 0.13225121E+02</totfact>
</mgrwt>
</event>
<event>
 6    1  0.4705246E-006  0.2176251E+03  0.7546771E-02  0.1139105E+00
         -1   -1    0    0    0  501 -0.00000000000E+00  0.00000000000E+00  0.80380726351E+02  0.80380726351E+02  0.00000000000E+00 0.  1.
          1   -1    0    0  501    0  0.00000000000E+00 -0.00000000000E+00 -0.56140762456E+03  0.56140762456E+03  0.00000000000E+00 0. -1.
          5    1    1    2  502    0 -0.54646048396E+02 -0.27341850718E+02 -0.22601511356E+03  0.23417661917E+03  0.47000000000E+01 0. -1.
         -5    1    1    2    0  502 -0.10254538576E+03 -0.56483965891E+02 -0.82198245637E+02  0.14312454761E+03  0.47000000000E+01 0. -1.
        -11    1    1    2    0    0  0.86596477607E+02  0.22855872027E+02 -0.31057452788E+02  0.94794019820E+02  0.00000000000E+00 0.  1.
         11    1    1    2    0    0  0.70594956551E+02  0.60969944581E+02 -0.14175608622E+03  0.16969316431E+03  0.00000000000E+00 0. -1.
<mgrwt>
<rscale>  0 0.21313750E+03</rscale>
<asrwt>0</asrwt>
<pdfrwt beam="2">  1        1 0.86370400E-01 0.21762513E+03</pdfrwt>
<pdfrwt beam="1">  1       -1 0.12366266E-01 0.21762513E+03</pdfrwt>
<totfact> 0.16788172E+03</totfact>
</mgrwt>
</event>
<event>
 6    1  0.4705246E-006  0.1273094E+03  0.7546771E-02  0.1244971E+00
          1   -1    0    0  501    0  0.00000000000E+00  0.00000000000E+00  0.30936656161E+02  0.30936656161E+02  0.00000000000E+00 0. -1.
         -1   -1    0    0    0  501 -0.00000000000E+00 -0.00000000000E+00 -0.41160094930E+03  0.41160094930E+03  0.00000000000E+00 0.  1.
          5    1    1    2  502    0  0.31515441615E+02 -0.40222561002E+02 -0.94960942357E+02  0.10793863093E+03  0.47000000000E+01 0. -1.
         -5    1    1    2    0  502 -0.39467191550E+02  0.63014372677E+02 -0.94809441876E+02  0.12057939559E+03  0.47000000000E+01 0. -1.
        -11    1    1    2    0    0 -0.25657974120E+02 -0.42682733526E+02 -0.14729613940E+03  0.15548729871E+03  0.00000000000E+00 0.  1.
         11    1    1    2    0    0  0.33609724055E+02  0.19890921851E+02 -0.43597769504E+02  0.58532280229E+02  0.00000000000E+00 0. -1.
<mgrwt>
<rscale>  0 0.11887143E+03</rscale>
<asrwt>0</asrwt>
<pdfrwt beam="1">  1        1 0.47594855E-02 0.12730943E+03</pdfrwt>
<pdfrwt beam="2">  1       -1 0.63323224E-01 0.12730943E+03</pdfrwt>
<totfact> 0.44425665E+03</totfact>
</mgrwt>
</event>
<event>
 6    1  0.4705246E-006  0.1685442E+03  0.7546771E-02  0.1186081E+00
          2   -1    0    0  501    0  0.00000000000E+00  0.00000000000E+00  0.57906880108E+03  0.57906880108E+03  0.00000000000E+00 0. -1.
         -2   -1    0    0    0  501 -0.00000000000E+00 -0.00000000000E+00 -0.42503106507E+02  0.42503106507E+02  0.00000000000E+00 0.  1.
          5    1    1    2  502    0 -0.26816523451E+02  0.56694897744E+02  0.18672655064E+03  0.19703383484E+03  0.47000000000E+01 0. -1.
         -5    1    1    2    0  502 -0.84852788362E+02 -0.39023502085E+02  0.11149308126E+03  0.14551847504E+03  0.47000000000E+01 0. -1.
        -11    1    1    2    0    0  0.63075147260E+02 -0.54791964783E+02  0.12779618539E+03  0.15268431028E+03  0.00000000000E+00 0.  1.
         11    1    1    2    0    0  0.48594164553E+02  0.37120569124E+02  0.11054987728E+03  0.12633528742E+03  0.00000000000E+00 0. -1.
<mgrwt>
<rscale>  0 0.16233942E+03</rscale>
<asrwt>0</asrwt>
<pdfrwt beam="1">  1        2 0.89087502E-01 0.16854417E+03</pdfrwt>
<pdfrwt beam="2">  1       -2 0.65389399E-02 0.16854417E+03</pdfrwt>
<totfact> 0.66293968E+03</totfact>
</mgrwt>
</event>
<event>
 6    1  0.4705246E-006  0.1389257E+03  0.7546771E-02  0.1229720E+00
         -2   -1    0    0    0  501 -0.00000000000E+00  0.00000000000E+00  0.39196758402E+03  0.39196758402E+03  0.00000000000E+00 0.  1.
          2   -1    0    0  501    0  0.00000000000E+00 -0.00000000000E+00 -0.70441865675E+02  0.70441865675E+02  0.00000000000E+00 0. -1.
          5    1    1    2  502    0  0.20369681549E+02 -0.10496211998E+02 -0.54634851509E+02  0.59431905506E+02  0.47000000000E+01 0. -1.
         -5    1    1    2    0  502 -0.38657971360E+02  0.66847149374E+01  0.69946362962E+02  0.80334972802E+02  0.47000000000E+01 0.  1.
        -11    1    1    2    0    0  0.37064202380E+02  0.41151127279E+02  0.21954164742E+03  0.22641931306E+03  0.00000000000E+00 0.  1.
         11    1    1    2    0    0 -0.18775912568E+02 -0.37339630218E+02  0.86672559469E+02  0.96223258324E+02  0.00000000000E+00 0. -1.
<mgrwt>
<rscale>  0 0.12848579E+03</rscale>
<asrwt>0</asrwt>
<pdfrwt beam="2">  1        2 0.10837210E-01 0.13892566E+03</pdfrwt>
<pdfrwt beam="1">  1       -2 0.60302704E-01 0.13892566E+03</pdfrwt>
<totfact> 0.14749220E+03</totfact>
</mgrwt>
</event>
<event>
 6    1  0.4705246E-006  0.1372733E+03  0.7546771E-02  0.1228739E+00
         -2   -1    0    0    0  501 -0.00000000000E+00  0.00000000000E+00  0.14929307834E+02  0.14929307834E+02  0.00000000000E+00 0.  1.
          2   -1    0    0  501    0  0.00000000000E+00 -0.00000000000E+00 -0.13035192350E+04  0.13035192350E+04  0.00000000000E+00 0. -1.
          5    1    1    2  502    0 -0.50565189047E+01  0.18879636683E+02 -0.19602120718E+02  0.28077432243E+02  0.47000000000E+01 0.  1.
         -5    1    1    2    0  502  0.24470590917E+01  0.37801863762E+02 -0.99948475016E+03  0.10002133896E+04  0.47000000000E+01 0.  1.
        -11    1    1    2    0    0 -0.18984255228E+02 -0.12285921790E+02 -0.79246680537E+01  0.23961347720E+02  0.00000000000E+00 0.  1.
         11    1    1    2    0    0  0.21593715041E+02 -0.44395578655E+02 -0.26157838828E+03  0.26619637328E+03  0.00000000000E+00 0. -1.
<mgrwt>
<rscale>  0 0.12913902E+03</rscale>
<asrwt>0</asrwt>
<pdfrwt beam="2">  1        2 0.20054143E+00 0.13727332E+03</pdfrwt>
<pdfrwt beam="1">  1       -2 0.22968165E-02 0.13727332E+03</pdfrwt>
<totfact> 0.10683652E+04</totfact>
</mgrwt>
</event>
<event>
 6    1  0.4705246E-006  0.1646973E+03  0.7546771E-02  0.1189369E+00
          1   -1    0    0  501    0  0.00000000000E+00  0.00000000000E+00  0.13888127237E+03  0.13888127237E+03  0.00000000000E+00 0. -1.
         -1   -1    0    0    0  501 -0.00000000000E+00 -0.00000000000E+00 -0.17618806428E+03  0.17618806428E+03  0.00000000000E+00 0.  1.
          5    1    1    2  502    0 -0.14168215186E+02 -0.56565828463E+02  0.59611065387E+02  0.83522454393E+02  0.47000000000E+01 0.  1.
         -5    1    1    2    0  502 -0.52097764054E+02 -0.27772474256E+02 -0.55585624314E+02  0.81224004925E+02  0.47000000000E+01 0.  1.
        -11    1    1    2    0    0  0.76977459328E+02  0.55166977458E+02 -0.61825046812E+02  0.11309845737E+03  0.00000000000E+00 0.  1.
         11    1    1    2    0    0 -0.10711480088E+02  0.29171325261E+02  0.20492813820E+02  0.37224419961E+02  0.00000000000E+00 0. -1.
<mgrwt>
<rscale>  0 0.15940558E+03</rscale>
<asrwt>0</asrwt>
<pdfrwt beam="1">  1        1 0.21366350E-01 0.16469727E+03</pdfrwt>
<pdfrwt beam="2">  1       -1 0.27105856E-01 0.16469727E+03</pdfrwt>
<totfact> 0.27794012E+03</totfact>
</mgrwt>
</event>
<event>
 6    1  0.4705246E-006  0.1344476E+03  0.7546771E-02  0.1237485E+00
          1   -1    0    0  501    0  0.00000000000E+00  0.00000000000E+00  0.60146936748E+02  0.60146936748E+02  0.00000000000E+00 0. -1.
         -1   -1    0    0    0  501 -0.00000000000E+00 -0.00000000000E+00 -0.23101002227E+03  0.23101002227E+03  0.00000000000E+00 0.  1.
          5    1    1    2  502    0 -0.76037383881E+02 -0.26617692435E+02 -0.39166067216E+02  0.89700925966E+02  0.47000000000E+01 0.  1.
         -5    1    1    2    0  502  0.29833845652E+02  0.44425429537E+02 -0.28654202677E+02  0.60883745508E+02  0.47000000000E+01 0.  1.
        -11    1    1    2    0    0  0.19132929836E+02 -0.37864802697E+02 -0.97629686498E+02  0.10644889841E+03  0.00000000000E+00 0.  1.
         11    1    1    2    0    0  0.27070608392E+02  0.20057065594E+02 -0.54131291330E+01  0.34123389134E+02  0.00000000000E+00 0. -1.
<mgrwt>
<rscale>  0 0.12346656E+03</rscale>
<asrwt>0</asrwt>
<pdfrwt beam="1">  1        1 0.92533748E-02 0.13444759E+03</pdfrwt>
<pdfrwt beam="2">  1       -1 0.35540004E-01 0.13444759E+03</pdfrwt>
<totfact> 0.51699063E+03</totfact>
</mgrwt>
</event>
<event>
 6    1  0.4705246E-006  0.1622095E+03  0.7546771E-02  0.1194130E+00
          1   -1    0    0  501    0  0.00000000000E+00  0.00000000000E+00  0.14409023874E+03  0.14409023874E+03  0.00000000000E+00 0. -1.
         -1   -1    0    0    0  501 -0.00000000000E+00 -0.00000000000E+00 -0.16520933464E+03  0.16520933464E+03  0.00000000000E+00 0.  1.
          5    1    1    2  502    0  0.39489395219E+02  0.21183363427E+02 -0.26231868515E+02  0.52137780415E+02  0.47000000000E+01 0. -1.
         -5    1    1    2    0  502  0.36182687505E+02 -0.91613790348E+02  0.54006358196E+02  0.11243242496E+03  0.47000000000E+01 0. -1.
        -11    1    1    2    0    0 -0.62241717481E+02  0.87882946205E+02 -0.21905756361E+02  0.10989679609E+03  0.00000000000E+00 0. -1.
         11    1    1    2    0    0 -0.13430365243E+02 -0.17452519284E+02 -0.26987829219E+02  0.34832571910E+02  0.00000000000E+00 0.  1.
<mgrwt>
<rscale>  0 0.15528083E+03</rscale>
<asrwt>0</asrwt>
<pdfrwt beam="1">  1        1 0.22167729E-01 0.16220953E+03</pdfrwt>
<pdfrwt beam="2">  1       -1 0.25416821E-01 0.16220953E+03</pdfrwt>
<totfact> 0.29492103E+03</totfact>
</mgrwt>
</event>
<event>
 6    1  0.4705246E-006  0.1680792E+03  0.7546771E-02  0.1187988E+00
          2   -1    0    0  501    0  0.00000000000E+00  0.00000000000E+00  0.40710746790E+03  0.40710746790E+03  0.00000000000E+00 0. -1.
         -2   -1    0    0    0  501 -0.00000000000E+00 -0.00000000000E+00 -0.62430317258E+02  0.62430317258E+02  0.00000000000E+00 0.  1.
          5    1    1    2  502    0  0.18856640647E+02  0.65152184094E+02  0.22878183305E+03  0.23867047811E+03  0.47000000000E+01 0. -1.
         -5    1    1    2    0  502  0.56181914854E+02  0.87230466415E+01  0.17826599761E+02  0.59769363042E+02  0.47000000000E+01 0.  1.
        -11    1    1    2    0    0 -0.22419630041E+02  0.21479454885E+02  0.17641683578E+02  0.35710443749E+02  0.00000000000E+00 0. -1.
         11    1    1    2    0    0 -0.52618925460E+02 -0.95354685620E+02  0.80427034253E+02  0.13538750025E+03  0.00000000000E+00 0.  1.
<mgrwt>
<rscale>  0 0.16062947E+03</rscale>
<asrwt>0</asrwt>
<pdfrwt beam="1">  1        2 0.62631916E-01 0.16807921E+03</pdfrwt>
<pdfrwt beam="2">  1       -2 0.96046645E-02 0.16807921E+03</pdfrwt>
<totfact> 0.53850275E+03</totfact>
</mgrwt>
</event>
<event>
 6    1  0.4705246E-006  0.5326998E+03  0.7546771E-02  0.1005579E+00
          2   -1    0    0  501    0  0.00000000000E+00  0.00000000000E+00  0.24796136028E+03  0.24796136028E+03  0.00000000000E+00 0. -1.
         -2   -1    0    0    0  501 -0.00000000000E+00 -0.00000000000E+00 -0.28610211376E+03  0.28610211376E+03  0.00000000000E+00 0.  1.
          5    1    1    2  502    0  0.11657262149E+03 -0.10455978730E+03  0.17252170641E+02  0.15761234911E+03  0.47000000000E+01 0. -1.
         -5    1    1    2    0  502  0.85446439096E+02  0.22868653699E+02  0.53065973889E+02  0.10325772059E+03  0.47000000000E+01 0. -1.
        -11    1    1    2    0    0 -0.10654552869E+03  0.65251167136E+02 -0.12288828317E+03  0.17524609735E+03  0.00000000000E+00 0.  1.
         11    1    1    2    0    0 -0.95473531897E+02  0.16439966465E+02  0.14429385162E+02  0.97947306989E+02  0.00000000000E+00 0. -1.
<mgrwt>
<rscale>  0 0.53269980E+03</rscale>
<asrwt>0</asrwt>
<pdfrwt beam="1">  1        2 0.38147902E-01 0.53269980E+03</pdfrwt>
<pdfrwt beam="2">  1       -2 0.44015710E-01 0.53269980E+03</pdfrwt>
<totfact> 0.66877221E+02</totfact>
</mgrwt>
</event>
<event>
 6    1  0.4705246E-006  0.1320110E+03  0.7546771E-02  0.1237794E+00
          1   -1    0    0  501    0  0.00000000000E+00  0.00000000000E+00  0.28617860675E+02  0.28617860675E+02  0.00000000000E+00 0. -1.
         -1   -1    0    0    0  501 -0.00000000000E+00 -0.00000000000E+00 -0.48644505077E+03  0.48644505077E+03  0.00000000000E+00 0.  1.
          5    1    1    2  502    0  0.28769700912E+00  0.85458331831E+02 -0.12884400623E+03  0.15468056501E+03  0.47000000000E+01 0.  1.
         -5    1    1    2    0  502 -0.10881936955E+02 -0.44340030750E+02 -0.85960155794E+02  0.97445847849E+02  0.47000000000E+01 0.  1.
        -11    1    1    2    0    0  0.38711504122E+02 -0.51794291500E+02 -0.12024818838E+03  0.13653152014E+03  0.00000000000E+00 0. -1.
         11    1    1    2    0    0 -0.28117264176E+02  0.10675990419E+02 -0.12277483969E+03  0.12640497845E+03  0.00000000000E+00 0.  1.
<mgrwt>
<rscale>  0 0.12327227E+03</rscale>
<asrwt>0</asrwt>
<pdfrwt beam="1">  1        1 0.44027480E-02 0.13201098E+03</pdfrwt>
<pdfrwt beam="2">  1       -1 0.74837696E-01 0.13201098E+03</pdfrwt>
<totfact> 0.35692917E+03</totfact>
</mgrwt>
</event>
<event>
 6    1  0.4705246E-006  0.1269798E+03  0.7546771E-02  0.1246868E+00
         -3   -1    0    0    0  501 -0.00000000000E+00  0.00000000000E+00  0.49627626855E+03  0.49627626855E+03  0.00000000000E+00 0.  1.
          3   -1    0    0  501    0  0.00000000000E+00 -0.00000000000E+00 -0.37902128418E+02  0.37902128418E+02  0.00000000000E+00 0. -1.
          5    1    1    2  502    0 -0.63056886334E+02 -0.34151207046E+02  0.55983684041E+02  0.91097413441E+02  0.47000000000E+01 0. -1.
         -5    1    1    2    0  502  0.52966332500E+02  0.14219561325E+02  0.38230603141E+02  0.67017141981E+02  0.47000000000E+01 0. -1.
        -11    1    1    2    0    0  0.15535660014E+02 -0.32049638209E+02  0.86811105093E+02  0.93833384298E+02  0.00000000000E+00 0. -1.
         11    1    1    2    0    0 -0.54451061804E+01  0.51981283930E+02  0.27734874785E+03  0.28223045724E+03  0.00000000000E+00 0.  1.
<mgrwt>
<rscale>  0 0.11774244E+03</rscale>
<asrwt>0</asrwt>
<pdfrwt beam="2">  1        3 0.58310970E-02 0.12697984E+03</pdfrwt>
<pdfrwt beam="1">  1       -3 0.76350191E-01 0.12697984E+03</pdfrwt>
<totfact> 0.67388184E+02</totfact>
</mgrwt>
</event>
<event>
 6    1  0.4705246E-006  0.1169799E+03  0.7546771E-02  0.1259019E+00
         -2   -1    0    0    0  501 -0.00000000000E+00  0.00000000000E+00  0.68318648159E+02  0.68318648159E+02  0.00000000000E+00 0.  1.
          2   -1    0    0  501    0  0.00000000000E+00 -0.00000000000E+00 -0.16657390249E+03  0.16657390249E+03  0.00000000000E+00 0. -1.
          5    1    1    2  502    0 -0.70300084345E+02 -0.62439345105E+01 -0.49092428466E+02  0.86100203889E+02  0.47000000000E+01 0. -1.
         -5    1    1    2    0  502  0.44977805399E+02  0.67606430411E+01 -0.21484179998E+02  0.50520978445E+02  0.47000000000E+01 0.  1.
        -11    1    1    2    0    0  0.44274488218E+02  0.33332440003E+02 -0.18270153002E+02  0.58353066365E+02  0.00000000000E+00 0.  1.
         11    1    1    2    0    0 -0.18952209273E+02 -0.33849148534E+02 -0.94084928674E+01  0.39918301953E+02  0.00000000000E+00 0. -1.
<mgrwt>
<rscale>  0 0.11084168E+03</rscale>
<asrwt>0</asrwt>
<pdfrwt beam="2">  1        2 0.25626754E-01 0.11697987E+03</pdfrwt>
<pdfrwt beam="1">  1       -2 0.10510561E-01 0.11697987E+03</pdfrwt>
<totfact> 0.11875100E+04</totfact>
</mgrwt>
</event>
<event>
 6    1  0.4705246E-006  0.3379912E+03  0.7546771E-02  0.1067655E+00
         -4   -1    0    0    0  501 -0.00000000000E+00  0.00000000000E+00  0.12350059007E+03  0.12350059007E+03  0.00000000000E+00 0.  1.
          4   -1    0    0  501    0  0.00000000000E+00 -0.00000000000E+00 -0.23124999870E+03  0.23124999870E+03  0.00000000000E+00 0. -1.
          5    1    1    2  502    0  0.52281203703E+02 -0.85514713589E+02  0.34307857891E+02  0.10604343268E+03  0.47000000000E+01 0. -1.
         -5    1    1    2    0  502  0.12386643063E+02 -0.24711093820E+02 -0.71153668113E+02  0.76478765485E+02  0.47000000000E+01 0. -1.
        -11    1    1    2    0    0  0.63350337260E+01  0.71776682272E+02 -0.53195665924E+02  0.89564522236E+02  0.00000000000E+00 0.  1.
         11    1    1    2    0    0 -0.71002880491E+02  0.38449125137E+02 -0.17707932484E+02  0.82663868375E+02  0.00000000000E+00 0. -1.
<mgrwt>
<rscale>  0 0.33799119E+03</rscale>
<asrwt>0</asrwt>
<pdfrwt beam="2">  1        4 0.35576922E-01 0.33799119E+03</pdfrwt>
<pdfrwt beam="1">  1       -4 0.19000091E-01 0.33799119E+03</pdfrwt>
<totfact> 0.36358616E+02</totfact>
</mgrwt>
</event>
<event>
 6    1  0.4705246E-006  0.1335523E+03  0.7546771E-02  0.1235225E+00
          1   -1    0    0  501    0  0.00000000000E+00  0.00000000000E+00  0.69416222330E+02  0.69416222330E+02  0.00000000000E+00 0. -1.
         -1   -1    0    0    0  501 -0.00000000000E+00 -0.00000000000E+00 -0.20706432365E+03  0.20706432365E+03  0.00000000000E+00 0.  1.
          5    1    1    2  502    0  0.61330186583E+02  0.58065916193E+02 -0.82378773597E+01  0.84988205258E+02  0.47000000000E+01 0.  1.
         -5    1    1    2    0  502 -0.30523752828E+02 -0.22539930653E+02 -0.44322089272E+02  0.58534481787E+02  0.47000000000E+01 0.  1.
        -11    1    1    2    0    0 -0.15381775094E+02 -0.49601063480E+02 -0.73315946074E+01  0.52446322872E+02  0.00000000000E+00 0. -1.
         11    1    1    2    0    0 -0.15424658661E+02  0.14075077940E+02 -0.77756540085E+02  0.80511536067E+02  0.00000000000E+00 0.  1.
<mgrwt>
<rscale>  0 0.12490062E+03</rscale>
<asrwt>0</asrwt>
<pdfrwt beam="1">  1        1 0.10679419E-01 0.13355228E+03</pdfrwt>
<pdfrwt beam="2">  1       -1 0.31856050E-01 0.13355228E+03</pdfrwt>
<totfact> 0.51504058E+03</totfact>
</mgrwt>
</event>
<event>
 6    1  0.4705246E-006  0.1591479E+03  0.7546771E-02  0.1197412E+00
         -1   -1    0    0    0  501 -0.00000000000E+00  0.00000000000E+00  0.57388389667E+02  0.57388389667E+02  0.00000000000E+00 0.  1.
          1   -1    0    0  501    0  0.00000000000E+00 -0.00000000000E+00 -0.39625544488E+03  0.39625544488E+03  0.00000000000E+00 0. -1.
          5    1    1    2  502    0 -0.68350921220E+02  0.65492273229E+02 -0.14857237911E+03  0.17622975946E+03  0.47000000000E+01 0. -1.
         -5    1    1    2    0  502  0.55258358036E+02  0.32129101940E+02 -0.86850844010E+02  0.10793944798E+03  0.47000000000E+01 0. -1.
        -11    1    1    2    0    0 -0.21158483267E+02 -0.28542228436E+02  0.55552430041E+01  0.35961103196E+02  0.00000000000E+00 0.  1.
         11    1    1    2    0    0  0.34251046451E+02 -0.69079146734E+02 -0.10899907510E+03  0.13351352392E+03  0.00000000000E+00 0. -1.
<mgrwt>
<rscale>  0 0.15251868E+03</rscale>
<asrwt>0</asrwt>
<pdfrwt beam="2">  1        1 0.60962377E-01 0.15914787E+03</pdfrwt>
<pdfrwt beam="1">  1       -1 0.88289829E-02 0.15914787E+03</pdfrwt>
<totfact> 0.44077257E+03</totfact>
</mgrwt>
</event>
<event>
 6    1  0.6895379E-006  0.1578638E+03  0.7546771E-02  0.1198525E+00
         -1   -1    0    0    0  501 -0.00000000000E+00  0.00000000000E+00  0.43330368707E+02  0.43330368707E+02  0.00000000000E+00 0.  1.
          1   -1    0    0  501    0  0.00000000000E+00 -0.00000000000E+00 -0.49306492970E+03  0.49306492970E+03  0.00000000000E+00 0. -1.
          5    1    1    2  502    0 -0.11522844773E+03 -0.83711171800E+01 -0.17375971561E+03  0.20871559486E+03  0.47000000000E+01 0.  1.
         -5    1    1    2    0  502  0.22464370905E+02  0.34653312388E+02 -0.79667747482E+02  0.89858444281E+02  0.47000000000E+01 0.  1.
        -11    1    1    2    0    0  0.72026929765E+02 -0.44661751699E+02 -0.74302318428E+02  0.11270929509E+03  0.00000000000E+00 0.  1.
         11    1    1    2    0    0  0.20737147063E+02  0.18379556491E+02 -0.12200477947E+03  0.12511196417E+03  0.00000000000E+00 0. -1.
<mgrwt>
<rscale>  0 0.15159634E+03</rscale>
<asrwt>0</asrwt>
<pdfrwt beam="2">  1        1 0.75856144E-01 0.15786380E+03</pdfrwt>
<pdfrwt beam="1">  1       -1 0.66662105E-02 0.15786380E+03</pdfrwt>
<totfact> 0.50878799E+03</totfact>
</mgrwt>
</event>
<event>
 6    1  0.4705246E-006  0.1512959E+03  0.7546771E-02  0.1206821E+00
         -2   -1    0    0    0  501 -0.00000000000E+00  0.00000000000E+00  0.14429268249E+02  0.14429268249E+02  0.00000000000E+00 0.  1.
          2   -1    0    0  501    0  0.00000000000E+00 -0.00000000000E+00 -0.13474902087E+04  0.13474902087E+04  0.00000000000E+00 0. -1.
          5    1    1    2  502    0 -0.41281485805E+02  0.65929806448E+02 -0.21173387524E+03  0.22561964536E+03  0.47000000000E+01 0.  1.
         -5    1    1    2    0  502 -0.31182961013E+02 -0.21042975585E+02 -0.53188511821E+03  0.53323451956E+03  0.47000000000E+01 0.  1.
        -11    1    1    2    0    0  0.73155308377E+02 -0.60724441035E+02 -0.57048694577E+03  0.57835500532E+03  0.00000000000E+00 0. -1.
         11    1    1    2    0    0 -0.69086155939E+00  0.15837610171E+02 -0.18955001206E+02  0.24710306683E+02  0.00000000000E+00 0.  1.
<mgrwt>
<rscale>  0 0.14494841E+03</rscale>
<asrwt>0</asrwt>
<pdfrwt beam="2">  1        2 0.20730618E+00 0.15129586E+03</pdfrwt>
<pdfrwt beam="1">  1       -2 0.22198875E-02 0.15129586E+03</pdfrwt>
<totfact> 0.10682085E+04</totfact>
</mgrwt>
</event>
<event>
 6    1  0.4705246E-006  0.1615031E+03  0.7546771E-02  0.1194659E+00
          2   -1    0    0  501    0  0.00000000000E+00  0.00000000000E+00  0.41068543346E+02  0.41068543346E+02  0.00000000000E+00 0. -1.
         -2   -1    0    0    0  501 -0.00000000000E+00 -0.00000000000E+00 -0.54039778753E+03  0.54039778753E+03  0.00000000000E+00 0.  1.
          5    1    1    2  502    0 -0.25561499454E+02  0.93418170753E+02 -0.13219395937E+03  0.16394413004E+03  0.47000000000E+01 0. -1.
         -5    1    1    2    0  502 -0.53836388466E+02 -0.28941719006E+02 -0.13500431653E+03  0.14827081743E+03  0.47000000000E+01 0. -1.
        -11    1    1    2    0    0  0.93535462956E+02 -0.50309000457E+02 -0.22350740798E+03  0.24745795558E+03  0.00000000000E+00 0.  1.
         11    1    1    2    0    0 -0.14137575036E+02 -0.14167451290E+02 -0.86235603128E+01  0.21793427826E+02  0.00000000000E+00 0. -1.
<mgrwt>
<rscale>  0 0.15483117E+03</rscale>
<asrwt>0</asrwt>
<pdfrwt beam="1">  1        2 0.63182375E-02 0.16150311E+03</pdfrwt>
<pdfrwt beam="2">  1       -2 0.83138121E-01 0.16150311E+03</pdfrwt>
<totfact> 0.14726324E+03</totfact>
</mgrwt>
</event>
<event>
 6    1  0.4705246E-006  0.1834650E+03  0.7546771E-02  0.1169549E+00
          1   -1    0    0  501    0  0.00000000000E+00  0.00000000000E+00  0.11526059516E+03  0.11526059516E+03  0.00000000000E+00 0. -1.
         -1   -1    0    0    0  501 -0.00000000000E+00 -0.00000000000E+00 -0.33641983061E+03  0.33641983061E+03  0.00000000000E+00 0.  1.
          5    1    1    2  502    0  0.13733749855E+02  0.52774321359E+02  0.46240122061E+02  0.71651823202E+02  0.47000000000E+01 0. -1.
         -5    1    1    2    0  502 -0.67715630686E+02  0.70188332955E+02 -0.54900080499E+02  0.11201748775E+03  0.47000000000E+01 0. -1.
        -11    1    1    2    0    0  0.39584086214E+02 -0.21270347281E+01 -0.35489062112E+02  0.53206180917E+02  0.00000000000E+00 0. -1.
         11    1    1    2    0    0  0.14397794617E+02 -0.12083561959E+03 -0.17701021490E+03  0.21480493390E+03  0.00000000000E+00 0.  1.
<mgrwt>
<rscale>  0 0.17820753E+03</rscale>
<asrwt>0</asrwt>
<pdfrwt beam="1">  1        1 0.17732400E-01 0.18346504E+03</pdfrwt>
<pdfrwt beam="2">  1       -1 0.51756896E-01 0.18346504E+03</pdfrwt>
<totfact> 0.11423851E+03</totfact>
</mgrwt>
</event>
<event>
 6    1  0.4705246E-006  0.1970776E+03  0.7546771E-02  0.1157494E+00
          2   -1    0    0  501    0  0.00000000000E+00  0.00000000000E+00  0.49771880071E+03  0.49771880071E+03  0.00000000000E+00 0.  1.
         -2   -1    0    0    0  501 -0.00000000000E+00 -0.00000000000E+00 -0.82588343107E+02  0.82588343107E+02  0.00000000000E+00 0. -1.
          5    1    1    2  502    0  0.11977671095E+03  0.24129663047E+02  0.13545976375E+03  0.18248325601E+03  0.47000000000E+01 0. -1.
         -5    1    1    2    0  502  0.13323259937E+02  0.50030630931E+02  0.19940531582E+03  0.20607072393E+03  0.47000000000E+01 0. -1.
        -11    1    1    2    0    0 -0.11113095326E+03 -0.92638892386E+02  0.60069581877E+02  0.15665378330E+03  0.00000000000E+00 0. -1.
         11    1    1    2    0    0 -0.21969017633E+02  0.18478598408E+02  0.20195796156E+02  0.35099380582E+02  0.00000000000E+00 0.  1.
<mgrwt>
<rscale>  0 0.19107600E+03</rscale>
<asrwt>0</asrwt>
<pdfrwt beam="1">  1        2 0.76572122E-01 0.19707758E+03</pdfrwt>
<pdfrwt beam="2">  1       -2 0.12705899E-01 0.19707758E+03</pdfrwt>
<totfact> 0.27835735E+03</totfact>
</mgrwt>
</event>
<event>
 6    1  0.4705246E-006  0.1312796E+03  0.7546771E-02  0.1239401E+00
          2   -1    0    0  501    0  0.00000000000E+00  0.00000000000E+00  0.43459484085E+03  0.43459484085E+03  0.00000000000E+00 0. -1.
         -2   -1    0    0    0  501 -0.00000000000E+00 -0.00000000000E+00 -0.30481253319E+02  0.30481253319E+02  0.00000000000E+00 0.  1.
          5    1    1    2  502    0 -0.20085265602E+02 -0.46563278675E+02  0.21497092940E+03  0.22092113367E+03  0.47000000000E+01 0.  1.
         -5    1    1    2    0  502 -0.19642071487E+02  0.40817439317E+02  0.23379523925E+02  0.51191468661E+02  0.47000000000E+01 0.  1.
        -11    1    1    2    0    0  0.59730801668E+02  0.29685825933E+02  0.10040092226E+03  0.12053780370E+03  0.00000000000E+00 0.  1.
         11    1    1    2    0    0 -0.20003464579E+02 -0.23939986574E+02  0.65362211940E+02  0.72425688136E+02  0.00000000000E+00 0. -1.
<mgrwt>
<rscale>  0 0.12226867E+03</rscale>
<asrwt>0</asrwt>
<pdfrwt beam="1">  1        2 0.66860740E-01 0.13127959E+03</pdfrwt>
<pdfrwt beam="2">  1       -2 0.46894239E-02 0.13127959E+03</pdfrwt>
<totfact> 0.14803708E+04</totfact>
</mgrwt>
</event>
<event>
 6    1  0.4705246E-006  0.1603546E+03  0.7546771E-02  0.1196259E+00
         -4   -1    0    0    0  501 -0.00000000000E+00  0.00000000000E+00  0.34560798518E+02  0.34560798518E+02  0.00000000000E+00 0.  1.
          4   -1    0    0  501    0  0.00000000000E+00 -0.00000000000E+00 -0.66275285589E+03  0.66275285589E+03  0.00000000000E+00 0. -1.
          5    1    1    2  502    0  0.37470388772E+01  0.21766091486E+02 -0.31505658860E+03  0.31586476071E+03  0.47000000000E+01 0. -1.
         -5    1    1    2    0  502 -0.40121546227E+02  0.71859116576E+02 -0.10323382685E+03  0.13210898574E+03  0.47000000000E+01 0. -1.
        -11    1    1    2    0    0  0.13567749394E+02 -0.22907744749E+02 -0.15418444418E+03  0.15646626288E+03  0.00000000000E+00 0. -1.
         11    1    1    2    0    0  0.22806757956E+02 -0.70717463313E+02 -0.55717197746E+02  0.92873645081E+02  0.00000000000E+00 0.  1.
<mgrwt>
<rscale>  0 0.15348148E+03</rscale>
<asrwt>0</asrwt>
<pdfrwt beam="2">  1        4 0.10196197E+00 0.16035463E+03</pdfrwt>
<pdfrwt beam="1">  1       -4 0.53170464E-02 0.16035463E+03</pdfrwt>
<totfact> 0.30349170E+02</totfact>
</mgrwt>
</event>
<event>
 6    1  0.4705246E-006  0.1311455E+03  0.7546771E-02  0.1239922E+00
          2   -1    0    0  501    0  0.00000000000E+00  0.00000000000E+00  0.66035424611E+03  0.66035424611E+03  0.00000000000E+00 0. -1.
         -2   -1    0    0    0  501 -0.00000000000E+00 -0.00000000000E+00 -0.20515076057E+02  0.20515076057E+02  0.00000000000E+00 0.  1.
          5    1    1    2  502    0 -0.71256872288E+01 -0.10147244187E+02 -0.46255820674E+01  0.14043788397E+02  0.47000000000E+01 0.  1.
         -5    1    1    2    0  502  0.10451787584E+02 -0.29401526346E+02  0.42837322303E+03  0.42953393094E+03  0.47000000000E+01 0.  1.
        -11    1    1    2    0    0  0.15651527485E+02 -0.41094408331E+01  0.16823131206E+00  0.16182895858E+02  0.00000000000E+00 0.  1.
         11    1    1    2    0    0 -0.18977627840E+02  0.43658211366E+02  0.21592329777E+03  0.22110870697E+03  0.00000000000E+00 0. -1.
<mgrwt>
<rscale>  0 0.12194536E+03</rscale>
<asrwt>0</asrwt>
<pdfrwt beam="1">  1        2 0.10159294E+00 0.13114545E+03</pdfrwt>
<pdfrwt beam="2">  1       -2 0.31561661E-02 0.13114545E+03</pdfrwt>
<totfact> 0.16711797E+04</totfact>
</mgrwt>
</event>
<event>
 6    1  0.4705246E-006  0.1283126E+03  0.7546771E-02  0.1243241E+00
          2   -1    0    0  501    0  0.00000000000E+00  0.00000000000E+00  0.35447503003E+02  0.35447503003E+02  0.00000000000E+00 0. -1.
         -2   -1    0    0    0  501 -0.00000000000E+00 -0.00000000000E+00 -0.41159489718E+03  0.41159489718E+03  0.00000000000E+00 0.  1.
          5    1    1    2  502    0  0.11441870557E+02  0.23689991117E+02 -0.12780254384E+03  0.13056688819E+03  0.47000000000E+01 0. -1.
         -5    1    1    2    0  502 -0.10828357211E+02 -0.52277593951E+02 -0.45708923535E+01  0.53788318492E+02  0.47000000000E+01 0. -1.
        -11    1    1    2    0    0 -0.37596698681E+02  0.23423259084E+02 -0.20137137348E+03  0.20618581638E+03  0.00000000000E+00 0.  1.
         11    1    1    2    0    0  0.36983185335E+02  0.51643437500E+01 -0.42402584507E+02  0.56501377122E+02  0.00000000000E+00 0. -1.
<mgrwt>
<rscale>  0 0.11991290E+03</rscale>
<asrwt>0</asrwt>
<pdfrwt beam="1">  1        2 0.54534617E-02 0.12831257E+03</pdfrwt>
<pdfrwt beam="2">  1       -2 0.63322296E-01 0.12831257E+03</pdfrwt>
<totfact> 0.31493317E+03</totfact>
</mgrwt>
</event>
<event>
 6    1  0.4705246E-006  0.1296650E+03  0.7546771E-02  0.1238887E+00
         -2   -1    0    0    0  501 -0.00000000000E+00  0.00000000000E+00  0.10604606711E+03  0.10604606711E+03  0.00000000000E+00 0.  1.
          2   -1    0    0  501    0  0.00000000000E+00 -0.00000000000E+00 -0.13722186284E+03  0.13722186284E+03  0.00000000000E+00 0. -1.
          5    1    1    2  502    0 -0.36238517051E+02  0.44622129321E+02  0.19311646347E+02  0.60822645683E+02  0.47000000000E+01 0.  1.
         -5    1    1    2    0  502  0.36502358397E+02 -0.10161370351E+02 -0.67417732838E+02  0.77478489383E+02  0.47000000000E+01 0.  1.
        -11    1    1    2    0    0 -0.23819467083E+02  0.26699292508E+02 -0.43860101845E+01  0.36047972452E+02  0.00000000000E+00 0. -1.
         11    1    1    2    0    0  0.23555625737E+02 -0.61160051478E+02  0.21316300946E+02  0.68918822441E+02  0.00000000000E+00 0.  1.
<mgrwt>
<rscale>  0 0.12258831E+03</rscale>
<asrwt>0</asrwt>
<pdfrwt beam="2">  1        2 0.21111056E-01 0.12966499E+03</pdfrwt>
<pdfrwt beam="1">  1       -2 0.16314780E-01 0.12966499E+03</pdfrwt>
<totfact> 0.73208328E+03</totfact>
</mgrwt>
</event>
<event>
 6    1  0.4705246E-006  0.1988919E+03  0.7546771E-02  0.1154663E+00
          2   -1    0    0  501    0  0.00000000000E+00  0.00000000000E+00  0.11622731830E+04  0.11622731830E+04  0.00000000000E+00 0. -1.
         -2   -1    0    0    0  501 -0.00000000000E+00 -0.00000000000E+00 -0.32699552679E+02  0.32699552679E+02  0.00000000000E+00 0.  1.
          5    1    1    2  502    0  0.10601090085E+03  0.51031949092E+02  0.63590495811E+03  0.64671460218E+03  0.47000000000E+01 0. -1.
         -5    1    1    2    0  502  0.67563059673E+01  0.54870475125E+02  0.88129701263E+02  0.10414101476E+03  0.47000000000E+01 0. -1.
        -11    1    1    2    0    0 -0.40113480856E+02 -0.23115390101E+02  0.36392870127E+02  0.58888484460E+02  0.00000000000E+00 0.  1.
         11    1    1    2    0    0 -0.72653725961E+02 -0.82787034116E+02  0.36914610080E+03  0.38522863425E+03  0.00000000000E+00 0. -1.
<mgrwt>
<rscale>  0 0.19427227E+03</rscale>
<asrwt>0</asrwt>
<pdfrwt beam="1">  1        2 0.17881123E+00 0.19889185E+03</pdfrwt>
<pdfrwt beam="2">  1       -2 0.50307013E-02 0.19889185E+03</pdfrwt>
<totfact> 0.40452451E+03</totfact>
</mgrwt>
</event>
<event>
 6    1  0.4705246E-006  0.1414904E+03  0.7546771E-02  0.1222871E+00
         -2   -1    0    0    0  501 -0.00000000000E+00  0.00000000000E+00  0.51249792475E+02  0.51249792475E+02  0.00000000000E+00 0.  1.
          2   -1    0    0  501    0  0.00000000000E+00 -0.00000000000E+00 -0.31117292283E+03  0.31117292283E+03  0.00000000000E+00 0. -1.
          5    1    1    2  502    0  0.71575172061E+02 -0.10074455243E+02 -0.10315105927E+03  0.12604257587E+03  0.47000000000E+01 0.  1.
         -5    1    1    2    0  502 -0.27149942722E+02  0.59270021161E+02 -0.48694169004E+02  0.81506238370E+02  0.47000000000E+01 0.  1.
        -11    1    1    2    0    0 -0.55488169911E+02 -0.48628572859E+02 -0.11854714053E+03  0.13963201505E+03  0.00000000000E+00 0. -1.
         11    1    1    2    0    0  0.11062940572E+02 -0.56699305931E+00  0.10469238457E+02  0.15241886009E+02  0.00000000000E+00 0.  1.
<mgrwt>
<rscale>  0 0.13313918E+03</rscale>
<asrwt>0</asrwt>
<pdfrwt beam="2">  1        2 0.47872758E-01 0.14149041E+03</pdfrwt>
<pdfrwt beam="1">  1       -2 0.78845834E-02 0.14149041E+03</pdfrwt>
<totfact> 0.96563934E+03</totfact>
</mgrwt>
</event>
<event>
 6    1  0.4705246E-006  0.2798071E+03  0.7546771E-02  0.1095794E+00
         -2   -1    0    0    0  501 -0.00000000000E+00  0.00000000000E+00  0.71884668390E+02  0.71884668390E+02  0.00000000000E+00 0.  1.
          2   -1    0    0  501    0  0.00000000000E+00 -0.00000000000E+00 -0.27228350060E+03  0.27228350060E+03  0.00000000000E+00 0. -1.
          5    1    1    2  502    0  0.35415915569E+02 -0.60275549811E+01 -0.18717083746E+02  0.40780359471E+02  0.47000000000E+01 0.  1.
         -5    1    1    2    0  502 -0.98163823671E+02 -0.33905979253E+02 -0.14191152832E+03  0.17591680868E+03  0.47000000000E+01 0.  1.
        -11    1    1    2    0    0  0.30795294436E+02  0.10041898890E+02  0.30630896387E+02  0.44580732454E+02  0.00000000000E+00 0.  1.
         11    1    1    2    0    0  0.31952613666E+02  0.29891635344E+02 -0.70401116530E+02  0.82890268381E+02  0.00000000000E+00 0. -1.
<mgrwt>
<rscale>  0 0.27980714E+03</rscale>
<asrwt>0</asrwt>
<pdfrwt beam="2">  1        2 0.41889770E-01 0.27980714E+03</pdfrwt>
<pdfrwt beam="1">  1       -2 0.11059180E-01 0.27980714E+03</pdfrwt>
<totfact> 0.68129147E+03</totfact>
</mgrwt>
</event>
<event>
 6    1  0.4705246E-006  0.1314221E+03  0.7546771E-02  0.1239509E+00
         -1   -1    0    0    0  501 -0.00000000000E+00  0.00000000000E+00  0.82630769556E+02  0.82630769556E+02  0.00000000000E+00 0.  1.
          1   -1    0    0  501    0  0.00000000000E+00 -0.00000000000E+00 -0.16321710346E+03  0.16321710346E+03  0.00000000000E+00 0. -1.
          5    1    1    2  502    0 -0.34792063599E+02  0.70119357448E+02 -0.48342612183E+02  0.92121170917E+02  0.47000000000E+01 0.  1.
         -5    1    1    2    0  502 -0.12400454092E+01 -0.51531432263E+02 -0.15796405420E+02  0.54116934945E+02  0.47000000000E+01 0.  1.
        -11    1    1    2    0    0  0.42993746561E+02  0.57958420312E+01 -0.44257590777E+02  0.61974094342E+02  0.00000000000E+00 0. -1.
         11    1    1    2    0    0 -0.69616375526E+01 -0.24383767217E+02  0.27810274480E+02  0.37635672809E+02  0.00000000000E+00 0.  1.
<mgrwt>
<rscale>  0 0.12220140E+03</rscale>
<asrwt>0</asrwt>
<pdfrwt beam="2">  1        1 0.25110323E-01 0.13142211E+03</pdfrwt>
<pdfrwt beam="1">  1       -1 0.12712426E-01 0.13142211E+03</pdfrwt>
<totfact> 0.75181229E+03</totfact>
</mgrwt>
</event>
<event>
 6    1  0.4705246E-006  0.2329065E+03  0.7546771E-02  0.1127404E+00
          1   -1    0    0  501    0  0.00000000000E+00  0.00000000000E+00  0.63531535279E+02  0.63531535279E+02  0.00000000000E+00 0. -1.
         -1   -1    0    0    0  501 -0.00000000000E+00 -0.00000000000E+00 -0.80132563595E+03  0.80132563595E+03  0.00000000000E+00 0.  1.
          5    1    1    2  502    0  0.11720106359E+02 -0.39279536063E+01 -0.91914939998E+02  0.92861380064E+02  0.47000000000E+01 0.  1.
         -5    1    1    2    0  502 -0.18747256824E+03 -0.83998482268E+02 -0.31844520911E+03  0.37898700515E+03  0.47000000000E+01 0.  1.
        -11    1    1    2    0    0  0.10222100220E+03  0.60095673044E+02 -0.27225224283E+03  0.29695438528E+03  0.00000000000E+00 0.  1.
         11    1    1    2    0    0  0.73531459679E+02  0.27830762831E+02 -0.55181708725E+02  0.96054400732E+02  0.00000000000E+00 0. -1.
<mgrwt>
<rscale>  0 0.22891714E+03</rscale>
<asrwt>0</asrwt>
<pdfrwt beam="1">  1        1 0.97740827E-02 0.23290652E+03</pdfrwt>
<pdfrwt beam="2">  1       -1 0.12328086E+00 0.23290652E+03</pdfrwt>
<totfact> 0.41075317E+02</totfact>
</mgrwt>
</event>
<event>
 6    1  0.4705246E-006  0.1540449E+03  0.7546771E-02  0.1204346E+00
         -1   -1    0    0    0  501 -0.00000000000E+00  0.00000000000E+00  0.26352042195E+02  0.26352042195E+02  0.00000000000E+00 0.  1.
          1   -1    0    0  501    0  0.00000000000E+00 -0.00000000000E+00 -0.75886055384E+03  0.75886055384E+03  0.00000000000E+00 0. -1.
          5    1    1    2  502    0 -0.13525653435E+02  0.49854893783E+02 -0.29411902035E+03  0.29865790107E+03  0.47000000000E+01 0. -1.
         -5    1    1    2    0  502  0.81703642123E+02  0.89371627923E+01 -0.14559042914E+03  0.16725436040E+03  0.47000000000E+01 0. -1.
        -11    1    1    2    0    0 -0.43198882502E+02  0.45293692653E+01 -0.19729902123E+03  0.20202366796E+03  0.00000000000E+00 0. -1.
         11    1    1    2    0    0 -0.24979106187E+02 -0.63321425840E+02 -0.95500040911E+02  0.11727666661E+03  0.00000000000E+00 0.  1.
<mgrwt>
<rscale>  0 0.14689148E+03</rscale>
<asrwt>0</asrwt>
<pdfrwt beam="2">  1        1 0.11674776E+00 0.15404491E+03</pdfrwt>
<pdfrwt beam="1">  1       -1 0.40541608E-02 0.15404491E+03</pdfrwt>
<totfact> 0.58670754E+03</totfact>
</mgrwt>
</event>
<event>
 6    1  0.4705246E-006  0.1216150E+03  0.7546771E-02  0.1253779E+00
         -3   -1    0    0    0  501 -0.00000000000E+00  0.00000000000E+00  0.18751028560E+03  0.18751028560E+03  0.00000000000E+00 0.  1.
          3   -1    0    0  501    0  0.00000000000E+00 -0.00000000000E+00 -0.11003270801E+03  0.11003270801E+03  0.00000000000E+00 0. -1.
          5    1    1    2  502    0  0.19464919308E+01 -0.11419569188E+02 -0.89372282167E+02  0.90242396970E+02  0.47000000000E+01 0. -1.
         -5    1    1    2    0  502 -0.19679894784E+02  0.21420299958E+02  0.32624320765E+02  0.43960935095E+02  0.47000000000E+01 0.  1.
        -11    1    1    2    0    0  0.39979887748E+02 -0.39000211702E+02  0.90539609614E+02  0.10638058491E+03  0.00000000000E+00 0.  1.
         11    1    1    2    0    0 -0.22246484895E+02  0.28999480932E+02  0.43685929386E+02  0.56959076633E+02  0.00000000000E+00 0. -1.
<mgrwt>
<rscale>  0 0.11374990E+03</rscale>
<asrwt>0</asrwt>
<pdfrwt beam="2">  1        3 0.16928109E-01 0.12161498E+03</pdfrwt>
<pdfrwt beam="1">  1       -3 0.28847736E-01 0.12161498E+03</pdfrwt>
<totfact> 0.78912677E+02</totfact>
</mgrwt>
</event>
<event>
 6    1  0.4705246E-006  0.1415544E+03  0.7546771E-02  0.1236277E+00
          2   -1    0    0  501    0  0.00000000000E+00  0.00000000000E+00  0.79029127093E+03  0.79029127093E+03  0.00000000000E+00 0. -1.
         -2   -1    0    0    0  501 -0.00000000000E+00 -0.00000000000E+00 -0.17585153710E+02  0.17585153710E+02  0.00000000000E+00 0.  1.
          5    1    1    2  502    0 -0.29612836945E+02 -0.23801943675E+02  0.57076345329E+03  0.57204585677E+03  0.47000000000E+01 0. -1.
         -5    1    1    2    0  502  0.13969806869E+02 -0.25309593001E+02  0.20063095251E+02  0.35501391421E+02  0.47000000000E+01 0.  1.
        -11    1    1    2    0    0  0.39262338389E+02  0.14124414621E+02  0.87529838506E+02  0.96966504181E+02  0.00000000000E+00 0. -1.
         11    1    1    2    0    0 -0.23619308313E+02  0.34987122055E+02  0.94349730174E+02  0.10336267227E+03  0.00000000000E+00 0.  1.
<mgrwt>
<rscale>  0 0.12423058E+03</rscale>
<asrwt>0</asrwt>
<pdfrwt beam="1">  1        2 0.12158324E+00 0.14155440E+03</pdfrwt>
<pdfrwt beam="2">  1       -2 0.27054089E-02 0.14155440E+03</pdfrwt>
<totfact> 0.16988644E+04</totfact>
</mgrwt>
</event>
<event>
 6    1  0.4705246E-006  0.1310398E+03  0.7546771E-02  0.1239128E+00
         -2   -1    0    0    0  501 -0.00000000000E+00  0.00000000000E+00  0.93547525891E+02  0.93547525891E+02  0.00000000000E+00 0.  1.
          2   -1    0    0  501    0  0.00000000000E+00 -0.00000000000E+00 -0.14646020620E+03  0.14646020620E+03  0.00000000000E+00 0. -1.
          5    1    1    2  502    0 -0.37395864734E+02 -0.66354677267E+02 -0.19918826477E+01  0.76337746174E+02  0.47000000000E+01 0.  1.
         -5    1    1    2    0  502  0.32153538626E+02  0.27390509997E+02 -0.47499034676E+02  0.63736476049E+02  0.47000000000E+01 0.  1.
        -11    1    1    2    0    0 -0.19913080670E+02  0.13272106047E+02  0.38109225361E+02  0.44999918204E+02  0.00000000000E+00 0.  1.
         11    1    1    2    0    0  0.25155406778E+02  0.25692061223E+02 -0.41530988342E+02  0.54933591660E+02  0.00000000000E+00 0. -1.
<mgrwt>
<rscale>  0 0.12243810E+03</rscale>
<asrwt>0</asrwt>
<pdfrwt beam="2">  1        2 0.22532339E-01 0.13103983E+03</pdfrwt>
<pdfrwt beam="1">  1       -2 0.14391927E-01 0.13103983E+03</pdfrwt>
<totfact> 0.83635043E+03</totfact>
</mgrwt>
</event>
<event>
 6    1  0.4705246E-006  0.1831495E+03  0.7546771E-02  0.1170259E+00
         -2   -1    0    0    0  501 -0.00000000000E+00  0.00000000000E+00  0.16384688959E+03  0.16384688959E+03  0.00000000000E+00 0.  1.
          2   -1    0    0  501    0  0.00000000000E+00 -0.00000000000E+00 -0.18140628448E+03  0.18140628448E+03  0.00000000000E+00 0. -1.
          5    1    1    2  502    0  0.83303167041E+02 -0.89640843913E+01  0.53094037901E+02  0.99301758840E+02  0.47000000000E+01 0. -1.
         -5    1    1    2    0  502  0.38149297245E+02 -0.47325554047E+02 -0.57643370469E+02  0.83904261544E+02  0.47000000000E+01 0. -1.
        -11    1    1    2    0    0 -0.98126980931E+02  0.49079285490E+02  0.28976476964E+02  0.11347826606E+03  0.00000000000E+00 0.  1.
         11    1    1    2    0    0 -0.23325483355E+02  0.72103529482E+01 -0.41986539287E+02  0.48568887620E+02  0.00000000000E+00 0. -1.
<mgrwt>
<rscale>  0 0.17748582E+03</rscale>
<asrwt>0</asrwt>
<pdfrwt beam="2">  1        2 0.27908659E-01 0.18314953E+03</pdfrwt>
<pdfrwt beam="1">  1       -2 0.25207214E-01 0.18314953E+03</pdfrwt>
<totfact> 0.26123186E+03</totfact>
</mgrwt>
</event>
<event>
 6    1  0.4705246E-006  0.1434063E+03  0.7546771E-02  0.1213882E+00
         -1   -1    0    0    0  501 -0.00000000000E+00  0.00000000000E+00  0.48772595319E+03  0.48772595319E+03  0.00000000000E+00 0.  1.
          1   -1    0    0  501    0  0.00000000000E+00 -0.00000000000E+00 -0.39497919232E+02  0.39497919232E+02  0.00000000000E+00 0. -1.
          5    1    1    2  502    0  0.10989167936E+03 -0.10258442709E+02  0.11707241524E+03  0.16096414896E+03  0.47000000000E+01 0. -1.
         -5    1    1    2    0  502 -0.22207286070E+02 -0.15450667472E+02  0.66768693288E+02  0.72194425570E+02  0.47000000000E+01 0.  1.
        -11    1    1    2    0    0 -0.91483499685E+02  0.49795893476E+02  0.22037016207E+03  0.24374550263E+03  0.00000000000E+00 0.  1.
         11    1    1    2    0    0  0.37991063954E+01 -0.24086783294E+02  0.44016763359E+02  0.50319795265E+02  0.00000000000E+00 0. -1.
<mgrwt>
<rscale>  0 0.13959004E+03</rscale>
<asrwt>0</asrwt>
<pdfrwt beam="2">  1        1 0.60766033E-02 0.14340630E+03</pdfrwt>
<pdfrwt beam="1">  1       -1 0.75034758E-01 0.14340630E+03</pdfrwt>
<totfact> 0.22968613E+03</totfact>
</mgrwt>
</event>
<event>
 6    1  0.4705246E-006  0.1367474E+03  0.7546771E-02  0.1228789E+00
          2   -1    0    0  501    0  0.00000000000E+00  0.00000000000E+00  0.16456167533E+04  0.16456167533E+04  0.00000000000E+00 0. -1.
         -2   -1    0    0    0  501 -0.00000000000E+00 -0.00000000000E+00 -0.12123583881E+02  0.12123583881E+02  0.00000000000E+00 0.  1.
          5    1    1    2  502    0 -0.48126783564E+02 -0.70557481117E+02  0.55889807674E+03  0.56540577961E+03  0.47000000000E+01 0. -1.
         -5    1    1    2    0  502  0.23581161024E+02  0.20867575306E+02  0.73699962861E+03  0.73768697252E+03  0.47000000000E+01 0. -1.
        -11    1    1    2    0    0  0.13724286568E+02  0.74975614474E+02  0.19389307199E+03  0.20833679985E+03  0.00000000000E+00 0.  1.
         11    1    1    2    0    0  0.10821335973E+02 -0.25285708663E+02  0.14370239210E+03  0.14631078522E+03  0.00000000000E+00 0. -1.
<mgrwt>
<rscale>  0 0.12910528E+03</rscale>
<asrwt>0</asrwt>
<pdfrwt beam="1">  1        2 0.25317163E+00 0.13674742E+03</pdfrwt>
<pdfrwt beam="2">  1       -2 0.18651681E-02 0.13674742E+03</pdfrwt>
<totfact> 0.95677477E+03</totfact>
</mgrwt>
</event>
<event>
 6    1  0.4705246E-006  0.2788497E+03  0.7546771E-02  0.1137015E+00
         -1   -1    0    0    0  501 -0.00000000000E+00  0.00000000000E+00  0.49797923417E+02  0.49797923417E+02  0.00000000000E+00 0.  1.
          1   -1    0    0  501    0  0.00000000000E+00 -0.00000000000E+00 -0.72913026276E+03  0.72913026276E+03  0.00000000000E+00 0. -1.
          5    1    1    2  502    0 -0.89565236297E+02 -0.30625562535E+02 -0.51122969610E+03  0.51994013964E+03  0.47000000000E+01 0. -1.
         -5    1    1    2    0  502  0.78506645258E+02 -0.11925883161E+02 -0.23194871138E+02  0.82858989168E+02  0.47000000000E+01 0.  1.
        -11    1    1    2    0    0 -0.78815996335E+00  0.55856830437E+02 -0.37565430564E+02  0.67318409637E+02  0.00000000000E+00 0.  1.
         11    1    1    2    0    0  0.11846751003E+02 -0.13305384741E+02 -0.10734234155E+03  0.10881064774E+03  0.00000000000E+00 0. -1.
<mgrwt>
<rscale>  0 0.21585066E+03</rscale>
<asrwt>0</asrwt>
<pdfrwt beam="2">  1        1 0.11217388E+00 0.27884973E+03</pdfrwt>
<pdfrwt beam="1">  1       -1 0.76612192E-02 0.27884973E+03</pdfrwt>
<totfact> 0.24387921E+03</totfact>
</mgrwt>
</event>
<event>
 6    1  0.4705246E-006  0.1360014E+03  0.7546771E-02  0.1231037E+00
         -2   -1    0    0    0  501 -0.00000000000E+00  0.00000000000E+00  0.73436383511E+02  0.73436383511E+02  0.00000000000E+00 0.  1.
          2   -1    0    0  501    0  0.00000000000E+00 -0.00000000000E+00 -0.20125238421E+03  0.20125238421E+03  0.00000000000E+00 0. -1.
          5    1    1    2  502    0  0.32134030561E+02  0.18814813766E+02 -0.11710780964E+03  0.12297529108E+03  0.47000000000E+01 0.  1.
         -5    1    1    2    0  502 -0.19146700708E+01  0.25433720926E+02  0.29129298906E+02  0.39001874011E+02  0.47000000000E+01 0.  1.
        -11    1    1    2    0    0  0.82130152850E+01  0.18536485206E+02  0.11174734188E+02  0.23150153088E+02  0.00000000000E+00 0.  1.
         11    1    1    2    0    0 -0.38432375776E+02 -0.62785019898E+02 -0.51012224152E+02  0.89561449543E+02  0.00000000000E+00 0. -1.
<mgrwt>
<rscale>  0 0.12761609E+03</rscale>
<asrwt>0</asrwt>
<pdfrwt beam="2">  1        2 0.30961905E-01 0.13600141E+03</pdfrwt>
<pdfrwt beam="1">  1       -2 0.11297905E-01 0.13600141E+03</pdfrwt>
<totfact> 0.87313029E+03</totfact>
</mgrwt>
</event>
<event>
 6    1  0.6178283E-006  0.2304709E+03  0.7546771E-02  0.1129250E+00
          1   -1    0    0  501    0  0.00000000000E+00  0.00000000000E+00  0.28908565168E+03  0.28908565168E+03  0.00000000000E+00 0. -1.
         -1   -1    0    0    0  501 -0.00000000000E+00 -0.00000000000E+00 -0.17932487133E+03  0.17932487133E+03  0.00000000000E+00 0.  1.
          5    1    1    2  502    0 -0.16066385411E+03 -0.12833640238E+02  0.34594173642E+02  0.16491338087E+03  0.47000000000E+01 0. -1.
         -5    1    1    2    0  502 -0.30775382525E+02  0.41845573180E+02  0.72277132351E+02  0.89130522411E+02  0.47000000000E+01 0. -1.
        -11    1    1    2    0    0  0.10045128371E+03  0.97381617233E+01  0.40245423217E+02  0.10865075371E+03  0.00000000000E+00 0. -1.
         11    1    1    2    0    0  0.90987952925E+02 -0.38750094665E+02 -0.37355948854E+02  0.10571586602E+03  0.00000000000E+00 0.  1.
<mgrwt>
<rscale>  0 0.22632966E+03</rscale>
<asrwt>0</asrwt>
<pdfrwt beam="1">  1        1 0.44474716E-01 0.23047088E+03</pdfrwt>
<pdfrwt beam="2">  1       -1 0.27588442E-01 0.23047088E+03</pdfrwt>
<totfact> 0.10819867E+03</totfact>
</mgrwt>
</event>
<event>
 6    1  0.4705246E-006  0.1383693E+03  0.7546771E-02  0.1226822E+00
          1   -1    0    0  501    0  0.00000000000E+00  0.00000000000E+00  0.13869831441E+03  0.13869831441E+03  0.00000000000E+00 0. -1.
         -1   -1    0    0    0  501 -0.00000000000E+00 -0.00000000000E+00 -0.11719833146E+03  0.11719833146E+03  0.00000000000E+00 0.  1.
          5    1    1    2  502    0  0.11480477292E+02 -0.26744810674E+02  0.47568774549E+02  0.55963957767E+02  0.47000000000E+01 0.  1.
         -5    1    1    2    0  502 -0.33129708292E+02  0.82012072123E+02 -0.52528243766E+01  0.88731278078E+02  0.47000000000E+01 0.  1.
        -11    1    1    2    0    0  0.26357188596E+02 -0.42242695376E+02 -0.55077024880E+02  0.74247056325E+02  0.00000000000E+00 0.  1.
         11    1    1    2    0    0 -0.47079575957E+01 -0.13024566073E+02  0.34261057655E+02  0.36954353705E+02  0.00000000000E+00 0. -1.
<mgrwt>
<rscale>  0 0.13042807E+03</rscale>
<asrwt>0</asrwt>
<pdfrwt beam="1">  1        1 0.21338202E-01 0.13836933E+03</pdfrwt>
<pdfrwt beam="2">  1       -1 0.18030512E-01 0.13836933E+03</pdfrwt>
<totfact> 0.53536927E+03</totfact>
</mgrwt>
</event>
<event>
 6    1  0.4705246E-006  0.1607883E+03  0.7546771E-02  0.1195907E+00
         -1   -1    0    0    0  501 -0.00000000000E+00  0.00000000000E+00  0.11601415091E+03  0.11601415091E+03  0.00000000000E+00 0.  1.
          1   -1    0    0  501    0  0.00000000000E+00 -0.00000000000E+00 -0.25152635036E+03  0.25152635036E+03  0.00000000000E+00 0. -1.
          5    1    1    2  502    0  0.49848828137E+02  0.36684652296E+02 -0.44680983393E+01  0.62231208276E+02  0.47000000000E+01 0. -1.
         -5    1    1    2    0  502  0.17389567660E+01  0.50291945176E+02 -0.15992369634E+03  0.16771995221E+03  0.47000000000E+01 0. -1.
        -11    1    1    2    0    0 -0.18730071290E+02  0.93489323969E+01 -0.16009855885E+02  0.26354005254E+02  0.00000000000E+00 0. -1.
         11    1    1    2    0    0 -0.32857713613E+02 -0.96325529869E+02  0.44889451106E+02  0.11123533552E+03  0.00000000000E+00 0.  1.
<mgrwt>
<rscale>  0 0.15377687E+03</rscale>
<asrwt>0</asrwt>
<pdfrwt beam="2">  1        1 0.38696361E-01 0.16078829E+03</pdfrwt>
<pdfrwt beam="1">  1       -1 0.17848331E-01 0.16078829E+03</pdfrwt>
<totfact> 0.26030618E+03</totfact>
</mgrwt>
</event>
<event>
 6    1  0.4705246E-006  0.1263245E+03  0.7546771E-02  0.1244714E+00
          2   -1    0    0  501    0  0.00000000000E+00  0.00000000000E+00  0.13590849225E+03  0.13590849225E+03  0.00000000000E+00 0. -1.
         -2   -1    0    0    0  501 -0.00000000000E+00 -0.00000000000E+00 -0.96006389401E+02  0.96006389401E+02  0.00000000000E+00 0.  1.
          5    1    1    2  502    0 -0.35304435261E+02  0.25000773151E+02 -0.28253475354E+02  0.51882469841E+02  0.47000000000E+01 0.  1.
         -5    1    1    2    0  502  0.42396871256E+02 -0.81923507286E+01  0.67739419726E+02  0.80469424551E+02  0.47000000000E+01 0.  1.
        -11    1    1    2    0    0  0.20221302263E+02  0.32044137155E+02 -0.16155682010E+02  0.41191429356E+02  0.00000000000E+00 0.  1.
         11    1    1    2    0    0 -0.27313738258E+02 -0.48852559577E+02  0.16571840486E+02  0.58371557902E+02  0.00000000000E+00 0. -1.
<mgrwt>
<rscale>  0 0.11902530E+03</rscale>
<asrwt>0</asrwt>
<pdfrwt beam="1">  1        2 0.20908999E-01 0.12632452E+03</pdfrwt>
<pdfrwt beam="2">  1       -2 0.14770214E-01 0.12632452E+03</pdfrwt>
<totfact> 0.86918691E+03</totfact>
</mgrwt>
</event>
<event>
 6    1  0.4705246E-006  0.1585243E+03  0.7546771E-02  0.1198099E+00
         -2   -1    0    0    0  501 -0.00000000000E+00  0.00000000000E+00  0.65379456158E+02  0.65379456158E+02  0.00000000000E+00 0.  1.
          2   -1    0    0  501    0  0.00000000000E+00 -0.00000000000E+00 -0.10157253905E+04  0.10157253905E+04  0.00000000000E+00 0. -1.
          5    1    1    2  502    0  0.34546765501E+01  0.26190701596E+02 -0.49802775642E+02  0.56571141952E+02  0.47000000000E+01 0.  1.
         -5    1    1    2    0  502 -0.99691747202E+02 -0.41827575019E+02 -0.88296334529E+03  0.88956975534E+03  0.47000000000E+01 0.  1.
        -11    1    1    2    0    0  0.99279013197E+02 -0.60769925127E+01 -0.36552911936E+02  0.10596871081E+03  0.00000000000E+00 0. -1.
         11    1    1    2    0    0 -0.30419425457E+01  0.21713865936E+02  0.18973098556E+02  0.28995238526E+02  0.00000000000E+00 0.  1.
<mgrwt>
<rscale>  0 0.15194885E+03</rscale>
<asrwt>0</asrwt>
<pdfrwt beam="2">  1        2 0.15626543E+00 0.15852432E+03</pdfrwt>
<pdfrwt beam="1">  1       -2 0.10058379E-01 0.15852432E+03</pdfrwt>
<totfact> 0.16838927E+03</totfact>
</mgrwt>
</event>
<event>
 6    1  0.4705246E-006  0.1699024E+03  0.7546771E-02  0.1184757E+00
         -2   -1    0    0    0  501 -0.00000000000E+00  0.00000000000E+00  0.24544140155E+02  0.24544140155E+02  0.00000000000E+00 0.  1.
          2   -1    0    0  501    0  0.00000000000E+00 -0.00000000000E+00 -0.16350110124E+04  0.16350110124E+04  0.00000000000E+00 0. -1.
          5    1    1    2  502    0 -0.97819168599E+02  0.29150914054E+02 -0.49154398711E+03  0.50205173718E+03  0.47000000000E+01 0.  1.
         -5    1    1    2    0  502 -0.11511942132E+02  0.68315141727E+01 -0.86164106747E+03  0.86175786248E+03  0.47000000000E+01 0.  1.
        -11    1    1    2    0    0  0.12504939980E+03 -0.28178087281E+02 -0.22234735894E+03  0.25665094004E+03  0.00000000000E+00 0. -1.
         11    1    1    2    0    0 -0.15718289066E+02 -0.78043409452E+01 -0.34934458730E+02  0.39094612871E+02  0.00000000000E+00 0.  1.
<mgrwt>
<rscale>  0 0.16354017E+03</rscale>
<asrwt>0</asrwt>
<pdfrwt beam="2">  1        2 0.25154016E+00 0.16990242E+03</pdfrwt>
<pdfrwt beam="1">  1       -2 0.37760214E-02 0.16990242E+03</pdfrwt>
<totfact> 0.34560360E+03</totfact>
</mgrwt>
</event>
<event>
 6    1  0.4705246E-006  0.1442826E+03  0.7546771E-02  0.1217424E+00
         -2   -1    0    0    0  501 -0.00000000000E+00  0.00000000000E+00  0.12596567863E+03  0.12596567863E+03  0.00000000000E+00 0.  1.
          2   -1    0    0  501    0  0.00000000000E+00 -0.00000000000E+00 -0.15109012334E+03  0.15109012334E+03  0.00000000000E+00 0. -1.
          5    1    1    2  502    0 -0.48757685437E+02  0.76190395851E+02 -0.10645439718E+02  0.91201445690E+02  0.47000000000E+01 0. -1.
         -5    1    1    2    0  502  0.43242876158E+02 -0.43094550001E+01 -0.46962298849E+02  0.64156568284E+02  0.47000000000E+01 0. -1.
        -11    1    1    2    0    0  0.34156955364E+02  0.56359202044E+01  0.84579308296E+01  0.35637028358E+02  0.00000000000E+00 0. -1.
         11    1    1    2    0    0 -0.28642146085E+02 -0.77516861056E+02  0.24025363037E+02  0.86060759637E+02  0.00000000000E+00 0.  1.
<mgrwt>
<rscale>  0 0.13699942E+03</rscale>
<asrwt>0</asrwt>
<pdfrwt beam="2">  1        2 0.23244634E-01 0.14428257E+03</pdfrwt>
<pdfrwt beam="1">  1       -2 0.19379335E-01 0.14428257E+03</pdfrwt>
<totfact> 0.49696335E+03</totfact>
</mgrwt>
</event>
<event>
 6    1  0.4705246E-006  0.1390804E+03  0.7546771E-02  0.1219922E+00
         -3   -1    0    0    0  501 -0.00000000000E+00  0.00000000000E+00  0.72861833598E+02  0.72861833598E+02  0.00000000000E+00 0.  1.
          3   -1    0    0  501    0  0.00000000000E+00 -0.00000000000E+00 -0.35927499355E+03  0.35927499355E+03  0.00000000000E+00 0. -1.
          5    1    1    2  502    0 -0.30278330543E+02 -0.34841860599E+02 -0.18387727929E+03  0.18964091433E+03  0.47000000000E+01 0. -1.
         -5    1    1    2    0  502  0.74867988664E+02 -0.94359574040E+01 -0.90126921057E+02  0.11764015011E+03  0.47000000000E+01 0.  1.
        -11    1    1    2    0    0  0.29817017352E+02 -0.39962429953E+01  0.12731793135E+02  0.32666849225E+02  0.00000000000E+00 0.  1.
         11    1    1    2    0    0 -0.74406675473E+02  0.48274060999E+02 -0.25140752741E+02  0.92188913480E+02  0.00000000000E+00 0. -1.
<mgrwt>
<rscale>  0 0.13521119E+03</rscale>
<asrwt>0</asrwt>
<pdfrwt beam="2">  1        3 0.55273077E-01 0.13908038E+03</pdfrwt>
<pdfrwt beam="1">  1       -3 0.11209513E-01 0.13908038E+03</pdfrwt>
<totfact> 0.46297276E+02</totfact>
</mgrwt>
</event>
<event>
 6    1  0.4705246E-006  0.1579419E+03  0.7546771E-02  0.1198988E+00
          2   -1    0    0  501    0  0.00000000000E+00  0.00000000000E+00  0.18652372244E+03  0.18652372244E+03  0.00000000000E+00 0. -1.
         -2   -1    0    0    0  501 -0.00000000000E+00 -0.00000000000E+00 -0.11359578228E+03  0.11359578228E+03  0.00000000000E+00 0.  1.
          5    1    1    2  502    0 -0.88720567173E+02  0.65200145995E+02 -0.44320746444E+01  0.11029112096E+03  0.47000000000E+01 0. -1.
         -5    1    1    2    0  502  0.78667748909E+01 -0.12446266265E+02  0.52613005873E+02  0.54836247848E+02  0.47000000000E+01 0. -1.
        -11    1    1    2    0    0 -0.71131697505E+01 -0.15586961278E+02 -0.22634107139E+02  0.28387556284E+02  0.00000000000E+00 0.  1.
         11    1    1    2    0    0  0.87966962033E+02 -0.37166918452E+02  0.47381116074E+02  0.10660457962E+03  0.00000000000E+00 0. -1.
<mgrwt>
<rscale>  0 0.15121483E+03</rscale>
<asrwt>0</asrwt>
<pdfrwt beam="1">  1        2 0.28695957E-01 0.15794191E+03</pdfrwt>
<pdfrwt beam="2">  1       -2 0.17476274E-01 0.15794191E+03</pdfrwt>
<totfact> 0.47106986E+03</totfact>
</mgrwt>
</event>
<event>
 6    1  0.4705246E-006  0.1571548E+03  0.7546771E-02  0.1199957E+00
         -1   -1    0    0    0  501 -0.00000000000E+00  0.00000000000E+00  0.35954123500E+02  0.35954123500E+02  0.00000000000E+00 0.  1.
          1   -1    0    0  501    0  0.00000000000E+00 -0.00000000000E+00 -0.58433172058E+03  0.58433172058E+03  0.00000000000E+00 0. -1.
          5    1    1    2  502    0 -0.99364852282E+02 -0.43451608106E+02 -0.17440864726E+03  0.20543096737E+03  0.47000000000E+01 0. -1.
         -5    1    1    2    0  502  0.31837628759E+02 -0.23715605189E+02 -0.14703858055E+03  0.15237617499E+03  0.47000000000E+01 0. -1.
        -11    1    1    2    0    0  0.17860544949E+02 -0.18307370138E+02 -0.17801613111E+02  0.31161776210E+02  0.00000000000E+00 0.  1.
         11    1    1    2    0    0  0.49666678575E+02  0.85474583433E+02 -0.20912875616E+03  0.23131692551E+03  0.00000000000E+00 0. -1.
<mgrwt>
<rscale>  0 0.15042054E+03</rscale>
<asrwt>0</asrwt>
<pdfrwt beam="2">  1        1 0.89897184E-01 0.15715480E+03</pdfrwt>
<pdfrwt beam="1">  1       -1 0.55314038E-02 0.15715480E+03</pdfrwt>
<totfact> 0.53637191E+03</totfact>
</mgrwt>
</event>
<event>
 6    1  0.4705246E-006  0.1350443E+03  0.7546771E-02  0.1232643E+00
         -1   -1    0    0    0  501 -0.00000000000E+00  0.00000000000E+00  0.21859080113E+03  0.21859080113E+03  0.00000000000E+00 0.  1.
          1   -1    0    0  501    0  0.00000000000E+00 -0.00000000000E+00 -0.10156181344E+03  0.10156181344E+03  0.00000000000E+00 0. -1.
          5    1    1    2  502    0 -0.35647627527E+02  0.65403839627E+00 -0.59342652506E+02  0.69388914972E+02  0.47000000000E+01 0. -1.
         -5    1    1    2    0  502  0.36572053069E+02 -0.51666862997E+02  0.27791080654E+02  0.69292235940E+02  0.47000000000E+01 0. -1.
        -11    1    1    2    0    0 -0.15568358777E+02  0.32905212309E+02  0.15342548750E+03  0.15768483442E+03  0.00000000000E+00 0.  1.
         11    1    1    2    0    0  0.14643933236E+02  0.18107612292E+02 -0.48449279586E+01  0.23786629237E+02  0.00000000000E+00 0. -1.
<mgrwt>
<rscale>  0 0.12656524E+03</rscale>
<asrwt>0</asrwt>
<pdfrwt beam="2">  1        1 0.15624894E-01 0.13504429E+03</pdfrwt>
<pdfrwt beam="1">  1       -1 0.33629354E-01 0.13504429E+03</pdfrwt>
<totfact> 0.28597462E+03</totfact>
</mgrwt>
</event>
<event>
 6    1  0.4705246E-006  0.1425006E+03  0.7546771E-02  0.1218363E+00
          1   -1    0    0  501    0  0.00000000000E+00  0.00000000000E+00  0.21772227570E+03  0.21772227570E+03  0.00000000000E+00 0. -1.
         -1   -1    0    0    0  501 -0.00000000000E+00 -0.00000000000E+00 -0.11904563034E+03  0.11904563034E+03  0.00000000000E+00 0.  1.
          5    1    1    2  502    0  0.98628793484E+02  0.20217322313E+02  0.95308522644E+02  0.13871619774E+03  0.47000000000E+01 0. -1.
         -5    1    1    2    0  502 -0.22138900896E+02 -0.33848657930E+02  0.54646518226E+02  0.68148327425E+02  0.47000000000E+01 0.  1.
        -11    1    1    2    0    0 -0.64447233685E+02  0.15976303261E+02 -0.76837943724E+02  0.10155174933E+03  0.00000000000E+00 0.  1.
         11    1    1    2    0    0 -0.12042658903E+02 -0.23449676436E+01  0.25559548216E+02  0.28351631552E+02  0.00000000000E+00 0. -1.
<mgrwt>
<rscale>  0 0.13632386E+03</rscale>
<asrwt>0</asrwt>
<pdfrwt beam="1">  1        1 0.33495735E-01 0.14250059E+03</pdfrwt>
<pdfrwt beam="2">  1       -1 0.18314712E-01 0.14250059E+03</pdfrwt>
<totfact> 0.29732714E+03</totfact>
</mgrwt>
</event>
<event>
 6    1  0.4705246E-006  0.1310121E+03  0.7546771E-02  0.1239975E+00
          2   -1    0    0  501    0  0.00000000000E+00  0.00000000000E+00  0.13135004981E+03  0.13135004981E+03  0.00000000000E+00 0. -1.
         -2   -1    0    0    0  501 -0.00000000000E+00 -0.00000000000E+00 -0.10090012459E+03  0.10090012459E+03  0.00000000000E+00 0.  1.
          5    1    1    2  502    0  0.46463785824E+02  0.54800802508E+02  0.12672190725E+02  0.73107357813E+02  0.47000000000E+01 0. -1.
         -5    1    1    2    0  502 -0.56249759586E+02 -0.16817164963E+02  0.15417015471E+02  0.60882073363E+02  0.47000000000E+01 0. -1.
        -11    1    1    2    0    0  0.25630457407E+02  0.16023908823E+02 -0.21535566274E+02  0.37114237370E+02  0.00000000000E+00 0.  1.
         11    1    1    2    0    0 -0.15844483645E+02 -0.54007546367E+02  0.23896285294E+02  0.61146505848E+02  0.00000000000E+00 0. -1.
<mgrwt>
<rscale>  0 0.12191220E+03</rscale>
<asrwt>0</asrwt>
<pdfrwt beam="1">  1        2 0.20207700E-01 0.13101208E+03</pdfrwt>
<pdfrwt beam="2">  1       -2 0.15523096E-01 0.13101208E+03</pdfrwt>
<totfact> 0.83515995E+03</totfact>
</mgrwt>
</event>
<event>
 6    1  0.4705246E-006  0.3777072E+03  0.7546771E-02  0.1051784E+00
         -2   -1    0    0    0  501 -0.00000000000E+00  0.00000000000E+00  0.79026782075E+02  0.79026782075E+02  0.00000000000E+00 0.  1.
          2   -1    0    0  501    0  0.00000000000E+00 -0.00000000000E+00 -0.45131140487E+03  0.45131140487E+03  0.00000000000E+00 0. -1.
          5    1    1    2  502    0  0.13652359242E+02  0.59775832646E+01  0.40150319734E+01  0.16134710915E+02  0.47000000000E+01 0.  1.
         -5    1    1    2    0  502  0.13635600262E+02 -0.11773156850E+03 -0.34508575754E+03  0.36490124948E+03  0.47000000000E+01 0.  1.
        -11    1    1    2    0    0  0.20358194881E+02  0.36816905777E+02  0.20223476312E+02  0.46679006458E+02  0.00000000000E+00 0.  1.
         11    1    1    2    0    0 -0.47646154385E+02  0.74937079460E+02 -0.51437373546E+02  0.10262322010E+03  0.00000000000E+00 0. -1.
<mgrwt>
<rscale>  0 0.37770723E+03</rscale>
<asrwt>0</asrwt>
<pdfrwt beam="2">  1        2 0.69432525E-01 0.37770723E+03</pdfrwt>
<pdfrwt beam="1">  1       -2 0.12157966E-01 0.37770723E+03</pdfrwt>
<totfact> 0.33977717E+03</totfact>
</mgrwt>
</event>
<event>
 6    1  0.4705246E-006  0.1401503E+03  0.7546771E-02  0.1224939E+00
         -1   -1    0    0    0  501 -0.00000000000E+00  0.00000000000E+00  0.25247958261E+03  0.25247958261E+03  0.00000000000E+00 0.  1.
          1   -1    0    0  501    0  0.00000000000E+00 -0.00000000000E+00 -0.62257477669E+02  0.62257477669E+02  0.00000000000E+00 0. -1.
          5    1    1    2  502    0  0.30225207766E+02 -0.44871369243E+02  0.10617003575E+03  0.11925254485E+03  0.47000000000E+01 0.  1.
         -5    1    1    2    0  502 -0.41621266045E+02 -0.17467547911E+02 -0.15168966532E+02  0.47850105150E+02  0.47000000000E+01 0.  1.
        -11    1    1    2    0    0  0.10509449542E+02  0.25086895762E+02  0.10628335530E+03  0.10970848865E+03  0.00000000000E+00 0.  1.
         11    1    1    2    0    0  0.88660873702E+00  0.37252021392E+02 -0.70623195817E+01  0.37925921620E+02  0.00000000000E+00 0. -1.
<mgrwt>
<rscale>  0 0.13171083E+03</rscale>
<asrwt>0</asrwt>
<pdfrwt beam="2">  1        1 0.95780736E-02 0.14015028E+03</pdfrwt>
<pdfrwt beam="1">  1       -1 0.38843012E-01 0.14015028E+03</pdfrwt>
<totfact> 0.42446400E+03</totfact>
</mgrwt>
</event>
<event>
 6    1  0.4705246E-006  0.2337265E+03  0.7546771E-02  0.1127129E+00
         -2   -1    0    0    0  501 -0.00000000000E+00  0.00000000000E+00  0.38986949086E+02  0.38986949086E+02  0.00000000000E+00 0. -1.
          2   -1    0    0  501    0  0.00000000000E+00 -0.00000000000E+00 -0.14629633984E+04  0.14629633984E+04  0.00000000000E+00 0.  1.
          5    1    1    2  502    0  0.43702108518E+02 -0.12124530721E+03 -0.79497441911E+03  0.80536744151E+03  0.47000000000E+01 0. -1.
         -5    1    1    2    0  502  0.72625879333E+02 -0.38355373065E+02 -0.19159502029E+03  0.20850993931E+03  0.47000000000E+01 0. -1.
        -11    1    1    2    0    0 -0.74047573404E+02  0.15706443306E+03 -0.36468278217E+03  0.40391312293E+03  0.00000000000E+00 0.  1.
         11    1    1    2    0    0 -0.42280414446E+02  0.25362472104E+01 -0.72724227702E+02  0.84159843694E+02  0.00000000000E+00 0. -1.
<mgrwt>
<rscale>  0 0.22930652E+03</rscale>
<asrwt>0</asrwt>
<pdfrwt beam="2">  1        2 0.22507129E+00 0.23372652E+03</pdfrwt>
<pdfrwt beam="1">  1       -2 0.59979921E-02 0.23372652E+03</pdfrwt>
<totfact> 0.21168559E+03</totfact>
</mgrwt>
</event>
<event>
 6    1  0.4705246E-006  0.1309943E+03  0.7546771E-02  0.1241630E+00
          2   -1    0    0  501    0  0.00000000000E+00  0.00000000000E+00  0.21109475291E+03  0.21109475291E+03  0.00000000000E+00 0. -1.
         -2   -1    0    0    0  501 -0.00000000000E+00 -0.00000000000E+00 -0.62834520255E+02  0.62834520255E+02  0.00000000000E+00 0.  1.
          5    1    1    2  502    0  0.43881775281E+02 -0.16747303092E+02  0.45547942205E+01  0.47422763659E+02  0.47000000000E+01 0. -1.
         -5    1    1    2    0  502 -0.33173898155E+02  0.54427155070E+02  0.10700105982E+03  0.12463602822E+03  0.47000000000E+01 0. -1.
        -11    1    1    2    0    0 -0.21396455075E+02 -0.42468468615E+02 -0.14205766678E+02  0.49630463661E+02  0.00000000000E+00 0.  1.
         11    1    1    2    0    0  0.10688577949E+02  0.47886166369E+01  0.50910145298E+02  0.52240017631E+02  0.00000000000E+00 0. -1.
<mgrwt>
<rscale>  0 0.12089343E+03</rscale>
<asrwt>0</asrwt>
<pdfrwt beam="1">  1        2 0.32476115E-01 0.13099435E+03</pdfrwt>
<pdfrwt beam="2">  1       -2 0.96668494E-02 0.13099435E+03</pdfrwt>
<totfact> 0.10573928E+04</totfact>
</mgrwt>
</event>
<event>
 6    1  0.4705246E-006  0.1622660E+03  0.7546771E-02  0.1194281E+00
          2   -1    0    0  501    0  0.00000000000E+00  0.00000000000E+00  0.37271675883E+03  0.37271675883E+03  0.00000000000E+00 0. -1.
         -2   -1    0    0    0  501 -0.00000000000E+00 -0.00000000000E+00 -0.62763947829E+02  0.62763947829E+02  0.00000000000E+00 0.  1.
          5    1    1    2  502    0 -0.97420407515E+01  0.49598761771E+02  0.10271883963E+03  0.11457833365E+03  0.47000000000E+01 0.  1.
         -5    1    1    2    0  502  0.10603771498E+03 -0.11744285468E+02  0.11469344051E+03  0.15671183917E+03  0.47000000000E+01 0.  1.
        -11    1    1    2    0    0 -0.76594825518E+02  0.72795063857E+00  0.93485847707E+02  0.12085901261E+03  0.00000000000E+00 0. -1.
         11    1    1    2    0    0 -0.19700848705E+02 -0.38582426942E+02 -0.94531684429E+00  0.43331521233E+02  0.00000000000E+00 0.  1.
<mgrwt>
<rscale>  0 0.15515204E+03</rscale>
<asrwt>0</asrwt>
<pdfrwt beam="1">  1        2 0.57341039E-01 0.16226601E+03</pdfrwt>
<pdfrwt beam="2">  1       -2 0.96559922E-02 0.16226601E+03</pdfrwt>
<totfact> 0.58602290E+03</totfact>
</mgrwt>
</event>
<event>
 6    1  0.4705246E-006  0.1529568E+03  0.7546771E-02  0.1205890E+00
          3   -1    0    0  501    0  0.00000000000E+00  0.00000000000E+00  0.80882796193E+03  0.80882796193E+03  0.00000000000E+00 0. -1.
         -3   -1    0    0    0  501 -0.00000000000E+00 -0.00000000000E+00 -0.24845702953E+02  0.24845702953E+02  0.00000000000E+00 0.  1.
          5    1    1    2  502    0  0.34963616857E+02 -0.49061340734E+02  0.73569138255E+02  0.95204925093E+02  0.47000000000E+01 0.  1.
         -5    1    1    2    0  502  0.25883773843E+02 -0.14722041971E+02  0.43064684384E+03  0.43170070926E+03  0.47000000000E+01 0.  1.
        -11    1    1    2    0    0 -0.70005281028E+02  0.28501582474E+02  0.11221101497E+03  0.13529372290E+03  0.00000000000E+00 0.  1.
         11    1    1    2    0    0  0.91578903280E+01  0.35281800231E+02  0.16755526191E+03  0.17147430763E+03  0.00000000000E+00 0. -1.
<mgrwt>
<rscale>  0 0.14567577E+03</rscale>
<asrwt>0</asrwt>
<pdfrwt beam="1">  1        3 0.12443505E+00 0.15295683E+03</pdfrwt>
<pdfrwt beam="2">  1       -3 0.38224165E-02 0.15295683E+03</pdfrwt>
<totfact> 0.44805506E+02</totfact>
</mgrwt>
</event>
<event>
 6    1  0.4705246E-006  0.1549314E+03  0.7546771E-02  0.1202460E+00
          1   -1    0    0  501    0  0.00000000000E+00  0.00000000000E+00  0.19398785069E+02  0.19398785069E+02  0.00000000000E+00 0. -1.
         -1   -1    0    0    0  501 -0.00000000000E+00 -0.00000000000E+00 -0.10742114784E+04  0.10742114784E+04  0.00000000000E+00 0.  1.
          5    1    1    2  502    0 -0.24849520988E+02 -0.20087670844E+02 -0.10391804100E+03  0.10882124084E+03  0.47000000000E+01 0. -1.
         -5    1    1    2    0  502  0.77105301813E+02  0.95236488667E+02 -0.38459451548E+03  0.40367096462E+03  0.47000000000E+01 0. -1.
        -11    1    1    2    0    0 -0.13381834933E+02  0.21877784442E+02 -0.12567714908E+03  0.12826713047E+03  0.00000000000E+00 0.  1.
         11    1    1    2    0    0 -0.38873945891E+02 -0.97026602265E+02 -0.44062298778E+03  0.45285092755E+03  0.00000000000E+00 0. -1.
<mgrwt>
<rscale>  0 0.14839465E+03</rscale>
<asrwt>0</asrwt>
<pdfrwt beam="1">  1        1 0.29844273E-02 0.15493141E+03</pdfrwt>
<pdfrwt beam="2">  1       -1 0.16526337E+00 0.15493141E+03</pdfrwt>
<totfact> 0.98548820E+02</totfact>
</mgrwt>
</event>
<event>
 6    1  0.4705246E-006  0.1282780E+03  0.7546771E-02  0.1244270E+00
         -1   -1    0    0    0  501 -0.00000000000E+00  0.00000000000E+00  0.29732464230E+03  0.29732464230E+03  0.00000000000E+00 0.  1.
          1   -1    0    0  501    0  0.00000000000E+00 -0.00000000000E+00 -0.43228048337E+02  0.43228048337E+02  0.00000000000E+00 0. -1.
          5    1    1    2  502    0 -0.36994282277E+02 -0.37582151116E+02  0.16174919966E+03  0.17019367965E+03  0.47000000000E+01 0.  1.
         -5    1    1    2    0  502  0.83777257811E+01  0.40891129022E+02  0.83052760677E+01  0.42817500307E+02  0.47000000000E+01 0.  1.
        -11    1    1    2    0    0  0.51257196086E+02 -0.26134828463E+02  0.30580387937E+02  0.65157421187E+02  0.00000000000E+00 0. -1.
         11    1    1    2    0    0 -0.22640639590E+02  0.22825850556E+02  0.53461730299E+02  0.62384089488E+02  0.00000000000E+00 0.  1.
<mgrwt>
<rscale>  0 0.11929156E+03</rscale>
<asrwt>0</asrwt>
<pdfrwt beam="2">  1        1 0.66504692E-02 0.12827797E+03</pdfrwt>
<pdfrwt beam="1">  1       -1 0.45742251E-01 0.12827797E+03</pdfrwt>
<totfact> 0.51538532E+03</totfact>
</mgrwt>
</event>
<event>
 6    1  0.4705246E-006  0.1359151E+03  0.7546771E-02  0.1232324E+00
          2   -1    0    0  501    0  0.00000000000E+00  0.00000000000E+00  0.89599928790E+03  0.89599928790E+03  0.00000000000E+00 0. -1.
         -2   -1    0    0    0  501 -0.00000000000E+00 -0.00000000000E+00 -0.24057805325E+02  0.24057805325E+02  0.00000000000E+00 0.  1.
          5    1    1    2  502    0 -0.65825535753E+02 -0.35081805781E+02  0.29184978874E+03  0.30126752802E+03  0.47000000000E+01 0. -1.
         -5    1    1    2    0  502  0.14353046035E+02  0.49165164846E+02  0.45003772136E+03  0.45296717763E+03  0.47000000000E+01 0. -1.
        -11    1    1    2    0    0  0.41973469668E+02  0.26192089848E+02  0.30777691553E+02  0.58267177929E+02  0.00000000000E+00 0.  1.
         11    1    1    2    0    0  0.94990200499E+01 -0.40275448913E+02  0.99276280919E+02  0.10755520964E+03  0.00000000000E+00 0. -1.
<mgrwt>
<rscale>  0 0.12677307E+03</rscale>
<asrwt>0</asrwt>
<pdfrwt beam="1">  1        2 0.13784602E+00 0.13591510E+03</pdfrwt>
<pdfrwt beam="2">  1       -2 0.37012015E-02 0.13591510E+03</pdfrwt>
<totfact> 0.91031514E+03</totfact>
</mgrwt>
</event>
<event>
 6    1  0.4705246E-006  0.1282079E+03  0.7546771E-02  0.1247163E+00
          2   -1    0    0  501    0  0.00000000000E+00  0.00000000000E+00  0.56670690682E+03  0.56670690682E+03  0.00000000000E+00 0. -1.
         -2   -1    0    0    0  501 -0.00000000000E+00 -0.00000000000E+00 -0.28563621360E+02  0.28563621360E+02  0.00000000000E+00 0.  1.
          5    1    1    2  502    0  0.42163467273E+02 -0.37196761055E+01  0.75198813239E+02  0.86420746788E+02  0.47000000000E+01 0.  1.
         -5    1    1    2    0  502 -0.69741691175E+02  0.10795329781E+02  0.37817398824E+03  0.38473120228E+03  0.47000000000E+01 0.  1.
        -11    1    1    2    0    0 -0.14441106209E+02  0.25880952975E+02  0.56244505991E+02  0.63575260358E+02  0.00000000000E+00 0. -1.
         11    1    1    2    0    0  0.42019330111E+02 -0.32956606651E+02  0.28525977997E+02  0.60543318753E+02  0.00000000000E+00 0.  1.
<mgrwt>
<rscale>  0 0.11756850E+03</rscale>
<asrwt>0</asrwt>
<pdfrwt beam="1">  1        2 0.87185670E-01 0.12820789E+03</pdfrwt>
<pdfrwt beam="2">  1       -2 0.43944037E-02 0.12820789E+03</pdfrwt>
<totfact> 0.12171598E+04</totfact>
</mgrwt>
</event>
<event>
 6    1  0.4705246E-006  0.1290347E+03  0.7546771E-02  0.1239315E+00
          1   -1    0    0  501    0  0.00000000000E+00  0.00000000000E+00  0.65752934468E+02  0.65752934468E+02  0.00000000000E+00 0. -1.
         -1   -1    0    0    0  501 -0.00000000000E+00 -0.00000000000E+00 -0.23495485507E+03  0.23495485507E+03  0.00000000000E+00 0.  1.
          5    1    1    2  502    0  0.37210565331E+02 -0.11751648801E+02  0.18401191029E+02  0.43398401504E+02  0.47000000000E+01 0. -1.
         -5    1    1    2    0  502 -0.29509984035E+02  0.63680294833E+02 -0.59182101889E+02  0.91927309826E+02  0.47000000000E+01 0.  1.
        -11    1    1    2    0    0 -0.25472732860E+02 -0.46756607993E+02 -0.13548377196E+03  0.14557092077E+03  0.00000000000E+00 0.  1.
         11    1    1    2    0    0  0.17772151564E+02 -0.51720380392E+01  0.70627622201E+01  0.19811157434E+02  0.00000000000E+00 0. -1.
<mgrwt>
<rscale>  0 0.12232215E+03</rscale>
<asrwt>0</asrwt>
<pdfrwt beam="1">  1        1 0.10115836E-01 0.12903475E+03</pdfrwt>
<pdfrwt beam="2">  1       -1 0.36146902E-01 0.12903475E+03</pdfrwt>
<totfact> 0.44493254E+03</totfact>
</mgrwt>
</event>
<event>
 6    1  0.4705246E-006  0.1289482E+03  0.7546771E-02  0.1242684E+00
          2   -1    0    0  501    0  0.00000000000E+00  0.00000000000E+00  0.17022663673E+04  0.17022663673E+04  0.00000000000E+00 0.  1.
         -2   -1    0    0    0  501 -0.00000000000E+00 -0.00000000000E+00 -0.14857849437E+02  0.14857849437E+02  0.00000000000E+00 0. -1.
          5    1    1    2  502    0 -0.13339542968E+01 -0.43897410666E+02  0.31075875014E+03  0.31388190914E+03  0.47000000000E+01 0. -1.
         -5    1    1    2    0  502  0.39127965427E+01  0.75411788238E+02  0.11922022983E+04  0.11946006269E+04  0.47000000000E+01 0. -1.
        -11    1    1    2    0    0  0.38484319357E+02 -0.37351698086E+02  0.80537951574E+02  0.96760290564E+02  0.00000000000E+00 0. -1.
         11    1    1    2    0    0 -0.41063161603E+02  0.58373205145E+01  0.10390951782E+03  0.11188139007E+03  0.00000000000E+00 0.  1.
<mgrwt>
<rscale>  0 0.12025050E+03</rscale>
<asrwt>0</asrwt>
<pdfrwt beam="1">  1        2 0.26188698E+00 0.12894824E+03</pdfrwt>
<pdfrwt beam="2">  1       -2 0.22858243E-02 0.12894824E+03</pdfrwt>
<totfact> 0.66475208E+03</totfact>
</mgrwt>
</event>
<event>
 6    1  0.4705246E-006  0.2707036E+03  0.7546771E-02  0.1102918E+00
         -2   -1    0    0    0  501 -0.00000000000E+00  0.00000000000E+00  0.30863917892E+02  0.30863917892E+02  0.00000000000E+00 0.  1.
          2   -1    0    0  501    0  0.00000000000E+00 -0.00000000000E+00 -0.23583087395E+04  0.23583087395E+04  0.00000000000E+00 0. -1.
          5    1    1    2  502    0  0.15785106756E+03  0.18576797424E+03 -0.12887542915E+04  0.13116159551E+04  0.47000000000E+01 0.  1.
         -5    1    1    2    0  502  0.16438898071E+02 -0.20607533215E+02 -0.15564602081E+03  0.15793252226E+03  0.47000000000E+01 0.  1.
        -11    1    1    2    0    0 -0.98988107411E+02 -0.10596822949E+03 -0.36409377333E+03  0.39190839089E+03  0.00000000000E+00 0.  1.
         11    1    1    2    0    0 -0.75301858216E+02 -0.59192211535E+02 -0.51895073602E+03  0.52771578920E+03  0.00000000000E+00 0. -1.
<mgrwt>
<rscale>  0 0.26715607E+03</rscale>
<asrwt>0</asrwt>
<pdfrwt beam="2">  1        2 0.36281689E+00 0.27070365E+03</pdfrwt>
<pdfrwt beam="1">  1       -2 0.47482930E-02 0.27070365E+03</pdfrwt>
<totfact> 0.10146327E+03</totfact>
</mgrwt>
</event>
<event>
 6    1  0.4705246E-006  0.1657020E+03  0.7546771E-02  0.1189077E+00
          2   -1    0    0  501    0  0.00000000000E+00  0.00000000000E+00  0.42977806691E+03  0.42977806691E+03  0.00000000000E+00 0.  1.
         -2   -1    0    0    0  501 -0.00000000000E+00 -0.00000000000E+00 -0.56564212881E+02  0.56564212881E+02  0.00000000000E+00 0. -1.
          5    1    1    2  502    0  0.63226672171E+02 -0.87302801032E+02  0.16570999173E+03  0.19774044225E+03  0.47000000000E+01 0.  1.
         -5    1    1    2    0  502 -0.52954819754E+02 -0.20973684820E+02  0.69589100034E+02  0.90049104569E+02  0.47000000000E+01 0.  1.
        -11    1    1    2    0    0  0.40184223887E+02  0.32221041220E+02  0.52553206804E+02  0.73585371455E+02  0.00000000000E+00 0.  1.
         11    1    1    2    0    0 -0.50456076303E+02  0.76055444632E+02  0.85361555460E+02  0.12496736152E+03  0.00000000000E+00 0. -1.
<mgrwt>
<rscale>  0 0.15966394E+03</rscale>
<asrwt>0</asrwt>
<pdfrwt beam="1">  1        2 0.66119701E-01 0.16570202E+03</pdfrwt>
<pdfrwt beam="2">  1       -2 0.87021869E-02 0.16570202E+03</pdfrwt>
<totfact> 0.59239515E+03</totfact>
</mgrwt>
</event>
<event>
 6    1  0.4705246E-006  0.3811499E+03  0.7546771E-02  0.1050510E+00
          2   -1    0    0  501    0  0.00000000000E+00  0.00000000000E+00  0.33743774935E+03  0.33743774935E+03  0.00000000000E+00 0.  1.
         -2   -1    0    0    0  501 -0.00000000000E+00 -0.00000000000E+00 -0.10763115696E+03  0.10763115696E+03  0.00000000000E+00 0. -1.
          5    1    1    2  502    0 -0.11031540979E+03  0.16145511318E+02  0.14036864404E+00  0.11158977049E+03  0.47000000000E+01 0. -1.
         -5    1    1    2    0  502 -0.34018007361E+02 -0.41660739325E+02  0.81281885802E+02  0.97579080675E+02  0.47000000000E+01 0. -1.
        -11    1    1    2    0    0  0.75871799521E+02  0.51533872958E+02  0.13218869409E+03  0.16089164326E+03  0.00000000000E+00 0.  1.
         11    1    1    2    0    0  0.68461617635E+02 -0.26018644951E+02  0.16195643849E+02  0.75008411888E+02  0.00000000000E+00 0. -1.
<mgrwt>
<rscale>  0 0.38114992E+03</rscale>
<asrwt>0</asrwt>
<pdfrwt beam="1">  1        2 0.51913499E-01 0.38114992E+03</pdfrwt>
<pdfrwt beam="2">  1       -2 0.16558640E-01 0.38114992E+03</pdfrwt>
<totfact> 0.28051935E+03</totfact>
</mgrwt>
</event>
<event>
 6    1  0.4705246E-006  0.3314335E+03  0.7546771E-02  0.1070504E+00
          1   -1    0    0  501    0  0.00000000000E+00  0.00000000000E+00  0.14741496608E+04  0.14741496608E+04  0.00000000000E+00 0. -1.
         -1   -1    0    0    0  501 -0.00000000000E+00 -0.00000000000E+00 -0.18629069814E+02  0.18629069814E+02  0.00000000000E+00 0.  1.
          5    1    1    2  502    0  0.83676173136E+02  0.76381552397E+02  0.53717936261E+03  0.54901694064E+03  0.47000000000E+01 0. -1.
         -5    1    1    2    0  502 -0.14934448571E+02  0.17634954894E+01  0.55352132428E+03  0.55374551384E+03  0.47000000000E+01 0. -1.
        -11    1    1    2    0    0  0.36968614785E+01 -0.61017719438E+02  0.20074654690E+03  0.20984757554E+03  0.00000000000E+00 0. -1.
         11    1    1    2    0    0 -0.72438586043E+02 -0.17127328448E+02  0.16407335718E+03  0.18016870057E+03  0.00000000000E+00 0.  1.
<mgrwt>
<rscale>  0 0.33143347E+03</rscale>
<asrwt>0</asrwt>
<pdfrwt beam="1">  1        1 0.22679216E+00 0.33143347E+03</pdfrwt>
<pdfrwt beam="2">  1       -1 0.28660119E-02 0.33143347E+03</pdfrwt>
<totfact> 0.30077959E+03</totfact>
</mgrwt>
</event>
<event>
 6    1  0.4705246E-006  0.1346026E+03  0.7546771E-02  0.1232973E+00
         -2   -1    0    0    0  501 -0.00000000000E+00  0.00000000000E+00  0.20423108717E+02  0.20423108717E+02  0.00000000000E+00 0.  1.
          2   -1    0    0  501    0  0.00000000000E+00 -0.00000000000E+00 -0.95900534151E+03  0.95900534151E+03  0.00000000000E+00 0. -1.
          5    1    1    2  502    0  0.47300105602E+02 -0.57266672033E+02 -0.71610259403E+03  0.71995957310E+03  0.47000000000E+01 0. -1.
         -5    1    1    2    0  502 -0.70310207856E+01  0.27741860376E+02 -0.49379164075E+02  0.57266376830E+02  0.47000000000E+01 0. -1.
        -11    1    1    2    0    0  0.29936607419E+02  0.66401225229E+01 -0.50073975205E+02  0.58717073187E+02  0.00000000000E+00 0. -1.
         11    1    1    2    0    0 -0.70205692235E+02  0.22884689134E+02 -0.12302649948E+03  0.14348542711E+03  0.00000000000E+00 0.  1.
<mgrwt>
<rscale>  0 0.12635086E+03</rscale>
<asrwt>0</asrwt>
<pdfrwt beam="2">  1        2 0.14753927E+00 0.13460258E+03</pdfrwt>
<pdfrwt beam="1">  1       -2 0.31420171E-02 0.13460258E+03</pdfrwt>
<totfact> 0.10589853E+04</totfact>
</mgrwt>
</event>
<event>
 6    1  0.4705246E-006  0.3151451E+03  0.7546771E-02  0.1077906E+00
          2   -1    0    0  501    0  0.00000000000E+00  0.00000000000E+00  0.71292906936E+02  0.71292906936E+02  0.00000000000E+00 0. -1.
         -2   -1    0    0    0  501 -0.00000000000E+00 -0.00000000000E+00 -0.34826893027E+03  0.34826893027E+03  0.00000000000E+00 0.  1.
          5    1    1    2  502    0 -0.68439372631E+02  0.31257907639E+01  0.40887559871E+02  0.79922467719E+02  0.47000000000E+01 0. -1.
         -5    1    1    2    0  502  0.14121244549E+02 -0.30122176889E+00 -0.49648853213E+02  0.51832411747E+02  0.47000000000E+01 0.  1.
        -11    1    1    2    0    0  0.27112321131E+02  0.43144712722E+02 -0.13083464773E+03  0.14040744012E+03  0.00000000000E+00 0. -1.
         11    1    1    2    0    0  0.27205806952E+02 -0.45969281717E+02 -0.13738008226E+03  0.14739951762E+03  0.00000000000E+00 0.  1.
<mgrwt>
<rscale>  0 0.31514507E+03</rscale>
<asrwt>0</asrwt>
<pdfrwt beam="1">  1        2 0.10968139E-01 0.31514507E+03</pdfrwt>
<pdfrwt beam="2">  1       -2 0.53579837E-01 0.31514507E+03</pdfrwt>
<totfact> 0.19112455E+03</totfact>
</mgrwt>
</event>
<event>
 6    1  0.4705246E-006  0.1289877E+03  0.7546771E-02  0.1241594E+00
         -2   -1    0    0    0  501 -0.00000000000E+00  0.00000000000E+00  0.47191704376E+02  0.47191704376E+02  0.00000000000E+00 0.  1.
          2   -1    0    0  501    0  0.00000000000E+00 -0.00000000000E+00 -0.28180207778E+03  0.28180207778E+03  0.00000000000E+00 0. -1.
          5    1    1    2  502    0 -0.40366341441E+02  0.65071490712E+02 -0.95305589523E+02  0.12234780676E+03  0.47000000000E+01 0. -1.
         -5    1    1    2    0  502  0.40007185514E+02 -0.33157164497E+02 -0.58493834147E+02  0.78381063296E+02  0.47000000000E+01 0. -1.
        -11    1    1    2    0    0  0.23513456699E+02 -0.49449930455E+02 -0.15688432995E+02  0.56958802637E+02  0.00000000000E+00 0.  1.
         11    1    1    2    0    0 -0.23154300772E+02  0.17535604241E+02 -0.65122516740E+02  0.71306109464E+02  0.00000000000E+00 0. -1.
<mgrwt>
<rscale>  0 0.12091583E+03</rscale>
<asrwt>0</asrwt>
<pdfrwt beam="2">  1        2 0.43354166E-01 0.12898766E+03</pdfrwt>
<pdfrwt beam="1">  1       -2 0.72602622E-02 0.12898766E+03</pdfrwt>
<totfact> 0.12091111E+04</totfact>
</mgrwt>
</event>
<event>
 6    1  0.4705246E-006  0.1292422E+03  0.7546771E-02  0.1237329E+00
         -2   -1    0    0    0  501 -0.00000000000E+00  0.00000000000E+00  0.36369181635E+02  0.36369181635E+02  0.00000000000E+00 0.  1.
          2   -1    0    0  501    0  0.00000000000E+00 -0.00000000000E+00 -0.52308220116E+03  0.52308220116E+03  0.00000000000E+00 0. -1.
          5    1    1    2  502    0 -0.42155152428E+02 -0.12652563150E+02 -0.37963314158E+03  0.38220486185E+03  0.47000000000E+01 0. -1.
         -5    1    1    2    0  502 -0.14340595299E+01 -0.32779649600E+02 -0.22180858077E+02  0.39882858720E+02  0.47000000000E+01 0.  1.
        -11    1    1    2    0    0 -0.19093307011E+02  0.24364618520E+02 -0.58452996837E+02  0.66143343184E+02  0.00000000000E+00 0. -1.
         11    1    1    2    0    0  0.62682518969E+02  0.21067594230E+02 -0.26446023027E+02  0.71220319045E+02  0.00000000000E+00 0.  1.
<mgrwt>
<rscale>  0 0.12356486E+03</rscale>
<asrwt>0</asrwt>
<pdfrwt beam="2">  1        2 0.80474174E-01 0.12924223E+03</pdfrwt>
<pdfrwt beam="1">  1       -2 0.55952595E-02 0.12924223E+03</pdfrwt>
<totfact> 0.92685921E+03</totfact>
</mgrwt>
</event>
<event>
 6    1  0.4705246E-006  0.1407016E+03  0.7546771E-02  0.1224166E+00
          1   -1    0    0  501    0  0.00000000000E+00  0.00000000000E+00  0.34137413458E+03  0.34137413458E+03  0.00000000000E+00 0. -1.
         -1   -1    0    0    0  501 -0.00000000000E+00 -0.00000000000E+00 -0.46266053504E+02  0.46266053504E+02  0.00000000000E+00 0.  1.
          5    1    1    2  502    0 -0.40221311924E+02  0.43717850883E+02  0.74604171692E+02  0.95482337909E+02  0.47000000000E+01 0. -1.
         -5    1    1    2    0  502  0.80672663817E+02  0.66486185833E+01  0.10684768659E+03  0.13412979142E+03  0.47000000000E+01 0. -1.
        -11    1    1    2    0    0 -0.35338345782E+02 -0.27351350275E+01  0.83083115057E+00  0.35453771684E+02  0.00000000000E+00 0.  1.
         11    1    1    2    0    0 -0.51130061117E+01 -0.47631334438E+02  0.11282539164E+03  0.12257428707E+03  0.00000000000E+00 0. -1.
<mgrwt>
<rscale>  0 0.13224245E+03</rscale>
<asrwt>0</asrwt>
<pdfrwt beam="1">  1        1 0.52519096E-01 0.14070165E+03</pdfrwt>
<pdfrwt beam="2">  1       -1 0.71178546E-02 0.14070165E+03</pdfrwt>
<totfact> 0.73098893E+03</totfact>
</mgrwt>
</event>
<event>
 6    1  0.4705246E-006  0.1582322E+03  0.7546771E-02  0.1203113E+00
          1   -1    0    0  501    0  0.00000000000E+00  0.00000000000E+00  0.13942171574E+03  0.13942171574E+03  0.00000000000E+00 0. -1.
         -1   -1    0    0    0  501 -0.00000000000E+00 -0.00000000000E+00 -0.32812081803E+03  0.32812081803E+03  0.00000000000E+00 0.  1.
          5    1    1    2  502    0 -0.75746296608E+02  0.79318959950E+02  0.20204727498E+02  0.11162132355E+03  0.47000000000E+01 0. -1.
         -5    1    1    2    0  502  0.16899142600E+02 -0.24870063411E+02  0.56606743031E+02  0.64269078344E+02  0.47000000000E+01 0.  1.
        -11    1    1    2    0    0  0.52732692491E+02 -0.78543487022E+02 -0.19178944204E+03  0.21385276779E+03  0.00000000000E+00 0.  1.
         11    1    1    2    0    0  0.61144615178E+01  0.24094590483E+02 -0.73721130774E+02  0.77799364090E+02  0.00000000000E+00 0. -1.
<mgrwt>
<rscale>  0 0.14787180E+03</rscale>
<asrwt>0</asrwt>
<pdfrwt beam="1">  1        1 0.21449495E-01 0.15823221E+03</pdfrwt>
<pdfrwt beam="2">  1       -1 0.50480125E-01 0.15823221E+03</pdfrwt>
<totfact> 0.93473600E+02</totfact>
</mgrwt>
</event>
<event>
 6    1  0.4705246E-006  0.1372883E+03  0.7546771E-02  0.1228822E+00
         -2   -1    0    0    0  501 -0.00000000000E+00  0.00000000000E+00  0.22545092862E+02  0.22545092862E+02  0.00000000000E+00 0.  1.
          2   -1    0    0  501    0  0.00000000000E+00 -0.00000000000E+00 -0.74067061624E+03  0.74067061624E+03  0.00000000000E+00 0. -1.
          5    1    1    2  502    0  0.57460088944E+02  0.95249099436E+01 -0.93662564036E+02  0.11039543302E+03  0.47000000000E+01 0.  1.
         -5    1    1    2    0  502 -0.42580837418E+01 -0.29343135661E+02 -0.42729721269E+03  0.42835049768E+03  0.47000000000E+01 0.  1.
        -11    1    1    2    0    0 -0.32435622590E+02  0.55364987948E+02 -0.14019040886E+03  0.15417750238E+03  0.00000000000E+00 0.  1.
         11    1    1    2    0    0 -0.20766382612E+02 -0.35546762230E+02 -0.56975337794E+02  0.70292276024E+02  0.00000000000E+00 0. -1.
<mgrwt>
<rscale>  0 0.12908350E+03</rscale>
<asrwt>0</asrwt>
<pdfrwt beam="2">  1        2 0.11394931E+00 0.13728834E+03</pdfrwt>
<pdfrwt beam="1">  1       -2 0.34684764E-02 0.13728834E+03</pdfrwt>
<totfact> 0.12731849E+04</totfact>
</mgrwt>
</event>
<event>
 6    1  0.4705246E-006  0.3367684E+03  0.7546771E-02  0.1068181E+00
         -2   -1    0    0    0  501 -0.00000000000E+00  0.00000000000E+00  0.11920820351E+03  0.11920820351E+03  0.00000000000E+00 0. -1.
          2   -1    0    0  501    0  0.00000000000E+00 -0.00000000000E+00 -0.23784635936E+03  0.23784635936E+03  0.00000000000E+00 0.  1.
          5    1    1    2  502    0  0.65013997834E+01 -0.12480404853E+02  0.18235808483E+02  0.23508794429E+02  0.47000000000E+01 0.  1.
         -5    1    1    2    0  502 -0.56659834315E+02 -0.52554682256E+02 -0.18468660831E+03  0.20025874448E+03  0.47000000000E+01 0.  1.
        -11    1    1    2    0    0  0.53039433119E+02  0.28986697573E+02 -0.13658459214E+02  0.61967439917E+02  0.00000000000E+00 0.  1.
         11    1    1    2    0    0 -0.28809985876E+01  0.36048389536E+02  0.61471103195E+02  0.71319584050E+02  0.00000000000E+00 0. -1.
<mgrwt>
<rscale>  0 0.33676839E+03</rscale>
<asrwt>0</asrwt>
<pdfrwt beam="2">  1        2 0.36591747E-01 0.33676839E+03</pdfrwt>
<pdfrwt beam="1">  1       -2 0.18339724E-01 0.33676839E+03</pdfrwt>
<totfact> 0.34442559E+03</totfact>
</mgrwt>
</event>
<event>
 6    1  0.4705246E-006  0.1577004E+03  0.7546771E-02  0.1199614E+00
          1   -1    0    0  501    0  0.00000000000E+00  0.00000000000E+00  0.44357969783E+03  0.44357969783E+03  0.00000000000E+00 0. -1.
         -1   -1    0    0    0  501 -0.00000000000E+00 -0.00000000000E+00 -0.52337782904E+02  0.52337782904E+02  0.00000000000E+00 0.  1.
          5    1    1    2  502    0  0.28917522966E+02  0.18808038382E+02  0.18039878542E+03  0.18372745365E+03  0.47000000000E+01 0. -1.
         -5    1    1    2    0  502  0.35733063310E+02 -0.89960061306E+02  0.10901671295E+03  0.14586431416E+03  0.47000000000E+01 0. -1.
        -11    1    1    2    0    0 -0.40125084015E+02  0.59351690148E+02  0.11546323243E+03  0.13588378687E+03  0.00000000000E+00 0. -1.
         11    1    1    2    0    0 -0.24525502260E+02  0.11800332777E+02 -0.13636815875E+02  0.30441926056E+02  0.00000000000E+00 0.  1.
<mgrwt>
<rscale>  0 0.15070114E+03</rscale>
<asrwt>0</asrwt>
<pdfrwt beam="1">  1        1 0.68243028E-01 0.15770036E+03</pdfrwt>
<pdfrwt beam="2">  1       -1 0.80519669E-02 0.15770036E+03</pdfrwt>
<totfact> 0.43884252E+03</totfact>
</mgrwt>
</event>
<event>
 6    1  0.4705246E-006  0.2385904E+03  0.7546771E-02  0.1123478E+00
         -2   -1    0    0    0  501 -0.00000000000E+00  0.00000000000E+00  0.68426243821E+02  0.68426243821E+02  0.00000000000E+00 0.  1.
          2   -1    0    0  501    0  0.00000000000E+00 -0.00000000000E+00 -0.10016203490E+04  0.10016203490E+04  0.00000000000E+00 0. -1.
          5    1    1    2  502    0  0.21793845889E+01 -0.18101649502E+03 -0.69932452481E+03  0.72239089293E+03  0.47000000000E+01 0. -1.
         -5    1    1    2    0  502 -0.27083632841E+02 -0.20668310355E+02 -0.32401930132E+02  0.47251214768E+02  0.47000000000E+01 0. -1.
        -11    1    1    2    0    0 -0.12036775974E+02  0.14310549421E+03 -0.17471530942E+03  0.22616256497E+03  0.00000000000E+00 0. -1.
         11    1    1    2    0    0  0.36941024226E+02  0.58579311167E+02 -0.26752340803E+02  0.74241920140E+02  0.00000000000E+00 0.  1.
<mgrwt>
<rscale>  0 0.23454900E+03</rscale>
<asrwt>0</asrwt>
<pdfrwt beam="2">  1        2 0.15409544E+00 0.23859038E+03</pdfrwt>
<pdfrwt beam="1">  1       -2 0.10527114E-01 0.23859038E+03</pdfrwt>
<totfact> 0.16004686E+03</totfact>
</mgrwt>
</event>
<event>
 6    1  0.4705246E-006  0.1500410E+03  0.7546771E-02  0.1209953E+00
         -3   -1    0    0    0  501 -0.00000000000E+00  0.00000000000E+00  0.23586295228E+03  0.23586295228E+03  0.00000000000E+00 0.  1.
          3   -1    0    0  501    0  0.00000000000E+00 -0.00000000000E+00 -0.82143688652E+02  0.82143688652E+02  0.00000000000E+00 0. -1.
          5    1    1    2  502    0  0.70502349615E+01  0.35349962580E+01 -0.33311222461E+02  0.34553285711E+02  0.47000000000E+01 0.  1.
         -5    1    1    2    0  502 -0.89181123100E+02 -0.15536589349E+02  0.84656068465E+02  0.12402982808E+03  0.47000000000E+01 0.  1.
        -11    1    1    2    0    0  0.72647451809E+02  0.20697235490E+02  0.11742468871E+03  0.13962301146E+03  0.00000000000E+00 0.  1.
         11    1    1    2    0    0  0.94834363293E+01 -0.86956423991E+01 -0.15050271085E+02  0.19800515677E+02  0.00000000000E+00 0. -1.
<mgrwt>
<rscale>  0 0.14253923E+03</rscale>
<asrwt>0</asrwt>
<pdfrwt beam="2">  1        3 0.12637491E-01 0.15004103E+03</pdfrwt>
<pdfrwt beam="1">  1       -3 0.36286608E-01 0.15004103E+03</pdfrwt>
<totfact> 0.87430099E+02</totfact>
</mgrwt>
</event>
<event>
 6    1  0.4705246E-006  0.1264117E+03  0.7546771E-02  0.1248306E+00
         -1   -1    0    0    0  501 -0.00000000000E+00  0.00000000000E+00  0.11395785613E+03  0.11395785613E+03  0.00000000000E+00 0.  1.
          1   -1    0    0  501    0  0.00000000000E+00 -0.00000000000E+00 -0.11995644103E+03  0.11995644103E+03  0.00000000000E+00 0. -1.
          5    1    1    2  502    0  0.12261978592E+02 -0.64422761199E+02 -0.31033882627E+02  0.72703783605E+02  0.47000000000E+01 0. -1.
         -5    1    1    2    0  502 -0.27236047490E+02  0.53002894273E+02 -0.13136088485E+02  0.61202580868E+02  0.47000000000E+01 0. -1.
        -11    1    1    2    0    0  0.21383399448E+02 -0.27646446102E+02 -0.11221009023E+02  0.36708129856E+02  0.00000000000E+00 0. -1.
         11    1    1    2    0    0 -0.64093305497E+01  0.39066313028E+02  0.49392395231E+02  0.63299802830E+02  0.00000000000E+00 0.  1.
<mgrwt>
<rscale>  0 0.11689652E+03</rscale>
<asrwt>0</asrwt>
<pdfrwt beam="2">  1        1 0.18454837E-01 0.12641174E+03</pdfrwt>
<pdfrwt beam="1">  1       -1 0.17531978E-01 0.12641174E+03</pdfrwt>
<totfact> 0.66900949E+03</totfact>
</mgrwt>
</event>
<event>
 6    1  0.4705246E-006  0.1196765E+03  0.7546771E-02  0.1273520E+00
         -2   -1    0    0    0  501 -0.00000000000E+00  0.00000000000E+00  0.11649604398E+02  0.11649604398E+02  0.00000000000E+00 0.  1.
          2   -1    0    0  501    0  0.00000000000E+00 -0.00000000000E+00 -0.75748079751E+03  0.75748079751E+03  0.00000000000E+00 0. -1.
          5    1    1    2  502    0 -0.50858512228E+02 -0.30825862943E+02 -0.40001598700E+03  0.40443998560E+03  0.47000000000E+01 0. -1.
         -5    1    1    2    0  502  0.47121512841E+02  0.11737645281E+02 -0.12834782165E+03  0.13730791169E+03  0.47000000000E+01 0.  1.
        -11    1    1    2    0    0 -0.65915736545E+01  0.41266508786E+02 -0.12945476585E+03  0.13603275338E+03  0.00000000000E+00 0. -1.
         11    1    1    2    0    0  0.10328573042E+02 -0.22178291124E+02 -0.88012618605E+02  0.91349751242E+02  0.00000000000E+00 0.  1.
<mgrwt>
<rscale>  0 0.10329294E+03</rscale>
<asrwt>0</asrwt>
<pdfrwt beam="2">  1        2 0.11653551E+00 0.11967652E+03</pdfrwt>
<pdfrwt beam="1">  1       -2 0.17922468E-02 0.11967652E+03</pdfrwt>
<totfact> 0.32111589E+04</totfact>
</mgrwt>
</event>
<event>
 6    1  0.4705246E-006  0.1345288E+03  0.7546771E-02  0.1233775E+00
         -1   -1    0    0    0  501 -0.00000000000E+00  0.00000000000E+00  0.20603963218E+03  0.20603963218E+03  0.00000000000E+00 0.  1.
          1   -1    0    0  501    0  0.00000000000E+00 -0.00000000000E+00 -0.75553763504E+02  0.75553763504E+02  0.00000000000E+00 0. -1.
          5    1    1    2  502    0 -0.52117872122E+02  0.23940288658E+02 -0.32274516539E+02  0.65978363373E+02  0.47000000000E+01 0.  1.
         -5    1    1    2    0  502  0.36561175626E+01 -0.35027188132E+02  0.62517059214E+02  0.71907884108E+02  0.47000000000E+01 0.  1.
        -11    1    1    2    0    0  0.14651881129E+02  0.27234266594E+02  0.10161239353E+03  0.10621422417E+03  0.00000000000E+00 0.  1.
         11    1    1    2    0    0  0.33809873430E+02 -0.16147367120E+02 -0.13690675332E+01  0.37492924028E+02  0.00000000000E+00 0. -1.
<mgrwt>
<rscale>  0 0.12583175E+03</rscale>
<asrwt>0</asrwt>
<pdfrwt beam="2">  1        1 0.11623656E-01 0.13452883E+03</pdfrwt>
<pdfrwt beam="1">  1       -1 0.31698405E-01 0.13452883E+03</pdfrwt>
<totfact> 0.46474696E+03</totfact>
</mgrwt>
</event>
<event>
 6    1  0.4705246E-006  0.1280909E+03  0.7546771E-02  0.1244153E+00
         -3   -1    0    0    0  501 -0.00000000000E+00  0.00000000000E+00  0.16813044133E+03  0.16813044133E+03  0.00000000000E+00 0.  1.
          3   -1    0    0  501    0  0.00000000000E+00 -0.00000000000E+00 -0.75849817961E+02  0.75849817961E+02  0.00000000000E+00 0. -1.
          5    1    1    2  502    0  0.44281463997E+02  0.48202737144E+02 -0.65752610226E+01  0.65952073352E+02  0.47000000000E+01 0. -1.
         -5    1    1    2    0  502 -0.45200047358E+02 -0.20263244948E+02  0.46795800355E+02  0.68305053311E+02  0.47000000000E+01 0. -1.
        -11    1    1    2    0    0 -0.26610235224E+02 -0.17258300909E+02 -0.16006969532E+02  0.35527125447E+02  0.00000000000E+00 0. -1.
         11    1    1    2    0    0  0.27528818585E+02 -0.10681191287E+02  0.68067053573E+02  0.74196007184E+02  0.00000000000E+00 0.  1.
<mgrwt>
<rscale>  0 0.11936243E+03</rscale>
<asrwt>0</asrwt>
<pdfrwt beam="2">  1        3 0.11669203E-01 0.12809092E+03</pdfrwt>
<pdfrwt beam="1">  1       -3 0.25866222E-01 0.12809092E+03</pdfrwt>
<totfact> 0.18261998E+03</totfact>
</mgrwt>
</event>
<event>
 6    1  0.4705246E-006  0.1446204E+03  0.7546771E-02  0.1218156E+00
         -1   -1    0    0    0  501 -0.00000000000E+00  0.00000000000E+00  0.10345576542E+03  0.10345576542E+03  0.00000000000E+00 0.  1.
          1   -1    0    0  501    0  0.00000000000E+00 -0.00000000000E+00 -0.17127896938E+03  0.17127896938E+03  0.00000000000E+00 0. -1.
          5    1    1    2  502    0 -0.28277717799E+01 -0.21292255191E+02 -0.96012437279E+02  0.98497891026E+02  0.47000000000E+01 0.  1.
         -5    1    1    2    0  502 -0.40151913565E+02 -0.37433170463E+02  0.27446244620E+02  0.61553267643E+02  0.47000000000E+01 0.  1.
        -11    1    1    2    0    0  0.13621612146E+02  0.77501258503E+02  0.79753533063E+01  0.79092348854E+02  0.00000000000E+00 0. -1.
         11    1    1    2    0    0  0.29358073198E+02 -0.18775832849E+02 -0.72323646090E+01  0.35591227275E+02  0.00000000000E+00 0.  1.
<mgrwt>
<rscale>  0 0.13647249E+03</rscale>
<asrwt>0</asrwt>
<pdfrwt beam="2">  1        1 0.26350611E-01 0.14462037E+03</pdfrwt>
<pdfrwt beam="1">  1       -1 0.15916272E-01 0.14462037E+03</pdfrwt>
<totfact> 0.50133185E+03</totfact>
</mgrwt>
</event>
<event>
 6    1  0.4705246E-006  0.2069371E+03  0.7546771E-02  0.1147877E+00
          1   -1    0    0  501    0  0.00000000000E+00  0.00000000000E+00  0.11471982470E+04  0.11471982470E+04  0.00000000000E+00 0. -1.
         -1   -1    0    0    0  501 -0.00000000000E+00 -0.00000000000E+00 -0.44789155387E+02  0.44789155387E+02  0.00000000000E+00 0.  1.
          5    1    1    2  502    0 -0.40368717894E+02  0.10728425013E+03  0.29067517909E+03  0.31249590949E+03  0.47000000000E+01 0. -1.
         -5    1    1    2    0  502  0.87351887896E+01  0.54582604458E+02  0.57060780322E+03  0.57329828129E+03  0.47000000000E+01 0. -1.
        -11    1    1    2    0    0 -0.25185015624E+02 -0.90282418629E+02  0.92308117810E+02  0.13155222818E+03  0.00000000000E+00 0.  1.
         11    1    1    2    0    0  0.56818544728E+02 -0.71584435963E+02  0.14881799145E+03  0.17464098338E+03  0.00000000000E+00 0. -1.
<mgrwt>
<rscale>  0 0.20222232E+03</rscale>
<asrwt>0</asrwt>
<pdfrwt beam="1">  1        1 0.17649202E+00 0.20693712E+03</pdfrwt>
<pdfrwt beam="2">  1       -1 0.68906401E-02 0.20693712E+03</pdfrwt>
<totfact> 0.13526749E+03</totfact>
</mgrwt>
</event>
<event>
 6    1  0.4705246E-006  0.1310459E+03  0.7546771E-02  0.1238970E+00
         -1   -1    0    0    0  501 -0.00000000000E+00  0.00000000000E+00  0.13830974638E+02  0.13830974638E+02  0.00000000000E+00 0.  1.
          1   -1    0    0  501    0  0.00000000000E+00 -0.00000000000E+00 -0.97123521144E+03  0.97123521144E+03  0.00000000000E+00 0. -1.
          5    1    1    2  502    0 -0.15853572363E+01  0.29543375887E+02 -0.46791458209E+03  0.46887255257E+03  0.47000000000E+01 0.  1.
         -5    1    1    2    0  502  0.45947747613E+02 -0.32318276286E+02 -0.10872189903E+03  0.12246717038E+03  0.47000000000E+01 0.  1.
        -11    1    1    2    0    0  0.55673940715E+01 -0.29540710283E+02 -0.56004716506E+02  0.63562392275E+02  0.00000000000E+00 0.  1.
         11    1    1    2    0    0 -0.49929784448E+02  0.32315610682E+02 -0.32476303918E+03  0.33016407086E+03  0.00000000000E+00 0. -1.
<mgrwt>
<rscale>  0 0.12253641E+03</rscale>
<asrwt>0</asrwt>
<pdfrwt beam="2">  1        1 0.14942082E+00 0.13104593E+03</pdfrwt>
<pdfrwt beam="1">  1       -1 0.21278421E-02 0.13104593E+03</pdfrwt>
<totfact> 0.10124076E+04</totfact>
</mgrwt>
</event>
<event>
 6    1  0.4705246E-006  0.1572243E+03  0.7546771E-02  0.1211868E+00
          2   -1    0    0  501    0  0.00000000000E+00  0.00000000000E+00  0.21257503523E+04  0.21257503523E+04  0.00000000000E+00 0. -1.
         -2   -1    0    0    0  501 -0.00000000000E+00 -0.00000000000E+00 -0.34012628912E+02  0.34012628912E+02  0.00000000000E+00 0.  1.
          5    1    1    2  502    0  0.38811445973E+02 -0.29273272269E+02  0.16211992206E+04  0.16219347261E+04  0.47000000000E+01 0. -1.
         -5    1    1    2    0  502 -0.11889881229E+02  0.65624623513E+02  0.41764494103E+03  0.42296258375E+03  0.47000000000E+01 0.  1.
        -11    1    1    2    0    0  0.24460942233E+02 -0.34162773194E+02  0.13289578425E+01  0.42038064848E+02  0.00000000000E+00 0.  1.
         11    1    1    2    0    0 -0.51382506978E+02 -0.21885780503E+01  0.51564603959E+02  0.72827606569E+02  0.00000000000E+00 0. -1.
<mgrwt>
<rscale>  0 0.14109128E+03</rscale>
<asrwt>0</asrwt>
<pdfrwt beam="1">  1        2 0.32703841E+00 0.15722434E+03</pdfrwt>
<pdfrwt beam="2">  1       -2 0.52327138E-02 0.15722434E+03</pdfrwt>
<totfact> 0.11832311E+03</totfact>
</mgrwt>
</event>
<event>
 6    1  0.4705246E-006  0.1731350E+03  0.7546771E-02  0.1181065E+00
         -4   -1    0    0    0  501 -0.00000000000E+00  0.00000000000E+00  0.35492163790E+03  0.35492163790E+03  0.00000000000E+00 0.  1.
          4   -1    0    0  501    0  0.00000000000E+00 -0.00000000000E+00 -0.74179830244E+02  0.74179830244E+02  0.00000000000E+00 0. -1.
          5    1    1    2  502    0 -0.10747092070E+02 -0.93073482722E+02  0.41286888780E+02  0.10249326982E+03  0.47000000000E+01 0.  1.
         -5    1    1    2    0  502  0.50105746573E+02 -0.20064850529E+02  0.13098295114E+03  0.14174557332E+03  0.47000000000E+01 0.  1.
        -11    1    1    2    0    0  0.11448366889E+02  0.28201441542E+02  0.74072768859E+02  0.80082217101E+02  0.00000000000E+00 0.  1.
         11    1    1    2    0    0 -0.50807021392E+02  0.84936891709E+02  0.34399198876E+02  0.10478040790E+03  0.00000000000E+00 0. -1.
<mgrwt>
<rscale>  0 0.16695100E+03</rscale>
<asrwt>0</asrwt>
<pdfrwt beam="2">  1        4 0.11412282E-01 0.17313496E+03</pdfrwt>
<pdfrwt beam="1">  1       -4 0.54603328E-01 0.17313496E+03</pdfrwt>
<totfact> 0.34031001E+02</totfact>
</mgrwt>
</event>
<event>
 6    1  0.4705246E-006  0.1488030E+03  0.7546771E-02  0.1210187E+00
          1   -1    0    0  501    0  0.00000000000E+00  0.00000000000E+00  0.38939160640E+03  0.38939160640E+03  0.00000000000E+00 0. -1.
         -1   -1    0    0    0  501 -0.00000000000E+00 -0.00000000000E+00 -0.81140951282E+02  0.81140951282E+02  0.00000000000E+00 0.  1.
          5    1    1    2  502    0  0.88990219148E+02  0.77509111779E+01  0.18642248371E+03  0.20677226158E+03  0.47000000000E+01 0.  1.
         -5    1    1    2    0  502 -0.32202829489E+02  0.49629772992E+02  0.12573462673E+03  0.13903748758E+03  0.47000000000E+01 0.  1.
        -11    1    1    2    0    0 -0.79764562759E+02 -0.33257276243E+02 -0.18456696812E+02  0.88369007873E+02  0.00000000000E+00 0.  1.
         11    1    1    2    0    0  0.22977173100E+02 -0.24123407927E+02  0.14550241491E+02  0.36353800642E+02  0.00000000000E+00 0. -1.
<mgrwt>
<rscale>  0 0.14236127E+03</rscale>
<asrwt>0</asrwt>
<pdfrwt beam="1">  1        1 0.59906400E-01 0.14880296E+03</pdfrwt>
<pdfrwt beam="2">  1       -1 0.12483223E-01 0.14880296E+03</pdfrwt>
<totfact> 0.26397016E+03</totfact>
</mgrwt>
</event>
<event>
 6    1  0.4705246E-006  0.1819623E+03  0.7546771E-02  0.1191947E+00
         -1   -1    0    0    0  501 -0.00000000000E+00  0.00000000000E+00  0.45654701225E+03  0.45654701225E+03  0.00000000000E+00 0.  1.
          1   -1    0    0  501    0  0.00000000000E+00 -0.00000000000E+00 -0.58339150747E+02  0.58339150747E+02  0.00000000000E+00 0. -1.
          5    1    1    2  502    0  0.78293893678E+02 -0.47461051811E+02  0.82249059912E+01  0.92044686457E+02  0.47000000000E+01 0. -1.
         -5    1    1    2    0  502 -0.55915053304E+02  0.19973507104E+02  0.10958659923E+03  0.12472668881E+03  0.47000000000E+01 0.  1.
        -11    1    1    2    0    0  0.30645078039E+02 -0.82294877354E+01  0.51792922433E+02  0.60740036966E+02  0.00000000000E+00 0. -1.
         11    1    1    2    0    0 -0.53023918413E+02  0.35717032443E+02  0.22860343385E+03  0.23737475076E+03  0.00000000000E+00 0.  1.
<mgrwt>
<rscale>  0 0.15715499E+03</rscale>
<asrwt>0</asrwt>
<pdfrwt beam="2">  1        1 0.89752543E-02 0.18196230E+03</pdfrwt>
<pdfrwt beam="1">  1       -1 0.70238000E-01 0.18196230E+03</pdfrwt>
<totfact> 0.15614925E+03</totfact>
</mgrwt>
</event>
<event>
 6    1  0.4705246E-006  0.1521202E+03  0.7546771E-02  0.1206321E+00
          3   -1    0    0  501    0  0.00000000000E+00  0.00000000000E+00  0.17892326978E+03  0.17892326978E+03  0.00000000000E+00 0. -1.
         -3   -1    0    0    0  501 -0.00000000000E+00 -0.00000000000E+00 -0.11021733323E+03  0.11021733323E+03  0.00000000000E+00 0.  1.
          5    1    1    2  502    0 -0.12017840870E+02  0.18750318183E+01  0.67904128889E+02  0.69144811546E+02  0.47000000000E+01 0. -1.
         -5    1    1    2    0  502  0.27193334620E+02 -0.87217538061E+02 -0.13378067375E+02  0.92452361137E+02  0.47000000000E+01 0. -1.
        -11    1    1    2    0    0 -0.16225609673E+02 -0.23272045259E+01 -0.26287238233E+02  0.30979108833E+02  0.00000000000E+00 0.  1.
         11    1    1    2    0    0  0.10501159237E+01  0.87669710769E+02  0.40467113269E+02  0.96564321496E+02  0.00000000000E+00 0. -1.
<mgrwt>
<rscale>  0 0.14533811E+03</rscale>
<asrwt>0</asrwt>
<pdfrwt beam="1">  1        3 0.27526657E-01 0.15212020E+03</pdfrwt>
<pdfrwt beam="2">  1       -3 0.16956513E-01 0.15212020E+03</pdfrwt>
<totfact> 0.88763611E+02</totfact>
</mgrwt>
</event>
<event>
 6    1  0.4705246E-006  0.2555751E+03  0.7546771E-02  0.1111952E+00
          1   -1    0    0  501    0  0.00000000000E+00  0.00000000000E+00  0.33337057816E+03  0.33337057816E+03  0.00000000000E+00 0. -1.
         -1   -1    0    0    0  501 -0.00000000000E+00 -0.00000000000E+00 -0.18830467074E+03  0.18830467074E+03  0.00000000000E+00 0.  1.
          5    1    1    2  502    0 -0.94400911416E+02  0.55474974539E+02  0.10227651676E+03  0.14990523926E+03  0.47000000000E+01 0.  1.
         -5    1    1    2    0  502 -0.46509980479E+02  0.11726209819E+03  0.23552788807E+01  0.12625852563E+03  0.47000000000E+01 0.  1.
        -11    1    1    2    0    0  0.10158698888E+03 -0.17432775881E+03  0.25306717653E+02  0.20334825734E+03  0.00000000000E+00 0.  1.
         11    1    1    2    0    0  0.39323903010E+02  0.15906860835E+01  0.15127394132E+02  0.42163226672E+02  0.00000000000E+00 0. -1.
<mgrwt>
<rscale>  0 0.25215292E+03</rscale>
<asrwt>0</asrwt>
<pdfrwt beam="1">  1        1 0.51287781E-01 0.25557506E+03</pdfrwt>
<pdfrwt beam="2">  1       -1 0.28969949E-01 0.25557506E+03</pdfrwt>
<totfact> 0.83277176E+02</totfact>
</mgrwt>
</event>
<event>
 6    1  0.4705246E-006  0.2125828E+03  0.7546771E-02  0.1143315E+00
          2   -1    0    0  501    0  0.00000000000E+00  0.00000000000E+00  0.17460691452E+03  0.17460691452E+03  0.00000000000E+00 0. -1.
         -2   -1    0    0    0  501 -0.00000000000E+00 -0.00000000000E+00 -0.28904033425E+03  0.28904033425E+03  0.00000000000E+00 0.  1.
          5    1    1    2  502    0  0.15030754842E+03  0.96165706636E+02  0.42343069138E+02  0.18345361198E+03  0.47000000000E+01 0.  1.
         -5    1    1    2    0  502  0.88020998108E+01 -0.30968339189E+02 -0.32345581787E+01  0.32696595538E+02  0.47000000000E+01 0.  1.
        -11    1    1    2    0    0 -0.12409838474E+03 -0.86382229985E+02 -0.13447743059E+03  0.20235236122E+03  0.00000000000E+00 0.  1.
         11    1    1    2    0    0 -0.35011263481E+02  0.21184862537E+02 -0.19064500109E+02  0.45144680037E+02  0.00000000000E+00 0. -1.
<mgrwt>
<rscale>  0 0.20780664E+03</rscale>
<asrwt>0</asrwt>
<pdfrwt beam="1">  1        2 0.26862603E-01 0.21258278E+03</pdfrwt>
<pdfrwt beam="2">  1       -2 0.44467743E-01 0.21258278E+03</pdfrwt>
<totfact> 0.95845781E+02</totfact>
</mgrwt>
</event>
<event>
 6    1  0.4705246E-006  0.1287624E+03  0.7546771E-02  0.1241991E+00
          3   -1    0    0  501    0  0.00000000000E+00  0.00000000000E+00  0.38238913878E+03  0.38238913878E+03  0.00000000000E+00 0. -1.
         -3   -1    0    0    0  501 -0.00000000000E+00 -0.00000000000E+00 -0.34025241287E+02  0.34025241287E+02  0.00000000000E+00 0.  1.
          5    1    1    2  502    0  0.43327838828E+02 -0.11109035968E+02  0.35970044157E+02  0.57590332299E+02  0.47000000000E+01 0.  1.
         -5    1    1    2    0  502 -0.73638076368E+02  0.18026375344E+02  0.15679102181E+03  0.17422121289E+03  0.47000000000E+01 0.  1.
        -11    1    1    2    0    0 -0.22968172396E+01  0.41120027251E+02  0.68352501669E+02  0.79800980539E+02  0.00000000000E+00 0. -1.
         11    1    1    2    0    0  0.32607054780E+02 -0.48037366627E+02  0.87250329858E+02  0.10480185435E+03  0.00000000000E+00 0.  1.
<mgrwt>
<rscale>  0 0.12067278E+03</rscale>
<asrwt>0</asrwt>
<pdfrwt beam="1">  1        3 0.58829095E-01 0.12876243E+03</pdfrwt>
<pdfrwt beam="2">  1       -3 0.52346528E-02 0.12876243E+03</pdfrwt>
<totfact> 0.13863599E+03</totfact>
</mgrwt>
</event>
<event>
 6    1  0.4705246E-006  0.2349680E+03  0.7546771E-02  0.1126142E+00
         -3   -1    0    0    0  501 -0.00000000000E+00  0.00000000000E+00  0.10630449234E+03  0.10630449234E+03  0.00000000000E+00 0.  1.
          3   -1    0    0  501    0  0.00000000000E+00 -0.00000000000E+00 -0.53594942509E+03  0.53594942509E+03  0.00000000000E+00 0. -1.
          5    1    1    2  502    0 -0.71216794015E+01  0.21136370214E+02  0.80698493541E+01  0.24180093712E+02  0.47000000000E+01 0. -1.
         -5    1    1    2    0  502 -0.50946066092E+02  0.16915424469E+03 -0.33051685657E+03  0.37479613475E+03  0.47000000000E+01 0. -1.
        -11    1    1    2    0    0  0.76595151690E+02 -0.12376163653E+03 -0.93150983610E+02  0.17280296782E+03  0.00000000000E+00 0.  1.
         11    1    1    2    0    0 -0.18527406196E+02 -0.66528978370E+02 -0.14046941915E+02  0.70474721145E+02  0.00000000000E+00 0. -1.
<mgrwt>
<rscale>  0 0.23070816E+03</rscale>
<asrwt>0</asrwt>
<pdfrwt beam="2">  1        3 0.82453757E-01 0.23496799E+03</pdfrwt>
<pdfrwt beam="1">  1       -3 0.16354537E-01 0.23496799E+03</pdfrwt>
<totfact> 0.11060902E+02</totfact>
</mgrwt>
</event>
<event>
 6    1  0.4705246E-006  0.1918881E+03  0.7546771E-02  0.1161578E+00
         -3   -1    0    0    0  501 -0.00000000000E+00  0.00000000000E+00  0.79040384672E+03  0.79040384672E+03  0.00000000000E+00 0.  1.
          3   -1    0    0  501    0  0.00000000000E+00 -0.00000000000E+00 -0.43300865411E+02  0.43300865411E+02  0.00000000000E+00 0. -1.
          5    1    1    2  502    0  0.14742512359E+03  0.54038568848E+02  0.30351791060E+03  0.34175948567E+03  0.47000000000E+01 0.  1.
         -5    1    1    2    0  502 -0.19230483337E+02  0.14976292359E+02  0.12106448135E+02  0.27618054034E+02  0.47000000000E+01 0.  1.
        -11    1    1    2    0    0 -0.13054571308E+03 -0.49953338714E+02  0.41829728494E+03  0.44103303486E+03  0.00000000000E+00 0.  1.
         11    1    1    2    0    0  0.23510728208E+01 -0.19061522493E+02  0.13181337632E+02  0.23294137566E+02  0.00000000000E+00 0. -1.
<mgrwt>
<rscale>  0 0.18658522E+03</rscale>
<asrwt>0</asrwt>
<pdfrwt beam="2">  1        3 0.66616722E-02 0.19188807E+03</pdfrwt>
<pdfrwt beam="1">  1       -3 0.12160058E+00 0.19188807E+03</pdfrwt>
<totfact> 0.20034529E+02</totfact>
</mgrwt>
</event>
<event>
 6    1  0.4705246E-006  0.1460241E+03  0.7546771E-02  0.1219111E+00
          1   -1    0    0  501    0  0.00000000000E+00  0.00000000000E+00  0.42839896338E+03  0.42839896338E+03  0.00000000000E+00 0. -1.
         -1   -1    0    0    0  501 -0.00000000000E+00 -0.00000000000E+00 -0.38010100593E+02  0.38010100593E+02  0.00000000000E+00 0.  1.
          5    1    1    2  502    0  0.65580303834E+02  0.54879187176E+02  0.66676075147E+02  0.10853704636E+03  0.47000000000E+01 0. -1.
         -5    1    1    2    0  502 -0.20972900729E+02  0.61011663063E+01  0.15701920628E+03  0.15860078163E+03  0.47000000000E+01 0. -1.
        -11    1    1    2    0    0 -0.14098145861E+02 -0.13183869975E+02 -0.37323459379E+01  0.19659668116E+02  0.00000000000E+00 0.  1.
         11    1    1    2    0    0 -0.30509257244E+02 -0.47796483507E+02  0.17042592730E+03  0.17961156786E+03  0.00000000000E+00 0. -1.
<mgrwt>
<rscale>  0 0.13578860E+03</rscale>
<asrwt>0</asrwt>
<pdfrwt beam="1">  1        1 0.65907530E-01 0.14602411E+03</pdfrwt>
<pdfrwt beam="2">  1       -1 0.58477081E-02 0.14602411E+03</pdfrwt>
<totfact> 0.73879740E+03</totfact>
</mgrwt>
</event>
<event>
 6    1  0.4705246E-006  0.2687774E+03  0.7546771E-02  0.1101981E+00
         -1   -1    0    0    0  501 -0.00000000000E+00  0.00000000000E+00  0.53113353088E+02  0.53113353088E+02  0.00000000000E+00 0.  1.
          1   -1    0    0  501    0  0.00000000000E+00 -0.00000000000E+00 -0.34003356553E+03  0.34003356553E+03  0.00000000000E+00 0. -1.
          5    1    1    2  502    0  0.13397481069E+02  0.10281800264E+03 -0.16369847571E+03  0.19383063513E+03  0.47000000000E+01 0. -1.
         -5    1    1    2    0  502 -0.20821492673E+02 -0.24421267178E+02 -0.44431846812E+02  0.55011015795E+02  0.47000000000E+01 0.  1.
        -11    1    1    2    0    0  0.44352730704E+02 -0.66603335002E+02 -0.65222752083E+02  0.10323360085E+03  0.00000000000E+00 0. -1.
         11    1    1    2    0    0 -0.36928719099E+02 -0.11793400456E+02 -0.13567137839E+02  0.41071666849E+02  0.00000000000E+00 0.  1.
<mgrwt>
<rscale>  0 0.26877740E+03</rscale>
<asrwt>0</asrwt>
<pdfrwt beam="2">  1        1 0.52312856E-01 0.26877740E+03</pdfrwt>
<pdfrwt beam="1">  1       -1 0.81712852E-02 0.26877740E+03</pdfrwt>
<totfact> 0.61766099E+03</totfact>
</mgrwt>
</event>
<event>
 6    1  0.4705246E-006  0.1449969E+03  0.7546771E-02  0.1216079E+00
          3   -1    0    0  501    0  0.00000000000E+00  0.00000000000E+00  0.13707500006E+03  0.13707500006E+03  0.00000000000E+00 0. -1.
         -3   -1    0    0    0  501 -0.00000000000E+00 -0.00000000000E+00 -0.12916210135E+03  0.12916210135E+03  0.00000000000E+00 0.  1.
          5    1    1    2  502    0  0.26219486472E+02 -0.29863018961E+02  0.56510672403E+02  0.69244548289E+02  0.47000000000E+01 0. -1.
         -5    1    1    2    0  502 -0.58517914253E+02 -0.36142967258E+02 -0.35038928278E+02  0.77333542953E+02  0.47000000000E+01 0. -1.
        -11    1    1    2    0    0  0.41660999342E+02  0.24706551995E+02 -0.45624948041E+02  0.66540878124E+02  0.00000000000E+00 0.  1.
         11    1    1    2    0    0 -0.93625715609E+01  0.41299434225E+02  0.32066102624E+02  0.53118132036E+02  0.00000000000E+00 0. -1.
<mgrwt>
<rscale>  0 0.13797610E+03</rscale>
<asrwt>0</asrwt>
<pdfrwt beam="1">  1        3 0.21088462E-01 0.14499690E+03</pdfrwt>
<pdfrwt beam="2">  1       -3 0.19871092E-01 0.14499690E+03</pdfrwt>
<totfact> 0.10793533E+03</totfact>
</mgrwt>
</event>
<event>
 6    1  0.4705246E-006  0.2343532E+03  0.7546771E-02  0.1124436E+00
         -2   -1    0    0    0  501 -0.00000000000E+00  0.00000000000E+00  0.10558719939E+03  0.10558719939E+03  0.00000000000E+00 0.  1.
          2   -1    0    0  501    0  0.00000000000E+00 -0.00000000000E+00 -0.53918836943E+03  0.53918836943E+03  0.00000000000E+00 0. -1.
          5    1    1    2  502    0  0.61779926215E+02 -0.79221289304E+02 -0.10772248703E+03  0.14737366174E+03  0.47000000000E+01 0. -1.
         -5    1    1    2    0  502  0.12419098075E+03  0.29023005553E+02 -0.18240059868E+03  0.22261581918E+03  0.47000000000E+01 0. -1.
        -11    1    1    2    0    0 -0.15454946275E+03 -0.14732414492E+02 -0.12752069667E+03  0.20090820927E+03  0.00000000000E+00 0. -1.
         11    1    1    2    0    0 -0.31421444213E+02  0.64930698243E+02 -0.15957387663E+02  0.73877878637E+02  0.00000000000E+00 0.  1.
<mgrwt>
<rscale>  0 0.23315834E+03</rscale>
<asrwt>0</asrwt>
<pdfrwt beam="2">  1        2 0.82952056E-01 0.23435322E+03</pdfrwt>
<pdfrwt beam="1">  1       -2 0.16244185E-01 0.23435322E+03</pdfrwt>
<totfact> 0.17058572E+03</totfact>
</mgrwt>
</event>
<event>
 6    1  0.4705246E-006  0.1570632E+03  0.7546771E-02  0.1200809E+00
         -2   -1    0    0    0  501 -0.00000000000E+00  0.00000000000E+00  0.20519408890E+02  0.20519408890E+02  0.00000000000E+00 0.  1.
          2   -1    0    0  501    0  0.00000000000E+00 -0.00000000000E+00 -0.10437061801E+04  0.10437061801E+04  0.00000000000E+00 0. -1.
          5    1    1    2  502    0 -0.68644255057E+02  0.50090205620E+02 -0.21452958287E+03  0.23079448516E+03  0.47000000000E+01 0. -1.
         -5    1    1    2    0  502 -0.25171450481E+02 -0.65666454866E+02 -0.23797581737E+03  0.24819400651E+03  0.47000000000E+01 0. -1.
        -11    1    1    2    0    0  0.25922027923E+02  0.45244640821E+02 -0.17204461898E+03  0.17977313474E+03  0.00000000000E+00 0.  1.
         11    1    1    2    0    0  0.67893677616E+02 -0.29668391575E+02 -0.39863675199E+03  0.40546396258E+03  0.00000000000E+00 0. -1.
<mgrwt>
<rscale>  0 0.14972727E+03</rscale>
<asrwt>0</asrwt>
<pdfrwt beam="2">  1        2 0.16057021E+00 0.15706317E+03</pdfrwt>
<pdfrwt beam="1">  1       -2 0.31568316E-02 0.15706317E+03</pdfrwt>
<totfact> 0.94346035E+03</totfact>
</mgrwt>
</event>
<event>
 6    1  0.4705246E-006  0.3548967E+03  0.7546771E-02  0.1061707E+00
         -1   -1    0    0    0  501 -0.00000000000E+00  0.00000000000E+00  0.29210894877E+03  0.29210894877E+03  0.00000000000E+00 0.  1.
          1   -1    0    0  501    0  0.00000000000E+00 -0.00000000000E+00 -0.45558010095E+03  0.45558010095E+03  0.00000000000E+00 0. -1.
          5    1    1    2  502    0  0.95216990730E+02  0.64521892374E+02 -0.11711146553E+03  0.16421490577E+03  0.47000000000E+01 0. -1.
         -5    1    1    2    0  502  0.22588471557E+03  0.20469714507E+02 -0.72524042946E+02  0.23816956301E+03  0.47000000000E+01 0. -1.
        -11    1    1    2    0    0 -0.80524940509E+02  0.10151462535E+02  0.30109628435E+02  0.86567360824E+02  0.00000000000E+00 0.  1.
         11    1    1    2    0    0 -0.24057676579E+03 -0.95143069416E+02 -0.39452721351E+01  0.25873722011E+03  0.00000000000E+00 0. -1.
<mgrwt>
<rscale>  0 0.35222034E+03</rscale>
<asrwt>0</asrwt>
<pdfrwt beam="2">  1        1 0.70089246E-01 0.35489665E+03</pdfrwt>
<pdfrwt beam="1">  1       -1 0.44939839E-01 0.35489665E+03</pdfrwt>
<totfact> 0.25590564E+02</totfact>
</mgrwt>
</event>
<event>
 6    1  0.5676155E-006  0.1717265E+03  0.7546771E-02  0.1182347E+00
         -1   -1    0    0    0  501 -0.00000000000E+00  0.00000000000E+00  0.19154412729E+02  0.19154412729E+02  0.00000000000E+00 0.  1.
          1   -1    0    0  501    0  0.00000000000E+00 -0.00000000000E+00 -0.14154425254E+04  0.14154425254E+04  0.00000000000E+00 0. -1.
          5    1    1    2  502    0 -0.87903579478E+02 -0.31452194714E+01 -0.25786268249E+03  0.27249254065E+03  0.47000000000E+01 0. -1.
         -5    1    1    2    0  502 -0.25260919476E+02  0.35693001095E+02 -0.64885858332E+03  0.65034733453E+03  0.47000000000E+01 0. -1.
        -11    1    1    2    0    0  0.55556953455E+02  0.30480770519E+02 -0.22486602096E+03  0.23362444185E+03  0.00000000000E+00 0. -1.
         11    1    1    2    0    0  0.57607545499E+02 -0.63028552143E+02 -0.26470082589E+03  0.27813262108E+03  0.00000000000E+00 0.  1.
<mgrwt>
<rscale>  0 0.16575626E+03</rscale>
<asrwt>0</asrwt>
<pdfrwt beam="2">  1        1 0.21776048E+00 0.17172647E+03</pdfrwt>
<pdfrwt beam="1">  1       -1 0.29468315E-02 0.17172647E+03</pdfrwt>
<totfact> 0.31388182E+03</totfact>
</mgrwt>
</event>
<event>
 6    1  0.4705246E-006  0.1264313E+03  0.7546771E-02  0.1247950E+00
          1   -1    0    0  501    0  0.00000000000E+00  0.00000000000E+00  0.97694656433E+02  0.97694656433E+02  0.00000000000E+00 0. -1.
         -1   -1    0    0    0  501 -0.00000000000E+00 -0.00000000000E+00 -0.12688274175E+03  0.12688274175E+03  0.00000000000E+00 0.  1.
          5    1    1    2  502    0 -0.21825905060E+02 -0.64557327545E+02  0.60270474889E+01  0.68574295278E+02  0.47000000000E+01 0. -1.
         -5    1    1    2    0  502  0.42651127206E+01  0.57379315376E+02 -0.40650457708E+01  0.57872200724E+02  0.47000000000E+01 0. -1.
        -11    1    1    2    0    0  0.33488659324E+02 -0.21921009603E+02 -0.46690538144E+02  0.61498189546E+02  0.00000000000E+00 0.  1.
         11    1    1    2    0    0 -0.15927866984E+02  0.29099021772E+02  0.15540451104E+02  0.36632712639E+02  0.00000000000E+00 0. -1.
<mgrwt>
<rscale>  0 0.11710529E+03</rscale>
<asrwt>0</asrwt>
<pdfrwt beam="1">  1        1 0.15029947E-01 0.12643127E+03</pdfrwt>
<pdfrwt beam="2">  1       -1 0.19520422E-01 0.12643127E+03</pdfrwt>
<totfact> 0.73384379E+03</totfact>
</mgrwt>
</event>
<event>
 6    1  0.4705246E-006  0.1788235E+03  0.7546771E-02  0.1174806E+00
         -2   -1    0    0    0  501 -0.00000000000E+00  0.00000000000E+00  0.38435637613E+02  0.38435637613E+02  0.00000000000E+00 0. -1.
          2   -1    0    0  501    0  0.00000000000E+00 -0.00000000000E+00 -0.76691849994E+03  0.76691849994E+03  0.00000000000E+00 0.  1.
          5    1    1    2  502    0  0.15899904584E+02  0.90563073772E+02 -0.35770752991E+03  0.36936600311E+03  0.47000000000E+01 0.  1.
         -5    1    1    2    0  502  0.72735776698E+02  0.16125738596E+01 -0.11642335355E+03  0.13736659295E+03  0.47000000000E+01 0.  1.
        -11    1    1    2    0    0 -0.43398970351E+02 -0.93207160026E+02 -0.21632758967E+03  0.23951758049E+03  0.00000000000E+00 0.  1.
         11    1    1    2    0    0 -0.45236710931E+02  0.10315123949E+01 -0.38024389188E+02  0.59103961008E+02  0.00000000000E+00 0. -1.
<mgrwt>
<rscale>  0 0.17294960E+03</rscale>
<asrwt>0</asrwt>
<pdfrwt beam="2">  1        2 0.11798745E+00 0.17882346E+03</pdfrwt>
<pdfrwt beam="1">  1       -2 0.59131755E-02 0.17882346E+03</pdfrwt>
<totfact> 0.55592085E+03</totfact>
</mgrwt>
</event>
<event>
 6    1  0.4705246E-006  0.1293412E+03  0.7546771E-02  0.1243112E+00
          1   -1    0    0  501    0  0.00000000000E+00  0.00000000000E+00  0.74175797030E+03  0.74175797030E+03  0.00000000000E+00 0. -1.
         -1   -1    0    0    0  501 -0.00000000000E+00 -0.00000000000E+00 -0.17176529167E+02  0.17176529167E+02  0.00000000000E+00 0.  1.
          5    1    1    2  502    0  0.33602958568E+01 -0.60082784657E+02  0.22478388057E+03  0.23274689164E+03  0.47000000000E+01 0. -1.
         -5    1    1    2    0  502 -0.36312150813E+02  0.55548702775E+02  0.16372635689E+03  0.17672758873E+03  0.47000000000E+01 0. -1.
        -11    1    1    2    0    0 -0.20161765884E+02 -0.67543400257E+01  0.21506622327E+02  0.30243225963E+02  0.00000000000E+00 0. -1.
         11    1    1    2    0    0  0.53113620840E+02  0.11288421908E+02  0.31456458134E+03  0.31921679314E+03  0.00000000000E+00 0.  1.
<mgrwt>
<rscale>  0 0.11999104E+03</rscale>
<asrwt>0</asrwt>
<pdfrwt beam="1">  1        1 0.11411659E+00 0.12934120E+03</pdfrwt>
<pdfrwt beam="2">  1       -1 0.26425435E-02 0.12934120E+03</pdfrwt>
<totfact> 0.11226110E+04</totfact>
</mgrwt>
</event>
<event>
 6    1  0.4705246E-006  0.1715455E+03  0.7546771E-02  0.1182279E+00
          4   -1    0    0  501    0  0.00000000000E+00  0.00000000000E+00  0.80973928340E+03  0.80973928340E+03  0.00000000000E+00 0. -1.
         -4   -1    0    0    0  501 -0.00000000000E+00 -0.00000000000E+00 -0.44787832809E+02  0.44787832809E+02  0.00000000000E+00 0.  1.
          5    1    1    2  502    0 -0.48375473240E+02 -0.54850593954E+02  0.45111524725E+03  0.45702935395E+03  0.47000000000E+01 0.  1.
         -5    1    1    2    0  502 -0.68306783583E+02  0.41135352977E+02  0.17886659444E+03  0.19589099661E+03  0.47000000000E+01 0.  1.
        -11    1    1    2    0    0  0.70050729357E+02  0.50530541320E+02  0.56618036762E+02  0.10327653352E+03  0.00000000000E+00 0.  1.
         11    1    1    2    0    0  0.46631527465E+02 -0.36815300342E+02  0.78351572141E+02  0.98330232126E+02  0.00000000000E+00 0. -1.
<mgrwt>
<rscale>  0 0.16581909E+03</rscale>
<asrwt>0</asrwt>
<pdfrwt beam="1">  1        4 0.12457526E+00 0.17154551E+03</pdfrwt>
<pdfrwt beam="2">  1       -4 0.68904364E-02 0.17154551E+03</pdfrwt>
<totfact> 0.12460129E+02</totfact>
</mgrwt>
</event>
<event>
 6    1  0.4705246E-006  0.1513204E+03  0.7546771E-02  0.1208584E+00
         -1   -1    0    0    0  501 -0.00000000000E+00  0.00000000000E+00  0.79692917922E+02  0.79692917922E+02  0.00000000000E+00 0.  1.
          1   -1    0    0  501    0  0.00000000000E+00 -0.00000000000E+00 -0.23872989629E+03  0.23872989629E+03  0.00000000000E+00 0. -1.
          5    1    1    2  502    0  0.32045380928E+02  0.15666673514E+02  0.24728930086E+02  0.43657314176E+02  0.47000000000E+01 0. -1.
         -5    1    1    2    0  502  0.52568926566E+02 -0.45908691354E+01 -0.13084362371E+03  0.14116200617E+03  0.47000000000E+01 0. -1.
        -11    1    1    2    0    0 -0.69839059767E+02  0.26123259943E+02 -0.56304193797E+02  0.93434903640E+02  0.00000000000E+00 0.  1.
         11    1    1    2    0    0 -0.14775247728E+02 -0.37199064322E+02  0.33819090549E+01  0.40168590226E+02  0.00000000000E+00 0. -1.
<mgrwt>
<rscale>  0 0.14358595E+03</rscale>
<asrwt>0</asrwt>
<pdfrwt beam="2">  1        1 0.36727676E-01 0.15132037E+03</pdfrwt>
<pdfrwt beam="1">  1       -1 0.12260449E-01 0.15132037E+03</pdfrwt>
<totfact> 0.49964984E+03</totfact>
</mgrwt>
</event>
<event>
 6    1  0.4705246E-006  0.1352367E+03  0.7546771E-02  0.1231701E+00
          2   -1    0    0  501    0  0.00000000000E+00  0.00000000000E+00  0.60199311060E+03  0.60199311060E+03  0.00000000000E+00 0. -1.
         -2   -1    0    0    0  501 -0.00000000000E+00 -0.00000000000E+00 -0.26941340794E+02  0.26941340794E+02  0.00000000000E+00 0.  1.
          5    1    1    2  502    0  0.48339230583E+02 -0.20508245190E+02  0.29680578736E+03  0.30145154627E+03  0.47000000000E+01 0.  1.
         -5    1    1    2    0  502 -0.58626850394E+02 -0.30066772134E+02  0.12321485590E+03  0.13980382358E+03  0.47000000000E+01 0.  1.
        -11    1    1    2    0    0 -0.23283313622E+02  0.36773606146E+01  0.11519999149E+03  0.11758687730E+03  0.00000000000E+00 0. -1.
         11    1    1    2    0    0  0.33570933433E+02  0.46897656709E+02  0.39831135055E+02  0.70092204246E+02  0.00000000000E+00 0.  1.
<mgrwt>
<rscale>  0 0.12717998E+03</rscale>
<asrwt>0</asrwt>
<pdfrwt beam="1">  1        2 0.92614315E-01 0.13523668E+03</pdfrwt>
<pdfrwt beam="2">  1       -2 0.41448221E-02 0.13523668E+03</pdfrwt>
<totfact> 0.12451507E+04</totfact>
</mgrwt>
</event>
<event>
 6    1  0.4705246E-006  0.1558863E+03  0.7546771E-02  0.1201998E+00
          2   -1    0    0  501    0  0.00000000000E+00  0.00000000000E+00  0.13311497407E+03  0.13311497407E+03  0.00000000000E+00 0. -1.
         -2   -1    0    0    0  501 -0.00000000000E+00 -0.00000000000E+00 -0.19903603967E+03  0.19903603967E+03  0.00000000000E+00 0.  1.
          5    1    1    2  502    0 -0.66020802430E+02 -0.61659893472E+02  0.17672839261E+02  0.92168910507E+02  0.47000000000E+01 0.  1.
         -5    1    1    2    0  502 -0.27065434333E+02  0.58462037361E+02  0.26834194465E+02  0.69946490553E+02  0.47000000000E+01 0.  1.
        -11    1    1    2    0    0  0.88415290122E+02 -0.20847791092E+02 -0.47502296852E+02  0.10251030254E+03  0.00000000000E+00 0.  1.
         11    1    1    2    0    0  0.46709466407E+01  0.24045647203E+02 -0.62925802479E+02  0.67525310141E+02  0.00000000000E+00 0. -1.
<mgrwt>
<rscale>  0 0.14876580E+03</rscale>
<asrwt>0</asrwt>
<pdfrwt beam="1">  1        2 0.20479227E-01 0.15588626E+03</pdfrwt>
<pdfrwt beam="2">  1       -2 0.30620929E-01 0.15588626E+03</pdfrwt>
<totfact> 0.25893283E+03</totfact>
</mgrwt>
</event>
<event>
 6    1  0.4705246E-006  0.2282982E+03  0.7546771E-02  0.1130843E+00
          1   -1    0    0  501    0  0.00000000000E+00  0.00000000000E+00  0.72823771206E+03  0.72823771206E+03  0.00000000000E+00 0. -1.
         -1   -1    0    0    0  501 -0.00000000000E+00 -0.00000000000E+00 -0.66719114425E+02  0.66719114425E+02  0.00000000000E+00 0.  1.
          5    1    1    2  502    0  0.19243473742E+02 -0.55447497381E+02  0.24040094758E+03  0.24750644809E+03  0.47000000000E+01 0. -1.
         -5    1    1    2    0  502  0.68151315240E+02 -0.11442678192E+03  0.12122901329E+03  0.18015730308E+03  0.47000000000E+01 0. -1.
        -11    1    1    2    0    0 -0.12133762224E+02  0.12196184608E+03  0.18283941988E+03  0.22011854431E+03  0.00000000000E+00 0.  1.
         11    1    1    2    0    0 -0.75261026758E+02  0.47912433216E+02  0.11704921688E+03  0.14717453101E+03  0.00000000000E+00 0. -1.
<mgrwt>
<rscale>  0 0.22412660E+03</rscale>
<asrwt>0</asrwt>
<pdfrwt beam="1">  1        1 0.11203657E+00 0.22829817E+03</pdfrwt>
<pdfrwt beam="2">  1       -1 0.10264480E-01 0.22829817E+03</pdfrwt>
<totfact> 0.15534722E+03</totfact>
</mgrwt>
</event>
<event>
 6    1  0.6288396E-006  0.3587640E+03  0.7546771E-02  0.1060112E+00
         -1   -1    0    0    0  501 -0.00000000000E+00  0.00000000000E+00  0.15113933653E+03  0.15113933653E+03  0.00000000000E+00 0.  1.
          1   -1    0    0  501    0  0.00000000000E+00 -0.00000000000E+00 -0.84153931896E+03  0.84153931896E+03  0.00000000000E+00 0. -1.
          5    1    1    2  502    0  0.42496926621E+02 -0.12128801523E+02 -0.44036512359E+01  0.44660706922E+02  0.47000000000E+01 0. -1.
         -5    1    1    2    0  502  0.28491662218E+03 -0.64592788021E+02 -0.41009203171E+03  0.50353477967E+03  0.47000000000E+01 0. -1.
        -11    1    1    2    0    0 -0.13794438634E+03 -0.12567924859E+02 -0.98084023887E+02  0.16972649233E+03  0.00000000000E+00 0.  1.
         11    1    1    2    0    0 -0.18946916246E+03  0.89289514403E+02 -0.17782027559E+03  0.27475667657E+03  0.00000000000E+00 0. -1.
<mgrwt>
<rscale>  0 0.35616630E+03</rscale>
<asrwt>0</asrwt>
<pdfrwt beam="2">  1        1 0.12946759E+00 0.35876402E+03</pdfrwt>
<pdfrwt beam="1">  1       -1 0.23252205E-01 0.35876402E+03</pdfrwt>
<totfact> 0.33403877E+02</totfact>
</mgrwt>
</event>
<event>
 6    1  0.4705246E-006  0.2220925E+03  0.7546771E-02  0.1159686E+00
         -2   -1    0    0    0  501 -0.00000000000E+00  0.00000000000E+00  0.47832369689E+02  0.47832369689E+02  0.00000000000E+00 0.  1.
          2   -1    0    0  501    0  0.00000000000E+00 -0.00000000000E+00 -0.61807835847E+03  0.61807835847E+03  0.00000000000E+00 0. -1.
          5    1    1    2  502    0  0.29950733560E+02 -0.51046667567E+02 -0.42774475152E+03  0.43184542508E+03  0.47000000000E+01 0. -1.
         -5    1    1    2    0  502  0.38440643643E+02  0.36722619044E+02 -0.38112246679E+01  0.53505600329E+02  0.47000000000E+01 0.  1.
        -11    1    1    2    0    0 -0.34097366607E+02  0.41120616081E+02 -0.12333913986E+03  0.13441011457E+03  0.00000000000E+00 0.  1.
         11    1    1    2    0    0 -0.34294010596E+02 -0.26796567558E+02 -0.15350872730E+02  0.46149588180E+02  0.00000000000E+00 0. -1.
<mgrwt>
<rscale>  0 0.18864884E+03</rscale>
<asrwt>0</asrwt>
<pdfrwt beam="2">  1        2 0.95088974E-01 0.22209245E+03</pdfrwt>
<pdfrwt beam="1">  1       -2 0.73588265E-02 0.22209245E+03</pdfrwt>
<totfact> 0.51892622E+03</totfact>
</mgrwt>
</event>
<event>
 6    1  0.4705246E-006  0.5695121E+03  0.7546771E-02  0.9970759E-01
         -2   -1    0    0    0  501 -0.00000000000E+00  0.00000000000E+00  0.81037873022E+02  0.81037873022E+02  0.00000000000E+00 0.  1.
          2   -1    0    0  501    0  0.00000000000E+00 -0.00000000000E+00 -0.10005939460E+04  0.10005939460E+04  0.00000000000E+00 0. -1.
          5    1    1    2  502    0 -0.73262346019E+01 -0.26382911978E+03 -0.54528205161E+03  0.60581687329E+03  0.47000000000E+01 0.  1.
         -5    1    1    2    0  502  0.18061702473E+01  0.33798680417E+01  0.43294658133E+01  0.74511766299E+01  0.47000000000E+01 0.  1.
        -11    1    1    2    0    0 -0.18339854673E+02  0.24746357468E+03 -0.34849153735E+03  0.42780944668E+03  0.00000000000E+00 0.  1.
         11    1    1    2    0    0  0.23859919028E+02  0.12985677064E+02 -0.30111949844E+02  0.40554322436E+02  0.00000000000E+00 0. -1.
<mgrwt>
<rscale>  0 0.56951209E+03</rscale>
<asrwt>0</asrwt>
<pdfrwt beam="2">  1        2 0.15393752E+00 0.56951209E+03</pdfrwt>
<pdfrwt beam="1">  1       -2 0.12467366E-01 0.56951209E+03</pdfrwt>
<totfact> 0.12117094E+03</totfact>
</mgrwt>
</event>
<event>
 6    1  0.4705246E-006  0.1329981E+03  0.7546771E-02  0.1236753E+00
          2   -1    0    0  501    0  0.00000000000E+00  0.00000000000E+00  0.32338139555E+03  0.32338139555E+03  0.00000000000E+00 0. -1.
         -2   -1    0    0    0  501 -0.00000000000E+00 -0.00000000000E+00 -0.43841949954E+02  0.43841949954E+02  0.00000000000E+00 0.  1.
          5    1    1    2  502    0 -0.53194498304E+02  0.73267537402E+01  0.91149062412E+02  0.10589418090E+03  0.47000000000E+01 0. -1.
         -5    1    1    2    0  502  0.69997477179E+02  0.35098194909E+02  0.10405262387E+03  0.13030951090E+03  0.47000000000E+01 0. -1.
        -11    1    1    2    0    0  0.21399456196E+02  0.13516475840E+02  0.35006930226E+01  0.25551647623E+02  0.00000000000E+00 0.  1.
         11    1    1    2    0    0 -0.38202435072E+02 -0.55941424489E+02  0.80837066287E+02  0.10546800607E+03  0.00000000000E+00 0. -1.
<mgrwt>
<rscale>  0 0.12392888E+03</rscale>
<asrwt>0</asrwt>
<pdfrwt beam="1">  1        2 0.49750982E-01 0.13299807E+03</pdfrwt>
<pdfrwt beam="2">  1       -2 0.67449156E-02 0.13299807E+03</pdfrwt>
<totfact> 0.11726973E+04</totfact>
</mgrwt>
</event>
<event>
 6    1  0.4705246E-006  0.2495918E+03  0.7546771E-02  0.1123903E+00
          2   -1    0    0  501    0  0.00000000000E+00  0.00000000000E+00  0.11235105023E+04  0.11235105023E+04  0.00000000000E+00 0. -1.
         -2   -1    0    0    0  501 -0.00000000000E+00 -0.00000000000E+00 -0.73704813624E+02  0.73704813624E+02  0.00000000000E+00 0.  1.
          5    1    1    2  502    0 -0.64923633072E+02  0.20077731652E+02  0.55959840298E+03  0.56372924002E+03  0.47000000000E+01 0. -1.
         -5    1    1    2    0  502  0.35132705072E+02  0.14618136587E+03  0.38649916144E+03  0.41473725476E+03  0.47000000000E+01 0.  1.
        -11    1    1    2    0    0 -0.19224604570E+02 -0.11297639175E+03  0.88439231479E+02  0.14475754964E+03  0.00000000000E+00 0. -1.
         11    1    1    2    0    0  0.49015532570E+02 -0.53282705770E+02  0.15268892748E+02  0.73991271465E+02  0.00000000000E+00 0.  1.
<mgrwt>
<rscale>  0 0.23393121E+03</rscale>
<asrwt>0</asrwt>
<pdfrwt beam="1">  1        2 0.17284776E+00 0.24959183E+03</pdfrwt>
<pdfrwt beam="2">  1       -2 0.11339203E-01 0.24959183E+03</pdfrwt>
<totfact> 0.12015466E+03</totfact>
</mgrwt>
</event>
<event>
 6    1  0.4705246E-006  0.1217985E+03  0.7546771E-02  0.1248543E+00
          2   -1    0    0  501    0  0.00000000000E+00  0.00000000000E+00  0.15394224328E+04  0.15394224328E+04  0.00000000000E+00 0. -1.
         -2   -1    0    0    0  501 -0.00000000000E+00 -0.00000000000E+00 -0.23232495020E+02  0.23232495020E+02  0.00000000000E+00 0.  1.
          5    1    1    2  502    0 -0.40194169574E+02  0.53369714886E+02  0.44809583800E+03  0.45307379947E+03  0.47000000000E+01 0. -1.
         -5    1    1    2    0  502  0.19233275390E+02 -0.11971199603E+02  0.96033869278E+03  0.96061736573E+03  0.47000000000E+01 0.  1.
        -11    1    1    2    0    0  0.25286601099E+02 -0.66728072685E+02  0.54354662311E+02  0.89702158248E+02  0.00000000000E+00 0.  1.
         11    1    1    2    0    0 -0.43257069159E+01  0.25329557402E+02  0.53400744691E+02  0.59261604366E+02  0.00000000000E+00 0. -1.
<mgrwt>
<rscale>  0 0.11675809E+03</rscale>
<asrwt>0</asrwt>
<pdfrwt beam="1">  1        2 0.23683414E+00 0.12179853E+03</pdfrwt>
<pdfrwt beam="2">  1       -2 0.35742312E-02 0.12179853E+03</pdfrwt>
<totfact> 0.41808266E+03</totfact>
</mgrwt>
</event>
<event>
 6    1  0.4705246E-006  0.1424671E+03  0.7546771E-02  0.1221585E+00
         -2   -1    0    0    0  501 -0.00000000000E+00  0.00000000000E+00  0.15061636895E+03  0.15061636895E+03  0.00000000000E+00 0.  1.
          2   -1    0    0  501    0  0.00000000000E+00 -0.00000000000E+00 -0.15732143043E+03  0.15732143043E+03  0.00000000000E+00 0. -1.
          5    1    1    2  502    0 -0.56550581832E+02 -0.36296024624E+02 -0.11770974638E+03  0.13562095746E+03  0.47000000000E+01 0.  1.
         -5    1    1    2    0  502  0.10314870157E+02 -0.14046109297E+02  0.27580733064E+02  0.32961744024E+02  0.47000000000E+01 0.  1.
        -11    1    1    2    0    0  0.20330078183E+02  0.64368828320E+02  0.21605877311E+02  0.70876456406E+02  0.00000000000E+00 0. -1.
         11    1    1    2    0    0  0.25905633491E+02 -0.14026694399E+02  0.61818074525E+02  0.68478641490E+02  0.00000000000E+00 0.  1.
<mgrwt>
<rscale>  0 0.13403773E+03</rscale>
<asrwt>0</asrwt>
<pdfrwt beam="2">  1        2 0.24203297E-01 0.14246715E+03</pdfrwt>
<pdfrwt beam="1">  1       -2 0.23171749E-01 0.14246715E+03</pdfrwt>
<totfact> 0.34990616E+03</totfact>
</mgrwt>
</event>
<event>
 6    1  0.4705246E-006  0.2752001E+03  0.7546771E-02  0.1098340E+00
         -3   -1    0    0    0  501 -0.00000000000E+00  0.00000000000E+00  0.10441198473E+03  0.10441198473E+03  0.00000000000E+00 0.  1.
          3   -1    0    0  501    0  0.00000000000E+00 -0.00000000000E+00 -0.18133715794E+03  0.18133715794E+03  0.00000000000E+00 0. -1.
          5    1    1    2  502    0 -0.13649229892E+00 -0.12114478865E+02 -0.73579548789E+02  0.74718265694E+02  0.47000000000E+01 0.  1.
         -5    1    1    2    0  502 -0.73231219056E+02  0.49630853272E+02  0.75587854639E+01  0.88911519381E+02  0.47000000000E+01 0.  1.
        -11    1    1    2    0    0  0.21104218545E+02  0.28733444743E+02  0.57404572750E+01  0.36110271903E+02  0.00000000000E+00 0.  1.
         11    1    1    2    0    0  0.52263492810E+02 -0.66249819150E+02 -0.16644867158E+02  0.86009085688E+02  0.00000000000E+00 0. -1.
<mgrwt>
<rscale>  0 0.27520009E+03</rscale>
<asrwt>0</asrwt>
<pdfrwt beam="2">  1        3 0.27898024E-01 0.27520009E+03</pdfrwt>
<pdfrwt beam="1">  1       -3 0.16063382E-01 0.27520009E+03</pdfrwt>
<totfact> 0.10303819E+03</totfact>
</mgrwt>
</event>
<event>
 6    1  0.4705246E-006  0.1273443E+03  0.7546771E-02  0.1239794E+00
         -1   -1    0    0    0  501 -0.00000000000E+00  0.00000000000E+00  0.68491627355E+02  0.68491627355E+02  0.00000000000E+00 0.  1.
          1   -1    0    0  501    0  0.00000000000E+00 -0.00000000000E+00 -0.51396699702E+03  0.51396699702E+03  0.00000000000E+00 0. -1.
          5    1    1    2  502    0 -0.21024641093E+02 -0.85576598073E+02 -0.26268708768E+03  0.27711366928E+03  0.47000000000E+01 0. -1.
         -5    1    1    2    0  502  0.19693199783E+01  0.33795153870E+02 -0.19437760337E+03  0.19735940144E+03  0.47000000000E+01 0.  1.
        -11    1    1    2    0    0 -0.38413211323E+01  0.48921785321E+02  0.45532133557E+02  0.66942303616E+02  0.00000000000E+00 0.  1.
         11    1    1    2    0    0  0.22896642247E+02  0.28596588825E+01 -0.33942812184E+02  0.41043250042E+02  0.00000000000E+00 0. -1.
<mgrwt>
<rscale>  0 0.12202451E+03</rscale>
<asrwt>0</asrwt>
<pdfrwt beam="2">  1        1 0.79071848E-01 0.12734427E+03</pdfrwt>
<pdfrwt beam="1">  1       -1 0.10537173E-01 0.12734427E+03</pdfrwt>
<totfact> 0.23876753E+03</totfact>
</mgrwt>
</event>
<event>
 6    1  0.4705246E-006  0.1355861E+03  0.7546771E-02  0.1230527E+00
          1   -1    0    0  501    0  0.00000000000E+00  0.00000000000E+00  0.28212189886E+03  0.28212189886E+03  0.00000000000E+00 0. -1.
         -1   -1    0    0    0  501 -0.00000000000E+00 -0.00000000000E+00 -0.67865327508E+02  0.67865327508E+02  0.00000000000E+00 0.  1.
          5    1    1    2  502    0 -0.46913294719E+02  0.67441625227E+02  0.81941850070E+02  0.11612832052E+03  0.47000000000E+01 0.  1.
         -5    1    1    2    0  502  0.77332170635E+00 -0.42356511522E+02  0.11789665457E+03  0.12536500012E+03  0.47000000000E+01 0.  1.
        -11    1    1    2    0    0  0.32420348427E+01 -0.40958201315E+02 -0.25014902985E+02  0.48102291175E+02  0.00000000000E+00 0.  1.
         11    1    1    2    0    0  0.42897938170E+02  0.15873087610E+02  0.39432969698E+02  0.60391614556E+02  0.00000000000E+00 0. -1.
<mgrwt>
<rscale>  0 0.12795152E+03</rscale>
<asrwt>0</asrwt>
<pdfrwt beam="1">  1        1 0.43403369E-01 0.13558612E+03</pdfrwt>
<pdfrwt beam="2">  1       -1 0.10440820E-01 0.13558612E+03</pdfrwt>
<totfact> 0.51705049E+03</totfact>
</mgrwt>
</event>
<event>
 6    1  0.4705246E-006  0.1686940E+03  0.7546771E-02  0.1186217E+00
         -1   -1    0    0    0  501 -0.00000000000E+00  0.00000000000E+00  0.27629085386E+02  0.27629085386E+02  0.00000000000E+00 0.  1.
          1   -1    0    0  501    0  0.00000000000E+00 -0.00000000000E+00 -0.12104408399E+04  0.12104408399E+04  0.00000000000E+00 0. -1.
          5    1    1    2  502    0 -0.14722026351E+02  0.20984403322E+02 -0.52176498657E+03  0.52241542325E+03  0.47000000000E+01 0.  1.
         -5    1    1    2    0  502 -0.89574297075E+02 -0.65213311382E+02 -0.42320293988E+03  0.43749188449E+03  0.47000000000E+01 0.  1.
        -11    1    1    2    0    0 -0.70685813298E+01  0.31146683377E+02 -0.47285404465E+02  0.57061284623E+02  0.00000000000E+00 0.  1.
         11    1    1    2    0    0  0.11136490476E+03  0.13082224683E+02 -0.19055842364E+03  0.22110133295E+03  0.00000000000E+00 0. -1.
<mgrwt>
<rscale>  0 0.16221649E+03</rscale>
<asrwt>0</asrwt>
<pdfrwt beam="2">  1        1 0.18622165E+00 0.16869398E+03</pdfrwt>
<pdfrwt beam="1">  1       -1 0.42506290E-02 0.16869398E+03</pdfrwt>
<totfact> 0.25148530E+03</totfact>
</mgrwt>
</event>
<event>
 6    1  0.4705246E-006  0.3735039E+03  0.7546771E-02  0.1053361E+00
          1   -1    0    0  501    0  0.00000000000E+00  0.00000000000E+00  0.44172711588E+03  0.44172711588E+03  0.00000000000E+00 0. -1.
         -1   -1    0    0    0  501 -0.00000000000E+00 -0.00000000000E+00 -0.78954398185E+02  0.78954398185E+02  0.00000000000E+00 0.  1.
          5    1    1    2  502    0 -0.79406317048E+00 -0.11854323005E+03  0.22609118155E+03  0.25532810323E+03  0.47000000000E+01 0.  1.
         -5    1    1    2    0  502  0.36513851343E+02  0.17514906753E+02  0.37116673538E+02  0.55134116054E+02  0.47000000000E+01 0.  1.
        -11    1    1    2    0    0  0.49369148842E+02  0.45248554787E+02 -0.12614861904E+01  0.66980115819E+02  0.00000000000E+00 0.  1.
         11    1    1    2    0    0 -0.85088937014E+02  0.55779768506E+02  0.10082634879E+03  0.14323917896E+03  0.00000000000E+00 0. -1.
<mgrwt>
<rscale>  0 0.37350394E+03</rscale>
<asrwt>0</asrwt>
<pdfrwt beam="1">  1        1 0.67958016E-01 0.37350394E+03</pdfrwt>
<pdfrwt beam="2">  1       -1 0.12146831E-01 0.37350394E+03</pdfrwt>
<totfact> 0.24014506E+03</totfact>
</mgrwt>
</event>
<event>
 6    1  0.4705246E-006  0.1460360E+03  0.7546771E-02  0.1216365E+00
         -2   -1    0    0    0  501 -0.00000000000E+00  0.00000000000E+00  0.21386743952E+02  0.21386743952E+02  0.00000000000E+00 0.  1.
          2   -1    0    0  501    0  0.00000000000E+00 -0.00000000000E+00 -0.81848027637E+03  0.81848027637E+03  0.00000000000E+00 0. -1.
          5    1    1    2  502    0 -0.62132582514E+02 -0.29510412080E+02 -0.29651301472E+03  0.30442302825E+03  0.47000000000E+01 0. -1.
         -5    1    1    2    0  502  0.58048461724E+02 -0.45878514890E+02 -0.20893626622E+03  0.22170005724E+03  0.47000000000E+01 0. -1.
        -11    1    1    2    0    0  0.20575502726E+02  0.86358445085E+02 -0.18404847479E+03  0.20434033723E+03  0.00000000000E+00 0.  1.
         11    1    1    2    0    0 -0.16491381936E+02 -0.10969518115E+02 -0.10759577669E+03  0.10940359760E+03  0.00000000000E+00 0. -1.
<mgrwt>
<rscale>  0 0.13776774E+03</rscale>
<asrwt>0</asrwt>
<pdfrwt beam="2">  1        2 0.12592002E+00 0.14603604E+03</pdfrwt>
<pdfrwt beam="1">  1       -2 0.32902688E-02 0.14603604E+03</pdfrwt>
<totfact> 0.12217303E+04</totfact>
</mgrwt>
</event>
<event>
 6    1  0.4705246E-006  0.1275474E+03  0.7546771E-02  0.1240684E+00
          3   -1    0    0  501    0  0.00000000000E+00  0.00000000000E+00  0.52516213508E+02  0.52516213508E+02  0.00000000000E+00 0. -1.
         -3   -1    0    0    0  501 -0.00000000000E+00 -0.00000000000E+00 -0.28049681527E+03  0.28049681527E+03  0.00000000000E+00 0.  1.
          5    1    1    2  502    0 -0.99699422786E+01  0.45203830162E+02  0.25906038308E+01  0.46600292259E+02  0.47000000000E+01 0.  1.
         -5    1    1    2    0  502  0.33278322934E+02 -0.55196992631E+02 -0.79069821109E+02  0.10211895702E+03  0.47000000000E+01 0.  1.
        -11    1    1    2    0    0 -0.41398793801E+02 -0.12404136806E+02 -0.14928864137E+03  0.15541821380E+03  0.00000000000E+00 0.  1.
         11    1    1    2    0    0  0.18090413146E+02  0.22397299276E+02 -0.22127431178E+01  0.28875565704E+02  0.00000000000E+00 0. -1.
<mgrwt>
<rscale>  0 0.12147438E+03</rscale>
<asrwt>0</asrwt>
<pdfrwt beam="1">  1        3 0.80794173E-02 0.12754742E+03</pdfrwt>
<pdfrwt beam="2">  1       -3 0.43153357E-01 0.12754742E+03</pdfrwt>
<totfact> 0.12801356E+03</totfact>
</mgrwt>
</event>
<event>
 6    1  0.4705246E-006  0.1253609E+03  0.7546771E-02  0.1249936E+00
          1   -1    0    0  501    0  0.00000000000E+00  0.00000000000E+00  0.65021189726E+03  0.65021189726E+03  0.00000000000E+00 0. -1.
         -1   -1    0    0    0  501 -0.00000000000E+00 -0.00000000000E+00 -0.22243238778E+02  0.22243238778E+02  0.00000000000E+00 0.  1.
          5    1    1    2  502    0  0.23510205809E+02 -0.47469318409E+02  0.35374177211E+03  0.35771692342E+03  0.47000000000E+01 0. -1.
         -5    1    1    2    0  502 -0.18522394700E+02  0.55578344394E+02  0.14316143229E+03  0.15475566926E+03  0.47000000000E+01 0. -1.
        -11    1    1    2    0    0  0.34820879096E+02  0.16004420943E+02  0.29840978484E+02  0.48570763919E+02  0.00000000000E+00 0.  1.
         11    1    1    2    0    0 -0.39808690205E+02 -0.24113446928E+02  0.10122447560E+03  0.11141177944E+03  0.00000000000E+00 0. -1.
<mgrwt>
<rscale>  0 0.11594755E+03</rscale>
<asrwt>0</asrwt>
<pdfrwt beam="1">  1        1 0.10003258E+00 0.12536093E+03</pdfrwt>
<pdfrwt beam="2">  1       -1 0.34220372E-02 0.12536093E+03</pdfrwt>
<totfact> 0.92783002E+03</totfact>
</mgrwt>
</event>
<event>
 6    1  0.4705246E-006  0.1330516E+03  0.7546771E-02  0.1236027E+00
          2   -1    0    0  501    0  0.00000000000E+00  0.00000000000E+00  0.35244977321E+04  0.35244977321E+04  0.00000000000E+00 0. -1.
         -2   -1    0    0    0  501 -0.00000000000E+00 -0.00000000000E+00 -0.14715043263E+02  0.14715043263E+02  0.00000000000E+00 0.  1.
          5    1    1    2  502    0 -0.28136677351E+02 -0.80377709631E+01  0.16690349721E+03  0.16951444114E+03  0.47000000000E+01 0.  1.
         -5    1    1    2    0  502 -0.15244051834E+02 -0.59808561870E+01  0.31633318219E+04  0.31633776976E+04  0.47000000000E+01 0.  1.
        -11    1    1    2    0    0  0.17255342885E+02  0.32889370749E+02  0.17423952256E+02  0.41025012840E+02  0.00000000000E+00 0.  1.
         11    1    1    2    0    0  0.26125386300E+02 -0.18870743599E+02  0.16212341746E+03  0.16529562384E+03  0.00000000000E+00 0. -1.
<mgrwt>
<rscale>  0 0.12438917E+03</rscale>
<asrwt>0</asrwt>
<pdfrwt beam="1">  1        2 0.54222975E+00 0.13305160E+03</pdfrwt>
<pdfrwt beam="2">  1       -2 0.22638556E-02 0.13305160E+03</pdfrwt>
<totfact> 0.65914700E+02</totfact>
</mgrwt>
</event>
<event>
 6    1  0.4705246E-006  0.1341264E+03  0.7546771E-02  0.1229159E+00
         -2   -1    0    0    0  501 -0.00000000000E+00  0.00000000000E+00  0.59215724531E+02  0.59215724531E+02  0.00000000000E+00 0.  1.
          2   -1    0    0  501    0  0.00000000000E+00 -0.00000000000E+00 -0.57140484453E+03  0.57140484453E+03  0.00000000000E+00 0. -1.
          5    1    1    2  502    0 -0.31933715090E+02 -0.72757264137E+01 -0.43660852195E+03  0.43786046840E+03  0.47000000000E+01 0. -1.
         -5    1    1    2    0  502 -0.55602342411E+01 -0.47280183201E+02 -0.61072720897E+02  0.77577697608E+02  0.47000000000E+01 0.  1.
        -11    1    1    2    0    0  0.50099439462E+02  0.76958347967E+01 -0.35938430126E+02  0.62134937576E+02  0.00000000000E+00 0. -1.
         11    1    1    2    0    0 -0.12605490131E+02  0.46860074818E+02  0.21430552966E+02  0.53047465479E+02  0.00000000000E+00 0.  1.
<mgrwt>
<rscale>  0 0.12885878E+03</rscale>
<asrwt>0</asrwt>
<pdfrwt beam="2">  1        2 0.87908437E-01 0.13412637E+03</pdfrwt>
<pdfrwt beam="1">  1       -2 0.91101115E-02 0.13412637E+03</pdfrwt>
<totfact> 0.39886771E+03</totfact>
</mgrwt>
</event>
<event>
 6    1  0.4705246E-006  0.1293841E+03  0.7546771E-02  0.1242311E+00
         -1   -1    0    0    0  501 -0.00000000000E+00  0.00000000000E+00  0.66849319406E+03  0.66849319406E+03  0.00000000000E+00 0.  1.
          1   -1    0    0  501    0  0.00000000000E+00 -0.00000000000E+00 -0.19299066165E+02  0.19299066165E+02  0.00000000000E+00 0. -1.
          5    1    1    2  502    0  0.36622835813E+02  0.52780674764E+02  0.90739852282E+02  0.11127822125E+03  0.47000000000E+01 0.  1.
         -5    1    1    2    0  502 -0.31494643211E+02 -0.20337832699E+02  0.25679140331E+03  0.25955626520E+03  0.47000000000E+01 0.  1.
        -11    1    1    2    0    0 -0.37114607252E+02  0.14625962820E+02  0.10924897949E+03  0.11630456732E+03  0.00000000000E+00 0.  1.
         11    1    1    2    0    0  0.31986414650E+02 -0.47068804885E+02  0.19241389281E+03  0.20065320646E+03  0.00000000000E+00 0. -1.
<mgrwt>
<rscale>  0 0.12047780E+03</rscale>
<asrwt>0</asrwt>
<pdfrwt beam="2">  1        1 0.29690876E-02 0.12938409E+03</pdfrwt>
<pdfrwt beam="1">  1       -1 0.10284509E+00 0.12938409E+03</pdfrwt>
<totfact> 0.31408281E+03</totfact>
</mgrwt>
</event>
<event>
 6    1  0.4705246E-006  0.1343581E+03  0.7546771E-02  0.1233390E+00
          2   -1    0    0  501    0  0.00000000000E+00  0.00000000000E+00  0.14902534077E+03  0.14902534077E+03  0.00000000000E+00 0. -1.
         -2   -1    0    0    0  501 -0.00000000000E+00 -0.00000000000E+00 -0.10603198382E+03  0.10603198382E+03  0.00000000000E+00 0.  1.
          5    1    1    2  502    0  0.79098361185E+01  0.29864784374E+02 -0.24735013012E+02  0.39854506920E+02  0.47000000000E+01 0.  1.
         -5    1    1    2    0  502 -0.57083446852E+02 -0.26936619494E+02  0.88662132064E+02  0.10893651838E+03  0.47000000000E+01 0.  1.
        -11    1    1    2    0    0  0.43572337089E+02 -0.28339493131E+02 -0.46532975573E+02  0.69763839100E+02  0.00000000000E+00 0.  1.
         11    1    1    2    0    0  0.56012736448E+01  0.25411328252E+02  0.25599213471E+02  0.36502460195E+02  0.00000000000E+00 0. -1.
<mgrwt>
<rscale>  0 0.12608055E+03</rscale>
<asrwt>0</asrwt>
<pdfrwt beam="1">  1        2 0.22926975E-01 0.13435808E+03</pdfrwt>
<pdfrwt beam="2">  1       -2 0.16312613E-01 0.13435808E+03</pdfrwt>
<totfact> 0.66946896E+03</totfact>
</mgrwt>
</event>
<event>
 6    1  0.4705246E-006  0.1488748E+03  0.7546771E-02  0.1210638E+00
         -2   -1    0    0    0  501 -0.00000000000E+00  0.00000000000E+00  0.78585111874E+02  0.78585111874E+02  0.00000000000E+00 0.  1.
          2   -1    0    0  501    0  0.00000000000E+00 -0.00000000000E+00 -0.24383188490E+03  0.24383188490E+03  0.00000000000E+00 0. -1.
          5    1    1    2  502    0 -0.45657034441E+02 -0.84587494315E+01 -0.12685155595E+03  0.13516479750E+03  0.47000000000E+01 0.  1.
         -5    1    1    2    0  502 -0.46179717812E+01 -0.54888279212E+02  0.73108858990E+01  0.55763679136E+02  0.47000000000E+01 0.  1.
        -11    1    1    2    0    0  0.48463743274E+02  0.37328114006E+02 -0.71982871690E+02  0.94465106384E+02  0.00000000000E+00 0. -1.
         11    1    1    2    0    0  0.18112629484E+01  0.26018914637E+02  0.26276768711E+02  0.37023413758E+02  0.00000000000E+00 0.  1.
<mgrwt>
<rscale>  0 0.14201919E+03</rscale>
<asrwt>0</asrwt>
<pdfrwt beam="2">  1        2 0.37512598E-01 0.14887482E+03</pdfrwt>
<pdfrwt beam="1">  1       -2 0.12090017E-01 0.14887482E+03</pdfrwt>
<totfact> 0.64158636E+03</totfact>
</mgrwt>
</event>
<event>
 6    1  0.4705246E-006  0.1117601E+03  0.7546771E-02  0.1274372E+00
         -2   -1    0    0    0  501 -0.00000000000E+00  0.00000000000E+00  0.35099345624E+02  0.35099345624E+02  0.00000000000E+00 0.  1.
          2   -1    0    0  501    0  0.00000000000E+00 -0.00000000000E+00 -0.26371619586E+03  0.26371619586E+03  0.00000000000E+00 0. -1.
          5    1    1    2  502    0 -0.10124820575E+02  0.47973399998E+02 -0.47689708336E+02  0.68559152418E+02  0.47000000000E+01 0. -1.
         -5    1    1    2    0  502  0.68687908660E+01 -0.60014968572E+02 -0.95207184124E+02  0.11285156024E+03  0.47000000000E+01 0.  1.
        -11    1    1    2    0    0  0.32259641776E+02  0.31469264535E+02 -0.52852914184E+02  0.69458114253E+02  0.00000000000E+00 0. -1.
         11    1    1    2    0    0 -0.29003612067E+02 -0.19427695961E+02 -0.32867043589E+02  0.47946714565E+02  0.00000000000E+00 0.  1.
<mgrwt>
<rscale>  0 0.10287077E+03</rscale>
<asrwt>0</asrwt>
<pdfrwt beam="2">  1        2 0.40571721E-01 0.11176012E+03</pdfrwt>
<pdfrwt beam="1">  1       -2 0.53998995E-02 0.11176012E+03</pdfrwt>
<totfact> 0.20051183E+04</totfact>
</mgrwt>
</event>
<event>
 6    1  0.4705246E-006  0.1270966E+03  0.7546771E-02  0.1246499E+00
         -2   -1    0    0    0  501 -0.00000000000E+00  0.00000000000E+00  0.14578469772E+03  0.14578469772E+03  0.00000000000E+00 0.  1.
          2   -1    0    0  501    0  0.00000000000E+00 -0.00000000000E+00 -0.87510304845E+02  0.87510304845E+02  0.00000000000E+00 0. -1.
          5    1    1    2  502    0  0.19076086979E+02 -0.46591166008E+02  0.19033846042E+02  0.54027873728E+02  0.47000000000E+01 0. -1.
         -5    1    1    2    0  502 -0.22356333657E+02  0.69311532646E+02 -0.86603020990E+01  0.73491394359E+02  0.47000000000E+01 0. -1.
        -11    1    1    2    0    0 -0.16821611150E+02  0.12681801671E+02  0.59766558233E+02  0.63370625516E+02  0.00000000000E+00 0.  1.
         11    1    1    2    0    0  0.20101857829E+02 -0.35402168309E+02 -0.11865709298E+02  0.42405108964E+02  0.00000000000E+00 0. -1.
<mgrwt>
<rscale>  0 0.11796081E+03</rscale>
<asrwt>0</asrwt>
<pdfrwt beam="2">  1        2 0.13463124E-01 0.12709663E+03</pdfrwt>
<pdfrwt beam="1">  1       -2 0.22428415E-01 0.12709663E+03</pdfrwt>
<totfact> 0.71904246E+03</totfact>
</mgrwt>
</event>
<event>
 6    1  0.4705246E-006  0.1276062E+03  0.7546771E-02  0.1247903E+00
         -1   -1    0    0    0  501 -0.00000000000E+00  0.00000000000E+00  0.45083279230E+03  0.45083279230E+03  0.00000000000E+00 0.  1.
          1   -1    0    0  501    0  0.00000000000E+00 -0.00000000000E+00 -0.33525168094E+02  0.33525168094E+02  0.00000000000E+00 0. -1.
          5    1    1    2  502    0 -0.39262741273E+02  0.21001652237E+02  0.52282092788E+01  0.45078336495E+02  0.47000000000E+01 0.  1.
         -5    1    1    2    0  502  0.35478383566E+02 -0.46348623649E+02  0.12093731714E+03  0.13436828232E+03  0.47000000000E+01 0.  1.
        -11    1    1    2    0    0  0.32674878429E+02 -0.16500462350E+02  0.84192475594E+02  0.91805696363E+02  0.00000000000E+00 0. -1.
         11    1    1    2    0    0 -0.28890520722E+02  0.41847433762E+02  0.20694962219E+03  0.21310564522E+03  0.00000000000E+00 0.  1.
<mgrwt>
<rscale>  0 0.11713274E+03</rscale>
<asrwt>0</asrwt>
<pdfrwt beam="2">  1        1 0.51577185E-02 0.12760623E+03</pdfrwt>
<pdfrwt beam="1">  1       -1 0.69358887E-01 0.12760623E+03</pdfrwt>
<totfact> 0.33362539E+03</totfact>
</mgrwt>
</event>
<event>
 6    1  0.4705246E-006  0.1180685E+03  0.7546771E-02  0.1256053E+00
         -2   -1    0    0    0  501 -0.00000000000E+00  0.00000000000E+00  0.24907654721E+02  0.24907654721E+02  0.00000000000E+00 0.  1.
          2   -1    0    0  501    0  0.00000000000E+00 -0.00000000000E+00 -0.57424682141E+03  0.57424682141E+03  0.00000000000E+00 0. -1.
          5    1    1    2  502    0 -0.69259626287E+01 -0.46543967456E+02 -0.38213803082E+03  0.38505308006E+03  0.47000000000E+01 0. -1.
         -5    1    1    2    0  502  0.27509189299E+02  0.23482255310E+02 -0.44063382411E+02  0.57200030418E+02  0.47000000000E+01 0.  1.
        -11    1    1    2    0    0 -0.54518569224E+02  0.21668083182E+02 -0.53390770347E+02  0.79324363075E+02  0.00000000000E+00 0. -1.
         11    1    1    2    0    0  0.33935342553E+02  0.13936289638E+01 -0.69746983112E+02  0.77577002579E+02  0.00000000000E+00 0.  1.
<mgrwt>
<rscale>  0 0.11247577E+03</rscale>
<asrwt>0</asrwt>
<pdfrwt beam="2">  1        2 0.88345654E-01 0.11806849E+03</pdfrwt>
<pdfrwt beam="1">  1       -2 0.38319474E-02 0.11806849E+03</pdfrwt>
<totfact> 0.14602265E+04</totfact>
</mgrwt>
</event>
<event>
 6    1  0.4705246E-006  0.1497613E+03  0.7546771E-02  0.1209630E+00
         -4   -1    0    0    0  501 -0.00000000000E+00  0.00000000000E+00  0.82358481362E+03  0.82358481362E+03  0.00000000000E+00 0.  1.
          4   -1    0    0  501    0  0.00000000000E+00 -0.00000000000E+00 -0.37205684300E+02  0.37205684300E+02  0.00000000000E+00 0. -1.
          5    1    1    2  502    0  0.42241121242E+02 -0.55158445573E+02  0.10770724053E+03  0.12825640765E+03  0.47000000000E+01 0. -1.
         -5    1    1    2    0  502  0.40128117906E+02  0.59328694323E+02  0.40380491693E+02  0.82357962130E+02  0.47000000000E+01 0. -1.
        -11    1    1    2    0    0 -0.21102384132E+01  0.34313391973E+02  0.15644532923E+03  0.16017803536E+03  0.00000000000E+00 0.  1.
         11    1    1    2    0    0 -0.80259000735E+02 -0.38483640723E+02  0.48184606787E+03  0.48999809278E+03  0.00000000000E+00 0. -1.
<mgrwt>
<rscale>  0 0.14278496E+03</rscale>
<asrwt>0</asrwt>
<pdfrwt beam="2">  1        4 0.57239521E-02 0.14976126E+03</pdfrwt>
<pdfrwt beam="1">  1       -4 0.12670534E+00 0.14976126E+03</pdfrwt>
<totfact> 0.15861350E+02</totfact>
</mgrwt>
</event>
<event>
 6    1  0.4705246E-006  0.3574205E+03  0.7546771E-02  0.1059610E+00
         -2   -1    0    0    0  501 -0.00000000000E+00  0.00000000000E+00  0.38201749903E+02  0.38201749903E+02  0.00000000000E+00 0.  1.
          2   -1    0    0  501    0  0.00000000000E+00 -0.00000000000E+00 -0.83601828164E+03  0.83601828164E+03  0.00000000000E+00 0. -1.
          5    1    1    2  502    0 -0.42144940138E+01 -0.12136639145E+03 -0.44403083885E+03  0.46036185635E+03  0.47000000000E+01 0.  1.
         -5    1    1    2    0  502 -0.99201754392E+01 -0.13862031020E+02  0.28577341641E+01  0.17911516666E+02  0.47000000000E+01 0.  1.
        -11    1    1    2    0    0 -0.28953952081E+02  0.82838719305E+02 -0.28080878428E+03  0.29420088050E+03  0.00000000000E+00 0. -1.
         11    1    1    2    0    0  0.43088621534E+02  0.52389703160E+02 -0.75834642779E+02  0.10174577804E+03  0.00000000000E+00 0.  1.
<mgrwt>
<rscale>  0 0.35742054E+03</rscale>
<asrwt>0</asrwt>
<pdfrwt beam="2">  1        2 0.12861819E+00 0.35742054E+03</pdfrwt>
<pdfrwt beam="1">  1       -2 0.58771924E-02 0.35742054E+03</pdfrwt>
<totfact> 0.51426820E+03</totfact>
</mgrwt>
</event>
<event>
 6    1  0.4705246E-006  0.1279996E+03  0.7546771E-02  0.1244279E+00
          1   -1    0    0  501    0  0.00000000000E+00  0.00000000000E+00  0.27527068970E+02  0.27527068970E+02  0.00000000000E+00 0. -1.
         -1   -1    0    0    0  501 -0.00000000000E+00 -0.00000000000E+00 -0.50308843535E+03  0.50308843535E+03  0.00000000000E+00 0.  1.
          5    1    1    2  502    0 -0.21412617461E+02 -0.49521961907E+02 -0.80383447927E+02  0.96925299063E+02  0.47000000000E+01 0.  1.
         -5    1    1    2    0  502  0.48155640135E+02  0.55781365541E+02 -0.10893073173E+03  0.13159985082E+03  0.47000000000E+01 0.  1.
        -11    1    1    2    0    0 -0.18489890404E+02 -0.43450687191E+02 -0.22546009588E+03  0.23035210678E+03  0.00000000000E+00 0.  1.
         11    1    1    2    0    0 -0.82531322698E+01  0.37191283557E+02 -0.60787090838E+02  0.71738247661E+02  0.00000000000E+00 0. -1.
<mgrwt>
<rscale>  0 0.11928612E+03</rscale>
<asrwt>0</asrwt>
<pdfrwt beam="1">  1        1 0.42349339E-02 0.12799955E+03</pdfrwt>
<pdfrwt beam="2">  1       -1 0.77398217E-01 0.12799955E+03</pdfrwt>
<totfact> 0.35109695E+03</totfact>
</mgrwt>
</event>
<event>
 6    1  0.4705246E-006  0.1258277E+03  0.7546771E-02  0.1247723E+00
          1   -1    0    0  501    0  0.00000000000E+00  0.00000000000E+00  0.25424476543E+03  0.25424476543E+03  0.00000000000E+00 0. -1.
         -1   -1    0    0    0  501 -0.00000000000E+00 -0.00000000000E+00 -0.54039478530E+02  0.54039478530E+02  0.00000000000E+00 0.  1.
          5    1    1    2  502    0 -0.23459130594E+02 -0.37279336549E+02  0.14916497919E+03  0.15560321577E+03  0.47000000000E+01 0.  1.
         -5    1    1    2    0  502  0.12833647555E+02  0.47039395674E+02  0.14986302987E+02  0.51225838521E+02  0.47000000000E+01 0.  1.
        -11    1    1    2    0    0  0.30847534299E+02 -0.13144776469E+02 -0.21854092230E+02  0.40024453375E+02  0.00000000000E+00 0.  1.
         11    1    1    2    0    0 -0.20222051260E+02  0.33847173441E+01  0.57908096955E+02  0.61430736294E+02  0.00000000000E+00 0. -1.
<mgrwt>
<rscale>  0 0.11723895E+03</rscale>
<asrwt>0</asrwt>
<pdfrwt beam="1">  1        1 0.39114579E-01 0.12582772E+03</pdfrwt>
<pdfrwt beam="2">  1       -1 0.83137660E-02 0.12582772E+03</pdfrwt>
<totfact> 0.82680233E+03</totfact>
</mgrwt>
</event>
<event>
 6    1  0.4705246E-006  0.3813584E+03  0.7546771E-02  0.1051218E+00
         -2   -1    0    0    0  501 -0.00000000000E+00  0.00000000000E+00  0.12833294245E+03  0.12833294245E+03  0.00000000000E+00 0. -1.
          2   -1    0    0  501    0  0.00000000000E+00 -0.00000000000E+00 -0.13816261471E+04  0.13816261471E+04  0.00000000000E+00 0.  1.
          5    1    1    2  502    0  0.14945319028E+02 -0.27785795846E+02 -0.56970103249E+02  0.65292386048E+02  0.47000000000E+01 0.  1.
         -5    1    1    2    0  502 -0.22563809316E+03 -0.26447844522E+03 -0.91107237153E+03  0.97515965525E+03  0.47000000000E+01 0.  1.
        -11    1    1    2    0    0  0.12025734367E+03  0.14911684248E+03 -0.91814454863E+02  0.21243247290E+03  0.00000000000E+00 0. -1.
         11    1    1    2    0    0  0.90435430461E+02  0.14314739859E+03 -0.19343627503E+03  0.25707457537E+03  0.00000000000E+00 0.  1.
<mgrwt>
<rscale>  0 0.37923091E+03</rscale>
<asrwt>0</asrwt>
<pdfrwt beam="2">  1        2 0.21255787E+00 0.38135838E+03</pdfrwt>
<pdfrwt beam="1">  1       -2 0.19743529E-01 0.38135838E+03</pdfrwt>
<totfact> 0.33726407E+02</totfact>
</mgrwt>
</event>
<event>
 6    1  0.4705246E-006  0.1377006E+03  0.7546771E-02  0.1228869E+00
         -3   -1    0    0    0  501 -0.00000000000E+00  0.00000000000E+00  0.52173183672E+03  0.52173183672E+03  0.00000000000E+00 0.  1.
          3   -1    0    0  501    0  0.00000000000E+00 -0.00000000000E+00 -0.28722248236E+02  0.28722248236E+02  0.00000000000E+00 0. -1.
          5    1    1    2  502    0 -0.33038473278E+02 -0.18377822782E+02  0.26106441943E+03  0.26382950210E+03  0.47000000000E+01 0. -1.
         -5    1    1    2    0  502 -0.66448103159E+01 -0.23593385700E+02 -0.63237637690E+01  0.25746482112E+02  0.47000000000E+01 0. -1.
        -11    1    1    2    0    0 -0.10825631395E+02  0.51926748419E+02  0.97562298438E+02  0.11104946453E+03  0.00000000000E+00 0.  1.
         11    1    1    2    0    0  0.50508914989E+02 -0.99555399374E+01  0.14070663439E+03  0.14982863621E+03  0.00000000000E+00 0. -1.
<mgrwt>
<rscale>  0 0.12905236E+03</rscale>
<asrwt>0</asrwt>
<pdfrwt beam="2">  1        3 0.44188078E-02 0.13770058E+03</pdfrwt>
<pdfrwt beam="1">  1       -3 0.80266430E-01 0.13770058E+03</pdfrwt>
<totfact> 0.94997501E+02</totfact>
</mgrwt>
</event>
<event>
 6    1  0.4705246E-006  0.1146381E+03  0.7546771E-02  0.1260174E+00
         -3   -1    0    0    0  501 -0.00000000000E+00  0.00000000000E+00  0.17839964410E+03  0.17839964410E+03  0.00000000000E+00 0.  1.
          3   -1    0    0  501    0  0.00000000000E+00 -0.00000000000E+00 -0.72587386759E+02  0.72587386759E+02  0.00000000000E+00 0. -1.
          5    1    1    2  502    0 -0.67020942039E+02  0.21109173086E+02  0.22357025745E+02  0.73887282128E+02  0.47000000000E+01 0. -1.
         -5    1    1    2    0  502  0.38248261248E+02 -0.10709289962E+02 -0.10530158988E+02  0.41359311265E+02  0.47000000000E+01 0.  1.
        -11    1    1    2    0    0  0.28014399883E+02 -0.25752926426E+02  0.10826613038E+03  0.11475876789E+03  0.00000000000E+00 0.  1.
         11    1    1    2    0    0  0.75828090843E+00  0.15353043302E+02 -0.14280739803E+02  0.20981669569E+02  0.00000000000E+00 0. -1.
<mgrwt>
<rscale>  0 0.11021398E+03</rscale>
<asrwt>0</asrwt>
<pdfrwt beam="2">  1        3 0.11167290E-01 0.11463814E+03</pdfrwt>
<pdfrwt beam="1">  1       -3 0.27446099E-01 0.11463814E+03</pdfrwt>
<totfact> 0.17297748E+03</totfact>
</mgrwt>
</event>
<event>
 6    1  0.4705246E-006  0.1784318E+03  0.7546771E-02  0.1175441E+00
         -1   -1    0    0    0  501 -0.00000000000E+00  0.00000000000E+00  0.17675137073E+02  0.17675137073E+02  0.00000000000E+00 0.  1.
          1   -1    0    0  501    0  0.00000000000E+00 -0.00000000000E+00 -0.16196169098E+04  0.16196169098E+04  0.00000000000E+00 0. -1.
          5    1    1    2  502    0  0.11036159443E+03 -0.62720740407E+02 -0.61167914998E+03  0.62472957775E+03  0.47000000000E+01 0.  1.
         -5    1    1    2    0  502 -0.29794936822E+02 -0.35882359728E+02 -0.37925922660E+03  0.38214517263E+03  0.47000000000E+01 0.  1.
        -11    1    1    2    0    0 -0.38816297086E+02  0.99043355391E+02 -0.51261095847E+03  0.52353250702E+03  0.00000000000E+00 0. -1.
         11    1    1    2    0    0 -0.41750360517E+02 -0.44025525575E+00 -0.98392437671E+02  0.10688478946E+03  0.00000000000E+00 0.  1.
<mgrwt>
<rscale>  0 0.17232890E+03</rscale>
<asrwt>0</asrwt>
<pdfrwt beam="2">  1        1 0.24917177E+00 0.17843177E+03</pdfrwt>
<pdfrwt beam="1">  1       -1 0.27192526E-02 0.17843177E+03</pdfrwt>
<totfact> 0.25979412E+03</totfact>
</mgrwt>
</event>
<event>
 6    1  0.4705246E-006  0.1600706E+03  0.7546771E-02  0.1211377E+00
          1   -1    0    0  501    0  0.00000000000E+00  0.00000000000E+00  0.52908563851E+03  0.52908563851E+03  0.00000000000E+00 0. -1.
         -1   -1    0    0    0  501 -0.00000000000E+00 -0.00000000000E+00 -0.32300829808E+02  0.32300829808E+02  0.00000000000E+00 0.  1.
          5    1    1    2  502    0 -0.36178693064E+02 -0.16196894877E+02  0.30562168512E+03  0.30821736105E+03  0.47000000000E+01 0. -1.
         -5    1    1    2    0  502  0.38521335164E+02  0.50431265950E+02  0.47234693995E+02  0.79249051509E+02  0.47000000000E+01 0.  1.
        -11    1    1    2    0    0  0.23197978054E+02 -0.53680597356E+02  0.58749787151E+02  0.82893245856E+02  0.00000000000E+00 0.  1.
         11    1    1    2    0    0 -0.25540620155E+02  0.19446226282E+02  0.85178642440E+02  0.91026809910E+02  0.00000000000E+00 0. -1.
<mgrwt>
<rscale>  0 0.14146083E+03</rscale>
<asrwt>0</asrwt>
<pdfrwt beam="1">  1        1 0.81397784E-01 0.16007060E+03</pdfrwt>
<pdfrwt beam="2">  1       -1 0.49693588E-02 0.16007060E+03</pdfrwt>
<totfact> 0.71951037E+03</totfact>
</mgrwt>
</event>
<event>
 6    1  0.4705246E-006  0.1473184E+03  0.7546771E-02  0.1214027E+00
          2   -1    0    0  501    0  0.00000000000E+00  0.00000000000E+00  0.82755340613E+03  0.82755340613E+03  0.00000000000E+00 0. -1.
         -2   -1    0    0    0  501 -0.00000000000E+00 -0.00000000000E+00 -0.25057726940E+02  0.25057726940E+02  0.00000000000E+00 0.  1.
          5    1    1    2  502    0 -0.75492405244E+02 -0.25576427563E+02  0.20157252641E+03  0.21681058622E+03  0.47000000000E+01 0. -1.
         -5    1    1    2    0  502  0.27171842598E+02 -0.35596714179E+02  0.40049956662E+03  0.40302286282E+03  0.47000000000E+01 0. -1.
        -11    1    1    2    0    0  0.65098674156E+02  0.47456596544E+02  0.92337880574E+02  0.12254081002E+03  0.00000000000E+00 0.  1.
         11    1    1    2    0    0 -0.16778111510E+02  0.13716545198E+02  0.10808570559E+03  0.11023687401E+03  0.00000000000E+00 0. -1.
<mgrwt>
<rscale>  0 0.13948260E+03</rscale>
<asrwt>0</asrwt>
<pdfrwt beam="1">  1        2 0.12731589E+00 0.14731836E+03</pdfrwt>
<pdfrwt beam="2">  1       -2 0.38550355E-02 0.14731836E+03</pdfrwt>
<totfact> 0.95325154E+03</totfact>
</mgrwt>
</event>
<event>
 6    1  0.4705246E-006  0.3350808E+03  0.7546771E-02  0.1068911E+00
          2   -1    0    0  501    0  0.00000000000E+00  0.00000000000E+00  0.38877660476E+03  0.38877660476E+03  0.00000000000E+00 0. -1.
         -2   -1    0    0    0  501 -0.00000000000E+00 -0.00000000000E+00 -0.72200304071E+02  0.72200304071E+02  0.00000000000E+00 0.  1.
          5    1    1    2  502    0  0.92630256301E+02  0.11639280169E+03  0.18673175658E+03  0.23878544257E+03  0.47000000000E+01 0. -1.
         -5    1    1    2    0  502 -0.11352264592E+02 -0.22989808451E+02  0.21239180630E+02  0.33624366133E+02  0.47000000000E+01 0. -1.
        -11    1    1    2    0    0 -0.27916378603E+02 -0.96726317369E+02  0.69839822514E+02  0.12252716219E+03  0.00000000000E+00 0. -1.
         11    1    1    2    0    0 -0.53361613105E+02  0.33233241303E+01  0.38765540965E+02  0.66039937937E+02  0.00000000000E+00 0.  1.
<mgrwt>
<rscale>  0 0.33508082E+03</rscale>
<asrwt>0</asrwt>
<pdfrwt beam="1">  1        2 0.59811785E-01 0.33508082E+03</pdfrwt>
<pdfrwt beam="2">  1       -2 0.11107739E-01 0.33508082E+03</pdfrwt>
<totfact> 0.46260038E+03</totfact>
</mgrwt>
</event>
<event>
 6    1  0.4705246E-006  0.1721094E+03  0.7546771E-02  0.1180293E+00
         -4   -1    0    0    0  501 -0.00000000000E+00  0.00000000000E+00  0.26841998702E+02  0.26841998702E+02  0.00000000000E+00 0.  1.
          4   -1    0    0  501    0  0.00000000000E+00 -0.00000000000E+00 -0.16151131830E+04  0.16151131830E+04  0.00000000000E+00 0. -1.
          5    1    1    2  502    0 -0.60699719280E+02 -0.57573664623E+02 -0.12493124303E+04  0.12521193319E+04  0.47000000000E+01 0. -1.
         -5    1    1    2    0  502 -0.34185525456E+02 -0.13120313997E+02 -0.77888934159E+02  0.86194946804E+02  0.47000000000E+01 0. -1.
        -11    1    1    2    0    0  0.55412098547E+02 -0.56739293201E+01 -0.46741600312E+02  0.72715000784E+02  0.00000000000E+00 0.  1.
         11    1    1    2    0    0  0.39473146190E+02  0.76367907940E+02 -0.21432821948E+03  0.23092590218E+03  0.00000000000E+00 0. -1.
<mgrwt>
<rscale>  0 0.16767605E+03</rscale>
<asrwt>0</asrwt>
<pdfrwt beam="2">  1        4 0.24847893E+00 0.17210940E+03</pdfrwt>
<pdfrwt beam="1">  1       -4 0.41295386E-02 0.17210940E+03</pdfrwt>
<totfact> 0.42186917E+01</totfact>
</mgrwt>
</event>
<event>
 6    1  0.4705246E-006  0.1223778E+03  0.7546771E-02  0.1248996E+00
          4   -1    0    0  501    0  0.00000000000E+00  0.00000000000E+00  0.69277022794E+03  0.69277022794E+03  0.00000000000E+00 0. -1.
         -4   -1    0    0    0  501 -0.00000000000E+00 -0.00000000000E+00 -0.18999807386E+02  0.18999807386E+02  0.00000000000E+00 0.  1.
          5    1    1    2  502    0 -0.10686757764E+02 -0.20598664677E+02  0.43858252908E+03  0.43922117047E+03  0.47000000000E+01 0. -1.
         -5    1    1    2    0  502  0.11872811287E+02 -0.22647431811E+02  0.13825821428E+02  0.29446785116E+02  0.47000000000E+01 0.  1.
        -11    1    1    2    0    0 -0.42593405444E+02  0.18539539860E+02  0.14959163371E+03  0.15663834014E+03  0.00000000000E+00 0. -1.
         11    1    1    2    0    0  0.41407351921E+02  0.24706556629E+02  0.71770436338E+02  0.86463739600E+02  0.00000000000E+00 0.  1.
<mgrwt>
<rscale>  0 0.11649401E+03</rscale>
<asrwt>0</asrwt>
<pdfrwt beam="1">  1        4 0.10658002E+00 0.12237785E+03</pdfrwt>
<pdfrwt beam="2">  1       -4 0.29230478E-02 0.12237785E+03</pdfrwt>
<totfact> 0.67272036E+02</totfact>
</mgrwt>
</event>
<event>
 6    1  0.4705246E-006  0.2715982E+03  0.7546771E-02  0.1100368E+00
         -1   -1    0    0    0  501 -0.00000000000E+00  0.00000000000E+00  0.36355368113E+03  0.36355368113E+03  0.00000000000E+00 0.  1.
          1   -1    0    0  501    0  0.00000000000E+00 -0.00000000000E+00 -0.50725385313E+02  0.50725385313E+02  0.00000000000E+00 0. -1.
          5    1    1    2  502    0  0.64818388388E+02 -0.73625685683E+02  0.15004703686E+03  0.17932754483E+03  0.47000000000E+01 0.  1.
         -5    1    1    2    0  502 -0.31847476772E+02  0.45642676341E+00  0.54479015099E+00  0.32200262397E+02  0.47000000000E+01 0.  1.
        -11    1    1    2    0    0 -0.40094131650E+02  0.15377945786E+02  0.16835646230E+02  0.46124392606E+02  0.00000000000E+00 0. -1.
         11    1    1    2    0    0  0.71232200335E+01  0.57791313134E+02  0.14540082258E+03  0.15662686661E+03  0.00000000000E+00 0.  1.
<mgrwt>
<rscale>  0 0.27159824E+03</rscale>
<asrwt>0</asrwt>
<pdfrwt beam="2">  1        1 0.78039057E-02 0.27159824E+03</pdfrwt>
<pdfrwt beam="1">  1       -1 0.55931334E-01 0.27159824E+03</pdfrwt>
<totfact> 0.29804836E+03</totfact>
</mgrwt>
</event>
<event>
 6    1  0.4705246E-006  0.1457607E+03  0.7546771E-02  0.1215904E+00
         -1   -1    0    0    0  501 -0.00000000000E+00  0.00000000000E+00  0.38137166829E+02  0.38137166829E+02  0.00000000000E+00 0.  1.
          1   -1    0    0  501    0  0.00000000000E+00 -0.00000000000E+00 -0.45605724146E+03  0.45605724146E+03  0.00000000000E+00 0. -1.
          5    1    1    2  502    0 -0.20767460806E+02  0.45663409592E+01 -0.22906571721E+03  0.23009852607E+03  0.47000000000E+01 0.  1.
         -5    1    1    2    0  502 -0.49879027970E+02  0.19665393857E+02 -0.17984941733E+02  0.56746746831E+02  0.47000000000E+01 0.  1.
        -11    1    1    2    0    0  0.70828182253E+02  0.17822469567E+02 -0.12750631780E+03  0.14694261772E+03  0.00000000000E+00 0. -1.
         11    1    1    2    0    0 -0.18169347665E+00 -0.42054204383E+02 -0.43363097885E+02  0.60406517670E+02  0.00000000000E+00 0.  1.
<mgrwt>
<rscale>  0 0.13810348E+03</rscale>
<asrwt>0</asrwt>
<pdfrwt beam="2">  1        1 0.70162657E-01 0.14576070E+03</pdfrwt>
<pdfrwt beam="1">  1       -1 0.58672561E-02 0.14576070E+03</pdfrwt>
<totfact> 0.67847237E+03</totfact>
</mgrwt>
</event>
<event>
 6    1  0.4705246E-006  0.3962333E+03  0.7546771E-02  0.1045092E+00
          2   -1    0    0  501    0  0.00000000000E+00  0.00000000000E+00  0.20041516470E+04  0.20041516470E+04  0.00000000000E+00 0. -1.
         -2   -1    0    0    0  501 -0.00000000000E+00 -0.00000000000E+00 -0.19584452059E+02  0.19584452059E+02  0.00000000000E+00 0.  1.
          5    1    1    2  502    0  0.30008797899E+02  0.19885661030E+02  0.95769188138E+03  0.95837977708E+03  0.47000000000E+01 0. -1.
         -5    1    1    2    0  502  0.86830934064E+02 -0.64728867217E+02  0.64532279020E+03  0.65436460090E+03  0.47000000000E+01 0. -1.
        -11    1    1    2    0    0 -0.56919072008E+02  0.29136972609E+02  0.30920807312E+03  0.31575049709E+03  0.00000000000E+00 0. -1.
         11    1    1    2    0    0 -0.59920659955E+02  0.15706233578E+02  0.72344450201E+02  0.95241223939E+02  0.00000000000E+00 0.  1.
<mgrwt>
<rscale>  0 0.39623332E+03</rscale>
<asrwt>0</asrwt>
<pdfrwt beam="1">  1        2 0.30833086E+00 0.39623332E+03</pdfrwt>
<pdfrwt beam="2">  1       -2 0.30129942E-02 0.39623332E+03</pdfrwt>
<totfact> 0.30966396E+03</totfact>
</mgrwt>
</event>
<event>
 6    1  0.4705246E-006  0.1287818E+03  0.7546771E-02  0.1255098E+00
         -2   -1    0    0    0  501 -0.00000000000E+00  0.00000000000E+00  0.17630776315E+02  0.17630776315E+02  0.00000000000E+00 0. -1.
          2   -1    0    0  501    0  0.00000000000E+00 -0.00000000000E+00 -0.61794293713E+03  0.61794293713E+03  0.00000000000E+00 0.  1.
          5    1    1    2  502    0  0.67658442129E+02 -0.27218095313E+02 -0.27154876243E+03  0.28121043701E+03  0.47000000000E+01 0. -1.
         -5    1    1    2    0  502 -0.38814545772E+02  0.38464858955E+02 -0.15964786893E+03  0.16880653539E+03  0.47000000000E+01 0. -1.
        -11    1    1    2    0    0  0.70228821372E+01 -0.22669035039E+02 -0.12645970337E+03  0.12866725535E+03  0.00000000000E+00 0.  1.
         11    1    1    2    0    0 -0.35866778494E+02  0.11422271398E+02 -0.42655826084E+02  0.56889485693E+02  0.00000000000E+00 0. -1.
<mgrwt>
<rscale>  0 0.11300844E+03</rscale>
<asrwt>0</asrwt>
<pdfrwt beam="2">  1        2 0.95068138E-01 0.12878176E+03</pdfrwt>
<pdfrwt beam="1">  1       -2 0.27124273E-02 0.12878176E+03</pdfrwt>
<totfact> 0.22498508E+04</totfact>
</mgrwt>
</event>
<event>
 6    1  0.4705246E-006  0.1449294E+03  0.7546771E-02  0.1216275E+00
          1   -1    0    0  501    0  0.00000000000E+00  0.00000000000E+00  0.18269931520E+03  0.18269931520E+03  0.00000000000E+00 0. -1.
         -1   -1    0    0    0  501 -0.00000000000E+00 -0.00000000000E+00 -0.95007447321E+02  0.95007447321E+02  0.00000000000E+00 0.  1.
          5    1    1    2  502    0 -0.62534295146E+01 -0.17402658278E+02 -0.27866583380E+02  0.33772686672E+02  0.47000000000E+01 0. -1.
         -5    1    1    2    0  502  0.35577814492E+02  0.84618819821E+02  0.74993230514E+02  0.11862630473E+03  0.47000000000E+01 0. -1.
        -11    1    1    2    0    0 -0.16917667640E+02 -0.89944731695E+01 -0.28365430816E+02  0.34230186844E+02  0.00000000000E+00 0.  1.
         11    1    1    2    0    0 -0.12406717337E+02 -0.58221688374E+02  0.68930651559E+02  0.91077584270E+02  0.00000000000E+00 0. -1.
<mgrwt>
<rscale>  0 0.13783263E+03</rscale>
<asrwt>0</asrwt>
<pdfrwt beam="1">  1        1 0.28107587E-01 0.14492940E+03</pdfrwt>
<pdfrwt beam="2">  1       -1 0.14616530E-01 0.14492940E+03</pdfrwt>
<totfact> 0.52872963E+03</totfact>
</mgrwt>
</event>
<event>
 6    1  0.4705246E-006  0.1513481E+03  0.7546771E-02  0.1207738E+00
          2   -1    0    0  501    0  0.00000000000E+00  0.00000000000E+00  0.33863776277E+03  0.33863776277E+03  0.00000000000E+00 0. -1.
         -2   -1    0    0    0  501 -0.00000000000E+00 -0.00000000000E+00 -0.56339012183E+02  0.56339012183E+02  0.00000000000E+00 0.  1.
          5    1    1    2  502    0 -0.53220414600E+02 -0.13234935173E+02  0.14162607088E+03  0.15194607593E+03  0.47000000000E+01 0. -1.
         -5    1    1    2    0  502  0.15058775447E+02 -0.63115225136E+02  0.16877174508E+02  0.67210321985E+02  0.47000000000E+01 0. -1.
        -11    1    1    2    0    0  0.12938652116E+01 -0.12641737279E+02 -0.61078450026E+01  0.14099410598E+02  0.00000000000E+00 0.  1.
         11    1    1    2    0    0  0.36867773941E+02  0.88991897588E+02  0.12990335021E+03  0.16172096644E+03  0.00000000000E+00 0. -1.
<mgrwt>
<rscale>  0 0.14423801E+03</rscale>
<asrwt>0</asrwt>
<pdfrwt beam="1">  1        2 0.52098116E-01 0.15134810E+03</pdfrwt>
<pdfrwt beam="2">  1       -2 0.86675406E-02 0.15134810E+03</pdfrwt>
<totfact> 0.76560850E+03</totfact>
</mgrwt>
</event>
<event>
 6    1  0.4705246E-006  0.1284138E+03  0.7546771E-02  0.1245263E+00
         -2   -1    0    0    0  501 -0.00000000000E+00  0.00000000000E+00  0.74575660083E+02  0.74575660083E+02  0.00000000000E+00 0.  1.
          2   -1    0    0  501    0  0.00000000000E+00 -0.00000000000E+00 -0.27852975969E+03  0.27852975969E+03  0.00000000000E+00 0. -1.
          5    1    1    2  502    0 -0.91030555296E+01  0.59310933729E+02 -0.21706187362E+03  0.22525230178E+03  0.47000000000E+01 0.  1.
         -5    1    1    2    0  502  0.29572234438E+00 -0.31250097848E+02 -0.60521412979E+01  0.32177235455E+02  0.47000000000E+01 0.  1.
        -11    1    1    2    0    0  0.49856381629E+01 -0.49554250090E+02  0.41212969104E+02  0.64645101223E+02  0.00000000000E+00 0.  1.
         11    1    1    2    0    0  0.38216950223E+01  0.21493414209E+02 -0.22053053800E+02  0.31030781317E+02  0.00000000000E+00 0. -1.
<mgrwt>
<rscale>  0 0.11869637E+03</rscale>
<asrwt>0</asrwt>
<pdfrwt beam="2">  1        2 0.42850733E-01 0.12841380E+03</pdfrwt>
<pdfrwt beam="1">  1       -2 0.11473178E-01 0.12841380E+03</pdfrwt>
<totfact> 0.59978020E+03</totfact>
</mgrwt>
</event>
<event>
 6    1  0.4705246E-006  0.2673588E+03  0.7546771E-02  0.1104986E+00
         -2   -1    0    0    0  501 -0.00000000000E+00  0.00000000000E+00  0.61987718570E+02  0.61987718570E+02  0.00000000000E+00 0.  1.
          2   -1    0    0  501    0  0.00000000000E+00 -0.00000000000E+00 -0.13357200154E+04  0.13357200154E+04  0.00000000000E+00 0. -1.
          5    1    1    2  502    0 -0.58730455018E+02  0.11722477168E+02 -0.39580354832E+03  0.40033638566E+03  0.47000000000E+01 0. -1.
         -5    1    1    2    0  502 -0.97630467129E+02  0.16549140701E+03 -0.55480130689E+03  0.58715048670E+03  0.47000000000E+01 0. -1.
        -11    1    1    2    0    0  0.67340132005E+02 -0.13259514982E+03 -0.22994458218E+03  0.27384425867E+03  0.00000000000E+00 0. -1.
         11    1    1    2    0    0  0.89020790142E+02 -0.44618734357E+02 -0.93182859396E+02  0.13637660290E+03  0.00000000000E+00 0.  1.
<mgrwt>
<rscale>  0 0.26362271E+03</rscale>
<asrwt>0</asrwt>
<pdfrwt beam="2">  1        2 0.20549536E+00 0.26735881E+03</pdfrwt>
<pdfrwt beam="1">  1       -2 0.95365733E-02 0.26735881E+03</pdfrwt>
<totfact> 0.12018035E+03</totfact>
</mgrwt>
</event>
<event>
 6    1  0.4705246E-006  0.1716302E+03  0.7546771E-02  0.1182939E+00
         -3   -1    0    0    0  501 -0.00000000000E+00  0.00000000000E+00  0.14909376108E+03  0.14909376108E+03  0.00000000000E+00 0.  1.
          3   -1    0    0  501    0  0.00000000000E+00 -0.00000000000E+00 -0.20123497986E+03  0.20123497986E+03  0.00000000000E+00 0. -1.
          5    1    1    2  502    0  0.35909013058E+02 -0.24093431112E+02 -0.23365643245E+02  0.49376046073E+02  0.47000000000E+01 0.  1.
         -5    1    1    2    0  502  0.22834118606E+02  0.12598322844E+03 -0.72551555771E+02  0.14723786559E+03  0.47000000000E+01 0.  1.
        -11    1    1    2    0    0 -0.76667315755E+02 -0.77714421450E+02  0.54179424458E+02  0.12187214054E+03  0.00000000000E+00 0.  1.
         11    1    1    2    0    0  0.17924184092E+02 -0.24175375875E+02 -0.10403444218E+02  0.31842688731E+02  0.00000000000E+00 0. -1.
<mgrwt>
<rscale>  0 0.16520855E+03</rscale>
<asrwt>0</asrwt>
<pdfrwt beam="2">  1        3 0.30959228E-01 0.17163019E+03</pdfrwt>
<pdfrwt beam="1">  1       -3 0.22937502E-01 0.17163019E+03</pdfrwt>
<totfact> 0.42599526E+02</totfact>
</mgrwt>
</event>
<event>
 6    1  0.4705246E-006  0.1930970E+03  0.7546771E-02  0.1180894E+00
          2   -1    0    0  501    0  0.00000000000E+00  0.00000000000E+00  0.51410534841E+03  0.51410534841E+03  0.00000000000E+00 0. -1.
         -2   -1    0    0    0  501 -0.00000000000E+00 -0.00000000000E+00 -0.45230147144E+02  0.45230147144E+02  0.00000000000E+00 0.  1.
          5    1    1    2  502    0  0.48731626642E+02 -0.10851052869E+02  0.21897868179E+03  0.22464698943E+03  0.47000000000E+01 0. -1.
         -5    1    1    2    0  502 -0.86363557434E+02 -0.22712893421E+02  0.38910330159E+02  0.97522527517E+02  0.47000000000E+01 0.  1.
        -11    1    1    2    0    0 -0.17902022851E+01 -0.28795733216E+02  0.29526092096E+02  0.41281826391E+02  0.00000000000E+00 0.  1.
         11    1    1    2    0    0  0.39422133077E+02  0.62359679506E+02  0.18146009722E+03  0.19588415221E+03  0.00000000000E+00 0. -1.
<mgrwt>
<rscale>  0 0.16711122E+03</rscale>
<asrwt>0</asrwt>
<pdfrwt beam="1">  1        2 0.79093127E-01 0.19309701E+03</pdfrwt>
<pdfrwt beam="2">  1       -2 0.69584845E-02 0.19309701E+03</pdfrwt>
<totfact> 0.69384818E+03</totfact>
</mgrwt>
</event>
<event>
 6    1  0.4705246E-006  0.1326876E+03  0.7546771E-02  0.1235933E+00
         -2   -1    0    0    0  501 -0.00000000000E+00  0.00000000000E+00  0.18195590551E+02  0.18195590551E+02  0.00000000000E+00 0.  1.
          2   -1    0    0  501    0  0.00000000000E+00 -0.00000000000E+00 -0.81536134574E+03  0.81536134574E+03  0.00000000000E+00 0. -1.
          5    1    1    2  502    0 -0.23435741980E+02  0.20250769112E+02 -0.39010139413E+02  0.50032075999E+02  0.47000000000E+01 0. -1.
         -5    1    1    2    0  502  0.24937029762E+02 -0.64718488814E+02 -0.51368523988E+03  0.51836758571E+03  0.47000000000E+01 0. -1.
        -11    1    1    2    0    0 -0.37548126642E+02  0.45710068652E+02 -0.99399830393E+02  0.11567021429E+03  0.00000000000E+00 0.  1.
         11    1    1    2    0    0  0.36046838861E+02 -0.12423489505E+01 -0.14507054550E+03  0.14948706030E+03  0.00000000000E+00 0. -1.
<mgrwt>
<rscale>  0 0.12444895E+03</rscale>
<asrwt>0</asrwt>
<pdfrwt beam="2">  1        2 0.12544021E+00 0.13268758E+03</pdfrwt>
<pdfrwt beam="1">  1       -2 0.27993216E-02 0.13268758E+03</pdfrwt>
<totfact> 0.15471140E+04</totfact>
</mgrwt>
</event>
<event>
 6    1  0.4705246E-006  0.1285762E+03  0.7546771E-02  0.1231916E+00
         -2   -1    0    0    0  501 -0.00000000000E+00  0.00000000000E+00  0.62312242593E+02  0.62312242593E+02  0.00000000000E+00 0.  1.
          2   -1    0    0  501    0  0.00000000000E+00 -0.00000000000E+00 -0.31784604455E+03  0.31784604455E+03  0.00000000000E+00 0. -1.
          5    1    1    2  502    0  0.37602026874E+02  0.23034430364E+02 -0.17838386038E+03  0.18381346265E+03  0.47000000000E+01 0. -1.
         -5    1    1    2    0  502 -0.55932288232E+02  0.84488533183E+00 -0.37666487132E+02  0.67601693402E+02  0.47000000000E+01 0. -1.
        -11    1    1    2    0    0 -0.79674885200E+01  0.30378015933E+02 -0.57754501000E+02  0.65741061074E+02  0.00000000000E+00 0. -1.
         11    1    1    2    0    0  0.26297749878E+02 -0.54257331628E+02  0.18271046557E+02  0.63002070016E+02  0.00000000000E+00 0.  1.
<mgrwt>
<rscale>  0 0.12703959E+03</rscale>
<asrwt>0</asrwt>
<pdfrwt beam="2">  1        2 0.48899390E-01 0.12857616E+03</pdfrwt>
<pdfrwt beam="1">  1       -2 0.95864991E-02 0.12857616E+03</pdfrwt>
<totfact> 0.69232405E+03</totfact>
</mgrwt>
</event>
<event>
 6    1  0.4705246E-006  0.2649825E+03  0.7546771E-02  0.1104186E+00
          1   -1    0    0  501    0  0.00000000000E+00  0.00000000000E+00  0.70441306188E+03  0.70441306188E+03  0.00000000000E+00 0. -1.
         -1   -1    0    0    0  501 -0.00000000000E+00 -0.00000000000E+00 -0.24919943792E+02  0.24919943792E+02  0.00000000000E+00 0.  1.
          5    1    1    2  502    0  0.45885135681E+02  0.71505648668E+02  0.20409291680E+03  0.22112103508E+03  0.47000000000E+01 0. -1.
         -5    1    1    2    0  502 -0.88512069230E+01 -0.16112782576E+02  0.27859791670E+03  0.27924336127E+03  0.47000000000E+01 0.  1.
        -11    1    1    2    0    0 -0.61748262390E+02 -0.32310964695E+02  0.17592646893E+03  0.18922729406E+03  0.00000000000E+00 0.  1.
         11    1    1    2    0    0  0.24714333631E+02 -0.23081901396E+02  0.20875815664E+02  0.39741315260E+02  0.00000000000E+00 0. -1.
<mgrwt>
<rscale>  0 0.26498252E+03</rscale>
<asrwt>0</asrwt>
<pdfrwt beam="1">  1        1 0.10837123E+00 0.26498252E+03</pdfrwt>
<pdfrwt beam="2">  1       -1 0.38338380E-02 0.26498252E+03</pdfrwt>
<totfact> 0.72863738E+03</totfact>
</mgrwt>
</event>
<event>
 6    1  0.4705246E-006  0.1678669E+03  0.7546771E-02  0.1187174E+00
          2   -1    0    0  501    0  0.00000000000E+00  0.00000000000E+00  0.56933172525E+03  0.56933172525E+03  0.00000000000E+00 0. -1.
         -2   -1    0    0    0  501 -0.00000000000E+00 -0.00000000000E+00 -0.42840732429E+02  0.42840732429E+02  0.00000000000E+00 0.  1.
          5    1    1    2  502    0 -0.26183891322E+02 -0.44356741840E+02  0.16842670874E+03  0.17618956532E+03  0.47000000000E+01 0. -1.
         -5    1    1    2    0  502  0.79450344032E+02 -0.54203815703E+02  0.88936762219E+02  0.13108107597E+03  0.47000000000E+01 0. -1.
        -11    1    1    2    0    0 -0.27945168271E+02 -0.64924768579E+01  0.10137807194E+03  0.10535937621E+03  0.00000000000E+00 0.  1.
         11    1    1    2    0    0 -0.25321284438E+02  0.10505303440E+03  0.16774944992E+03  0.19954244018E+03  0.00000000000E+00 0. -1.
<mgrwt>
<rscale>  0 0.16135667E+03</rscale>
<asrwt>0</asrwt>
<pdfrwt beam="1">  1        2 0.87589490E-01 0.16786688E+03</pdfrwt>
<pdfrwt beam="2">  1       -2 0.65908824E-02 0.16786688E+03</pdfrwt>
<totfact> 0.66755004E+03</totfact>
</mgrwt>
</event>
<event>
 6    1  0.4705246E-006  0.1783318E+03  0.7546771E-02  0.1183078E+00
          2   -1    0    0  501    0  0.00000000000E+00  0.00000000000E+00  0.12280737213E+03  0.12280737213E+03  0.00000000000E+00 0. -1.
         -2   -1    0    0    0  501 -0.00000000000E+00 -0.00000000000E+00 -0.22842696444E+03  0.22842696444E+03  0.00000000000E+00 0.  1.
          5    1    1    2  502    0 -0.10461902254E+03 -0.70176778709E+01 -0.27509063679E+02  0.10850449882E+03  0.47000000000E+01 0. -1.
         -5    1    1    2    0  502  0.30972056153E+02 -0.52134851505E+02  0.34584091614E+02  0.69967566747E+02  0.47000000000E+01 0.  1.
        -11    1    1    2    0    0 -0.67098347232E+01 -0.17711450904E+02 -0.10099139799E+02  0.21464156163E+02  0.00000000000E+00 0. -1.
         11    1    1    2    0    0  0.80356801108E+02  0.76863980279E+02 -0.10259548045E+03  0.15129811485E+03  0.00000000000E+00 0.  1.
<mgrwt>
<rscale>  0 0.16507990E+03</rscale>
<asrwt>0</asrwt>
<pdfrwt beam="1">  1        2 0.18893442E-01 0.17833178E+03</pdfrwt>
<pdfrwt beam="2">  1       -2 0.35142610E-01 0.17833178E+03</pdfrwt>
<totfact> 0.22180134E+03</totfact>
</mgrwt>
</event>
<event>
 6    1  0.4705246E-006  0.2405115E+03  0.7546771E-02  0.1205953E+00
          2   -1    0    0  501    0  0.00000000000E+00  0.00000000000E+00  0.89678043902E+03  0.89678043902E+03  0.00000000000E+00 0. -1.
         -2   -1    0    0    0  501 -0.00000000000E+00 -0.00000000000E+00 -0.24350789745E+02  0.24350789745E+02  0.00000000000E+00 0.  1.
          5    1    1    2  502    0 -0.52736180847E+01  0.69576205985E+02  0.78400376641E+03  0.78711667193E+03  0.47000000000E+01 0. -1.
         -5    1    1    2    0  502  0.12861026454E+02 -0.66959934379E+02  0.61543140703E+02  0.91971120364E+02  0.47000000000E+01 0.  1.
        -11    1    1    2    0    0 -0.12739253495E+02  0.11537981899E+02  0.12888223636E+02  0.21483014555E+02  0.00000000000E+00 0.  1.
         11    1    1    2    0    0  0.51518451249E+01 -0.14154253505E+02  0.13994518526E+02  0.20560421914E+02  0.00000000000E+00 0. -1.
<mgrwt>
<rscale>  0 0.14562629E+03</rscale>
<asrwt>0</asrwt>
<pdfrwt beam="1">  1        2 0.13796620E+00 0.24051149E+03</pdfrwt>
<pdfrwt beam="2">  1       -2 0.37462760E-02 0.24051149E+03</pdfrwt>
<totfact> 0.91846469E+03</totfact>
</mgrwt>
</event>
<event>
 6    1  0.4705246E-006  0.1252988E+03  0.7546771E-02  0.1250314E+00
          2   -1    0    0  501    0  0.00000000000E+00  0.00000000000E+00  0.42099904011E+03  0.42099904011E+03  0.00000000000E+00 0. -1.
         -2   -1    0    0    0  501 -0.00000000000E+00 -0.00000000000E+00 -0.38990879034E+02  0.38990879034E+02  0.00000000000E+00 0.  1.
          5    1    1    2  502    0  0.37228087395E+02  0.36543289452E+01  0.24705835436E+02  0.45074969946E+02  0.47000000000E+01 0. -1.
         -5    1    1    2    0  502 -0.37447109396E+02  0.50682133048E+01  0.30973603085E+03  0.31206805603E+03  0.47000000000E+01 0. -1.
        -11    1    1    2    0    0  0.32698767644E+02  0.22242690688E+02  0.41899705845E+02  0.57615380276E+02  0.00000000000E+00 0. -1.
         11    1    1    2    0    0 -0.32479745643E+02 -0.30965232938E+02  0.56665889424E+01  0.45231512888E+02  0.00000000000E+00 0.  1.
<mgrwt>
<rscale>  0 0.11572906E+03</rscale>
<asrwt>0</asrwt>
<pdfrwt beam="1">  1        2 0.64769080E-01 0.12529876E+03</pdfrwt>
<pdfrwt beam="2">  1       -2 0.59985971E-02 0.12529876E+03</pdfrwt>
<totfact> 0.10538168E+04</totfact>
</mgrwt>
</event>
<event>
 6    1  0.4705246E-006  0.3988272E+03  0.7546771E-02  0.1044187E+00
          3   -1    0    0  501    0  0.00000000000E+00  0.00000000000E+00  0.76603928215E+03  0.76603928215E+03  0.00000000000E+00 0. -1.
         -3   -1    0    0    0  501 -0.00000000000E+00 -0.00000000000E+00 -0.51910893841E+02  0.51910893841E+02  0.00000000000E+00 0.  1.
          5    1    1    2  502    0 -0.12192768064E+03 -0.64760702640E+02  0.35794611574E+03  0.38367671246E+03  0.47000000000E+01 0. -1.
         -5    1    1    2    0  502  0.49209240971E+01 -0.15216268825E+01  0.22920470281E+03  0.22931074251E+03  0.47000000000E+01 0.  1.
        -11    1    1    2    0    0  0.12655847432E+03  0.75013429583E+02  0.12190722214E+03  0.19106394964E+03  0.00000000000E+00 0.  1.
         11    1    1    2    0    0 -0.95517177818E+01 -0.87311000610E+01  0.50703476192E+01  0.13898771379E+02  0.00000000000E+00 0. -1.
<mgrwt>
<rscale>  0 0.39882720E+03</rscale>
<asrwt>0</asrwt>
<pdfrwt beam="1">  1        3 0.11785219E+00 0.39882720E+03</pdfrwt>
<pdfrwt beam="2">  1       -3 0.79862919E-02 0.39882720E+03</pdfrwt>
<totfact> 0.17145080E+02</totfact>
</mgrwt>
</event>
<event>
 6    1  0.4705246E-006  0.1532722E+03  0.7546771E-02  0.1205234E+00
          2   -1    0    0  501    0  0.00000000000E+00  0.00000000000E+00  0.68229495074E+03  0.68229495074E+03  0.00000000000E+00 0. -1.
         -2   -1    0    0    0  501 -0.00000000000E+00 -0.00000000000E+00 -0.29534465856E+02  0.29534465856E+02  0.00000000000E+00 0.  1.
          5    1    1    2  502    0  0.96762203463E+02 -0.71499132750E+02  0.33457542639E+03  0.35558101179E+03  0.47000000000E+01 0.  1.
         -5    1    1    2    0  502 -0.28486638750E+02  0.15290097449E+02  0.79491661454E+02  0.85943527436E+02  0.47000000000E+01 0.  1.
        -11    1    1    2    0    0 -0.81873271473E+02  0.51495086025E+02  0.23679733499E+03  0.25578888624E+03  0.00000000000E+00 0. -1.
         11    1    1    2    0    0  0.13597706760E+02  0.47139492764E+01  0.18960620423E+01  0.14515991120E+02  0.00000000000E+00 0.  1.
<mgrwt>
<rscale>  0 0.14619000E+03</rscale>
<asrwt>0</asrwt>
<pdfrwt beam="1">  1        2 0.10496844E+00 0.15327219E+03</pdfrwt>
<pdfrwt beam="2">  1       -2 0.45437645E-02 0.15327219E+03</pdfrwt>
<totfact> 0.94636659E+03</totfact>
</mgrwt>
</event>
<event>
 6    1  0.4705246E-006  0.1270522E+03  0.7546771E-02  0.1246092E+00
          1   -1    0    0  501    0  0.00000000000E+00  0.00000000000E+00  0.23361963767E+03  0.23361963767E+03  0.00000000000E+00 0. -1.
         -1   -1    0    0    0  501 -0.00000000000E+00 -0.00000000000E+00 -0.55161323030E+02  0.55161323030E+02  0.00000000000E+00 0.  1.
          5    1    1    2  502    0  0.19634957738E+02 -0.56042693341E+02  0.29020503969E+02  0.66261562711E+02  0.47000000000E+01 0. -1.
         -5    1    1    2    0  502 -0.37110120656E+02  0.41472622639E+02  0.10172092489E+03  0.11604471571E+03  0.47000000000E+01 0. -1.
        -11    1    1    2    0    0  0.45590638775E+02  0.20349769771E+02  0.57499593355E+02  0.76150001377E+02  0.00000000000E+00 0. -1.
         11    1    1    2    0    0 -0.28115475858E+02 -0.57796990688E+01 -0.97827075771E+01  0.30324680898E+02  0.00000000000E+00 0.  1.
<mgrwt>
<rscale>  0 0.11820269E+03</rscale>
<asrwt>0</asrwt>
<pdfrwt beam="1">  1        1 0.35941482E-01 0.12705219E+03</pdfrwt>
<pdfrwt beam="2">  1       -1 0.84863575E-02 0.12705219E+03</pdfrwt>
<totfact> 0.89044648E+03</totfact>
</mgrwt>
</event>
<event>
 6    1  0.4705246E-006  0.3817503E+03  0.7546771E-02  0.1050289E+00
         -1   -1    0    0    0  501 -0.00000000000E+00  0.00000000000E+00  0.15795620872E+03  0.15795620872E+03  0.00000000000E+00 0. -1.
          1   -1    0    0  501    0  0.00000000000E+00 -0.00000000000E+00 -0.23065462166E+03  0.23065462166E+03  0.00000000000E+00 0.  1.
          5    1    1    2  502    0 -0.13973803848E+02 -0.14083756713E+02  0.98965674893E+01  0.22663879748E+02  0.47000000000E+01 0.  1.
         -5    1    1    2    0  502  0.11893834806E+03  0.12883397971E+03 -0.28808321370E+02  0.17775414017E+03  0.47000000000E+01 0.  1.
        -11    1    1    2    0    0 -0.63037384145E+02 -0.12659122938E+02 -0.42895351929E+02  0.77291502835E+02  0.00000000000E+00 0.  1.
         11    1    1    2    0    0 -0.41927160070E+02 -0.10209110006E+03 -0.10891307125E+02  0.11090130763E+03  0.00000000000E+00 0. -1.
<mgrwt>
<rscale>  0 0.38175033E+03</rscale>
<asrwt>0</asrwt>
<pdfrwt beam="2">  1        1 0.35485326E-01 0.38175033E+03</pdfrwt>
<pdfrwt beam="1">  1       -1 0.24300955E-01 0.38175033E+03</pdfrwt>
<totfact> 0.17945970E+03</totfact>
</mgrwt>
</event>
<event>
 6    1  0.4705246E-006  0.1663179E+03  0.7546771E-02  0.1189095E+00
         -1   -1    0    0    0  501 -0.00000000000E+00  0.00000000000E+00  0.65163969490E+02  0.65163969490E+02  0.00000000000E+00 0.  1.
          1   -1    0    0  501    0  0.00000000000E+00 -0.00000000000E+00 -0.36451755591E+03  0.36451755591E+03  0.00000000000E+00 0. -1.
          5    1    1    2  502    0 -0.22571190535E+02 -0.29475800391E+02 -0.33349867488E+02  0.50125693136E+02  0.47000000000E+01 0.  1.
         -5    1    1    2    0  502 -0.32777554265E+02  0.12419931602E+03 -0.14315759722E+03  0.19239549321E+03  0.47000000000E+01 0.  1.
        -11    1    1    2    0    0  0.22790693235E+02  0.71905741499E+01  0.46869400506E+00  0.23902713838E+02  0.00000000000E+00 0.  1.
         11    1    1    2    0    0  0.32558051565E+02 -0.10191408978E+03 -0.12331481572E+03  0.16325762522E+03  0.00000000000E+00 0. -1.
<mgrwt>
<rscale>  0 0.15964817E+03</rscale>
<asrwt>0</asrwt>
<pdfrwt beam="2">  1        1 0.56079624E-01 0.16631789E+03</pdfrwt>
<pdfrwt beam="1">  1       -1 0.10025226E-01 0.16631789E+03</pdfrwt>
<totfact> 0.40414536E+03</totfact>
</mgrwt>
</event>
<event>
 6    1  0.4705246E-006  0.1424159E+03  0.7546771E-02  0.1220904E+00
         -4   -1    0    0    0  501 -0.00000000000E+00  0.00000000000E+00  0.70014752071E+03  0.70014752071E+03  0.00000000000E+00 0.  1.
          4   -1    0    0  501    0  0.00000000000E+00 -0.00000000000E+00 -0.23358417796E+02  0.23358417796E+02  0.00000000000E+00 0. -1.
          5    1    1    2  502    0 -0.19188489201E+01 -0.66839953834E+02  0.30109786097E+03  0.30846924205E+03  0.47000000000E+01 0. -1.
         -5    1    1    2    0  502 -0.50706581601E+02  0.23400899453E+02  0.74528269614E+02  0.93248659425E+02  0.47000000000E+01 0. -1.
        -11    1    1    2    0    0  0.37549077552E+02  0.70866615504E+02  0.24062127259E+03  0.25363479107E+03  0.00000000000E+00 0.  1.
         11    1    1    2    0    0  0.15076352969E+02 -0.27427561122E+02  0.60541699749E+02  0.68153245972E+02  0.00000000000E+00 0. -1.
<mgrwt>
<rscale>  0 0.13451631E+03</rscale>
<asrwt>0</asrwt>
<pdfrwt beam="2">  1        4 0.35936033E-02 0.14241588E+03</pdfrwt>
<pdfrwt beam="1">  1       -4 0.10771499E+00 0.14241588E+03</pdfrwt>
<totfact> 0.48879159E+02</totfact>
</mgrwt>
</event>
<event>
 6    1  0.5944606E-006  0.1867295E+03  0.7546771E-02  0.1166264E+00
         -1   -1    0    0    0  501 -0.00000000000E+00  0.00000000000E+00  0.12871334693E+03  0.12871334693E+03  0.00000000000E+00 0.  1.
          1   -1    0    0  501    0  0.00000000000E+00 -0.00000000000E+00 -0.25313409043E+03  0.25313409043E+03  0.00000000000E+00 0. -1.
          5    1    1    2  502    0  0.34358626943E+02  0.21252231752E+01 -0.92795154619E+02  0.99086136970E+02  0.47000000000E+01 0. -1.
         -5    1    1    2    0  502  0.79316814934E+02 -0.81631971795E+02 -0.10729563850E+02  0.11442093117E+03  0.47000000000E+01 0. -1.
        -11    1    1    2    0    0 -0.91915968535E+02  0.93064015540E+02  0.63135615968E+01  0.13095540203E+03  0.00000000000E+00 0.  1.
         11    1    1    2    0    0 -0.21759473341E+02 -0.13557266920E+02 -0.27209586629E+02  0.37384967179E+02  0.00000000000E+00 0. -1.
<mgrwt>
<rscale>  0 0.18159913E+03</rscale>
<asrwt>0</asrwt>
<pdfrwt beam="2">  1        1 0.38943706E-01 0.18672949E+03</pdfrwt>
<pdfrwt beam="1">  1       -1 0.19802053E-01 0.18672949E+03</pdfrwt>
<totfact> 0.21971363E+03</totfact>
</mgrwt>
</event>
<event>
 6    1  0.4705246E-006  0.1376725E+03  0.7546771E-02  0.1227420E+00
         -4   -1    0    0    0  501 -0.00000000000E+00  0.00000000000E+00  0.10351930975E+03  0.10351930975E+03  0.00000000000E+00 0.  1.
          4   -1    0    0  501    0  0.00000000000E+00 -0.00000000000E+00 -0.15423005205E+03  0.15423005205E+03  0.00000000000E+00 0. -1.
          5    1    1    2  502    0 -0.29111657019E+02 -0.57745211387E+02 -0.49108703226E+02  0.81337277708E+02  0.47000000000E+01 0. -1.
         -5    1    1    2    0  502  0.65176011750E+02  0.12709851925E+02 -0.55925203432E+01  0.66804334645E+02  0.47000000000E+01 0. -1.
        -11    1    1    2    0    0 -0.22484599223E+02  0.33438017153E+02 -0.43245582553E+02  0.59108701590E+02  0.00000000000E+00 0. -1.
         11    1    1    2    0    0 -0.13579755508E+02  0.11597342308E+02  0.47236063827E+02  0.50499047854E+02  0.00000000000E+00 0.  1.
<mgrwt>
<rscale>  0 0.13002405E+03</rscale>
<asrwt>0</asrwt>
<pdfrwt beam="2">  1        4 0.23727700E-01 0.13767249E+03</pdfrwt>
<pdfrwt beam="1">  1       -4 0.15926048E-01 0.13767249E+03</pdfrwt>
<totfact> 0.92720201E+02</totfact>
</mgrwt>
</event>
<event>
 6    1  0.4705246E-006  0.1314531E+03  0.7546771E-02  0.1239321E+00
          1   -1    0    0  501    0  0.00000000000E+00  0.00000000000E+00  0.63254102675E+03  0.63254102675E+03  0.00000000000E+00 0. -1.
         -1   -1    0    0    0  501 -0.00000000000E+00 -0.00000000000E+00 -0.35676859339E+02  0.35676859339E+02  0.00000000000E+00 0.  1.
          5    1    1    2  502    0 -0.43565133864E+02 -0.11318133699E+02  0.31671556719E+03  0.31993258906E+03  0.47000000000E+01 0. -1.
         -5    1    1    2    0  502  0.56815300145E+02  0.49790860308E+02  0.22040809725E+03  0.23304275882E+03  0.47000000000E+01 0. -1.
        -11    1    1    2    0    0  0.31792053767E+02 -0.40401323025E+02  0.20064995826E+02  0.55187006101E+02  0.00000000000E+00 0.  1.
         11    1    1    2    0    0 -0.45042220048E+02  0.19285964154E+01  0.39675507138E+02  0.60055532115E+02  0.00000000000E+00 0. -1.
<mgrwt>
<rscale>  0 0.12231821E+03</rscale>
<asrwt>0</asrwt>
<pdfrwt beam="1">  1        1 0.97313996E-01 0.13145305E+03</pdfrwt>
<pdfrwt beam="2">  1       -1 0.54887481E-02 0.13145305E+03</pdfrwt>
<totfact> 0.48258440E+03</totfact>
</mgrwt>
</event>
<event>
 6    1  0.4705246E-006  0.1578715E+03  0.7546771E-02  0.1199240E+00
          2   -1    0    0  501    0  0.00000000000E+00  0.00000000000E+00  0.11181639564E+04  0.11181639564E+04  0.00000000000E+00 0. -1.
         -2   -1    0    0    0  501 -0.00000000000E+00 -0.00000000000E+00 -0.20333957326E+02  0.20333957326E+02  0.00000000000E+00 0.  1.
          5    1    1    2  502    0  0.40370763695E+01 -0.69274687994E+02  0.28142299648E+03  0.28989010561E+03  0.47000000000E+01 0. -1.
         -5    1    1    2    0  502  0.82465498390E+02  0.26670450767E+02  0.46794596113E+03  0.47592791882E+03  0.47000000000E+01 0. -1.
        -11    1    1    2    0    0 -0.60942990584E+02  0.56173607107E+00  0.84576339611E+02  0.10424740223E+03  0.00000000000E+00 0.  1.
         11    1    1    2    0    0 -0.25559584176E+02  0.42042501157E+02  0.26388470183E+03  0.26843248706E+03  0.00000000000E+00 0. -1.
<mgrwt>
<rscale>  0 0.15100785E+03</rscale>
<asrwt>0</asrwt>
<pdfrwt beam="1">  1        2 0.17202518E+00 0.15787150E+03</pdfrwt>
<pdfrwt beam="2">  1       -2 0.31283020E-02 0.15787150E+03</pdfrwt>
<totfact> 0.86582126E+03</totfact>
</mgrwt>
</event>
<event>
 6    1  0.4705246E-006  0.2176192E+03  0.7546771E-02  0.1139478E+00
          2   -1    0    0  501    0  0.00000000000E+00  0.00000000000E+00  0.11646219189E+04  0.11646219189E+04  0.00000000000E+00 0. -1.
         -2   -1    0    0    0  501 -0.00000000000E+00 -0.00000000000E+00 -0.37179626308E+02  0.37179626308E+02  0.00000000000E+00 0.  1.
          5    1    1    2  502    0  0.12695180334E+03 -0.50793127505E+02  0.52336898066E+03  0.54095645120E+03  0.47000000000E+01 0.  1.
         -5    1    1    2    0  502  0.20888710223E+02 -0.48587958095E+02  0.52540478557E+02  0.74697521871E+02  0.47000000000E+01 0.  1.
        -11    1    1    2    0    0 -0.17863803487E+01 -0.11633762425E+02  0.67421995840E+02  0.68441662063E+02  0.00000000000E+00 0. -1.
         11    1    1    2    0    0 -0.14605413321E+03  0.11101484803E+03  0.48411083752E+03  0.51770591007E+03  0.00000000000E+00 0.  1.
<mgrwt>
<rscale>  0 0.21265865E+03</rscale>
<asrwt>0</asrwt>
<pdfrwt beam="1">  1        2 0.17917257E+00 0.21761918E+03</pdfrwt>
<pdfrwt beam="2">  1       -2 0.57199434E-02 0.21761918E+03</pdfrwt>
<totfact> 0.33221041E+03</totfact>
</mgrwt>
</event>
<event>
 6    1  0.4705246E-006  0.1254272E+03  0.7546771E-02  0.1249598E+00
         -2   -1    0    0    0  501 -0.00000000000E+00  0.00000000000E+00  0.15346556829E+03  0.15346556829E+03  0.00000000000E+00 0.  1.
          2   -1    0    0  501    0  0.00000000000E+00 -0.00000000000E+00 -0.21098048559E+03  0.21098048559E+03  0.00000000000E+00 0. -1.
          5    1    1    2  502    0  0.43317526034E+02 -0.59643707147E+01 -0.14981171681E+03  0.15613334773E+03  0.47000000000E+01 0.  1.
         -5    1    1    2    0  502 -0.52041789485E+02  0.11421513158E+02 -0.25054229543E+02  0.59064399037E+02  0.47000000000E+01 0.  1.
        -11    1    1    2    0    0 -0.70667140703E+01 -0.44235551826E+02  0.34941978735E+02  0.56812537094E+02  0.00000000000E+00 0.  1.
         11    1    1    2    0    0  0.15790977521E+02  0.38778409382E+02  0.82409050319E+02  0.92435770023E+02  0.00000000000E+00 0. -1.
<mgrwt>
<rscale>  0 0.11614359E+03</rscale>
<asrwt>0</asrwt>
<pdfrwt beam="2">  1        2 0.32458536E-01 0.12542715E+03</pdfrwt>
<pdfrwt beam="1">  1       -2 0.23610087E-01 0.12542715E+03</pdfrwt>
<totfact> 0.24445946E+03</totfact>
</mgrwt>
</event>
<event>
 6    1  0.4705246E-006  0.2767229E+03  0.7546771E-02  0.1147004E+00
         -1   -1    0    0    0  501 -0.00000000000E+00  0.00000000000E+00  0.74931882569E+02  0.74931882569E+02  0.00000000000E+00 0.  1.
          1   -1    0    0  501    0  0.00000000000E+00 -0.00000000000E+00 -0.63270616305E+03  0.63270616305E+03  0.00000000000E+00 0. -1.
          5    1    1    2  502    0 -0.64647124164E+02 -0.41441647384E+02 -0.21393811150E+02  0.79852651528E+02  0.47000000000E+01 0. -1.
         -5    1    1    2    0  502  0.64613733318E+02  0.47378029596E+02 -0.54114750483E+03  0.54706701985E+03  0.47000000000E+01 0.  1.
        -11    1    1    2    0    0  0.24861980681E+02 -0.18139012120E+02  0.30215181351E+02  0.43128865371E+02  0.00000000000E+00 0.  1.
         11    1    1    2    0    0 -0.24828589835E+02  0.12202629908E+02 -0.25448145849E+02  0.37589508869E+02  0.00000000000E+00 0. -1.
<mgrwt>
<rscale>  0 0.20327652E+03</rscale>
<asrwt>0</asrwt>
<pdfrwt beam="2">  1        1 0.97339408E-01 0.27672286E+03</pdfrwt>
<pdfrwt beam="1">  1       -1 0.11527982E-01 0.27672286E+03</pdfrwt>
<totfact> 0.15918755E+03</totfact>
</mgrwt>
</event>
<event>
 6    1  0.4705246E-006  0.1375814E+03  0.7546771E-02  0.1228811E+00
          1   -1    0    0  501    0  0.00000000000E+00  0.00000000000E+00  0.42728814856E+03  0.42728814856E+03  0.00000000000E+00 0. -1.
         -1   -1    0    0    0  501 -0.00000000000E+00 -0.00000000000E+00 -0.40649216658E+02  0.40649216658E+02  0.00000000000E+00 0.  1.
          5    1    1    2  502    0  0.11261381569E+02  0.27358794276E+02  0.29077053903E+03  0.29230962815E+03  0.47000000000E+01 0.  1.
         -5    1    1    2    0  502 -0.23897118671E+02  0.28868176553E+02  0.10991671186E+02  0.39336379265E+02  0.47000000000E+01 0.  1.
        -11    1    1    2    0    0  0.88261106278E+01  0.55486191188E+01 -0.15313505071E+02  0.18525410670E+02  0.00000000000E+00 0.  1.
         11    1    1    2    0    0  0.38096264741E+01 -0.61775589947E+02  0.10019022675E+03  0.11776594713E+03  0.00000000000E+00 0. -1.
<mgrwt>
<rscale>  0 0.12909100E+03</rscale>
<asrwt>0</asrwt>
<pdfrwt beam="1">  1        1 0.65736635E-01 0.13758140E+03</pdfrwt>
<pdfrwt beam="2">  1       -1 0.62537259E-02 0.13758140E+03</pdfrwt>
<totfact> 0.66817440E+03</totfact>
</mgrwt>
</event>
<event>
 6    1  0.4705246E-006  0.1376513E+03  0.7546771E-02  0.1227298E+00
          2   -1    0    0  501    0  0.00000000000E+00  0.00000000000E+00  0.11700046792E+04  0.11700046792E+04  0.00000000000E+00 0. -1.
         -2   -1    0    0    0  501 -0.00000000000E+00 -0.00000000000E+00 -0.49284875335E+02  0.49284875335E+02  0.00000000000E+00 0.  1.
          5    1    1    2  502    0  0.41672819237E+02 -0.72605987248E+01  0.53718590089E+03  0.53886929980E+03  0.47000000000E+01 0.  1.
         -5    1    1    2    0  502 -0.64473151554E+02  0.60199921888E+02  0.56145469061E+03  0.56836104500E+03  0.47000000000E+01 0.  1.
        -11    1    1    2    0    0 -0.35136944314E+02 -0.90609957534E+01  0.14160034048E+02  0.38951419281E+02  0.00000000000E+00 0. -1.
         11    1    1    2    0    0  0.57937276632E+02 -0.43878327410E+02  0.79191783235E+01  0.73107790455E+02  0.00000000000E+00 0.  1.
<mgrwt>
<rscale>  0 0.13010611E+03</rscale>
<asrwt>0</asrwt>
<pdfrwt beam="1">  1        2 0.18000070E+00 0.13765132E+03</pdfrwt>
<pdfrwt beam="2">  1       -2 0.75822894E-02 0.13765132E+03</pdfrwt>
<totfact> 0.21278793E+03</totfact>
</mgrwt>
</event>
<event>
 6    1  0.4705246E-006  0.1401745E+03  0.7546771E-02  0.1224078E+00
         -2   -1    0    0    0  501 -0.00000000000E+00  0.00000000000E+00  0.10886264782E+03  0.10886264782E+03  0.00000000000E+00 0. -1.
          2   -1    0    0  501    0  0.00000000000E+00 -0.00000000000E+00 -0.15238222946E+03  0.15238222946E+03  0.00000000000E+00 0.  1.
          5    1    1    2  502    0  0.57857666768E+02 -0.15182479928E+02  0.23513752577E+01  0.60046950515E+02  0.47000000000E+01 0. -1.
         -5    1    1    2    0  502 -0.21747673541E+02  0.67346522187E+02 -0.54753727225E+02  0.89602321399E+02  0.47000000000E+01 0. -1.
        -11    1    1    2    0    0 -0.52070464501E+02 -0.69885036686E+02  0.39392093471E+01  0.87239721436E+02  0.00000000000E+00 0.  1.
         11    1    1    2    0    0  0.15960471274E+02  0.17720994427E+02  0.49435609725E+01  0.24355883927E+02  0.00000000000E+00 0. -1.
<mgrwt>
<rscale>  0 0.13230265E+03</rscale>
<asrwt>0</asrwt>
<pdfrwt beam="2">  1        2 0.23443420E-01 0.14017453E+03</pdfrwt>
<pdfrwt beam="1">  1       -2 0.16748100E-01 0.14017453E+03</pdfrwt>
<totfact> 0.62706105E+03</totfact>
</mgrwt>
</event>
<event>
 6    1  0.4705246E-006  0.1365687E+03  0.7546771E-02  0.1225112E+00
         -3   -1    0    0    0  501 -0.00000000000E+00  0.00000000000E+00  0.12480842778E+03  0.12480842778E+03  0.00000000000E+00 0.  1.
          3   -1    0    0  501    0  0.00000000000E+00 -0.00000000000E+00 -0.25932698770E+03  0.25932698770E+03  0.00000000000E+00 0. -1.
          5    1    1    2  502    0 -0.93825442282E+02  0.14678155476E+02 -0.10271888018E+03  0.13997114064E+03  0.47000000000E+01 0. -1.
         -5    1    1    2    0  502  0.20348496579E+02 -0.20031819259E+02 -0.10272620962E+03  0.10672440789E+03  0.47000000000E+01 0.  1.
        -11    1    1    2    0    0 -0.18550404214E+02  0.45731902466E+01  0.32519162052E+02  0.37716408446E+02  0.00000000000E+00 0.  1.
         11    1    1    2    0    0  0.92027349916E+02  0.78047353635E+00  0.38407367838E+02  0.99723458503E+02  0.00000000000E+00 0. -1.
<mgrwt>
<rscale>  0 0.13159228E+03</rscale>
<asrwt>0</asrwt>
<pdfrwt beam="2">  1        3 0.39896460E-01 0.13656870E+03</pdfrwt>
<pdfrwt beam="1">  1       -3 0.19201297E-01 0.13656870E+03</pdfrwt>
<totfact> 0.35067414E+02</totfact>
</mgrwt>
</event>
<event>
 6    1  0.4705246E-006  0.1595231E+03  0.7546771E-02  0.1230534E+00
         -2   -1    0    0    0  501 -0.00000000000E+00  0.00000000000E+00  0.13316301713E+02  0.13316301713E+02  0.00000000000E+00 0.  1.
          2   -1    0    0  501    0  0.00000000000E+00 -0.00000000000E+00 -0.24455044621E+04  0.24455044621E+04  0.00000000000E+00 0. -1.
          5    1    1    2  502    0  0.27571737226E+02 -0.56125072324E+02 -0.23101215899E+04  0.23109725387E+04  0.47000000000E+01 0. -1.
         -5    1    1    2    0  502 -0.15048014930E+02 -0.67985745495E+01 -0.29886411187E+02  0.34466664227E+02  0.47000000000E+01 0.  1.
        -11    1    1    2    0    0 -0.12784251473E+02  0.27090504062E+02 -0.37321049258E+02  0.47855963200E+02  0.00000000000E+00 0.  1.
         11    1    1    2    0    0  0.26052917724E+00  0.35833142812E+02 -0.54859110026E+02  0.65525597686E+02  0.00000000000E+00 0. -1.
<mgrwt>
<rscale>  0 0.12794726E+03</rscale>
<asrwt>0</asrwt>
<pdfrwt beam="2">  1        2 0.37623144E+00 0.15952307E+03</pdfrwt>
<pdfrwt beam="1">  1       -2 0.20486619E-02 0.15952307E+03</pdfrwt>
<totfact> 0.32237046E+03</totfact>
</mgrwt>
</event>
<event>
 6    1  0.4705246E-006  0.1497923E+03  0.7546771E-02  0.1209791E+00
         -2   -1    0    0    0  501 -0.00000000000E+00  0.00000000000E+00  0.40475726534E+02  0.40475726534E+02  0.00000000000E+00 0.  1.
          2   -1    0    0  501    0  0.00000000000E+00 -0.00000000000E+00 -0.50115635876E+03  0.50115635876E+03  0.00000000000E+00 0. -1.
          5    1    1    2  502    0 -0.80534856357E+02  0.35256245098E+02 -0.22478995902E+03  0.24141557858E+03  0.47000000000E+01 0. -1.
         -5    1    1    2    0  502  0.15921673443E+01 -0.59346184596E+02 -0.10296935141E+03  0.11895075431E+03  0.47000000000E+01 0. -1.
        -11    1    1    2    0    0  0.18437365661E+02  0.22550373429E+02  0.59932605997E+01  0.29738442577E+02  0.00000000000E+00 0.  1.
         11    1    1    2    0    0  0.60505323352E+02  0.15395660683E+01 -0.13891458240E+03  0.15152730982E+03  0.00000000000E+00 0. -1.
<mgrwt>
<rscale>  0 0.14266220E+03</rscale>
<asrwt>0</asrwt>
<pdfrwt beam="2">  1        2 0.77100984E-01 0.14979228E+03</pdfrwt>
<pdfrwt beam="1">  1       -2 0.62270344E-02 0.14979228E+03</pdfrwt>
<totfact> 0.83415014E+03</totfact>
</mgrwt>
</event>
<event>
 6    1  0.4705246E-006  0.1562937E+03  0.7546771E-02  0.1200434E+00
         -1   -1    0    0    0  501 -0.00000000000E+00  0.00000000000E+00  0.73585286775E+02  0.73585286775E+02  0.00000000000E+00 0.  1.
          1   -1    0    0  501    0  0.00000000000E+00 -0.00000000000E+00 -0.28770843094E+03  0.28770843094E+03  0.00000000000E+00 0. -1.
          5    1    1    2  502    0  0.22323119039E+02  0.38581100442E+02 -0.21076197852E+02  0.49528972035E+02  0.47000000000E+01 0.  1.
         -5    1    1    2    0  502  0.53892097820E+02 -0.93288882756E+02 -0.11567419786E+03  0.15814481940E+03  0.47000000000E+01 0.  1.
        -11    1    1    2    0    0 -0.72784336010E+02  0.78716931243E+02 -0.70848846438E+02  0.12850476207E+03  0.00000000000E+00 0. -1.
         11    1    1    2    0    0 -0.34308808493E+01 -0.24009148929E+02 -0.65239020143E+01  0.25115164208E+02  0.00000000000E+00 0.  1.
<mgrwt>
<rscale>  0 0.15003201E+03</rscale>
<asrwt>0</asrwt>
<pdfrwt beam="2">  1        1 0.44262836E-01 0.15629374E+03</pdfrwt>
<pdfrwt beam="1">  1       -1 0.11320813E-01 0.15629374E+03</pdfrwt>
<totfact> 0.44916345E+03</totfact>
</mgrwt>
</event>
<event>
 6    1  0.4705246E-006  0.1778570E+03  0.7546771E-02  0.1197075E+00
         -2   -1    0    0    0  501 -0.00000000000E+00  0.00000000000E+00  0.11456208083E+02  0.11456208083E+02  0.00000000000E+00 0.  1.
          2   -1    0    0  501    0  0.00000000000E+00 -0.00000000000E+00 -0.17555943117E+04  0.17555943117E+04  0.00000000000E+00 0. -1.
          5    1    1    2  502    0  0.71044426098E+02  0.27916223610E+02 -0.54916677932E+03  0.55446629071E+03  0.47000000000E+01 0. -1.
         -5    1    1    2    0  502 -0.88065956926E+02 -0.49831828358E+02 -0.77440330588E+03  0.78100025227E+03  0.47000000000E+01 0.  1.
        -11    1    1    2    0    0 -0.18334338019E+01 -0.35909449056E+02 -0.16632636080E+03  0.17016847037E+03  0.00000000000E+00 0.  1.
         11    1    1    2    0    0  0.18854964631E+02  0.57825053804E+02 -0.25424165762E+03  0.26141550644E+03  0.00000000000E+00 0. -1.
<mgrwt>
<rscale>  0 0.15279905E+03</rscale>
<asrwt>0</asrwt>
<pdfrwt beam="2">  1        2 0.27009124E+00 0.17785701E+03</pdfrwt>
<pdfrwt beam="1">  1       -2 0.17624948E-02 0.17785701E+03</pdfrwt>
<totfact> 0.91974955E+03</totfact>
</mgrwt>
</event>
<event>
 6    1  0.4705246E-006  0.1747074E+03  0.7546771E-02  0.1179626E+00
         -3   -1    0    0    0  501 -0.00000000000E+00  0.00000000000E+00  0.24638050893E+03  0.24638050893E+03  0.00000000000E+00 0.  1.
          3   -1    0    0  501    0  0.00000000000E+00 -0.00000000000E+00 -0.12317581191E+03  0.12317581191E+03  0.00000000000E+00 0. -1.
          5    1    1    2  502    0 -0.40531714204E+02  0.69188871153E+02  0.20753992615E+02  0.82962268274E+02  0.47000000000E+01 0.  1.
         -5    1    1    2    0  502  0.75179931117E+02  0.47833502898E+02 -0.21335171309E+02  0.91746092980E+02  0.47000000000E+01 0.  1.
        -11    1    1    2    0    0 -0.57191631917E+02 -0.94926130862E+02  0.11952154246E+03  0.16299463854E+03  0.00000000000E+00 0.  1.
         11    1    1    2    0    0  0.22543415004E+02 -0.22096243188E+02  0.42643332557E+01  0.31853321039E+02  0.00000000000E+00 0. -1.
<mgrwt>
<rscale>  0 0.16830604E+03</rscale>
<asrwt>0</asrwt>
<pdfrwt beam="2">  1        3 0.18950125E-01 0.17470739E+03</pdfrwt>
<pdfrwt beam="1">  1       -3 0.37904694E-01 0.17470739E+03</pdfrwt>
<totfact> 0.40868308E+02</totfact>
</mgrwt>
</event>
<event>
 6    1  0.4705246E-006  0.1332606E+03  0.7546771E-02  0.1235043E+00
         -2   -1    0    0    0  501 -0.00000000000E+00  0.00000000000E+00  0.28281283664E+02  0.28281283664E+02  0.00000000000E+00 0.  1.
          2   -1    0    0  501    0  0.00000000000E+00 -0.00000000000E+00 -0.49448893335E+03  0.49448893335E+03  0.00000000000E+00 0. -1.
          5    1    1    2  502    0  0.10261934933E+02  0.42810785780E+02 -0.35224183498E+02  0.56576530388E+02  0.47000000000E+01 0.  1.
         -5    1    1    2    0  502  0.30891421206E+02 -0.63635566074E+02 -0.22312850609E+03  0.23412002350E+03  0.47000000000E+01 0.  1.
        -11    1    1    2    0    0 -0.70035160556E+02  0.18714238605E+02 -0.12761033862E+03  0.14676356824E+03  0.00000000000E+00 0. -1.
         11    1    1    2    0    0  0.28881804417E+02  0.21105416883E+01 -0.80244621480E+02  0.85310094884E+02  0.00000000000E+00 0.  1.
<mgrwt>
<rscale>  0 0.12501664E+03</rscale>
<asrwt>0</asrwt>
<pdfrwt beam="2">  1        2 0.76075221E-01 0.13326055E+03</pdfrwt>
<pdfrwt beam="1">  1       -2 0.43509667E-02 0.13326055E+03</pdfrwt>
<totfact> 0.14408869E+04</totfact>
</mgrwt>
</event>
<event>
 6    1  0.4705246E-006  0.2115507E+03  0.7546771E-02  0.1144168E+00
         -1   -1    0    0    0  501 -0.00000000000E+00  0.00000000000E+00  0.49138594720E+02  0.49138594720E+02  0.00000000000E+00 0.  1.
          1   -1    0    0  501    0  0.00000000000E+00 -0.00000000000E+00 -0.83743926532E+03  0.83743926532E+03  0.00000000000E+00 0. -1.
          5    1    1    2  502    0  0.15513742583E+02 -0.83717139433E+02 -0.10165143424E+03  0.13268134657E+03  0.47000000000E+01 0.  1.
         -5    1    1    2    0  502  0.99441076277E+02 -0.42444295303E+02 -0.34421748995E+03  0.36082934504E+03  0.47000000000E+01 0.  1.
        -11    1    1    2    0    0 -0.61093335447E+02  0.12313173187E+03 -0.22206321695E+03  0.26116257648E+03  0.00000000000E+00 0.  1.
         11    1    1    2    0    0 -0.53861483413E+02  0.30297028663E+01 -0.12036852945E+03  0.13190459195E+03  0.00000000000E+00 0. -1.
<mgrwt>
<rscale>  0 0.20674758E+03</rscale>
<asrwt>0</asrwt>
<pdfrwt beam="2">  1        1 0.12883679E+00 0.21155072E+03</pdfrwt>
<pdfrwt beam="1">  1       -1 0.75597849E-02 0.21155072E+03</pdfrwt>
<totfact> 0.20069371E+03</totfact>
</mgrwt>
</event>
<event>
 6    1  0.4705246E-006  0.1348516E+03  0.7546771E-02  0.1233849E+00
          1   -1    0    0  501    0  0.00000000000E+00  0.00000000000E+00  0.22291091894E+03  0.22291091894E+03  0.00000000000E+00 0. -1.
         -1   -1    0    0    0  501 -0.00000000000E+00 -0.00000000000E+00 -0.10232164641E+03  0.10232164641E+03  0.00000000000E+00 0.  1.
          5    1    1    2  502    0 -0.53469007582E+02  0.13264900948E+02  0.35802786073E+02  0.65869734017E+02  0.47000000000E+01 0. -1.
         -5    1    1    2    0  502  0.35600776016E+02 -0.60605602467E+02  0.12989096700E+03  0.14776402678E+03  0.47000000000E+01 0. -1.
        -11    1    1    2    0    0 -0.61523244161E+01  0.62867576620E+02 -0.64262226432E+01  0.63493933752E+02  0.00000000000E+00 0.  1.
         11    1    1    2    0    0  0.24020555982E+02 -0.15526875101E+02 -0.38678257898E+02  0.48104870793E+02  0.00000000000E+00 0. -1.
<mgrwt>
<rscale>  0 0.12578388E+03</rscale>
<asrwt>0</asrwt>
<pdfrwt beam="1">  1        1 0.34293987E-01 0.13485164E+03</pdfrwt>
<pdfrwt beam="2">  1       -1 0.15741792E-01 0.13485164E+03</pdfrwt>
<totfact> 0.36601985E+03</totfact>
</mgrwt>
</event>
<event>
 6    1  0.4705246E-006  0.1279637E+03  0.7546771E-02  0.1245104E+00
          1   -1    0    0  501    0  0.00000000000E+00  0.00000000000E+00  0.90426887728E+02  0.90426887728E+02  0.00000000000E+00 0. -1.
         -1   -1    0    0    0  501 -0.00000000000E+00 -0.00000000000E+00 -0.15851257760E+03  0.15851257760E+03  0.00000000000E+00 0.  1.
          5    1    1    2  502    0 -0.39474808727E+02 -0.21164717955E+02 -0.47154755685E+02  0.65206340135E+02  0.47000000000E+01 0.  1.
         -5    1    1    2    0  502  0.32107239612E+02 -0.52082481437E+01  0.53657713319E+02  0.62922499020E+02  0.47000000000E+01 0.  1.
        -11    1    1    2    0    0 -0.62403987810E+01 -0.10992307916E+02  0.16870451333E+02  0.21080453943E+02  0.00000000000E+00 0. -1.
         11    1    1    2    0    0  0.13607967896E+02  0.37365274014E+02 -0.91459098844E+02  0.99730172233E+02  0.00000000000E+00 0.  1.
<mgrwt>
<rscale>  0 0.11879182E+03</rscale>
<asrwt>0</asrwt>
<pdfrwt beam="1">  1        1 0.13911829E-01 0.12796371E+03</pdfrwt>
<pdfrwt beam="2">  1       -1 0.24386550E-01 0.12796371E+03</pdfrwt>
<totfact> 0.56647108E+03</totfact>
</mgrwt>
</event>
<event>
 6    1  0.4705246E-006  0.1532762E+03  0.7546771E-02  0.1205493E+00
          2   -1    0    0  501    0  0.00000000000E+00  0.00000000000E+00  0.12036021986E+04  0.12036021986E+04  0.00000000000E+00 0.  1.
         -2   -1    0    0    0  501 -0.00000000000E+00 -0.00000000000E+00 -0.22565506620E+02  0.22565506620E+02  0.00000000000E+00 0. -1.
          5    1    1    2  502    0  0.43971605686E+02  0.86313555370E+02  0.44662451081E+03  0.45703290429E+03  0.47000000000E+01 0.  1.
         -5    1    1    2    0  502  0.26950775373E+02 -0.33030878366E+02  0.50922801754E+03  0.51103096488E+03  0.47000000000E+01 0.  1.
        -11    1    1    2    0    0  0.18785075487E+02 -0.18935217133E+02  0.27462003692E+02  0.38282935568E+02  0.00000000000E+00 0. -1.
         11    1    1    2    0    0 -0.89707456545E+02 -0.34347459871E+02  0.19772215996E+03  0.21982090051E+03  0.00000000000E+00 0.  1.
<mgrwt>
<rscale>  0 0.14598686E+03</rscale>
<asrwt>0</asrwt>
<pdfrwt beam="1">  1        2 0.18516952E+00 0.15327622E+03</pdfrwt>
<pdfrwt beam="2">  1       -2 0.34716173E-02 0.15327622E+03</pdfrwt>
<totfact> 0.66344933E+03</totfact>
</mgrwt>
</event>
<event>
 6    1  0.4705246E-006  0.1273048E+03  0.7546771E-02  0.1245964E+00
          4   -1    0    0  501    0  0.00000000000E+00  0.00000000000E+00  0.15618921044E+03  0.15618921044E+03  0.00000000000E+00 0.  1.
         -4   -1    0    0    0  501 -0.00000000000E+00 -0.00000000000E+00 -0.93857550907E+02  0.93857550907E+02  0.00000000000E+00 0. -1.
          5    1    1    2  502    0 -0.70228326452E+02  0.10153585820E+02  0.76054111138E+02  0.10412219246E+03  0.47000000000E+01 0.  1.
         -5    1    1    2    0  502  0.46180292985E+02 -0.11628225260E+02  0.82319652620E+01  0.48556053535E+02  0.47000000000E+01 0.  1.
        -11    1    1    2    0    0 -0.21535001904E+02  0.13654231271E+02  0.21402539203E+02  0.33290584599E+02  0.00000000000E+00 0.  1.
         11    1    1    2    0    0  0.45583035371E+02 -0.12179591831E+02 -0.43356956067E+02  0.64077930758E+02  0.00000000000E+00 0. -1.
<mgrwt>
<rscale>  0 0.11827843E+03</rscale>
<asrwt>0</asrwt>
<pdfrwt beam="1">  1        4 0.24029109E-01 0.12730477E+03</pdfrwt>
<pdfrwt beam="2">  1       -4 0.14439623E-01 0.12730477E+03</pdfrwt>
<totfact> 0.10574594E+03</totfact>
</mgrwt>
</event>
<event>
 6    1  0.4705246E-006  0.1309052E+03  0.7546771E-02  0.1238653E+00
         -2   -1    0    0    0  501 -0.00000000000E+00  0.00000000000E+00  0.18255367096E+02  0.18255367096E+02  0.00000000000E+00 0.  1.
          2   -1    0    0  501    0  0.00000000000E+00 -0.00000000000E+00 -0.14155197792E+04  0.14155197792E+04  0.00000000000E+00 0. -1.
          5    1    1    2  502    0 -0.36374307459E+01  0.32683700531E+02 -0.80241318216E+02  0.86845922943E+02  0.47000000000E+01 0. -1.
         -5    1    1    2    0  502 -0.24737149587E+02 -0.61497252085E+01 -0.11590747978E+04  0.11593645770E+04  0.47000000000E+01 0. -1.
        -11    1    1    2    0    0  0.15752902602E+02  0.24117531937E+02 -0.97018617172E+01  0.30396305827E+02  0.00000000000E+00 0.  1.
         11    1    1    2    0    0  0.12621677731E+02 -0.50651507260E+02 -0.14824643443E+03  0.15716834050E+03  0.00000000000E+00 0. -1.
<mgrwt>
<rscale>  0 0.12273465E+03</rscale>
<asrwt>0</asrwt>
<pdfrwt beam="2">  1        2 0.21777227E+00 0.13090521E+03</pdfrwt>
<pdfrwt beam="1">  1       -2 0.28085180E-02 0.13090521E+03</pdfrwt>
<totfact> 0.69277078E+03</totfact>
</mgrwt>
</event>
<event>
 6    1  0.4705246E-006  0.1406270E+03  0.7546771E-02  0.1223267E+00
          1   -1    0    0  501    0  0.00000000000E+00  0.00000000000E+00  0.57566222729E+03  0.57566222729E+03  0.00000000000E+00 0. -1.
         -1   -1    0    0    0  501 -0.00000000000E+00 -0.00000000000E+00 -0.31772070868E+02  0.31772070868E+02  0.00000000000E+00 0.  1.
          5    1    1    2  502    0  0.77779837674E+02  0.27962786060E+02  0.15640073565E+03  0.17696016689E+03  0.47000000000E+01 0. -1.
         -5    1    1    2    0  502 -0.33974198904E+02  0.19285506437E+02  0.25013685140E+03  0.25321277886E+03  0.47000000000E+01 0. -1.
        -11    1    1    2    0    0 -0.32506399979E+02  0.19551802864E+02  0.23044663875E+02  0.44384632115E+02  0.00000000000E+00 0.  1.
         11    1    1    2    0    0 -0.11299238790E+02 -0.66800095360E+02  0.11430790549E+03  0.13287672029E+03  0.00000000000E+00 0. -1.
<mgrwt>
<rscale>  0 0.13286401E+03</rscale>
<asrwt>0</asrwt>
<pdfrwt beam="1">  1        1 0.88563412E-01 0.14062700E+03</pdfrwt>
<pdfrwt beam="2">  1       -1 0.48880113E-02 0.14062700E+03</pdfrwt>
<totfact> 0.65382359E+03</totfact>
</mgrwt>
</event>
<event>
 6    1  0.4705246E-006  0.1353455E+03  0.7546771E-02  0.1233747E+00
          2   -1    0    0  501    0  0.00000000000E+00  0.00000000000E+00  0.11895210206E+03  0.11895210206E+03  0.00000000000E+00 0. -1.
         -2   -1    0    0    0  501 -0.00000000000E+00 -0.00000000000E+00 -0.12838373470E+03  0.12838373470E+03  0.00000000000E+00 0.  1.
          5    1    1    2  502    0 -0.71004713140E+02  0.52462983017E+01 -0.35220284923E+01  0.71440098115E+02  0.47000000000E+01 0. -1.
         -5    1    1    2    0  502  0.37103339387E+02 -0.44547657388E+02  0.33720943135E+02  0.67233500417E+02  0.47000000000E+01 0. -1.
        -11    1    1    2    0    0  0.34084891917E+02  0.54702315843E+02  0.17832036394E+01  0.64477151230E+02  0.00000000000E+00 0. -1.
         11    1    1    2    0    0 -0.18351816505E+00 -0.15400956756E+02 -0.41413750924E+02  0.44185087004E+02  0.00000000000E+00 0.  1.
<mgrwt>
<rscale>  0 0.12585018E+03</rscale>
<asrwt>0</asrwt>
<pdfrwt beam="1">  1        2 0.18300323E-01 0.13534546E+03</pdfrwt>
<pdfrwt beam="2">  1       -2 0.19751344E-01 0.13534546E+03</pdfrwt>
<totfact> 0.62763111E+03</totfact>
</mgrwt>
</event>
<event>
 6    1  0.4705246E-006  0.1651228E+03  0.7546771E-02  0.1202325E+00
         -1   -1    0    0    0  501 -0.00000000000E+00  0.00000000000E+00  0.11038620009E+03  0.11038620009E+03  0.00000000000E+00 0.  1.
          1   -1    0    0  501    0  0.00000000000E+00 -0.00000000000E+00 -0.17172701689E+03  0.17172701689E+03  0.00000000000E+00 0. -1.
          5    1    1    2  502    0 -0.17520404394E+02  0.60285682740E+01 -0.77279874469E+02  0.79608901535E+02  0.47000000000E+01 0. -1.
         -5    1    1    2    0  502  0.22821448873E+02  0.60235191366E+02  0.57783503094E+02  0.86660948745E+02  0.47000000000E+01 0.  1.
        -11    1    1    2    0    0  0.14532996015E+02 -0.28207512791E+02  0.22217146521E+02  0.38735943910E+02  0.00000000000E+00 0.  1.
         11    1    1    2    0    0 -0.19834040495E+02 -0.38056246848E+02 -0.64061591949E+02  0.77107422792E+02  0.00000000000E+00 0. -1.
<mgrwt>
<rscale>  0 0.14850235E+03</rscale>
<asrwt>0</asrwt>
<pdfrwt beam="2">  1        1 0.26419541E-01 0.16512285E+03</pdfrwt>
<pdfrwt beam="1">  1       -1 0.16982492E-01 0.16512285E+03</pdfrwt>
<totfact> 0.45436647E+03</totfact>
</mgrwt>
</event>
<event>
 6    1  0.4705246E-006  0.1598409E+03  0.7546771E-02  0.1196509E+00
         -2   -1    0    0    0  501 -0.00000000000E+00  0.00000000000E+00  0.27346804464E+02  0.27346804464E+02  0.00000000000E+00 0.  1.
          2   -1    0    0  501    0  0.00000000000E+00 -0.00000000000E+00 -0.79577388349E+03  0.79577388349E+03  0.00000000000E+00 0. -1.
          5    1    1    2  502    0 -0.48514535785E+02 -0.18623002744E+02 -0.19248226931E+03  0.19942916139E+03  0.47000000000E+01 0.  1.
         -5    1    1    2    0  502  0.64799840503E+02 -0.79657529663E+02 -0.21597061329E+03  0.23918557056E+03  0.47000000000E+01 0.  1.
        -11    1    1    2    0    0  0.14315783983E+02 -0.17911955753E+01 -0.64221605645E+01  0.15792219570E+02  0.00000000000E+00 0.  1.
         11    1    1    2    0    0 -0.30601088701E+02  0.10007172798E+03 -0.35355203586E+03  0.36871373643E+03  0.00000000000E+00 0. -1.
<mgrwt>
<rscale>  0 0.15327232E+03</rscale>
<asrwt>0</asrwt>
<pdfrwt beam="2">  1        2 0.12242675E+00 0.15984094E+03</pdfrwt>
<pdfrwt beam="1">  1       -2 0.42072007E-02 0.15984094E+03</pdfrwt>
<totfact> 0.88299485E+03</totfact>
</mgrwt>
</event>
<event>
 6    1  0.4705246E-006  0.1457541E+03  0.7546771E-02  0.1215720E+00
          1   -1    0    0  501    0  0.00000000000E+00  0.00000000000E+00  0.66175387338E+03  0.66175387338E+03  0.00000000000E+00 0. -1.
         -1   -1    0    0    0  501 -0.00000000000E+00 -0.00000000000E+00 -0.36940065302E+02  0.36940065302E+02  0.00000000000E+00 0.  1.
          5    1    1    2  502    0 -0.61390214130E+02  0.23231510243E+02  0.20693878417E+03  0.21715020574E+03  0.47000000000E+01 0.  1.
         -5    1    1    2    0  502  0.59528952858E+02  0.51698558600E+02  0.31593207675E+03  0.32565565297E+03  0.47000000000E+01 0.  1.
        -11    1    1    2    0    0 -0.15039831756E+02 -0.12713747426E+02  0.87671738043E+02  0.89856382992E+02  0.00000000000E+00 0. -1.
         11    1    1    2    0    0  0.16901093027E+02 -0.62216321417E+02  0.14271209107E+02  0.66031696976E+02  0.00000000000E+00 0.  1.
<mgrwt>
<rscale>  0 0.13823772E+03</rscale>
<asrwt>0</asrwt>
<pdfrwt beam="1">  1        1 0.10180828E+00 0.14575412E+03</pdfrwt>
<pdfrwt beam="2">  1       -1 0.56830874E-02 0.14575412E+03</pdfrwt>
<totfact> 0.43233173E+03</totfact>
</mgrwt>
</event>
<event>
 6    1  0.4705246E-006  0.1421962E+03  0.7546771E-02  0.1220973E+00
          1   -1    0    0  501    0  0.00000000000E+00  0.00000000000E+00  0.15050158485E+04  0.15050158485E+04  0.00000000000E+00 0. -1.
         -1   -1    0    0    0  501 -0.00000000000E+00 -0.00000000000E+00 -0.13005077985E+02  0.13005077985E+02  0.00000000000E+00 0.  1.
          5    1    1    2  502    0  0.29465238136E+02 -0.36307977182E+02  0.48902771089E+03  0.49128063414E+03  0.47000000000E+01 0. -1.
         -5    1    1    2    0  502 -0.91834202653E+02  0.97473611980E+01  0.63177274518E+03  0.63850405118E+03  0.47000000000E+01 0. -1.
        -11    1    1    2    0    0  0.22160938321E+01  0.98783957630E+01 -0.15880969490E+01  0.10247722998E+02  0.00000000000E+00 0.  1.
         11    1    1    2    0    0  0.60152870685E+02  0.16682220221E+02  0.37279841141E+03  0.37798851818E+03  0.00000000000E+00 0. -1.
<mgrwt>
<rscale>  0 0.13446743E+03</rscale>
<asrwt>0</asrwt>
<pdfrwt beam="1">  1        1 0.23154076E+00 0.14219625E+03</pdfrwt>
<pdfrwt beam="2">  1       -1 0.20007824E-02 0.14219625E+03</pdfrwt>
<totfact> 0.47954977E+03</totfact>
</mgrwt>
</event>
<event>
 6    1  0.4705246E-006  0.1541529E+03  0.7546771E-02  0.1203887E+00
         -1   -1    0    0    0  501 -0.00000000000E+00  0.00000000000E+00  0.16936281348E+03  0.16936281348E+03  0.00000000000E+00 0.  1.
          1   -1    0    0  501    0  0.00000000000E+00 -0.00000000000E+00 -0.15218013991E+03  0.15218013991E+03  0.00000000000E+00 0. -1.
          5    1    1    2  502    0  0.40998017442E+02 -0.49954519169E+02 -0.94346852659E+02  0.11445396466E+03  0.47000000000E+01 0. -1.
         -5    1    1    2    0  502  0.42777149989E+02  0.16488451408E+02  0.27392499289E+02  0.53611496979E+02  0.47000000000E+01 0. -1.
        -11    1    1    2    0    0 -0.22692021872E+02 -0.18090117064E+02  0.65149739096E+02  0.71320885414E+02  0.00000000000E+00 0.  1.
         11    1    1    2    0    0 -0.61083145559E+02  0.51556184824E+02  0.18987287843E+02  0.82156606336E+02  0.00000000000E+00 0. -1.
<mgrwt>
<rscale>  0 0.14725540E+03</rscale>
<asrwt>0</asrwt>
<pdfrwt beam="2">  1        1 0.23412329E-01 0.15415289E+03</pdfrwt>
<pdfrwt beam="1">  1       -1 0.26055817E-01 0.15415289E+03</pdfrwt>
<totfact> 0.26352697E+03</totfact>
</mgrwt>
</event>
<event>
 6    1  0.4705246E-006  0.3022856E+03  0.7546771E-02  0.1084104E+00
         -1   -1    0    0    0  501 -0.00000000000E+00  0.00000000000E+00  0.11649329693E+03  0.11649329693E+03  0.00000000000E+00 0.  1.
          1   -1    0    0  501    0  0.00000000000E+00 -0.00000000000E+00 -0.19609833625E+03  0.19609833625E+03  0.00000000000E+00 0. -1.
          5    1    1    2  502    0  0.22127069903E+02 -0.45229028075E+02 -0.16027398634E+03  0.16806282427E+03  0.47000000000E+01 0.  1.
         -5    1    1    2    0  502  0.25961150766E+01 -0.22664858258E+01  0.23854342178E+02  0.24555985263E+02  0.47000000000E+01 0.  1.
        -11    1    1    2    0    0 -0.44942302616E+02  0.16357084633E+02  0.66208563020E+02  0.81675814041E+02  0.00000000000E+00 0.  1.
         11    1    1    2    0    0  0.20219117637E+02  0.31138429267E+02 -0.93939581769E+01  0.38297009615E+02  0.00000000000E+00 0. -1.
<mgrwt>
<rscale>  0 0.30228557E+03</rscale>
<asrwt>0</asrwt>
<pdfrwt beam="2">  1        1 0.30168975E-01 0.30228557E+03</pdfrwt>
<pdfrwt beam="1">  1       -1 0.17922046E-01 0.30228557E+03</pdfrwt>
<totfact> 0.36208999E+03</totfact>
</mgrwt>
</event>
<event>
 6    1  0.4705246E-006  0.1346113E+03  0.7546771E-02  0.1233470E+00
         -2   -1    0    0    0  501 -0.00000000000E+00  0.00000000000E+00  0.22486536790E+02  0.22486536790E+02  0.00000000000E+00 0. -1.
          2   -1    0    0  501    0  0.00000000000E+00 -0.00000000000E+00 -0.70926316802E+03  0.70926316802E+03  0.00000000000E+00 0.  1.
          5    1    1    2  502    0  0.39228016580E+02  0.24706113836E+02 -0.20687953895E+03  0.21206240351E+03  0.47000000000E+01 0. -1.
         -5    1    1    2    0  502 -0.45114249495E+02 -0.74295995984E+02 -0.29787176541E+03  0.31033025820E+03  0.47000000000E+01 0. -1.
        -11    1    1    2    0    0  0.34525897982E+02  0.23367335363E+02 -0.27299714816E+02  0.49833165889E+02  0.00000000000E+00 0. -1.
         11    1    1    2    0    0 -0.28639665067E+02  0.26222546785E+02 -0.15472561205E+03  0.15952387721E+03  0.00000000000E+00 0.  1.
<mgrwt>
<rscale>  0 0.12602879E+03</rscale>
<asrwt>0</asrwt>
<pdfrwt beam="2">  1        2 0.10911742E+00 0.13461134E+03</pdfrwt>
<pdfrwt beam="1">  1       -2 0.34594669E-02 0.13461134E+03</pdfrwt>
<totfact> 0.13445219E+04</totfact>
</mgrwt>
</event>
<event>
 6    1  0.4705246E-006  0.1657040E+03  0.7546771E-02  0.1189552E+00
         -2   -1    0    0    0  501 -0.00000000000E+00  0.00000000000E+00  0.26782816552E+02  0.26782816552E+02  0.00000000000E+00 0.  1.
          2   -1    0    0  501    0  0.00000000000E+00 -0.00000000000E+00 -0.91141022611E+03  0.91141022611E+03  0.00000000000E+00 0. -1.
          5    1    1    2  502    0 -0.10443939685E+03  0.73852724112E+02 -0.35175169474E+03  0.37431692084E+03  0.47000000000E+01 0. -1.
         -5    1    1    2    0  502  0.23051790466E+02 -0.16996159742E+01 -0.21127368339E+03  0.21258629549E+03  0.47000000000E+01 0. -1.
        -11    1    1    2    0    0 -0.94671800199E+01 -0.25427149059E+02 -0.22589910400E+02  0.35305402684E+02  0.00000000000E+00 0.  1.
         11    1    1    2    0    0  0.90854786409E+02 -0.46725959079E+02 -0.29901212103E+03  0.31598442365E+03  0.00000000000E+00 0. -1.
<mgrwt>
<rscale>  0 0.15924474E+03</rscale>
<asrwt>0</asrwt>
<pdfrwt beam="2">  1        2 0.14021695E+00 0.16570398E+03</pdfrwt>
<pdfrwt beam="1">  1       -2 0.41204335E-02 0.16570398E+03</pdfrwt>
<totfact> 0.76643745E+03</totfact>
</mgrwt>
</event>
<event>
 6    1  0.4705246E-006  0.1360393E+03  0.7546771E-02  0.1230557E+00
         -1   -1    0    0    0  501 -0.00000000000E+00  0.00000000000E+00  0.11329138332E+02  0.11329138332E+02  0.00000000000E+00 0.  1.
          1   -1    0    0  501    0  0.00000000000E+00 -0.00000000000E+00 -0.13665694426E+04  0.13665694426E+04  0.00000000000E+00 0. -1.
          5    1    1    2  502    0  0.47002379751E+02 -0.40743350465E+01 -0.23756447361E+03  0.24224944382E+03  0.47000000000E+01 0. -1.
         -5    1    1    2    0  502 -0.74365676854E+02 -0.42114601729E+02 -0.67307057743E+03  0.67849096219E+03  0.47000000000E+01 0. -1.
        -11    1    1    2    0    0  0.59599613699E+02  0.14869135237E+02 -0.26135730058E+03  0.26847875838E+03  0.00000000000E+00 0.  1.
         11    1    1    2    0    0 -0.32236316596E+02  0.31319801539E+02 -0.18324795261E+03  0.18867941650E+03  0.00000000000E+00 0. -1.
<mgrwt>
<rscale>  0 0.12793166E+03</rscale>
<asrwt>0</asrwt>
<pdfrwt beam="2">  1        1 0.21024153E+00 0.13603933E+03</pdfrwt>
<pdfrwt beam="1">  1       -1 0.17429437E-02 0.13603933E+03</pdfrwt>
<totfact> 0.71959299E+03</totfact>
</mgrwt>
</event>
<event>
 6    1  0.4705246E-006  0.1996281E+03  0.7546771E-02  0.1165025E+00
          2   -1    0    0  501    0  0.00000000000E+00  0.00000000000E+00  0.84109123285E+02  0.84109123285E+02  0.00000000000E+00 0. -1.
         -2   -1    0    0    0  501 -0.00000000000E+00 -0.00000000000E+00 -0.34859629152E+03  0.34859629152E+03  0.00000000000E+00 0.  1.
          5    1    1    2  502    0  0.10842831892E+02  0.21963381740E+02  0.32381021495E+02  0.40872701085E+02  0.47000000000E+01 0. -1.
         -5    1    1    2    0  502 -0.10979043760E+03  0.20043445194E+02 -0.16331943397E+03  0.19786613504E+03  0.47000000000E+01 0.  1.
        -11    1    1    2    0    0  0.16307910659E+02  0.26841761931E+02 -0.18422258251E+02  0.36411642818E+02  0.00000000000E+00 0.  1.
         11    1    1    2    0    0  0.82639695046E+02 -0.68848588865E+02 -0.11512649750E+03  0.15755493586E+03  0.00000000000E+00 0. -1.
<mgrwt>
<rscale>  0 0.18290088E+03</rscale>
<asrwt>0</asrwt>
<pdfrwt beam="1">  1        2 0.12939865E-01 0.19962806E+03</pdfrwt>
<pdfrwt beam="2">  1       -2 0.53630198E-01 0.19962806E+03</pdfrwt>
<totfact> 0.15336275E+03</totfact>
</mgrwt>
</event>
<event>
 6    1  0.4705246E-006  0.1731336E+03  0.7546771E-02  0.1198075E+00
         -1   -1    0    0    0  501 -0.00000000000E+00  0.00000000000E+00  0.33469848158E+02  0.33469848158E+02  0.00000000000E+00 0.  1.
          1   -1    0    0  501    0  0.00000000000E+00 -0.00000000000E+00 -0.62627713812E+03  0.62627713812E+03  0.00000000000E+00 0. -1.
          5    1    1    2  502    0 -0.20373245255E+02  0.37073456255E+02 -0.39596946028E+03  0.39825044100E+03  0.47000000000E+01 0. -1.
         -5    1    1    2    0  502  0.65735533294E+02 -0.18760772426E+02 -0.66171660618E+02  0.95257050072E+02  0.47000000000E+01 0.  1.
        -11    1    1    2    0    0 -0.60885215595E+02 -0.10599762227E+02 -0.39288092976E+02  0.73231951272E+02  0.00000000000E+00 0.  1.
         11    1    1    2    0    0  0.15522927556E+02 -0.77129216022E+01 -0.91378076089E+02  0.93007543938E+02  0.00000000000E+00 0. -1.
<mgrwt>
<rscale>  0 0.15196858E+03</rscale>
<asrwt>0</asrwt>
<pdfrwt beam="2">  1        1 0.96350327E-01 0.17313356E+03</pdfrwt>
<pdfrwt beam="1">  1       -1 0.51492075E-02 0.17313356E+03</pdfrwt>
<totfact> 0.54499576E+03</totfact>
</mgrwt>
</event>
<event>
 6    1  0.4705246E-006  0.1271208E+03  0.7546771E-02  0.1243282E+00
         -2   -1    0    0    0  501 -0.00000000000E+00  0.00000000000E+00  0.65294873324E+02  0.65294873324E+02  0.00000000000E+00 0.  1.
          2   -1    0    0  501    0  0.00000000000E+00 -0.00000000000E+00 -0.20200623013E+03  0.20200623013E+03  0.00000000000E+00 0. -1.
          5    1    1    2  502    0 -0.14030294949E+02  0.62348804152E+02 -0.42029021643E+02  0.76633877729E+02  0.47000000000E+01 0. -1.
         -5    1    1    2    0  502 -0.90712045275E+01 -0.61914804452E+02 -0.51679821265E+02  0.81293441851E+02  0.47000000000E+01 0. -1.
        -11    1    1    2    0    0  0.45209958062E+02 -0.48846617645E+01  0.14401200122E+02  0.47699002018E+02  0.00000000000E+00 0.  1.
         11    1    1    2    0    0 -0.22108458586E+02  0.44506620644E+01 -0.57403714019E+02  0.61674781856E+02  0.00000000000E+00 0. -1.
<mgrwt>
<rscale>  0 0.11988769E+03</rscale>
<asrwt>0</asrwt>
<pdfrwt beam="2">  1        2 0.31077882E-01 0.12712077E+03</pdfrwt>
<pdfrwt beam="1">  1       -2 0.10045365E-01 0.12712077E+03</pdfrwt>
<totfact> 0.10413642E+04</totfact>
</mgrwt>
</event>
<event>
 6    1  0.4705246E-006  0.2667582E+03  0.7546771E-02  0.1127621E+00
         -2   -1    0    0    0  501 -0.00000000000E+00  0.00000000000E+00  0.23048626782E+02  0.23048626782E+02  0.00000000000E+00 0.  1.
          2   -1    0    0  501    0  0.00000000000E+00 -0.00000000000E+00 -0.18319537342E+04  0.18319537342E+04  0.00000000000E+00 0. -1.
          5    1    1    2  502    0  0.32204842806E+02 -0.11619519505E+02 -0.10476416394E+04  0.10482114576E+04  0.47000000000E+01 0. -1.
         -5    1    1    2    0  502  0.73722460749E+02 -0.32083758987E+02 -0.92171492840E+02  0.12240115564E+03  0.47000000000E+01 0.  1.
        -11    1    1    2    0    0  0.14778088896E+02 -0.18075316298E+01 -0.67530805242E+02  0.69152503488E+02  0.00000000000E+00 0. -1.
         11    1    1    2    0    0 -0.12070539245E+03  0.45510810121E+02 -0.60156116991E+03  0.61523724428E+03  0.00000000000E+00 0.  1.
<mgrwt>
<rscale>  0 0.22861165E+03</rscale>
<asrwt>0</asrwt>
<pdfrwt beam="2">  1        2 0.28183902E+00 0.26675816E+03</pdfrwt>
<pdfrwt beam="1">  1       -2 0.35459428E-02 0.26675816E+03</pdfrwt>
<totfact> 0.29995289E+03</totfact>
</mgrwt>
</event>
<event>
 6    1  0.4705246E-006  0.1639849E+03  0.7546771E-02  0.1191251E+00
         -1   -1    0    0    0  501 -0.00000000000E+00  0.00000000000E+00  0.19477825609E+03  0.19477825609E+03  0.00000000000E+00 0.  1.
          1   -1    0    0  501    0  0.00000000000E+00 -0.00000000000E+00 -0.12627953116E+03  0.12627953116E+03  0.00000000000E+00 0. -1.
          5    1    1    2  502    0  0.13806635965E+01  0.73212933896E+02  0.41429710078E+02  0.84264766058E+02  0.47000000000E+01 0.  1.
         -5    1    1    2    0  502  0.66291509165E+02  0.85440637415E+01 -0.43210871589E+02  0.79729760040E+02  0.47000000000E+01 0.  1.
        -11    1    1    2    0    0 -0.35209560384E+02 -0.65623770993E+02 -0.38208437695E+01  0.74570713480E+02  0.00000000000E+00 0. -1.
         11    1    1    2    0    0 -0.32462612377E+02 -0.16133226644E+02  0.74100730206E+02  0.82492547672E+02  0.00000000000E+00 0.  1.
<mgrwt>
<rscale>  0 0.15775844E+03</rscale>
<asrwt>0</asrwt>
<pdfrwt beam="2">  1        1 0.19427620E-01 0.16398485E+03</pdfrwt>
<pdfrwt beam="1">  1       -1 0.29965885E-01 0.16398485E+03</pdfrwt>
<totfact> 0.26518912E+03</totfact>
</mgrwt>
</event>
<event>
 6    1  0.4705246E-006  0.1309048E+03  0.7546771E-02  0.1238815E+00
          2   -1    0    0  501    0  0.00000000000E+00  0.00000000000E+00  0.82898177420E+03  0.82898177420E+03  0.00000000000E+00 0.  1.
         -2   -1    0    0    0  501 -0.00000000000E+00 -0.00000000000E+00 -0.18341807652E+02  0.18341807652E+02  0.00000000000E+00 0. -1.
          5    1    1    2  502    0 -0.28200078504E+02 -0.32427893358E+02  0.12033966498E+03  0.12786922094E+03  0.47000000000E+01 0.  1.
         -5    1    1    2    0  502  0.63584978933E+02  0.48316929604E+02  0.47532115825E+03  0.48200608784E+03  0.47000000000E+01 0.  1.
        -11    1    1    2    0    0 -0.51771331520E+02  0.19157150140E+02  0.81198279638E+02  0.98185680143E+02  0.00000000000E+00 0. -1.
         11    1    1    2    0    0  0.16386431091E+02 -0.35046186386E+02  0.13378086368E+03  0.13926259293E+03  0.00000000000E+00 0.  1.
<mgrwt>
<rscale>  0 0.12263337E+03</rscale>
<asrwt>0</asrwt>
<pdfrwt beam="1">  1        2 0.12753563E+00 0.13090484E+03</pdfrwt>
<pdfrwt beam="2">  1       -2 0.28218172E-02 0.13090484E+03</pdfrwt>
<totfact> 0.14961361E+04</totfact>
</mgrwt>
</event>
<event>
 6    1  0.4705246E-006  0.2352044E+03  0.7546771E-02  0.1125855E+00
         -2   -1    0    0    0  501 -0.00000000000E+00  0.00000000000E+00  0.10249559344E+03  0.10249559344E+03  0.00000000000E+00 0. -1.
          2   -1    0    0  501    0  0.00000000000E+00 -0.00000000000E+00 -0.50418168998E+03  0.50418168998E+03  0.00000000000E+00 0.  1.
          5    1    1    2  502    0 -0.33955191073E+02 -0.13776158661E+02 -0.44928260573E+02  0.58166795909E+02  0.47000000000E+01 0. -1.
         -5    1    1    2    0  502 -0.66927597108E+02  0.18558940138E+03 -0.17104424993E+03  0.26115312480E+03  0.47000000000E+01 0. -1.
        -11    1    1    2    0    0  0.46691573083E+02 -0.77342117368E+02 -0.25937748055E+02  0.93992940640E+02  0.00000000000E+00 0. -1.
         11    1    1    2    0    0  0.54191215097E+02 -0.94471125347E+02 -0.15977583799E+03  0.19336442207E+03  0.00000000000E+00 0.  1.
<mgrwt>
<rscale>  0 0.23111860E+03</rscale>
<asrwt>0</asrwt>
<pdfrwt beam="2">  1        2 0.77566414E-01 0.23520435E+03</pdfrwt>
<pdfrwt beam="1">  1       -2 0.15768553E-01 0.23520435E+03</pdfrwt>
<totfact> 0.19335993E+03</totfact>
</mgrwt>
</event>
<event>
 6    1  0.4705246E-006  0.1346835E+03  0.7546771E-02  0.1232663E+00
         -1   -1    0    0    0  501 -0.00000000000E+00  0.00000000000E+00  0.20658703396E+02  0.20658703396E+02  0.00000000000E+00 0.  1.
          1   -1    0    0  501    0  0.00000000000E+00 -0.00000000000E+00 -0.75500453337E+03  0.75500453337E+03  0.00000000000E+00 0. -1.
          5    1    1    2  502    0 -0.26191983547E+02 -0.16348989591E+00 -0.48506239478E+03  0.48579179034E+03  0.47000000000E+01 0.  1.
         -5    1    1    2    0  502 -0.98461554156E+01  0.34994307354E+02 -0.32437581040E+02  0.48947267415E+02  0.47000000000E+01 0.  1.
        -11    1    1    2    0    0  0.52916344894E+02 -0.25917583641E+02 -0.21358112621E+03  0.22155982978E+03  0.00000000000E+00 0. -1.
         11    1    1    2    0    0 -0.16878205931E+02 -0.89132338172E+01 -0.32647279404E+01  0.19364349229E+02  0.00000000000E+00 0.  1.
<mgrwt>
<rscale>  0 0.12655226E+03</rscale>
<asrwt>0</asrwt>
<pdfrwt beam="2">  1        1 0.11615453E+00 0.13468346E+03</pdfrwt>
<pdfrwt beam="1">  1       -1 0.31782625E-02 0.13468346E+03</pdfrwt>
<totfact> 0.83859560E+03</totfact>
</mgrwt>
</event>
<event>
 6    1  0.4705246E-006  0.1566364E+03  0.7546771E-02  0.1200818E+00
         -2   -1    0    0    0  501 -0.00000000000E+00  0.00000000000E+00  0.21222581416E+02  0.21222581416E+02  0.00000000000E+00 0.  1.
          2   -1    0    0  501    0  0.00000000000E+00 -0.00000000000E+00 -0.12735202503E+04  0.12735202503E+04  0.00000000000E+00 0. -1.
          5    1    1    2  502    0  0.55632828143E+02 -0.67004955928E+02 -0.63011432934E+03  0.63612171298E+03  0.47000000000E+01 0.  1.
         -5    1    1    2    0  502 -0.61571025856E+02 -0.27197336523E+02 -0.35267109391E+03  0.35906778862E+03  0.47000000000E+01 0.  1.
        -11    1    1    2    0    0  0.29403964373E+02  0.67778179718E+02 -0.89261644922E+02  0.11587111815E+03  0.00000000000E+00 0.  1.
         11    1    1    2    0    0 -0.23465766660E+02  0.26424112733E+02 -0.18025060068E+03  0.18368221195E+03  0.00000000000E+00 0. -1.
<mgrwt>
<rscale>  0 0.14971979E+03</rscale>
<asrwt>0</asrwt>
<pdfrwt beam="2">  1        2 0.19592618E+00 0.15663638E+03</pdfrwt>
<pdfrwt beam="1">  1       -2 0.32650128E-02 0.15663638E+03</pdfrwt>
<totfact> 0.66542321E+03</totfact>
</mgrwt>
</event>
<event>
 6    1  0.4705246E-006  0.1641097E+03  0.7546771E-02  0.1191217E+00
          2   -1    0    0  501    0  0.00000000000E+00  0.00000000000E+00  0.54193289382E+03  0.54193289382E+03  0.00000000000E+00 0. -1.
         -2   -1    0    0    0  501 -0.00000000000E+00 -0.00000000000E+00 -0.43920882735E+02  0.43920882735E+02  0.00000000000E+00 0.  1.
          5    1    1    2  502    0  0.37887999460E+02 -0.28423758561E+02  0.19397544865E+02  0.51398106002E+02  0.47000000000E+01 0. -1.
         -5    1    1    2    0  502  0.67688069896E+02  0.15758446638E+02  0.29663485785E+03  0.30470367957E+03  0.47000000000E+01 0. -1.
        -11    1    1    2    0    0 -0.68746836397E+02  0.21696838229E+02  0.17748424043E+03  0.19156600926E+03  0.00000000000E+00 0. -1.
         11    1    1    2    0    0 -0.36829232959E+02 -0.90315263063E+01  0.44953679402E+01  0.38185981730E+02  0.00000000000E+00 0.  1.
<mgrwt>
<rscale>  0 0.15778824E+03</rscale>
<asrwt>0</asrwt>
<pdfrwt beam="1">  1        2 0.83374287E-01 0.16410973E+03</pdfrwt>
<pdfrwt beam="2">  1       -2 0.67570593E-02 0.16410973E+03</pdfrwt>
<totfact> 0.67847500E+03</totfact>
</mgrwt>
</event>
<event>
 6    1  0.4705246E-006  0.3102238E+03  0.7546771E-02  0.1081735E+00
         -2   -1    0    0    0  501 -0.00000000000E+00  0.00000000000E+00  0.89613501168E+02  0.89613501168E+02  0.00000000000E+00 0.  1.
          2   -1    0    0  501    0  0.00000000000E+00 -0.00000000000E+00 -0.11771283843E+04  0.11771283843E+04  0.00000000000E+00 0. -1.
          5    1    1    2  502    0  0.99773324207E+02 -0.14555427343E+03 -0.44692998238E+03  0.48053018832E+03  0.47000000000E+01 0.  1.
         -5    1    1    2    0  502 -0.31060076206E+02 -0.12992266068E+03 -0.32876909833E+03  0.35490257270E+03  0.47000000000E+01 0.  1.
        -11    1    1    2    0    0 -0.52651487870E+02  0.15807052325E+03 -0.24188922737E+03  0.29371562405E+03  0.00000000000E+00 0. -1.
         11    1    1    2    0    0 -0.16061760131E+02  0.11740641086E+03 -0.69926575028E+02  0.13759350037E+03  0.00000000000E+00 0.  1.
<mgrwt>
<rscale>  0 0.30711927E+03</rscale>
<asrwt>0</asrwt>
<pdfrwt beam="2">  1        2 0.18109665E+00 0.31022385E+03</pdfrwt>
<pdfrwt beam="1">  1       -2 0.13786694E-01 0.31022385E+03</pdfrwt>
<totfact> 0.81104687E+02</totfact>
</mgrwt>
</event>
<event>
 6    1  0.4705246E-006  0.3110869E+03  0.7546771E-02  0.1079826E+00
         -2   -1    0    0    0  501 -0.00000000000E+00  0.00000000000E+00  0.56973084821E+02  0.56973084821E+02  0.00000000000E+00 0.  1.
          2   -1    0    0  501    0  0.00000000000E+00 -0.00000000000E+00 -0.42465266067E+03  0.42465266067E+03  0.00000000000E+00 0. -1.
          5    1    1    2  502    0  0.51586864959E+01  0.19337540996E+02 -0.29083990399E+01  0.20762979630E+02  0.47000000000E+01 0. -1.
         -5    1    1    2    0  502  0.69316776415E+01 -0.11328954580E+03 -0.29077152931E+03  0.31217421674E+03  0.47000000000E+01 0. -1.
        -11    1    1    2    0    0  0.23512598374E+02  0.35090365166E+02  0.65689348307E+01  0.42747244527E+02  0.00000000000E+00 0.  1.
         11    1    1    2    0    0 -0.35602962511E+02  0.58861639635E+02 -0.80568582336E+02  0.10594130460E+03  0.00000000000E+00 0. -1.
<mgrwt>
<rscale>  0 0.31108695E+03</rscale>
<asrwt>0</asrwt>
<pdfrwt beam="2">  1        2 0.65331179E-01 0.31108695E+03</pdfrwt>
<pdfrwt beam="1">  1       -2 0.87650900E-02 0.31108695E+03</pdfrwt>
<totfact> 0.61146426E+03</totfact>
</mgrwt>
</event>
<event>
 6    1  0.4705246E-006  0.3105932E+03  0.7546771E-02  0.1081505E+00
          2   -1    0    0  501    0  0.00000000000E+00  0.00000000000E+00  0.38200189201E+03  0.38200189201E+03  0.00000000000E+00 0. -1.
         -2   -1    0    0    0  501 -0.00000000000E+00 -0.00000000000E+00 -0.25533529724E+03  0.25533529724E+03  0.00000000000E+00 0.  1.
          5    1    1    2  502    0  0.73189048949E+01  0.10151467050E+03  0.55867296338E+02  0.11619827665E+03  0.47000000000E+01 0. -1.
         -5    1    1    2    0  502  0.16806680787E+03  0.12227422211E+03  0.78644874982E+02  0.22227132892E+03  0.47000000000E+01 0. -1.
        -11    1    1    2    0    0 -0.68127696327E+02 -0.13410471575E+03  0.31381658064E+02  0.15365632514E+03  0.00000000000E+00 0.  1.
         11    1    1    2    0    0 -0.10725801643E+03 -0.89684176865E+02 -0.39227234616E+02  0.14521125853E+03  0.00000000000E+00 0. -1.
<mgrwt>
<rscale>  0 0.30759287E+03</rscale>
<asrwt>0</asrwt>
<pdfrwt beam="1">  1        2 0.58769522E-01 0.31059322E+03</pdfrwt>
<pdfrwt beam="2">  1       -2 0.39282353E-01 0.31059322E+03</pdfrwt>
<totfact> 0.52013517E+02</totfact>
</mgrwt>
</event>
<event>
 6    1  0.4705246E-006  0.7108107E+03  0.7546771E-02  0.9698921E-01
          1   -1    0    0  501    0  0.00000000000E+00  0.00000000000E+00  0.70603230229E+03  0.70603230229E+03  0.00000000000E+00 0. -1.
         -1   -1    0    0    0  501 -0.00000000000E+00 -0.00000000000E+00 -0.17890538219E+03  0.17890538219E+03  0.00000000000E+00 0.  1.
          5    1    1    2  502    0 -0.10554539680E+02  0.93447965537E+01  0.56436493813E+03  0.56456053433E+03  0.47000000000E+01 0. -1.
         -5    1    1    2    0  502  0.55857060361E+02  0.59086650416E+01  0.10501377415E+03  0.11918433738E+03  0.47000000000E+01 0.  1.
        -11    1    1    2    0    0 -0.35248468286E+02 -0.17437732607E+02 -0.16848526848E+03  0.17301391484E+03  0.00000000000E+00 0.  1.
         11    1    1    2    0    0 -0.10054052395E+02  0.21842710113E+01  0.26233476299E+02  0.28178897922E+02  0.00000000000E+00 0. -1.
<mgrwt>
<rscale>  0 0.71081075E+03</rscale>
<asrwt>0</asrwt>
<pdfrwt beam="1">  1        1 0.10862035E+00 0.71081075E+03</pdfrwt>
<pdfrwt beam="2">  1       -1 0.27523905E-01 0.71081075E+03</pdfrwt>
<totfact> 0.32251471E+02</totfact>
</mgrwt>
</event>
<event>
 6    1  0.4705246E-006  0.1304105E+03  0.7546771E-02  0.1241340E+00
         -2   -1    0    0    0  501 -0.00000000000E+00  0.00000000000E+00  0.49283806629E+02  0.49283806629E+02  0.00000000000E+00 0.  1.
          2   -1    0    0  501    0  0.00000000000E+00 -0.00000000000E+00 -0.26908337510E+03  0.26908337510E+03  0.00000000000E+00 0. -1.
          5    1    1    2  502    0 -0.22353229050E+02 -0.68026664264E+02 -0.41058687673E+02  0.82675266756E+02  0.47000000000E+01 0. -1.
         -5    1    1    2    0  502 -0.10532972787E+01  0.39192354967E+02 -0.11008445493E+03  0.11695224384E+03  0.47000000000E+01 0. -1.
        -11    1    1    2    0    0 -0.18884789422E+02  0.47123140366E+02 -0.37594510224E+02  0.63170980904E+02  0.00000000000E+00 0. -1.
         11    1    1    2    0    0  0.42291315750E+02 -0.18288831069E+02 -0.31061915645E+02  0.55568690225E+02  0.00000000000E+00 0.  1.
<mgrwt>
<rscale>  0 0.12107124E+03</rscale>
<asrwt>0</asrwt>
<pdfrwt beam="2">  1        2 0.41397441E-01 0.13041048E+03</pdfrwt>
<pdfrwt beam="1">  1       -2 0.75821244E-02 0.13041048E+03</pdfrwt>
<totfact> 0.11890157E+04</totfact>
</mgrwt>
</event>
<event>
 6    1  0.4705246E-006  0.1377249E+03  0.7546771E-02  0.1226576E+00
         -1   -1    0    0    0  501 -0.00000000000E+00  0.00000000000E+00  0.15255656149E+03  0.15255656149E+03  0.00000000000E+00 0.  1.
          1   -1    0    0  501    0  0.00000000000E+00 -0.00000000000E+00 -0.14119539648E+03  0.14119539648E+03  0.00000000000E+00 0. -1.
          5    1    1    2  502    0  0.13813097809E+02 -0.21441718223E+02  0.34667169473E+02  0.43294937241E+02  0.47000000000E+01 0.  1.
         -5    1    1    2    0  502 -0.23683180452E+01 -0.35232563176E+02 -0.10596067015E+03  0.11178862221E+03  0.47000000000E+01 0.  1.
        -11    1    1    2    0    0 -0.51095089585E+02  0.45113627502E+02  0.63441095557E+02  0.93116701894E+02  0.00000000000E+00 0. -1.
         11    1    1    2    0    0  0.39650309821E+02  0.11560653897E+02  0.19213570128E+02  0.45551696615E+02  0.00000000000E+00 0.  1.
<mgrwt>
<rscale>  0 0.13059438E+03</rscale>
<asrwt>0</asrwt>
<pdfrwt beam="2">  1        1 0.21722369E-01 0.13772490E+03</pdfrwt>
<pdfrwt beam="1">  1       -1 0.23470240E-01 0.13772490E+03</pdfrwt>
<totfact> 0.34218448E+03</totfact>
</mgrwt>
</event>
<event>
 6    1  0.4705246E-006  0.1415039E+03  0.7546771E-02  0.1221768E+00
          1   -1    0    0  501    0  0.00000000000E+00  0.00000000000E+00  0.72915468929E+03  0.72915468929E+03  0.00000000000E+00 0. -1.
         -1   -1    0    0    0  501 -0.00000000000E+00 -0.00000000000E+00 -0.25576091030E+02  0.25576091030E+02  0.00000000000E+00 0.  1.
          5    1    1    2  502    0  0.64767046679E+02  0.69517838446E+02  0.31137667125E+03  0.32558412368E+03  0.47000000000E+01 0.  1.
         -5    1    1    2    0  502 -0.43795178615E+02 -0.66335426009E+01  0.20860074161E+03  0.21330349495E+03  0.47000000000E+01 0.  1.
        -11    1    1    2    0    0  0.21241466754E+02 -0.11725530644E+02  0.12501358029E+03  0.12734631222E+03  0.00000000000E+00 0. -1.
         11    1    1    2    0    0 -0.42213334819E+02 -0.51158765201E+02  0.58587605119E+02  0.88496849475E+02  0.00000000000E+00 0.  1.
<mgrwt>
<rscale>  0 0.13390940E+03</rscale>
<asrwt>0</asrwt>
<pdfrwt beam="1">  1        1 0.11217763E+00 0.14150391E+03</pdfrwt>
<pdfrwt beam="2">  1       -1 0.39347838E-02 0.14150391E+03</pdfrwt>
<totfact> 0.64732932E+03</totfact>
</mgrwt>
</event>
<event>
 6    1  0.4705246E-006  0.2910869E+03  0.7546771E-02  0.1130563E+00
          1   -1    0    0  501    0  0.00000000000E+00  0.00000000000E+00  0.53543943896E+03  0.53543943896E+03  0.00000000000E+00 0. -1.
         -1   -1    0    0    0  501 -0.00000000000E+00 -0.00000000000E+00 -0.73085252408E+02  0.73085252408E+02  0.00000000000E+00 0.  1.
          5    1    1    2  502    0  0.38449301666E+02 -0.84953635444E+02  0.30202637864E+03  0.31612891733E+03  0.47000000000E+01 0. -1.
         -5    1    1    2    0  502 -0.33380571071E+02  0.13241296106E+03  0.62208729453E+02  0.15013151169E+03  0.47000000000E+01 0.  1.
        -11    1    1    2    0    0  0.31403343216E+02 -0.28224392192E+02  0.91138575158E+02  0.10044414449E+03  0.00000000000E+00 0. -1.
         11    1    1    2    0    0 -0.36472073811E+02 -0.19234933421E+02  0.69805032915E+01  0.41820117862E+02  0.00000000000E+00 0.  1.
<mgrwt>
<rscale>  0 0.22451246E+03</rscale>
<asrwt>0</asrwt>
<pdfrwt beam="1">  1        1 0.82375295E-01 0.29108688E+03</pdfrwt>
<pdfrwt beam="2">  1       -1 0.11243885E-01 0.29108688E+03</pdfrwt>
<totfact> 0.20875308E+03</totfact>
</mgrwt>
</event>
<event>
 6    1  0.4705246E-006  0.1319004E+03  0.7546771E-02  0.1237175E+00
          3   -1    0    0  501    0  0.00000000000E+00  0.00000000000E+00  0.55833327559E+02  0.55833327559E+02  0.00000000000E+00 0. -1.
         -3   -1    0    0    0  501 -0.00000000000E+00 -0.00000000000E+00 -0.39285032040E+03  0.39285032040E+03  0.00000000000E+00 0.  1.
          5    1    1    2  502    0 -0.13527309804E+02 -0.35330615107E+02  0.29780972945E+02  0.48375994294E+02  0.47000000000E+01 0. -1.
         -5    1    1    2    0  502 -0.27723800271E+02  0.43595304422E+02 -0.74732772299E+02  0.90973825491E+02  0.47000000000E+01 0. -1.
        -11    1    1    2    0    0  0.47691666212E+02  0.34368590044E+02 -0.17018401349E+03  0.18005080798E+03  0.00000000000E+00 0. -1.
         11    1    1    2    0    0 -0.64405561376E+01 -0.42633279359E+02 -0.12188118000E+03  0.12928302019E+03  0.00000000000E+00 0.  1.
<mgrwt>
<rscale>  0 0.12366224E+03</rscale>
<asrwt>0</asrwt>
<pdfrwt beam="1">  1        3 0.85897429E-02 0.13190037E+03</pdfrwt>
<pdfrwt beam="2">  1       -3 0.60438510E-01 0.13190037E+03</pdfrwt>
<totfact> 0.59351326E+02</totfact>
</mgrwt>
</event>
<event>
 6    1  0.4705246E-006  0.1275599E+03  0.7546771E-02  0.1248457E+00
         -2   -1    0    0    0  501 -0.00000000000E+00  0.00000000000E+00  0.22818013129E+02  0.22818013129E+02  0.00000000000E+00 0.  1.
          2   -1    0    0  501    0  0.00000000000E+00 -0.00000000000E+00 -0.52875732848E+03  0.52875732848E+03  0.00000000000E+00 0. -1.
          5    1    1    2  502    0  0.45985751696E+02  0.76063157216E+01 -0.20883187633E+03  0.21402193338E+03  0.47000000000E+01 0.  1.
         -5    1    1    2    0  502 -0.70337862677E+02 -0.28387563396E+00 -0.12756149084E+03  0.14574470645E+03  0.47000000000E+01 0.  1.
        -11    1    1    2    0    0  0.28758935053E+02 -0.35464961005E+02 -0.45225317845E+02  0.64266392295E+02  0.00000000000E+00 0.  1.
         11    1    1    2    0    0 -0.44068240722E+01  0.28142520917E+02 -0.12432063033E+03  0.12754230948E+03  0.00000000000E+00 0. -1.
<mgrwt>
<rscale>  0 0.11680859E+03</rscale>
<asrwt>0</asrwt>
<pdfrwt beam="2">  1        2 0.81347286E-01 0.12755994E+03</pdfrwt>
<pdfrwt beam="1">  1       -2 0.35104634E-02 0.12755994E+03</pdfrwt>
<totfact> 0.18335245E+04</totfact>
</mgrwt>
</event>
<event>
 6    1  0.4705246E-006  0.1853911E+03  0.7546771E-02  0.1167469E+00
          2   -1    0    0  501    0  0.00000000000E+00  0.00000000000E+00  0.13871965192E+04  0.13871965192E+04  0.00000000000E+00 0. -1.
         -2   -1    0    0    0  501 -0.00000000000E+00 -0.00000000000E+00 -0.31344496866E+02  0.31344496866E+02  0.00000000000E+00 0.  1.
          5    1    1    2  502    0 -0.28272931223E+02  0.78584151374E+02  0.45441805535E+03  0.46205268803E+03  0.47000000000E+01 0. -1.
         -5    1    1    2    0  502 -0.97943676538E+02 -0.25518978920E+02  0.63157886608E+03  0.63965470071E+03  0.47000000000E+01 0. -1.
        -11    1    1    2    0    0 -0.77601879745E+01  0.11442247292E+02  0.46472045394E+02  0.48485013598E+02  0.00000000000E+00 0. -1.
         11    1    1    2    0    0  0.13397679574E+03 -0.64507419746E+02  0.22338305547E+03  0.26834861369E+03  0.00000000000E+00 0.  1.
<mgrwt>
<rscale>  0 0.18034539E+03</rscale>
<asrwt>0</asrwt>
<pdfrwt beam="1">  1        2 0.21341480E+00 0.18539109E+03</pdfrwt>
<pdfrwt beam="2">  1       -2 0.48222313E-02 0.18539109E+03</pdfrwt>
<totfact> 0.32374061E+03</totfact>
</mgrwt>
</event>
<event>
 6    1  0.4705246E-006  0.1297897E+03  0.7546771E-02  0.1242612E+00
         -2   -1    0    0    0  501 -0.00000000000E+00  0.00000000000E+00  0.24853831768E+03  0.24853831768E+03  0.00000000000E+00 0. -1.
          2   -1    0    0  501    0  0.00000000000E+00 -0.00000000000E+00 -0.58793866340E+02  0.58793866340E+02  0.00000000000E+00 0.  1.
          5    1    1    2  502    0  0.49963305205E+01  0.52999279351E+02  0.11525166381E+03  0.12703906069E+03  0.47000000000E+01 0.  1.
         -5    1    1    2    0  502  0.29524140622E+02 -0.58395786392E+02  0.46823992501E+02  0.80599745791E+02  0.47000000000E+01 0.  1.
        -11    1    1    2    0    0  0.17408961917E+01  0.28777835041E+02 -0.20235594735E+02  0.35223199790E+02  0.00000000000E+00 0.  1.
         11    1    1    2    0    0 -0.36261367335E+02 -0.23381328001E+02  0.47904389762E+02  0.64470177745E+02  0.00000000000E+00 0. -1.
<mgrwt>
<rscale>  0 0.12029435E+03</rscale>
<asrwt>0</asrwt>
<pdfrwt beam="2">  1        2 0.90452104E-02 0.12978966E+03</pdfrwt>
<pdfrwt beam="1">  1       -2 0.38236664E-01 0.12978966E+03</pdfrwt>
<totfact> 0.44850214E+03</totfact>
</mgrwt>
</event>
<event>
 6    1  0.4705246E-006  0.2062537E+03  0.7546771E-02  0.1148541E+00
         -2   -1    0    0    0  501 -0.00000000000E+00  0.00000000000E+00  0.18356244246E+02  0.18356244246E+02  0.00000000000E+00 0.  1.
          2   -1    0    0  501    0  0.00000000000E+00 -0.00000000000E+00 -0.21212060649E+04  0.21212060649E+04  0.00000000000E+00 0. -1.
          5    1    1    2  502    0 -0.63493564581E+02 -0.17422464538E+02 -0.13972167451E+03  0.15452899838E+03  0.47000000000E+01 0. -1.
         -5    1    1    2    0  502 -0.84886672797E+02 -0.52560048481E+02 -0.89386062952E+03  0.89943160992E+03  0.47000000000E+01 0. -1.
        -11    1    1    2    0    0  0.68987723951E+02 -0.15588547171E+02 -0.38221551595E+03  0.38870426997E+03  0.00000000000E+00 0. -1.
         11    1    1    2    0    0  0.79392513426E+02  0.85571060190E+02 -0.68705200068E+03  0.69689743088E+03  0.00000000000E+00 0.  1.
<mgrwt>
<rscale>  0 0.20142626E+03</rscale>
<asrwt>0</asrwt>
<pdfrwt beam="2">  1        2 0.32633927E+00 0.20625369E+03</pdfrwt>
<pdfrwt beam="1">  1       -2 0.28240387E-02 0.20625369E+03</pdfrwt>
<totfact> 0.29771783E+03</totfact>
</mgrwt>
</event>
<event>
 6    1  0.4705246E-006  0.1684670E+03  0.7546771E-02  0.1186210E+00
          1   -1    0    0  501    0  0.00000000000E+00  0.00000000000E+00  0.77734694538E+02  0.77734694538E+02  0.00000000000E+00 0. -1.
         -1   -1    0    0    0  501 -0.00000000000E+00 -0.00000000000E+00 -0.31582548177E+03  0.31582548177E+03  0.00000000000E+00 0.  1.
          5    1    1    2  502    0  0.91073505001E+01 -0.36629705577E+02 -0.46570677065E+02  0.60129835573E+02  0.47000000000E+01 0.  1.
         -5    1    1    2    0  502 -0.12203594857E+03  0.38307406584E+02 -0.85318172542E+02  0.15382298498E+03  0.47000000000E+01 0.  1.
        -11    1    1    2    0    0  0.11539405192E+03  0.13474153215E+02 -0.11366935650E+03  0.16253634249E+03  0.00000000000E+00 0.  1.
         11    1    1    2    0    0 -0.24654538568E+01 -0.15151854222E+02  0.74674188751E+01  0.17071013261E+02  0.00000000000E+00 0. -1.
<mgrwt>
<rscale>  0 0.16222275E+03</rscale>
<asrwt>0</asrwt>
<pdfrwt beam="1">  1        1 0.11959184E-01 0.16846703E+03</pdfrwt>
<pdfrwt beam="2">  1       -1 0.48588537E-01 0.16846703E+03</pdfrwt>
<totfact> 0.21408243E+03</totfact>
</mgrwt>
</event>
<event>
 6    1  0.4705246E-006  0.1308185E+03  0.7546771E-02  0.1240012E+00
         -4   -1    0    0    0  501 -0.00000000000E+00  0.00000000000E+00  0.12842554497E+03  0.12842554497E+03  0.00000000000E+00 0.  1.
          4   -1    0    0  501    0  0.00000000000E+00 -0.00000000000E+00 -0.12971433459E+03  0.12971433459E+03  0.00000000000E+00 0. -1.
          5    1    1    2  502    0  0.15026525333E+02 -0.40637402479E+02  0.10243080657E+02  0.44768355400E+02  0.47000000000E+01 0. -1.
         -5    1    1    2    0  502 -0.53302443556E+02  0.45468770058E+02 -0.69665062264E+02  0.98913449237E+02  0.47000000000E+01 0. -1.
        -11    1    1    2    0    0  0.32953471729E+02  0.39149277192E+02  0.45281289406E+02  0.68330025420E+02  0.00000000000E+00 0.  1.
         11    1    1    2    0    0  0.53224464939E+01 -0.43980644771E+02  0.12851902587E+02  0.46128049506E+02  0.00000000000E+00 0. -1.
<mgrwt>
<rscale>  0 0.12188966E+03</rscale>
<asrwt>0</asrwt>
<pdfrwt beam="2">  1        4 0.19956051E-01 0.13081853E+03</pdfrwt>
<pdfrwt beam="1">  1       -4 0.19757776E-01 0.13081853E+03</pdfrwt>
<totfact> 0.85682133E+02</totfact>
</mgrwt>
</event>
<event>
 6    1  0.4705246E-006  0.1370583E+03  0.7546771E-02  0.1229304E+00
          3   -1    0    0  501    0  0.00000000000E+00  0.00000000000E+00  0.27352619448E+03  0.27352619448E+03  0.00000000000E+00 0. -1.
         -3   -1    0    0    0  501 -0.00000000000E+00 -0.00000000000E+00 -0.82375751473E+02  0.82375751473E+02  0.00000000000E+00 0.  1.
          5    1    1    2  502    0  0.14998156979E+02  0.72765239197E+02  0.57295911120E+02  0.93939534698E+02  0.47000000000E+01 0. -1.
         -5    1    1    2    0  502 -0.32038727327E+02 -0.19191398703E+02  0.14939958277E+03  0.15406854047E+03  0.47000000000E+01 0. -1.
        -11    1    1    2    0    0  0.17867831457E+02  0.22975545446E+02  0.25922171710E+01  0.29220791902E+02  0.00000000000E+00 0. -1.
         11    1    1    2    0    0 -0.82726110888E+00 -0.76549385940E+02 -0.18137268046E+02  0.78673078883E+02  0.00000000000E+00 0.  1.
<mgrwt>
<rscale>  0 0.12876251E+03</rscale>
<asrwt>0</asrwt>
<pdfrwt beam="1">  1        3 0.42080953E-01 0.13705830E+03</pdfrwt>
<pdfrwt beam="2">  1       -3 0.12673193E-01 0.13705830E+03</pdfrwt>
<totfact> 0.64608162E+02</totfact>
</mgrwt>
</event>
<event>
 6    1  0.4705246E-006  0.1253171E+03  0.7546771E-02  0.1251362E+00
         -1   -1    0    0    0  501 -0.00000000000E+00  0.00000000000E+00  0.35415623530E+02  0.35415623530E+02  0.00000000000E+00 0.  1.
          1   -1    0    0  501    0  0.00000000000E+00 -0.00000000000E+00 -0.33019001443E+03  0.33019001443E+03  0.00000000000E+00 0. -1.
          5    1    1    2  502    0  0.41588943149E+02  0.28190152588E+02 -0.15384901220E+03  0.16191335168E+03  0.47000000000E+01 0. -1.
         -5    1    1    2    0  502 -0.50007857780E+02 -0.25363032123E+02 -0.40472831266E+02  0.69312403716E+02  0.47000000000E+01 0. -1.
        -11    1    1    2    0    0  0.10962746397E+02 -0.27056148287E+02 -0.10553070812E+03  0.10949405155E+03  0.00000000000E+00 0. -1.
         11    1    1    2    0    0 -0.25438317662E+01  0.24229027822E+02  0.50781606922E+01  0.24885831014E+02  0.00000000000E+00 0.  1.
<mgrwt>
<rscale>  0 0.11512541E+03</rscale>
<asrwt>0</asrwt>
<pdfrwt beam="2">  1        1 0.50798461E-01 0.12531708E+03</pdfrwt>
<pdfrwt beam="1">  1       -1 0.54485577E-02 0.12531708E+03</pdfrwt>
<totfact> 0.11254337E+04</totfact>
</mgrwt>
</event>
<event>
 6    1  0.4705246E-006  0.1592801E+03  0.7546771E-02  0.1197851E+00
          2   -1    0    0  501    0  0.00000000000E+00  0.00000000000E+00  0.29265871596E+03  0.29265871596E+03  0.00000000000E+00 0. -1.
         -2   -1    0    0    0  501 -0.00000000000E+00 -0.00000000000E+00 -0.82810590816E+02  0.82810590816E+02  0.00000000000E+00 0.  1.
          5    1    1    2  502    0 -0.20066048015E+02  0.19524591841E+02  0.16306440797E+03  0.16551721093E+03  0.47000000000E+01 0.  1.
         -5    1    1    2    0  502 -0.32011967723E+02  0.64353192410E+02  0.15340085071E+02  0.73644467958E+02  0.47000000000E+01 0.  1.
        -11    1    1    2    0    0  0.13143878704E+02 -0.41365869792E+02 -0.29452884370E+02  0.52453494914E+02  0.00000000000E+00 0.  1.
         11    1    1    2    0    0  0.38934137033E+02 -0.42511914459E+02  0.60896516473E+02  0.83854132969E+02  0.00000000000E+00 0. -1.
<mgrwt>
<rscale>  0 0.15215374E+03</rscale>
<asrwt>0</asrwt>
<pdfrwt beam="1">  1        2 0.45024417E-01 0.15928009E+03</pdfrwt>
<pdfrwt beam="2">  1       -2 0.12740091E-01 0.15928009E+03</pdfrwt>
<totfact> 0.48743537E+03</totfact>
</mgrwt>
</event>
<event>
 6    1  0.4705246E-006  0.1473361E+03  0.7546771E-02  0.1213542E+00
          2   -1    0    0  501    0  0.00000000000E+00  0.00000000000E+00  0.17107261429E+04  0.17107261429E+04  0.00000000000E+00 0.  1.
         -2   -1    0    0    0  501 -0.00000000000E+00 -0.00000000000E+00 -0.11273623361E+02  0.11273623361E+02  0.00000000000E+00 0. -1.
          5    1    1    2  502    0 -0.59247953004E+02  0.24114159306E+02  0.89246392697E+03  0.89476575905E+03  0.47000000000E+01 0. -1.
         -5    1    1    2    0  502  0.36298163205E+02  0.50445216170E+02  0.27592729031E+03  0.28287848279E+03  0.47000000000E+01 0. -1.
        -11    1    1    2    0    0 -0.13622689841E+02 -0.71937804695E+02  0.44230238562E+03  0.44832134206E+03  0.00000000000E+00 0.  1.
         11    1    1    2    0    0  0.36572479640E+02 -0.26215707800E+01  0.88758916662E+02  0.96034182390E+02  0.00000000000E+00 0. -1.
<mgrwt>
<rscale>  0 0.13984174E+03</rscale>
<asrwt>0</asrwt>
<pdfrwt beam="1">  1        2 0.26318843E+00 0.14733609E+03</pdfrwt>
<pdfrwt beam="2">  1       -2 0.17344050E-02 0.14733609E+03</pdfrwt>
<totfact> 0.98696020E+03</totfact>
</mgrwt>
</event>
<event>
 6    1  0.4705246E-006  0.1375959E+03  0.7546771E-02  0.1227164E+00
         -2   -1    0    0    0  501 -0.00000000000E+00  0.00000000000E+00  0.24356267851E+03  0.24356267851E+03  0.00000000000E+00 0.  1.
          2   -1    0    0  501    0  0.00000000000E+00 -0.00000000000E+00 -0.78495108975E+02  0.78495108975E+02  0.00000000000E+00 0. -1.
          5    1    1    2  502    0 -0.50275501811E+02  0.38728617836E+02  0.11682451966E+01  0.63647362228E+02  0.47000000000E+01 0. -1.
         -5    1    1    2    0  502  0.69311305473E+02  0.22842343065E+02  0.17651517197E+02  0.75229620246E+02  0.47000000000E+01 0.  1.
        -11    1    1    2    0    0  0.15385229207E+02 -0.47077098489E+02  0.13557409686E+03  0.14433743180E+03  0.00000000000E+00 0.  1.
         11    1    1    2    0    0 -0.34421032869E+02 -0.14493862412E+02  0.10673710290E+02  0.38843373215E+02  0.00000000000E+00 0. -1.
<mgrwt>
<rscale>  0 0.13019704E+03</rscale>
<asrwt>0</asrwt>
<pdfrwt beam="2">  1        2 0.12076171E-01 0.13759590E+03</pdfrwt>
<pdfrwt beam="1">  1       -2 0.37471181E-01 0.13759590E+03</pdfrwt>
<totfact> 0.32861618E+03</totfact>
</mgrwt>
</event>
<event>
 6    1  0.4705246E-006  0.3236859E+03  0.7546771E-02  0.1073965E+00
          2   -1    0    0  501    0  0.00000000000E+00  0.00000000000E+00  0.16988153147E+04  0.16988153147E+04  0.00000000000E+00 0. -1.
         -2   -1    0    0    0  501 -0.00000000000E+00 -0.00000000000E+00 -0.15418471655E+02  0.15418471655E+02  0.00000000000E+00 0.  1.
          5    1    1    2  502    0 -0.67850203197E+01 -0.67051708491E+02  0.13727419593E+04  0.13744033415E+04  0.47000000000E+01 0. -1.
         -5    1    1    2    0  502  0.23755384876E+02  0.41372271807E+01  0.54472740905E+02  0.59756208556E+02  0.47000000000E+01 0. -1.
        -11    1    1    2    0    0  0.28159339878E+02  0.58777083875E+02  0.12010261905E+03  0.13664674571E+03  0.00000000000E+00 0.  1.
         11    1    1    2    0    0 -0.45129704434E+02  0.41373974357E+01  0.13607952373E+03  0.14342749060E+03  0.00000000000E+00 0. -1.
<mgrwt>
<rscale>  0 0.32368587E+03</rscale>
<asrwt>0</asrwt>
<pdfrwt beam="1">  1        2 0.26135605E+00 0.32368587E+03</pdfrwt>
<pdfrwt beam="2">  1       -2 0.23720739E-02 0.32368587E+03</pdfrwt>
<totfact> 0.64375245E+03</totfact>
</mgrwt>
</event>
<event>
 6    1  0.5615883E-006  0.3618471E+03  0.7546771E-02  0.1057855E+00
         -1   -1    0    0    0  501 -0.00000000000E+00  0.00000000000E+00  0.64180927731E+02  0.64180927731E+02  0.00000000000E+00 0.  1.
          1   -1    0    0  501    0  0.00000000000E+00 -0.00000000000E+00 -0.51001661917E+03  0.51001661917E+03  0.00000000000E+00 0. -1.
          5    1    1    2  502    0  0.13708383040E+03  0.55394015476E+02 -0.16823186073E+03  0.22401902256E+03  0.47000000000E+01 0. -1.
         -5    1    1    2    0  502 -0.50284912871E+01 -0.75166933691E+01 -0.11805739267E+03  0.11849651627E+03  0.47000000000E+01 0. -1.
        -11    1    1    2    0    0 -0.85440709568E+01  0.18167609699E+02 -0.95802414000E+00  0.20099278618E+02  0.00000000000E+00 0.  1.
         11    1    1    2    0    0 -0.12351126815E+03 -0.66044931806E+02 -0.15858841390E+03  0.21158272945E+03  0.00000000000E+00 0. -1.
<mgrwt>
<rscale>  0 0.36184715E+03</rscale>
<asrwt>0</asrwt>
<pdfrwt beam="2">  1        1 0.78464097E-01 0.36184715E+03</pdfrwt>
<pdfrwt beam="1">  1       -1 0.98739886E-02 0.36184715E+03</pdfrwt>
<totfact> 0.27427442E+03</totfact>
</mgrwt>
</event>
<event>
 6    1  0.4705246E-006  0.2527861E+03  0.7546771E-02  0.1111557E+00
          1   -1    0    0  501    0  0.00000000000E+00  0.00000000000E+00  0.54623415399E+03  0.54623415399E+03  0.00000000000E+00 0. -1.
         -1   -1    0    0    0  501 -0.00000000000E+00 -0.00000000000E+00 -0.29246078540E+02  0.29246078540E+02  0.00000000000E+00 0.  1.
          5    1    1    2  502    0  0.73283609637E+02  0.46527217493E+02  0.11984186582E+03  0.14805212667E+03  0.47000000000E+01 0.  1.
         -5    1    1    2    0  502 -0.17519450760E+02 -0.60804012548E+01  0.21575096408E+03  0.21659748599E+03  0.47000000000E+01 0.  1.
        -11    1    1    2    0    0 -0.34506883248E+02  0.11546210382E+01  0.15145877120E+03  0.15534419047E+03  0.00000000000E+00 0.  1.
         11    1    1    2    0    0 -0.21257275630E+02 -0.41601437276E+02  0.29936474354E+02  0.55486429398E+02  0.00000000000E+00 0. -1.
<mgrwt>
<rscale>  0 0.25278613E+03</rscale>
<asrwt>0</asrwt>
<pdfrwt beam="1">  1        1 0.84036016E-01 0.25278613E+03</pdfrwt>
<pdfrwt beam="2">  1       -1 0.44993971E-02 0.25278613E+03</pdfrwt>
<totfact> 0.81903743E+03</totfact>
</mgrwt>
</event>
<event>
 6    1  0.4705246E-006  0.1667557E+03  0.7546771E-02  0.1201810E+00
         -1   -1    0    0    0  501 -0.00000000000E+00  0.00000000000E+00  0.54913263437E+02  0.54913263437E+02  0.00000000000E+00 0.  1.
          1   -1    0    0  501    0  0.00000000000E+00 -0.00000000000E+00 -0.35099736436E+03  0.35099736436E+03  0.00000000000E+00 0. -1.
          5    1    1    2  502    0 -0.49937956537E+02  0.31440659043E+02 -0.56446257015E+02  0.81795993026E+02  0.47000000000E+01 0. -1.
         -5    1    1    2    0  502  0.68680495352E+02 -0.79402540557E+02 -0.16026239609E+03  0.19164524385E+03  0.47000000000E+01 0.  1.
        -11    1    1    2    0    0  0.66611363853E+01  0.21489276570E+02  0.17742316268E+02  0.28652216877E+02  0.00000000000E+00 0.  1.
         11    1    1    2    0    0 -0.25403675201E+02  0.26472604945E+02 -0.97117764082E+02  0.10381717404E+03  0.00000000000E+00 0. -1.
<mgrwt>
<rscale>  0 0.14891670E+03</rscale>
<asrwt>0</asrwt>
<pdfrwt beam="2">  1        1 0.53999597E-01 0.16675572E+03</pdfrwt>
<pdfrwt beam="1">  1       -1 0.84481940E-02 0.16675572E+03</pdfrwt>
<totfact> 0.55050173E+03</totfact>
</mgrwt>
</event>
<event>
 6    1  0.4705246E-006  0.2196400E+03  0.7546771E-02  0.1137781E+00
          2   -1    0    0  501    0  0.00000000000E+00  0.00000000000E+00  0.15189246266E+03  0.15189246266E+03  0.00000000000E+00 0. -1.
         -2   -1    0    0    0  501 -0.00000000000E+00 -0.00000000000E+00 -0.29154282727E+03  0.29154282727E+03  0.00000000000E+00 0.  1.
          5    1    1    2  502    0 -0.12655839827E+02 -0.14572171355E+03 -0.10778771597E+03  0.18175607224E+03  0.47000000000E+01 0. -1.
         -5    1    1    2    0  502 -0.29354006872E+02 -0.29927656530E+02  0.29438724584E+02  0.51439778868E+02  0.47000000000E+01 0. -1.
        -11    1    1    2    0    0  0.18168721522E+02  0.12558741999E+03  0.91735373924E+00  0.12689816405E+03  0.00000000000E+00 0.  1.
         11    1    1    2    0    0  0.23841125177E+02  0.50061950089E+02 -0.62218726959E+02  0.83341274773E+02  0.00000000000E+00 0. -1.
<mgrwt>
<rscale>  0 0.21485166E+03</rscale>
<asrwt>0</asrwt>
<pdfrwt beam="1">  1        2 0.23368071E-01 0.21964002E+03</pdfrwt>
<pdfrwt beam="2">  1       -2 0.44852742E-01 0.21964002E+03</pdfrwt>
<totfact> 0.11021043E+03</totfact>
</mgrwt>
</event>
<event>
 6    1  0.4705246E-006  0.1442636E+03  0.7546771E-02  0.1219918E+00
         -2   -1    0    0    0  501 -0.00000000000E+00  0.00000000000E+00  0.45418877445E+02  0.45418877445E+02  0.00000000000E+00 0.  1.
          2   -1    0    0  501    0  0.00000000000E+00 -0.00000000000E+00 -0.35989849483E+03  0.35989849483E+03  0.00000000000E+00 0. -1.
          5    1    1    2  502    0 -0.15950908349E+02 -0.33817339016E+02  0.59022982895E+01  0.38144082377E+02  0.47000000000E+01 0.  1.
         -5    1    1    2    0  502  0.29776648389E+02 -0.36885488123E+02 -0.18925774174E+03  0.19516088448E+03  0.47000000000E+01 0.  1.
        -11    1    1    2    0    0 -0.49015259089E+02  0.36772678686E+02 -0.60410390748E+02  0.86047317399E+02  0.00000000000E+00 0.  1.
         11    1    1    2    0    0  0.35189519049E+02  0.33930148453E+02 -0.70713783186E+02  0.85965088015E+02  0.00000000000E+00 0. -1.
<mgrwt>
<rscale>  0 0.13521416E+03</rscale>
<asrwt>0</asrwt>
<pdfrwt beam="2">  1        2 0.55369001E-01 0.14426361E+03</pdfrwt>
<pdfrwt beam="1">  1       -2 0.69875193E-02 0.14426361E+03</pdfrwt>
<totfact> 0.99760475E+03</totfact>
</mgrwt>
</event>
<event>
 6    1  0.4705246E-006  0.1780475E+03  0.7546771E-02  0.1174203E+00
          2   -1    0    0  501    0  0.00000000000E+00  0.00000000000E+00  0.29292834883E+03  0.29292834883E+03  0.00000000000E+00 0.  1.
         -2   -1    0    0    0  501 -0.00000000000E+00 -0.00000000000E+00 -0.10725922127E+03  0.10725922127E+03  0.00000000000E+00 0. -1.
          5    1    1    2  502    0 -0.27471175967E+02 -0.13500220562E+02 -0.15073921375E+02  0.34441756195E+02  0.47000000000E+01 0. -1.
         -5    1    1    2    0  502 -0.11028895543E+02 -0.10723273769E+03  0.17118086681E+03  0.20234988444E+03  0.47000000000E+01 0. -1.
        -11    1    1    2    0    0  0.44175496175E+02  0.84510155840E+02  0.62576254043E+02  0.11405800486E+03  0.00000000000E+00 0.  1.
         11    1    1    2    0    0 -0.56754246653E+01  0.36222802412E+02 -0.33014071917E+02  0.49337924604E+02  0.00000000000E+00 0. -1.
<mgrwt>
<rscale>  0 0.17354234E+03</rscale>
<asrwt>0</asrwt>
<pdfrwt beam="1">  1        2 0.45065900E-01 0.17804747E+03</pdfrwt>
<pdfrwt beam="2">  1       -2 0.16501419E-01 0.17804747E+03</pdfrwt>
<totfact> 0.32056780E+03</totfact>
</mgrwt>
</event>
<event>
 6    1  0.4705246E-006  0.1285286E+03  0.7546771E-02  0.1246104E+00
         -3   -1    0    0    0  501 -0.00000000000E+00  0.00000000000E+00  0.96275363956E+02  0.96275363956E+02  0.00000000000E+00 0. -1.
          3   -1    0    0  501    0  0.00000000000E+00 -0.00000000000E+00 -0.13838592859E+03  0.13838592859E+03  0.00000000000E+00 0.  1.
          5    1    1    2  502    0  0.27826368316E+02 -0.70843601071E+02 -0.42515433207E+02  0.87308502719E+02  0.47000000000E+01 0. -1.
         -5    1    1    2    0  502 -0.30662516290E+02  0.41107954300E+02 -0.16116784475E+02  0.53961973219E+02  0.47000000000E+01 0. -1.
        -11    1    1    2    0    0  0.38906450123E+02 -0.59102910345E+01 -0.19969128479E+01  0.39403439725E+02  0.00000000000E+00 0.  1.
         11    1    1    2    0    0 -0.36070302148E+02  0.35645937806E+02  0.18518565899E+02  0.53987376877E+02  0.00000000000E+00 0. -1.
<mgrwt>
<rscale>  0 0.11819519E+03</rscale>
<asrwt>0</asrwt>
<pdfrwt beam="2">  1        3 0.21290143E-01 0.12852864E+03</pdfrwt>
<pdfrwt beam="1">  1       -3 0.14811595E-01 0.12852864E+03</pdfrwt>
<totfact> 0.17316491E+03</totfact>
</mgrwt>
</event>
<event>
 6    1  0.4705246E-006  0.3595527E+03  0.7546771E-02  0.1059893E+00
         -1   -1    0    0    0  501 -0.00000000000E+00  0.00000000000E+00  0.18900886130E+03  0.18900886130E+03  0.00000000000E+00 0.  1.
          1   -1    0    0  501    0  0.00000000000E+00 -0.00000000000E+00 -0.67033958602E+03  0.67033958602E+03  0.00000000000E+00 0. -1.
          5    1    1    2  502    0  0.17912113986E+03  0.16287832611E+03 -0.19147666657E+03  0.30870558094E+03  0.47000000000E+01 0.  1.
         -5    1    1    2    0  502  0.89519991157E+01  0.11691139685E+03 -0.98518589991E+02  0.15322015395E+03  0.47000000000E+01 0.  1.
        -11    1    1    2    0    0 -0.69977980838E+02 -0.90488464776E+02 -0.20036752611E+02  0.11613161290E+03  0.00000000000E+00 0.  1.
         11    1    1    2    0    0 -0.11809515814E+03 -0.18930125819E+03 -0.17129871555E+03  0.28129109953E+03  0.00000000000E+00 0. -1.
<mgrwt>
<rscale>  0 0.35671421E+03</rscale>
<asrwt>0</asrwt>
<pdfrwt beam="2">  1        1 0.10312917E+00 0.35955269E+03</pdfrwt>
<pdfrwt beam="1">  1       -1 0.29078287E-01 0.35955269E+03</pdfrwt>
<totfact> 0.32366592E+02</totfact>
</mgrwt>
</event>
<event>
 6    1  0.4705246E-006  0.3222236E+03  0.7546771E-02  0.1074630E+00
         -1   -1    0    0    0  501 -0.00000000000E+00  0.00000000000E+00  0.12053356678E+03  0.12053356678E+03  0.00000000000E+00 0.  1.
          1   -1    0    0  501    0  0.00000000000E+00 -0.00000000000E+00 -0.21535085363E+03  0.21535085363E+03  0.00000000000E+00 0. -1.
          5    1    1    2  502    0  0.77590552758E+01  0.39201676978E+02 -0.11519709675E+02  0.41854129159E+02  0.47000000000E+01 0.  1.
         -5    1    1    2    0  502 -0.90002949765E+02 -0.47421762666E+02 -0.12141516405E+03  0.15847109075E+03  0.47000000000E+01 0.  1.
        -11    1    1    2    0    0  0.50075728220E+02  0.49689973985E+02  0.43374001128E+02  0.82812897819E+02  0.00000000000E+00 0.  1.
         11    1    1    2    0    0  0.32168166269E+02 -0.41469888297E+02 -0.52564142524E+01  0.52746302689E+02  0.00000000000E+00 0. -1.
<mgrwt>
<rscale>  0 0.32222357E+03</rscale>
<asrwt>0</asrwt>
<pdfrwt beam="2">  1        1 0.33130901E-01 0.32222357E+03</pdfrwt>
<pdfrwt beam="1">  1       -1 0.18543626E-01 0.32222357E+03</pdfrwt>
<totfact> 0.30481400E+03</totfact>
</mgrwt>
</event>
<event>
 6    1  0.4705246E-006  0.1719183E+03  0.7546771E-02  0.1182132E+00
         -2   -1    0    0    0  501 -0.00000000000E+00  0.00000000000E+00  0.30924159354E+02  0.30924159354E+02  0.00000000000E+00 0.  1.
          2   -1    0    0  501    0  0.00000000000E+00 -0.00000000000E+00 -0.11866103637E+04  0.11866103637E+04  0.00000000000E+00 0. -1.
          5    1    1    2  502    0  0.11000197472E+03 -0.86820455656E+02 -0.82304393153E+03  0.83490216743E+03  0.47000000000E+01 0.  1.
         -5    1    1    2    0  502 -0.75047705604E+01  0.28296113875E+02 -0.11467117537E+03  0.11844222263E+03  0.47000000000E+01 0.  1.
        -11    1    1    2    0    0 -0.17585873540E+02  0.19885252590E+02 -0.14032951356E+03  0.14281827122E+03  0.00000000000E+00 0. -1.
         11    1    1    2    0    0 -0.84911330616E+02  0.38639089192E+02 -0.77641583900E+02  0.12137186178E+03  0.00000000000E+00 0.  1.
<mgrwt>
<rscale>  0 0.16595611E+03</rscale>
<asrwt>0</asrwt>
<pdfrwt beam="2">  1        2 0.18255541E+00 0.17191831E+03</pdfrwt>
<pdfrwt beam="1">  1       -2 0.47575637E-02 0.17191831E+03</pdfrwt>
<totfact> 0.42498663E+03</totfact>
</mgrwt>
</event>
<event>
 6    1  0.4705246E-006  0.3282179E+03  0.7546771E-02  0.1071928E+00
          1   -1    0    0  501    0  0.00000000000E+00  0.00000000000E+00  0.51784174509E+03  0.51784174509E+03  0.00000000000E+00 0. -1.
         -1   -1    0    0    0  501 -0.00000000000E+00 -0.00000000000E+00 -0.52007668943E+02  0.52007668943E+02  0.00000000000E+00 0.  1.
          5    1    1    2  502    0  0.85988621257E+02 -0.12103491628E+03  0.20449076075E+03  0.25274899639E+03  0.47000000000E+01 0.  1.
         -5    1    1    2    0  502 -0.17812919796E+02  0.18978343328E+02  0.31044063811E+02  0.40783593823E+02  0.47000000000E+01 0.  1.
        -11    1    1    2    0    0 -0.19201663972E+02  0.65804830108E+02  0.19315040038E+03  0.20495379170E+03  0.00000000000E+00 0. -1.
         11    1    1    2    0    0 -0.48974037488E+02  0.36251742848E+02  0.37148851209E+02  0.71363032122E+02  0.00000000000E+00 0.  1.
<mgrwt>
<rscale>  0 0.32821787E+03</rscale>
<asrwt>0</asrwt>
<pdfrwt beam="1">  1        1 0.79667957E-01 0.32821787E+03</pdfrwt>
<pdfrwt beam="2">  1       -1 0.80011802E-02 0.32821787E+03</pdfrwt>
<totfact> 0.37137478E+03</totfact>
</mgrwt>
</event>
<event>
 6    1  0.4705246E-006  0.1252297E+03  0.7546771E-02  0.1250260E+00
         -2   -1    0    0    0  501 -0.00000000000E+00  0.00000000000E+00  0.13511442399E+02  0.13511442399E+02  0.00000000000E+00 0.  1.
          2   -1    0    0  501    0  0.00000000000E+00 -0.00000000000E+00 -0.10329724816E+04  0.10329724816E+04  0.00000000000E+00 0. -1.
          5    1    1    2  502    0  0.54357758344E+02  0.11836715085E+02 -0.52239944460E+03  0.52537428890E+03  0.47000000000E+01 0.  1.
         -5    1    1    2    0  502 -0.57567653421E+02 -0.18702621194E+02 -0.26076645413E+03  0.26774065130E+03  0.47000000000E+01 0.  1.
        -11    1    1    2    0    0 -0.36913704979E+02  0.85247929220E+01 -0.49653872045E+02  0.62456390536E+02  0.00000000000E+00 0.  1.
         11    1    1    2    0    0  0.40123600056E+02 -0.16588868126E+01 -0.18664126840E+03  0.19091259323E+03  0.00000000000E+00 0. -1.
<mgrwt>
<rscale>  0 0.11576020E+03</rscale>
<asrwt>0</asrwt>
<pdfrwt beam="2">  1        2 0.15891887E+00 0.12522972E+03</pdfrwt>
<pdfrwt beam="1">  1       -2 0.20786831E-02 0.12522972E+03</pdfrwt>
<totfact> 0.17407212E+04</totfact>
</mgrwt>
</event>
<event>
 6    1  0.4705246E-006  0.1400815E+03  0.7546771E-02  0.1224767E+00
         -1   -1    0    0    0  501 -0.00000000000E+00  0.00000000000E+00  0.40318821554E+03  0.40318821554E+03  0.00000000000E+00 0.  1.
          1   -1    0    0  501    0  0.00000000000E+00 -0.00000000000E+00 -0.56582139503E+02  0.56582139503E+02  0.00000000000E+00 0. -1.
          5    1    1    2  502    0 -0.67754454901E+02  0.19997876878E+02  0.38874395667E+02  0.80770600326E+02  0.47000000000E+01 0.  1.
         -5    1    1    2    0  502  0.22664580093E+02 -0.64309554804E+02  0.20325304862E+02  0.71306451655E+02  0.47000000000E+01 0.  1.
        -11    1    1    2    0    0  0.14747135673E+02  0.59564521366E+02  0.24889130880E+03  0.25634409261E+03  0.00000000000E+00 0.  1.
         11    1    1    2    0    0  0.30342739134E+02 -0.15252843440E+02  0.38515066700E+02  0.51349210452E+02  0.00000000000E+00 0. -1.
<mgrwt>
<rscale>  0 0.13182911E+03</rscale>
<asrwt>0</asrwt>
<pdfrwt beam="2">  1        1 0.87049448E-02 0.14008149E+03</pdfrwt>
<pdfrwt beam="1">  1       -1 0.62028954E-01 0.14008149E+03</pdfrwt>
<totfact> 0.20532332E+03</totfact>
</mgrwt>
</event>
<event>
 6    1  0.4705246E-006  0.1325360E+03  0.7546771E-02  0.1233804E+00
          2   -1    0    0  501    0  0.00000000000E+00  0.00000000000E+00  0.85097152067E+03  0.85097152067E+03  0.00000000000E+00 0. -1.
         -2   -1    0    0    0  501 -0.00000000000E+00 -0.00000000000E+00 -0.25645542175E+02  0.25645542175E+02  0.00000000000E+00 0.  1.
          5    1    1    2  502    0  0.63607047552E+02  0.42231595336E+02  0.42886163148E+03  0.43563029406E+03  0.47000000000E+01 0.  1.
         -5    1    1    2    0  502 -0.55445733026E+02  0.10533211692E+01  0.26648531704E+03  0.27223492244E+03  0.47000000000E+01 0.  1.
        -11    1    1    2    0    0 -0.32936506457E+02 -0.35848448206E+02  0.13400456055E+03  0.14257330376E+03  0.00000000000E+00 0. -1.
         11    1    1    2    0    0  0.24775191931E+02 -0.74364682988E+01 -0.40255305741E+01  0.26178542595E+02  0.00000000000E+00 0.  1.
<mgrwt>
<rscale>  0 0.12581322E+03</rscale>
<asrwt>0</asrwt>
<pdfrwt beam="1">  1        2 0.13091867E+00 0.13253598E+03</pdfrwt>
<pdfrwt beam="2">  1       -2 0.39454687E-02 0.13253598E+03</pdfrwt>
<totfact> 0.88367216E+03</totfact>
</mgrwt>
</event>
<event>
 6    1  0.4705246E-006  0.2469874E+03  0.7546771E-02  0.1115224E+00
          1   -1    0    0  501    0  0.00000000000E+00  0.00000000000E+00  0.48434579785E+03  0.48434579785E+03  0.00000000000E+00 0. -1.
         -1   -1    0    0    0  501 -0.00000000000E+00 -0.00000000000E+00 -0.31487204249E+02  0.31487204249E+02  0.00000000000E+00 0.  1.
          5    1    1    2  502    0 -0.34623901286E+02  0.87507926332E+02  0.20915710118E+03  0.22940190646E+03  0.47000000000E+01 0.  1.
         -5    1    1    2    0  502  0.20443143317E+02 -0.36036513065E+02  0.92563094333E+02  0.10152127272E+03  0.47000000000E+01 0.  1.
        -11    1    1    2    0    0 -0.21523674294E+02 -0.34109593811E+02  0.14887909016E+02  0.42992822424E+02  0.00000000000E+00 0.  1.
         11    1    1    2    0    0  0.35704432263E+02 -0.17361819456E+02  0.13625048908E+03  0.14191700050E+03  0.00000000000E+00 0. -1.
<mgrwt>
<rscale>  0 0.24698741E+03</rscale>
<asrwt>0</asrwt>
<pdfrwt beam="1">  1        1 0.74514732E-01 0.24698741E+03</pdfrwt>
<pdfrwt beam="2">  1       -1 0.48441856E-02 0.24698741E+03</pdfrwt>
<totfact> 0.86041787E+03</totfact>
</mgrwt>
</event>
<event>
 6    1  0.4705246E-006  0.1320899E+03  0.7546771E-02  0.1237966E+00
         -3   -1    0    0    0  501 -0.00000000000E+00  0.00000000000E+00  0.83619705106E+02  0.83619705106E+02  0.00000000000E+00 0.  1.
          3   -1    0    0  501    0  0.00000000000E+00 -0.00000000000E+00 -0.21529894718E+03  0.21529894718E+03  0.00000000000E+00 0. -1.
          5    1    1    2  502    0  0.52793003567E+01 -0.45788477229E+02 -0.31657363505E+02  0.56113584125E+02  0.47000000000E+01 0.  1.
         -5    1    1    2    0  502 -0.39038416427E+02  0.71903202455E+02 -0.11564896525E+03  0.14174216608E+03  0.47000000000E+01 0.  1.
        -11    1    1    2    0    0  0.20209908510E+02  0.76689163214E+01  0.47814335708E+02  0.52473454038E+02  0.00000000000E+00 0.  1.
         11    1    1    2    0    0  0.13549207560E+02 -0.33783641547E+02 -0.32187249024E+02  0.48589448046E+02  0.00000000000E+00 0. -1.
<mgrwt>
<rscale>  0 0.12316475E+03</rscale>
<asrwt>0</asrwt>
<pdfrwt beam="2">  1        3 0.33122915E-01 0.13208991E+03</pdfrwt>
<pdfrwt beam="1">  1       -3 0.12864570E-01 0.13208991E+03</pdfrwt>
<totfact> 0.98864342E+02</totfact>
</mgrwt>
</event>
<event>
 6    1  0.4705246E-006  0.3825196E+03  0.7546771E-02  0.1050006E+00
          1   -1    0    0  501    0  0.00000000000E+00  0.00000000000E+00  0.18335080623E+03  0.18335080623E+03  0.00000000000E+00 0. -1.
         -1   -1    0    0    0  501 -0.00000000000E+00 -0.00000000000E+00 -0.19950992423E+03  0.19950992423E+03  0.00000000000E+00 0.  1.
          5    1    1    2  502    0 -0.98336325074E+02  0.20664334790E+01  0.12860268730E+03  0.16197235615E+03  0.47000000000E+01 0. -1.
         -5    1    1    2    0  502  0.26442239577E+02 -0.13192118472E+02  0.12014844984E+01  0.29945911050E+02  0.47000000000E+01 0.  1.
        -11    1    1    2    0    0  0.33449495436E+02 -0.43087048702E+02 -0.48590245762E+02  0.73050492770E+02  0.00000000000E+00 0.  1.
         11    1    1    2    0    0  0.38444590062E+02  0.54212733695E+02 -0.97373044034E+02  0.11789197048E+03  0.00000000000E+00 0. -1.
<mgrwt>
<rscale>  0 0.38251957E+03</rscale>
<asrwt>0</asrwt>
<pdfrwt beam="1">  1        1 0.28207816E-01 0.38251957E+03</pdfrwt>
<pdfrwt beam="2">  1       -1 0.30693834E-01 0.38251957E+03</pdfrwt>
<totfact> 0.16175592E+03</totfact>
</mgrwt>
</event>
<event>
 6    1  0.4705246E-006  0.1549307E+03  0.7546771E-02  0.1202887E+00
         -1   -1    0    0    0  501 -0.00000000000E+00  0.00000000000E+00  0.87050499670E+02  0.87050499670E+02  0.00000000000E+00 0.  1.
          1   -1    0    0  501    0  0.00000000000E+00 -0.00000000000E+00 -0.23228897173E+03  0.23228897173E+03  0.00000000000E+00 0. -1.
          5    1    1    2  502    0 -0.23969254445E+02 -0.30469142184E+02  0.24542666645E+02  0.46122947327E+02  0.47000000000E+01 0.  1.
         -5    1    1    2    0  502 -0.67046756380E+02  0.20684871361E+02 -0.11071377002E+03  0.13115929367E+03  0.47000000000E+01 0.  1.
        -11    1    1    2    0    0  0.37776238801E+02 -0.31821329380E+02  0.40974657628E+01  0.49562389441E+02  0.00000000000E+00 0.  1.
         11    1    1    2    0    0  0.53239772025E+02  0.41605600202E+02 -0.63164834444E+02  0.92494840958E+02  0.00000000000E+00 0. -1.
<mgrwt>
<rscale>  0 0.14805207E+03</rscale>
<asrwt>0</asrwt>
<pdfrwt beam="2">  1        1 0.35736765E-01 0.15493074E+03</pdfrwt>
<pdfrwt beam="1">  1       -1 0.13392385E-01 0.15493074E+03</pdfrwt>
<totfact> 0.45121698E+03</totfact>
</mgrwt>
</event>
<event>
 6    1  0.4705246E-006  0.1413401E+03  0.7546771E-02  0.1223195E+00
         -2   -1    0    0    0  501 -0.00000000000E+00  0.00000000000E+00  0.91200216265E+01  0.91200216265E+01  0.00000000000E+00 0.  1.
          2   -1    0    0  501    0  0.00000000000E+00 -0.00000000000E+00 -0.20153834499E+04  0.20153834499E+04  0.00000000000E+00 0. -1.
          5    1    1    2  502    0 -0.43490543745E+02  0.77554994492E+02 -0.63724082184E+03  0.64343155004E+03  0.47000000000E+01 0.  1.
         -5    1    1    2    0  502 -0.18961564795E+01 -0.29672496760E+02 -0.84417664624E+03  0.84471317767E+03  0.47000000000E+01 0.  1.
        -11    1    1    2    0    0 -0.19567424391E+02  0.11179721801E+02 -0.12095065500E+03  0.12303223652E+03  0.00000000000E+00 0. -1.
         11    1    1    2    0    0  0.64954124615E+02 -0.59062219533E+02 -0.40389530514E+03  0.41332650724E+03  0.00000000000E+00 0.  1.
<mgrwt>
<rscale>  0 0.13291421E+03</rscale>
<asrwt>0</asrwt>
<pdfrwt beam="2">  1        2 0.31005914E+00 0.14134007E+03</pdfrwt>
<pdfrwt beam="1">  1       -2 0.14030796E-02 0.14134007E+03</pdfrwt>
<totfact> 0.93472972E+03</totfact>
</mgrwt>
</event>
<event>
 6    1  0.4705246E-006  0.2407443E+03  0.7546771E-02  0.1122266E+00
         -3   -1    0    0    0  501 -0.00000000000E+00  0.00000000000E+00  0.88888975522E+02  0.88888975522E+02  0.00000000000E+00 0.  1.
          3   -1    0    0  501    0  0.00000000000E+00 -0.00000000000E+00 -0.62546095659E+03  0.62546095659E+03  0.00000000000E+00 0. -1.
          5    1    1    2  502    0 -0.27334405803E+02  0.70923074580E+02 -0.23433170865E+03  0.24639539754E+03  0.47000000000E+01 0. -1.
         -5    1    1    2    0  502 -0.91996631673E+02  0.96688726952E+02 -0.10611176067E+03  0.17056929944E+03  0.47000000000E+01 0. -1.
        -11    1    1    2    0    0  0.45864084477E+02 -0.13509087680E+03 -0.13522111495E+03  0.19656502529E+03  0.00000000000E+00 0.  1.
         11    1    1    2    0    0  0.73466952999E+02 -0.32520924733E+02 -0.60907396796E+02  0.10082020984E+03  0.00000000000E+00 0. -1.
<mgrwt>
<rscale>  0 0.23632374E+03</rscale>
<asrwt>0</asrwt>
<pdfrwt beam="2">  1        3 0.96224763E-01 0.24074427E+03</pdfrwt>
<pdfrwt beam="1">  1       -3 0.13675227E-01 0.24074427E+03</pdfrwt>
<totfact> 0.10687586E+02</totfact>
</mgrwt>
</event>
<event>
 6    1  0.4705246E-006  0.1683211E+03  0.7546771E-02  0.1186470E+00
         -1   -1    0    0    0  501 -0.00000000000E+00  0.00000000000E+00  0.96852403333E+02  0.96852403333E+02  0.00000000000E+00 0.  1.
          1   -1    0    0  501    0  0.00000000000E+00 -0.00000000000E+00 -0.26348558122E+03  0.26348558122E+03  0.00000000000E+00 0. -1.
          5    1    1    2  502    0 -0.13123684175E+02  0.18183811347E+02 -0.10262791694E+03  0.10515446456E+03  0.47000000000E+01 0.  1.
         -5    1    1    2    0  502  0.54896998437E+02  0.86520853279E+02 -0.23641746695E+02  0.10526424215E+03  0.47000000000E+01 0.  1.
        -11    1    1    2    0    0 -0.26676324254E+02 -0.86206414862E+02  0.13270968487E+02  0.91210146605E+02  0.00000000000E+00 0. -1.
         11    1    1    2    0    0 -0.15096990007E+02 -0.18498249765E+02 -0.53634482744E+02  0.58709131239E+02  0.00000000000E+00 0.  1.
<mgrwt>
<rscale>  0 0.16198818E+03</rscale>
<asrwt>0</asrwt>
<pdfrwt beam="2">  1        1 0.40536242E-01 0.16832113E+03</pdfrwt>
<pdfrwt beam="1">  1       -1 0.14900370E-01 0.16832113E+03</pdfrwt>
<totfact> 0.32768793E+03</totfact>
</mgrwt>
</event>
<event>
 6    1  0.4705246E-006  0.1609745E+03  0.7546771E-02  0.1213483E+00
          1   -1    0    0  501    0  0.00000000000E+00  0.00000000000E+00  0.52509127473E+03  0.52509127473E+03  0.00000000000E+00 0. -1.
         -1   -1    0    0    0  501 -0.00000000000E+00 -0.00000000000E+00 -0.32297630717E+02  0.32297630717E+02  0.00000000000E+00 0.  1.
          5    1    1    2  502    0  0.43423241586E+02 -0.68400822506E+02  0.11819760940E+03  0.14337717844E+03  0.47000000000E+01 0. -1.
         -5    1    1    2    0  502 -0.39366992049E+02  0.50614749177E+02  0.25650410341E+03  0.26443913848E+03  0.47000000000E+01 0.  1.
        -11    1    1    2    0    0  0.78368264935E+00  0.34179210808E+02  0.12613207965E+03  0.13068333531E+03  0.00000000000E+00 0. -1.
         11    1    1    2    0    0 -0.48399321860E+01 -0.16393137479E+02 -0.80401484477E+01  0.18889253215E+02  0.00000000000E+00 0.  1.
<mgrwt>
<rscale>  0 0.13988529E+03</rscale>
<asrwt>0</asrwt>
<pdfrwt beam="1">  1        1 0.80783267E-01 0.16097445E+03</pdfrwt>
<pdfrwt beam="2">  1       -1 0.49688667E-02 0.16097445E+03</pdfrwt>
<totfact> 0.72711363E+03</totfact>
</mgrwt>
</event>
<event>
 6    1  0.4705246E-006  0.1719301E+03  0.7546771E-02  0.1181943E+00
          1   -1    0    0  501    0  0.00000000000E+00  0.00000000000E+00  0.20772013369E+03  0.20772013369E+03  0.00000000000E+00 0. -1.
         -1   -1    0    0    0  501 -0.00000000000E+00 -0.00000000000E+00 -0.17239359978E+03  0.17239359978E+03  0.00000000000E+00 0.  1.
          5    1    1    2  502    0  0.66437654720E+02 -0.35005237189E+02  0.11494892144E+03  0.13738512706E+03  0.47000000000E+01 0. -1.
         -5    1    1    2    0  502 -0.12534831706E+02 -0.70013848230E+02  0.34436726051E+01  0.71365326531E+02  0.47000000000E+01 0. -1.
        -11    1    1    2    0    0 -0.24720975554E+02  0.81023932400E+02 -0.99056169464E+02  0.13033851680E+03  0.00000000000E+00 0.  1.
         11    1    1    2    0    0 -0.29181847461E+02  0.23995153019E+02  0.15990109327E+02  0.41024763082E+02  0.00000000000E+00 0. -1.
<mgrwt>
<rscale>  0 0.16613194E+03</rscale>
<asrwt>0</asrwt>
<pdfrwt beam="1">  1        1 0.31956944E-01 0.17193006E+03</pdfrwt>
<pdfrwt beam="2">  1       -1 0.26522092E-01 0.17193006E+03</pdfrwt>
<totfact> 0.17377542E+03</totfact>
</mgrwt>
</event>
<event>
 6    1  0.4705246E-006  0.1942027E+03  0.7546771E-02  0.1168553E+00
          1   -1    0    0  501    0  0.00000000000E+00  0.00000000000E+00  0.19945743089E+03  0.19945743089E+03  0.00000000000E+00 0. -1.
         -1   -1    0    0    0  501 -0.00000000000E+00 -0.00000000000E+00 -0.14645469873E+03  0.14645469873E+03  0.00000000000E+00 0.  1.
          5    1    1    2  502    0  0.13012194848E+02 -0.31963083630E+02 -0.33999937669E+02  0.48672802379E+02  0.47000000000E+01 0. -1.
         -5    1    1    2    0  502 -0.11835200144E+03  0.24700748779E+02  0.98318812228E+02  0.15590382315E+03  0.47000000000E+01 0.  1.
        -11    1    1    2    0    0  0.40483038990E+02  0.44495537610E+02  0.15101025771E+02  0.62022337044E+02  0.00000000000E+00 0. -1.
         11    1    1    2    0    0  0.64856767605E+02 -0.37233202759E+02 -0.26417168171E+02  0.79313167041E+02  0.00000000000E+00 0.  1.
<mgrwt>
<rscale>  0 0.17922768E+03</rscale>
<asrwt>0</asrwt>
<pdfrwt beam="1">  1        1 0.30685759E-01 0.19420267E+03</pdfrwt>
<pdfrwt beam="2">  1       -1 0.22531492E-01 0.19420267E+03</pdfrwt>
<totfact> 0.24026942E+03</totfact>
</mgrwt>
</event>
<event>
 6    1  0.4705246E-006  0.1411703E+03  0.7546771E-02  0.1223556E+00
         -1   -1    0    0    0  501 -0.00000000000E+00  0.00000000000E+00  0.63897433083E+02  0.63897433083E+02  0.00000000000E+00 0.  1.
          1   -1    0    0  501    0  0.00000000000E+00 -0.00000000000E+00 -0.26331835157E+03  0.26331835157E+03  0.00000000000E+00 0. -1.
          5    1    1    2  502    0  0.51795480688E+01  0.93243944288E+02 -0.81481150951E+02  0.12402632311E+03  0.47000000000E+01 0. -1.
         -5    1    1    2    0  502 -0.30138939735E+02 -0.32572017090E+02 -0.70210965970E+02  0.83192317722E+02  0.47000000000E+01 0. -1.
        -11    1    1    2    0    0  0.10076030953E+02 -0.64620839871E+02  0.44897125131E+01  0.65555601315E+02  0.00000000000E+00 0.  1.
         11    1    1    2    0    0  0.14883360713E+02  0.39489126726E+01 -0.52218514080E+02  0.54441542503E+02  0.00000000000E+00 0. -1.
<mgrwt>
<rscale>  0 0.13266341E+03</rscale>
<asrwt>0</asrwt>
<pdfrwt beam="2">  1        1 0.40510516E-01 0.14117035E+03</pdfrwt>
<pdfrwt beam="1">  1       -1 0.98303742E-02 0.14117035E+03</pdfrwt>
<totfact> 0.61886559E+03</totfact>
</mgrwt>
</event>
<event>
 6    1  0.4705246E-006  0.1330112E+03  0.7546771E-02  0.1235822E+00
          2   -1    0    0  501    0  0.00000000000E+00  0.00000000000E+00  0.37983504122E+03  0.37983504122E+03  0.00000000000E+00 0. -1.
         -2   -1    0    0    0  501 -0.00000000000E+00 -0.00000000000E+00 -0.54180053238E+02  0.54180053238E+02  0.00000000000E+00 0.  1.
          5    1    1    2  502    0 -0.39955578923E+02  0.15595167161E+02  0.15016223458E+03  0.15623842107E+03  0.47000000000E+01 0. -1.
         -5    1    1    2    0  502  0.65076643218E+02 -0.53491868110E+02  0.15060485734E+03  0.17262752532E+03  0.47000000000E+01 0. -1.
        -11    1    1    2    0    0  0.34550735626E+02  0.17912003756E+02  0.13532467438E+02  0.41203408667E+02  0.00000000000E+00 0. -1.
         11    1    1    2    0    0 -0.59671799921E+02  0.19984697193E+02  0.11355428634E+02  0.63945739398E+02  0.00000000000E+00 0.  1.
<mgrwt>
<rscale>  0 0.12451959E+03</rscale>
<asrwt>0</asrwt>
<pdfrwt beam="1">  1        2 0.58436159E-01 0.13301115E+03</pdfrwt>
<pdfrwt beam="2">  1       -2 0.83353930E-02 0.13301115E+03</pdfrwt>
<totfact> 0.71397052E+03</totfact>
</mgrwt>
</event>
<event>
 6    1  0.4705246E-006  0.1318616E+03  0.7546771E-02  0.1237700E+00
         -1   -1    0    0    0  501 -0.00000000000E+00  0.00000000000E+00  0.91580676010E+02  0.91580676010E+02  0.00000000000E+00 0.  1.
          1   -1    0    0  501    0  0.00000000000E+00 -0.00000000000E+00 -0.14831148788E+03  0.14831148788E+03  0.00000000000E+00 0. -1.
          5    1    1    2  502    0 -0.36264644719E+02 -0.10559865065E+02  0.16437976912E+02  0.41460008343E+02  0.47000000000E+01 0.  1.
         -5    1    1    2    0  502  0.70125949806E+02  0.35380663941E+02 -0.54732327697E+02  0.95849663078E+02  0.47000000000E+01 0.  1.
        -11    1    1    2    0    0 -0.16333537167E+02 -0.48646576637E+02  0.19133325479E+02  0.54766394795E+02  0.00000000000E+00 0.  1.
         11    1    1    2    0    0 -0.17527767920E+02  0.23825777762E+02 -0.37569786562E+02  0.47816097672E+02  0.00000000000E+00 0. -1.
<mgrwt>
<rscale>  0 0.12333170E+03</rscale>
<asrwt>0</asrwt>
<pdfrwt beam="2">  1        1 0.22817152E-01 0.13186163E+03</pdfrwt>
<pdfrwt beam="1">  1       -1 0.14089335E-01 0.13186163E+03</pdfrwt>
<totfact> 0.72298815E+03</totfact>
</mgrwt>
</event>
<event>
 6    1  0.4863939E-006  0.2402378E+03  0.7546771E-02  0.1122308E+00
         -1   -1    0    0    0  501 -0.00000000000E+00  0.00000000000E+00  0.25088535618E+03  0.25088535618E+03  0.00000000000E+00 0.  1.
          1   -1    0    0  501    0  0.00000000000E+00 -0.00000000000E+00 -0.24328135438E+03  0.24328135438E+03  0.00000000000E+00 0. -1.
          5    1    1    2  502    0  0.59345042978E+02 -0.46806612221E+02 -0.94647181970E+02  0.12121415812E+03  0.47000000000E+01 0. -1.
         -5    1    1    2    0  502  0.80683842972E+02 -0.10313025394E+03  0.15001406436E+02  0.13188200783E+03  0.47000000000E+01 0. -1.
        -11    1    1    2    0    0 -0.10240677379E+03  0.12227972271E+03  0.22256964370E+02  0.16104300782E+03  0.00000000000E+00 0.  1.
         11    1    1    2    0    0 -0.37622112163E+02  0.27657143445E+02  0.64992812969E+02  0.80027536791E+02  0.00000000000E+00 0. -1.
<mgrwt>
<rscale>  0 0.23626269E+03</rscale>
<asrwt>0</asrwt>
<pdfrwt beam="2">  1        1 0.37427901E-01 0.24023784E+03</pdfrwt>
<pdfrwt beam="1">  1       -1 0.38597747E-01 0.24023784E+03</pdfrwt>
<totfact> 0.75381694E+02</totfact>
</mgrwt>
</event>
<event>
 6    1  0.4705246E-006  0.2749291E+03  0.7546771E-02  0.1098491E+00
          1   -1    0    0  501    0  0.00000000000E+00  0.00000000000E+00  0.18147371143E+03  0.18147371143E+03  0.00000000000E+00 0. -1.
         -1   -1    0    0    0  501 -0.00000000000E+00 -0.00000000000E+00 -0.10412807646E+03  0.10412807646E+03  0.00000000000E+00 0.  1.
          5    1    1    2  502    0 -0.60361010102E+02  0.24336715621E+02 -0.23063040509E+02  0.69207811014E+02  0.47000000000E+01 0. -1.
         -5    1    1    2    0  502 -0.94341636402E+01  0.14729911559E+02  0.93170443849E+02  0.94914674024E+02  0.47000000000E+01 0. -1.
        -11    1    1    2    0    0  0.19768634873E+02 -0.20414371156E+02 -0.40757953499E+02  0.49686580158E+02  0.00000000000E+00 0.  1.
         11    1    1    2    0    0  0.50026538870E+02 -0.18652256024E+02  0.47996185128E+02  0.71792722702E+02  0.00000000000E+00 0. -1.
<mgrwt>
<rscale>  0 0.27492914E+03</rscale>
<asrwt>0</asrwt>
<pdfrwt beam="1">  1        1 0.27919032E-01 0.27492914E+03</pdfrwt>
<pdfrwt beam="2">  1       -1 0.16019704E-01 0.27492914E+03</pdfrwt>
<totfact> 0.47694016E+03</totfact>
</mgrwt>
</event>
<event>
 6    1  0.4705246E-006  0.2823842E+03  0.7546771E-02  0.1132827E+00
          2   -1    0    0  501    0  0.00000000000E+00  0.00000000000E+00  0.51835348651E+03  0.51835348651E+03  0.00000000000E+00 0. -1.
         -2   -1    0    0    0  501 -0.00000000000E+00 -0.00000000000E+00 -0.73174667079E+02  0.73174667079E+02  0.00000000000E+00 0.  1.
          5    1    1    2  502    0  0.11442503152E+03 -0.24749049333E+02  0.36380007169E+03  0.38220176013E+03  0.47000000000E+01 0. -1.
         -5    1    1    2    0  502 -0.35513530455E+02  0.30760041522E+02 -0.29288883895E+02  0.55563654664E+02  0.47000000000E+01 0.  1.
        -11    1    1    2    0    0 -0.69560012440E+02 -0.17184731755E+02  0.40926923463E+02  0.82516200835E+02  0.00000000000E+00 0. -1.
         11    1    1    2    0    0 -0.93514886276E+01  0.11173739566E+02  0.69740708166E+02  0.71246537957E+02  0.00000000000E+00 0.  1.
<mgrwt>
<rscale>  0 0.22142297E+03</rscale>
<asrwt>0</asrwt>
<pdfrwt beam="1">  1        2 0.79746688E-01 0.28238418E+03</pdfrwt>
<pdfrwt beam="2">  1       -2 0.11257641E-01 0.28238418E+03</pdfrwt>
<totfact> 0.32682629E+03</totfact>
</mgrwt>
</event>
<event>
 6    1  0.4705246E-006  0.2032695E+03  0.7546771E-02  0.1151022E+00
         -1   -1    0    0    0  501 -0.00000000000E+00  0.00000000000E+00  0.18626551270E+02  0.18626551270E+02  0.00000000000E+00 0.  1.
          1   -1    0    0  501    0  0.00000000000E+00 -0.00000000000E+00 -0.30815393087E+04  0.30815393087E+04  0.00000000000E+00 0. -1.
          5    1    1    2  502    0  0.84305993820E+02  0.42875930771E+02 -0.62946867967E+03  0.63655224037E+03  0.47000000000E+01 0. -1.
         -5    1    1    2    0  502  0.50681758156E+02  0.43545019993E+02 -0.18583319659E+04  0.18595388124E+04  0.47000000000E+01 0. -1.
        -11    1    1    2    0    0 -0.30621555696E+02 -0.64602055649E+02 -0.31393002845E+03  0.32196765059E+03  0.00000000000E+00 0. -1.
         11    1    1    2    0    0 -0.10436619628E+03 -0.21818895114E+02 -0.26118208346E+03  0.28210715665E+03  0.00000000000E+00 0.  1.
<mgrwt>
<rscale>  0 0.19848691E+03</rscale>
<asrwt>0</asrwt>
<pdfrwt beam="2">  1        1 0.47408297E+00 0.20326951E+03</pdfrwt>
<pdfrwt beam="1">  1       -1 0.28656233E-02 0.20326951E+03</pdfrwt>
<totfact> 0.26054335E+02</totfact>
</mgrwt>
</event>
<event>
 6    1  0.4705246E-006  0.1291704E+03  0.7546771E-02  0.1243769E+00
          2   -1    0    0  501    0  0.00000000000E+00  0.00000000000E+00  0.47238865299E+03  0.47238865299E+03  0.00000000000E+00 0. -1.
         -2   -1    0    0    0  501 -0.00000000000E+00 -0.00000000000E+00 -0.27848412478E+02  0.27848412478E+02  0.00000000000E+00 0.  1.
          5    1    1    2  502    0 -0.36435663357E+02 -0.31747044669E+02  0.51663875302E+02  0.70899072072E+02  0.47000000000E+01 0.  1.
         -5    1    1    2    0  502  0.58610717670E+02  0.79142866398E+01  0.25591403827E+03  0.26270123171E+03  0.47000000000E+01 0.  1.
        -11    1    1    2    0    0 -0.12317997854E+01 -0.33644120567E+02  0.51845040026E+02  0.61817087887E+02  0.00000000000E+00 0. -1.
         11    1    1    2    0    0 -0.20943254528E+02  0.57476878597E+02  0.85117286911E+02  0.10481967380E+03  0.00000000000E+00 0.  1.
<mgrwt>
<rscale>  0 0.11959350E+03</rscale>
<asrwt>0</asrwt>
<pdfrwt beam="1">  1        2 0.72675171E-01 0.12917039E+03</pdfrwt>
<pdfrwt beam="2">  1       -2 0.42843715E-02 0.12917039E+03</pdfrwt>
<totfact> 0.15458686E+04</totfact>
</mgrwt>
</event>
<event>
 6    1  0.4705246E-006  0.2544495E+03  0.7546771E-02  0.1110525E+00
          1   -1    0    0  501    0  0.00000000000E+00  0.00000000000E+00  0.69826902512E+03  0.69826902512E+03  0.00000000000E+00 0. -1.
         -1   -1    0    0    0  501 -0.00000000000E+00 -0.00000000000E+00 -0.23180377563E+02  0.23180377563E+02  0.00000000000E+00 0.  1.
          5    1    1    2  502    0 -0.56959423821E+02 -0.49797964514E+02  0.15040032665E+03  0.16842375571E+03  0.47000000000E+01 0.  1.
         -5    1    1    2    0  502  0.88849099232E+01  0.22703983229E+02  0.33282240020E+03  0.33374728846E+03  0.47000000000E+01 0.  1.
        -11    1    1    2    0    0  0.43731901310E+02 -0.18052629928E+02  0.43987349143E+02  0.64600801265E+02  0.00000000000E+00 0.  1.
         11    1    1    2    0    0  0.43426125876E+01  0.45146611213E+02  0.14787857157E+03  0.15467755725E+03  0.00000000000E+00 0. -1.
<mgrwt>
<rscale>  0 0.25444952E+03</rscale>
<asrwt>0</asrwt>
<pdfrwt beam="1">  1        1 0.10742599E+00 0.25444952E+03</pdfrwt>
<pdfrwt beam="2">  1       -1 0.35662125E-02 0.25444952E+03</pdfrwt>
<totfact> 0.82047235E+03</totfact>
</mgrwt>
</event>
<event>
 6    1  0.4705246E-006  0.2941838E+03  0.7546771E-02  0.1090312E+00
          4   -1    0    0  501    0  0.00000000000E+00  0.00000000000E+00  0.12172110270E+03  0.12172110270E+03  0.00000000000E+00 0. -1.
         -4   -1    0    0    0  501 -0.00000000000E+00 -0.00000000000E+00 -0.70028096576E+03  0.70028096576E+03  0.00000000000E+00 0.  1.
          5    1    1    2  502    0 -0.39001376804E+02  0.79541310010E+02 -0.59955334255E+01  0.88915486907E+02  0.47000000000E+01 0. -1.
         -5    1    1    2    0  502 -0.11327781381E+03  0.13892811082E+03 -0.20943552627E+03  0.27571400534E+03  0.47000000000E+01 0. -1.
        -11    1    1    2    0    0  0.46023116360E+02 -0.12126693660E+03 -0.13208052519E+03  0.18511904895E+03  0.00000000000E+00 0. -1.
         11    1    1    2    0    0  0.10625607425E+03 -0.97202484232E+02 -0.23104827818E+03  0.27225352726E+03  0.00000000000E+00 0.  1.
<mgrwt>
<rscale>  0 0.29007186E+03</rscale>
<asrwt>0</asrwt>
<pdfrwt beam="1">  1        4 0.18726324E-01 0.29418383E+03</pdfrwt>
<pdfrwt beam="2">  1       -4 0.10773553E+00 0.29418383E+03</pdfrwt>
<totfact> 0.33647812E+01</totfact>
</mgrwt>
</event>
<event>
 6    1  0.4705246E-006  0.1293756E+03  0.7546771E-02  0.1243349E+00
         -1   -1    0    0    0  501 -0.00000000000E+00  0.00000000000E+00  0.47802999060E+02  0.47802999060E+02  0.00000000000E+00 0.  1.
          1   -1    0    0  501    0  0.00000000000E+00 -0.00000000000E+00 -0.31270698155E+03  0.31270698155E+03  0.00000000000E+00 0. -1.
          5    1    1    2  502    0 -0.16726297487E+02  0.41988053266E+01  0.10712177648E+02  0.20838419896E+02  0.47000000000E+01 0. -1.
         -5    1    1    2    0  502  0.32385660986E+02  0.25315935965E+02 -0.23063428842E+03  0.23431601022E+03  0.47000000000E+01 0. -1.
        -11    1    1    2    0    0 -0.26057016061E+02  0.24451642551E+02 -0.33972096644E+02  0.49304708292E+02  0.00000000000E+00 0. -1.
         11    1    1    2    0    0  0.10397652562E+02 -0.53966383842E+02 -0.11009775069E+02  0.56050842196E+02  0.00000000000E+00 0.  1.
<mgrwt>
<rscale>  0 0.11984741E+03</rscale>
<asrwt>0</asrwt>
<pdfrwt beam="2">  1        1 0.48108766E-01 0.12937561E+03</pdfrwt>
<pdfrwt beam="1">  1       -1 0.73543076E-02 0.12937561E+03</pdfrwt>
<totfact> 0.77175194E+03</totfact>
</mgrwt>
</event>
<event>
 6    1  0.4705246E-006  0.1393397E+03  0.7546771E-02  0.1224988E+00
         -2   -1    0    0    0  501 -0.00000000000E+00  0.00000000000E+00  0.49486563350E+02  0.49486563350E+02  0.00000000000E+00 0.  1.
          2   -1    0    0  501    0  0.00000000000E+00 -0.00000000000E+00 -0.31698379606E+03  0.31698379606E+03  0.00000000000E+00 0. -1.
          5    1    1    2  502    0  0.15005297515E+02  0.78521984505E+02 -0.34789649607E+02  0.87311343615E+02  0.47000000000E+01 0.  1.
         -5    1    1    2    0  502 -0.10873158613E+02 -0.17084491043E+02 -0.11661228930E+03  0.11845092413E+03  0.47000000000E+01 0.  1.
        -11    1    1    2    0    0  0.26290779899E+02 -0.73277403371E+02 -0.73726641602E+02  0.10722126951E+03  0.00000000000E+00 0.  1.
         11    1    1    2    0    0 -0.30422918801E+02  0.11839909909E+02 -0.42368652205E+02  0.53486822159E+02  0.00000000000E+00 0. -1.
<mgrwt>
<rscale>  0 0.13167706E+03</rscale>
<asrwt>0</asrwt>
<pdfrwt beam="2">  1        2 0.48766738E-01 0.13933974E+03</pdfrwt>
<pdfrwt beam="1">  1       -2 0.76133175E-02 0.13933974E+03</pdfrwt>
<totfact> 0.99829654E+03</totfact>
</mgrwt>
</event>
<event>
 6    1  0.4705246E-006  0.3390409E+03  0.7546771E-02  0.1067205E+00
         -2   -1    0    0    0  501 -0.00000000000E+00  0.00000000000E+00  0.21810030264E+02  0.21810030264E+02  0.00000000000E+00 0.  1.
          2   -1    0    0  501    0  0.00000000000E+00 -0.00000000000E+00 -0.13176133344E+04  0.13176133344E+04  0.00000000000E+00 0. -1.
          5    1    1    2  502    0  0.55839330621E+02 -0.11611365607E+03 -0.78515553916E+03  0.79567061190E+03  0.47000000000E+01 0.  1.
         -5    1    1    2    0  502  0.91578356249E+01  0.33045766184E+02 -0.20395117441E+03  0.20686725251E+03  0.47000000000E+01 0.  1.
        -11    1    1    2    0    0  0.14192394722E+02  0.52037401516E+02 -0.10681941201E+03  0.11966495731E+03  0.00000000000E+00 0.  1.
         11    1    1    2    0    0 -0.79189560968E+02  0.31030488365E+02 -0.19987717858E+03  0.21722054298E+03  0.00000000000E+00 0. -1.
<mgrwt>
<rscale>  0 0.33904092E+03</rscale>
<asrwt>0</asrwt>
<pdfrwt beam="2">  1        2 0.20270974E+00 0.33904092E+03</pdfrwt>
<pdfrwt beam="1">  1       -2 0.33553893E-02 0.33904092E+03</pdfrwt>
<totfact> 0.61647317E+03</totfact>
</mgrwt>
</event>
<event>
 6    1  0.4705246E-006  0.3314159E+03  0.7546771E-02  0.1070512E+00
         -1   -1    0    0    0  501 -0.00000000000E+00  0.00000000000E+00  0.31806272790E+03  0.31806272790E+03  0.00000000000E+00 0.  1.
          1   -1    0    0  501    0  0.00000000000E+00 -0.00000000000E+00 -0.86332419436E+02  0.86332419436E+02  0.00000000000E+00 0. -1.
          5    1    1    2  502    0 -0.11269483653E+02  0.20104486188E+02  0.42909748263E+02  0.48933915873E+02  0.47000000000E+01 0. -1.
         -5    1    1    2    0  502 -0.23633563160E+02 -0.13124147481E+03  0.29566475691E+02  0.13667163752E+03  0.47000000000E+01 0. -1.
        -11    1    1    2    0    0  0.20478258045E+02  0.47529801885E+02  0.58342351952E+01  0.52081469066E+02  0.00000000000E+00 0. -1.
         11    1    1    2    0    0  0.14424788768E+02  0.63607186737E+02  0.15341984932E+03  0.16670812488E+03  0.00000000000E+00 0.  1.
<mgrwt>
<rscale>  0 0.33141590E+03</rscale>
<asrwt>0</asrwt>
<pdfrwt beam="2">  1        1 0.13281911E-01 0.33141590E+03</pdfrwt>
<pdfrwt beam="1">  1       -1 0.48932727E-01 0.33141590E+03</pdfrwt>
<totfact> 0.18779259E+03</totfact>
</mgrwt>
</event>
<event>
 6    1  0.4705246E-006  0.2180313E+03  0.7546771E-02  0.1168639E+00
         -1   -1    0    0    0  501 -0.00000000000E+00  0.00000000000E+00  0.22779813927E+03  0.22779813927E+03  0.00000000000E+00 0.  1.
          1   -1    0    0  501    0  0.00000000000E+00 -0.00000000000E+00 -0.15224431163E+03  0.15224431163E+03  0.00000000000E+00 0. -1.
          5    1    1    2  502    0  0.82161555805E+02  0.39634003851E+02  0.50732577142E+02  0.10448569231E+03  0.47000000000E+01 0. -1.
         -5    1    1    2    0  502 -0.40637554735E+02 -0.54249407062E+02 -0.96953181607E+02  0.11839095593E+03  0.47000000000E+01 0.  1.
        -11    1    1    2    0    0 -0.28866470463E+01  0.24456643568E+02  0.11389084466E+03  0.11652289321E+03  0.00000000000E+00 0.  1.
         11    1    1    2    0    0 -0.38637354023E+02 -0.98412403560E+01  0.78835874559E+01  0.40642909454E+02  0.00000000000E+00 0. -1.
<mgrwt>
<rscale>  0 0.17913903E+03</rscale>
<asrwt>0</asrwt>
<pdfrwt beam="2">  1        1 0.23422202E-01 0.21803132E+03</pdfrwt>
<pdfrwt beam="1">  1       -1 0.35045868E-01 0.21803132E+03</pdfrwt>
<totfact> 0.16125604E+03</totfact>
</mgrwt>
</event>
<event>
 6    1  0.4705246E-006  0.1422137E+03  0.7546771E-02  0.1220636E+00
          2   -1    0    0  501    0  0.00000000000E+00  0.00000000000E+00  0.17299903014E+04  0.17299903014E+04  0.00000000000E+00 0.  1.
         -2   -1    0    0    0  501 -0.00000000000E+00 -0.00000000000E+00 -0.12362549202E+02  0.12362549202E+02  0.00000000000E+00 0. -1.
          5    1    1    2  502    0  0.20651709276E+02  0.44663838626E+02  0.44933799511E+03  0.45204875337E+03  0.47000000000E+01 0.  1.
         -5    1    1    2    0  502 -0.87112194696E+02 -0.31410855325E+02  0.89668685448E+03  0.90146801457E+03  0.47000000000E+01 0.  1.
        -11    1    1    2    0    0 -0.18631042435E+02  0.14554637312E+02  0.10412591692E+03  0.10677621357E+03  0.00000000000E+00 0. -1.
         11    1    1    2    0    0  0.85091527855E+02 -0.27807620613E+02  0.26747698565E+03  0.28205986905E+03  0.00000000000E+00 0.  1.
<mgrwt>
<rscale>  0 0.13470536E+03</rscale>
<asrwt>0</asrwt>
<pdfrwt beam="1">  1        2 0.26615216E+00 0.14221373E+03</pdfrwt>
<pdfrwt beam="2">  1       -2 0.19019320E-02 0.14221373E+03</pdfrwt>
<totfact> 0.84295432E+03</totfact>
</mgrwt>
</event>
<event>
 6    1  0.4705246E-006  0.1342597E+03  0.7546771E-02  0.1247091E+00
         -1   -1    0    0    0  501 -0.00000000000E+00  0.00000000000E+00  0.23798536702E+02  0.23798536702E+02  0.00000000000E+00 0.  1.
          1   -1    0    0  501    0  0.00000000000E+00 -0.00000000000E+00 -0.62664499943E+03  0.62664499943E+03  0.00000000000E+00 0. -1.
          5    1    1    2  502    0 -0.42275358274E+02  0.20535625367E+02 -0.40732077742E+03  0.41005026954E+03  0.47000000000E+01 0. -1.
         -5    1    1    2    0  502 -0.26084522317E+01 -0.57483836689E+02 -0.10788685433E+03  0.12236363366E+03  0.47000000000E+01 0.  1.
        -11    1    1    2    0    0  0.14197947846E+01  0.28409967826E+02 -0.58387432377E+02  0.64947935677E+02  0.00000000000E+00 0. -1.
         11    1    1    2    0    0  0.43464015721E+02  0.85382434959E+01 -0.29251398595E+02  0.53081697263E+02  0.00000000000E+00 0.  1.
<mgrwt>
<rscale>  0 0.11761100E+03</rscale>
<asrwt>0</asrwt>
<pdfrwt beam="2">  1        1 0.96406918E-01 0.13425968E+03</pdfrwt>
<pdfrwt beam="1">  1       -1 0.36613135E-02 0.13425968E+03</pdfrwt>
<totfact> 0.88862172E+03</totfact>
</mgrwt>
</event>
<event>
 6    1  0.4705246E-006  0.2315130E+03  0.7546771E-02  0.1127964E+00
         -1   -1    0    0    0  501 -0.00000000000E+00  0.00000000000E+00  0.41193864731E+03  0.41193864731E+03  0.00000000000E+00 0.  1.
          1   -1    0    0  501    0  0.00000000000E+00 -0.00000000000E+00 -0.14010873202E+03  0.14010873202E+03  0.00000000000E+00 0. -1.
          5    1    1    2  502    0  0.17730738170E+02 -0.15396940266E+03 -0.21319573610E+02  0.15651699669E+03  0.47000000000E+01 0. -1.
         -5    1    1    2    0  502  0.30345161043E+02 -0.34873112093E+02  0.63694851660E+02  0.78842164314E+02  0.47000000000E+01 0. -1.
        -11    1    1    2    0    0 -0.38875045650E+02  0.15970650094E+03  0.23383084771E+03  0.28582214918E+03  0.00000000000E+00 0.  1.
         11    1    1    2    0    0 -0.92008535631E+01  0.29136013812E+02 -0.43762104736E+01  0.30866069158E+02  0.00000000000E+00 0. -1.
<mgrwt>
<rscale>  0 0.22812889E+03</rscale>
<asrwt>0</asrwt>
<pdfrwt beam="2">  1        1 0.21555190E-01 0.23151300E+03</pdfrwt>
<pdfrwt beam="1">  1       -1 0.63375176E-01 0.23151300E+03</pdfrwt>
<totfact> 0.60644214E+02</totfact>
</mgrwt>
</event>
<event>
 6    1  0.4705246E-006  0.1240561E+03  0.7546771E-02  0.1277354E+00
          4   -1    0    0  501    0  0.00000000000E+00  0.00000000000E+00  0.64031715603E+02  0.64031715603E+02  0.00000000000E+00 0. -1.
         -4   -1    0    0    0  501 -0.00000000000E+00 -0.00000000000E+00 -0.12849510629E+03  0.12849510629E+03  0.00000000000E+00 0.  1.
          5    1    1    2  502    0 -0.54143626393E+02  0.26173996546E+02  0.26795151947E+02  0.66005155420E+02  0.47000000000E+01 0. -1.
         -5    1    1    2    0  502  0.58754721225E+01 -0.20242282413E+02 -0.58036757846E+02  0.61924360563E+02  0.47000000000E+01 0.  1.
        -11    1    1    2    0    0  0.30396211255E+02  0.84661988245E+01 -0.13432257989E+02  0.34293319114E+02  0.00000000000E+00 0.  1.
         11    1    1    2    0    0  0.17871943016E+02 -0.14397912958E+02 -0.19789526799E+02  0.30303986795E+02  0.00000000000E+00 0. -1.
<mgrwt>
<rscale>  0 0.10141227E+03</rscale>
<asrwt>0</asrwt>
<pdfrwt beam="1">  1        4 0.98510333E-02 0.12405613E+03</pdfrwt>
<pdfrwt beam="2">  1       -4 0.19768478E-01 0.12405613E+03</pdfrwt>
<totfact> 0.28772050E+03</totfact>
</mgrwt>
</event>
<event>
 6    1  0.4705246E-006  0.1292534E+03  0.7546771E-02  0.1242516E+00
          3   -1    0    0  501    0  0.00000000000E+00  0.00000000000E+00  0.12842671237E+03  0.12842671237E+03  0.00000000000E+00 0. -1.
         -3   -1    0    0    0  501 -0.00000000000E+00 -0.00000000000E+00 -0.10057684878E+03  0.10057684878E+03  0.00000000000E+00 0.  1.
          5    1    1    2  502    0 -0.37025220432E+02 -0.17749635946E+02 -0.31637850762E+02  0.52047671659E+02  0.47000000000E+01 0.  1.
         -5    1    1    2    0  502  0.54085632356E+02 -0.10354470409E+02  0.57524860617E+02  0.79772616065E+02  0.47000000000E+01 0.  1.
        -11    1    1    2    0    0 -0.41310059780E+02 -0.17094966956E+02  0.83931166336E+01  0.45488496800E+02  0.00000000000E+00 0.  1.
         11    1    1    2    0    0  0.24249647857E+02  0.45199073311E+02 -0.64302628959E+01  0.51694776624E+02  0.00000000000E+00 0. -1.
<mgrwt>
<rscale>  0 0.12035311E+03</rscale>
<asrwt>0</asrwt>
<pdfrwt beam="1">  1        3 0.19757956E-01 0.12925344E+03</pdfrwt>
<pdfrwt beam="2">  1       -3 0.15473361E-01 0.12925344E+03</pdfrwt>
<totfact> 0.18350281E+03</totfact>
</mgrwt>
</event>
<event>
 6    1  0.4705246E-006  0.3880657E+03  0.7546771E-02  0.1047992E+00
         -3   -1    0    0    0  501 -0.00000000000E+00  0.00000000000E+00  0.58690667901E+03  0.58690667901E+03  0.00000000000E+00 0.  1.
          3   -1    0    0  501    0  0.00000000000E+00 -0.00000000000E+00 -0.64147761837E+02  0.64147761837E+02  0.00000000000E+00 0. -1.
          5    1    1    2  502    0  0.20693614824E+02  0.34424164892E+02  0.75141120414E+02  0.85331862749E+02  0.47000000000E+01 0. -1.
         -5    1    1    2    0  502  0.12710855345E+03 -0.91649364817E+02  0.14871364211E+03  0.21608800934E+03  0.47000000000E+01 0. -1.
        -11    1    1    2    0    0 -0.62223163742E+02  0.58143201157E+02  0.20811904707E+03  0.22486860986E+03  0.00000000000E+00 0.  1.
         11    1    1    2    0    0 -0.85579004528E+02 -0.91800123198E+00  0.90785107574E+02  0.12476595890E+03  0.00000000000E+00 0. -1.
<mgrwt>
<rscale>  0 0.38806572E+03</rscale>
<asrwt>0</asrwt>
<pdfrwt beam="2">  1        3 0.98688868E-02 0.38806572E+03</pdfrwt>
<pdfrwt beam="1">  1       -3 0.90293332E-01 0.38806572E+03</pdfrwt>
<totfact> 0.22311500E+02</totfact>
</mgrwt>
</event>
<event>
 6    1  0.4705246E-006  0.2248310E+03  0.7546771E-02  0.1133529E+00
         -2   -1    0    0    0  501 -0.00000000000E+00  0.00000000000E+00  0.14945561317E+03  0.14945561317E+03  0.00000000000E+00 0. -1.
          2   -1    0    0  501    0  0.00000000000E+00 -0.00000000000E+00 -0.31372659380E+03  0.31372659380E+03  0.00000000000E+00 0.  1.
          5    1    1    2  502    0  0.31734851642E+02 -0.56364902896E+02 -0.90828297514E+02  0.11160632920E+03  0.47000000000E+01 0. -1.
         -5    1    1    2    0  502  0.95212837175E+02 -0.80774378294E+02  0.14593948679E+02  0.12579768634E+03  0.47000000000E+01 0. -1.
        -11    1    1    2    0    0 -0.45192189753E+02  0.89725616645E+02 -0.84379649544E+02  0.13119811567E+03  0.00000000000E+00 0.  1.
         11    1    1    2    0    0 -0.81755499063E+02  0.47413664545E+02 -0.36569822546E+01  0.94580075766E+02  0.00000000000E+00 0. -1.
<mgrwt>
<rscale>  0 0.22047507E+03</rscale>
<asrwt>0</asrwt>
<pdfrwt beam="2">  1        2 0.48265629E-01 0.22483103E+03</pdfrwt>
<pdfrwt beam="1">  1       -2 0.22993172E-01 0.22483103E+03</pdfrwt>
<totfact> 0.17067192E+03</totfact>
</mgrwt>
</event>
<event>
 6    1  0.4705246E-006  0.1251340E+03  0.7546771E-02  0.1252006E+00
          3   -1    0    0  501    0  0.00000000000E+00  0.00000000000E+00  0.25790936067E+03  0.25790936067E+03  0.00000000000E+00 0. -1.
         -3   -1    0    0    0  501 -0.00000000000E+00 -0.00000000000E+00 -0.44437123806E+02  0.44437123806E+02  0.00000000000E+00 0.  1.
          5    1    1    2  502    0  0.47744121869E+02 -0.89717080357E+01  0.13213092829E+03  0.14085689522E+03  0.47000000000E+01 0.  1.
         -5    1    1    2    0  502 -0.42074451258E+02  0.74097262235E+01  0.26560224443E+01  0.43061676077E+02  0.47000000000E+01 0.  1.
        -11    1    1    2    0    0 -0.52936482953E+01  0.42480591495E+02  0.20946514985E+02  0.47658995542E+02  0.00000000000E+00 0.  1.
         11    1    1    2    0    0 -0.37602231566E+00 -0.40918609683E+02  0.57738771139E+02  0.70768917639E+02  0.00000000000E+00 0. -1.
<mgrwt>
<rscale>  0 0.11475670E+03</rscale>
<asrwt>0</asrwt>
<pdfrwt beam="1">  1        3 0.39678362E-01 0.12513400E+03</pdfrwt>
<pdfrwt beam="2">  1       -3 0.68364807E-02 0.12513400E+03</pdfrwt>
<totfact> 0.19664065E+03</totfact>
</mgrwt>
</event>
<event>
 6    1  0.4705246E-006  0.1254134E+03  0.7546771E-02  0.1250465E+00
          1   -1    0    0  501    0  0.00000000000E+00  0.00000000000E+00  0.14117263610E+03  0.14117263610E+03  0.00000000000E+00 0. -1.
         -1   -1    0    0    0  501 -0.00000000000E+00 -0.00000000000E+00 -0.82769472723E+02  0.82769472723E+02  0.00000000000E+00 0.  1.
          5    1    1    2  502    0  0.39129473106E+02 -0.38780541958E+02  0.54773455800E+02  0.77828449556E+02  0.47000000000E+01 0.  1.
         -5    1    1    2    0  502 -0.31850502953E+02  0.31350243909E+02 -0.24506661729E+02  0.51185533119E+02  0.47000000000E+01 0.  1.
        -11    1    1    2    0    0 -0.28570620466E+01 -0.40038438910E+02  0.24698245531E+02  0.47130061809E+02  0.00000000000E+00 0.  1.
         11    1    1    2    0    0 -0.44219081062E+01  0.47468736958E+02  0.34381237793E+01  0.47798064342E+02  0.00000000000E+00 0. -1.
<mgrwt>
<rscale>  0 0.11564184E+03</rscale>
<asrwt>0</asrwt>
<pdfrwt beam="1">  1        1 0.21718867E-01 0.12541343E+03</pdfrwt>
<pdfrwt beam="2">  1       -1 0.12733765E-01 0.12541343E+03</pdfrwt>
<totfact> 0.89673118E+03</totfact>
</mgrwt>
</event>
<event>
 6    1  0.4705246E-006  0.1588772E+03  0.7546771E-02  0.1197490E+00
          2   -1    0    0  501    0  0.00000000000E+00  0.00000000000E+00  0.39690604579E+03  0.39690604579E+03  0.00000000000E+00 0. -1.
         -2   -1    0    0    0  501 -0.00000000000E+00 -0.00000000000E+00 -0.56933428618E+02  0.56933428618E+02  0.00000000000E+00 0.  1.
          5    1    1    2  502    0 -0.25100522932E+02  0.10726615640E+03  0.15919548718E+03  0.19365267284E+03  0.47000000000E+01 0. -1.
         -5    1    1    2    0  502 -0.36892385398E+02 -0.31280280603E+02  0.72903966586E+02  0.87616108102E+02  0.47000000000E+01 0. -1.
        -11    1    1    2    0    0  0.77373057939E+02 -0.27893012030E+02  0.80720240453E+02  0.11524047654E+03  0.00000000000E+00 0.  1.
         11    1    1    2    0    0 -0.15380149609E+02 -0.48092863770E+02  0.27152922961E+02  0.57330216927E+02  0.00000000000E+00 0. -1.
<mgrwt>
<rscale>  0 0.15245368E+03</rscale>
<asrwt>0</asrwt>
<pdfrwt beam="1">  1        2 0.61062467E-01 0.15887722E+03</pdfrwt>
<pdfrwt beam="2">  1       -2 0.87589893E-02 0.15887722E+03</pdfrwt>
<totfact> 0.63750549E+03</totfact>
</mgrwt>
</event>
<event>
 6    1  0.4705246E-006  0.1280416E+03  0.7546771E-02  0.1247415E+00
          2   -1    0    0  501    0  0.00000000000E+00  0.00000000000E+00  0.23298628639E+03  0.23298628639E+03  0.00000000000E+00 0. -1.
         -2   -1    0    0    0  501 -0.00000000000E+00 -0.00000000000E+00 -0.58764096048E+02  0.58764096048E+02  0.00000000000E+00 0.  1.
          5    1    1    2  502    0  0.29330922453E+02 -0.52964523927E+02  0.10616145902E+03  0.12230244964E+03  0.47000000000E+01 0.  1.
         -5    1    1    2    0  502 -0.50070856830E+02  0.34660953715E+02  0.45390263200E+02  0.76097558499E+02  0.47000000000E+01 0.  1.
        -11    1    1    2    0    0 -0.61912631837E+01  0.40382496484E+02 -0.13609139197E+02  0.43061426263E+02  0.00000000000E+00 0.  1.
         11    1    1    2    0    0  0.26931197561E+02 -0.22078926273E+02  0.36279607324E+02  0.50288948040E+02  0.00000000000E+00 0. -1.
<mgrwt>
<rscale>  0 0.11742003E+03</rscale>
<asrwt>0</asrwt>
<pdfrwt beam="1">  1        2 0.35844043E-01 0.12804155E+03</pdfrwt>
<pdfrwt beam="2">  1       -2 0.90406303E-02 0.12804155E+03</pdfrwt>
<totfact> 0.10542091E+04</totfact>
</mgrwt>
</event>
<event>
 6    1  0.4705246E-006  0.1541231E+03  0.7546771E-02  0.1207986E+00
          1   -1    0    0  501    0  0.00000000000E+00  0.00000000000E+00  0.84460842785E+03  0.84460842785E+03  0.00000000000E+00 0. -1.
         -1   -1    0    0    0  501 -0.00000000000E+00 -0.00000000000E+00 -0.25444470825E+02  0.25444470825E+02  0.00000000000E+00 0.  1.
          5    1    1    2  502    0  0.33984836736E+02  0.85591085266E+02  0.59743628025E+03  0.60451054744E+03  0.47000000000E+01 0. -1.
         -5    1    1    2    0  502  0.57318896896E+01 -0.24393616544E+02  0.21573377189E+02  0.33397659961E+02  0.47000000000E+01 0.  1.
        -11    1    1    2    0    0  0.24269787313E+02 -0.15983991597E+02  0.18857641712E+02  0.34642765688E+02  0.00000000000E+00 0. -1.
         11    1    1    2    0    0 -0.63986513739E+02 -0.45213477125E+02  0.18129665787E+03  0.19750192558E+03  0.00000000000E+00 0.  1.
<mgrwt>
<rscale>  0 0.14404601E+03</rscale>
<asrwt>0</asrwt>
<pdfrwt beam="1">  1        1 0.12993974E+00 0.15412308E+03</pdfrwt>
<pdfrwt beam="2">  1       -1 0.39145346E-02 0.15412308E+03</pdfrwt>
<totfact> 0.52529627E+03</totfact>
</mgrwt>
</event>
<event>
 6    1  0.4705246E-006  0.3480508E+03  0.7546771E-02  0.1063418E+00
         -1   -1    0    0    0  501 -0.00000000000E+00  0.00000000000E+00  0.29062634542E+02  0.29062634542E+02  0.00000000000E+00 0.  1.
          1   -1    0    0  501    0  0.00000000000E+00 -0.00000000000E+00 -0.10420544078E+04  0.10420544078E+04  0.00000000000E+00 0. -1.
          5    1    1    2  502    0  0.90392705737E+02 -0.79664887719E+02 -0.79838938748E+03  0.80744352102E+03  0.47000000000E+01 0.  1.
         -5    1    1    2    0  502 -0.10111364063E+02  0.14359763553E+02 -0.20628869320E+02  0.27496958776E+02  0.47000000000E+01 0.  1.
        -11    1    1    2    0    0 -0.29355132768E+02  0.75239360203E+02 -0.97232410827E+02  0.12639947333E+03  0.00000000000E+00 0.  1.
         11    1    1    2    0    0 -0.50926208906E+02 -0.99342360364E+01 -0.96741105642E+02  0.10977708923E+03  0.00000000000E+00 0. -1.
<mgrwt>
<rscale>  0 0.34805084E+03</rscale>
<asrwt>0</asrwt>
<pdfrwt beam="2">  1        1 0.16031608E+00 0.34805084E+03</pdfrwt>
<pdfrwt beam="1">  1       -1 0.44711739E-02 0.34805084E+03</pdfrwt>
<totfact> 0.31048255E+03</totfact>
</mgrwt>
</event>
<event>
 6    1  0.4705246E-006  0.1531680E+03  0.7546771E-02  0.1206474E+00
          1   -1    0    0  501    0  0.00000000000E+00  0.00000000000E+00  0.13284988636E+04  0.13284988636E+04  0.00000000000E+00 0. -1.
         -1   -1    0    0    0  501 -0.00000000000E+00 -0.00000000000E+00 -0.16724517130E+02  0.16724517130E+02  0.00000000000E+00 0.  1.
          5    1    1    2  502    0 -0.21170187404E+02 -0.20683789007E+02  0.46458110021E+03  0.46554665140E+03  0.47000000000E+01 0. -1.
         -5    1    1    2    0  502 -0.29013121567E+01  0.10585525688E+03  0.49921933286E+03  0.51034868994E+03  0.47000000000E+01 0. -1.
        -11    1    1    2    0    0 -0.24553639711E+02 -0.20938411393E+02  0.42226172910E+02  0.53144594958E+02  0.00000000000E+00 0.  1.
         11    1    1    2    0    0  0.48625139272E+02 -0.64233056484E+02  0.30574774052E+03  0.31618344445E+03  0.00000000000E+00 0. -1.
<mgrwt>
<rscale>  0 0.14521920E+03</rscale>
<asrwt>0</asrwt>
<pdfrwt beam="1">  1        1 0.20438436E+00 0.15316802E+03</pdfrwt>
<pdfrwt beam="2">  1       -1 0.25730037E-02 0.15316802E+03</pdfrwt>
<totfact> 0.43594662E+03</totfact>
</mgrwt>
</event>
<event>
 6    1  0.4705246E-006  0.2439331E+03  0.7546771E-02  0.1123598E+00
          2   -1    0    0  501    0  0.00000000000E+00  0.00000000000E+00  0.12750988232E+04  0.12750988232E+04  0.00000000000E+00 0. -1.
         -2   -1    0    0    0  501 -0.00000000000E+00 -0.00000000000E+00 -0.48202741662E+02  0.48202741662E+02  0.00000000000E+00 0.  1.
          5    1    1    2  502    0  0.79602567658E+02  0.66265950702E+02  0.75401252158E+03  0.76110755988E+03  0.47000000000E+01 0. -1.
         -5    1    1    2    0  502  0.94846191688E+02  0.19622248755E+01  0.17187453273E+03  0.19637361179E+03  0.47000000000E+01 0.  1.
        -11    1    1    2    0    0 -0.33485082781E+02  0.21147051672E+02  0.75565195441E+02  0.85314402801E+02  0.00000000000E+00 0. -1.
         11    1    1    2    0    0 -0.14096367656E+03 -0.89375227249E+02  0.22544383176E+03  0.28050599037E+03  0.00000000000E+00 0.  1.
<mgrwt>
<rscale>  0 0.23437500E+03</rscale>
<asrwt>0</asrwt>
<pdfrwt beam="1">  1        2 0.19616902E+00 0.24393310E+03</pdfrwt>
<pdfrwt beam="2">  1       -2 0.74158074E-02 0.24393310E+03</pdfrwt>
<totfact> 0.19298440E+03</totfact>
</mgrwt>
</event>
<event>
 6    1  0.4705246E-006  0.1760300E+03  0.7546771E-02  0.1188177E+00
          2   -1    0    0  501    0  0.00000000000E+00  0.00000000000E+00  0.58280227881E+03  0.58280227881E+03  0.00000000000E+00 0. -1.
         -2   -1    0    0    0  501 -0.00000000000E+00 -0.00000000000E+00 -0.50682573968E+02  0.50682573968E+02  0.00000000000E+00 0.  1.
          5    1    1    2  502    0 -0.60394894945E+02 -0.44830815145E+02  0.42011371644E+03  0.42681959896E+03  0.47000000000E+01 0. -1.
         -5    1    1    2    0  502  0.42012898505E+02 -0.30030907390E+02  0.39003632385E+02  0.64886919935E+02  0.47000000000E+01 0.  1.
        -11    1    1    2    0    0  0.38467376039E+02  0.61311058769E+02  0.85016126233E+01  0.72877035916E+02  0.00000000000E+00 0. -1.
         11    1    1    2    0    0 -0.20085379599E+02  0.13550663766E+02  0.64500743395E+02  0.68901297961E+02  0.00000000000E+00 0.  1.
<mgrwt>
<rscale>  0 0.16046082E+03</rscale>
<asrwt>0</asrwt>
<pdfrwt beam="1">  1        2 0.89661885E-01 0.17603000E+03</pdfrwt>
<pdfrwt beam="2">  1       -2 0.77973195E-02 0.17603000E+03</pdfrwt>
<totfact> 0.50275304E+03</totfact>
</mgrwt>
</event>
<event>
 6    1  0.4705246E-006  0.2660347E+03  0.7546771E-02  0.1103571E+00
         -2   -1    0    0    0  501 -0.00000000000E+00  0.00000000000E+00  0.20352435877E+02  0.20352435877E+02  0.00000000000E+00 0. -1.
          2   -1    0    0  501    0  0.00000000000E+00 -0.00000000000E+00 -0.86936120512E+03  0.86936120512E+03  0.00000000000E+00 0.  1.
          5    1    1    2  502    0  0.20087101683E+02  0.33848838060E+01 -0.18991434575E+02  0.28243825513E+02  0.47000000000E+01 0.  1.
         -5    1    1    2    0  502 -0.71592340020E+02 -0.35142373711E+02 -0.65894322771E+03  0.66376857182E+03  0.47000000000E+01 0.  1.
        -11    1    1    2    0    0  0.11361417468E+02  0.38318817250E+02 -0.14248105998E+03  0.14798062717E+03  0.00000000000E+00 0.  1.
         11    1    1    2    0    0  0.40143820869E+02 -0.65613273447E+01 -0.28593046973E+02  0.49720616506E+02  0.00000000000E+00 0. -1.
<mgrwt>
<rscale>  0 0.26603472E+03</rscale>
<asrwt>0</asrwt>
<pdfrwt beam="2">  1        2 0.13374785E+00 0.26603472E+03</pdfrwt>
<pdfrwt beam="1">  1       -2 0.31311447E-02 0.26603472E+03</pdfrwt>
<totfact> 0.12582930E+04</totfact>
</mgrwt>
</event>
<event>
 6    1  0.4705246E-006  0.1792876E+03  0.7546771E-02  0.1174339E+00
         -1   -1    0    0    0  501 -0.00000000000E+00  0.00000000000E+00  0.59909047939E+02  0.59909047939E+02  0.00000000000E+00 0.  1.
          1   -1    0    0  501    0  0.00000000000E+00 -0.00000000000E+00 -0.49603984643E+03  0.49603984643E+03  0.00000000000E+00 0. -1.
          5    1    1    2  502    0 -0.22790304460E+02 -0.37453652688E+02 -0.51501983967E+02  0.67799103457E+02  0.47000000000E+01 0.  1.
         -5    1    1    2    0  502  0.13038141283E+03 -0.32843956170E+02 -0.11886154957E+03  0.17952213300E+03  0.47000000000E+01 0.  1.
        -11    1    1    2    0    0  0.79186128805E+01 -0.82327406946E+01 -0.43271256874E+01  0.12215009865E+02  0.00000000000E+00 0.  1.
         11    1    1    2    0    0 -0.11550972125E+03  0.78530349552E+02 -0.26144013926E+03  0.29641264805E+03  0.00000000000E+00 0. -1.
<mgrwt>
<rscale>  0 0.17340879E+03</rscale>
<asrwt>0</asrwt>
<pdfrwt beam="2">  1        1 0.76313821E-01 0.17928765E+03</pdfrwt>
<pdfrwt beam="1">  1       -1 0.92167768E-02 0.17928765E+03</pdfrwt>
<totfact> 0.31059006E+03</totfact>
</mgrwt>
</event>
<event>
 6    1  0.4705246E-006  0.1325567E+03  0.7546771E-02  0.1237863E+00
          1   -1    0    0  501    0  0.00000000000E+00  0.00000000000E+00  0.18246169786E+03  0.18246169786E+03  0.00000000000E+00 0. -1.
         -1   -1    0    0    0  501 -0.00000000000E+00 -0.00000000000E+00 -0.78426025341E+02  0.78426025341E+02  0.00000000000E+00 0.  1.
          5    1    1    2  502    0 -0.43422690572E+02  0.35284020156E+02  0.11435298906E+03  0.12739383125E+03  0.47000000000E+01 0. -1.
         -5    1    1    2    0  502  0.23993188958E+02  0.43038390305E+01 -0.22799826778E+02  0.33706353227E+02  0.47000000000E+01 0. -1.
        -11    1    1    2    0    0 -0.21215331021E+02 -0.64187107874E+01  0.36015650625E+02  0.42289682057E+02  0.00000000000E+00 0. -1.
         11    1    1    2    0    0  0.40644832635E+02 -0.33169148399E+02 -0.23533140380E+02  0.57497856669E+02  0.00000000000E+00 0.  1.
<mgrwt>
<rscale>  0 0.12322937E+03</rscale>
<asrwt>0</asrwt>
<pdfrwt beam="1">  1        1 0.28071030E-01 0.13255673E+03</pdfrwt>
<pdfrwt beam="2">  1       -1 0.12065542E-01 0.13255673E+03</pdfrwt>
<totfact> 0.70943136E+03</totfact>
</mgrwt>
</event>
<event>
 6    1  0.4705246E-006  0.1275681E+03  0.7546771E-02  0.1245123E+00
         -1   -1    0    0    0  501 -0.00000000000E+00  0.00000000000E+00  0.85450884743E+02  0.85450884743E+02  0.00000000000E+00 0.  1.
          1   -1    0    0  501    0  0.00000000000E+00 -0.00000000000E+00 -0.14610269744E+03  0.14610269744E+03  0.00000000000E+00 0. -1.
          5    1    1    2  502    0  0.24663641297E+02 -0.30378429784E+02  0.35418503737E+02  0.52987777884E+02  0.47000000000E+01 0.  1.
         -5    1    1    2    0  502 -0.34075652244E+02  0.66963060055E+01 -0.71433962452E+02  0.79566900037E+02  0.47000000000E+01 0.  1.
        -11    1    1    2    0    0  0.24287135037E+02  0.13166208609E+02 -0.56161690217E+02  0.62588732416E+02  0.00000000000E+00 0. -1.
         11    1    1    2    0    0 -0.14875124090E+02  0.10515915170E+02  0.31525336239E+02  0.36410171842E+02  0.00000000000E+00 0.  1.
<mgrwt>
<rscale>  0 0.11878011E+03</rscale>
<asrwt>0</asrwt>
<pdfrwt beam="2">  1        1 0.22477338E-01 0.12756814E+03</pdfrwt>
<pdfrwt beam="1">  1       -1 0.13146290E-01 0.12756814E+03</pdfrwt>
<totfact> 0.81849738E+03</totfact>
</mgrwt>
</event>
<event>
 6    1  0.4705246E-006  0.2011681E+03  0.7546771E-02  0.1153017E+00
         -3   -1    0    0    0  501 -0.00000000000E+00  0.00000000000E+00  0.10943991753E+03  0.10943991753E+03  0.00000000000E+00 0.  1.
          3   -1    0    0  501    0  0.00000000000E+00 -0.00000000000E+00 -0.35990850092E+03  0.35990850092E+03  0.00000000000E+00 0. -1.
          5    1    1    2  502    0 -0.48347782044E+02 -0.14947597685E+02 -0.15682351028E+03  0.16485339572E+03  0.47000000000E+01 0.  1.
         -5    1    1    2    0  502 -0.94101060611E+02 -0.52477540143E+02 -0.35717362534E+02  0.11360775420E+03  0.47000000000E+01 0.  1.
        -11    1    1    2    0    0  0.63886352406E+02 -0.24267401395E+01  0.11426329973E+02  0.64945485663E+02  0.00000000000E+00 0.  1.
         11    1    1    2    0    0  0.78562490250E+02  0.69851877968E+02 -0.69354040552E+02  0.12594178286E+03  0.00000000000E+00 0. -1.
<mgrwt>
<rscale>  0 0.19616383E+03</rscale>
<asrwt>0</asrwt>
<pdfrwt beam="2">  1        3 0.55370539E-01 0.20116815E+03</pdfrwt>
<pdfrwt beam="1">  1       -3 0.16836910E-01 0.20116815E+03</pdfrwt>
<totfact> 0.24127389E+02</totfact>
</mgrwt>
</event>
<event>
 6    1  0.4705246E-006  0.2867536E+03  0.7546771E-02  0.1092056E+00
          2   -1    0    0  501    0  0.00000000000E+00  0.00000000000E+00  0.29714094925E+03  0.29714094925E+03  0.00000000000E+00 0. -1.
         -2   -1    0    0    0  501 -0.00000000000E+00 -0.00000000000E+00 -0.69182345425E+02  0.69182345425E+02  0.00000000000E+00 0.  1.
          5    1    1    2  502    0 -0.23632769933E+02 -0.96850779974E+02  0.57896569209E+02  0.11538060549E+03  0.47000000000E+01 0.  1.
         -5    1    1    2    0  502  0.73828949203E+01  0.11149148690E+02  0.11190363463E+03  0.11279771318E+03  0.47000000000E+01 0.  1.
        -11    1    1    2    0    0 -0.35071662950E+02  0.51406960601E+02  0.19084425331E+02  0.65091569581E+02  0.00000000000E+00 0. -1.
         11    1    1    2    0    0  0.51321537962E+02  0.34294670683E+02  0.39073974654E+02  0.73053406432E+02  0.00000000000E+00 0.  1.
<mgrwt>
<rscale>  0 0.28675361E+03</rscale>
<asrwt>0</asrwt>
<pdfrwt beam="1">  1        2 0.45713992E-01 0.28675361E+03</pdfrwt>
<pdfrwt beam="2">  1       -2 0.10643438E-01 0.28675361E+03</pdfrwt>
<totfact> 0.65992367E+03</totfact>
</mgrwt>
</event>
<event>
 6    1  0.4705246E-006  0.6100139E+03  0.7546771E-02  0.9884845E-01
         -1   -1    0    0    0  501 -0.00000000000E+00  0.00000000000E+00  0.23866705043E+03  0.23866705043E+03  0.00000000000E+00 0.  1.
          1   -1    0    0  501    0  0.00000000000E+00 -0.00000000000E+00 -0.38978675257E+03  0.38978675257E+03  0.00000000000E+00 0. -1.
          5    1    1    2  502    0  0.16238938418E+03  0.22521358654E+03 -0.12596562179E+03  0.30492769557E+03  0.47000000000E+01 0.  1.
         -5    1    1    2    0  502 -0.16893149533E+02  0.67824141868E+01 -0.26535100412E+02  0.32520473508E+02  0.47000000000E+01 0.  1.
        -11    1    1    2    0    0 -0.33598472991E+02 -0.31838666813E+01  0.12666989820E+02  0.36047843562E+02  0.00000000000E+00 0.  1.
         11    1    1    2    0    0 -0.11189776165E+03 -0.22881213404E+03 -0.11285969762E+02  0.25495779035E+03  0.00000000000E+00 0. -1.
<mgrwt>
<rscale>  0 0.61001395E+03</rscale>
<asrwt>0</asrwt>
<pdfrwt beam="2">  1        1 0.59967192E-01 0.61001395E+03</pdfrwt>
<pdfrwt beam="1">  1       -1 0.36718008E-01 0.61001395E+03</pdfrwt>
<totfact> 0.44720338E+02</totfact>
</mgrwt>
</event>
<event>
 6    1  0.4705246E-006  0.1369219E+03  0.7546771E-02  0.1228761E+00
          2   -1    0    0  501    0  0.00000000000E+00  0.00000000000E+00  0.84081808320E+03  0.84081808320E+03  0.00000000000E+00 0. -1.
         -2   -1    0    0    0  501 -0.00000000000E+00 -0.00000000000E+00 -0.17986507281E+02  0.17986507281E+02  0.00000000000E+00 0.  1.
          5    1    1    2  502    0 -0.35481517170E+02  0.63023971649E+02  0.47702750354E+03  0.48250211211E+03  0.47000000000E+01 0.  1.
         -5    1    1    2    0  502 -0.37255955530E+01 -0.23192240926E+02  0.15098244798E+02  0.28316198498E+02  0.47000000000E+01 0.  1.
        -11    1    1    2    0    0  0.56907701625E+02 -0.19207664355E+02  0.30402312967E+03  0.30989915174E+03  0.00000000000E+00 0. -1.
         11    1    1    2    0    0 -0.17700588903E+02 -0.20624066368E+02  0.26682697909E+02  0.38087128125E+02  0.00000000000E+00 0.  1.
<mgrwt>
<rscale>  0 0.12912433E+03</rscale>
<asrwt>0</asrwt>
<pdfrwt beam="1">  1        2 0.12935660E+00 0.13692185E+03</pdfrwt>
<pdfrwt beam="2">  1       -2 0.27671556E-02 0.13692185E+03</pdfrwt>
<totfact> 0.15170654E+04</totfact>
</mgrwt>
</event>
<event>
 6    1  0.4705246E-006  0.1757384E+03  0.7546771E-02  0.1175235E+00
          1   -1    0    0  501    0  0.00000000000E+00  0.00000000000E+00  0.11761167707E+03  0.11761167707E+03  0.00000000000E+00 0. -1.
         -1   -1    0    0    0  501 -0.00000000000E+00 -0.00000000000E+00 -0.31167002075E+03  0.31167002075E+03  0.00000000000E+00 0.  1.
          5    1    1    2  502    0  0.22939873317E+02 -0.41105972474E+02  0.37902228785E+00  0.47309326974E+02  0.47000000000E+01 0. -1.
         -5    1    1    2    0  502  0.11176461522E+03  0.63090521870E+02 -0.44568082185E+00  0.12842909249E+03  0.47000000000E+01 0.  1.
        -11    1    1    2    0    0 -0.87871160264E+02 -0.50048883279E+02 -0.86886489723E+02  0.13332476747E+03  0.00000000000E+00 0. -1.
         11    1    1    2    0    0 -0.46833328275E+02  0.28064333884E+02 -0.10710519542E+03  0.12021851089E+03  0.00000000000E+00 0.  1.
<mgrwt>
<rscale>  0 0.17253017E+03</rscale>
<asrwt>0</asrwt>
<pdfrwt beam="1">  1        1 0.18094104E-01 0.17573841E+03</pdfrwt>
<pdfrwt beam="2">  1       -1 0.47949233E-01 0.17573841E+03</pdfrwt>
<totfact> 0.12794472E+03</totfact>
</mgrwt>
</event>
<event>
 6    1  0.4705246E-006  0.2338755E+03  0.7546771E-02  0.1123941E+00
          1   -1    0    0  501    0  0.00000000000E+00  0.00000000000E+00  0.67788215511E+02  0.67788215511E+02  0.00000000000E+00 0. -1.
         -1   -1    0    0    0  501 -0.00000000000E+00 -0.00000000000E+00 -0.20172292066E+03  0.20172292066E+03  0.00000000000E+00 0.  1.
          5    1    1    2  502    0 -0.66887120156E+01  0.23065077037E+01  0.46915256045E+02  0.47677983347E+02  0.47000000000E+01 0.  1.
         -5    1    1    2    0  502  0.23049053413E+02 -0.25540249271E+02 -0.76260741757E+02  0.83793519614E+02  0.47000000000E+01 0.  1.
        -11    1    1    2    0    0  0.33897564309E+02  0.16429794799E+02 -0.31647416326E+02  0.49199003886E+02  0.00000000000E+00 0. -1.
         11    1    1    2    0    0 -0.50257905706E+02  0.68039467678E+01 -0.72941803110E+02  0.88840629323E+02  0.00000000000E+00 0.  1.
<mgrwt>
<rscale>  0 0.23387550E+03</rscale>
<asrwt>0</asrwt>
<pdfrwt beam="1">  1        1 0.10428956E-01 0.23387550E+03</pdfrwt>
<pdfrwt beam="2">  1       -1 0.31034295E-01 0.23387550E+03</pdfrwt>
<totfact> 0.57517016E+03</totfact>
</mgrwt>
</event>
<event>
 6    1  0.4705246E-006  0.1258753E+03  0.7546771E-02  0.1249005E+00
          4   -1    0    0  501    0  0.00000000000E+00  0.00000000000E+00  0.75685776108E+02  0.75685776108E+02  0.00000000000E+00 0. -1.
         -4   -1    0    0    0  501 -0.00000000000E+00 -0.00000000000E+00 -0.22369908732E+03  0.22369908732E+03  0.00000000000E+00 0.  1.
          5    1    1    2  502    0 -0.67713584298E+02  0.14439587681E+02  0.67711504882E+01  0.69724957295E+02  0.47000000000E+01 0.  1.
         -5    1    1    2    0  502  0.54974554334E+02 -0.68556826650E+01 -0.78815967228E+01  0.56155245311E+02  0.47000000000E+01 0.  1.
        -11    1    1    2    0    0 -0.10968697054E+02 -0.28522886398E+02 -0.87645779027E+01  0.31791275365E+02  0.00000000000E+00 0. -1.
         11    1    1    2    0    0  0.23707727018E+02  0.20938981381E+02 -0.13813828707E+03  0.14171338545E+03  0.00000000000E+00 0.  1.
<mgrwt>
<rscale>  0 0.11648825E+03</rscale>
<asrwt>0</asrwt>
<pdfrwt beam="1">  1        4 0.11643966E-01 0.12587530E+03</pdfrwt>
<pdfrwt beam="2">  1       -4 0.34415244E-01 0.12587530E+03</pdfrwt>
<totfact> 0.77816571E+02</totfact>
</mgrwt>
</event>
<event>
 6    1  0.4705246E-006  0.1299464E+03  0.7546771E-02  0.1241355E+00
         -3   -1    0    0    0  501 -0.00000000000E+00  0.00000000000E+00  0.61795583135E+02  0.61795583135E+02  0.00000000000E+00 0.  1.
          3   -1    0    0  501    0  0.00000000000E+00 -0.00000000000E+00 -0.21126751960E+03  0.21126751960E+03  0.00000000000E+00 0. -1.
          5    1    1    2  502    0  0.44300604844E+02 -0.54190830126E+02 -0.86362248404E+02  0.11126417936E+03  0.47000000000E+01 0. -1.
         -5    1    1    2    0  502 -0.15949431586E+02  0.32887000056E+02  0.11624956643E+02  0.38641541863E+02  0.47000000000E+01 0. -1.
        -11    1    1    2    0    0  0.89844310596E+00 -0.30131730751E+02 -0.31883427314E+01  0.30313263226E+02  0.00000000000E+00 0.  1.
         11    1    1    2    0    0 -0.29249616364E+02  0.51435560821E+02 -0.71546301975E+02  0.92844118288E+02  0.00000000000E+00 0. -1.
<mgrwt>
<rscale>  0 0.12106200E+03</rscale>
<asrwt>0</asrwt>
<pdfrwt beam="2">  1        3 0.32502695E-01 0.12994638E+03</pdfrwt>
<pdfrwt beam="1">  1       -3 0.95070128E-02 0.12994638E+03</pdfrwt>
<totfact> 0.16897174E+03</totfact>
</mgrwt>
</event>
<event>
 6    1  0.4705246E-006  0.1470420E+03  0.7546771E-02  0.1213240E+00
         -2   -1    0    0    0  501 -0.00000000000E+00  0.00000000000E+00  0.58806827628E+02  0.58806827628E+02  0.00000000000E+00 0.  1.
          2   -1    0    0  501    0  0.00000000000E+00 -0.00000000000E+00 -0.31843291956E+03  0.31843291956E+03  0.00000000000E+00 0. -1.
          5    1    1    2  502    0  0.70722616293E+01  0.30535158727E+02 -0.12075071679E+03  0.12484085232E+03  0.47000000000E+01 0.  1.
         -5    1    1    2    0  502  0.62837595624E+02 -0.63833389872E+02 -0.58865551961E+02  0.10728703693E+03  0.47000000000E+01 0.  1.
        -11    1    1    2    0    0  0.33814292534E+01  0.16216061503E+02 -0.66652406642E+02  0.68679968154E+02  0.00000000000E+00 0. -1.
         11    1    1    2    0    0 -0.73291286507E+02  0.17082169642E+02 -0.13357416531E+02  0.76431889771E+02  0.00000000000E+00 0.  1.
<mgrwt>
<rscale>  0 0.14006595E+03</rscale>
<asrwt>0</asrwt>
<pdfrwt beam="2">  1        2 0.48989681E-01 0.14704201E+03</pdfrwt>
<pdfrwt beam="1">  1       -2 0.90472040E-02 0.14704201E+03</pdfrwt>
<totfact> 0.76308942E+03</totfact>
</mgrwt>
</event>
<event>
 6    1  0.4705246E-006  0.1414799E+03  0.7546771E-02  0.1226401E+00
         -2   -1    0    0    0  501 -0.00000000000E+00  0.00000000000E+00  0.15998014565E+03  0.15998014565E+03  0.00000000000E+00 0.  1.
          2   -1    0    0  501    0  0.00000000000E+00 -0.00000000000E+00 -0.10275608084E+03  0.10275608084E+03  0.00000000000E+00 0. -1.
          5    1    1    2  502    0 -0.27748120677E+02 -0.77757209173E+02  0.40056582682E+02  0.91884501390E+02  0.47000000000E+01 0.  1.
         -5    1    1    2    0  502  0.74399057255E+00  0.17242364222E+02 -0.46410460424E+02  0.49738048642E+02  0.47000000000E+01 0.  1.
        -11    1    1    2    0    0  0.78666750924E+01  0.45808477486E+02  0.79577429272E+02  0.92156760122E+02  0.00000000000E+00 0.  1.
         11    1    1    2    0    0  0.19137455012E+02  0.14706367466E+02 -0.15999486726E+02  0.28956916339E+02  0.00000000000E+00 0. -1.
<mgrwt>
<rscale>  0 0.13071315E+03</rscale>
<asrwt>0</asrwt>
<pdfrwt beam="2">  1        2 0.15808628E-01 0.14147995E+03</pdfrwt>
<pdfrwt beam="1">  1       -2 0.24612330E-01 0.14147995E+03</pdfrwt>
<totfact> 0.51094310E+03</totfact>
</mgrwt>
</event>
<event>
 6    1  0.4705246E-006  0.1843535E+03  0.7546771E-02  0.1168337E+00
         -2   -1    0    0    0  501 -0.00000000000E+00  0.00000000000E+00  0.16585821223E+02  0.16585821223E+02  0.00000000000E+00 0. -1.
          2   -1    0    0  501    0  0.00000000000E+00 -0.00000000000E+00 -0.24995112408E+04  0.24995112408E+04  0.00000000000E+00 0.  1.
          5    1    1    2  502    0 -0.46850486389E+02  0.10433844561E+03 -0.90928957987E+03  0.91646664390E+03  0.47000000000E+01 0.  1.
         -5    1    1    2    0  502  0.47618048585E+02  0.31164679289E+02 -0.10246160894E+04  0.10262060886E+04  0.47000000000E+01 0.  1.
        -11    1    1    2    0    0 -0.39789077887E+02 -0.11257167560E+03 -0.42279058831E+03  0.43932611398E+03  0.00000000000E+00 0.  1.
         11    1    1    2    0    0  0.39021515691E+02 -0.22931449294E+02 -0.12622916209E+03  0.13409821555E+03  0.00000000000E+00 0. -1.
<mgrwt>
<rscale>  0 0.17944982E+03</rscale>
<asrwt>0</asrwt>
<pdfrwt beam="2">  1        2 0.38454032E+00 0.18435349E+03</pdfrwt>
<pdfrwt beam="1">  1       -2 0.25516640E-02 0.18435349E+03</pdfrwt>
<totfact> 0.21811493E+03</totfact>
</mgrwt>
</event>
<event>
 6    1  0.4705246E-006  0.1475913E+03  0.7546771E-02  0.1212251E+00
          1   -1    0    0  501    0  0.00000000000E+00  0.00000000000E+00  0.19020262801E+03  0.19020262801E+03  0.00000000000E+00 0. -1.
         -1   -1    0    0    0  501 -0.00000000000E+00 -0.00000000000E+00 -0.10053657879E+03  0.10053657879E+03  0.00000000000E+00 0.  1.
          5    1    1    2  502    0 -0.47542030929E+02  0.19958279298E+02  0.63453810542E+02  0.81896603652E+02  0.47000000000E+01 0. -1.
         -5    1    1    2    0  502  0.27114688402E+01 -0.84359681543E+02  0.17098950256E+02  0.86245997201E+02  0.47000000000E+01 0. -1.
        -11    1    1    2    0    0 -0.16325849417E+02  0.26276098482E+02  0.34361319117E+02  0.46234910642E+02  0.00000000000E+00 0. -1.
         11    1    1    2    0    0  0.61156411506E+02  0.38125303763E+02 -0.25248030694E+02  0.76361695301E+02  0.00000000000E+00 0.  1.
<mgrwt>
<rscale>  0 0.14080379E+03</rscale>
<asrwt>0</asrwt>
<pdfrwt beam="1">  1        1 0.29261943E-01 0.14759128E+03</pdfrwt>
<pdfrwt beam="2">  1       -1 0.15467166E-01 0.14759128E+03</pdfrwt>
<totfact> 0.46056628E+03</totfact>
</mgrwt>
</event>
<event>
 6    1  0.4705246E-006  0.3086762E+03  0.7546771E-02  0.1080982E+00
         -2   -1    0    0    0  501 -0.00000000000E+00  0.00000000000E+00  0.27928308749E+02  0.27928308749E+02  0.00000000000E+00 0.  1.
          2   -1    0    0  501    0  0.00000000000E+00 -0.00000000000E+00 -0.85290681035E+03  0.85290681035E+03  0.00000000000E+00 0. -1.
          5    1    1    2  502    0  0.21672117646E+02 -0.13642393132E+02 -0.26439788657E+02  0.37107249937E+02  0.47000000000E+01 0. -1.
         -5    1    1    2    0  502 -0.35371740008E+02  0.58007787156E+02 -0.57000144722E+03  0.57405557500E+03  0.47000000000E+01 0. -1.
        -11    1    1    2    0    0  0.21302678987E+02 -0.71235730086E+02 -0.22998923275E+03  0.24170928934E+03  0.00000000000E+00 0. -1.
         11    1    1    2    0    0 -0.76030566251E+01  0.26870336062E+02  0.14519670249E+01  0.27963004817E+02  0.00000000000E+00 0.  1.
<mgrwt>
<rscale>  0 0.30867617E+03</rscale>
<asrwt>0</asrwt>
<pdfrwt beam="2">  1        2 0.13121642E+00 0.30867617E+03</pdfrwt>
<pdfrwt beam="1">  1       -2 0.42966634E-02 0.30867617E+03</pdfrwt>
<totfact> 0.80607884E+03</totfact>
</mgrwt>
</event>
<event>
 6    1  0.4705246E-006  0.1455564E+03  0.7546771E-02  0.1219661E+00
         -2   -1    0    0    0  501 -0.00000000000E+00  0.00000000000E+00  0.43991277064E+02  0.43991277064E+02  0.00000000000E+00 0.  1.
          2   -1    0    0  501    0  0.00000000000E+00 -0.00000000000E+00 -0.71003423104E+03  0.71003423104E+03  0.00000000000E+00 0. -1.
          5    1    1    2  502    0  0.88495981450E+02  0.14199715411E+02 -0.53580645788E+03  0.54327140635E+03  0.47000000000E+01 0.  1.
         -5    1    1    2    0  502 -0.27776625471E+02  0.29132029667E+02 -0.82226282027E+02  0.91670428880E+02  0.47000000000E+01 0.  1.
        -11    1    1    2    0    0 -0.44198338750E+02 -0.53524671533E+02 -0.63631429648E+02  0.94166567581E+02  0.00000000000E+00 0. -1.
         11    1    1    2    0    0 -0.16521017229E+02  0.10192926455E+02  0.15621215580E+02  0.24917105293E+02  0.00000000000E+00 0.  1.
<mgrwt>
<rscale>  0 0.13539636E+03</rscale>
<asrwt>0</asrwt>
<pdfrwt beam="2">  1        2 0.10923602E+00 0.14555640E+03</pdfrwt>
<pdfrwt beam="1">  1       -2 0.67678895E-02 0.14555640E+03</pdfrwt>
<totfact> 0.49248063E+03</totfact>
</mgrwt>
</event>
<event>
 6    1  0.4705246E-006  0.1323211E+03  0.7546771E-02  0.1234951E+00
         -3   -1    0    0    0  501 -0.00000000000E+00  0.00000000000E+00  0.50978316345E+02  0.50978316345E+02  0.00000000000E+00 0.  1.
          3   -1    0    0  501    0  0.00000000000E+00 -0.00000000000E+00 -0.29082113495E+03  0.29082113495E+03  0.00000000000E+00 0. -1.
          5    1    1    2  502    0  0.73072860801E+02  0.30433443449E+02 -0.15607602211E+03  0.17506470845E+03  0.47000000000E+01 0. -1.
         -5    1    1    2    0  502 -0.17278997993E+02 -0.32767813314E+02 -0.12795016539E+02  0.39472722344E+02  0.47000000000E+01 0.  1.
        -11    1    1    2    0    0 -0.69947836904E+02  0.38002935077E+01 -0.83013965040E+02  0.10862071860E+03  0.00000000000E+00 0.  1.
         11    1    1    2    0    0  0.14153974097E+02 -0.14659236421E+01  0.12042185086E+02  0.18641301899E+02  0.00000000000E+00 0. -1.
<mgrwt>
<rscale>  0 0.12507579E+03</rscale>
<asrwt>0</asrwt>
<pdfrwt beam="2">  1        3 0.44741713E-01 0.13232113E+03</pdfrwt>
<pdfrwt beam="1">  1       -3 0.78428179E-02 0.13232113E+03</pdfrwt>
<totfact> 0.12602355E+03</totfact>
</mgrwt>
</event>
<event>
 6    1  0.4705246E-006  0.1667026E+03  0.7546771E-02  0.1185903E+00
          2   -1    0    0  501    0  0.00000000000E+00  0.00000000000E+00  0.42444825453E+03  0.42444825453E+03  0.00000000000E+00 0. -1.
         -2   -1    0    0    0  501 -0.00000000000E+00 -0.00000000000E+00 -0.63885536746E+02  0.63885536746E+02  0.00000000000E+00 0.  1.
          5    1    1    2  502    0  0.11840970693E+01  0.78573830129E+02  0.18998289490E+03  0.20564736619E+03  0.47000000000E+01 0. -1.
         -5    1    1    2    0  502 -0.74257477578E+02  0.40373856463E+01  0.64382299278E+02  0.98476616104E+02  0.47000000000E+01 0. -1.
        -11    1    1    2    0    0 -0.21318317376E+02 -0.36825138467E+01 -0.63094913340E-01  0.21634129170E+02  0.00000000000E+00 0.  1.
         11    1    1    2    0    0  0.94391697884E+02 -0.78928701929E+02  0.10626061852E+03  0.16257567981E+03  0.00000000000E+00 0. -1.
<mgrwt>
<rscale>  0 0.16249987E+03</rscale>
<asrwt>0</asrwt>
<pdfrwt beam="1">  1        2 0.65299730E-01 0.16670256E+03</pdfrwt>
<pdfrwt beam="2">  1       -2 0.98285444E-02 0.16670256E+03</pdfrwt>
<totfact> 0.49621776E+03</totfact>
</mgrwt>
</event>
<event>
 6    1  0.4705246E-006  0.1295115E+03  0.7546771E-02  0.1241692E+00
          1   -1    0    0  501    0  0.00000000000E+00  0.00000000000E+00  0.72483181091E+03  0.72483181091E+03  0.00000000000E+00 0. -1.
         -1   -1    0    0    0  501 -0.00000000000E+00 -0.00000000000E+00 -0.24782319781E+02  0.24782319781E+02  0.00000000000E+00 0.  1.
          5    1    1    2  502    0 -0.19030272362E+02 -0.14639044447E+02  0.20797030283E+02  0.32110113003E+02  0.47000000000E+01 0. -1.
         -5    1    1    2    0  502  0.38893440599E+02  0.42104047674E+02  0.56032904360E+03  0.56327273825E+03  0.47000000000E+01 0. -1.
        -11    1    1    2    0    0  0.43451505085E+01 -0.39739780087E+02  0.89611289655E+01  0.40968674456E+02  0.00000000000E+00 0.  1.
         11    1    1    2    0    0 -0.24208318745E+02  0.12274776860E+02  0.10996228828E+03  0.11326260498E+03  0.00000000000E+00 0. -1.
<mgrwt>
<rscale>  0 0.12085545E+03</rscale>
<asrwt>0</asrwt>
<pdfrwt beam="1">  1        1 0.11151257E+00 0.12951149E+03</pdfrwt>
<pdfrwt beam="2">  1       -1 0.38126651E-02 0.12951149E+03</pdfrwt>
<totfact> 0.68060922E+03</totfact>
</mgrwt>
</event>
<event>
 6    1  0.4705246E-006  0.2456885E+03  0.7546771E-02  0.1118525E+00
          2   -1    0    0  501    0  0.00000000000E+00  0.00000000000E+00  0.22405593575E+04  0.22405593575E+04  0.00000000000E+00 0. -1.
         -2   -1    0    0    0  501 -0.00000000000E+00 -0.00000000000E+00 -0.25703779540E+02  0.25703779540E+02  0.00000000000E+00 0.  1.
          5    1    1    2  502    0 -0.13853313578E+03 -0.34553629988E+02  0.43100951683E+03  0.45406681959E+03  0.47000000000E+01 0. -1.
         -5    1    1    2    0  502 -0.42104336765E+02 -0.75483667162E+02  0.57675377709E+03  0.58321314163E+03  0.47000000000E+01 0. -1.
        -11    1    1    2    0    0  0.18550628764E+02  0.57605402271E+02  0.32816482624E+03  0.33369845876E+03  0.00000000000E+00 0.  1.
         11    1    1    2    0    0  0.16208684378E+03  0.52431894878E+02  0.87892745781E+03  0.89528471707E+03  0.00000000000E+00 0. -1.
<mgrwt>
<rscale>  0 0.24191230E+03</rscale>
<asrwt>0</asrwt>
<pdfrwt beam="1">  1        2 0.34470129E+00 0.24568855E+03</pdfrwt>
<pdfrwt beam="2">  1       -2 0.39544294E-02 0.24568855E+03</pdfrwt>
<totfact> 0.15526996E+03</totfact>
</mgrwt>
</event>
<event>
 6    1  0.4705246E-006  0.1475153E+03  0.7546771E-02  0.1212707E+00
          2   -1    0    0  501    0  0.00000000000E+00  0.00000000000E+00  0.64780264086E+02  0.64780264086E+02  0.00000000000E+00 0. -1.
         -2   -1    0    0    0  501 -0.00000000000E+00 -0.00000000000E+00 -0.27922151210E+03  0.27922151210E+03  0.00000000000E+00 0.  1.
          5    1    1    2  502    0 -0.44212483976E+02  0.22573295464E+02  0.53874480212E+01  0.50153883236E+02  0.47000000000E+01 0. -1.
         -5    1    1    2    0  502  0.37792081427E+02  0.55491866764E+02 -0.11643511380E+03  0.13448722773E+03  0.47000000000E+01 0. -1.
        -11    1    1    2    0    0  0.11779275938E+02 -0.87087728297E+02 -0.42588291833E+02  0.97656471177E+02  0.00000000000E+00 0. -1.
         11    1    1    2    0    0 -0.53588733892E+01  0.90225660685E+01 -0.60805290397E+02  0.61704194045E+02  0.00000000000E+00 0.  1.
<mgrwt>
<rscale>  0 0.14046336E+03</rscale>
<asrwt>0</asrwt>
<pdfrwt beam="1">  1        2 0.99661946E-02 0.14751527E+03</pdfrwt>
<pdfrwt beam="2">  1       -2 0.42957155E-01 0.14751527E+03</pdfrwt>
<totfact> 0.32167422E+03</totfact>
</mgrwt>
</event>
<event>
 6    1  0.4705246E-006  0.1264534E+03  0.7546771E-02  0.1247827E+00
         -1   -1    0    0    0  501 -0.00000000000E+00  0.00000000000E+00  0.16709550249E+03  0.16709550249E+03  0.00000000000E+00 0.  1.
          1   -1    0    0  501    0  0.00000000000E+00 -0.00000000000E+00 -0.74191130154E+02  0.74191130154E+02  0.00000000000E+00 0. -1.
          5    1    1    2  502    0 -0.24595167719E+02 -0.31513201369E+02  0.58896463832E+02  0.71336439409E+02  0.47000000000E+01 0. -1.
         -5    1    1    2    0  502  0.43718431729E+02  0.31354176527E+02 -0.25104327425E+02  0.59554201481E+02  0.47000000000E+01 0. -1.
        -11    1    1    2    0    0  0.45223456609E+01 -0.30036206073E+02  0.64855874354E+02  0.71616406806E+02  0.00000000000E+00 0.  1.
         11    1    1    2    0    0 -0.23645609671E+02  0.30195230915E+02 -0.57436384223E+01  0.38779584952E+02  0.00000000000E+00 0. -1.
<mgrwt>
<rscale>  0 0.11717746E+03</rscale>
<asrwt>0</asrwt>
<pdfrwt beam="2">  1        1 0.11414020E-01 0.12645336E+03</pdfrwt>
<pdfrwt beam="1">  1       -1 0.25707000E-01 0.12645336E+03</pdfrwt>
<totfact> 0.67214710E+03</totfact>
</mgrwt>
</event>
<event>
 6    1  0.4705246E-006  0.3128334E+03  0.7546771E-02  0.1080488E+00
          2   -1    0    0  501    0  0.00000000000E+00  0.00000000000E+00  0.20810354008E+04  0.20810354008E+04  0.00000000000E+00 0. -1.
         -2   -1    0    0    0  501 -0.00000000000E+00 -0.00000000000E+00 -0.48963480504E+02  0.48963480504E+02  0.00000000000E+00 0.  1.
          5    1    1    2  502    0  0.13673058561E+03  0.42468746410E+02  0.92675849694E+03  0.93776449555E+03  0.47000000000E+01 0.  1.
         -5    1    1    2    0  502  0.12737247190E+03  0.69291120626E+02  0.40365766902E+03  0.42893660342E+03  0.47000000000E+01 0.  1.
        -11    1    1    2    0    0 -0.11878575551E+03 -0.98431239148E+01  0.34311304906E+03  0.36322652331E+03  0.00000000000E+00 0.  1.
         11    1    1    2    0    0 -0.14531730200E+03 -0.10191674312E+03  0.35854270527E+03  0.40007125901E+03  0.00000000000E+00 0. -1.
<mgrwt>
<rscale>  0 0.30970442E+03</rscale>
<asrwt>0</asrwt>
<pdfrwt beam="1">  1        2 0.32015922E+00 0.31283337E+03</pdfrwt>
<pdfrwt beam="2">  1       -2 0.75328448E-02 0.31283337E+03</pdfrwt>
<totfact> 0.69596511E+02</totfact>
</mgrwt>
</event>
<event>
 6    1  0.4705246E-006  0.1691772E+03  0.7546771E-02  0.1183332E+00
         -1   -1    0    0    0  501 -0.00000000000E+00  0.00000000000E+00  0.98755793516E+02  0.98755793516E+02  0.00000000000E+00 0.  1.
          1   -1    0    0  501    0  0.00000000000E+00 -0.00000000000E+00 -0.27853078251E+03  0.27853078251E+03  0.00000000000E+00 0. -1.
          5    1    1    2  502    0  0.25855013633E+02  0.73473798338E+02 -0.18626652124E+02  0.80224204213E+02  0.47000000000E+01 0. -1.
         -5    1    1    2    0  502 -0.59281742376E+02  0.33777885575E+02 -0.12159926884E+03  0.13951251813E+03  0.47000000000E+01 0.  1.
        -11    1    1    2    0    0  0.37406953328E+02 -0.31976055008E+02 -0.61756530283E+02  0.78965924826E+02  0.00000000000E+00 0. -1.
         11    1    1    2    0    0 -0.39802245843E+01 -0.75275628906E+02  0.22207462251E+02  0.78583928857E+02  0.00000000000E+00 0.  1.
<mgrwt>
<rscale>  0 0.16484565E+03</rscale>
<asrwt>0</asrwt>
<pdfrwt beam="2">  1        1 0.42850890E-01 0.16917718E+03</pdfrwt>
<pdfrwt beam="1">  1       -1 0.15193199E-01 0.16917718E+03</pdfrwt>
<totfact> 0.29664349E+03</totfact>
</mgrwt>
</event>
<event>
 6    1  0.4705246E-006  0.1277838E+03  0.7546771E-02  0.1244340E+00
          1   -1    0    0  501    0  0.00000000000E+00  0.00000000000E+00  0.10082415489E+03  0.10082415489E+03  0.00000000000E+00 0. -1.
         -1   -1    0    0    0  501 -0.00000000000E+00 -0.00000000000E+00 -0.12848883145E+03  0.12848883145E+03  0.00000000000E+00 0.  1.
          5    1    1    2  502    0 -0.67119598766E+02 -0.18754712804E+02 -0.70612399045E+01  0.70204920766E+02  0.47000000000E+01 0. -1.
         -5    1    1    2    0  502  0.45335338679E+02  0.33900398186E+02  0.95673757760E+01  0.57603425328E+02  0.47000000000E+01 0. -1.
        -11    1    1    2    0    0 -0.51716670188E+01 -0.11758426188E+02 -0.59882341557E+02  0.61244604305E+02  0.00000000000E+00 0.  1.
         11    1    1    2    0    0  0.26955927106E+02 -0.33872591940E+01  0.29711529120E+02  0.40260035937E+02  0.00000000000E+00 0. -1.
<mgrwt>
<rscale>  0 0.11924957E+03</rscale>
<asrwt>0</asrwt>
<pdfrwt beam="1">  1        1 0.15511408E-01 0.12778377E+03</pdfrwt>
<pdfrwt beam="2">  1       -1 0.19767513E-01 0.12778377E+03</pdfrwt>
<totfact> 0.69110070E+03</totfact>
</mgrwt>
</event>
<event>
 6    1  0.4705246E-006  0.1182551E+03  0.7546771E-02  0.1258413E+00
          2   -1    0    0  501    0  0.00000000000E+00  0.00000000000E+00  0.23207172458E+03  0.23207172458E+03  0.00000000000E+00 0. -1.
         -2   -1    0    0    0  501 -0.00000000000E+00 -0.00000000000E+00 -0.71075037123E+02  0.71075037123E+02  0.00000000000E+00 0.  1.
          5    1    1    2  502    0 -0.65676341808E+02  0.54675325641E+01  0.10211627201E+03  0.12162688352E+03  0.47000000000E+01 0. -1.
         -5    1    1    2    0  502  0.50495359455E+02  0.11683895924E+02  0.71347646925E+02  0.88311219401E+02  0.47000000000E+01 0.  1.
        -11    1    1    2    0    0 -0.30069172673E+02 -0.14341467454E+02  0.18688606859E+02  0.38198126398E+02  0.00000000000E+00 0. -1.
         11    1    1    2    0    0  0.45250155026E+02 -0.28099610338E+01 -0.31155838336E+02  0.55010532385E+02  0.00000000000E+00 0.  1.
<mgrwt>
<rscale>  0 0.11117293E+03</rscale>
<asrwt>0</asrwt>
<pdfrwt beam="1">  1        2 0.35703342E-01 0.11825513E+03</pdfrwt>
<pdfrwt beam="2">  1       -2 0.10934621E-01 0.11825513E+03</pdfrwt>
<totfact> 0.78100257E+03</totfact>
</mgrwt>
</event>
<event>
 6    1  0.4705246E-006  0.4206815E+03  0.7546771E-02  0.1036845E+00
         -2   -1    0    0    0  501 -0.00000000000E+00  0.00000000000E+00  0.87125863947E+02  0.87125863947E+02  0.00000000000E+00 0.  1.
          2   -1    0    0  501    0  0.00000000000E+00 -0.00000000000E+00 -0.50780823950E+03  0.50780823950E+03  0.00000000000E+00 0. -1.
          5    1    1    2  502    0  0.54688768406E+02 -0.32351184363E+00 -0.15856030449E+02  0.57135538427E+02  0.47000000000E+01 0.  1.
         -5    1    1    2    0  502  0.95373116620E+02  0.83817011505E+02 -0.27589359281E+03  0.30374444414E+03  0.47000000000E+01 0.  1.
        -11    1    1    2    0    0 -0.78721756729E+02 -0.17179815019E+02 -0.11351007322E+02  0.81370181232E+02  0.00000000000E+00 0.  1.
         11    1    1    2    0    0 -0.71340128297E+02 -0.66313684642E+02 -0.11758174497E+03  0.15268393965E+03  0.00000000000E+00 0. -1.
<mgrwt>
<rscale>  0 0.42068150E+03</rscale>
<asrwt>0</asrwt>
<pdfrwt beam="2">  1        2 0.78124347E-01 0.42068150E+03</pdfrwt>
<pdfrwt beam="1">  1       -2 0.13403979E-01 0.42068150E+03</pdfrwt>
<totfact> 0.25384561E+03</totfact>
</mgrwt>
</event>
<event>
 6    1  0.4705246E-006  0.1481286E+03  0.7546771E-02  0.1213303E+00
         -4   -1    0    0    0  501 -0.00000000000E+00  0.00000000000E+00  0.25929181796E+03  0.25929181796E+03  0.00000000000E+00 0.  1.
          4   -1    0    0  501    0  0.00000000000E+00 -0.00000000000E+00 -0.72531857768E+02  0.72531857768E+02  0.00000000000E+00 0. -1.
          5    1    1    2  502    0  0.34049422180E+01  0.49496656884E+02 -0.25633893946E+02  0.56041941374E+02  0.47000000000E+01 0. -1.
         -5    1    1    2    0  502 -0.53804261257E+02  0.11955020320E+02  0.89617385499E+02  0.10531470374E+03  0.47000000000E+01 0. -1.
        -11    1    1    2    0    0  0.19861678600E+02 -0.46616094572E+02  0.12654030105E+03  0.13630845293E+03  0.00000000000E+00 0.  1.
         11    1    1    2    0    0  0.30537640438E+02 -0.14835582631E+02 -0.37638324050E+01  0.34158577692E+02  0.00000000000E+00 0. -1.
<mgrwt>
<rscale>  0 0.14001894E+03</rscale>
<asrwt>0</asrwt>
<pdfrwt beam="2">  1        4 0.11158747E-01 0.14812859E+03</pdfrwt>
<pdfrwt beam="1">  1       -4 0.39891049E-01 0.14812859E+03</pdfrwt>
<totfact> 0.64866011E+02</totfact>
</mgrwt>
</event>
<event>
 6    1  0.4705246E-006  0.1268723E+03  0.7546771E-02  0.1244194E+00
         -2   -1    0    0    0  501 -0.00000000000E+00  0.00000000000E+00  0.33505920416E+03  0.33505920416E+03  0.00000000000E+00 0.  1.
          2   -1    0    0  501    0  0.00000000000E+00 -0.00000000000E+00 -0.42234190801E+02  0.42234190801E+02  0.00000000000E+00 0. -1.
          5    1    1    2  502    0  0.51980477866E+02  0.61849023560E+01  0.11055483569E+02  0.53707884088E+02  0.47000000000E+01 0. -1.
         -5    1    1    2    0  502 -0.52152596208E+02 -0.27842809829E+02  0.93370176707E+02  0.11061281684E+03  0.47000000000E+01 0. -1.
        -11    1    1    2    0    0  0.10966284439E+02  0.56972369483E+02  0.14384386302E+03  0.15510373048E+03  0.00000000000E+00 0.  1.
         11    1    1    2    0    0 -0.10794166097E+02 -0.35314462010E+02  0.44555490060E+02  0.57868963558E+02  0.00000000000E+00 0. -1.
<mgrwt>
<rscale>  0 0.11933737E+03</rscale>
<asrwt>0</asrwt>
<pdfrwt beam="2">  1        2 0.64975681E-02 0.12687228E+03</pdfrwt>
<pdfrwt beam="1">  1       -2 0.51547568E-01 0.12687228E+03</pdfrwt>
<totfact> 0.38148386E+03</totfact>
</mgrwt>
</event>
<event>
 6    1  0.4705246E-006  0.3518390E+03  0.7546771E-02  0.1061863E+00
         -2   -1    0    0    0  501 -0.00000000000E+00  0.00000000000E+00  0.52414477032E+02  0.52414477032E+02  0.00000000000E+00 0.  1.
          2   -1    0    0  501    0  0.00000000000E+00 -0.00000000000E+00 -0.59044133251E+03  0.59044133251E+03  0.00000000000E+00 0. -1.
          5    1    1    2  502    0 -0.99216138901E+01 -0.25214654902E+01 -0.33411163808E+03  0.33430147010E+03  0.47000000000E+01 0. -1.
         -5    1    1    2    0  502  0.10794046920E+02  0.90258586511E+02 -0.14320112248E+03  0.16968139370E+03  0.47000000000E+01 0.  1.
        -11    1    1    2    0    0  0.26903929137E+02 -0.92837136580E+02 -0.47123510574E+02  0.10753223043E+03  0.00000000000E+00 0.  1.
         11    1    1    2    0    0 -0.27776362166E+02  0.51000155596E+01 -0.13590584343E+02  0.31340715319E+02  0.00000000000E+00 0. -1.
<mgrwt>
<rscale>  0 0.35183902E+03</rscale>
<asrwt>0</asrwt>
<pdfrwt beam="2">  1        2 0.90837128E-01 0.35183902E+03</pdfrwt>
<pdfrwt beam="1">  1       -2 0.80637657E-02 0.35183902E+03</pdfrwt>
<totfact> 0.48207012E+03</totfact>
</mgrwt>
</event>
<event>
 6    1  0.4705246E-006  0.2700886E+03  0.7546771E-02  0.1101229E+00
          2   -1    0    0  501    0  0.00000000000E+00  0.00000000000E+00  0.17646222969E+04  0.17646222969E+04  0.00000000000E+00 0. -1.
         -2   -1    0    0    0  501 -0.00000000000E+00 -0.00000000000E+00 -0.10334768371E+02  0.10334768371E+02  0.00000000000E+00 0.  1.
          5    1    1    2  502    0  0.37534096082E+02 -0.10235040694E+03  0.76419880888E+03  0.77194968986E+03  0.47000000000E+01 0. -1.
         -5    1    1    2    0  502 -0.23589497921E+02  0.26552798767E+02  0.36591819218E+03  0.36766796013E+03  0.47000000000E+01 0. -1.
        -11    1    1    2    0    0 -0.49757368282E+02  0.24592913205E+02  0.26151013910E+03  0.26733529496E+03  0.00000000000E+00 0.  1.
         11    1    1    2    0    0  0.35812770121E+02  0.51204694973E+02  0.36266038835E+03  0.36800412031E+03  0.00000000000E+00 0. -1.
<mgrwt>
<rscale>  0 0.27008860E+03</rscale>
<asrwt>0</asrwt>
<pdfrwt beam="1">  1        2 0.27148011E+00 0.27008860E+03</pdfrwt>
<pdfrwt beam="2">  1       -2 0.15899658E-02 0.27008860E+03</pdfrwt>
<totfact> 0.10696602E+04</totfact>
</mgrwt>
</event>
<event>
 6    1  0.4705246E-006  0.1614737E+03  0.7546771E-02  0.1199925E+00
          2   -1    0    0  501    0  0.00000000000E+00  0.00000000000E+00  0.60313280283E+03  0.60313280283E+03  0.00000000000E+00 0. -1.
         -2   -1    0    0    0  501 -0.00000000000E+00 -0.00000000000E+00 -0.11086141412E+03  0.11086141412E+03  0.00000000000E+00 0.  1.
          5    1    1    2  502    0 -0.42316787920E+02  0.82944548761E+02  0.43691010958E+03  0.44674717969E+03  0.47000000000E+01 0. -1.
         -5    1    1    2    0  502 -0.28189652549E+02 -0.49581980994E+02  0.11744270348E+03  0.13064420366E+03  0.47000000000E+01 0.  1.
        -11    1    1    2    0    0  0.87443900428E+02 -0.87619290039E+01 -0.60500364167E+02  0.10669349177E+03  0.00000000000E+00 0.  1.
         11    1    1    2    0    0 -0.16937459959E+02 -0.24600638764E+02 -0.15810601828E+01  0.29909341831E+02  0.00000000000E+00 0. -1.
<mgrwt>
<rscale>  0 0.15044647E+03</rscale>
<asrwt>0</asrwt>
<pdfrwt beam="1">  1        2 0.92789660E-01 0.16147374E+03</pdfrwt>
<pdfrwt beam="2">  1       -2 0.17055603E-01 0.16147374E+03</pdfrwt>
<totfact> 0.13760790E+03</totfact>
</mgrwt>
</event>
<event>
 6    1  0.4705246E-006  0.1820748E+03  0.7546771E-02  0.1175275E+00
         -2   -1    0    0    0  501 -0.00000000000E+00  0.00000000000E+00  0.55287505611E+02  0.55287505611E+02  0.00000000000E+00 0.  1.
          2   -1    0    0  501    0  0.00000000000E+00 -0.00000000000E+00 -0.51218281641E+03  0.51218281641E+03  0.00000000000E+00 0. -1.
          5    1    1    2  502    0  0.55132918450E+02  0.16422924438E+02 -0.75645870341E+02  0.95151136849E+02  0.47000000000E+01 0.  1.
         -5    1    1    2    0  502 -0.40626124924E+02  0.11516433239E+03 -0.23675620809E+03  0.26643741770E+03  0.47000000000E+01 0.  1.
        -11    1    1    2    0    0 -0.16417782214E+02 -0.42080443211E+02 -0.90991550561E+02  0.10158626653E+03  0.00000000000E+00 0. -1.
         11    1    1    2    0    0  0.19109886878E+01 -0.89506813616E+02 -0.53501681809E+02  0.10429550095E+03  0.00000000000E+00 0.  1.
<mgrwt>
<rscale>  0 0.17249038E+03</rscale>
<asrwt>0</asrwt>
<pdfrwt beam="2">  1        2 0.78797354E-01 0.18207478E+03</pdfrwt>
<pdfrwt beam="1">  1       -2 0.85057704E-02 0.18207478E+03</pdfrwt>
<totfact> 0.50869928E+03</totfact>
</mgrwt>
</event>
<event>
 6    1  0.4705246E-006  0.3356721E+03  0.7546771E-02  0.1068654E+00
          1   -1    0    0  501    0  0.00000000000E+00  0.00000000000E+00  0.45927117430E+03  0.45927117430E+03  0.00000000000E+00 0. -1.
         -1   -1    0    0    0  501 -0.00000000000E+00 -0.00000000000E+00 -0.61334007496E+02  0.61334007496E+02  0.00000000000E+00 0.  1.
          5    1    1    2  502    0 -0.31456729492E+01 -0.88301650517E+01 -0.62687717514E+01  0.12216978858E+02  0.47000000000E+01 0.  1.
         -5    1    1    2    0  502  0.10956993064E+02  0.93154494042E+02  0.36723292025E+03  0.37905134636E+03  0.47000000000E+01 0.  1.
        -11    1    1    2    0    0 -0.49312032162E+02 -0.45336009032E+02  0.19079397590E+02  0.69649505693E+02  0.00000000000E+00 0. -1.
         11    1    1    2    0    0  0.41500712048E+02 -0.38988319958E+02  0.17893620710E+02  0.59687350886E+02  0.00000000000E+00 0.  1.
<mgrwt>
<rscale>  0 0.33567211E+03</rscale>
<asrwt>0</asrwt>
<pdfrwt beam="1">  1        1 0.70657101E-01 0.33567211E+03</pdfrwt>
<pdfrwt beam="2">  1       -1 0.94360015E-02 0.33567211E+03</pdfrwt>
<totfact> 0.33803412E+03</totfact>
</mgrwt>
</event>
<event>
 6    1  0.4705246E-006  0.2060610E+03  0.7546771E-02  0.1166921E+00
          2   -1    0    0  501    0  0.00000000000E+00  0.00000000000E+00  0.12696092629E+04  0.12696092629E+04  0.00000000000E+00 0. -1.
         -2   -1    0    0    0  501 -0.00000000000E+00 -0.00000000000E+00 -0.31405537155E+02  0.31405537155E+02  0.00000000000E+00 0.  1.
          5    1    1    2  502    0 -0.16736858756E+02  0.12554705081E+02  0.86043639491E+03  0.86070356265E+03  0.47000000000E+01 0. -1.
         -5    1    1    2    0  502  0.91790585429E+02  0.24121963583E+02  0.22703586066E+03  0.24611938714E+03  0.47000000000E+01 0.  1.
        -11    1    1    2    0    0 -0.36170610577E+02  0.21120295075E+01  0.13086301784E+03  0.13578624075E+03  0.00000000000E+00 0. -1.
         11    1    1    2    0    0 -0.38883116096E+02 -0.38788698172E+02  0.19868452302E+02  0.58405609492E+02  0.00000000000E+00 0.  1.
<mgrwt>
<rscale>  0 0.18091470E+03</rscale>
<asrwt>0</asrwt>
<pdfrwt beam="1">  1        2 0.19532446E+00 0.20606100E+03</pdfrwt>
<pdfrwt beam="2">  1       -2 0.48316221E-02 0.20606100E+03</pdfrwt>
<totfact> 0.37463117E+03</totfact>
</mgrwt>
</event>
<event>
 6    1  0.4705246E-006  0.1334372E+03  0.7546771E-02  0.1235283E+00
         -2   -1    0    0    0  501 -0.00000000000E+00  0.00000000000E+00  0.24872055238E+02  0.24872055238E+02  0.00000000000E+00 0.  1.
          2   -1    0    0  501    0  0.00000000000E+00 -0.00000000000E+00 -0.85734994281E+03  0.85734994281E+03  0.00000000000E+00 0. -1.
          5    1    1    2  502    0 -0.70854900518E+01  0.44455119156E+02 -0.32590191306E+03  0.32902979915E+03  0.47000000000E+01 0.  1.
         -5    1    1    2    0  502 -0.19735860796E+02 -0.82618416826E+02 -0.38504981131E+03  0.39433583934E+03  0.47000000000E+01 0.  1.
        -11    1    1    2    0    0  0.50122714153E+02  0.52987184497E+01 -0.10267142929E+03  0.11437563239E+03  0.00000000000E+00 0. -1.
         11    1    1    2    0    0 -0.23301363306E+02  0.32864579220E+02 -0.18854733912E+02  0.44480727176E+02  0.00000000000E+00 0.  1.
<mgrwt>
<rscale>  0 0.12486311E+03</rscale>
<asrwt>0</asrwt>
<pdfrwt beam="2">  1        2 0.13190001E+00 0.13343722E+03</pdfrwt>
<pdfrwt beam="1">  1       -2 0.38264695E-02 0.13343722E+03</pdfrwt>
<totfact> 0.91631959E+03</totfact>
</mgrwt>
</event>
<event>
 6    1  0.4705246E-006  0.1469711E+03  0.7546771E-02  0.1214050E+00
          1   -1    0    0  501    0  0.00000000000E+00  0.00000000000E+00  0.46332712499E+03  0.46332712499E+03  0.00000000000E+00 0. -1.
         -1   -1    0    0    0  501 -0.00000000000E+00 -0.00000000000E+00 -0.57929236009E+02  0.57929236009E+02  0.00000000000E+00 0.  1.
          5    1    1    2  502    0 -0.62133268140E+02 -0.29250753337E+02  0.32394730386E+03  0.33117985334E+03  0.47000000000E+01 0. -1.
         -5    1    1    2    0  502  0.27634509504E+02 -0.38913450205E+02  0.44199710665E+02  0.65219837053E+02  0.47000000000E+01 0.  1.
        -11    1    1    2    0    0  0.24648068557E+02  0.64934891361E+02 -0.15443955968E+02  0.71151831850E+02  0.00000000000E+00 0.  1.
         11    1    1    2    0    0  0.98506900796E+01  0.32293121811E+01  0.52694830423E+02  0.53704838753E+02  0.00000000000E+00 0. -1.
<mgrwt>
<rscale>  0 0.13946520E+03</rscale>
<asrwt>0</asrwt>
<pdfrwt beam="1">  1        1 0.71281094E-01 0.14697105E+03</pdfrwt>
<pdfrwt beam="2">  1       -1 0.89121905E-02 0.14697105E+03</pdfrwt>
<totfact> 0.35456380E+03</totfact>
</mgrwt>
</event>
<event>
 6    1  0.4705246E-006  0.1408731E+03  0.7546771E-02  0.1223342E+00
         -2   -1    0    0    0  501 -0.00000000000E+00  0.00000000000E+00  0.22390629901E+03  0.22390629901E+03  0.00000000000E+00 0. -1.
          2   -1    0    0  501    0  0.00000000000E+00 -0.00000000000E+00 -0.88009296894E+02  0.88009296894E+02  0.00000000000E+00 0.  1.
          5    1    1    2  502    0  0.14055496571E+02  0.10054246366E+03  0.80806873969E+01  0.10194965175E+03  0.47000000000E+01 0. -1.
         -5    1    1    2    0  502 -0.15269407556E+02 -0.35592724886E+02 -0.18872127410E+01  0.39059549970E+02  0.47000000000E+01 0. -1.
        -11    1    1    2    0    0  0.42044928784E+02 -0.48399379483E+02  0.95982415327E+02  0.11542486744E+03  0.00000000000E+00 0. -1.
         11    1    1    2    0    0 -0.40831017798E+02 -0.16550359289E+02  0.33721112133E+02  0.55481526750E+02  0.00000000000E+00 0.  1.
<mgrwt>
<rscale>  0 0.13281204E+03</rscale>
<asrwt>0</asrwt>
<pdfrwt beam="2">  1        2 0.13539892E-01 0.14087312E+03</pdfrwt>
<pdfrwt beam="1">  1       -2 0.34447123E-01 0.14087312E+03</pdfrwt>
<totfact> 0.33556911E+03</totfact>
</mgrwt>
</event>
<event>
 6    1  0.4705246E-006  0.1215657E+03  0.7546771E-02  0.1254950E+00
         -1   -1    0    0    0  501 -0.00000000000E+00  0.00000000000E+00  0.12765381737E+02  0.12765381737E+02  0.00000000000E+00 0.  1.
          1   -1    0    0  501    0  0.00000000000E+00 -0.00000000000E+00 -0.90002986249E+03  0.90002986249E+03  0.00000000000E+00 0. -1.
          5    1    1    2  502    0 -0.18398084437E+02  0.42452133310E+02 -0.43053958037E+03  0.43304398552E+03  0.47000000000E+01 0. -1.
         -5    1    1    2    0  502  0.17856148203E+02 -0.50571253951E+02 -0.13348812135E+03  0.14393561858E+03  0.47000000000E+01 0.  1.
        -11    1    1    2    0    0  0.19433075011E+02 -0.36421918981E+02 -0.17831084484E+03  0.18302720556E+03  0.00000000000E+00 0.  1.
         11    1    1    2    0    0 -0.18891138778E+02  0.44541039622E+02 -0.14492593420E+03  0.15278843457E+03  0.00000000000E+00 0. -1.
<mgrwt>
<rscale>  0 0.11309109E+03</rscale>
<asrwt>0</asrwt>
<pdfrwt beam="2">  1        1 0.13846610E+00 0.12156568E+03</pdfrwt>
<pdfrwt beam="1">  1       -1 0.19639053E-02 0.12156568E+03</pdfrwt>
<totfact> 0.12792700E+04</totfact>
</mgrwt>
</event>
<event>
 6    1  0.4705246E-006  0.2364871E+03  0.7546771E-02  0.1122155E+00
          1   -1    0    0  501    0  0.00000000000E+00  0.00000000000E+00  0.32006754066E+02  0.32006754066E+02  0.00000000000E+00 0. -1.
         -1   -1    0    0    0  501 -0.00000000000E+00 -0.00000000000E+00 -0.43683070971E+03  0.43683070971E+03  0.00000000000E+00 0.  1.
          5    1    1    2  502    0 -0.62737000706E+01 -0.27052053986E+01 -0.19758749042E+03  0.19776143157E+03  0.47000000000E+01 0.  1.
         -5    1    1    2    0  502  0.44714210469E+02 -0.20224383075E+02 -0.12659639692E+02  0.50899339542E+02  0.47000000000E+01 0.  1.
        -11    1    1    2    0    0  0.83135822264E+01 -0.18285342860E+02 -0.51166085989E+01  0.20727978592E+02  0.00000000000E+00 0. -1.
         11    1    1    2    0    0 -0.46754092625E+02  0.41214931334E+02 -0.18946021694E+03  0.19944871407E+03  0.00000000000E+00 0.  1.
<mgrwt>
<rscale>  0 0.23648707E+03</rscale>
<asrwt>0</asrwt>
<pdfrwt beam="1">  1        1 0.49241165E-02 0.23648707E+03</pdfrwt>
<pdfrwt beam="2">  1       -1 0.67204718E-01 0.23648707E+03</pdfrwt>
<totfact> 0.39153079E+03</totfact>
</mgrwt>
</event>
<event>
 6    1  0.4705246E-006  0.2529447E+03  0.7546771E-02  0.1113588E+00
          1   -1    0    0  501    0  0.00000000000E+00  0.00000000000E+00  0.30843000120E+03  0.30843000120E+03  0.00000000000E+00 0. -1.
         -1   -1    0    0    0  501 -0.00000000000E+00 -0.00000000000E+00 -0.22194578326E+03  0.22194578326E+03  0.00000000000E+00 0.  1.
          5    1    1    2  502    0  0.42145840838E+02 -0.45230634589E+02  0.39958498392E+02  0.73762143401E+02  0.47000000000E+01 0.  1.
         -5    1    1    2    0  502 -0.84995171597E+02 -0.17045968245E+03  0.93767521027E+02  0.21235611726E+03  0.47000000000E+01 0.  1.
        -11    1    1    2    0    0  0.57637287913E+01  0.25526351664E+02 -0.43153221864E+02  0.50467967624E+02  0.00000000000E+00 0.  1.
         11    1    1    2    0    0  0.37085601968E+02  0.19016396538E+03 -0.40885796186E+01  0.19378955618E+03  0.00000000000E+00 0. -1.
<mgrwt>
<rscale>  0 0.24955224E+03</rscale>
<asrwt>0</asrwt>
<pdfrwt beam="1">  1        1 0.47450770E-01 0.25294468E+03</pdfrwt>
<pdfrwt beam="2">  1       -1 0.34145505E-01 0.25294468E+03</pdfrwt>
<totfact> 0.69301223E+02</totfact>
</mgrwt>
</event>
<event>
 6    1  0.4705246E-006  0.1364009E+03  0.7546771E-02  0.1230028E+00
          3   -1    0    0  501    0  0.00000000000E+00  0.00000000000E+00  0.34387542163E+03  0.34387542163E+03  0.00000000000E+00 0. -1.
         -3   -1    0    0    0  501 -0.00000000000E+00 -0.00000000000E+00 -0.53589702531E+02  0.53589702531E+02  0.00000000000E+00 0.  1.
          5    1    1    2  502    0 -0.28585818201E+02  0.52829010171E+02  0.35155843388E+02  0.69757269458E+02  0.47000000000E+01 0.  1.
         -5    1    1    2    0  502  0.14116594921E+02 -0.19127624575E+00  0.21214347963E+03  0.21266466746E+03  0.47000000000E+01 0.  1.
        -11    1    1    2    0    0  0.71606856405E+01 -0.75994973725E+02  0.14868942517E+02  0.77766296697E+02  0.00000000000E+00 0.  1.
         11    1    1    2    0    0  0.73085376399E+01  0.23357239800E+02  0.28117453568E+02  0.37276890545E+02  0.00000000000E+00 0. -1.
<mgrwt>
<rscale>  0 0.12828164E+03</rscale>
<asrwt>0</asrwt>
<pdfrwt beam="1">  1        3 0.52903909E-01 0.13640086E+03</pdfrwt>
<pdfrwt beam="2">  1       -3 0.82445699E-02 0.13640086E+03</pdfrwt>
<totfact> 0.83702557E+02</totfact>
</mgrwt>
</event>
<event>
 6    1  0.4705246E-006  0.1856289E+03  0.7546771E-02  0.1170234E+00
         -1   -1    0    0    0  501 -0.00000000000E+00  0.00000000000E+00  0.69023820182E+02  0.69023820182E+02  0.00000000000E+00 0.  1.
          1   -1    0    0  501    0  0.00000000000E+00 -0.00000000000E+00 -0.88995973085E+03  0.88995973085E+03  0.00000000000E+00 0. -1.
          5    1    1    2  502    0 -0.10389398782E+03 -0.12668618968E+02 -0.73284193805E+03  0.74029308438E+03  0.47000000000E+01 0. -1.
         -5    1    1    2    0  502 -0.20533330773E+02  0.31505305394E+02 -0.42424355750E+02  0.56886886902E+02  0.47000000000E+01 0.  1.
        -11    1    1    2    0    0  0.90652490000E+01  0.26714703826E+02  0.34103034348E+01  0.28416268394E+02  0.00000000000E+00 0. -1.
         11    1    1    2    0    0  0.11536206959E+03 -0.45551390252E+02 -0.49079920304E+02  0.13338731136E+03  0.00000000000E+00 0.  1.
<mgrwt>
<rscale>  0 0.17751061E+03</rscale>
<asrwt>0</asrwt>
<pdfrwt beam="2">  1        1 0.13691687E+00 0.18562888E+03</pdfrwt>
<pdfrwt beam="1">  1       -1 0.10619050E-01 0.18562888E+03</pdfrwt>
<totfact> 0.10822994E+03</totfact>
</mgrwt>
</event>
<event>
 6    1  0.4705246E-006  0.4543191E+03  0.7546771E-02  0.1027068E+00
         -1   -1    0    0    0  501 -0.00000000000E+00  0.00000000000E+00  0.96269767361E+02  0.96269767361E+02  0.00000000000E+00 0.  1.
          1   -1    0    0  501    0  0.00000000000E+00 -0.00000000000E+00 -0.21203897070E+04  0.21203897070E+04  0.00000000000E+00 0. -1.
          5    1    1    2  502    0 -0.27729757964E-02  0.27825182599E+02 -0.14714559140E+03  0.14982708655E+03  0.47000000000E+01 0.  1.
         -5    1    1    2    0  502  0.31246372775E+03  0.27737484923E+03 -0.97030707986E+03  0.10564508069E+04  0.47000000000E+01 0.  1.
        -11    1    1    2    0    0 -0.13703755073E+03 -0.10980654946E+03 -0.45815514271E+03  0.49065558532E+03  0.00000000000E+00 0. -1.
         11    1    1    2    0    0 -0.17542340405E+03 -0.19539348237E+03 -0.44851212567E+03  0.51972599561E+03  0.00000000000E+00 0.  1.
<mgrwt>
<rscale>  0 0.45219917E+03</rscale>
<asrwt>0</asrwt>
<pdfrwt beam="2">  1        1 0.32621380E+00 0.45431914E+03</pdfrwt>
<pdfrwt beam="1">  1       -1 0.14810733E-01 0.45431914E+03</pdfrwt>
<totfact> 0.89116070E+01</totfact>
</mgrwt>
</event>
<event>
 6    1  0.4705246E-006  0.1570120E+03  0.7546771E-02  0.1200084E+00
         -3   -1    0    0    0  501 -0.00000000000E+00  0.00000000000E+00  0.79455339269E+02  0.79455339269E+02  0.00000000000E+00 0.  1.
          3   -1    0    0  501    0  0.00000000000E+00 -0.00000000000E+00 -0.45298226344E+03  0.45298226344E+03  0.00000000000E+00 0. -1.
          5    1    1    2  502    0  0.37190262959E+02  0.85416155478E+02 -0.21532055439E+03  0.23465733830E+03  0.47000000000E+01 0.  1.
         -5    1    1    2    0  502 -0.63253348460E+02  0.59539589627E+01 -0.15305351206E+03  0.16578269895E+03  0.47000000000E+01 0.  1.
        -11    1    1    2    0    0  0.50499824606E+02 -0.40278106821E+02  0.23233639478E+02  0.68646632676E+02  0.00000000000E+00 0.  1.
         11    1    1    2    0    0 -0.24436739105E+02 -0.51092007619E+02 -0.28386497200E+02  0.63350932779E+02  0.00000000000E+00 0. -1.
<mgrwt>
<rscale>  0 0.15031708E+03</rscale>
<asrwt>0</asrwt>
<pdfrwt beam="2">  1        3 0.69689577E-01 0.15701201E+03</pdfrwt>
<pdfrwt beam="1">  1       -3 0.12223899E-01 0.15701201E+03</pdfrwt>
<totfact> 0.25153999E+02</totfact>
</mgrwt>
</event>
<event>
 6    1  0.4705246E-006  0.1539987E+03  0.7546771E-02  0.1205005E+00
          2   -1    0    0  501    0  0.00000000000E+00  0.00000000000E+00  0.13064567030E+03  0.13064567030E+03  0.00000000000E+00 0. -1.
         -2   -1    0    0    0  501 -0.00000000000E+00 -0.00000000000E+00 -0.18961732029E+03  0.18961732029E+03  0.00000000000E+00 0.  1.
          5    1    1    2  502    0 -0.65857644887E+01 -0.39407802230E+02  0.40345610554E+02  0.56975481231E+02  0.47000000000E+01 0.  1.
         -5    1    1    2    0  502  0.96391457253E+02  0.34458127983E+02  0.10048810051E+01  0.10247817037E+03  0.47000000000E+01 0.  1.
        -11    1    1    2    0    0 -0.16286887697E+02 -0.25377795893E+02 -0.69061301013E+02  0.75357537996E+02  0.00000000000E+00 0.  1.
         11    1    1    2    0    0 -0.73518805068E+02  0.30327470139E+02 -0.31260840538E+02  0.85451801003E+02  0.00000000000E+00 0. -1.
<mgrwt>
<rscale>  0 0.14637037E+03</rscale>
<asrwt>0</asrwt>
<pdfrwt beam="1">  1        2 0.20099334E-01 0.15399871E+03</pdfrwt>
<pdfrwt beam="2">  1       -2 0.29171895E-01 0.15399871E+03</pdfrwt>
<totfact> 0.28845744E+03</totfact>
</mgrwt>
</event>
<event>
 6    1  0.4705246E-006  0.1721132E+03  0.7546771E-02  0.1181940E+00
         -2   -1    0    0    0  501 -0.00000000000E+00  0.00000000000E+00  0.46835394364E+02  0.46835394364E+02  0.00000000000E+00 0.  1.
          2   -1    0    0  501    0  0.00000000000E+00 -0.00000000000E+00 -0.55236842418E+03  0.55236842418E+03  0.00000000000E+00 0. -1.
          5    1    1    2  502    0 -0.17353596302E+02  0.12421330706E+02 -0.17048158662E+03  0.17187640367E+03  0.47000000000E+01 0. -1.
         -5    1    1    2    0  502 -0.82512255061E+02 -0.75862273825E+02 -0.10943487520E+03  0.15672089438E+03  0.47000000000E+01 0. -1.
        -11    1    1    2    0    0  0.27968640028E+02 -0.27801733690E+00 -0.13726969166E+03  0.14009029362E+03  0.00000000000E+00 0. -1.
         11    1    1    2    0    0  0.71897211335E+02  0.63718960456E+02 -0.88346876334E+02  0.13051622687E+03  0.00000000000E+00 0.  1.
<mgrwt>
<rscale>  0 0.16613446E+03</rscale>
<asrwt>0</asrwt>
<pdfrwt beam="2">  1        2 0.84979756E-01 0.17211321E+03</pdfrwt>
<pdfrwt beam="1">  1       -2 0.72054454E-02 0.17211321E+03</pdfrwt>
<totfact> 0.60304754E+03</totfact>
</mgrwt>
</event>
<event>
 6    1  0.4705246E-006  0.1434324E+03  0.7546771E-02  0.1228431E+00
          2   -1    0    0  501    0  0.00000000000E+00  0.00000000000E+00  0.16379361478E+03  0.16379361478E+03  0.00000000000E+00 0. -1.
         -2   -1    0    0    0  501 -0.00000000000E+00 -0.00000000000E+00 -0.18135664361E+03  0.18135664361E+03  0.00000000000E+00 0.  1.
          5    1    1    2  502    0 -0.51779951373E+02  0.22301403318E+01  0.12021864840E+03  0.13099904699E+03  0.47000000000E+01 0. -1.
         -5    1    1    2    0  502  0.69040114064E+01  0.51033125042E+02 -0.63994802597E+01  0.52106511807E+02  0.47000000000E+01 0.  1.
        -11    1    1    2    0    0  0.21550590446E+02 -0.14996460897E+02 -0.34384547010E+01  0.26479138180E+02  0.00000000000E+00 0. -1.
         11    1    1    2    0    0  0.23325349520E+02 -0.38266804477E+02 -0.12794374226E+03  0.13556556141E+03  0.00000000000E+00 0.  1.
<mgrwt>
<rscale>  0 0.12934475E+03</rscale>
<asrwt>0</asrwt>
<pdfrwt beam="1">  1        2 0.25199018E-01 0.14343236E+03</pdfrwt>
<pdfrwt beam="2">  1       -2 0.27901022E-01 0.14343236E+03</pdfrwt>
<totfact> 0.24172587E+03</totfact>
</mgrwt>
</event>
<event>
 6    1  0.4705246E-006  0.3158290E+03  0.7546771E-02  0.1077585E+00
         -4   -1    0    0    0  501 -0.00000000000E+00  0.00000000000E+00  0.11985675395E+03  0.11985675395E+03  0.00000000000E+00 0.  1.
          4   -1    0    0  501    0  0.00000000000E+00 -0.00000000000E+00 -0.20805661720E+03  0.20805661720E+03  0.00000000000E+00 0. -1.
          5    1    1    2  502    0  0.30956140867E+02  0.17562456033E+02 -0.60570537239E+02  0.70410244289E+02  0.47000000000E+01 0. -1.
         -5    1    1    2    0  502 -0.10466214848E+03 -0.11145570374E+01 -0.74944323463E+02  0.12881827969E+03  0.47000000000E+01 0. -1.
        -11    1    1    2    0    0  0.32566665658E+02 -0.54246357025E+02  0.19065911663E+02  0.66081494763E+02  0.00000000000E+00 0. -1.
         11    1    1    2    0    0  0.41139341958E+02  0.37798458029E+02  0.28249085789E+02  0.62603352418E+02  0.00000000000E+00 0.  1.
<mgrwt>
<rscale>  0 0.31582901E+03</rscale>
<asrwt>0</asrwt>
<pdfrwt beam="2">  1        4 0.32008710E-01 0.31582901E+03</pdfrwt>
<pdfrwt beam="1">  1       -4 0.18439501E-01 0.31582901E+03</pdfrwt>
<totfact> 0.46759178E+02</totfact>
</mgrwt>
</event>
<event>
 6    1  0.4705246E-006  0.1418319E+03  0.7546771E-02  0.1227479E+00
         -1   -1    0    0    0  501 -0.00000000000E+00  0.00000000000E+00  0.20330698392E+02  0.20330698392E+02  0.00000000000E+00 0.  1.
          1   -1    0    0  501    0  0.00000000000E+00 -0.00000000000E+00 -0.80107156107E+03  0.80107156107E+03  0.00000000000E+00 0. -1.
          5    1    1    2  502    0  0.15654041797E+02 -0.45202262646E+02 -0.12201829057E+03  0.13114437390E+03  0.47000000000E+01 0. -1.
         -5    1    1    2    0  502 -0.26932554443E+02  0.81289722519E+02 -0.45821185508E+03  0.46616904188E+03  0.47000000000E+01 0.  1.
        -11    1    1    2    0    0  0.41515550164E+02 -0.49923617982E+02 -0.11092860181E+03  0.12853428818E+03  0.00000000000E+00 0. -1.
         11    1    1    2    0    0 -0.30237037519E+02  0.13836158109E+02 -0.89582115222E+02  0.95554555500E+02  0.00000000000E+00 0.  1.
<mgrwt>
<rscale>  0 0.12998451E+03</rscale>
<asrwt>0</asrwt>
<pdfrwt beam="2">  1        1 0.12324180E+00 0.14183192E+03</pdfrwt>
<pdfrwt beam="1">  1       -1 0.31277993E-02 0.14183192E+03</pdfrwt>
<totfact> 0.78821115E+03</totfact>
</mgrwt>
</event>
<event>
 6    1  0.4705246E-006  0.1269300E+03  0.7546771E-02  0.1243510E+00
         -2   -1    0    0    0  501 -0.00000000000E+00  0.00000000000E+00  0.54197147788E+02  0.54197147788E+02  0.00000000000E+00 0.  1.
          2   -1    0    0  501    0  0.00000000000E+00 -0.00000000000E+00 -0.24955092271E+03  0.24955092271E+03  0.00000000000E+00 0. -1.
          5    1    1    2  502    0  0.34017476913E+02  0.17983055980E+02 -0.15164203939E+03  0.15651829653E+03  0.47000000000E+01 0. -1.
         -5    1    1    2    0  502 -0.29654118390E+02  0.36283009731E+01  0.11687183841E+02  0.32422393058E+02  0.47000000000E+01 0. -1.
        -11    1    1    2    0    0  0.20902777381E+02 -0.49805522009E+02 -0.87324265021E+01  0.54715367105E+02  0.00000000000E+00 0.  1.
         11    1    1    2    0    0 -0.25266135903E+02  0.28194165055E+02 -0.46666492877E+02  0.60092013813E+02  0.00000000000E+00 0. -1.
<mgrwt>
<rscale>  0 0.11975018E+03</rscale>
<asrwt>0</asrwt>
<pdfrwt beam="2">  1        2 0.38392451E-01 0.12692999E+03</pdfrwt>
<pdfrwt beam="1">  1       -2 0.83380225E-02 0.12692999E+03</pdfrwt>
<totfact> 0.11100262E+04</totfact>
</mgrwt>
</event>
<event>
 6    1  0.4705246E-006  0.3251267E+03  0.7546771E-02  0.1073314E+00
          2   -1    0    0  501    0  0.00000000000E+00  0.00000000000E+00  0.92360884377E+02  0.92360884377E+02  0.00000000000E+00 0. -1.
         -2   -1    0    0    0  501 -0.00000000000E+00 -0.00000000000E+00 -0.28612588160E+03  0.28612588160E+03  0.00000000000E+00 0.  1.
          5    1    1    2  502    0  0.12654165631E+03  0.73653974753E+01 -0.20959754755E+02  0.12856298527E+03  0.47000000000E+01 0. -1.
         -5    1    1    2    0  502 -0.27705277280E+02 -0.16821576797E+02 -0.72628262911E+01  0.33546780483E+02  0.47000000000E+01 0. -1.
        -11    1    1    2    0    0 -0.74874474687E+02 -0.22700177547E+02 -0.15694119552E+03  0.17536254980E+03  0.00000000000E+00 0.  1.
         11    1    1    2    0    0 -0.23961904346E+02  0.32156356868E+02 -0.86012206579E+01  0.41014450426E+02  0.00000000000E+00 0. -1.
<mgrwt>
<rscale>  0 0.32512668E+03</rscale>
<asrwt>0</asrwt>
<pdfrwt beam="1">  1        2 0.14209367E-01 0.32512668E+03</pdfrwt>
<pdfrwt beam="2">  1       -2 0.44019366E-01 0.32512668E+03</pdfrwt>
<totfact> 0.20634373E+03</totfact>
</mgrwt>
</event>
<event>
 6    1  0.4705246E-006  0.2616109E+03  0.7546771E-02  0.1106179E+00
         -3   -1    0    0    0  501 -0.00000000000E+00  0.00000000000E+00  0.12578969377E+03  0.12578969377E+03  0.00000000000E+00 0.  1.
          3   -1    0    0  501    0  0.00000000000E+00 -0.00000000000E+00 -0.13602116646E+03  0.13602116646E+03  0.00000000000E+00 0. -1.
          5    1    1    2  502    0  0.17669950216E+01  0.20876502653E+01 -0.69525073888E+02  0.69737410722E+02  0.47000000000E+01 0. -1.
         -5    1    1    2    0  502 -0.96946278180E+01  0.59941219622E+02  0.40335530202E+02  0.73047796784E+02  0.47000000000E+01 0. -1.
        -11    1    1    2    0    0 -0.21313850412E+02 -0.10019312795E+02  0.47399035688E+02  0.52927643367E+02  0.00000000000E+00 0.  1.
         11    1    1    2    0    0  0.29241483208E+02 -0.52009557092E+02 -0.28440964688E+02  0.66098009361E+02  0.00000000000E+00 0. -1.
<mgrwt>
<rscale>  0 0.26161086E+03</rscale>
<asrwt>0</asrwt>
<pdfrwt beam="2">  1        3 0.20926333E-01 0.26161086E+03</pdfrwt>
<pdfrwt beam="1">  1       -3 0.19352261E-01 0.26161086E+03</pdfrwt>
<totfact> 0.12461548E+03</totfact>
</mgrwt>
</event>
<event>
 6    1  0.4705246E-006  0.1255780E+03  0.7546771E-02  0.1248646E+00
         -2   -1    0    0    0  501 -0.00000000000E+00  0.00000000000E+00  0.79897732209E+01  0.79897732209E+01  0.00000000000E+00 0.  1.
          2   -1    0    0  501    0  0.00000000000E+00 -0.00000000000E+00 -0.18742069926E+04  0.18742069926E+04  0.00000000000E+00 0. -1.
          5    1    1    2  502    0 -0.50281119660E+02 -0.72237808140E+01 -0.10173164889E+04  0.10185947686E+04  0.47000000000E+01 0. -1.
         -5    1    1    2    0  502  0.57888554453E+02  0.16416858922E+02 -0.43961373163E+03  0.44373744605E+03  0.47000000000E+01 0. -1.
        -11    1    1    2    0    0  0.11510769249E+01  0.41598298790E+02 -0.16162851689E+03  0.16689973311E+03  0.00000000000E+00 0.  1.
         11    1    1    2    0    0 -0.87585117186E+01 -0.50791376898E+02 -0.24765848197E+03  0.25296481808E+03  0.00000000000E+00 0. -1.
<mgrwt>
<rscale>  0 0.11669778E+03</rscale>
<asrwt>0</asrwt>
<pdfrwt beam="2">  1        2 0.28833967E+00 0.12557802E+03</pdfrwt>
<pdfrwt beam="1">  1       -2 0.12291953E-02 0.12557802E+03</pdfrwt>
<totfact> 0.13290390E+04</totfact>
</mgrwt>
</event>
<event>
 6    1  0.4705246E-006  0.3417026E+03  0.7546771E-02  0.1066073E+00
         -2   -1    0    0    0  501 -0.00000000000E+00  0.00000000000E+00  0.22524520658E+03  0.22524520658E+03  0.00000000000E+00 0.  1.
          2   -1    0    0  501    0  0.00000000000E+00 -0.00000000000E+00 -0.12959281822E+03  0.12959281822E+03  0.00000000000E+00 0. -1.
          5    1    1    2  502    0 -0.73167499319E+01 -0.10116437094E+02  0.30685664696E+02  0.33460082888E+02  0.47000000000E+01 0.  1.
         -5    1    1    2    0  502  0.69802082504E+02  0.83105260123E+01 -0.10058446028E+03  0.12280357981E+03  0.47000000000E+01 0.  1.
        -11    1    1    2    0    0 -0.20736876964E+02  0.16351359268E+02 -0.82868335586E+00  0.26421047145E+02  0.00000000000E+00 0. -1.
         11    1    1    2    0    0 -0.41748455608E+02 -0.14545448186E+02  0.16637986730E+03  0.17215331496E+03  0.00000000000E+00 0.  1.
<mgrwt>
<rscale>  0 0.34170257E+03</rscale>
<asrwt>0</asrwt>
<pdfrwt beam="2">  1        2 0.19937357E-01 0.34170257E+03</pdfrwt>
<pdfrwt beam="1">  1       -2 0.34653109E-01 0.34170257E+03</pdfrwt>
<totfact> 0.21901155E+03</totfact>
</mgrwt>
</event>
<event>
 6    1  0.4705246E-006  0.1265073E+03  0.7546771E-02  0.1250879E+00
         -1   -1    0    0    0  501 -0.00000000000E+00  0.00000000000E+00  0.37700826018E+02  0.37700826018E+02  0.00000000000E+00 0.  1.
          1   -1    0    0  501    0  0.00000000000E+00 -0.00000000000E+00 -0.36998148514E+03  0.36998148514E+03  0.00000000000E+00 0. -1.
          5    1    1    2  502    0 -0.11826549439E+01 -0.41473659152E+02 -0.20818376021E+03  0.21233000516E+03  0.47000000000E+01 0. -1.
         -5    1    1    2    0  502 -0.18621433967E+00  0.60882550126E+02 -0.67667836162E+02  0.91146835581E+02  0.47000000000E+01 0. -1.
        -11    1    1    2    0    0  0.34599340815E+02 -0.44224871909E+01  0.24374161840E+01  0.34965894461E+02  0.00000000000E+00 0.  1.
         11    1    1    2    0    0 -0.33230471531E+02 -0.14986403783E+02 -0.58866478935E+02  0.69239575957E+02  0.00000000000E+00 0. -1.
<mgrwt>
<rscale>  0 0.11540328E+03</rscale>
<asrwt>0</asrwt>
<pdfrwt beam="2">  1        1 0.56920226E-01 0.12650727E+03</pdfrwt>
<pdfrwt beam="1">  1       -1 0.58001273E-02 0.12650727E+03</pdfrwt>
<totfact> 0.89100321E+03</totfact>
</mgrwt>
</event>
<event>
 6    1  0.4705246E-006  0.1656108E+03  0.7546771E-02  0.1189336E+00
          2   -1    0    0  501    0  0.00000000000E+00  0.00000000000E+00  0.22051859397E+04  0.22051859397E+04  0.00000000000E+00 0. -1.
         -2   -1    0    0    0  501 -0.00000000000E+00 -0.00000000000E+00 -0.12319788011E+02  0.12319788011E+02  0.00000000000E+00 0.  1.
          5    1    1    2  502    0  0.49636732706E+02  0.61416717180E+02  0.89346821483E+03  0.89696341023E+03  0.47000000000E+01 0.  1.
         -5    1    1    2    0  502  0.58973874346E+02 -0.59726560256E+02  0.67089065262E+03  0.67613721805E+03  0.47000000000E+01 0.  1.
        -11    1    1    2    0    0 -0.44632142693E+02  0.44042504533E+02  0.31539117808E+03  0.32156393700E+03  0.00000000000E+00 0.  1.
         11    1    1    2    0    0 -0.63978464359E+02 -0.45732661456E+02  0.31311610618E+03  0.32284116245E+03  0.00000000000E+00 0. -1.
<mgrwt>
<rscale>  0 0.15943490E+03</rscale>
<asrwt>0</asrwt>
<pdfrwt beam="1">  1        2 0.33925906E+00 0.16561075E+03</pdfrwt>
<pdfrwt beam="2">  1       -2 0.18953538E-02 0.16561075E+03</pdfrwt>
<totfact> 0.48348890E+03</totfact>
</mgrwt>
</event>
<event>
 6    1  0.4705246E-006  0.2864755E+03  0.7546771E-02  0.1092204E+00
          3   -1    0    0  501    0  0.00000000000E+00  0.00000000000E+00  0.38478920175E+02  0.38478920175E+02  0.00000000000E+00 0. -1.
         -3   -1    0    0    0  501 -0.00000000000E+00 -0.00000000000E+00 -0.53320229905E+03  0.53320229905E+03  0.00000000000E+00 0.  1.
          5    1    1    2  502    0  0.45162012458E+02  0.10071247005E+03 -0.21306938460E+03  0.24000679500E+03  0.47000000000E+01 0.  1.
         -5    1    1    2    0  502  0.10462104050E+02 -0.28311425504E+02 -0.11278275434E+02  0.32561970641E+02  0.47000000000E+01 0.  1.
        -11    1    1    2    0    0 -0.66752100308E+02 -0.16222866962E+02 -0.17306361769E+03  0.18619892609E+03  0.00000000000E+00 0. -1.
         11    1    1    2    0    0  0.11127983800E+02 -0.56178177588E+02 -0.97312101148E+02  0.11291352749E+03  0.00000000000E+00 0.  1.
<mgrwt>
<rscale>  0 0.28647547E+03</rscale>
<asrwt>0</asrwt>
<pdfrwt beam="1">  1        3 0.59198340E-02 0.28647547E+03</pdfrwt>
<pdfrwt beam="2">  1       -3 0.82031121E-01 0.28647547E+03</pdfrwt>
<totfact> 0.62563323E+02</totfact>
</mgrwt>
</event>
<event>
 6    1  0.4705246E-006  0.2942704E+03  0.7546771E-02  0.1089558E+00
         -2   -1    0    0    0  501 -0.00000000000E+00  0.00000000000E+00  0.20693449816E+03  0.20693449816E+03  0.00000000000E+00 0.  1.
          2   -1    0    0  501    0  0.00000000000E+00 -0.00000000000E+00 -0.43115318590E+03  0.43115318590E+03  0.00000000000E+00 0. -1.
          5    1    1    2  502    0  0.76610220943E+02 -0.41402558740E+02 -0.43822705095E+02  0.97600293570E+02  0.47000000000E+01 0.  1.
         -5    1    1    2    0  502  0.27034161661E+02 -0.20401736507E+03 -0.15149460937E+03  0.25559076238E+03  0.47000000000E+01 0.  1.
        -11    1    1    2    0    0 -0.91839998881E+02  0.25269207671E+03 -0.31781833545E+02  0.27073595249E+03  0.00000000000E+00 0. -1.
         11    1    1    2    0    0 -0.11804383723E+02 -0.72721528999E+01  0.28804602754E+01  0.14160675629E+02  0.00000000000E+00 0.  1.
<mgrwt>
<rscale>  0 0.29152124E+03</rscale>
<asrwt>0</asrwt>
<pdfrwt beam="2">  1        2 0.66331259E-01 0.29427040E+03</pdfrwt>
<pdfrwt beam="1">  1       -2 0.31836077E-01 0.29427040E+03</pdfrwt>
<totfact> 0.67597741E+02</totfact>
</mgrwt>
</event>
<event>
 6    1  0.4705246E-006  0.1939270E+03  0.7546771E-02  0.1159474E+00
          2   -1    0    0  501    0  0.00000000000E+00  0.00000000000E+00  0.23120890909E+03  0.23120890909E+03  0.00000000000E+00 0. -1.
         -2   -1    0    0    0  501 -0.00000000000E+00 -0.00000000000E+00 -0.15428143363E+03  0.15428143363E+03  0.00000000000E+00 0.  1.
          5    1    1    2  502    0 -0.92292947549E+02  0.34460003316E+01  0.57293240630E+01  0.92654078376E+02  0.47000000000E+01 0. -1.
         -5    1    1    2    0  502 -0.26288324162E+02  0.85553895917E+02  0.77086865957E+02  0.11821598875E+03  0.47000000000E+01 0. -1.
        -11    1    1    2    0    0  0.30387228029E+02 -0.78106260434E+02 -0.15525333720E+02  0.85235013542E+02  0.00000000000E+00 0.  1.
         11    1    1    2    0    0  0.88194043681E+02 -0.10893635815E+02  0.96366191592E+01  0.89385262046E+02  0.00000000000E+00 0. -1.
<mgrwt>
<rscale>  0 0.18888198E+03</rscale>
<asrwt>0</asrwt>
<pdfrwt beam="1">  1        2 0.35570601E-01 0.19392696E+03</pdfrwt>
<pdfrwt beam="2">  1       -2 0.23735605E-01 0.19392696E+03</pdfrwt>
<totfact> 0.22334067E+03</totfact>
</mgrwt>
</event>
<event>
 6    1  0.4705246E-006  0.2285914E+03  0.7546771E-02  0.1130714E+00
          1   -1    0    0  501    0  0.00000000000E+00  0.00000000000E+00  0.41703873846E+03  0.41703873846E+03  0.00000000000E+00 0. -1.
         -1   -1    0    0    0  501 -0.00000000000E+00 -0.00000000000E+00 -0.11897258683E+03  0.11897258683E+03  0.00000000000E+00 0.  1.
          5    1    1    2  502    0  0.98510792562E+02  0.31671756219E+02  0.31010862121E+02  0.10812603739E+03  0.47000000000E+01 0. -1.
         -5    1    1    2    0  502  0.52646082951E+02  0.85721557935E+02  0.16347547477E+03  0.19200551137E+03  0.47000000000E+01 0. -1.
        -11    1    1    2    0    0 -0.37259320653E+02 -0.45771598127E+02  0.79793191252E+02  0.99248423367E+02  0.00000000000E+00 0. -1.
         11    1    1    2    0    0 -0.11389755486E+03 -0.71621716028E+02  0.23786623484E+02  0.13663135316E+03  0.00000000000E+00 0.  1.
<mgrwt>
<rscale>  0 0.22430468E+03</rscale>
<asrwt>0</asrwt>
<pdfrwt beam="1">  1        1 0.64159805E-01 0.22859136E+03</pdfrwt>
<pdfrwt beam="2">  1       -1 0.18303475E-01 0.22859136E+03</pdfrwt>
<totfact> 0.13350459E+03</totfact>
</mgrwt>
</event>
<event>
 6    1  0.4705246E-006  0.1311833E+03  0.7546771E-02  0.1241367E+00
         -4   -1    0    0    0  501 -0.00000000000E+00  0.00000000000E+00  0.40808584142E+02  0.40808584142E+02  0.00000000000E+00 0.  1.
          4   -1    0    0  501    0  0.00000000000E+00 -0.00000000000E+00 -0.38051894969E+03  0.38051894969E+03  0.00000000000E+00 0. -1.
          5    1    1    2  502    0  0.17163657242E+02 -0.13357674990E+02  0.13449804657E+01  0.22291648290E+02  0.47000000000E+01 0. -1.
         -5    1    1    2    0  502 -0.18497328676E+02  0.53136182926E+02 -0.28082946868E+03  0.28644874862E+03  0.47000000000E+01 0. -1.
        -11    1    1    2    0    0  0.97095054404E+01  0.13019864542E+02 -0.56735755938E+02  0.59014721641E+02  0.00000000000E+00 0. -1.
         11    1    1    2    0    0 -0.83758340058E+01 -0.52798372479E+02 -0.34901213919E+01  0.53572415281E+02  0.00000000000E+00 0.  1.
<mgrwt>
<rscale>  0 0.12105485E+03</rscale>
<asrwt>0</asrwt>
<pdfrwt beam="2">  1        4 0.58541375E-01 0.13118328E+03</pdfrwt>
<pdfrwt beam="1">  1       -4 0.62782439E-02 0.13118328E+03</pdfrwt>
<totfact> 0.75742026E+02</totfact>
</mgrwt>
</event>
<event>
 6    1  0.4705246E-006  0.1389434E+03  0.7546771E-02  0.1230177E+00
         -2   -1    0    0    0  501 -0.00000000000E+00  0.00000000000E+00  0.28518869180E+02  0.28518869180E+02  0.00000000000E+00 0.  1.
          2   -1    0    0  501    0  0.00000000000E+00 -0.00000000000E+00 -0.60993928462E+03  0.60993928462E+03  0.00000000000E+00 0. -1.
          5    1    1    2  502    0 -0.20986489966E+02  0.45404110999E+02 -0.79323796088E+02  0.93895264431E+02  0.47000000000E+01 0. -1.
         -5    1    1    2    0  502 -0.14865412154E+02 -0.65584715758E+02 -0.38183730893E+03  0.38774238344E+03  0.47000000000E+01 0.  1.
        -11    1    1    2    0    0  0.97365881504E+01 -0.36615449161E+02 -0.50804253482E+02  0.63376371291E+02  0.00000000000E+00 0.  1.
         11    1    1    2    0    0  0.26115313970E+02  0.56796053921E+02 -0.69455056934E+02  0.93444134639E+02  0.00000000000E+00 0. -1.
<mgrwt>
<rscale>  0 0.12818332E+03</rscale>
<asrwt>0</asrwt>
<pdfrwt beam="2">  1        2 0.93836807E-01 0.13894337E+03</pdfrwt>
<pdfrwt beam="1">  1       -2 0.43875186E-02 0.13894337E+03</pdfrwt>
<totfact> 0.11290060E+04</totfact>
</mgrwt>
</event>
<event>
 6    1  0.4705246E-006  0.1328911E+03  0.7546771E-02  0.1233670E+00
          2   -1    0    0  501    0  0.00000000000E+00  0.00000000000E+00  0.64777183394E+03  0.64777183394E+03  0.00000000000E+00 0.  1.
         -2   -1    0    0    0  501 -0.00000000000E+00 -0.00000000000E+00 -0.34190312725E+02  0.34190312725E+02  0.00000000000E+00 0. -1.
          5    1    1    2  502    0 -0.45089635313E+02 -0.32993377092E+02  0.91119919958E+02  0.10698863471E+03  0.47000000000E+01 0.  1.
         -5    1    1    2    0  502  0.21034791713E+02 -0.51641562580E+01  0.43813298097E+03  0.43869320713E+03  0.47000000000E+01 0.  1.
        -11    1    1    2    0    0  0.38511448785E+02  0.53743827928E+02  0.92333152798E+02  0.11356470329E+03  0.00000000000E+00 0.  1.
         11    1    1    2    0    0 -0.14456605186E+02 -0.15586294578E+02 -0.80045325081E+01  0.22715601530E+02  0.00000000000E+00 0. -1.
<mgrwt>
<rscale>  0 0.12589971E+03</rscale>
<asrwt>0</asrwt>
<pdfrwt beam="1">  1        2 0.99657197E-01 0.13289108E+03</pdfrwt>
<pdfrwt beam="2">  1       -2 0.52600486E-02 0.13289108E+03</pdfrwt>
<totfact> 0.80045471E+03</totfact>
</mgrwt>
</event>
<event>
 6    1  0.4705246E-006  0.1302151E+03  0.7546771E-02  0.1238807E+00
         -1   -1    0    0    0  501 -0.00000000000E+00  0.00000000000E+00  0.66822957093E+02  0.66822957093E+02  0.00000000000E+00 0.  1.
          1   -1    0    0  501    0  0.00000000000E+00 -0.00000000000E+00 -0.20963285474E+03  0.20963285474E+03  0.00000000000E+00 0. -1.
          5    1    1    2  502    0 -0.44899503644E+02  0.10370790859E+02 -0.12293696129E+03  0.13137391362E+03  0.47000000000E+01 0. -1.
         -5    1    1    2    0  502  0.35022580333E+01 -0.30419316194E+02  0.18029250368E+02  0.35843332404E+02  0.47000000000E+01 0.  1.
        -11    1    1    2    0    0  0.24434403206E+02  0.56527848253E+02 -0.16917805697E+02  0.63864308011E+02  0.00000000000E+00 0.  1.
         11    1    1    2    0    0  0.16962842405E+02 -0.36479322918E+02 -0.20984381029E+02  0.45374257792E+02  0.00000000000E+00 0. -1.
<mgrwt>
<rscale>  0 0.12263843E+03</rscale>
<asrwt>0</asrwt>
<pdfrwt beam="2">  1        1 0.32251209E-01 0.13021513E+03</pdfrwt>
<pdfrwt beam="1">  1       -1 0.10280455E-01 0.13021513E+03</pdfrwt>
<totfact> 0.76232540E+03</totfact>
</mgrwt>
</event>
<event>
 6    1  0.4705246E-006  0.1678772E+03  0.7546771E-02  0.1186168E+00
          2   -1    0    0  501    0  0.00000000000E+00  0.00000000000E+00  0.78693802527E+03  0.78693802527E+03  0.00000000000E+00 0. -1.
         -2   -1    0    0    0  501 -0.00000000000E+00 -0.00000000000E+00 -0.41647375605E+02  0.41647375605E+02  0.00000000000E+00 0.  1.
          5    1    1    2  502    0  0.68635952014E+02  0.54127549560E+02  0.56645283365E+03  0.57317675134E+03  0.47000000000E+01 0. -1.
         -5    1    1    2    0  502  0.34366185548E+02 -0.81863465939E+01  0.30422837534E+02  0.46858190568E+02  0.47000000000E+01 0.  1.
        -11    1    1    2    0    0 -0.97354340430E+02 -0.69249962185E+02  0.13763814004E+03  0.18225718767E+03  0.00000000000E+00 0.  1.
         11    1    1    2    0    0 -0.56477971324E+01  0.23308759219E+02  0.10776838446E+02  0.26293271300E+02  0.00000000000E+00 0. -1.
<mgrwt>
<rscale>  0 0.16226074E+03</rscale>
<asrwt>0</asrwt>
<pdfrwt beam="1">  1        2 0.12106738E+00 0.16787722E+03</pdfrwt>
<pdfrwt beam="2">  1       -2 0.64072891E-02 0.16787722E+03</pdfrwt>
<totfact> 0.47510178E+03</totfact>
</mgrwt>
</event>
<event>
 6    1  0.4705246E-006  0.1289294E+03  0.7546771E-02  0.1243723E+00
          4   -1    0    0  501    0  0.00000000000E+00  0.00000000000E+00  0.18985226886E+03  0.18985226886E+03  0.00000000000E+00 0. -1.
         -4   -1    0    0    0  501 -0.00000000000E+00 -0.00000000000E+00 -0.66386561019E+02  0.66386561019E+02  0.00000000000E+00 0.  1.
          5    1    1    2  502    0 -0.27679137884E+02  0.60156369523E+02  0.33163670227E+02  0.74208102597E+02  0.47000000000E+01 0. -1.
         -5    1    1    2    0  502  0.49740325640E+02 -0.37557672703E+02  0.34742381891E+02  0.71510851436E+02  0.47000000000E+01 0. -1.
        -11    1    1    2    0    0  0.16003801058E+02  0.69933076838E+01 -0.16362369199E+02  0.23932302991E+02  0.00000000000E+00 0.  1.
         11    1    1    2    0    0 -0.38064988813E+02 -0.29592004504E+02  0.71922024919E+02  0.86587572851E+02  0.00000000000E+00 0. -1.
<mgrwt>
<rscale>  0 0.11962156E+03</rscale>
<asrwt>0</asrwt>
<pdfrwt beam="1">  1        4 0.29208041E-01 0.12892937E+03</pdfrwt>
<pdfrwt beam="2">  1       -4 0.10213317E-01 0.12892937E+03</pdfrwt>
<totfact> 0.13344406E+03</totfact>
</mgrwt>
</event>
<event>
 6    1  0.4705246E-006  0.2565482E+03  0.7546771E-02  0.1109235E+00
          2   -1    0    0  501    0  0.00000000000E+00  0.00000000000E+00  0.22009288721E+03  0.22009288721E+03  0.00000000000E+00 0.  1.
         -2   -1    0    0    0  501 -0.00000000000E+00 -0.00000000000E+00 -0.74760478564E+02  0.74760478564E+02  0.00000000000E+00 0. -1.
          5    1    1    2  502    0 -0.12023616280E+02  0.83167404134E+01 -0.28502624434E+02  0.32376304903E+02  0.47000000000E+01 0.  1.
         -5    1    1    2    0  502 -0.29941753483E+02  0.39736144008E+02  0.13453441307E+03  0.14351678662E+03  0.47000000000E+01 0.  1.
        -11    1    1    2    0    0  0.18215710773E+02 -0.36823753873E+02  0.68379557995E+02  0.79771955723E+02  0.00000000000E+00 0.  1.
         11    1    1    2    0    0  0.23749658990E+02 -0.11229130549E+02 -0.29078937982E+02  0.39188318530E+02  0.00000000000E+00 0. -1.
<mgrwt>
<rscale>  0 0.25654824E+03</rscale>
<asrwt>0</asrwt>
<pdfrwt beam="1">  1        2 0.33860444E-01 0.25654824E+03</pdfrwt>
<pdfrwt beam="2">  1       -2 0.11501612E-01 0.25654824E+03</pdfrwt>
<totfact> 0.80243305E+03</totfact>
</mgrwt>
</event>
<event>
 6    1  0.4705246E-006  0.1332676E+03  0.7546771E-02  0.1235528E+00
          1   -1    0    0  501    0  0.00000000000E+00  0.00000000000E+00  0.84946882425E+02  0.84946882425E+02  0.00000000000E+00 0. -1.
         -1   -1    0    0    0  501 -0.00000000000E+00 -0.00000000000E+00 -0.21971739854E+03  0.21971739854E+03  0.00000000000E+00 0.  1.
          5    1    1    2  502    0 -0.27997625360E+02 -0.72950403872E+02  0.36735304448E+02  0.86470810357E+02  0.47000000000E+01 0.  1.
         -5    1    1    2    0  502  0.12358595620E+02  0.29428958075E+02 -0.33938129692E+02  0.46826115642E+02  0.47000000000E+01 0.  1.
        -11    1    1    2    0    0  0.42445204883E+02  0.44851110875E+02 -0.49023684675E+02  0.78845032966E+02  0.00000000000E+00 0.  1.
         11    1    1    2    0    0 -0.26806175143E+02 -0.13296650784E+01 -0.88544006197E+02  0.92522322001E+02  0.00000000000E+00 0. -1.
<mgrwt>
<rscale>  0 0.12470699E+03</rscale>
<asrwt>0</asrwt>
<pdfrwt beam="1">  1        1 0.13068751E-01 0.13326757E+03</pdfrwt>
<pdfrwt beam="2">  1       -1 0.33802676E-01 0.13326757E+03</pdfrwt>
<totfact> 0.35719619E+03</totfact>
</mgrwt>
</event>
<event>
 6    1  0.4705246E-006  0.3096451E+03  0.7546771E-02  0.1080516E+00
         -2   -1    0    0    0  501 -0.00000000000E+00  0.00000000000E+00  0.16681902926E+02  0.16681902926E+02  0.00000000000E+00 0.  1.
          2   -1    0    0  501    0  0.00000000000E+00 -0.00000000000E+00 -0.14368880403E+04  0.14368880403E+04  0.00000000000E+00 0. -1.
          5    1    1    2  502    0 -0.48208503224E+01  0.41250578787E+01 -0.46901305123E+03  0.46907951237E+03  0.47000000000E+01 0. -1.
         -5    1    1    2    0  502  0.92135236912E+02 -0.67363657749E+02 -0.42720545100E+03  0.44221414680E+03  0.47000000000E+01 0. -1.
        -11    1    1    2    0    0 -0.10066471765E+03  0.33886336865E+02 -0.42947165536E+03  0.44241108933E+03  0.00000000000E+00 0.  1.
         11    1    1    2    0    0  0.13350331057E+02  0.29352263005E+02 -0.94515979752E+02  0.99865194694E+02  0.00000000000E+00 0. -1.
<mgrwt>
<rscale>  0 0.30964513E+03</rscale>
<asrwt>0</asrwt>
<pdfrwt beam="2">  1        2 0.22105972E+00 0.30964513E+03</pdfrwt>
<pdfrwt beam="1">  1       -2 0.25664464E-02 0.30964513E+03</pdfrwt>
<totfact> 0.79049829E+03</totfact>
</mgrwt>
</event>
<event>
 6    1  0.4705246E-006  0.1769752E+03  0.7546771E-02  0.1176806E+00
          2   -1    0    0  501    0  0.00000000000E+00  0.00000000000E+00  0.24746155961E+03  0.24746155961E+03  0.00000000000E+00 0. -1.
         -2   -1    0    0    0  501 -0.00000000000E+00 -0.00000000000E+00 -0.11109577996E+03  0.11109577996E+03  0.00000000000E+00 0.  1.
          5    1    1    2  502    0 -0.10335308538E+03 -0.21160049656E+02  0.91763283901E+02  0.13990067274E+03  0.47000000000E+01 0. -1.
         -5    1    1    2    0  502  0.27758374999E+01 -0.53563210170E+02 -0.10475515738E+02  0.54850243276E+02  0.47000000000E+01 0. -1.
        -11    1    1    2    0    0  0.10007365030E+03  0.24475245331E+02  0.45627498976E+02  0.11267493857E+03  0.00000000000E+00 0. -1.
         11    1    1    2    0    0  0.50359758308E+00  0.50248014495E+02  0.94505125137E+01  0.51131484996E+02  0.00000000000E+00 0.  1.
<mgrwt>
<rscale>  0 0.17100312E+03</rscale>
<asrwt>0</asrwt>
<pdfrwt beam="1">  1        2 0.38071009E-01 0.17697519E+03</pdfrwt>
<pdfrwt beam="2">  1       -2 0.17091658E-01 0.17697519E+03</pdfrwt>
<totfact> 0.36210028E+03</totfact>
</mgrwt>
</event>
<event>
 6    1  0.4705246E-006  0.1351728E+03  0.7546771E-02  0.1232834E+00
          1   -1    0    0  501    0  0.00000000000E+00  0.00000000000E+00  0.65411814679E+02  0.65411814679E+02  0.00000000000E+00 0. -1.
         -1   -1    0    0    0  501 -0.00000000000E+00 -0.00000000000E+00 -0.23592772477E+03  0.23592772477E+03  0.00000000000E+00 0.  1.
          5    1    1    2  502    0 -0.12369845579E+02  0.43331781675E+02 -0.15390527728E+02  0.47849918772E+02  0.47000000000E+01 0.  1.
         -5    1    1    2    0  502  0.56723085288E+02 -0.69399001307E+02 -0.38763860139E+02  0.97767359787E+02  0.47000000000E+01 0.  1.
        -11    1    1    2    0    0 -0.59466641078E+01  0.54892490488E+02 -0.56795230753E+02  0.79210141790E+02  0.00000000000E+00 0.  1.
         11    1    1    2    0    0 -0.38406575601E+02 -0.28825270857E+02 -0.59566291469E+02  0.76512119097E+02  0.00000000000E+00 0. -1.
<mgrwt>
<rscale>  0 0.12644096E+03</rscale>
<asrwt>0</asrwt>
<pdfrwt beam="1">  1        1 0.10063356E-01 0.13517283E+03</pdfrwt>
<pdfrwt beam="2">  1       -1 0.36296573E-01 0.13517283E+03</pdfrwt>
<totfact> 0.44614754E+03</totfact>
</mgrwt>
</event>
<event>
 6    1  0.4705246E-006  0.3303689E+03  0.7546771E-02  0.1070974E+00
          1   -1    0    0  501    0  0.00000000000E+00  0.00000000000E+00  0.11745474374E+04  0.11745474374E+04  0.00000000000E+00 0. -1.
         -1   -1    0    0    0  501 -0.00000000000E+00 -0.00000000000E+00 -0.23230987534E+02  0.23230987534E+02  0.00000000000E+00 0.  1.
          5    1    1    2  502    0  0.11072278424E+03  0.21410762781E+02  0.28270481228E+03  0.30440442934E+03  0.47000000000E+01 0. -1.
         -5    1    1    2    0  502  0.12122559770E+02  0.39232464755E+01  0.42166947615E+03  0.42188811957E+03  0.47000000000E+01 0. -1.
        -11    1    1    2    0    0 -0.96533133962E+02 -0.52825788027E+02  0.29515335362E+03  0.31499954283E+03  0.00000000000E+00 0.  1.
         11    1    1    2    0    0 -0.26312210048E+02  0.27491778770E+02  0.15178880778E+03  0.15648633315E+03  0.00000000000E+00 0. -1.
<mgrwt>
<rscale>  0 0.33036887E+03</rscale>
<asrwt>0</asrwt>
<pdfrwt beam="1">  1        1 0.18069956E+00 0.33036887E+03</pdfrwt>
<pdfrwt beam="2">  1       -1 0.35739990E-02 0.33036887E+03</pdfrwt>
<totfact> 0.34789114E+03</totfact>
</mgrwt>
</event>
<event>
 6    1  0.4705246E-006  0.1624574E+03  0.7546771E-02  0.1193010E+00
         -2   -1    0    0    0  501 -0.00000000000E+00  0.00000000000E+00  0.74998713297E+02  0.74998713297E+02  0.00000000000E+00 0.  1.
          2   -1    0    0  501    0  0.00000000000E+00 -0.00000000000E+00 -0.30744797336E+03  0.30744797336E+03  0.00000000000E+00 0. -1.
          5    1    1    2  502    0  0.86624931146E+02  0.44255306369E+02 -0.44651788982E+02  0.10713674952E+03  0.47000000000E+01 0. -1.
         -5    1    1    2    0  502  0.17070100036E+02 -0.40848127082E+02 -0.10374919446E+03  0.11289793246E+03  0.47000000000E+01 0. -1.
        -11    1    1    2    0    0 -0.26314714928E+02  0.41379109538E+02 -0.23090130609E+02  0.54201928558E+02  0.00000000000E+00 0.  1.
         11    1    1    2    0    0 -0.77380316255E+02 -0.44786288824E+02 -0.60958146011E+02  0.10821007613E+03  0.00000000000E+00 0. -1.
<mgrwt>
<rscale>  0 0.15623826E+03</rscale>
<asrwt>0</asrwt>
<pdfrwt beam="2">  1        2 0.47299688E-01 0.16245741E+03</pdfrwt>
<pdfrwt beam="1">  1       -2 0.11538264E-01 0.16245741E+03</pdfrwt>
<totfact> 0.54277900E+03</totfact>
</mgrwt>
</event>
<event>
 6    1  0.4705246E-006  0.2548692E+03  0.7546771E-02  0.1130194E+00
         -4   -1    0    0    0  501 -0.00000000000E+00  0.00000000000E+00  0.10444964107E+03  0.10444964107E+03  0.00000000000E+00 0.  1.
          4   -1    0    0  501    0  0.00000000000E+00 -0.00000000000E+00 -0.40673165117E+03  0.40673165117E+03  0.00000000000E+00 0. -1.
          5    1    1    2  502    0 -0.58953246592E+02  0.64843777226E+02 -0.13772892704E+03  0.16331426170E+03  0.47000000000E+01 0. -1.
         -5    1    1    2    0  502  0.13037686625E+03  0.38136141080E+02 -0.22593246295E+02  0.13778620137E+03  0.47000000000E+01 0.  1.
        -11    1    1    2    0    0  0.11183676360E+02 -0.37294799798E+02 -0.83582969604E+01  0.39822579487E+02  0.00000000000E+00 0.  1.
         11    1    1    2    0    0 -0.82607296017E+02 -0.65685118507E+02 -0.13360153981E+03  0.17025824969E+03  0.00000000000E+00 0. -1.
<mgrwt>
<rscale>  0 0.22502056E+03</rscale>
<asrwt>0</asrwt>
<pdfrwt beam="2">  1        4 0.62574100E-01 0.25486916E+03</pdfrwt>
<pdfrwt beam="1">  1       -4 0.16069176E-01 0.25486916E+03</pdfrwt>
<totfact> 0.14879234E+02</totfact>
</mgrwt>
</event>
<event>
 6    1  0.4705246E-006  0.1271960E+03  0.7546771E-02  0.1245376E+00
          1   -1    0    0  501    0  0.00000000000E+00  0.00000000000E+00  0.80906803242E+03  0.80906803242E+03  0.00000000000E+00 0. -1.
         -1   -1    0    0    0  501 -0.00000000000E+00 -0.00000000000E+00 -0.17079194270E+02  0.17079194270E+02  0.00000000000E+00 0.  1.
          5    1    1    2  502    0 -0.89271188413E+01 -0.49054600458E+02  0.44879781699E+03  0.45158345608E+03  0.47000000000E+01 0.  1.
         -5    1    1    2    0  502  0.31734924835E+02  0.43213165858E+02  0.12415353052E+03  0.13531693279E+03  0.47000000000E+01 0.  1.
        -11    1    1    2    0    0 -0.44953641543E+02 -0.17041250237E+02  0.19054604280E+03  0.19651724740E+03  0.00000000000E+00 0.  1.
         11    1    1    2    0    0  0.22145835549E+02  0.22882684838E+02  0.28491447840E+02  0.42729590422E+02  0.00000000000E+00 0. -1.
<mgrwt>
<rscale>  0 0.11862903E+03</rscale>
<asrwt>0</asrwt>
<pdfrwt beam="1">  1        1 0.12447198E+00 0.12719599E+03</pdfrwt>
<pdfrwt beam="2">  1       -1 0.26275690E-02 0.12719599E+03</pdfrwt>
<totfact> 0.99397072E+03</totfact>
</mgrwt>
</event>
<event>
 6    1  0.4705246E-006  0.1452269E+03  0.7546771E-02  0.1227324E+00
         -1   -1    0    0    0  501 -0.00000000000E+00  0.00000000000E+00  0.13511447820E+02  0.13511447820E+02  0.00000000000E+00 0.  1.
          1   -1    0    0  501    0  0.00000000000E+00 -0.00000000000E+00 -0.11188806945E+04  0.11188806945E+04  0.00000000000E+00 0. -1.
          5    1    1    2  502    0  0.24838878411E+02 -0.14644364284E+02 -0.55318186782E+03  0.55395279237E+03  0.47000000000E+01 0.  1.
         -5    1    1    2    0  502  0.14520314424E+02  0.77231967192E+02 -0.24513897065E+03  0.25747003946E+03  0.47000000000E+01 0.  1.
        -11    1    1    2    0    0 -0.33614429837E+02 -0.57075354799E+01 -0.15035814737E+03  0.15417547904E+03  0.00000000000E+00 0.  1.
         11    1    1    2    0    0 -0.57447629985E+01 -0.56880067428E+02 -0.15669026088E+03  0.16679383150E+03  0.00000000000E+00 0. -1.
<mgrwt>
<rscale>  0 0.13008889E+03</rscale>
<asrwt>0</asrwt>
<pdfrwt beam="2">  1        1 0.17213547E+00 0.14522689E+03</pdfrwt>
<pdfrwt beam="1">  1       -1 0.20786845E-02 0.14522689E+03</pdfrwt>
<totfact> 0.82443007E+03</totfact>
</mgrwt>
</event>
<event>
 6    1  0.4705246E-006  0.1338087E+03  0.7546771E-02  0.1234067E+00
          2   -1    0    0  501    0  0.00000000000E+00  0.00000000000E+00  0.97190765977E+03  0.97190765977E+03  0.00000000000E+00 0.  1.
         -2   -1    0    0    0  501 -0.00000000000E+00 -0.00000000000E+00 -0.15627900257E+02  0.15627900257E+02  0.00000000000E+00 0. -1.
          5    1    1    2  502    0  0.23388765653E+02  0.16187339203E+02  0.34996256661E+02  0.45341948453E+02  0.47000000000E+01 0.  1.
         -5    1    1    2    0  502 -0.75447299016E+01 -0.61092610499E+02  0.62768363079E+03  0.63071234360E+03  0.47000000000E+01 0.  1.
        -11    1    1    2    0    0  0.42656109180E-01 -0.26312138186E+02  0.42423237826E+02  0.49920552312E+02  0.00000000000E+00 0. -1.
         11    1    1    2    0    0 -0.15886691860E+02  0.71217409482E+02  0.25117663423E+03  0.26156071566E+03  0.00000000000E+00 0.  1.
<mgrwt>
<rscale>  0 0.12564355E+03</rscale>
<asrwt>0</asrwt>
<pdfrwt beam="1">  1        2 0.14952421E+00 0.13380872E+03</pdfrwt>
<pdfrwt beam="2">  1       -2 0.24042931E-02 0.13380872E+03</pdfrwt>
<totfact> 0.15387315E+04</totfact>
</mgrwt>
</event>
<event>
 6    1  0.4705246E-006  0.1270121E+03  0.7546771E-02  0.1246042E+00
          1   -1    0    0  501    0  0.00000000000E+00  0.00000000000E+00  0.18595335357E+03  0.18595335357E+03  0.00000000000E+00 0. -1.
         -1   -1    0    0    0  501 -0.00000000000E+00 -0.00000000000E+00 -0.71958004048E+02  0.71958004048E+02  0.00000000000E+00 0.  1.
          5    1    1    2  502    0  0.27210632835E+00  0.39914561159E+02  0.89741248543E+02  0.98330198436E+02  0.47000000000E+01 0. -1.
         -5    1    1    2    0  502  0.41976363415E+01 -0.62036079335E+02  0.99739262376E+01  0.63147957169E+02  0.47000000000E+01 0. -1.
        -11    1    1    2    0    0  0.33566407406E+02 -0.74349065475E+00 -0.21119245462E+02  0.39664581346E+02  0.00000000000E+00 0.  1.
         11    1    1    2    0    0 -0.38036150076E+02  0.22865008831E+02  0.35399420200E+02  0.56768620662E+02  0.00000000000E+00 0. -1.
<mgrwt>
<rscale>  0 0.11823249E+03</rscale>
<asrwt>0</asrwt>
<pdfrwt beam="1">  1        1 0.28608208E-01 0.12701212E+03</pdfrwt>
<pdfrwt beam="2">  1       -1 0.11070462E-01 0.12701212E+03</pdfrwt>
<totfact> 0.78843040E+03</totfact>
</mgrwt>
</event>
<event>
 6    1  0.4705246E-006  0.1252203E+03  0.7546771E-02  0.1251786E+00
          2   -1    0    0  501    0  0.00000000000E+00  0.00000000000E+00  0.20770411887E+03  0.20770411887E+03  0.00000000000E+00 0. -1.
         -2   -1    0    0    0  501 -0.00000000000E+00 -0.00000000000E+00 -0.67642539100E+02  0.67642539100E+02  0.00000000000E+00 0.  1.
          5    1    1    2  502    0  0.43838919796E+02 -0.85325863098E+01  0.12609516323E+03  0.13385341276E+03  0.47000000000E+01 0. -1.
         -5    1    1    2    0  502 -0.50724750619E+02  0.61822680606E+01  0.12272022714E+02  0.52762802288E+02  0.47000000000E+01 0. -1.
        -11    1    1    2    0    0 -0.24865773475E+02 -0.13500824643E+02 -0.29936319378E+02  0.41191773141E+02  0.00000000000E+00 0.  1.
         11    1    1    2    0    0  0.31751604299E+02  0.15851142892E+02  0.31630713204E+02  0.47538669779E+02  0.00000000000E+00 0. -1.
<mgrwt>
<rscale>  0 0.11488267E+03</rscale>
<asrwt>0</asrwt>
<pdfrwt beam="1">  1        2 0.31954479E-01 0.12522034E+03</pdfrwt>
<pdfrwt beam="2">  1       -2 0.10406545E-01 0.12522034E+03</pdfrwt>
<totfact> 0.95492416E+03</totfact>
</mgrwt>
</event>
<event>
 6    1  0.4705246E-006  0.1906547E+03  0.7546771E-02  0.1162523E+00
         -1   -1    0    0    0  501 -0.00000000000E+00  0.00000000000E+00  0.43715381511E+03  0.43715381511E+03  0.00000000000E+00 0.  1.
          1   -1    0    0  501    0  0.00000000000E+00 -0.00000000000E+00 -0.92516586374E+02  0.92516586374E+02  0.00000000000E+00 0. -1.
          5    1    1    2  502    0 -0.53857066717E+02 -0.87215218016E+02  0.89387657802E+02  0.13608571290E+03  0.47000000000E+01 0. -1.
         -5    1    1    2    0  502  0.25832904431E+02 -0.53991920210E+02 -0.25160172709E+02  0.65096779414E+02  0.47000000000E+01 0. -1.
        -11    1    1    2    0    0 -0.18398660830E+02  0.46219790847E+02  0.33723006906E+02  0.60100091357E+02  0.00000000000E+00 0. -1.
         11    1    1    2    0    0  0.46422823116E+02  0.94987347378E+02  0.24668673673E+03  0.26838781781E+03  0.00000000000E+00 0.  1.
<mgrwt>
<rscale>  0 0.18556549E+03</rscale>
<asrwt>0</asrwt>
<pdfrwt beam="2">  1        1 0.14233321E-01 0.19065473E+03</pdfrwt>
<pdfrwt beam="1">  1       -1 0.67254432E-01 0.19065473E+03</pdfrwt>
<totfact> 0.92334037E+02</totfact>
</mgrwt>
</event>
<event>
 6    1  0.4705246E-006  0.2608287E+03  0.7546771E-02  0.1108648E+00
         -2   -1    0    0    0  501 -0.00000000000E+00  0.00000000000E+00  0.70364809240E+02  0.70364809240E+02  0.00000000000E+00 0.  1.
          2   -1    0    0  501    0  0.00000000000E+00 -0.00000000000E+00 -0.10771452856E+04  0.10771452856E+04  0.00000000000E+00 0. -1.
          5    1    1    2  502    0 -0.40994866210E+02 -0.47607307607E+02 -0.25306161675E+03  0.26078594031E+03  0.47000000000E+01 0. -1.
         -5    1    1    2    0  502  0.70818760295E+02 -0.17936496451E+03 -0.48097932806E+03  0.51821838188E+03  0.47000000000E+01 0. -1.
        -11    1    1    2    0    0  0.25606851079E+02  0.14546384533E+03 -0.14314571665E+03  0.20568455779E+03  0.00000000000E+00 0.  1.
         11    1    1    2    0    0 -0.55430745164E+02  0.81508426786E+02 -0.12959381493E+03  0.16282121488E+03  0.00000000000E+00 0. -1.
<mgrwt>
<rscale>  0 0.25751121E+03</rscale>
<asrwt>0</asrwt>
<pdfrwt beam="2">  1        2 0.16571466E+00 0.26082873E+03</pdfrwt>
<pdfrwt beam="1">  1       -2 0.10825355E-01 0.26082873E+03</pdfrwt>
<totfact> 0.13780631E+03</totfact>
</mgrwt>
</event>
<event>
 6    1  0.4705246E-006  0.1302087E+03  0.7546771E-02  0.1241707E+00
          2   -1    0    0  501    0  0.00000000000E+00  0.00000000000E+00  0.76394766540E+03  0.76394766540E+03  0.00000000000E+00 0. -1.
         -2   -1    0    0    0  501 -0.00000000000E+00 -0.00000000000E+00 -0.18061353414E+02  0.18061353414E+02  0.00000000000E+00 0.  1.
          5    1    1    2  502    0 -0.48773745912E+02 -0.18261522017E+02  0.10987336078E+03  0.12168240171E+03  0.47000000000E+01 0. -1.
         -5    1    1    2    0  502  0.55548203063E+02 -0.17507858846E+02  0.41537481569E+03  0.41946448657E+03  0.47000000000E+01 0. -1.
        -11    1    1    2    0    0 -0.26367673451E+02  0.56620830071E+02  0.10911360963E+03  0.12572570305E+03  0.00000000000E+00 0.  1.
         11    1    1    2    0    0  0.19593216300E+02 -0.20851449208E+02  0.11152452589E+03  0.11513642748E+03  0.00000000000E+00 0. -1.
<mgrwt>
<rscale>  0 0.12084673E+03</rscale>
<asrwt>0</asrwt>
<pdfrwt beam="1">  1        2 0.11753039E+00 0.13020871E+03</pdfrwt>
<pdfrwt beam="2">  1       -2 0.27786703E-02 0.13020871E+03</pdfrwt>
<totfact> 0.16926811E+04</totfact>
</mgrwt>
</event>
<event>
 6    1  0.4705246E-006  0.1305885E+03  0.7546771E-02  0.1239776E+00
          2   -1    0    0  501    0  0.00000000000E+00  0.00000000000E+00  0.75139410142E+02  0.75139410142E+02  0.00000000000E+00 0.  1.
         -2   -1    0    0    0  501 -0.00000000000E+00 -0.00000000000E+00 -0.22038663804E+03  0.22038663804E+03  0.00000000000E+00 0. -1.
          5    1    1    2  502    0 -0.14095002978E+02 -0.15701329461E+01 -0.65317221424E+02  0.67004207637E+02  0.47000000000E+01 0.  1.
         -5    1    1    2    0  502  0.81560530346E+01  0.38891651982E+02  0.50489593468E+02  0.64423371874E+02  0.47000000000E+01 0.  1.
        -11    1    1    2    0    0 -0.19458343849E+02 -0.44940091067E+02 -0.12849801031E+03  0.13751355418E+03  0.00000000000E+00 0. -1.
         11    1    1    2    0    0  0.25397293793E+02  0.76185720310E+01 -0.19215896351E+01  0.26584914491E+02  0.00000000000E+00 0.  1.
<mgrwt>
<rscale>  0 0.12203582E+03</rscale>
<asrwt>0</asrwt>
<pdfrwt beam="1">  1        2 0.11559909E-01 0.13058848E+03</pdfrwt>
<pdfrwt beam="2">  1       -2 0.33905637E-01 0.13058848E+03</pdfrwt>
<totfact> 0.41547735E+03</totfact>
</mgrwt>
</event>
<event>
 6    1  0.4705246E-006  0.2425786E+03  0.7546771E-02  0.1146921E+00
         -2   -1    0    0    0  501 -0.00000000000E+00  0.00000000000E+00  0.11791310525E+02  0.11791310525E+02  0.00000000000E+00 0.  1.
          2   -1    0    0  501    0  0.00000000000E+00 -0.00000000000E+00 -0.35387365147E+04  0.35387365147E+04  0.00000000000E+00 0. -1.
          5    1    1    2  502    0 -0.41382795707E+02  0.63326299250E+02 -0.15832819648E+04  0.15850951473E+04  0.47000000000E+01 0. -1.
         -5    1    1    2    0  502  0.10369310632E+03 -0.10951670197E+03 -0.14316026661E+04  0.14395327200E+04  0.47000000000E+01 0.  1.
        -11    1    1    2    0    0 -0.34659495510E+02 -0.24811160028E+02 -0.21799468204E+03  0.22212283919E+03  0.00000000000E+00 0.  1.
         11    1    1    2    0    0 -0.27650815102E+02  0.71001562746E+02 -0.29406589125E+03  0.30377711877E+03  0.00000000000E+00 0. -1.
<mgrwt>
<rscale>  0 0.20337690E+03</rscale>
<asrwt>0</asrwt>
<pdfrwt beam="2">  1        2 0.54442089E+00 0.24257864E+03</pdfrwt>
<pdfrwt beam="1">  1       -2 0.18140481E-02 0.24257864E+03</pdfrwt>
<totfact> 0.85902397E+02</totfact>
</mgrwt>
</event>
<event>
 6    1  0.4705246E-006  0.2611011E+03  0.7546771E-02  0.1106483E+00
          1   -1    0    0  501    0  0.00000000000E+00  0.00000000000E+00  0.78734102201E+03  0.78734102201E+03  0.00000000000E+00 0. -1.
         -1   -1    0    0    0  501 -0.00000000000E+00 -0.00000000000E+00 -0.21646836602E+02  0.21646836602E+02  0.00000000000E+00 0.  1.
          5    1    1    2  502    0  0.96106565038E+01  0.87863636226E+02  0.26650104900E+03  0.28081538848E+03  0.47000000000E+01 0. -1.
         -5    1    1    2    0  502  0.19737641213E+02 -0.33472917368E+02  0.30253382585E+03  0.30505543178E+03  0.47000000000E+01 0. -1.
        -11    1    1    2    0    0 -0.39217779412E+02 -0.13577930634E+02  0.16604345583E+03  0.17115146405E+03  0.00000000000E+00 0.  1.
         11    1    1    2    0    0  0.98694816953E+01 -0.40812788224E+02  0.30615854732E+02  0.51965574302E+02  0.00000000000E+00 0. -1.
<mgrwt>
<rscale>  0 0.26110107E+03</rscale>
<asrwt>0</asrwt>
<pdfrwt beam="1">  1        1 0.12112937E+00 0.26110107E+03</pdfrwt>
<pdfrwt beam="2">  1       -1 0.33302832E-02 0.26110107E+03</pdfrwt>
<totfact> 0.75987528E+03</totfact>
</mgrwt>
</event>
<event>
 6    1  0.4705246E-006  0.1485339E+03  0.7546771E-02  0.1211550E+00
         -1   -1    0    0    0  501 -0.00000000000E+00  0.00000000000E+00  0.32685803614E+03  0.32685803614E+03  0.00000000000E+00 0.  1.
          1   -1    0    0  501    0  0.00000000000E+00 -0.00000000000E+00 -0.58739806122E+02  0.58739806122E+02  0.00000000000E+00 0. -1.
          5    1    1    2  502    0  0.47997833459E+02  0.72353428667E+02  0.42651900688E+02  0.96850840414E+02  0.47000000000E+01 0. -1.
         -5    1    1    2    0  502 -0.57340289375E+02  0.73327991393E+01  0.61669234885E+02  0.84657328449E+02  0.47000000000E+01 0. -1.
        -11    1    1    2    0    0 -0.24066297313E+02 -0.83594535006E+02  0.10502314947E+03  0.13637116584E+03  0.00000000000E+00 0. -1.
         11    1    1    2    0    0  0.33408753229E+02  0.39083071995E+01  0.58773944978E+02  0.67718507557E+02  0.00000000000E+00 0.  1.
<mgrwt>
<rscale>  0 0.14133072E+03</rscale>
<asrwt>0</asrwt>
<pdfrwt beam="2">  1        1 0.90368935E-02 0.14853389E+03</pdfrwt>
<pdfrwt beam="1">  1       -1 0.50285851E-01 0.14853389E+03</pdfrwt>
<totfact> 0.29009077E+03</totfact>
</mgrwt>
</event>
<event>
 6    1  0.4705246E-006  0.1919864E+03  0.7546771E-02  0.1161647E+00
         -2   -1    0    0    0  501 -0.00000000000E+00  0.00000000000E+00  0.38281337591E+02  0.38281337591E+02  0.00000000000E+00 0.  1.
          2   -1    0    0  501    0  0.00000000000E+00 -0.00000000000E+00 -0.87466086191E+03  0.87466086191E+03  0.00000000000E+00 0. -1.
          5    1    1    2  502    0  0.60874668914E+02  0.14138535999E+02 -0.40176834670E+03  0.40662700098E+03  0.47000000000E+01 0. -1.
         -5    1    1    2    0  502  0.82834870775E+02  0.99519670782E+01 -0.98236908473E+02  0.12896990987E+03  0.47000000000E+01 0. -1.
        -11    1    1    2    0    0  0.11675550269E+02 -0.38909487769E+01 -0.12414628786E+02  0.17480874244E+02  0.00000000000E+00 0.  1.
         11    1    1    2    0    0 -0.15538508996E+03 -0.20199554301E+02 -0.32395964036E+03  0.35986441441E+03  0.00000000000E+00 0. -1.
<mgrwt>
<rscale>  0 0.18651058E+03</rscale>
<asrwt>0</asrwt>
<pdfrwt beam="2">  1        2 0.13456322E+00 0.19198645E+03</pdfrwt>
<pdfrwt beam="1">  1       -2 0.58894363E-02 0.19198645E+03</pdfrwt>
<totfact> 0.47445732E+03</totfact>
</mgrwt>
</event>
<event>
 6    1  0.4705246E-006  0.1438048E+03  0.7546771E-02  0.1231687E+00
          1   -1    0    0  501    0  0.00000000000E+00  0.00000000000E+00  0.10143500935E+03  0.10143500935E+03  0.00000000000E+00 0. -1.
         -1   -1    0    0    0  501 -0.00000000000E+00 -0.00000000000E+00 -0.17432287662E+03  0.17432287662E+03  0.00000000000E+00 0.  1.
          5    1    1    2  502    0  0.24191224716E+02 -0.41568800794E+02  0.60431769444E+01  0.48701032231E+02  0.47000000000E+01 0.  1.
         -5    1    1    2    0  502 -0.92651897188E+02  0.22400738551E+02  0.16931397937E+02  0.96927443876E+02  0.47000000000E+01 0.  1.
        -11    1    1    2    0    0  0.48862019122E+02 -0.11930347303E+02 -0.64617539499E+02  0.81885630671E+02  0.00000000000E+00 0.  1.
         11    1    1    2    0    0  0.19598653350E+02  0.31098409546E+02 -0.31244902648E+02  0.48243779194E+02  0.00000000000E+00 0. -1.
<mgrwt>
<rscale>  0 0.12718945E+03</rscale>
<asrwt>0</asrwt>
<pdfrwt beam="1">  1        1 0.15605386E-01 0.14380481E+03</pdfrwt>
<pdfrwt beam="2">  1       -1 0.26818904E-01 0.14380481E+03</pdfrwt>
<totfact> 0.42046653E+03</totfact>
</mgrwt>
</event>
<event>
 6    1  0.4705246E-006  0.1366667E+03  0.7546771E-02  0.1306170E+00
         -2   -1    0    0    0  501 -0.00000000000E+00  0.00000000000E+00  0.74034922739E+01  0.74034922739E+01  0.00000000000E+00 0.  1.
          2   -1    0    0  501    0  0.00000000000E+00 -0.00000000000E+00 -0.11288968092E+04  0.11288968092E+04  0.00000000000E+00 0. -1.
          5    1    1    2  502    0  0.39655454116E+02  0.38680786839E+01 -0.93993102674E+03  0.94078687390E+03  0.47000000000E+01 0. -1.
         -5    1    1    2    0  502 -0.46604604494E+02  0.13637884933E+01 -0.13725053981E+03  0.14502982368E+03  0.47000000000E+01 0.  1.
        -11    1    1    2    0    0  0.10820679595E+02  0.51924800941E+01 -0.15522194415E+02  0.19621097723E+02  0.00000000000E+00 0. -1.
         11    1    1    2    0    0 -0.38715292164E+01 -0.10424347271E+02 -0.28789555950E+02  0.30862506158E+02  0.00000000000E+00 0.  1.
<mgrwt>
<rscale>  0 0.88643572E+02</rscale>
<asrwt>0</asrwt>
<pdfrwt beam="2">  1        2 0.17367648E+00 0.13666665E+03</pdfrwt>
<pdfrwt beam="1">  1       -2 0.11389985E-02 0.13666665E+03</pdfrwt>
<totfact> 0.36735516E+04</totfact>
</mgrwt>
</event>
<event>
 6    1  0.4705246E-006  0.2983769E+03  0.7546771E-02  0.1086055E+00
          1   -1    0    0  501    0  0.00000000000E+00  0.00000000000E+00  0.40597304992E+03  0.40597304992E+03  0.00000000000E+00 0. -1.
         -1   -1    0    0    0  501 -0.00000000000E+00 -0.00000000000E+00 -0.54824300489E+02  0.54824300489E+02  0.00000000000E+00 0.  1.
          5    1    1    2  502    0 -0.67340464543E+02 -0.18317289790E+02  0.34237172354E+03  0.34944348377E+03  0.47000000000E+01 0. -1.
         -5    1    1    2    0  502  0.37105689961E+01  0.74983209642E+01 -0.58587894998E+01  0.11243155872E+02  0.47000000000E+01 0.  1.
        -11    1    1    2    0    0  0.56074644882E+02  0.39664800111E+02  0.54132688559E+01  0.68898226728E+02  0.00000000000E+00 0. -1.
         11    1    1    2    0    0  0.75552506645E+01 -0.28845831286E+02  0.92225465325E+01  0.31212484036E+02  0.00000000000E+00 0.  1.
<mgrwt>
<rscale>  0 0.29837687E+03</rscale>
<asrwt>0</asrwt>
<pdfrwt beam="1">  1        1 0.62457390E-01 0.29837687E+03</pdfrwt>
<pdfrwt beam="2">  1       -1 0.84345080E-02 0.29837687E+03</pdfrwt>
<totfact> 0.47074611E+03</totfact>
</mgrwt>
</event>
<event>
 6    1  0.4705246E-006  0.1379477E+03  0.7546771E-02  0.1226816E+00
          1   -1    0    0  501    0  0.00000000000E+00  0.00000000000E+00  0.98208589877E+02  0.98208589877E+02  0.00000000000E+00 0. -1.
         -1   -1    0    0    0  501 -0.00000000000E+00 -0.00000000000E+00 -0.15817203633E+03  0.15817203633E+03  0.00000000000E+00 0.  1.
          5    1    1    2  502    0 -0.46569469326E+02  0.37671143819E+02  0.33014022997E+02  0.68555424763E+02  0.47000000000E+01 0.  1.
         -5    1    1    2    0  502 -0.11456381698E+02 -0.43852615211E+02 -0.54525829704E+02  0.71059528899E+02  0.47000000000E+01 0.  1.
        -11    1    1    2    0    0  0.14663244557E+02  0.13221348020E+01 -0.64358005074E+02  0.66020539217E+02  0.00000000000E+00 0.  1.
         11    1    1    2    0    0  0.43362606467E+02  0.48593365900E+01  0.25906365330E+02  0.50745133326E+02  0.00000000000E+00 0. -1.
<mgrwt>
<rscale>  0 0.13043177E+03</rscale>
<asrwt>0</asrwt>
<pdfrwt beam="1">  1        1 0.15109014E-01 0.13794773E+03</pdfrwt>
<pdfrwt beam="2">  1       -1 0.24334159E-01 0.13794773E+03</pdfrwt>
<totfact> 0.51333745E+03</totfact>
</mgrwt>
</event>
<event>
 6    1  0.4705246E-006  0.1448219E+03  0.7546771E-02  0.1215631E+00
         -1   -1    0    0    0  501 -0.00000000000E+00  0.00000000000E+00  0.53613520545E+03  0.53613520545E+03  0.00000000000E+00 0.  1.
          1   -1    0    0  501    0  0.00000000000E+00 -0.00000000000E+00 -0.32877871792E+02  0.32877871792E+02  0.00000000000E+00 0. -1.
          5    1    1    2  502    0  0.38993544711E+02 -0.61620445682E+00  0.66107739596E+02  0.76897330718E+02  0.47000000000E+01 0. -1.
         -5    1    1    2    0  502 -0.92361054825E+02  0.50629750249E+02  0.19612817616E+03  0.22267080532E+03  0.47000000000E+01 0. -1.
        -11    1    1    2    0    0  0.66928339610E+02 -0.42715288357E+02  0.24131595844E+03  0.25404210340E+03  0.00000000000E+00 0.  1.
         11    1    1    2    0    0 -0.13560829496E+02 -0.72982574344E+01 -0.29454053827E+00  0.15402837801E+02  0.00000000000E+00 0. -1.
<mgrwt>
<rscale>  0 0.13830293E+03</rscale>
<asrwt>0</asrwt>
<pdfrwt beam="2">  1        1 0.50581345E-02 0.14482193E+03</pdfrwt>
<pdfrwt beam="1">  1       -1 0.82482333E-01 0.14482193E+03</pdfrwt>
<totfact> 0.24332509E+03</totfact>
</mgrwt>
</event>
<event>
 6    1  0.4705246E-006  0.1438718E+03  0.7546771E-02  0.1218475E+00
         -2   -1    0    0    0  501 -0.00000000000E+00  0.00000000000E+00  0.11494242623E+03  0.11494242623E+03  0.00000000000E+00 0.  1.
          2   -1    0    0  501    0  0.00000000000E+00 -0.00000000000E+00 -0.17409689199E+03  0.17409689199E+03  0.00000000000E+00 0. -1.
          5    1    1    2  502    0 -0.67572457302E+02 -0.29309773252E+02 -0.69377194659E+02  0.10129355820E+03  0.47000000000E+01 0. -1.
         -5    1    1    2    0  502  0.57704095381E+01  0.64674955958E+02 -0.20105700512E+02  0.68135722990E+02  0.47000000000E+01 0. -1.
        -11    1    1    2    0    0  0.34010776892E+02  0.29491518359E+02  0.91157301965E+01  0.45930154985E+02  0.00000000000E+00 0.  1.
         11    1    1    2    0    0  0.27791270872E+02 -0.64856701065E+02  0.21212699214E+02  0.73679882042E+02  0.00000000000E+00 0. -1.
<mgrwt>
<rscale>  0 0.13624360E+03</rscale>
<asrwt>0</asrwt>
<pdfrwt beam="2">  1        2 0.26784137E-01 0.14387179E+03</pdfrwt>
<pdfrwt beam="1">  1       -2 0.17683450E-01 0.14387179E+03</pdfrwt>
<totfact> 0.49535418E+03</totfact>
</mgrwt>
</event>
<event>
 6    1  0.4705246E-006  0.1302026E+03  0.7546771E-02  0.1232814E+00
          1   -1    0    0  501    0  0.00000000000E+00  0.00000000000E+00  0.95199464318E+03  0.95199464318E+03  0.00000000000E+00 0. -1.
         -1   -1    0    0    0  501 -0.00000000000E+00 -0.00000000000E+00 -0.17778852497E+02  0.17778852497E+02  0.00000000000E+00 0.  1.
          5    1    1    2  502    0  0.81870221680E+02  0.29909664915E+01  0.26860827308E+03  0.28086326467E+03  0.47000000000E+01 0. -1.
         -5    1    1    2    0  502 -0.13816187302E+02 -0.17408218838E+02  0.38034326347E+03  0.38102102459E+03  0.47000000000E+01 0.  1.
        -11    1    1    2    0    0  0.95380471365E+01  0.26980391054E+02  0.13825571170E+03  0.14118625168E+03  0.00000000000E+00 0. -1.
         11    1    1    2    0    0 -0.77592081514E+02 -0.12563138707E+02  0.14700854244E+03  0.16670295473E+03  0.00000000000E+00 0.  1.
<mgrwt>
<rscale>  0 0.12645444E+03</rscale>
<asrwt>0</asrwt>
<pdfrwt beam="1">  1        1 0.14646067E+00 0.13020259E+03</pdfrwt>
<pdfrwt beam="2">  1       -1 0.27352088E-02 0.13020259E+03</pdfrwt>
<totfact> 0.72729799E+03</totfact>
</mgrwt>
</event>
<event>
 6    1  0.4705246E-006  0.1250869E+03  0.7546771E-02  0.1251116E+00
          1   -1    0    0  501    0  0.00000000000E+00  0.00000000000E+00  0.59591689090E+02  0.59591689090E+02  0.00000000000E+00 0. -1.
         -1   -1    0    0    0  501 -0.00000000000E+00 -0.00000000000E+00 -0.24781485808E+03  0.24781485808E+03  0.00000000000E+00 0.  1.
          5    1    1    2  502    0 -0.46293587710E+02 -0.24382438248E+02 -0.49858512304E+02  0.72426243912E+02  0.47000000000E+01 0.  1.
         -5    1    1    2    0  502  0.47450547060E+02  0.28928775428E+02  0.14377540612E+02  0.57595417683E+02  0.47000000000E+01 0.  1.
        -11    1    1    2    0    0 -0.39672969470E+02 -0.44587502025E+01 -0.33628169758E+02  0.52198455544E+02  0.00000000000E+00 0. -1.
         11    1    1    2    0    0  0.38516010120E+02 -0.87586977042E-01 -0.11911402754E+03  0.12518643004E+03  0.00000000000E+00 0.  1.
<mgrwt>
<rscale>  0 0.11526701E+03</rscale>
<asrwt>0</asrwt>
<pdfrwt beam="1">  1        1 0.91679522E-02 0.12508690E+03</pdfrwt>
<pdfrwt beam="2">  1       -1 0.38125363E-01 0.12508690E+03</pdfrwt>
<totfact> 0.46137686E+03</totfact>
</mgrwt>
</event>
<event>
 6    1  0.4705246E-006  0.1372313E+03  0.7546771E-02  0.1270448E+00
         -4   -1    0    0    0  501 -0.00000000000E+00  0.00000000000E+00  0.15436877067E+03  0.15436877067E+03  0.00000000000E+00 0.  1.
          4   -1    0    0  501    0  0.00000000000E+00 -0.00000000000E+00 -0.57625139125E+02  0.57625139125E+02  0.00000000000E+00 0. -1.
          5    1    1    2  502    0 -0.50941885494E+02  0.26818805068E+02  0.68073113080E+02  0.89276887980E+02  0.47000000000E+01 0. -1.
         -5    1    1    2    0  502  0.22164632862E+02 -0.49166047033E+02 -0.17626483489E+02  0.56932890766E+02  0.47000000000E+01 0.  1.
        -11    1    1    2    0    0  0.13364021818E+02  0.23904714670E+02  0.41206765697E+02  0.49477570694E+02  0.00000000000E+00 0. -1.
         11    1    1    2    0    0  0.15413230814E+02 -0.15574727044E+01  0.50902362527E+01  0.16306560350E+02  0.00000000000E+00 0.  1.
<mgrwt>
<rscale>  0 0.10483348E+03</rscale>
<asrwt>0</asrwt>
<pdfrwt beam="2">  1        4 0.88654061E-02 0.13723133E+03</pdfrwt>
<pdfrwt beam="1">  1       -4 0.23749041E-01 0.13723133E+03</pdfrwt>
<totfact> 0.25200669E+03</totfact>
</mgrwt>
</event>
<event>
 6    1  0.4705246E-006  0.1837927E+03  0.7546771E-02  0.1173919E+00
         -2   -1    0    0    0  501 -0.00000000000E+00  0.00000000000E+00  0.24519386216E+03  0.24519386216E+03  0.00000000000E+00 0.  1.
          2   -1    0    0  501    0  0.00000000000E+00 -0.00000000000E+00 -0.67169378573E+03  0.67169378573E+03  0.00000000000E+00 0. -1.
          5    1    1    2  502    0 -0.18700917165E+02 -0.11075636206E+03 -0.63327334257E+03  0.64317486926E+03  0.47000000000E+01 0. -1.
         -5    1    1    2    0  502  0.16864331818E+02 -0.47433557227E+01 -0.21145297301E+01  0.18261060954E+02  0.47000000000E+01 0.  1.
        -11    1    1    2    0    0  0.45822071371E+01  0.84114839449E+02  0.20746457565E+03  0.22391483423E+03  0.00000000000E+00 0.  1.
         11    1    1    2    0    0 -0.27456217898E+01  0.31384878334E+02  0.14233730762E+01  0.31536883454E+02  0.00000000000E+00 0. -1.
<mgrwt>
<rscale>  0 0.17382275E+03</rscale>
<asrwt>0</asrwt>
<pdfrwt beam="2">  1        2 0.10333750E+00 0.18379266E+03</pdfrwt>
<pdfrwt beam="1">  1       -2 0.37722133E-01 0.18379266E+03</pdfrwt>
<totfact> 0.29902871E+02</totfact>
</mgrwt>
</event>
<event>
 6    1  0.4705246E-006  0.2072744E+03  0.7546771E-02  0.1147688E+00
         -2   -1    0    0    0  501 -0.00000000000E+00  0.00000000000E+00  0.43467724920E+02  0.43467724920E+02  0.00000000000E+00 0.  1.
          2   -1    0    0  501    0  0.00000000000E+00 -0.00000000000E+00 -0.90349323465E+03  0.90349323465E+03  0.00000000000E+00 0. -1.
          5    1    1    2  502    0  0.13653187674E+02  0.64870410724E+02 -0.61414718651E+02  0.90489985016E+02  0.47000000000E+01 0. -1.
         -5    1    1    2    0  502  0.87849731599E+02  0.65626969613E+02 -0.41086449411E+03  0.42527190949E+03  0.47000000000E+01 0. -1.
        -11    1    1    2    0    0 -0.11523214320E+02 -0.38565050469E+02 -0.19739501999E+03  0.20145679810E+03  0.00000000000E+00 0. -1.
         11    1    1    2    0    0 -0.89979704954E+02 -0.91932329868E+02 -0.19035127697E+03  0.22974226695E+03  0.00000000000E+00 0.  1.
<mgrwt>
<rscale>  0 0.20245024E+03</rscale>
<asrwt>0</asrwt>
<pdfrwt beam="2">  1        2 0.13899894E+00 0.20727440E+03</pdfrwt>
<pdfrwt beam="1">  1       -2 0.66873431E-02 0.20727440E+03</pdfrwt>
<totfact> 0.37486544E+03</totfact>
</mgrwt>
</event>
<event>
 6    1  0.4705246E-006  0.2839380E+03  0.7546771E-02  0.1129004E+00
         -2   -1    0    0    0  501 -0.00000000000E+00  0.00000000000E+00  0.45629527436E+02  0.45629527436E+02  0.00000000000E+00 0.  1.
          2   -1    0    0  501    0  0.00000000000E+00 -0.00000000000E+00 -0.87452251286E+03  0.87452251286E+03  0.00000000000E+00 0. -1.
          5    1    1    2  502    0 -0.54437573653E+02 -0.92180296040E+02 -0.39368942171E+03  0.40801238605E+03  0.47000000000E+01 0. -1.
         -5    1    1    2    0  502  0.13002901847E+02  0.15124098235E+03 -0.21047736707E+03  0.25954907484E+03  0.47000000000E+01 0.  1.
        -11    1    1    2    0    0 -0.19622829073E+02 -0.46571335355E+01 -0.93863919036E+01  0.22245194235E+02  0.00000000000E+00 0. -1.
         11    1    1    2    0    0  0.61057500879E+02 -0.54403552773E+02 -0.21533980474E+03  0.23034538517E+03  0.00000000000E+00 0.  1.
<mgrwt>
<rscale>  0 0.22667294E+03</rscale>
<asrwt>0</asrwt>
<pdfrwt beam="2">  1        2 0.13454191E+00 0.28393801E+03</pdfrwt>
<pdfrwt beam="1">  1       -2 0.70199278E-02 0.28393801E+03</pdfrwt>
<totfact> 0.36577253E+03</totfact>
</mgrwt>
</event>
<event>
 6    1  0.4705246E-006  0.1651604E+03  0.7546771E-02  0.1190545E+00
          2   -1    0    0  501    0  0.00000000000E+00  0.00000000000E+00  0.21687510462E+03  0.21687510462E+03  0.00000000000E+00 0. -1.
         -2   -1    0    0    0  501 -0.00000000000E+00 -0.00000000000E+00 -0.13351573977E+03  0.13351573977E+03  0.00000000000E+00 0.  1.
          5    1    1    2  502    0  0.18437654590E+02 -0.61340722599E+02  0.70620172020E+02  0.95456430123E+02  0.47000000000E+01 0.  1.
         -5    1    1    2    0  502 -0.96068557069E+02 -0.13686795390E+02  0.51575756106E+02  0.10999383912E+03  0.47000000000E+01 0.  1.
        -11    1    1    2    0    0  0.23448246337E+02  0.60675912168E+02 -0.56512168915E+02  0.86168508222E+02  0.00000000000E+00 0.  1.
         11    1    1    2    0    0  0.54182656142E+02  0.14351605822E+02  0.17675605638E+02  0.58772066928E+02  0.00000000000E+00 0. -1.
<mgrwt>
<rscale>  0 0.15837347E+03</rscale>
<asrwt>0</asrwt>
<pdfrwt beam="1">  1        2 0.33365401E-01 0.16516043E+03</pdfrwt>
<pdfrwt beam="2">  1       -2 0.20540883E-01 0.16516043E+03</pdfrwt>
<totfact> 0.30519322E+03</totfact>
</mgrwt>
</event>
<event>
 6    1  0.4705246E-006  0.1858563E+03  0.7546771E-02  0.1167584E+00
         -1   -1    0    0    0  501 -0.00000000000E+00  0.00000000000E+00  0.55664672305E+02  0.55664672305E+02  0.00000000000E+00 0.  1.
          1   -1    0    0  501    0  0.00000000000E+00 -0.00000000000E+00 -0.56357417176E+03  0.56357417176E+03  0.00000000000E+00 0. -1.
          5    1    1    2  502    0 -0.64939210047E+02 -0.10101589290E+03 -0.17414934395E+03  0.21159252260E+03  0.47000000000E+01 0.  1.
         -5    1    1    2    0  502 -0.53268834898E+02  0.30661682518E+02 -0.48507771640E+02  0.78439795102E+02  0.47000000000E+01 0.  1.
        -11    1    1    2    0    0  0.19668042079E+02  0.61598870913E+02 -0.97657895360E+02  0.11712522061E+03  0.00000000000E+00 0.  1.
         11    1    1    2    0    0  0.98540002867E+02  0.87553394679E+01 -0.18759448850E+03  0.21208130576E+03  0.00000000000E+00 0. -1.
<mgrwt>
<rscale>  0 0.18022685E+03</rscale>
<asrwt>0</asrwt>
<pdfrwt beam="2">  1        1 0.86703719E-01 0.18585627E+03</pdfrwt>
<pdfrwt beam="1">  1       -1 0.85637957E-02 0.18585627E+03</pdfrwt>
<totfact> 0.29344965E+03</totfact>
</mgrwt>
</event>
<event>
 6    1  0.4705246E-006  0.2792996E+03  0.7546771E-02  0.1097930E+00
         -2   -1    0    0    0  501 -0.00000000000E+00  0.00000000000E+00  0.47962808389E+02  0.47962808389E+02  0.00000000000E+00 0.  1.
          2   -1    0    0  501    0  0.00000000000E+00 -0.00000000000E+00 -0.22793769957E+04  0.22793769957E+04  0.00000000000E+00 0. -1.
          5    1    1    2  502    0  0.20935244357E+03 -0.10467167268E+03 -0.14849950799E+04  0.15033353192E+04  0.47000000000E+01 0.  1.
         -5    1    1    2    0  502  0.30010452043E+02  0.33334382718E+02 -0.30704635972E+03  0.31034072456E+03  0.47000000000E+01 0.  1.
        -11    1    1    2    0    0 -0.58900521124E+02  0.58089588085E+02 -0.17139448549E+03  0.19031484779E+03  0.00000000000E+00 0.  1.
         11    1    1    2    0    0 -0.18046237449E+03  0.13247701878E+02 -0.26797826215E+03  0.32334891247E+03  0.00000000000E+00 0. -1.
<mgrwt>
<rscale>  0 0.27593607E+03</rscale>
<asrwt>0</asrwt>
<pdfrwt beam="2">  1        2 0.35067339E+00 0.27929961E+03</pdfrwt>
<pdfrwt beam="1">  1       -2 0.73788935E-02 0.27929961E+03</pdfrwt>
<totfact> 0.56639952E+02</totfact>
</mgrwt>
</event>
<event>
 6    1  0.4705246E-006  0.3819538E+03  0.7546771E-02  0.1050214E+00
         -2   -1    0    0    0  501 -0.00000000000E+00  0.00000000000E+00  0.17089435164E+03  0.17089435164E+03  0.00000000000E+00 0.  1.
          2   -1    0    0  501    0  0.00000000000E+00 -0.00000000000E+00 -0.21341939360E+03  0.21341939360E+03  0.00000000000E+00 0. -1.
          5    1    1    2  502    0  0.14745377061E+02 -0.23311494046E+02 -0.26290743662E+02  0.38394597297E+02  0.47000000000E+01 0.  1.
         -5    1    1    2    0  502  0.49581671482E+02  0.14693584579E+03 -0.40500480335E+02  0.16034607520E+03  0.47000000000E+01 0.  1.
        -11    1    1    2    0    0 -0.46369874302E+02 -0.45361147856E+02 -0.45473470054E+02  0.79218908452E+02  0.00000000000E+00 0. -1.
         11    1    1    2    0    0 -0.17957174242E+02 -0.78263203885E+02  0.69739652088E+02  0.10635416429E+03  0.00000000000E+00 0.  1.
<mgrwt>
<rscale>  0 0.38195376E+03</rscale>
<asrwt>0</asrwt>
<pdfrwt beam="2">  1        2 0.32833753E-01 0.38195376E+03</pdfrwt>
<pdfrwt beam="1">  1       -2 0.26291439E-01 0.38195376E+03</pdfrwt>
<totfact> 0.20742121E+03</totfact>
</mgrwt>
</event>
<event>
 6    1  0.4705246E-006  0.6266064E+03  0.7546771E-02  0.1013376E+00
         -2   -1    0    0    0  501 -0.00000000000E+00  0.00000000000E+00  0.61282126234E+02  0.61282126234E+02  0.00000000000E+00 0.  1.
          2   -1    0    0  501    0  0.00000000000E+00 -0.00000000000E+00 -0.32802565829E+04  0.32802565829E+04  0.00000000000E+00 0. -1.
          5    1    1    2  502    0  0.21036201002E+03 -0.96259103290E+02 -0.18015597683E+04  0.18163583564E+04  0.47000000000E+01 0. -1.
         -5    1    1    2    0  502 -0.27222163387E+03 -0.13688491291E+03 -0.71885132215E+03  0.78077615914E+03  0.47000000000E+01 0.  1.
        -11    1    1    2    0    0 -0.47556984610E+01  0.12680308242E+03 -0.42284239552E+03  0.44147177693E+03  0.00000000000E+00 0.  1.
         11    1    1    2    0    0  0.66615322309E+02  0.10634093379E+03 -0.27572097077E+03  0.30293241670E+03  0.00000000000E+00 0. -1.
<mgrwt>
<rscale>  0 0.50154484E+03</rscale>
<asrwt>0</asrwt>
<pdfrwt beam="2">  1        2 0.50465478E+00 0.62660644E+03</pdfrwt>
<pdfrwt beam="1">  1       -2 0.94280208E-02 0.62660644E+03</pdfrwt>
<totfact> 0.94174779E+01</totfact>
</mgrwt>
</event>
<event>
 6    1  0.4705246E-006  0.1276567E+03  0.7546771E-02  0.1247557E+00
          3   -1    0    0  501    0  0.00000000000E+00  0.00000000000E+00  0.27566093033E+03  0.27566093033E+03  0.00000000000E+00 0. -1.
         -3   -1    0    0    0  501 -0.00000000000E+00 -0.00000000000E+00 -0.44774124029E+02  0.44774124029E+02  0.00000000000E+00 0.  1.
          5    1    1    2  502    0  0.47156400474E+02 -0.18668420833E+02  0.62997344511E+02  0.81012292015E+02  0.47000000000E+01 0.  1.
         -5    1    1    2    0  502 -0.70847405904E+02  0.29026344946E+02  0.98756200274E+02  0.12504703402E+03  0.47000000000E+01 0.  1.
        -11    1    1    2    0    0  0.12236520887E+02 -0.31383428859E+02 -0.71397412452E+01  0.34432948689E+02  0.00000000000E+00 0.  1.
         11    1    1    2    0    0  0.11454484543E+02  0.21025504745E+02  0.76273002757E+02  0.79942779633E+02  0.00000000000E+00 0. -1.
<mgrwt>
<rscale>  0 0.11733652E+03</rscale>
<asrwt>0</asrwt>
<pdfrwt beam="1">  1        3 0.42409373E-01 0.12765671E+03</pdfrwt>
<pdfrwt beam="2">  1       -3 0.68883269E-02 0.12765671E+03</pdfrwt>
<totfact> 0.17145459E+03</totfact>
</mgrwt>
</event>
<event>
 6    1  0.4705246E-006  0.2264090E+03  0.7546771E-02  0.1132198E+00
          4   -1    0    0  501    0  0.00000000000E+00  0.00000000000E+00  0.47988985238E+03  0.47988985238E+03  0.00000000000E+00 0. -1.
         -4   -1    0    0    0  501 -0.00000000000E+00 -0.00000000000E+00 -0.10629921974E+03  0.10629921974E+03  0.00000000000E+00 0.  1.
          5    1    1    2  502    0  0.13637315559E+02 -0.47860814744E+02  0.14820466217E+03  0.15640762722E+03  0.47000000000E+01 0.  1.
         -5    1    1    2    0  502 -0.86517866982E+02 -0.12627837026E+03  0.11984190426E+03  0.19446269596E+03  0.47000000000E+01 0.  1.
        -11    1    1    2    0    0 -0.15877564579E+02  0.67087611514E+02  0.51802404143E+02  0.86234179712E+02  0.00000000000E+00 0. -1.
         11    1    1    2    0    0  0.88758116002E+02  0.10705157349E+03  0.53741662066E+02  0.14908456924E+03  0.00000000000E+00 0.  1.
<mgrwt>
<rscale>  0 0.22227541E+03</rscale>
<asrwt>0</asrwt>
<pdfrwt beam="1">  1        4 0.73829207E-01 0.22640897E+03</pdfrwt>
<pdfrwt beam="2">  1       -4 0.16353726E-01 0.22640897E+03</pdfrwt>
<totfact> 0.99186851E+01</totfact>
</mgrwt>
</event>
<event>
 6    1  0.5720351E-006  0.1621807E+03  0.7546771E-02  0.1194202E+00
          1   -1    0    0  501    0  0.00000000000E+00  0.00000000000E+00  0.63803073307E+02  0.63803073307E+02  0.00000000000E+00 0. -1.
         -1   -1    0    0    0  501 -0.00000000000E+00 -0.00000000000E+00 -0.36865417092E+03  0.36865417092E+03  0.00000000000E+00 0.  1.
          5    1    1    2  502    0 -0.42218645966E+02 -0.30119915585E+02  0.15433173927E+02  0.54312947255E+02  0.47000000000E+01 0.  1.
         -5    1    1    2    0  502 -0.45107098937E+01 -0.62040735444E+02 -0.13018394750E+03  0.14435840656E+03  0.47000000000E+01 0.  1.
        -11    1    1    2    0    0  0.45245311377E+02  0.25772708456E+01 -0.78823307636E+02  0.90922463414E+02  0.00000000000E+00 0.  1.
         11    1    1    2    0    0  0.14840444825E+01  0.89583380184E+02 -0.11127701640E+03  0.14286342699E+03  0.00000000000E+00 0. -1.
<mgrwt>
<rscale>  0 0.15522001E+03</rscale>
<asrwt>0</asrwt>
<pdfrwt beam="1">  1        1 0.98158575E-02 0.16218066E+03</pdfrwt>
<pdfrwt beam="2">  1       -1 0.56716026E-01 0.16218066E+03</pdfrwt>
<totfact> 0.20860903E+03</totfact>
</mgrwt>
</event>
<event>
 6    1  0.4705246E-006  0.3243816E+03  0.7546771E-02  0.1073650E+00
          4   -1    0    0  501    0  0.00000000000E+00  0.00000000000E+00  0.94471914797E+02  0.94471914797E+02  0.00000000000E+00 0. -1.
         -4   -1    0    0    0  501 -0.00000000000E+00 -0.00000000000E+00 -0.27845168099E+03  0.27845168099E+03  0.00000000000E+00 0.  1.
          5    1    1    2  502    0 -0.48281035766E+02 -0.10249852863E+03 -0.79165292092E+02  0.13829765095E+03  0.47000000000E+01 0.  1.
         -5    1    1    2    0  502 -0.15343253743E+02  0.10066155334E+02  0.31107668923E+02  0.36421422054E+02  0.47000000000E+01 0.  1.
        -11    1    1    2    0    0  0.57494008015E+02  0.65585712547E+02 -0.14499922556E+03  0.16920940299E+03  0.00000000000E+00 0.  1.
         11    1    1    2    0    0  0.61302814940E+01  0.26846660750E+02  0.90770825338E+01  0.28995119795E+02  0.00000000000E+00 0. -1.
<mgrwt>
<rscale>  0 0.32438165E+03</rscale>
<asrwt>0</asrwt>
<pdfrwt beam="1">  1        4 0.14534141E-01 0.32438165E+03</pdfrwt>
<pdfrwt beam="2">  1       -4 0.42838720E-01 0.32438165E+03</pdfrwt>
<totfact> 0.40374506E+02</totfact>
</mgrwt>
</event>
<event>
 6    1  0.4705246E-006  0.2035170E+03  0.7546771E-02  0.1151038E+00
          3   -1    0    0  501    0  0.00000000000E+00  0.00000000000E+00  0.23002472213E+03  0.23002472213E+03  0.00000000000E+00 0. -1.
         -3   -1    0    0    0  501 -0.00000000000E+00 -0.00000000000E+00 -0.17109943738E+03  0.17109943738E+03  0.00000000000E+00 0.  1.
          5    1    1    2  502    0  0.20969623714E+00  0.56398809359E+02 -0.84475047978E+01  0.57221674276E+02  0.47000000000E+01 0.  1.
         -5    1    1    2    0  502 -0.13140551932E+03  0.36240849852E+02  0.82196494740E+02  0.15924560733E+03  0.47000000000E+01 0.  1.
        -11    1    1    2    0    0  0.16330707098E+02 -0.19838587340E+02  0.31809085256E+02  0.40891068057E+02  0.00000000000E+00 0. -1.
         11    1    1    2    0    0  0.11486511599E+03 -0.72801071870E+02 -0.46632790449E+02  0.14376580985E+03  0.00000000000E+00 0.  1.
<mgrwt>
<rscale>  0 0.19846819E+03</rscale>
<asrwt>0</asrwt>
<pdfrwt beam="1">  1        3 0.35388419E-01 0.20351700E+03</pdfrwt>
<pdfrwt beam="2">  1       -3 0.26322990E-01 0.20351700E+03</pdfrwt>
<totfact> 0.26301330E+02</totfact>
</mgrwt>
</event>
<event>
 6    1  0.4705246E-006  0.2076139E+03  0.7546771E-02  0.1147364E+00
         -2   -1    0    0    0  501 -0.00000000000E+00  0.00000000000E+00  0.20473228574E+03  0.20473228574E+03  0.00000000000E+00 0.  1.
          2   -1    0    0  501    0  0.00000000000E+00 -0.00000000000E+00 -0.28680055098E+03  0.28680055098E+03  0.00000000000E+00 0. -1.
          5    1    1    2  502    0  0.68161635763E+02  0.13907401453E+03 -0.10505121758E+03  0.18720426924E+03  0.47000000000E+01 0.  1.
         -5    1    1    2    0  502 -0.36714973327E+02  0.23681033901E+02 -0.78273086156E+02  0.89763838205E+02  0.47000000000E+01 0.  1.
        -11    1    1    2    0    0 -0.56653696750E+02 -0.12546489898E+03  0.98874630680E+02  0.16949122344E+03  0.00000000000E+00 0.  1.
         11    1    1    2    0    0  0.25207034314E+02 -0.37290149450E+02  0.23814078103E+01  0.45073505832E+02  0.00000000000E+00 0. -1.
<mgrwt>
<rscale>  0 0.20284080E+03</rscale>
<asrwt>0</asrwt>
<pdfrwt beam="2">  1        2 0.44123161E-01 0.20761390E+03</pdfrwt>
<pdfrwt beam="1">  1       -2 0.31497275E-01 0.20761390E+03</pdfrwt>
<totfact> 0.10701716E+03</totfact>
</mgrwt>
</event>
<event>
 6    1  0.4705246E-006  0.1256394E+03  0.7546771E-02  0.1249279E+00
         -1   -1    0    0    0  501 -0.00000000000E+00  0.00000000000E+00  0.66251350127E+02  0.66251350127E+02  0.00000000000E+00 0.  1.
          1   -1    0    0  501    0  0.00000000000E+00 -0.00000000000E+00 -0.18379168018E+03  0.18379168018E+03  0.00000000000E+00 0. -1.
          5    1    1    2  502    0  0.28472094716E+02 -0.26937382504E+02  0.14614501198E+02  0.42094612470E+02  0.47000000000E+01 0. -1.
         -5    1    1    2    0  502 -0.22103940996E+02  0.37871585798E+02 -0.10148361659E+03  0.11065195730E+03  0.47000000000E+01 0. -1.
        -11    1    1    2    0    0 -0.18630896243E+02 -0.41836426434E+02  0.77926768110E+01  0.46455599054E+02  0.00000000000E+00 0.  1.
         11    1    1    2    0    0  0.12262742523E+02  0.30902223141E+02 -0.38463891479E+02  0.50840861489E+02  0.00000000000E+00 0. -1.
<mgrwt>
<rscale>  0 0.11632871E+03</rscale>
<asrwt>0</asrwt>
<pdfrwt beam="2">  1        1 0.28275643E-01 0.12563945E+03</pdfrwt>
<pdfrwt beam="1">  1       -1 0.10192515E-01 0.12563945E+03</pdfrwt>
<totfact> 0.90691945E+03</totfact>
</mgrwt>
</event>
<event>
 6    1  0.4705246E-006  0.1252098E+03  0.7546771E-02  0.1249072E+00
          3   -1    0    0  501    0  0.00000000000E+00  0.00000000000E+00  0.33192301000E+02  0.33192301000E+02  0.00000000000E+00 0. -1.
         -3   -1    0    0    0  501 -0.00000000000E+00 -0.00000000000E+00 -0.43156249072E+03  0.43156249072E+03  0.00000000000E+00 0.  1.
          5    1    1    2  502    0  0.21321377238E+02  0.10195996494E+01  0.19820050163E+02  0.29505340182E+02  0.47000000000E+01 0.  1.
         -5    1    1    2    0  502 -0.17523458457E+02  0.51341675489E+01 -0.14976538131E+03  0.15094764228E+03  0.47000000000E+01 0.  1.
        -11    1    1    2    0    0 -0.24514478492E+01 -0.46965008220E+02 -0.93339022466E+02  0.10451743734E+03  0.00000000000E+00 0. -1.
         11    1    1    2    0    0 -0.13464709317E+01  0.40811241022E+02 -0.17508583611E+03  0.17978437192E+03  0.00000000000E+00 0.  1.
<mgrwt>
<rscale>  0 0.11644970E+03</rscale>
<asrwt>0</asrwt>
<pdfrwt beam="1">  1        3 0.51065082E-02 0.12520978E+03</pdfrwt>
<pdfrwt beam="2">  1       -3 0.66394224E-01 0.12520978E+03</pdfrwt>
<totfact> 0.11161126E+03</totfact>
</mgrwt>
</event>
<event>
 6    1  0.4705246E-006  0.2228272E+03  0.7546771E-02  0.1139775E+00
          1   -1    0    0  501    0  0.00000000000E+00  0.00000000000E+00  0.17881174434E+03  0.17881174434E+03  0.00000000000E+00 0. -1.
         -1   -1    0    0    0  501 -0.00000000000E+00 -0.00000000000E+00 -0.27378377875E+03  0.27378377875E+03  0.00000000000E+00 0.  1.
          5    1    1    2  502    0 -0.14212664232E+03  0.75759516128E+02  0.18747068366E+02  0.16221291352E+03  0.47000000000E+01 0. -1.
         -5    1    1    2    0  502  0.40093313483E+02  0.45565024506E+02  0.19136342818E+02  0.63811714134E+02  0.47000000000E+01 0.  1.
        -11    1    1    2    0    0  0.45819058193E+02 -0.68079826245E+02 -0.11849771222E+02  0.82913605115E+02  0.00000000000E+00 0. -1.
         11    1    1    2    0    0  0.56214270641E+02 -0.53244714389E+02 -0.12100567436E+03  0.14365729032E+03  0.00000000000E+00 0.  1.
<mgrwt>
<rscale>  0 0.21227744E+03</rscale>
<asrwt>0</asrwt>
<pdfrwt beam="1">  1        1 0.27509499E-01 0.22282724E+03</pdfrwt>
<pdfrwt beam="2">  1       -1 0.42120581E-01 0.22282724E+03</pdfrwt>
<totfact> 0.95096689E+02</totfact>
</mgrwt>
</event>
<event>
 6    1  0.4705246E-006  0.1261683E+03  0.7546771E-02  0.1249416E+00
          1   -1    0    0  501    0  0.00000000000E+00  0.00000000000E+00  0.72164489137E+03  0.72164489137E+03  0.00000000000E+00 0. -1.
         -1   -1    0    0    0  501 -0.00000000000E+00 -0.00000000000E+00 -0.16995150176E+02  0.16995150176E+02  0.00000000000E+00 0.  1.
          5    1    1    2  502    0 -0.50044358976E+01  0.56838075939E+02  0.13805064703E+03  0.14945127099E+03  0.47000000000E+01 0. -1.
         -5    1    1    2    0  502 -0.12091175074E+02 -0.56711020019E+02  0.34145401690E+03  0.34637446783E+03  0.47000000000E+01 0. -1.
        -11    1    1    2    0    0  0.46951256729E+02  0.12655483416E+02  0.76380257613E+02  0.90545709572E+02  0.00000000000E+00 0.  1.
         11    1    1    2    0    0 -0.29855645757E+02 -0.12782539336E+02  0.14876481965E+03  0.15226859316E+03  0.00000000000E+00 0. -1.
<mgrwt>
<rscale>  0 0.11624945E+03</rscale>
<asrwt>0</asrwt>
<pdfrwt beam="1">  1        1 0.11102227E+00 0.12616830E+03</pdfrwt>
<pdfrwt beam="2">  1       -1 0.26146390E-02 0.12616830E+03</pdfrwt>
<totfact> 0.11842770E+04</totfact>
</mgrwt>
</event>
<event>
 6    1  0.4705246E-006  0.1157611E+03  0.7546771E-02  0.1260016E+00
         -2   -1    0    0    0  501 -0.00000000000E+00  0.00000000000E+00  0.12305154499E+03  0.12305154499E+03  0.00000000000E+00 0.  1.
          2   -1    0    0  501    0  0.00000000000E+00 -0.00000000000E+00 -0.92246731870E+02  0.92246731870E+02  0.00000000000E+00 0. -1.
          5    1    1    2  502    0 -0.54503436876E+02 -0.42583930594E+02  0.11610833862E+02  0.70291658389E+02  0.47000000000E+01 0. -1.
         -5    1    1    2    0  502  0.25272119075E+02  0.37630772803E+02  0.19559464533E+02  0.49592516745E+02  0.47000000000E+01 0.  1.
        -11    1    1    2    0    0  0.56761814974E+02  0.40959107744E+01  0.20890083024E+02  0.60622402567E+02  0.00000000000E+00 0.  1.
         11    1    1    2    0    0 -0.27530497174E+02  0.85724701577E+00 -0.21255568295E+02  0.34791699163E+02  0.00000000000E+00 0. -1.
<mgrwt>
<rscale>  0 0.11029969E+03</rscale>
<asrwt>0</asrwt>
<pdfrwt beam="2">  1        2 0.14191805E-01 0.11576108E+03</pdfrwt>
<pdfrwt beam="1">  1       -2 0.18931007E-01 0.11576108E+03</pdfrwt>
<totfact> 0.89386918E+03</totfact>
</mgrwt>
</event>
<event>
 6    1  0.4705246E-006  0.1250591E+03  0.7546771E-02  0.1249970E+00
         -1   -1    0    0    0  501 -0.00000000000E+00  0.00000000000E+00  0.41696568645E+02  0.41696568645E+02  0.00000000000E+00 0.  1.
          1   -1    0    0  501    0  0.00000000000E+00 -0.00000000000E+00 -0.33082660466E+03  0.33082660466E+03  0.00000000000E+00 0. -1.
          5    1    1    2  502    0  0.15978779150E+01 -0.30323302762E+02 -0.23215031331E+03  0.23417496423E+03  0.47000000000E+01 0. -1.
         -5    1    1    2    0  502  0.22724006872E+01  0.29843532944E+02 -0.90021180303E+00  0.30310074971E+02  0.47000000000E+01 0. -1.
        -11    1    1    2    0    0 -0.25541563052E+02  0.49911969969E+01  0.17394138091E+02  0.31302388576E+02  0.00000000000E+00 0.  1.
         11    1    1    2    0    0  0.21671284450E+02 -0.45114271786E+01 -0.73473648994E+02  0.76735745526E+02  0.00000000000E+00 0. -1.
<mgrwt>
<rscale>  0 0.11592796E+03</rscale>
<asrwt>0</asrwt>
<pdfrwt beam="2">  1        1 0.50896403E-01 0.12505914E+03</pdfrwt>
<pdfrwt beam="1">  1       -1 0.64148564E-02 0.12505914E+03</pdfrwt>
<totfact> 0.88080545E+03</totfact>
</mgrwt>
</event>
<event>
 6    1  0.4705246E-006  0.1366353E+03  0.7546771E-02  0.1229009E+00
          2   -1    0    0  501    0  0.00000000000E+00  0.00000000000E+00  0.12046279077E+04  0.12046279077E+04  0.00000000000E+00 0.  1.
         -2   -1    0    0    0  501 -0.00000000000E+00 -0.00000000000E+00 -0.14155868947E+02  0.14155868947E+02  0.00000000000E+00 0. -1.
          5    1    1    2  502    0 -0.54273875490E+02 -0.11461583023E+02  0.40723167555E+03  0.41101915894E+03  0.47000000000E+01 0.  1.
         -5    1    1    2    0  502  0.67915419005E+02 -0.42014785890E+02  0.45784806181E+03  0.46478455662E+03  0.47000000000E+01 0.  1.
        -11    1    1    2    0    0  0.36070313930E+02  0.31702038245E+02  0.21059083037E+03  0.21599672362E+03  0.00000000000E+00 0.  1.
         11    1    1    2    0    0 -0.49711857445E+02  0.21774330668E+02  0.11480147106E+03  0.12698333751E+03  0.00000000000E+00 0. -1.
<mgrwt>
<rscale>  0 0.12895873E+03</rscale>
<asrwt>0</asrwt>
<pdfrwt beam="1">  1        2 0.18532729E+00 0.13663527E+03</pdfrwt>
<pdfrwt beam="2">  1       -2 0.21778269E-02 0.13663527E+03</pdfrwt>
<totfact> 0.13068277E+04</totfact>
</mgrwt>
</event>
<event>
 6    1  0.4705246E-006  0.2330041E+03  0.7546771E-02  0.1127454E+00
          1   -1    0    0  501    0  0.00000000000E+00  0.00000000000E+00  0.45983982790E+02  0.45983982790E+02  0.00000000000E+00 0. -1.
         -1   -1    0    0    0  501 -0.00000000000E+00 -0.00000000000E+00 -0.11003915328E+04  0.11003915328E+04  0.00000000000E+00 0.  1.
          5    1    1    2  502    0  0.68587638691E+02  0.13872437036E+03 -0.31407427851E+03  0.35016204468E+03  0.47000000000E+01 0. -1.
         -5    1    1    2    0  502 -0.45776097378E+02  0.56581815285E+02 -0.24212830996E+03  0.25287380528E+03  0.47000000000E+01 0. -1.
        -11    1    1    2    0    0  0.14061007904E+02 -0.39396921752E+02 -0.20495038341E+03  0.20917573723E+03  0.00000000000E+00 0.  1.
         11    1    1    2    0    0 -0.36872549217E+02 -0.15590926389E+03 -0.29325457818E+03  0.33416392845E+03  0.00000000000E+00 0. -1.
<mgrwt>
<rscale>  0 0.22884754E+03</rscale>
<asrwt>0</asrwt>
<pdfrwt beam="1">  1        1 0.70744586E-02 0.23300411E+03</pdfrwt>
<pdfrwt beam="2">  1       -1 0.16929101E+00 0.23300411E+03</pdfrwt>
<totfact> 0.28088561E+02</totfact>
</mgrwt>
</event>
<event>
 6    1  0.4705246E-006  0.2438738E+03  0.7546771E-02  0.1117239E+00
         -3   -1    0    0    0  501 -0.00000000000E+00  0.00000000000E+00  0.50363896162E+03  0.50363896162E+03  0.00000000000E+00 0.  1.
          3   -1    0    0  501    0  0.00000000000E+00 -0.00000000000E+00 -0.29522342420E+02  0.29522342420E+02  0.00000000000E+00 0. -1.
          5    1    1    2  502    0 -0.72450278649E+01  0.13133424247E+02 -0.82077730228E+01  0.17732309472E+02  0.47000000000E+01 0. -1.
         -5    1    1    2    0  502  0.37881792591E+01 -0.69175465058E+02  0.25795999239E+03  0.26714236456E+03  0.47000000000E+01 0. -1.
        -11    1    1    2    0    0  0.46137511557E+02  0.20026358582E+02  0.98901975233E+02  0.11095641359E+03  0.00000000000E+00 0. -1.
         11    1    1    2    0    0 -0.42680662952E+02  0.36015682229E+02  0.12546242460E+03  0.13733021642E+03  0.00000000000E+00 0.  1.
<mgrwt>
<rscale>  0 0.24387375E+03</rscale>
<asrwt>0</asrwt>
<pdfrwt beam="2">  1        3 0.45418992E-02 0.24387375E+03</pdfrwt>
<pdfrwt beam="1">  1       -3 0.77482910E-01 0.24387375E+03</pdfrwt>
<totfact> 0.10651325E+03</totfact>
</mgrwt>
</event>
<event>
 6    1  0.4705246E-006  0.1305512E+03  0.7546771E-02  0.1238243E+00
          2   -1    0    0  501    0  0.00000000000E+00  0.00000000000E+00  0.66294973774E+03  0.66294973774E+03  0.00000000000E+00 0. -1.
         -2   -1    0    0    0  501 -0.00000000000E+00 -0.00000000000E+00 -0.21383069050E+02  0.21383069050E+02  0.00000000000E+00 0.  1.
          5    1    1    2  502    0  0.61519149846E+00  0.67697431909E+01  0.33688659922E+03  0.33698795025E+03  0.47000000000E+01 0. -1.
         -5    1    1    2    0  502  0.17592302330E+02  0.58987103506E+02  0.87937581672E+02  0.10744336067E+03  0.47000000000E+01 0.  1.
        -11    1    1    2    0    0 -0.18248071291E+02 -0.82263382022E+02  0.16033708798E+03  0.18113044446E+03  0.00000000000E+00 0. -1.
         11    1    1    2    0    0  0.40577463289E-01  0.16506535326E+02  0.56405399821E+02  0.58771051411E+02  0.00000000000E+00 0.  1.
<mgrwt>
<rscale>  0 0.12299084E+03</rscale>
<asrwt>0</asrwt>
<pdfrwt beam="1">  1        2 0.10199225E+00 0.13055116E+03</pdfrwt>
<pdfrwt beam="2">  1       -2 0.32897034E-02 0.13055116E+03</pdfrwt>
<totfact> 0.15645464E+04</totfact>
</mgrwt>
</event>
<event>
 6    1  0.4705246E-006  0.3734134E+03  0.7546771E-02  0.1053395E+00
         -1   -1    0    0    0  501 -0.00000000000E+00  0.00000000000E+00  0.20529197963E+02  0.20529197963E+02  0.00000000000E+00 0.  1.
          1   -1    0    0  501    0  0.00000000000E+00 -0.00000000000E+00 -0.16980399707E+04  0.16980399707E+04  0.00000000000E+00 0. -1.
          5    1    1    2  502    0  0.47172370793E+02 -0.25897050967E+02 -0.13497911709E+03  0.14538686964E+03  0.47000000000E+01 0.  1.
         -5    1    1    2    0  502  0.73081912280E+02  0.25029015847E+02 -0.97480557506E+03  0.97787290417E+03  0.47000000000E+01 0.  1.
        -11    1    1    2    0    0 -0.43434500069E+02  0.55072881587E+02 -0.36717321996E+03  0.37381245503E+03  0.00000000000E+00 0. -1.
         11    1    1    2    0    0 -0.76819783004E+02 -0.54204846467E+02 -0.20055286061E+03  0.22149693980E+03  0.00000000000E+00 0.  1.
<mgrwt>
<rscale>  0 0.37341344E+03</rscale>
<asrwt>0</asrwt>
<pdfrwt beam="2">  1        1 0.26123702E+00 0.37341344E+03</pdfrwt>
<pdfrwt beam="1">  1       -1 0.31583369E-02 0.37341344E+03</pdfrwt>
<totfact> 0.18472374E+03</totfact>
</mgrwt>
</event>
<event>
 6    1  0.4705246E-006  0.1654963E+03  0.7546771E-02  0.1189636E+00
          2   -1    0    0  501    0  0.00000000000E+00  0.00000000000E+00  0.12744993108E+04  0.12744993108E+04  0.00000000000E+00 0. -1.
         -2   -1    0    0    0  501 -0.00000000000E+00 -0.00000000000E+00 -0.19488006440E+02  0.19488006440E+02  0.00000000000E+00 0.  1.
          5    1    1    2  502    0 -0.20564441542E+02  0.24264792268E+02  0.72058932903E+02  0.78906629702E+02  0.47000000000E+01 0.  1.
         -5    1    1    2    0  502  0.11870146764E+03  0.21923799113E+02  0.74704262565E+03  0.75674663258E+03  0.47000000000E+01 0.  1.
        -11    1    1    2    0    0 -0.26704278126E+02 -0.16712394427E+02  0.24988719555E+02  0.40210181580E+02  0.00000000000E+00 0.  1.
         11    1    1    2    0    0 -0.71432747975E+02 -0.29476196954E+02  0.41092102625E+03  0.41812387337E+03  0.00000000000E+00 0. -1.
<mgrwt>
<rscale>  0 0.15917066E+03</rscale>
<asrwt>0</asrwt>
<pdfrwt beam="1">  1        2 0.19607675E+00 0.16549626E+03</pdfrwt>
<pdfrwt beam="2">  1       -2 0.29981558E-02 0.16549626E+03</pdfrwt>
<totfact> 0.75536986E+03</totfact>
</mgrwt>
</event>
<event>
 6    1  0.4705246E-006  0.1322736E+03  0.7546771E-02  0.1236049E+00
          1   -1    0    0  501    0  0.00000000000E+00  0.00000000000E+00  0.37410946820E+02  0.37410946820E+02  0.00000000000E+00 0. -1.
         -1   -1    0    0    0  501 -0.00000000000E+00 -0.00000000000E+00 -0.42030117655E+03  0.42030117655E+03  0.00000000000E+00 0.  1.
          5    1    1    2  502    0  0.15644103501E+02  0.44329637550E+01  0.20648241547E+02  0.26698858046E+02  0.47000000000E+01 0. -1.
         -5    1    1    2    0  502 -0.27506457435E+02  0.37182901744E+02 -0.15507244013E+03  0.16189109015E+03  0.47000000000E+01 0. -1.
        -11    1    1    2    0    0  0.98281384022E+01 -0.71905355558E+02 -0.16305877745E+03  0.17848007554E+03  0.00000000000E+00 0. -1.
         11    1    1    2    0    0  0.20342155318E+01  0.30289490059E+02 -0.85407253698E+02  0.90642099629E+02  0.00000000000E+00 0.  1.
<mgrwt>
<rscale>  0 0.12437528E+03</rscale>
<asrwt>0</asrwt>
<pdfrwt beam="1">  1        1 0.57555300E-02 0.13227359E+03</pdfrwt>
<pdfrwt beam="2">  1       -1 0.64661723E-01 0.13227359E+03</pdfrwt>
<totfact> 0.33016742E+03</totfact>
</mgrwt>
</event>
<event>
 6    1  0.4705246E-006  0.1293598E+03  0.7546771E-02  0.1242822E+00
          2   -1    0    0  501    0  0.00000000000E+00  0.00000000000E+00  0.23212619526E+04  0.23212619526E+04  0.00000000000E+00 0.  1.
         -2   -1    0    0    0  501 -0.00000000000E+00 -0.00000000000E+00 -0.80644045872E+01  0.80644045872E+01  0.00000000000E+00 0. -1.
          5    1    1    2  502    0 -0.67090570191E+02  0.25930230612E+02  0.11069268727E+04  0.11092712531E+04  0.47000000000E+01 0. -1.
         -5    1    1    2    0  502  0.56721111942E+02  0.57006839016E+01  0.81861561718E+03  0.82061160181E+03  0.47000000000E+01 0. -1.
        -11    1    1    2    0    0  0.23660950897E+02  0.25835402152E+02  0.10468322156E+03  0.11038969824E+03  0.00000000000E+00 0. -1.
         11    1    1    2    0    0 -0.13291492647E+02 -0.57466316666E+02  0.28297183657E+03  0.28905380402E+03  0.00000000000E+00 0.  1.
<mgrwt>
<rscale>  0 0.12016698E+03</rscale>
<asrwt>0</asrwt>
<pdfrwt beam="1">  1        2 0.35711669E+00 0.12935978E+03</pdfrwt>
<pdfrwt beam="2">  1       -2 0.12406795E-02 0.12935978E+03</pdfrwt>
<totfact> 0.77352482E+03</totfact>
</mgrwt>
</event>
<event>
 6    1  0.4705246E-006  0.1457715E+03  0.7546771E-02  0.1215327E+00
          1   -1    0    0  501    0  0.00000000000E+00  0.00000000000E+00  0.46982606586E+04  0.46982606586E+04  0.00000000000E+00 0.  1.
         -1   -1    0    0    0  501 -0.00000000000E+00 -0.00000000000E+00 -0.17014518463E+02  0.17014518463E+02  0.00000000000E+00 0. -1.
          5    1    1    2  502    0  0.14306016836E+02 -0.32093295485E+02  0.11577354547E+04  0.11582780818E+04  0.47000000000E+01 0. -1.
         -5    1    1    2    0  502 -0.44515453895E+02  0.10073275241E+03  0.33161153171E+04  0.33179468952E+04  0.47000000000E+01 0. -1.
        -11    1    1    2    0    0  0.50354990914E+02 -0.71201684741E+02  0.11432386576E+03  0.14378891230E+03  0.00000000000E+00 0. -1.
         11    1    1    2    0    0 -0.20145553856E+02  0.25622278210E+01  0.93071502562E+02  0.95261287734E+02  0.00000000000E+00 0.  1.
<mgrwt>
<rscale>  0 0.13852572E+03</rscale>
<asrwt>0</asrwt>
<pdfrwt beam="1">  1        1 0.72280830E+00 0.14577145E+03</pdfrwt>
<pdfrwt beam="2">  1       -1 0.26176220E-02 0.14577145E+03</pdfrwt>
<totfact> 0.13932658E+01</totfact>
</mgrwt>
</event>
<event>
 6    1  0.4705246E-006  0.1592344E+03  0.7546771E-02  0.1197391E+00
         -1   -1    0    0    0  501 -0.00000000000E+00  0.00000000000E+00  0.52377575769E+02  0.52377575769E+02  0.00000000000E+00 0.  1.
          1   -1    0    0  501    0  0.00000000000E+00 -0.00000000000E+00 -0.42067878447E+03  0.42067878447E+03  0.00000000000E+00 0. -1.
          5    1    1    2  502    0  0.16211822362E+02  0.68849809028E+02 -0.19113149328E+03  0.20385400931E+03  0.47000000000E+01 0. -1.
         -5    1    1    2    0  502  0.65634934609E+02 -0.13785570853E+02 -0.44821066014E+02  0.80802255931E+02  0.47000000000E+01 0. -1.
        -11    1    1    2    0    0  0.12227639592E+02 -0.36080435259E+02 -0.36267545812E+02  0.52598933998E+02  0.00000000000E+00 0.  1.
         11    1    1    2    0    0 -0.94074396563E+02 -0.18983802916E+02 -0.96081103596E+02  0.13580116100E+03  0.00000000000E+00 0. -1.
<mgrwt>
<rscale>  0 0.15253572E+03</rscale>
<asrwt>0</asrwt>
<pdfrwt beam="2">  1        1 0.64719813E-01 0.15923435E+03</pdfrwt>
<pdfrwt beam="1">  1       -1 0.80580886E-02 0.15923435E+03</pdfrwt>
<totfact> 0.46932615E+03</totfact>
</mgrwt>
</event>
<event>
 6    1  0.4705246E-006  0.2326950E+03  0.7546771E-02  0.1127678E+00
          2   -1    0    0  501    0  0.00000000000E+00  0.00000000000E+00  0.11491420156E+04  0.11491420156E+04  0.00000000000E+00 0. -1.
         -2   -1    0    0    0  501 -0.00000000000E+00 -0.00000000000E+00 -0.12786399710E+03  0.12786399710E+03  0.00000000000E+00 0.  1.
          5    1    1    2  502    0  0.86357583153E+02 -0.78784205953E+01  0.19354752423E+03  0.21213777555E+03  0.47000000000E+01 0.  1.
         -5    1    1    2    0  502  0.10559883595E+03 -0.33039765050E+02  0.84073418505E+03  0.84799693403E+03  0.47000000000E+01 0.  1.
        -11    1    1    2    0    0 -0.76527516782E+02  0.17967311465E+02  0.39532340127E+02  0.87989152866E+02  0.00000000000E+00 0. -1.
         11    1    1    2    0    0 -0.11542890232E+03  0.22950874181E+02 -0.52536030880E+02  0.12888215027E+03  0.00000000000E+00 0.  1.
<mgrwt>
<rscale>  0 0.22853106E+03</rscale>
<asrwt>0</asrwt>
<pdfrwt beam="1">  1        2 0.17679107E+00 0.23269497E+03</pdfrwt>
<pdfrwt beam="2">  1       -2 0.19671385E-01 0.23269497E+03</pdfrwt>
<totfact> 0.46695609E+02</totfact>
</mgrwt>
</event>
<event>
 6    1  0.4705246E-006  0.3108279E+03  0.7546771E-02  0.1079950E+00
          2   -1    0    0  501    0  0.00000000000E+00  0.00000000000E+00  0.97599340044E+03  0.97599340044E+03  0.00000000000E+00 0. -1.
         -2   -1    0    0    0  501 -0.00000000000E+00 -0.00000000000E+00 -0.24747604533E+02  0.24747604533E+02  0.00000000000E+00 0.  1.
          5    1    1    2  502    0  0.41810258349E+02 -0.12284326869E+01  0.81464230093E+02  0.91695787988E+02  0.47000000000E+01 0. -1.
         -5    1    1    2    0  502 -0.33041144017E+02 -0.10433460244E+03  0.54044730755E+03  0.55143703965E+03  0.47000000000E+01 0. -1.
        -11    1    1    2    0    0 -0.19915348571E+02  0.51585028613E+02  0.55730753682E+02  0.78508300145E+02  0.00000000000E+00 0.  1.
         11    1    1    2    0    0  0.11146234239E+02  0.53978006518E+02  0.27360350458E+03  0.27909987718E+03  0.00000000000E+00 0. -1.
<mgrwt>
<rscale>  0 0.31082792E+03</rscale>
<asrwt>0</asrwt>
<pdfrwt beam="1">  1        2 0.15015280E+00 0.31082792E+03</pdfrwt>
<pdfrwt beam="2">  1       -2 0.38073245E-02 0.31082792E+03</pdfrwt>
<totfact> 0.80613425E+03</totfact>
</mgrwt>
</event>
<event>
 6    1  0.4705246E-006  0.1409412E+03  0.7546771E-02  0.1222704E+00
          4   -1    0    0  501    0  0.00000000000E+00  0.00000000000E+00  0.49155824001E+02  0.49155824001E+02  0.00000000000E+00 0.  1.
         -4   -1    0    0    0  501 -0.00000000000E+00 -0.00000000000E+00 -0.35001788659E+03  0.35001788659E+03  0.00000000000E+00 0. -1.
          5    1    1    2  502    0  0.24235844500E+02 -0.87227476019E+02 -0.80254888445E+02  0.12107413370E+03  0.47000000000E+01 0. -1.
         -5    1    1    2    0  502 -0.43010378784E+02  0.24957799285E+02 -0.34977842631E+02  0.60978060837E+02  0.47000000000E+01 0. -1.
        -11    1    1    2    0    0 -0.17998604904E+02 -0.83940954358E+01 -0.62015194006E+01  0.20805515124E+02  0.00000000000E+00 0.  1.
         11    1    1    2    0    0  0.36773139188E+02  0.70663772170E+02 -0.17942781211E+03  0.19631600093E+03  0.00000000000E+00 0. -1.
<mgrwt>
<rscale>  0 0.13325495E+03</rscale>
<asrwt>0</asrwt>
<pdfrwt beam="1">  1        4 0.75624345E-02 0.14094119E+03</pdfrwt>
<pdfrwt beam="2">  1       -4 0.53848905E-01 0.14094119E+03</pdfrwt>
<totfact> 0.67353919E+02</totfact>
</mgrwt>
</event>
<event>
 6    1  0.4705246E-006  0.3400462E+03  0.7546771E-02  0.1067943E+00
         -2   -1    0    0    0  501 -0.00000000000E+00  0.00000000000E+00  0.25025762873E+03  0.25025762873E+03  0.00000000000E+00 0.  1.
          2   -1    0    0  501    0  0.00000000000E+00 -0.00000000000E+00 -0.49069421681E+03  0.49069421681E+03  0.00000000000E+00 0. -1.
          5    1    1    2  502    0 -0.10606411684E+03  0.98224435951E+02 -0.14189562809E+03  0.20261810376E+03  0.47000000000E+01 0. -1.
         -5    1    1    2    0  502 -0.18754991920E+03  0.19238314160E+02 -0.89956316533E+02  0.20894811272E+03  0.47000000000E+01 0. -1.
        -11    1    1    2    0    0  0.16368016085E+03 -0.16230007651E+02 -0.78357018769E+01  0.16466938522E+03  0.00000000000E+00 0. -1.
         11    1    1    2    0    0  0.12993387519E+03 -0.10123274246E+03 -0.74894158322E+00  0.16471624383E+03  0.00000000000E+00 0.  1.
<mgrwt>
<rscale>  0 0.33732050E+03</rscale>
<asrwt>0</asrwt>
<pdfrwt beam="2">  1        2 0.75491417E-01 0.34004621E+03</pdfrwt>
<pdfrwt beam="1">  1       -2 0.38501174E-01 0.34004621E+03</pdfrwt>
<totfact> 0.40900025E+02</totfact>
</mgrwt>
</event>
<event>
 6    1  0.4705246E-006  0.1635924E+03  0.7546771E-02  0.1191753E+00
         -3   -1    0    0    0  501 -0.00000000000E+00  0.00000000000E+00  0.14981644281E+03  0.14981644281E+03  0.00000000000E+00 0.  1.
          3   -1    0    0  501    0  0.00000000000E+00 -0.00000000000E+00 -0.17141121225E+03  0.17141121225E+03  0.00000000000E+00 0. -1.
          5    1    1    2  502    0 -0.82254217451E+02 -0.44693322867E+02 -0.61186588200E+02  0.11193363200E+03  0.47000000000E+01 0.  1.
         -5    1    1    2    0  502  0.37425447918E+02 -0.50894340061E+02 -0.18249994061E+01  0.63374431949E+02  0.47000000000E+01 0.  1.
        -11    1    1    2    0    0  0.45236541142E+02  0.91477233862E+01 -0.72533721226E+01  0.46718699734E+02  0.00000000000E+00 0. -1.
         11    1    1    2    0    0 -0.40777160915E+00  0.86439939541E+02  0.48670190287E+02  0.99200891368E+02  0.00000000000E+00 0.  1.
<mgrwt>
<rscale>  0 0.15732256E+03</rscale>
<asrwt>0</asrwt>
<pdfrwt beam="2">  1        3 0.26370956E-01 0.16359235E+03</pdfrwt>
<pdfrwt beam="1">  1       -3 0.23048684E-01 0.16359235E+03</pdfrwt>
<totfact> 0.56432969E+02</totfact>
</mgrwt>
</event>
<event>
 6    1  0.4705246E-006  0.1512832E+03  0.7546771E-02  0.1207825E+00
          2   -1    0    0  501    0  0.00000000000E+00  0.00000000000E+00  0.84282272630E+03  0.84282272630E+03  0.00000000000E+00 0. -1.
         -2   -1    0    0    0  501 -0.00000000000E+00 -0.00000000000E+00 -0.29928408794E+02  0.29928408794E+02  0.00000000000E+00 0.  1.
          5    1    1    2  502    0 -0.13817192259E+02  0.76677009322E+02  0.60018659380E+03  0.60524070908E+03  0.47000000000E+01 0.  1.
         -5    1    1    2    0  502 -0.36302617857E+02 -0.78163266747E+01  0.50844995707E+02  0.63136982937E+02  0.47000000000E+01 0.  1.
        -11    1    1    2    0    0 -0.40031056631E+01 -0.42370204150E+02  0.14161354546E+02  0.44853127174E+02  0.00000000000E+00 0.  1.
         11    1    1    2    0    0  0.54122915779E+02 -0.26490478497E+02  0.14770137346E+03  0.15952031590E+03  0.00000000000E+00 0. -1.
<mgrwt>
<rscale>  0 0.14417020E+03</rscale>
<asrwt>0</asrwt>
<pdfrwt beam="1">  1        2 0.12966502E+00 0.15128321E+03</pdfrwt>
<pdfrwt beam="2">  1       -2 0.46043712E-02 0.15128321E+03</pdfrwt>
<totfact> 0.71540823E+03</totfact>
</mgrwt>
</event>
<event>
 6    1  0.4705246E-006  0.1729571E+03  0.7546771E-02  0.1180005E+00
         -4   -1    0    0    0  501 -0.00000000000E+00  0.00000000000E+00  0.83354146106E+02  0.83354146106E+02  0.00000000000E+00 0.  1.
          4   -1    0    0  501    0  0.00000000000E+00 -0.00000000000E+00 -0.33245010023E+03  0.33245010023E+03  0.00000000000E+00 0. -1.
          5    1    1    2  502    0  0.58889943514E+02  0.53055573644E+02 -0.17137490754E+03  0.18887659536E+03  0.47000000000E+01 0. -1.
         -5    1    1    2    0  502  0.53223182638E+02 -0.11587319447E+02 -0.95124878623E-01  0.54672407948E+02  0.47000000000E+01 0. -1.
        -11    1    1    2    0    0 -0.38406480439E+02 -0.14718987135E+02  0.21062130308E+02  0.46209519097E+02  0.00000000000E+00 0.  1.
         11    1    1    2    0    0 -0.73706645712E+02 -0.26749267062E+02 -0.98688052015E+02  0.12604572393E+03  0.00000000000E+00 0. -1.
<mgrwt>
<rscale>  0 0.16794753E+03</rscale>
<asrwt>0</asrwt>
<pdfrwt beam="2">  1        4 0.51146169E-01 0.17295706E+03</pdfrwt>
<pdfrwt beam="1">  1       -4 0.12823715E-01 0.17295706E+03</pdfrwt>
<totfact> 0.31868994E+02</totfact>
</mgrwt>
</event>
<event>
 6    1  0.4705246E-006  0.1503322E+03  0.7546771E-02  0.1209293E+00
          4   -1    0    0  501    0  0.00000000000E+00  0.00000000000E+00  0.60760176404E+02  0.60760176404E+02  0.00000000000E+00 0. -1.
         -4   -1    0    0    0  501 -0.00000000000E+00 -0.00000000000E+00 -0.35656899150E+03  0.35656899150E+03  0.00000000000E+00 0.  1.
          5    1    1    2  502    0  0.66518001707E+02  0.10125387530E+02 -0.74386532088E+02  0.10041222127E+03  0.47000000000E+01 0.  1.
         -5    1    1    2    0  502 -0.29291344662E+02  0.64592782479E+02 -0.94172115634E+01  0.71700657557E+02  0.47000000000E+01 0.  1.
        -11    1    1    2    0    0 -0.55361437718E+02 -0.85612693473E+02 -0.17138472015E+03  0.19941701124E+03  0.00000000000E+00 0. -1.
         11    1    1    2    0    0  0.18134780672E+02  0.10894523463E+02 -0.40620351292E+02  0.45799277840E+02  0.00000000000E+00 0.  1.
<mgrwt>
<rscale>  0 0.14304262E+03</rscale>
<asrwt>0</asrwt>
<pdfrwt beam="1">  1        4 0.93477194E-02 0.15033222E+03</pdfrwt>
<pdfrwt beam="2">  1       -4 0.54856768E-01 0.15033222E+03</pdfrwt>
<totfact> 0.46110718E+02</totfact>
</mgrwt>
</event>
<event>
 6    1  0.4705246E-006  0.1871065E+03  0.7546771E-02  0.1166231E+00
          4   -1    0    0  501    0  0.00000000000E+00  0.00000000000E+00  0.35564378127E+02  0.35564378127E+02  0.00000000000E+00 0. -1.
         -4   -1    0    0    0  501 -0.00000000000E+00 -0.00000000000E+00 -0.10105903963E+04  0.10105903963E+04  0.00000000000E+00 0.  1.
          5    1    1    2  502    0  0.16637683281E+02 -0.45102710278E+02 -0.25222308276E+03  0.25680662074E+03  0.47000000000E+01 0. -1.
         -5    1    1    2    0  502  0.54278263668E+02 -0.74716650126E+02 -0.70679531480E+02  0.11638897664E+03  0.47000000000E+01 0. -1.
        -11    1    1    2    0    0 -0.90097159364E+02  0.81843841509E+02 -0.43511573232E+03  0.45182033269E+03  0.00000000000E+00 0.  1.
         11    1    1    2    0    0  0.19181212414E+02  0.37975518895E+02 -0.21700767160E+03  0.22113884434E+03  0.00000000000E+00 0. -1.
<mgrwt>
<rscale>  0 0.18163448E+03</rscale>
<asrwt>0</asrwt>
<pdfrwt beam="1">  1        4 0.54714436E-02 0.18710654E+03</pdfrwt>
<pdfrwt beam="2">  1       -4 0.15547542E+00 0.18710654E+03</pdfrwt>
<totfact> 0.10535623E+02</totfact>
</mgrwt>
</event>
<event>
 6    1  0.4705246E-006  0.1399062E+03  0.7546771E-02  0.1230209E+00
          2   -1    0    0  501    0  0.00000000000E+00  0.00000000000E+00  0.33409926510E+03  0.33409926510E+03  0.00000000000E+00 0. -1.
         -2   -1    0    0    0  501 -0.00000000000E+00 -0.00000000000E+00 -0.45171350941E+02  0.45171350941E+02  0.00000000000E+00 0.  1.
          5    1    1    2  502    0  0.20849692347E+02 -0.59873354383E+02  0.15204894753E+03  0.16480443162E+03  0.47000000000E+01 0. -1.
         -5    1    1    2    0  502 -0.51123271141E+02  0.41972187666E+02  0.61168369189E+02  0.90215923090E+02  0.47000000000E+01 0.  1.
        -11    1    1    2    0    0 -0.30249001925E+02  0.16077489803E+02  0.11850982911E+02  0.36248221912E+02  0.00000000000E+00 0.  1.
         11    1    1    2    0    0  0.60522580719E+02  0.18236769131E+01  0.63859614529E+02  0.88002039420E+02  0.00000000000E+00 0. -1.
<mgrwt>
<rscale>  0 0.12816164E+03</rscale>
<asrwt>0</asrwt>
<pdfrwt beam="1">  1        2 0.51399885E-01 0.13990624E+03</pdfrwt>
<pdfrwt beam="2">  1       -2 0.69494388E-02 0.13990624E+03</pdfrwt>
<totfact> 0.10864096E+04</totfact>
</mgrwt>
</event>
<event>
 6    1  0.4705246E-006  0.1357736E+03  0.7546771E-02  0.1228921E+00
          2   -1    0    0  501    0  0.00000000000E+00  0.00000000000E+00  0.36975584430E+03  0.36975584430E+03  0.00000000000E+00 0. -1.
         -2   -1    0    0    0  501 -0.00000000000E+00 -0.00000000000E+00 -0.47253288053E+02  0.47253288053E+02  0.00000000000E+00 0.  1.
          5    1    1    2  502    0 -0.72976755355E+02  0.61475281891E+01  0.25338065339E+03  0.26379394314E+03  0.47000000000E+01 0. -1.
         -5    1    1    2    0  502  0.20454586325E+02  0.93627020327E+00 -0.28118880609E+01  0.21195834923E+02  0.47000000000E+01 0. -1.
        -11    1    1    2    0    0  0.69534017026E+02 -0.34452155680E+02  0.58148075930E+02  0.96969733882E+02  0.00000000000E+00 0.  1.
         11    1    1    2    0    0 -0.17011847996E+02  0.27368357288E+02  0.13785714985E+02  0.35049620405E+02  0.00000000000E+00 0. -1.
<mgrwt>
<rscale>  0 0.12901762E+03</rscale>
<asrwt>0</asrwt>
<pdfrwt beam="1">  1        2 0.56885513E-01 0.13577359E+03</pdfrwt>
<pdfrwt beam="2">  1       -2 0.72697369E-02 0.13577359E+03</pdfrwt>
<totfact> 0.90832789E+03</totfact>
</mgrwt>
</event>
<event>
 6    1  0.4705246E-006  0.1748502E+03  0.7546771E-02  0.1225646E+00
         -2   -1    0    0    0  501 -0.00000000000E+00  0.00000000000E+00  0.39689821680E+02  0.39689821680E+02  0.00000000000E+00 0.  1.
          2   -1    0    0  501    0  0.00000000000E+00 -0.00000000000E+00 -0.36974423557E+03  0.36974423557E+03  0.00000000000E+00 0. -1.
          5    1    1    2  502    0 -0.13084056741E+01 -0.92634135641E+01 -0.30257109468E+03  0.30275217604E+03  0.47000000000E+01 0. -1.
         -5    1    1    2    0  502  0.25084442600E+02  0.33503907879E+02  0.49739794839E+01  0.42409569387E+02  0.47000000000E+01 0.  1.
        -11    1    1    2    0    0 -0.27117360291E+02  0.29680138737E+01 -0.21568992744E+02  0.34776166890E+02  0.00000000000E+00 0. -1.
         11    1    1    2    0    0  0.33413233660E+01 -0.27208508189E+02 -0.10888305943E+02  0.29496144935E+02  0.00000000000E+00 0.  1.
<mgrwt>
<rscale>  0 0.13122710E+03</rscale>
<asrwt>0</asrwt>
<pdfrwt beam="2">  1        2 0.56883728E-01 0.17485019E+03</pdfrwt>
<pdfrwt beam="1">  1       -2 0.61061264E-02 0.17485019E+03</pdfrwt>
<totfact> 0.12076283E+04</totfact>
</mgrwt>
</event>
<event>
 6    1  0.4705246E-006  0.1392810E+03  0.7546771E-02  0.1222104E+00
          2   -1    0    0  501    0  0.00000000000E+00  0.00000000000E+00  0.44514735717E+03  0.44514735717E+03  0.00000000000E+00 0.  1.
         -2   -1    0    0    0  501 -0.00000000000E+00 -0.00000000000E+00 -0.38152944293E+02  0.38152944293E+02  0.00000000000E+00 0. -1.
          5    1    1    2  502    0 -0.24759548128E+02  0.38360877300E+01 -0.14444705166E+02  0.29300005118E+02  0.47000000000E+01 0.  1.
         -5    1    1    2    0  502 -0.35745118562E+02  0.67802712332E+01  0.19664970989E+03  0.20004220549E+03  0.47000000000E+01 0.  1.
        -11    1    1    2    0    0  0.60982803431E+01  0.16710194649E+02 -0.31172836995E+01  0.18059265932E+02  0.00000000000E+00 0.  1.
         11    1    1    2    0    0  0.54406386347E+02 -0.27326553612E+02  0.22790669185E+03  0.23589882492E+03  0.00000000000E+00 0. -1.
<mgrwt>
<rscale>  0 0.13367393E+03</rscale>
<asrwt>0</asrwt>
<pdfrwt beam="1">  1        2 0.68484205E-01 0.13928096E+03</pdfrwt>
<pdfrwt beam="2">  1       -2 0.58696840E-02 0.13928096E+03</pdfrwt>
<totfact> 0.10335346E+04</totfact>
</mgrwt>
</event>
<event>
 6    1  0.4705246E-006  0.1452910E+03  0.7546771E-02  0.1216596E+00
          1   -1    0    0  501    0  0.00000000000E+00  0.00000000000E+00  0.86645256079E+03  0.86645256079E+03  0.00000000000E+00 0. -1.
         -1   -1    0    0    0  501 -0.00000000000E+00 -0.00000000000E+00 -0.46620610229E+02  0.46620610229E+02  0.00000000000E+00 0.  1.
          5    1    1    2  502    0 -0.91164256633E+01 -0.33912531537E+02  0.27515083645E+03  0.27742249694E+03  0.47000000000E+01 0. -1.
         -5    1    1    2    0  502  0.59298055850E+02  0.88369675757E+02  0.49886021964E+03  0.51010691797E+03  0.47000000000E+01 0. -1.
        -11    1    1    2    0    0 -0.41713722081E+02 -0.30656372169E+02 -0.19647603150E+02  0.55370353746E+02  0.00000000000E+00 0.  1.
         11    1    1    2    0    0 -0.84679081057E+01 -0.23800772051E+02  0.65468497625E+02  0.70173402363E+02  0.00000000000E+00 0. -1.
<mgrwt>
<rscale>  0 0.13759954E+03</rscale>
<asrwt>0</asrwt>
<pdfrwt beam="1">  1        1 0.13330038E+00 0.14529096E+03</pdfrwt>
<pdfrwt beam="2">  1       -1 0.71724022E-02 0.14529096E+03</pdfrwt>
<totfact> 0.20481235E+03</totfact>
</mgrwt>
</event>
<event>
 6    1  0.4705246E-006  0.1354826E+03  0.7546771E-02  0.1234215E+00
         -1   -1    0    0    0  501 -0.00000000000E+00  0.00000000000E+00  0.21435772760E+03  0.21435772760E+03  0.00000000000E+00 0.  1.
          1   -1    0    0  501    0  0.00000000000E+00 -0.00000000000E+00 -0.70466392076E+02  0.70466392076E+02  0.00000000000E+00 0. -1.
          5    1    1    2  502    0  0.75409001893E+02 -0.63230992922E+02  0.15335969579E+02  0.99709367641E+02  0.47000000000E+01 0. -1.
         -5    1    1    2    0  502 -0.15158574145E+02  0.28828964599E+02  0.25995753286E+02  0.41937581700E+02  0.47000000000E+01 0.  1.
        -11    1    1    2    0    0 -0.30549819269E+02  0.40085968942E+02  0.18240159479E+02  0.53599251685E+02  0.00000000000E+00 0. -1.
         11    1    1    2    0    0 -0.29700608478E+02 -0.56839406188E+01  0.84319453180E+02  0.89577918649E+02  0.00000000000E+00 0.  1.
<mgrwt>
<rscale>  0 0.12554827E+03</rscale>
<asrwt>0</asrwt>
<pdfrwt beam="2">  1        1 0.10840984E-01 0.13548264E+03</pdfrwt>
<pdfrwt beam="1">  1       -1 0.32978112E-01 0.13548264E+03</pdfrwt>
<totfact> 0.47656227E+03</totfact>
</mgrwt>
</event>
<event>
 6    1  0.4705246E-006  0.2080928E+03  0.7546771E-02  0.1159755E+00
         -2   -1    0    0    0  501 -0.00000000000E+00  0.00000000000E+00  0.41770797291E+02  0.41770797291E+02  0.00000000000E+00 0.  1.
          2   -1    0    0  501    0  0.00000000000E+00 -0.00000000000E+00 -0.81357531873E+03  0.81357531873E+03  0.00000000000E+00 0. -1.
          5    1    1    2  502    0 -0.11503418629E+03  0.17986599377E+01 -0.56245396090E+03  0.57411901843E+03  0.47000000000E+01 0. -1.
         -5    1    1    2    0  502  0.14650981674E+02 -0.40915337564E+02 -0.27952045404E+02  0.51885671955E+02  0.47000000000E+01 0.  1.
        -11    1    1    2    0    0 -0.30986581672E+01 -0.19522261507E+02 -0.39633069503E+02  0.44288831268E+02  0.00000000000E+00 0.  1.
         11    1    1    2    0    0  0.10348186278E+03  0.58638939133E+02 -0.14176544563E+03  0.18505259436E+03  0.00000000000E+00 0. -1.
<mgrwt>
<rscale>  0 0.18857288E+03</rscale>
<asrwt>0</asrwt>
<pdfrwt beam="2">  1        2 0.12516543E+00 0.20809282E+03</pdfrwt>
<pdfrwt beam="1">  1       -2 0.64262765E-02 0.20809282E+03</pdfrwt>
<totfact> 0.45693619E+03</totfact>
</mgrwt>
</event>
<event>
 6    1  0.4705246E-006  0.1441923E+03  0.7546771E-02  0.1212479E+00
          1   -1    0    0  501    0  0.00000000000E+00  0.00000000000E+00  0.46126755890E+03  0.46126755890E+03  0.00000000000E+00 0. -1.
         -1   -1    0    0    0  501 -0.00000000000E+00 -0.00000000000E+00 -0.41016326796E+02  0.41016326796E+02  0.00000000000E+00 0.  1.
          5    1    1    2  502    0 -0.16284109397E+01 -0.25676191500E+02  0.25587756137E+02  0.36588820646E+02  0.47000000000E+01 0. -1.
         -5    1    1    2    0  502  0.25462116243E+02  0.11376033356E+03  0.18100298371E+03  0.21534600755E+03  0.47000000000E+01 0.  1.
        -11    1    1    2    0    0  0.33866433426E+01  0.18129385412E+02  0.16479159465E+02  0.24732704365E+02  0.00000000000E+00 0.  1.
         11    1    1    2    0    0 -0.27220348646E+02 -0.10621352748E+03  0.19718133279E+03  0.22561635313E+03  0.00000000000E+00 0. -1.
<mgrwt>
<rscale>  0 0.14063350E+03</rscale>
<asrwt>0</asrwt>
<pdfrwt beam="1">  1        1 0.70964236E-01 0.14419232E+03</pdfrwt>
<pdfrwt beam="2">  1       -1 0.63102044E-02 0.14419232E+03</pdfrwt>
<totfact> 0.59940702E+03</totfact>
</mgrwt>
</event>
<event>
 6    1  0.4705246E-006  0.1564719E+03  0.7546771E-02  0.1201423E+00
         -2   -1    0    0    0  501 -0.00000000000E+00  0.00000000000E+00  0.34617830007E+03  0.34617830007E+03  0.00000000000E+00 0.  1.
          2   -1    0    0  501    0  0.00000000000E+00 -0.00000000000E+00 -0.60119092801E+02  0.60119092801E+02  0.00000000000E+00 0. -1.
          5    1    1    2  502    0  0.83497957945E+02 -0.78821759334E+02  0.10073602291E+03  0.15282216801E+03  0.47000000000E+01 0. -1.
         -5    1    1    2    0  502 -0.27664922683E+01  0.30430556194E+02  0.82668717522E+02  0.88260291674E+02  0.47000000000E+01 0. -1.
        -11    1    1    2    0    0 -0.91721079322E+02  0.14536920272E+02  0.83022271198E+02  0.12456635163E+03  0.00000000000E+00 0. -1.
         11    1    1    2    0    0  0.10989613645E+02  0.33854282868E+02  0.19632195641E+02  0.40648581553E+02  0.00000000000E+00 0.  1.
<mgrwt>
<rscale>  0 0.14922966E+03</rscale>
<asrwt>0</asrwt>
<pdfrwt beam="2">  1        2 0.92490914E-02 0.15647189E+03</pdfrwt>
<pdfrwt beam="1">  1       -2 0.53258199E-01 0.15647189E+03</pdfrwt>
<totfact> 0.23204474E+03</totfact>
</mgrwt>
</event>
<event>
 6    1  0.4705246E-006  0.1297168E+03  0.7546771E-02  0.1241616E+00
          1   -1    0    0  501    0  0.00000000000E+00  0.00000000000E+00  0.15349230714E+03  0.15349230714E+03  0.00000000000E+00 0. -1.
         -1   -1    0    0    0  501 -0.00000000000E+00 -0.00000000000E+00 -0.14657283048E+03  0.14657283048E+03  0.00000000000E+00 0.  1.
          5    1    1    2  502    0 -0.20414229632E+02 -0.20550792084E+02 -0.22590911864E+02  0.37033972587E+02  0.47000000000E+01 0.  1.
         -5    1    1    2    0  502 -0.13596705209E+02  0.27348517659E+02  0.12350883433E+03  0.12731588262E+03  0.47000000000E+01 0.  1.
        -11    1    1    2    0    0  0.21918179151E+02 -0.48466581780E+02 -0.62660348570E+02  0.82193280806E+02  0.00000000000E+00 0.  1.
         11    1    1    2    0    0  0.12092755690E+02  0.41668856205E+02 -0.31338097236E+02  0.53522001606E+02  0.00000000000E+00 0. -1.
<mgrwt>
<rscale>  0 0.12090227E+03</rscale>
<asrwt>0</asrwt>
<pdfrwt beam="1">  1        1 0.23614201E-01 0.12971680E+03</pdfrwt>
<pdfrwt beam="2">  1       -1 0.22549666E-01 0.12971680E+03</pdfrwt>
<totfact> 0.32768329E+03</totfact>
</mgrwt>
</event>
<event>
 6    1  0.4705246E-006  0.1265012E+03  0.7546771E-02  0.1247958E+00
         -1   -1    0    0    0  501 -0.00000000000E+00  0.00000000000E+00  0.13691185403E+03  0.13691185403E+03  0.00000000000E+00 0.  1.
          1   -1    0    0  501    0  0.00000000000E+00 -0.00000000000E+00 -0.87902448402E+02  0.87902448402E+02  0.00000000000E+00 0. -1.
          5    1    1    2  502    0 -0.32575240357E+02 -0.49545380836E+02 -0.85229128057E+01  0.60088443890E+02  0.47000000000E+01 0. -1.
         -5    1    1    2    0  502  0.14977706552E+02  0.57411587654E+02  0.35352651587E+02  0.69226599402E+02  0.47000000000E+01 0. -1.
        -11    1    1    2    0    0  0.41197646327E+02 -0.14114245374E+01 -0.20702264781E+02  0.46128320468E+02  0.00000000000E+00 0. -1.
         11    1    1    2    0    0 -0.23600112522E+02 -0.64547822807E+01  0.42881931632E+02  0.49370938677E+02  0.00000000000E+00 0.  1.
<mgrwt>
<rscale>  0 0.11710104E+03</rscale>
<asrwt>0</asrwt>
<pdfrwt beam="2">  1        1 0.13523454E-01 0.12650117E+03</pdfrwt>
<pdfrwt beam="1">  1       -1 0.21063362E-01 0.12650117E+03</pdfrwt>
<totfact> 0.74479172E+03</totfact>
</mgrwt>
</event>
<event>
 6    1  0.4705246E-006  0.1424862E+03  0.7546771E-02  0.1220911E+00
         -3   -1    0    0    0  501 -0.00000000000E+00  0.00000000000E+00  0.34844605358E+02  0.34844605358E+02  0.00000000000E+00 0.  1.
          3   -1    0    0  501    0  0.00000000000E+00 -0.00000000000E+00 -0.47692126223E+03  0.47692126223E+03  0.00000000000E+00 0. -1.
          5    1    1    2  502    0  0.32806659024E+02  0.49799569273E+02 -0.41342678389E+02  0.72715755050E+02  0.47000000000E+01 0. -1.
         -5    1    1    2    0  502 -0.31996636277E+02  0.18691253300E+02 -0.23753157297E+03  0.24045058919E+03  0.47000000000E+01 0. -1.
        -11    1    1    2    0    0 -0.81399628567E+01  0.17719539302E+02 -0.83441849157E+01  0.21210056348E+02  0.00000000000E+00 0.  1.
         11    1    1    2    0    0  0.73299401104E+01 -0.86210361875E+02 -0.15485822059E+03  0.17738946700E+03  0.00000000000E+00 0. -1.
<mgrwt>
<rscale>  0 0.13451150E+03</rscale>
<asrwt>0</asrwt>
<pdfrwt beam="2">  1        3 0.73372493E-01 0.14248618E+03</pdfrwt>
<pdfrwt beam="1">  1       -3 0.53607091E-02 0.14248618E+03</pdfrwt>
<totfact> 0.85484090E+02</totfact>
</mgrwt>
</event>
<event>
 6    1  0.4705246E-006  0.1387635E+03  0.7546771E-02  0.1228216E+00
         -1   -1    0    0    0  501 -0.00000000000E+00  0.00000000000E+00  0.18783769026E+03  0.18783769026E+03  0.00000000000E+00 0.  1.
          1   -1    0    0  501    0  0.00000000000E+00 -0.00000000000E+00 -0.12203081490E+03  0.12203081490E+03  0.00000000000E+00 0. -1.
          5    1    1    2  502    0  0.34289349530E+02 -0.18507890017E+02 -0.11920825565E+02  0.41018258936E+02  0.47000000000E+01 0. -1.
         -5    1    1    2    0  502 -0.85675127916E+02  0.49971312586E+02 -0.43431829496E+02  0.10837791952E+03  0.47000000000E+01 0. -1.
        -11    1    1    2    0    0  0.66826156310E+02  0.22264667685E+01  0.65470512099E+02  0.93579272683E+02  0.00000000000E+00 0. -1.
         11    1    1    2    0    0 -0.15440377923E+02 -0.33689889338E+02  0.55689018322E+02  0.66893054017E+02  0.00000000000E+00 0.  1.
<mgrwt>
<rscale>  0 0.12948914E+03</rscale>
<asrwt>0</asrwt>
<pdfrwt beam="2">  1        1 0.18773972E-01 0.13876347E+03</pdfrwt>
<pdfrwt beam="1">  1       -1 0.28898106E-01 0.13876347E+03</pdfrwt>
<totfact> 0.29222397E+03</totfact>
</mgrwt>
</event>
<event>
 6    1  0.4705246E-006  0.3962914E+03  0.7546771E-02  0.1045071E+00
         -2   -1    0    0    0  501 -0.00000000000E+00  0.00000000000E+00  0.39280125196E+02  0.39280125196E+02  0.00000000000E+00 0.  1.
          2   -1    0    0  501    0  0.00000000000E+00 -0.00000000000E+00 -0.99953119547E+03  0.99953119547E+03  0.00000000000E+00 0. -1.
          5    1    1    2  502    0  0.44747347370E+02  0.32014424715E+02 -0.93758953099E+02  0.10881213063E+03  0.47000000000E+01 0. -1.
         -5    1    1    2    0  502 -0.57355456540E+02  0.12535828272E+03 -0.47070728442E+03  0.49050156478E+03  0.47000000000E+01 0. -1.
        -11    1    1    2    0    0 -0.36423888821E+02 -0.62114474368E+02 -0.88626963529E+02  0.11419127054E+03  0.00000000000E+00 0.  1.
         11    1    1    2    0    0  0.49031997990E+02 -0.95258233065E+02 -0.30715786922E+03  0.32530635471E+03  0.00000000000E+00 0. -1.
<mgrwt>
<rscale>  0 0.39629136E+03</rscale>
<asrwt>0</asrwt>
<pdfrwt beam="2">  1        2 0.15377405E+00 0.39629136E+03</pdfrwt>
<pdfrwt beam="1">  1       -2 0.60430955E-02 0.39629136E+03</pdfrwt>
<totfact> 0.38622354E+03</totfact>
</mgrwt>
</event>
<event>
 6    1  0.4705246E-006  0.1251880E+03  0.7546771E-02  0.1248564E+00
         -2   -1    0    0    0  501 -0.00000000000E+00  0.00000000000E+00  0.32151021395E+02  0.32151021395E+02  0.00000000000E+00 0.  1.
          2   -1    0    0  501    0  0.00000000000E+00 -0.00000000000E+00 -0.39765310372E+03  0.39765310372E+03  0.00000000000E+00 0. -1.
          5    1    1    2  502    0  0.14636166868E+02 -0.63267183618E+02 -0.15648715233E+03  0.16949121732E+03  0.47000000000E+01 0. -1.
         -5    1    1    2    0  502 -0.33087803092E+02  0.48165714419E+02 -0.10001739460E+03  0.11593234226E+03  0.47000000000E+01 0.  1.
        -11    1    1    2    0    0  0.27046649163E+02  0.48501228293E+02 -0.87834103490E+02  0.10391689041E+03  0.00000000000E+00 0. -1.
         11    1    1    2    0    0 -0.85950129386E+01 -0.33399759094E+02 -0.21163431906E+02  0.40463675130E+02  0.00000000000E+00 0.  1.
<mgrwt>
<rscale>  0 0.11674612E+03</rscale>
<asrwt>0</asrwt>
<pdfrwt beam="2">  1        2 0.61177402E-01 0.12518796E+03</pdfrwt>
<pdfrwt beam="1">  1       -2 0.49463109E-02 0.12518796E+03</pdfrwt>
<totfact> 0.14971558E+04</totfact>
</mgrwt>
</event>
<event>
 6    1  0.4705246E-006  0.1900059E+03  0.7546771E-02  0.1164923E+00
         -2   -1    0    0    0  501 -0.00000000000E+00  0.00000000000E+00  0.62381510200E+02  0.62381510200E+02  0.00000000000E+00 0.  1.
          2   -1    0    0  501    0  0.00000000000E+00 -0.00000000000E+00 -0.50125287041E+03  0.50125287041E+03  0.00000000000E+00 0. -1.
          5    1    1    2  502    0 -0.75493331866E+02  0.87956969699E+02 -0.19673513893E+03  0.22839106061E+03  0.47000000000E+01 0.  1.
         -5    1    1    2    0  502  0.40930767992E+02  0.50911323638E+02 -0.46797507050E+02  0.80494641493E+02  0.47000000000E+01 0.  1.
        -11    1    1    2    0    0  0.18033714427E+02 -0.35389062483E+02 -0.86343781871E+01  0.40646686041E+02  0.00000000000E+00 0.  1.
         11    1    1    2    0    0  0.16528849448E+02 -0.10347923085E+03 -0.18670433604E+03  0.21410199246E+03  0.00000000000E+00 0. -1.
<mgrwt>
<rscale>  0 0.18300787E+03</rscale>
<asrwt>0</asrwt>
<pdfrwt beam="2">  1        2 0.77115827E-01 0.19000586E+03</pdfrwt>
<pdfrwt beam="1">  1       -2 0.95971553E-02 0.19000586E+03</pdfrwt>
<totfact> 0.43189918E+03</totfact>
</mgrwt>
</event>
<event>
 6    1  0.4705246E-006  0.1442012E+03  0.7546771E-02  0.1217936E+00
         -2   -1    0    0    0  501 -0.00000000000E+00  0.00000000000E+00  0.33824293910E+03  0.33824293910E+03  0.00000000000E+00 0.  1.
          2   -1    0    0  501    0  0.00000000000E+00 -0.00000000000E+00 -0.21938273061E+03  0.21938273061E+03  0.00000000000E+00 0. -1.
          5    1    1    2  502    0  0.10604119146E+02  0.30921347137E+02  0.29487398282E+01  0.33156630080E+02  0.47000000000E+01 0.  1.
         -5    1    1    2    0  502  0.60704925840E+02 -0.40104335381E+02 -0.18663368549E+03  0.20036883065E+03  0.47000000000E+01 0.  1.
        -11    1    1    2    0    0 -0.76556275053E+02  0.67015407894E+00  0.30444290846E+03  0.31392164129E+03  0.00000000000E+00 0.  1.
         11    1    1    2    0    0  0.52472300670E+01  0.85128341645E+01 -0.18977543139E+01  0.10178567695E+02  0.00000000000E+00 0. -1.
<mgrwt>
<rscale>  0 0.13663060E+03</rscale>
<asrwt>0</asrwt>
<pdfrwt beam="2">  1        2 0.33751189E-01 0.14420118E+03</pdfrwt>
<pdfrwt beam="1">  1       -2 0.52037375E-01 0.14420118E+03</pdfrwt>
<totfact> 0.54465963E+02</totfact>
</mgrwt>
</event>
<event>
 6    1  0.4705246E-006  0.3363027E+03  0.7546771E-02  0.1068382E+00
         -1   -1    0    0    0  501 -0.00000000000E+00  0.00000000000E+00  0.18434368842E+02  0.18434368842E+02  0.00000000000E+00 0.  1.
          1   -1    0    0  501    0  0.00000000000E+00 -0.00000000000E+00 -0.15338131441E+04  0.15338131441E+04  0.00000000000E+00 0. -1.
          5    1    1    2  502    0 -0.28236475587E+02  0.11899392231E+02 -0.22663683716E+03  0.22874710938E+03  0.47000000000E+01 0. -1.
         -5    1    1    2    0  502  0.10201273863E+03 -0.77907014934E+02 -0.95425296833E+03  0.96285872244E+03  0.47000000000E+01 0. -1.
        -11    1    1    2    0    0  0.44998597232E+00  0.49857705589E+02 -0.20061094268E+03  0.20671415921E+03  0.00000000000E+00 0. -1.
         11    1    1    2    0    0 -0.74226249012E+02  0.16149917114E+02 -0.13387802705E+03  0.15392752188E+03  0.00000000000E+00 0.  1.
<mgrwt>
<rscale>  0 0.33630270E+03</rscale>
<asrwt>0</asrwt>
<pdfrwt beam="2">  1        1 0.23597135E+00 0.33630270E+03</pdfrwt>
<pdfrwt beam="1">  1       -1 0.28360556E-02 0.33630270E+03</pdfrwt>
<totfact> 0.27872328E+03</totfact>
</mgrwt>
</event>
<event>
 6    1  0.4705246E-006  0.2930314E+03  0.7546771E-02  0.1088777E+00
          2   -1    0    0  501    0  0.00000000000E+00  0.00000000000E+00  0.91965427253E+03  0.91965427253E+03  0.00000000000E+00 0. -1.
         -2   -1    0    0    0  501 -0.00000000000E+00 -0.00000000000E+00 -0.23342297042E+02  0.23342297042E+02  0.00000000000E+00 0.  1.
          5    1    1    2  502    0  0.57593334597E+02  0.75652605109E+02  0.22308874335E+03  0.24255099723E+03  0.47000000000E+01 0.  1.
         -5    1    1    2    0  502  0.92091286126E+01 -0.12048533837E+02  0.37659428483E+03  0.37692880041E+03  0.47000000000E+01 0.  1.
        -11    1    1    2    0    0 -0.77642047121E+02 -0.14681733304E+02  0.18249861517E+03  0.19887077541E+03  0.00000000000E+00 0. -1.
         11    1    1    2    0    0  0.10839583912E+02 -0.48922337968E+02  0.11413033214E+03  0.12464599651E+03  0.00000000000E+00 0.  1.
<mgrwt>
<rscale>  0 0.29303135E+03</rscale>
<asrwt>0</asrwt>
<pdfrwt beam="1">  1        2 0.14148524E+00 0.29303135E+03</pdfrwt>
<pdfrwt beam="2">  1       -2 0.35911233E-02 0.29303135E+03</pdfrwt>
<totfact> 0.95392477E+03</totfact>
</mgrwt>
</event>
<event>
 6    1  0.4705246E-006  0.1812353E+03  0.7546771E-02  0.1174296E+00
          2   -1    0    0  501    0  0.00000000000E+00  0.00000000000E+00  0.14445747629E+03  0.14445747629E+03  0.00000000000E+00 0. -1.
         -2   -1    0    0    0  501 -0.00000000000E+00 -0.00000000000E+00 -0.19920290237E+03  0.19920290237E+03  0.00000000000E+00 0.  1.
          5    1    1    2  502    0  0.21220448678E+02  0.19128892217E+02  0.20166781253E+02  0.35284713767E+02  0.47000000000E+01 0. -1.
         -5    1    1    2    0  502 -0.14447418113E+03 -0.96622533244E+01 -0.17825241380E+02  0.14596567194E+03  0.47000000000E+01 0.  1.
        -11    1    1    2    0    0  0.10950331301E+03  0.26015867655E+02 -0.32672248082E+02  0.11719759693E+03  0.00000000000E+00 0. -1.
         11    1    1    2    0    0  0.13750419444E+02 -0.35482506548E+02 -0.24414717875E+02  0.45212396029E+02  0.00000000000E+00 0.  1.
<mgrwt>
<rscale>  0 0.17345068E+03</rscale>
<asrwt>0</asrwt>
<pdfrwt beam="1">  1        2 0.22224227E-01 0.18123526E+03</pdfrwt>
<pdfrwt beam="2">  1       -2 0.30646600E-01 0.18123526E+03</pdfrwt>
<totfact> 0.23729668E+03</totfact>
</mgrwt>
</event>
<event>
 6    1  0.4705246E-006  0.1503721E+03  0.7546771E-02  0.1213138E+00
          1   -1    0    0  501    0  0.00000000000E+00  0.00000000000E+00  0.98824549829E+03  0.98824549829E+03  0.00000000000E+00 0. -1.
         -1   -1    0    0    0  501 -0.00000000000E+00 -0.00000000000E+00 -0.18310031729E+02  0.18310031729E+02  0.00000000000E+00 0.  1.
          5    1    1    2  502    0  0.48749762727E+02 -0.12332247067E+02  0.45183744413E+03  0.45465128351E+03  0.47000000000E+01 0. -1.
         -5    1    1    2    0  502  0.51496849579E+01  0.76220846238E+02  0.19612833142E+03  0.21053396173E+03  0.47000000000E+01 0. -1.
        -11    1    1    2    0    0 -0.34849756099E+02 -0.92378118310E+01  0.41420500783E+02  0.54913573483E+02  0.00000000000E+00 0.  1.
         11    1    1    2    0    0 -0.19049691585E+02 -0.54650787340E+02  0.28054919023E+03  0.28645671130E+03  0.00000000000E+00 0. -1.
<mgrwt>
<rscale>  0 0.14014232E+03</rscale>
<asrwt>0</asrwt>
<pdfrwt beam="1">  1        1 0.15203773E+00 0.15037209E+03</pdfrwt>
<pdfrwt beam="2">  1       -1 0.28169287E-02 0.15037209E+03</pdfrwt>
<totfact> 0.65948588E+03</totfact>
</mgrwt>
</event>
<event>
 6    1  0.4705246E-006  0.2256523E+03  0.7546771E-02  0.1132180E+00
          2   -1    0    0  501    0  0.00000000000E+00  0.00000000000E+00  0.50390231350E+03  0.50390231350E+03  0.00000000000E+00 0. -1.
         -2   -1    0    0    0  501 -0.00000000000E+00 -0.00000000000E+00 -0.95306717745E+02  0.95306717745E+02  0.00000000000E+00 0.  1.
          5    1    1    2  502    0 -0.68540634536E+01  0.83482135337E+02  0.79404612146E+02  0.11551375475E+03  0.47000000000E+01 0.  1.
         -5    1    1    2    0  502 -0.12596527678E+03  0.25637833537E+02  0.12526555152E+03  0.17954970861E+03  0.47000000000E+01 0.  1.
        -11    1    1    2    0    0  0.13582937619E+03 -0.13688452470E+03  0.19634897179E+03  0.27520885026E+03  0.00000000000E+00 0. -1.
         11    1    1    2    0    0 -0.30100359542E+01  0.27764555826E+02  0.75764602954E+01  0.28936717631E+02  0.00000000000E+00 0.  1.
<mgrwt>
<rscale>  0 0.22229983E+03</rscale>
<asrwt>0</asrwt>
<pdfrwt beam="1">  1        2 0.77523431E-01 0.22565226E+03</pdfrwt>
<pdfrwt beam="2">  1       -2 0.14662572E-01 0.22565226E+03</pdfrwt>
<totfact> 0.21804198E+03</totfact>
</mgrwt>
</event>
<event>
 6    1  0.4705246E-006  0.4139715E+03  0.7546771E-02  0.1039046E+00
         -1   -1    0    0    0  501 -0.00000000000E+00  0.00000000000E+00  0.49304129322E+03  0.49304129322E+03  0.00000000000E+00 0.  1.
          1   -1    0    0  501    0  0.00000000000E+00 -0.00000000000E+00 -0.86895582697E+02  0.86895582697E+02  0.00000000000E+00 0. -1.
          5    1    1    2  502    0 -0.16399296265E+02 -0.87904598512E+01  0.60066501055E+02  0.63057780261E+02  0.47000000000E+01 0.  1.
         -5    1    1    2    0  502 -0.87201090735E+02  0.91541745695E+02 -0.70923750327E+01  0.12671350841E+03  0.47000000000E+01 0.  1.
        -11    1    1    2    0    0  0.20602790105E+02 -0.58103618076E+02  0.23932237262E+03  0.24713499030E+03  0.00000000000E+00 0.  1.
         11    1    1    2    0    0  0.82997596895E+02 -0.24647667769E+02  0.11384921188E+03  0.14303059695E+03  0.00000000000E+00 0. -1.
<mgrwt>
<rscale>  0 0.41397155E+03</rscale>
<asrwt>0</asrwt>
<pdfrwt beam="2">  1        1 0.13368551E-01 0.41397155E+03</pdfrwt>
<pdfrwt beam="1">  1       -1 0.75852506E-01 0.41397155E+03</pdfrwt>
<totfact> 0.79306601E+02</totfact>
</mgrwt>
</event>
<event>
 6    1  0.4705246E-006  0.3478482E+03  0.7546771E-02  0.1063502E+00
         -1   -1    0    0    0  501 -0.00000000000E+00  0.00000000000E+00  0.66541121434E+02  0.66541121434E+02  0.00000000000E+00 0.  1.
          1   -1    0    0  501    0  0.00000000000E+00 -0.00000000000E+00 -0.45459993295E+03  0.45459993295E+03  0.00000000000E+00 0. -1.
          5    1    1    2  502    0  0.43117250452E+01 -0.12340479383E+02 -0.26973300519E+03  0.27009047095E+03  0.47000000000E+01 0. -1.
         -5    1    1    2    0  502 -0.53978866467E+02  0.57774522379E+02 -0.11190742586E+03  0.13710206207E+03  0.47000000000E+01 0. -1.
        -11    1    1    2    0    0 -0.89939879021E+01 -0.31943828382E+02 -0.34199872163E+02  0.47654288852E+02  0.00000000000E+00 0. -1.
         11    1    1    2    0    0  0.58661129324E+02 -0.13490214614E+02  0.27781491701E+02  0.66294232517E+02  0.00000000000E+00 0.  1.
<mgrwt>
<rscale>  0 0.34784818E+03</rscale>
<asrwt>0</asrwt>
<pdfrwt beam="2">  1        1 0.69938454E-01 0.34784818E+03</pdfrwt>
<pdfrwt beam="1">  1       -1 0.10237095E-01 0.34784818E+03</pdfrwt>
<totfact> 0.30205107E+03</totfact>
</mgrwt>
</event>
<event>
 6    1  0.4705246E-006  0.3265755E+03  0.7546771E-02  0.1073999E+00
          2   -1    0    0  501    0  0.00000000000E+00  0.00000000000E+00  0.49415937295E+02  0.49415937295E+02  0.00000000000E+00 0. -1.
         -2   -1    0    0    0  501 -0.00000000000E+00 -0.00000000000E+00 -0.21187653787E+04  0.21187653787E+04  0.00000000000E+00 0.  1.
          5    1    1    2  502    0  0.84122133694E+02 -0.23598545216E+03 -0.64970152002E+03  0.69634748662E+03  0.47000000000E+01 0. -1.
         -5    1    1    2    0  502  0.69431727193E+02 -0.23719731789E+02 -0.26008569486E+03  0.27027772585E+03  0.47000000000E+01 0. -1.
        -11    1    1    2    0    0 -0.16458441092E+03  0.22716978080E+03 -0.10307683486E+04  0.10682591100E+04  0.00000000000E+00 0. -1.
         11    1    1    2    0    0  0.11030550036E+02  0.32535403141E+02 -0.12879387785E+03  0.13329699346E+03  0.00000000000E+00 0.  1.
<mgrwt>
<rscale>  0 0.32361274E+03</rscale>
<asrwt>0</asrwt>
<pdfrwt beam="1">  1        2 0.76024515E-02 0.32657545E+03</pdfrwt>
<pdfrwt beam="2">  1       -2 0.32596392E+00 0.32657545E+03</pdfrwt>
<totfact> 0.23047746E+01</totfact>
</mgrwt>
</event>
<event>
 6    1  0.4705246E-006  0.1530474E+03  0.7546771E-02  0.1205013E+00
         -2   -1    0    0    0  501 -0.00000000000E+00  0.00000000000E+00  0.96534590636E+02  0.96534590636E+02  0.00000000000E+00 0.  1.
          2   -1    0    0  501    0  0.00000000000E+00 -0.00000000000E+00 -0.22176174580E+03  0.22176174580E+03  0.00000000000E+00 0. -1.
          5    1    1    2  502    0 -0.52325076321E+01 -0.10692700854E+03 -0.85553003199E+02  0.13712100732E+03  0.47000000000E+01 0. -1.
         -5    1    1    2    0  502  0.37702352144E+02  0.24807826984E+02 -0.26341557480E+02  0.52467735680E+02  0.47000000000E+01 0. -1.
        -11    1    1    2    0    0 -0.46539300291E+02  0.19088877201E+01 -0.45172299926E+01  0.46796962409E+02  0.00000000000E+00 0.  1.
         11    1    1    2    0    0  0.14069455779E+02  0.80210293841E+02 -0.88153644927E+01  0.81910631026E+02  0.00000000000E+00 0. -1.
<mgrwt>
<rscale>  0 0.14636417E+03</rscale>
<asrwt>0</asrwt>
<pdfrwt beam="2">  1        2 0.34117192E-01 0.15304737E+03</pdfrwt>
<pdfrwt beam="1">  1       -2 0.14851476E-01 0.15304737E+03</pdfrwt>
<totfact> 0.51003572E+03</totfact>
</mgrwt>
</event>
<event>
 6    1  0.4705246E-006  0.1379459E+03  0.7546771E-02  0.1234687E+00
         -2   -1    0    0    0  501 -0.00000000000E+00  0.00000000000E+00  0.16845074631E+03  0.16845074631E+03  0.00000000000E+00 0.  1.
          2   -1    0    0  501    0  0.00000000000E+00 -0.00000000000E+00 -0.10581098313E+03  0.10581098313E+03  0.00000000000E+00 0. -1.
          5    1    1    2  502    0 -0.35655531814E+02 -0.67655973756E+02 -0.39837032065E+02  0.86358131392E+02  0.47000000000E+01 0. -1.
         -5    1    1    2    0  502  0.19348521497E+02  0.50700849823E+02  0.84273516365E+01  0.55118524223E+02  0.47000000000E+01 0.  1.
        -11    1    1    2    0    0 -0.95287319764E+01 -0.32138673761E+02  0.56829139491E+02  0.65979104112E+02  0.00000000000E+00 0. -1.
         11    1    1    2    0    0  0.25835742293E+02  0.49093797693E+02  0.37220304116E+02  0.66805969720E+02  0.00000000000E+00 0.  1.
<mgrwt>
<rscale>  0 0.12524463E+03</rscale>
<asrwt>0</asrwt>
<pdfrwt beam="2">  1        2 0.16278613E-01 0.13794592E+03</pdfrwt>
<pdfrwt beam="1">  1       -2 0.25915500E-01 0.13794592E+03</pdfrwt>
<totfact> 0.45047972E+03</totfact>
</mgrwt>
</event>
<event>
 6    1  0.4705246E-006  0.1591612E+03  0.7546771E-02  0.1223147E+00
          3   -1    0    0  501    0  0.00000000000E+00  0.00000000000E+00  0.93795878320E+02  0.93795878320E+02  0.00000000000E+00 0. -1.
         -3   -1    0    0    0  501 -0.00000000000E+00 -0.00000000000E+00 -0.15312364134E+03  0.15312364134E+03  0.00000000000E+00 0.  1.
          5    1    1    2  502    0  0.24622136547E+02 -0.61802195283E+02 -0.32892437390E+02  0.74362378845E+02  0.47000000000E+01 0. -1.
         -5    1    1    2    0  502 -0.67263990425E+02  0.52424895266E+02  0.11683798364E+02  0.86205656403E+02  0.47000000000E+01 0.  1.
        -11    1    1    2    0    0 -0.99242207635E+01  0.22897049079E+01 -0.31248730543E+02  0.32866640639E+02  0.00000000000E+00 0.  1.
         11    1    1    2    0    0  0.52566074641E+02  0.70875951093E+01 -0.68703934541E+01  0.53484843777E+02  0.00000000000E+00 0. -1.
<mgrwt>
<rscale>  0 0.13294701E+03</rscale>
<asrwt>0</asrwt>
<pdfrwt beam="1">  1        3 0.14430135E-01 0.15916120E+03</pdfrwt>
<pdfrwt beam="2">  1       -3 0.23557483E-01 0.15916120E+03</pdfrwt>
<totfact> 0.15658253E+03</totfact>
</mgrwt>
</event>
<event>
 6    1  0.4705246E-006  0.1941042E+03  0.7546771E-02  0.1159511E+00
         -1   -1    0    0    0  501 -0.00000000000E+00  0.00000000000E+00  0.67534877251E+02  0.67534877251E+02  0.00000000000E+00 0.  1.
          1   -1    0    0  501    0  0.00000000000E+00 -0.00000000000E+00 -0.68181591586E+03  0.68181591586E+03  0.00000000000E+00 0. -1.
          5    1    1    2  502    0  0.93370744605E+02  0.24883363572E+02 -0.30669580319E+03  0.32159241817E+03  0.47000000000E+01 0. -1.
         -5    1    1    2    0  502  0.42859867757E+02 -0.83983984649E+02 -0.20542569785E+03  0.22607982060E+03  0.47000000000E+01 0. -1.
        -11    1    1    2    0    0 -0.13285637304E+03  0.20212389277E+02 -0.85211364649E+02  0.15912364124E+03  0.00000000000E+00 0.  1.
         11    1    1    2    0    0 -0.33742393227E+01  0.38888231800E+02 -0.16948172909E+02  0.42554913095E+02  0.00000000000E+00 0. -1.
<mgrwt>
<rscale>  0 0.18884034E+03</rscale>
<asrwt>0</asrwt>
<pdfrwt beam="2">  1        1 0.10489476E+00 0.19410422E+03</pdfrwt>
<pdfrwt beam="1">  1       -1 0.10389981E-01 0.19410422E+03</pdfrwt>
<totfact> 0.16749994E+03</totfact>
</mgrwt>
</event>
<event>
 6    1  0.4705246E-006  0.1841812E+03  0.7546771E-02  0.1169627E+00
          2   -1    0    0  501    0  0.00000000000E+00  0.00000000000E+00  0.16099414683E+04  0.16099414683E+04  0.00000000000E+00 0. -1.
         -2   -1    0    0    0  501 -0.00000000000E+00 -0.00000000000E+00 -0.23921487385E+02  0.23921487385E+02  0.00000000000E+00 0.  1.
          5    1    1    2  502    0 -0.17844365645E+02  0.14292826703E+03  0.10678665877E+04  0.10775472380E+04  0.47000000000E+01 0. -1.
         -5    1    1    2    0  502  0.34469735520E+02 -0.86837588378E+01  0.15374839955E+03  0.15787409762E+03  0.47000000000E+01 0. -1.
        -11    1    1    2    0    0  0.10438041751E+02 -0.10194062453E+03  0.16195104767E+03  0.19164807718E+03  0.00000000000E+00 0.  1.
         11    1    1    2    0    0 -0.27063411626E+02 -0.32303883655E+02  0.20245394592E+03  0.20679354286E+03  0.00000000000E+00 0. -1.
<mgrwt>
<rscale>  0 0.17812787E+03</rscale>
<asrwt>0</asrwt>
<pdfrwt beam="1">  1        2 0.24768322E+00 0.18418116E+03</pdfrwt>
<pdfrwt beam="2">  1       -2 0.36802301E-02 0.18418116E+03</pdfrwt>
<totfact> 0.37034219E+03</totfact>
</mgrwt>
</event>
<event>
 6    1  0.4705246E-006  0.1539501E+03  0.7546771E-02  0.1203651E+00
          3   -1    0    0  501    0  0.00000000000E+00  0.00000000000E+00  0.97571747368E+02  0.97571747368E+02  0.00000000000E+00 0. -1.
         -3   -1    0    0    0  501 -0.00000000000E+00 -0.00000000000E+00 -0.23755975609E+03  0.23755975609E+03  0.00000000000E+00 0.  1.
          5    1    1    2  502    0 -0.75489225250E+02  0.77532077891E+02 -0.15155469562E+02  0.10936921179E+03  0.47000000000E+01 0. -1.
         -5    1    1    2    0  502  0.44466204000E+02  0.68054418827E+01  0.91555647796E+00  0.45238098778E+02  0.47000000000E+01 0. -1.
        -11    1    1    2    0    0  0.48035709102E+02 -0.72598665636E+01 -0.63766796424E+02  0.80164451833E+02  0.00000000000E+00 0.  1.
         11    1    1    2    0    0 -0.17012687852E+02 -0.77077653210E+02 -0.61981299217E+02  0.10035974106E+03  0.00000000000E+00 0. -1.
<mgrwt>
<rscale>  0 0.14744241E+03</rscale>
<asrwt>0</asrwt>
<pdfrwt beam="1">  1        3 0.15011038E-01 0.15395014E+03</pdfrwt>
<pdfrwt beam="2">  1       -3 0.36547655E-01 0.15395014E+03</pdfrwt>
<totfact> 0.64595516E+02</totfact>
</mgrwt>
</event>
<event>
 6    1  0.4705246E-006  0.1122001E+03  0.7546771E-02  0.1323295E+00
         -4   -1    0    0    0  501 -0.00000000000E+00  0.00000000000E+00  0.27979518687E+03  0.27979518687E+03  0.00000000000E+00 0.  1.
          4   -1    0    0  501    0  0.00000000000E+00 -0.00000000000E+00 -0.18641421305E+02  0.18641421305E+02  0.00000000000E+00 0. -1.
          5    1    1    2  502    0  0.27373513240E+02  0.18978540437E+02  0.10824443576E+02  0.35337696628E+02  0.47000000000E+01 0. -1.
         -5    1    1    2    0  502 -0.32356471926E+02 -0.29482780982E+02  0.18678206907E+03  0.19190051323E+03  0.47000000000E+01 0.  1.
        -11    1    1    2    0    0  0.16101757187E+02  0.91677097382E+01  0.51586939266E+02  0.54813554794E+02  0.00000000000E+00 0. -1.
         11    1    1    2    0    0 -0.11118798501E+02  0.13365308059E+01  0.11960313646E+02  0.16384843522E+02  0.00000000000E+00 0.  1.
<mgrwt>
<rscale>  0 0.82063528E+02</rscale>
<asrwt>0</asrwt>
<pdfrwt beam="2">  1        4 0.28679112E-02 0.11220013E+03</pdfrwt>
<pdfrwt beam="1">  1       -4 0.43045410E-01 0.11220013E+03</pdfrwt>
<totfact> 0.47462165E+03</totfact>
</mgrwt>
</event>
<event>
 6    1  0.4705246E-006  0.1571978E+03  0.7546771E-02  0.1199628E+00
          1   -1    0    0  501    0  0.00000000000E+00  0.00000000000E+00  0.27233832958E+03  0.27233832958E+03  0.00000000000E+00 0. -1.
         -1   -1    0    0    0  501 -0.00000000000E+00 -0.00000000000E+00 -0.82221686146E+02  0.82221686146E+02  0.00000000000E+00 0.  1.
          5    1    1    2  502    0 -0.47550632028E+02  0.10735836507E+02  0.89159159340E+02  0.10172397203E+03  0.47000000000E+01 0.  1.
         -5    1    1    2    0  502  0.72362365414E+01 -0.97146475005E+02  0.57229381152E+02  0.11308002826E+03  0.47000000000E+01 0.  1.
        -11    1    1    2    0    0  0.61387817556E+02  0.82832796843E+02  0.53611798679E+02  0.11620654601E+03  0.00000000000E+00 0. -1.
         11    1    1    2    0    0 -0.21073422070E+02  0.35778416557E+01 -0.98836957372E+01  0.23549469423E+02  0.00000000000E+00 0.  1.
<mgrwt>
<rscale>  0 0.15068998E+03</rscale>
<asrwt>0</asrwt>
<pdfrwt beam="1">  1        1 0.41898204E-01 0.15719782E+03</pdfrwt>
<pdfrwt beam="2">  1       -1 0.12649490E-01 0.15719782E+03</pdfrwt>
<totfact> 0.40506042E+03</totfact>
</mgrwt>
</event>
<event>
 6    1  0.4705246E-006  0.2930505E+03  0.7546771E-02  0.1088767E+00
         -2   -1    0    0    0  501 -0.00000000000E+00  0.00000000000E+00  0.35097526528E+03  0.35097526528E+03  0.00000000000E+00 0.  1.
          2   -1    0    0  501    0  0.00000000000E+00 -0.00000000000E+00 -0.61171383331E+02  0.61171383331E+02  0.00000000000E+00 0. -1.
          5    1    1    2  502    0 -0.52926769612E+02  0.45449890844E+02  0.21047531728E+03  0.22178567290E+03  0.47000000000E+01 0. -1.
         -5    1    1    2    0  502 -0.32117051751E+02 -0.83500127636E+01 -0.71706078089E+01  0.34274412361E+02  0.47000000000E+01 0. -1.
        -11    1    1    2    0    0  0.57128600983E+02  0.14510554667E+02  0.76485175486E+02  0.96561976555E+02  0.00000000000E+00 0.  1.
         11    1    1    2    0    0  0.27915220380E+02 -0.51610432748E+02  0.10013996990E+02  0.59524586794E+02  0.00000000000E+00 0. -1.
<mgrwt>
<rscale>  0 0.29305046E+03</rscale>
<asrwt>0</asrwt>
<pdfrwt beam="2">  1        2 0.94109822E-02 0.29305046E+03</pdfrwt>
<pdfrwt beam="1">  1       -2 0.53996194E-01 0.29305046E+03</pdfrwt>
<totfact> 0.22726236E+03</totfact>
</mgrwt>
</event>
<event>
 6    1  0.4705246E-006  0.1135182E+03  0.7546771E-02  0.1263969E+00
          1   -1    0    0  501    0  0.00000000000E+00  0.00000000000E+00  0.54252902121E+02  0.54252902121E+02  0.00000000000E+00 0. -1.
         -1   -1    0    0    0  501 -0.00000000000E+00 -0.00000000000E+00 -0.19878675049E+03  0.19878675049E+03  0.00000000000E+00 0.  1.
          5    1    1    2  502    0 -0.43938206265E+02 -0.41131035672E+02 -0.49360843846E+02  0.77980196014E+02  0.47000000000E+01 0. -1.
         -5    1    1    2    0  502  0.38349415889E+02  0.33914667049E+02 -0.20722618743E+02  0.55429227558E+02  0.47000000000E+01 0.  1.
        -11    1    1    2    0    0  0.44976761720E+02 -0.15950740178E+02 -0.42152848841E+02  0.63672583366E+02  0.00000000000E+00 0.  1.
         11    1    1    2    0    0 -0.39387971344E+02  0.23167108801E+02 -0.32297536935E+02  0.55957645669E+02  0.00000000000E+00 0. -1.
<mgrwt>
<rscale>  0 0.10818449E+03</rscale>
<asrwt>0</asrwt>
<pdfrwt beam="1">  1        1 0.83466004E-02 0.11351820E+03</pdfrwt>
<pdfrwt beam="2">  1       -1 0.30582577E-01 0.11351820E+03</pdfrwt>
<totfact> 0.75569873E+03</totfact>
</mgrwt>
</event>
<event>
 6    1  0.4705246E-006  0.1560697E+03  0.7546771E-02  0.1201265E+00
         -3   -1    0    0    0  501 -0.00000000000E+00  0.00000000000E+00  0.11429668630E+03  0.11429668630E+03  0.00000000000E+00 0.  1.
          3   -1    0    0  501    0  0.00000000000E+00 -0.00000000000E+00 -0.28341585983E+03  0.28341585983E+03  0.00000000000E+00 0. -1.
          5    1    1    2  502    0 -0.27120519138E+02  0.20251134460E+02  0.62828972698E+01  0.34744723389E+02  0.47000000000E+01 0. -1.
         -5    1    1    2    0  502 -0.66315427333E+02 -0.18760934402E+02 -0.21530696887E+03  0.22611698168E+03  0.47000000000E+01 0. -1.
        -11    1    1    2    0    0 -0.69043371131E+01 -0.12422879324E+02 -0.16054952752E+02  0.21441998730E+02  0.00000000000E+00 0.  1.
         11    1    1    2    0    0  0.10034028358E+03  0.10932679266E+02  0.55959850822E+02  0.11540884234E+03  0.00000000000E+00 0. -1.
<mgrwt>
<rscale>  0 0.14935747E+03</rscale>
<asrwt>0</asrwt>
<pdfrwt beam="2">  1        3 0.43602440E-01 0.15606975E+03</pdfrwt>
<pdfrwt beam="1">  1       -3 0.17584106E-01 0.15606975E+03</pdfrwt>
<totfact> 0.35024342E+02</totfact>
</mgrwt>
</event>
<event>
 6    1  0.4705246E-006  0.2082765E+03  0.7546771E-02  0.1146659E+00
          2   -1    0    0  501    0  0.00000000000E+00  0.00000000000E+00  0.31895120672E+03  0.31895120672E+03  0.00000000000E+00 0. -1.
         -2   -1    0    0    0  501 -0.00000000000E+00 -0.00000000000E+00 -0.15136838045E+03  0.15136838045E+03  0.00000000000E+00 0.  1.
          5    1    1    2  502    0 -0.68373033869E+02 -0.22279056502E+02  0.11199008833E+02  0.72929664183E+02  0.47000000000E+01 0. -1.
         -5    1    1    2    0  502 -0.95038007657E+02  0.54671732474E+02  0.17433701535E+03  0.20600171395E+03  0.47000000000E+01 0. -1.
        -11    1    1    2    0    0  0.12325558950E+03 -0.29142041558E+02 -0.53662806949E+02  0.13755324707E+03  0.00000000000E+00 0.  1.
         11    1    1    2    0    0  0.40155452022E+02 -0.32506344144E+01  0.35709609040E+02  0.53834961957E+02  0.00000000000E+00 0. -1.
<mgrwt>
<rscale>  0 0.20369444E+03</rscale>
<asrwt>0</asrwt>
<pdfrwt beam="1">  1        2 0.49069416E-01 0.20827649E+03</pdfrwt>
<pdfrwt beam="2">  1       -2 0.23287443E-01 0.20827649E+03</pdfrwt>
<totfact> 0.16368663E+03</totfact>
</mgrwt>
</event>
<event>
 6    1  0.4705246E-006  0.2261012E+03  0.7546771E-02  0.1132466E+00
          2   -1    0    0  501    0  0.00000000000E+00  0.00000000000E+00  0.66259261483E+03  0.66259261483E+03  0.00000000000E+00 0. -1.
         -2   -1    0    0    0  501 -0.00000000000E+00 -0.00000000000E+00 -0.76809261471E+02  0.76809261471E+02  0.00000000000E+00 0.  1.
          5    1    1    2  502    0 -0.16480355866E+01  0.10432085742E+02  0.93351339069E+02  0.94064376574E+02  0.47000000000E+01 0.  1.
         -5    1    1    2    0  502  0.80572262650E+02 -0.18151019177E+03  0.30512073883E+03  0.36408597129E+03  0.47000000000E+01 0.  1.
        -11    1    1    2    0    0 -0.77651378697E+02  0.93566191306E+02  0.69000871039E+02  0.13980518221E+03  0.00000000000E+00 0.  1.
         11    1    1    2    0    0 -0.12728483665E+01  0.77511914722E+02  0.11831040442E+03  0.14144634623E+03  0.00000000000E+00 0. -1.
<mgrwt>
<rscale>  0 0.22191138E+03</rscale>
<asrwt>0</asrwt>
<pdfrwt beam="1">  1        2 0.10193732E+00 0.22610118E+03</pdfrwt>
<pdfrwt beam="2">  1       -2 0.11816810E-01 0.22610118E+03</pdfrwt>
<totfact> 0.22614275E+03</totfact>
</mgrwt>
</event>
<event>
 6    1  0.4705246E-006  0.1303215E+03  0.7546771E-02  0.1240548E+00
         -2   -1    0    0    0  501 -0.00000000000E+00  0.00000000000E+00  0.17129260967E+02  0.17129260967E+02  0.00000000000E+00 0.  1.
          2   -1    0    0  501    0  0.00000000000E+00 -0.00000000000E+00 -0.79982978308E+03  0.79982978308E+03  0.00000000000E+00 0. -1.
          5    1    1    2  502    0  0.78095456277E+02 -0.17192104790E+02 -0.29522168928E+03  0.30589606827E+03  0.47000000000E+01 0.  1.
         -5    1    1    2    0  502 -0.48852220249E+02 -0.52525518358E+01 -0.23217156029E+03  0.23736017385E+03  0.47000000000E+01 0.  1.
        -11    1    1    2    0    0 -0.20464610790E+02  0.56274403970E+02 -0.12218513110E+03  0.13606915558E+03  0.00000000000E+00 0.  1.
         11    1    1    2    0    0 -0.87786252379E+01 -0.33829747344E+02 -0.13312214144E+03  0.13763364635E+03  0.00000000000E+00 0. -1.
<mgrwt>
<rscale>  0 0.12155818E+03</rscale>
<asrwt>0</asrwt>
<pdfrwt beam="2">  1        2 0.12305075E+00 0.13032154E+03</pdfrwt>
<pdfrwt beam="1">  1       -2 0.26352705E-02 0.13032154E+03</pdfrwt>
<totfact> 0.17287681E+04</totfact>
</mgrwt>
</event>
<event>
 6    1  0.4705246E-006  0.1444912E+03  0.7546771E-02  0.1217325E+00
          2   -1    0    0  501    0  0.00000000000E+00  0.00000000000E+00  0.18519600961E+03  0.18519600961E+03  0.00000000000E+00 0. -1.
         -2   -1    0    0    0  501 -0.00000000000E+00 -0.00000000000E+00 -0.92458989719E+02  0.92458989719E+02  0.00000000000E+00 0.  1.
          5    1    1    2  502    0 -0.91952740178E+01  0.44516574105E+02  0.18762065943E+02  0.49400238388E+02  0.47000000000E+01 0. -1.
         -5    1    1    2    0  502 -0.51766008935E+02 -0.83710405569E+02  0.27084811673E+02  0.10219015953E+03  0.47000000000E+01 0. -1.
        -11    1    1    2    0    0  0.29877244120E+02  0.49020198372E+02  0.66633011864E+02  0.87952190619E+02  0.00000000000E+00 0. -1.
         11    1    1    2    0    0  0.31084038833E+02 -0.98263669078E+01 -0.19742869588E+02  0.38112410791E+02  0.00000000000E+00 0.  1.
<mgrwt>
<rscale>  0 0.13707107E+03</rscale>
<asrwt>0</asrwt>
<pdfrwt beam="1">  1        2 0.28491694E-01 0.14449122E+03</pdfrwt>
<pdfrwt beam="2">  1       -2 0.14224460E-01 0.14449122E+03</pdfrwt>
<totfact> 0.66274722E+03</totfact>
</mgrwt>
</event>
<event>
 6    1  0.4705246E-006  0.1327267E+03  0.7546771E-02  0.1235773E+00
          1   -1    0    0  501    0  0.00000000000E+00  0.00000000000E+00  0.22097648073E+03  0.22097648073E+03  0.00000000000E+00 0. -1.
         -1   -1    0    0    0  501 -0.00000000000E+00 -0.00000000000E+00 -0.62836455977E+02  0.62836455977E+02  0.00000000000E+00 0.  1.
          5    1    1    2  502    0  0.22235984298E+02 -0.50125559928E+02 -0.10190801481E+02  0.55972789734E+02  0.47000000000E+01 0.  1.
         -5    1    1    2    0  502 -0.32155231768E+02  0.66292843541E+01  0.97271942689E+02  0.10277075058E+03  0.47000000000E+01 0.  1.
        -11    1    1    2    0    0 -0.16426932283E+02  0.15983662891E+02 -0.17387388839E+02  0.28768782982E+02  0.00000000000E+00 0.  1.
         11    1    1    2    0    0  0.26346179752E+02  0.27512612683E+02  0.88446272380E+02  0.96300613404E+02  0.00000000000E+00 0. -1.
<mgrwt>
<rscale>  0 0.12455069E+03</rscale>
<asrwt>0</asrwt>
<pdfrwt beam="1">  1        1 0.33996381E-01 0.13272674E+03</pdfrwt>
<pdfrwt beam="2">  1       -1 0.96671472E-02 0.13272674E+03</pdfrwt>
<totfact> 0.78547205E+03</totfact>
</mgrwt>
</event>
<event>
 6    1  0.4705246E-006  0.1327845E+03  0.7546771E-02  0.1237687E+00
          1   -1    0    0  501    0  0.00000000000E+00  0.00000000000E+00  0.14280556173E+03  0.14280556173E+03  0.00000000000E+00 0. -1.
         -1   -1    0    0    0  501 -0.00000000000E+00 -0.00000000000E+00 -0.95368243827E+02  0.95368243827E+02  0.00000000000E+00 0.  1.
          5    1    1    2  502    0 -0.23450576730E+02  0.22329105418E+02  0.41888128787E+02  0.53152834647E+02  0.47000000000E+01 0.  1.
         -5    1    1    2    0  502  0.35944897650E+02 -0.65340569367E+02 -0.29223584366E+02  0.80234241790E+02  0.47000000000E+01 0.  1.
        -11    1    1    2    0    0 -0.16032662830E+02  0.11894509005E+02 -0.28144769630E+02  0.34505849931E+02  0.00000000000E+00 0.  1.
         11    1    1    2    0    0  0.35383419103E+01  0.31116954944E+02  0.62917543109E+02  0.70280879187E+02  0.00000000000E+00 0. -1.
<mgrwt>
<rscale>  0 0.12333988E+03</rscale>
<asrwt>0</asrwt>
<pdfrwt beam="1">  1        1 0.21970086E-01 0.13278449E+03</pdfrwt>
<pdfrwt beam="2">  1       -1 0.14672038E-01 0.13278449E+03</pdfrwt>
<totfact> 0.71220582E+03</totfact>
</mgrwt>
</event>
<event>
 6    1  0.4705246E-006  0.1246677E+03  0.7546771E-02  0.1249150E+00
          2   -1    0    0  501    0  0.00000000000E+00  0.00000000000E+00  0.11454692986E+03  0.11454692986E+03  0.00000000000E+00 0. -1.
         -2   -1    0    0    0  501 -0.00000000000E+00 -0.00000000000E+00 -0.11542594888E+03  0.11542594888E+03  0.00000000000E+00 0.  1.
          5    1    1    2  502    0  0.30365046497E+02  0.39290072554E+02  0.18538328786E+02  0.53211892320E+02  0.47000000000E+01 0. -1.
         -5    1    1    2    0  502 -0.54250078654E+02 -0.50693227946E+02  0.15098873866E+02  0.75914032863E+02  0.47000000000E+01 0.  1.
        -11    1    1    2    0    0  0.15777433678E+02 -0.37811055486E+02 -0.14348141003E+01  0.40995878109E+02  0.00000000000E+00 0.  1.
         11    1    1    2    0    0  0.81075984781E+01  0.49214210878E+02 -0.33081407577E+02  0.59851075452E+02  0.00000000000E+00 0. -1.
<mgrwt>
<rscale>  0 0.11640388E+03</rscale>
<asrwt>0</asrwt>
<pdfrwt beam="1">  1        2 0.17622605E-01 0.12466773E+03</pdfrwt>
<pdfrwt beam="2">  1       -2 0.17757838E-01 0.12466773E+03</pdfrwt>
<totfact> 0.77845567E+03</totfact>
</mgrwt>
</event>
<event>
 6    1  0.4705246E-006  0.1398089E+03  0.7546771E-02  0.1224699E+00
         -2   -1    0    0    0  501 -0.00000000000E+00  0.00000000000E+00  0.58916613272E+02  0.58916613272E+02  0.00000000000E+00 0.  1.
          2   -1    0    0  501    0  0.00000000000E+00 -0.00000000000E+00 -0.27947843006E+03  0.27947843006E+03  0.00000000000E+00 0. -1.
          5    1    1    2  502    0 -0.91533510846E+02  0.32839299194E+01 -0.10297533299E+03  0.13789552932E+03  0.47000000000E+01 0. -1.
         -5    1    1    2    0  502  0.37943701251E+02  0.29156868064E+02 -0.56119252593E+02  0.73900662592E+02  0.47000000000E+01 0. -1.
        -11    1    1    2    0    0  0.73019272691E+02 -0.28819025358E+02 -0.69899716360E+02  0.10511099255E+03  0.00000000000E+00 0. -1.
         11    1    1    2    0    0 -0.19429463096E+02 -0.36217726252E+01  0.84324851502E+01  0.21487858873E+02  0.00000000000E+00 0.  1.
<mgrwt>
<rscale>  0 0.13187546E+03</rscale>
<asrwt>0</asrwt>
<pdfrwt beam="2">  1        2 0.42996681E-01 0.13980894E+03</pdfrwt>
<pdfrwt beam="1">  1       -2 0.90640945E-02 0.13980894E+03</pdfrwt>
<totfact> 0.87091671E+03</totfact>
</mgrwt>
</event>
<event>
 6    1  0.4705246E-006  0.3744832E+03  0.7546771E-02  0.1052992E+00
         -1   -1    0    0    0  501 -0.00000000000E+00  0.00000000000E+00  0.23790943889E+02  0.23790943889E+02  0.00000000000E+00 0.  1.
          1   -1    0    0  501    0  0.00000000000E+00 -0.00000000000E+00 -0.14736456633E+04  0.14736456633E+04  0.00000000000E+00 0. -1.
          5    1    1    2  502    0  0.15291522192E+02  0.44075194349E+01 -0.62589347213E+03  0.62611339654E+03  0.47000000000E+01 0. -1.
         -5    1    1    2    0  502 -0.71294129283E+02 -0.83805063043E+02 -0.60786770197E+03  0.61776320266E+03  0.47000000000E+01 0. -1.
        -11    1    1    2    0    0  0.53616562864E+02  0.10395754195E+01 -0.10009280309E+03  0.11355344891E+03  0.00000000000E+00 0.  1.
         11    1    1    2    0    0  0.23860442270E+01  0.78357968189E+02 -0.11600074221E+03  0.14000655906E+03  0.00000000000E+00 0. -1.
<mgrwt>
<rscale>  0 0.37448322E+03</rscale>
<asrwt>0</asrwt>
<pdfrwt beam="2">  1        1 0.22671473E+00 0.37448322E+03</pdfrwt>
<pdfrwt beam="1">  1       -1 0.36601450E-02 0.37448322E+03</pdfrwt>
<totfact> 0.20894413E+03</totfact>
</mgrwt>
</event>
<event>
 6    1  0.6974990E-006  0.4796298E+03  0.7546771E-02  0.1019237E+00
          1   -1    0    0  501    0  0.00000000000E+00  0.00000000000E+00  0.24045488268E+03  0.24045488268E+03  0.00000000000E+00 0. -1.
         -1   -1    0    0    0  501 -0.00000000000E+00 -0.00000000000E+00 -0.23917663924E+03  0.23917663924E+03  0.00000000000E+00 0.  1.
          5    1    1    2  502    0 -0.85587035397E+01 -0.55478825992E+01 -0.23057813661E+02  0.25647284036E+02  0.47000000000E+01 0. -1.
         -5    1    1    2    0  502 -0.12946831204E+03  0.14297836250E+03  0.10642736573E+03  0.22034910969E+03  0.47000000000E+01 0. -1.
        -11    1    1    2    0    0  0.78623153622E+02 -0.81240828824E+02 -0.98838739119E+02  0.15016913433E+03  0.00000000000E+00 0.  1.
         11    1    1    2    0    0  0.59403861955E+02 -0.56189651079E+02  0.16747430494E+02  0.83465993864E+02  0.00000000000E+00 0. -1.
<mgrwt>
<rscale>  0 0.47962982E+03</rscale>
<asrwt>0</asrwt>
<pdfrwt beam="1">  1        1 0.36993059E-01 0.47962982E+03</pdfrwt>
<pdfrwt beam="2">  1       -1 0.36796406E-01 0.47962982E+03</pdfrwt>
<totfact> 0.83339610E+02</totfact>
</mgrwt>
</event>
<event>
 6    1  0.4705246E-006  0.1387706E+03  0.7546771E-02  0.1226110E+00
         -2   -1    0    0    0  501 -0.00000000000E+00  0.00000000000E+00  0.88653072045E+01  0.88653072045E+01  0.00000000000E+00 0.  1.
          2   -1    0    0  501    0  0.00000000000E+00 -0.00000000000E+00 -0.19407283124E+04  0.19407283124E+04  0.00000000000E+00 0. -1.
          5    1    1    2  502    0  0.52665863126E+02 -0.43801092826E+02 -0.11059364275E+04  0.11080657474E+04  0.47000000000E+01 0. -1.
         -5    1    1    2    0  502  0.72089472266E+01  0.50639339679E+02 -0.26933743132E+03  0.27419163655E+03  0.47000000000E+01 0. -1.
        -11    1    1    2    0    0 -0.77257570431E+02  0.17253440646E+02 -0.43702823241E+03  0.44413971825E+03  0.00000000000E+00 0. -1.
         11    1    1    2    0    0  0.17382760078E+02 -0.24091687498E+02 -0.11956091390E+03  0.12319651735E+03  0.00000000000E+00 0.  1.
<mgrwt>
<rscale>  0 0.13091117E+03</rscale>
<asrwt>0</asrwt>
<pdfrwt beam="2">  1        2 0.29857379E+00 0.13877063E+03</pdfrwt>
<pdfrwt beam="1">  1       -2 0.13638925E-02 0.13877063E+03</pdfrwt>
<totfact> 0.10626697E+04</totfact>
</mgrwt>
</event>
<event>
 6    1  0.4705246E-006  0.1216784E+03  0.7546771E-02  0.1252272E+00
          3   -1    0    0  501    0  0.00000000000E+00  0.00000000000E+00  0.39431764752E+02  0.39431764752E+02  0.00000000000E+00 0. -1.
         -3   -1    0    0    0  501 -0.00000000000E+00 -0.00000000000E+00 -0.30944778085E+03  0.30944778085E+03  0.00000000000E+00 0.  1.
          5    1    1    2  502    0  0.21833053922E+02 -0.66242064265E+02 -0.10906805612E+03  0.12954776798E+03  0.47000000000E+01 0. -1.
         -5    1    1    2    0  502 -0.11231964031E+01  0.39550421403E+02 -0.10859392301E+02  0.41297866827E+02  0.47000000000E+01 0.  1.
        -11    1    1    2    0    0 -0.46650237961E+02  0.10075058718E+01 -0.12583271040E+03  0.13420555419E+03  0.00000000000E+00 0.  1.
         11    1    1    2    0    0  0.25940380442E+02  0.25684136991E+02 -0.24255857276E+02  0.43828356604E+02  0.00000000000E+00 0. -1.
<mgrwt>
<rscale>  0 0.11460494E+03</rscale>
<asrwt>0</asrwt>
<pdfrwt beam="1">  1        3 0.60664252E-02 0.12167842E+03</pdfrwt>
<pdfrwt beam="2">  1       -3 0.47607352E-01 0.12167842E+03</pdfrwt>
<totfact> 0.16610623E+03</totfact>
</mgrwt>
</event>
<event>
 6    1  0.4705246E-006  0.1221088E+03  0.7546771E-02  0.1248027E+00
          1   -1    0    0  501    0  0.00000000000E+00  0.00000000000E+00  0.23606961581E+03  0.23606961581E+03  0.00000000000E+00 0. -1.
         -1   -1    0    0    0  501 -0.00000000000E+00 -0.00000000000E+00 -0.54527288879E+02  0.54527288879E+02  0.00000000000E+00 0.  1.
          5    1    1    2  502    0 -0.68089943520E+01 -0.52195500390E+02  0.81636975434E+02  0.97249259242E+02  0.47000000000E+01 0. -1.
         -5    1    1    2    0  502 -0.41909247524E+02  0.45845433388E+02  0.34202414758E+02  0.71063942797E+02  0.47000000000E+01 0.  1.
        -11    1    1    2    0    0  0.73788545768E+02  0.54243814051E+01  0.62767012710E+02  0.97025106466E+02  0.00000000000E+00 0. -1.
         11    1    1    2    0    0 -0.25070303893E+02  0.92568559691E+00  0.29359240243E+01  0.25258596180E+02  0.00000000000E+00 0.  1.
<mgrwt>
<rscale>  0 0.11706035E+03</rscale>
<asrwt>0</asrwt>
<pdfrwt beam="1">  1        1 0.36318402E-01 0.12210884E+03</pdfrwt>
<pdfrwt beam="2">  1       -1 0.83888138E-02 0.12210884E+03</pdfrwt>
<totfact> 0.89179067E+03</totfact>
</mgrwt>
</event>
<event>
 6    1  0.4705246E-006  0.1278266E+03  0.7546771E-02  0.1245397E+00
          1   -1    0    0  501    0  0.00000000000E+00  0.00000000000E+00  0.12865786510E+04  0.12865786510E+04  0.00000000000E+00 0. -1.
         -1   -1    0    0    0  501 -0.00000000000E+00 -0.00000000000E+00 -0.11833006167E+02  0.11833006167E+02  0.00000000000E+00 0.  1.
          5    1    1    2  502    0  0.36655944424E+01  0.74925505538E+02  0.47827065084E+03  0.48414065458E+03  0.47000000000E+01 0.  1.
         -5    1    1    2    0  502 -0.63214832716E+01 -0.48364306584E+02  0.51375757127E+03  0.51608913895E+03  0.47000000000E+01 0.  1.
        -11    1    1    2    0    0  0.29486118892E+02 -0.50724912735E+02  0.17460533318E+03  0.18419953950E+03  0.00000000000E+00 0.  1.
         11    1    1    2    0    0 -0.26830230063E+02  0.24163713781E+02  0.10811208949E+03  0.11398232408E+03  0.00000000000E+00 0. -1.
<mgrwt>
<rscale>  0 0.11861657E+03</rscale>
<asrwt>0</asrwt>
<pdfrwt beam="1">  1        1 0.19793507E+00 0.12782663E+03</pdfrwt>
<pdfrwt beam="2">  1       -1 0.18204635E-02 0.12782663E+03</pdfrwt>
<totfact> 0.76183565E+03</totfact>
</mgrwt>
</event>
<event>
 6    1  0.4705246E-006  0.9098232E+03  0.7546771E-02  0.9727970E-01
          2   -1    0    0  501    0  0.00000000000E+00  0.00000000000E+00  0.36015377127E+04  0.36015377127E+04  0.00000000000E+00 0. -1.
         -2   -1    0    0    0  501 -0.00000000000E+00 -0.00000000000E+00 -0.11534942712E+03  0.11534942712E+03  0.00000000000E+00 0.  1.
          5    1    1    2  502    0  0.30362281475E+03 -0.16068726918E+03  0.17479541872E+04  0.17813964025E+04  0.47000000000E+01 0. -1.
         -5    1    1    2    0  502 -0.25682948563E+03  0.45039356768E+03  0.13045148415E+04  0.14037794742E+04  0.47000000000E+01 0.  1.
        -11    1    1    2    0    0  0.16156442120E+02 -0.32576378887E+02  0.95650385355E+02  0.10232911268E+03  0.00000000000E+00 0. -1.
         11    1    1    2    0    0 -0.62949771231E+02 -0.25712991962E+03  0.33806887153E+03  0.42938215049E+03  0.00000000000E+00 0.  1.
<mgrwt>
<rscale>  0 0.69375592E+03</rscale>
<asrwt>0</asrwt>
<pdfrwt beam="1">  1        2 0.55408264E+00 0.90982317E+03</pdfrwt>
<pdfrwt beam="2">  1       -2 0.17746068E-01 0.90982317E+03</pdfrwt>
<totfact> 0.19068905E+01</totfact>
</mgrwt>
</event>
<event>
 6    1  0.4705246E-006  0.1420884E+03  0.7546771E-02  0.1226068E+00
         -1   -1    0    0    0  501 -0.00000000000E+00  0.00000000000E+00  0.99293586788E+02  0.99293586788E+02  0.00000000000E+00 0.  1.
          1   -1    0    0  501    0  0.00000000000E+00 -0.00000000000E+00 -0.18980575469E+03  0.18980575469E+03  0.00000000000E+00 0. -1.
          5    1    1    2  502    0 -0.12941745645E+02  0.85437605795E+02 -0.11129751358E+03  0.14098333162E+03  0.47000000000E+01 0. -1.
         -5    1    1    2    0  502  0.35819866644E+02 -0.21864995851E+02 -0.47920457202E+01  0.42499348138E+02  0.47000000000E+01 0. -1.
        -11    1    1    2    0    0 -0.19228482032E+02 -0.53877843404E+02 -0.18667712006E+02  0.60175077920E+02  0.00000000000E+00 0. -1.
         11    1    1    2    0    0 -0.36496389671E+01 -0.96947665407E+01  0.44245103408E+02  0.45441583802E+02  0.00000000000E+00 0.  1.
<mgrwt>
<rscale>  0 0.13093962E+03</rscale>
<asrwt>0</asrwt>
<pdfrwt beam="2">  1        1 0.29200885E-01 0.14208838E+03</pdfrwt>
<pdfrwt beam="1">  1       -1 0.15275937E-01 0.14208838E+03</pdfrwt>
<totfact> 0.46987052E+03</totfact>
</mgrwt>
</event>
<event>
 6    1  0.4705246E-006  0.1200960E+03  0.7546771E-02  0.1291639E+00
         -2   -1    0    0    0  501 -0.00000000000E+00  0.00000000000E+00  0.14804089238E+02  0.14804089238E+02  0.00000000000E+00 0.  1.
          2   -1    0    0  501    0  0.00000000000E+00 -0.00000000000E+00 -0.49834620433E+03  0.49834620433E+03  0.00000000000E+00 0. -1.
          5    1    1    2  502    0 -0.41116024101E+01 -0.38337412259E+02 -0.26899279467E+03  0.27178277362E+03  0.47000000000E+01 0. -1.
         -5    1    1    2    0  502  0.47771679583E+02  0.42111676035E+02 -0.12907472540E+03  0.14400660181E+03  0.47000000000E+01 0.  1.
        -11    1    1    2    0    0 -0.12648181066E+02 -0.65848537392E+01 -0.17356932569E+02  0.22463300987E+02  0.00000000000E+00 0.  1.
         11    1    1    2    0    0 -0.31011896107E+02  0.28105899632E+01 -0.68117662459E+02  0.74897617151E+02  0.00000000000E+00 0. -1.
<mgrwt>
<rscale>  0 0.94794900E+02</rscale>
<asrwt>0</asrwt>
<pdfrwt beam="2">  1        2 0.76668642E-01 0.12009602E+03</pdfrwt>
<pdfrwt beam="1">  1       -2 0.22775523E-02 0.12009602E+03</pdfrwt>
<totfact> 0.36647051E+04</totfact>
</mgrwt>
</event>
<event>
 6    1  0.4705246E-006  0.1706101E+03  0.7546771E-02  0.1182227E+00
         -2   -1    0    0    0  501 -0.00000000000E+00  0.00000000000E+00  0.22300081043E+02  0.22300081043E+02  0.00000000000E+00 0.  1.
          2   -1    0    0  501    0  0.00000000000E+00 -0.00000000000E+00 -0.14847478072E+04  0.14847478072E+04  0.00000000000E+00 0. -1.
          5    1    1    2  502    0  0.88680372474E+01 -0.65292865774E+02 -0.40327281626E+03  0.40864759236E+03  0.47000000000E+01 0. -1.
         -5    1    1    2    0  502  0.10364342579E+03  0.11035069913E+02 -0.70701365119E+03  0.71467064124E+03  0.47000000000E+01 0.  1.
        -11    1    1    2    0    0 -0.61936005915E+02  0.74857816253E+02 -0.20804811791E+03  0.22961659532E+03  0.00000000000E+00 0.  1.
         11    1    1    2    0    0 -0.50575457121E+02 -0.20600020392E+02 -0.14411314080E+03  0.15411305933E+03  0.00000000000E+00 0. -1.
<mgrwt>
<rscale>  0 0.16586771E+03</rscale>
<asrwt>0</asrwt>
<pdfrwt beam="2">  1        2 0.22842276E+00 0.17061012E+03</pdfrwt>
<pdfrwt beam="1">  1       -2 0.34307813E-02 0.17061012E+03</pdfrwt>
<totfact> 0.47766741E+03</totfact>
</mgrwt>
</event>
<event>
 6    1  0.4705246E-006  0.2673973E+03  0.7546771E-02  0.1104822E+00
          2   -1    0    0  501    0  0.00000000000E+00  0.00000000000E+00  0.72183045985E+03  0.72183045985E+03  0.00000000000E+00 0. -1.
         -2   -1    0    0    0  501 -0.00000000000E+00 -0.00000000000E+00 -0.94058859751E+02  0.94058859751E+02  0.00000000000E+00 0.  1.
          5    1    1    2  502    0  0.86914173323E+02 -0.12525689870E+03  0.11671275160E+03  0.19206072108E+03  0.47000000000E+01 0.  1.
         -5    1    1    2    0  502  0.93274342545E+02 -0.27747219811E+02  0.19976824414E+03  0.22225987616E+03  0.47000000000E+01 0.  1.
        -11    1    1    2    0    0 -0.16956075098E+03  0.13349198486E+03  0.22219474688E+03  0.30974419096E+03  0.00000000000E+00 0.  1.
         11    1    1    2    0    0 -0.10627764890E+02  0.19512133646E+02  0.89095857477E+02  0.91824531393E+02  0.00000000000E+00 0. -1.
<mgrwt>
<rscale>  0 0.26390104E+03</rscale>
<asrwt>0</asrwt>
<pdfrwt beam="1">  1        2 0.11105084E+00 0.26739734E+03</pdfrwt>
<pdfrwt beam="2">  1       -2 0.14470594E-01 0.26739734E+03</pdfrwt>
<totfact> 0.14676790E+03</totfact>
</mgrwt>
</event>
<event>
 6    1  0.4705246E-006  0.1395956E+03  0.7546771E-02  0.1224579E+00
         -2   -1    0    0    0  501 -0.00000000000E+00  0.00000000000E+00  0.91572128679E+02  0.91572128679E+02  0.00000000000E+00 0.  1.
          2   -1    0    0  501    0  0.00000000000E+00 -0.00000000000E+00 -0.19010756422E+03  0.19010756422E+03  0.00000000000E+00 0. -1.
          5    1    1    2  502    0 -0.27750563929E+02  0.77487907864E+02 -0.90126179650E+02  0.12214453701E+03  0.47000000000E+01 0. -1.
         -5    1    1    2    0  502 -0.22802452954E+02 -0.41419210260E+02 -0.72634189954E+01  0.48066101306E+02  0.47000000000E+01 0. -1.
        -11    1    1    2    0    0  0.17334615321E+02 -0.26614209676E+02  0.44224803466E+02  0.54448492051E+02  0.00000000000E+00 0.  1.
         11    1    1    2    0    0  0.33218401563E+02 -0.94544879284E+01 -0.45370640361E+02  0.57020562529E+02  0.00000000000E+00 0. -1.
<mgrwt>
<rscale>  0 0.13195827E+03</rscale>
<asrwt>0</asrwt>
<pdfrwt beam="2">  1        2 0.29247318E-01 0.13959559E+03</pdfrwt>
<pdfrwt beam="1">  1       -2 0.14088020E-01 0.13959559E+03</pdfrwt>
<totfact> 0.65281381E+03</totfact>
</mgrwt>
</event>
<event>
 6    1  0.4705246E-006  0.1201869E+03  0.7546771E-02  0.1250033E+00
         -1   -1    0    0    0  501 -0.00000000000E+00  0.00000000000E+00  0.36035411550E+03  0.36035411550E+03  0.00000000000E+00 0.  1.
          1   -1    0    0  501    0  0.00000000000E+00 -0.00000000000E+00 -0.39864240373E+02  0.39864240373E+02  0.00000000000E+00 0. -1.
          5    1    1    2  502    0  0.75675205158E+02  0.30551240187E+01  0.44742831430E+02  0.88091324333E+02  0.47000000000E+01 0. -1.
         -5    1    1    2    0  502 -0.33318384638E+02 -0.22005364293E+02  0.54791258511E+02  0.67959714697E+02  0.47000000000E+01 0.  1.
        -11    1    1    2    0    0  0.93327133843E+01  0.39094869965E+02  0.14263150711E+03  0.14818655546E+03  0.00000000000E+00 0. -1.
         11    1    1    2    0    0 -0.51689533904E+02 -0.20144629691E+02  0.78324278078E+02  0.95980761390E+02  0.00000000000E+00 0.  1.
<mgrwt>
<rscale>  0 0.11589156E+03</rscale>
<asrwt>0</asrwt>
<pdfrwt beam="2">  1        1 0.61329603E-02 0.12018690E+03</pdfrwt>
<pdfrwt beam="1">  1       -1 0.55439092E-01 0.12018690E+03</pdfrwt>
<totfact> 0.40308262E+03</totfact>
</mgrwt>
</event>
<event>
 6    1  0.4705246E-006  0.1305463E+03  0.7546771E-02  0.1239462E+00
         -1   -1    0    0    0  501 -0.00000000000E+00  0.00000000000E+00  0.94100191113E+02  0.94100191113E+02  0.00000000000E+00 0.  1.
          1   -1    0    0  501    0  0.00000000000E+00 -0.00000000000E+00 -0.17656242178E+03  0.17656242178E+03  0.00000000000E+00 0. -1.
          5    1    1    2  502    0  0.58382093430E+02  0.28701795027E+02 -0.47690809670E+02  0.80800774736E+02  0.47000000000E+01 0. -1.
         -5    1    1    2    0  502 -0.64360169754E+02  0.84672649887E+01 -0.57664015741E+02  0.86954900601E+02  0.47000000000E+01 0. -1.
        -11    1    1    2    0    0 -0.32152088333E+02 -0.29548519314E+02 -0.17312638139E+02  0.46974452814E+02  0.00000000000E+00 0. -1.
         11    1    1    2    0    0  0.38130164658E+02 -0.76205407017E+01  0.40205232887E+02  0.55932484737E+02  0.00000000000E+00 0.  1.
<mgrwt>
<rscale>  0 0.12223039E+03</rscale>
<asrwt>0</asrwt>
<pdfrwt beam="2">  1        1 0.27163449E-01 0.13054627E+03</pdfrwt>
<pdfrwt beam="1">  1       -1 0.14476953E-01 0.13054627E+03</pdfrwt>
<totfact> 0.55649593E+03</totfact>
</mgrwt>
</event>
<event>
 6    1  0.4705246E-006  0.1395230E+03  0.7546771E-02  0.1224659E+00
          1   -1    0    0  501    0  0.00000000000E+00  0.00000000000E+00  0.65615560477E+03  0.65615560477E+03  0.00000000000E+00 0. -1.
         -1   -1    0    0    0  501 -0.00000000000E+00 -0.00000000000E+00 -0.24480796135E+02  0.24480796135E+02  0.00000000000E+00 0.  1.
          5    1    1    2  502    0 -0.78592026100E+02 -0.53284874646E+02  0.27988668404E+03  0.29559199978E+03  0.47000000000E+01 0. -1.
         -5    1    1    2    0  502  0.18006801249E+02  0.40223038673E+02  0.11803605083E+03  0.12608226293E+03  0.47000000000E+01 0. -1.
        -11    1    1    2    0    0 -0.91406306630E+01 -0.26462531828E+02  0.91468905981E+02  0.95657605453E+02  0.00000000000E+00 0.  1.
         11    1    1    2    0    0  0.69725855514E+02  0.39524367801E+02  0.14228316779E+03  0.16330453274E+03  0.00000000000E+00 0. -1.
<mgrwt>
<rscale>  0 0.13190328E+03</rscale>
<asrwt>0</asrwt>
<pdfrwt beam="1">  1        1 0.10094700E+00 0.13952305E+03</pdfrwt>
<pdfrwt beam="2">  1       -1 0.37662768E-02 0.13952305E+03</pdfrwt>
<totfact> 0.80167410E+03</totfact>
</mgrwt>
</event>
<event>
 6    1  0.4705246E-006  0.1356638E+03  0.7546771E-02  0.1231262E+00
          1   -1    0    0  501    0  0.00000000000E+00  0.00000000000E+00  0.89674841879E+02  0.89674841879E+02  0.00000000000E+00 0. -1.
         -1   -1    0    0    0  501 -0.00000000000E+00 -0.00000000000E+00 -0.16459996634E+03  0.16459996634E+03  0.00000000000E+00 0.  1.
          5    1    1    2  502    0 -0.34333145792E+02  0.16320225113E+02 -0.41693048785E+02  0.56617267372E+02  0.47000000000E+01 0.  1.
         -5    1    1    2    0  502  0.79810694434E+02  0.10370955094E+02  0.14050627119E+02  0.81834062456E+02  0.47000000000E+01 0.  1.
        -11    1    1    2    0    0  0.26299441907E+02  0.56787175541E+01 -0.14129508890E+02  0.30389990115E+02  0.00000000000E+00 0. -1.
         11    1    1    2    0    0 -0.71776990549E+02 -0.32369897761E+02 -0.33153193908E+02  0.85433488280E+02  0.00000000000E+00 0.  1.
<mgrwt>
<rscale>  0 0.12746778E+03</rscale>
<asrwt>0</asrwt>
<pdfrwt beam="1">  1        1 0.13796130E-01 0.13566380E+03</pdfrwt>
<pdfrwt beam="2">  1       -1 0.25323071E-01 0.13566380E+03</pdfrwt>
<totfact> 0.54046713E+03</totfact>
</mgrwt>
</event>
<event>
 6    1  0.4705246E-006  0.1748210E+03  0.7546771E-02  0.1180338E+00
          2   -1    0    0  501    0  0.00000000000E+00  0.00000000000E+00  0.12080637223E+03  0.12080637223E+03  0.00000000000E+00 0. -1.
         -2   -1    0    0    0  501 -0.00000000000E+00 -0.00000000000E+00 -0.21727140694E+03  0.21727140694E+03  0.00000000000E+00 0.  1.
          5    1    1    2  502    0 -0.67531843070E+02 -0.39596220729E+02 -0.66861037725E+02  0.10305774542E+03  0.47000000000E+01 0.  1.
         -5    1    1    2    0  502 -0.54656812715E+02  0.42200168592E+02  0.30285903628E+02  0.75548311457E+02  0.47000000000E+01 0.  1.
        -11    1    1    2    0    0  0.81537011485E+02 -0.24087721520E+02 -0.72564814441E+02  0.11177725558E+03  0.00000000000E+00 0.  1.
         11    1    1    2    0    0  0.40651644300E+02  0.21483773657E+02  0.12674913831E+02  0.47694466717E+02  0.00000000000E+00 0. -1.
<mgrwt>
<rscale>  0 0.16763427E+03</rscale>
<asrwt>0</asrwt>
<pdfrwt beam="1">  1        2 0.18585596E-01 0.17482100E+03</pdfrwt>
<pdfrwt beam="2">  1       -2 0.33426370E-01 0.17482100E+03</pdfrwt>
<totfact> 0.24774191E+03</totfact>
</mgrwt>
</event>
<event>
 6    1  0.4705246E-006  0.1252958E+03  0.7546771E-02  0.1248930E+00
         -1   -1    0    0    0  501 -0.00000000000E+00  0.00000000000E+00  0.33458713743E+02  0.33458713743E+02  0.00000000000E+00 0.  1.
          1   -1    0    0  501    0  0.00000000000E+00 -0.00000000000E+00 -0.43531465036E+03  0.43531465036E+03  0.00000000000E+00 0. -1.
          5    1    1    2  502    0  0.11704489035E+02  0.23421781974E+02 -0.32269738115E+03  0.32379200845E+03  0.47000000000E+01 0.  1.
         -5    1    1    2    0  502 -0.33034024731E+01 -0.21304165121E+02  0.33138620970E+00  0.22067617366E+02  0.47000000000E+01 0.  1.
        -11    1    1    2    0    0 -0.32298723809E+02 -0.38266891516E+02 -0.47811786246E+02  0.69235319382E+02  0.00000000000E+00 0.  1.
         11    1    1    2    0    0  0.23897637247E+02  0.36149274663E+02 -0.31678155431E+02  0.53678418905E+02  0.00000000000E+00 0. -1.
<mgrwt>
<rscale>  0 0.11653215E+03</rscale>
<asrwt>0</asrwt>
<pdfrwt beam="2">  1        1 0.66971484E-01 0.12529583E+03</pdfrwt>
<pdfrwt beam="1">  1       -1 0.51474944E-02 0.12529583E+03</pdfrwt>
<totfact> 0.86595227E+03</totfact>
</mgrwt>
</event>
<event>
 6    1  0.4705246E-006  0.1378339E+03  0.7546771E-02  0.1228399E+00
         -2   -1    0    0    0  501 -0.00000000000E+00  0.00000000000E+00  0.20359849325E+02  0.20359849325E+02  0.00000000000E+00 0.  1.
          2   -1    0    0  501    0  0.00000000000E+00 -0.00000000000E+00 -0.88504837642E+03  0.88504837642E+03  0.00000000000E+00 0. -1.
          5    1    1    2  502    0  0.24361097667E+02 -0.83149543702E+02 -0.59547689139E+03  0.60176584140E+03  0.47000000000E+01 0.  1.
         -5    1    1    2    0  502  0.46555929869E+01  0.32792090830E+02 -0.66872881643E+02  0.74773444927E+02  0.47000000000E+01 0.  1.
        -11    1    1    2    0    0 -0.19889022244E+02 -0.21943096750E+02 -0.91894525667E+02  0.96548829865E+02  0.00000000000E+00 0.  1.
         11    1    1    2    0    0 -0.91276684093E+01  0.72300549622E+02 -0.11044422840E+03  0.13232010956E+03  0.00000000000E+00 0. -1.
<mgrwt>
<rscale>  0 0.12936607E+03</rscale>
<asrwt>0</asrwt>
<pdfrwt beam="2">  1        2 0.13616132E+00 0.13783390E+03</pdfrwt>
<pdfrwt beam="1">  1       -2 0.31322837E-02 0.13783390E+03</pdfrwt>
<totfact> 0.11845057E+04</totfact>
</mgrwt>
</event>
<event>
 6    1  0.4705246E-006  0.1291628E+03  0.7546771E-02  0.1243556E+00
         -2   -1    0    0    0  501 -0.00000000000E+00  0.00000000000E+00  0.20730834470E+02  0.20730834470E+02  0.00000000000E+00 0.  1.
          2   -1    0    0  501    0  0.00000000000E+00 -0.00000000000E+00 -0.72941446738E+03  0.72941446738E+03  0.00000000000E+00 0. -1.
          5    1    1    2  502    0  0.63555089662E+02 -0.33066567991E+02 -0.35375740859E+03  0.36096958525E+03  0.47000000000E+01 0.  1.
         -5    1    1    2    0  502 -0.55497133815E+02  0.15628535807E+01 -0.19674836811E+03  0.20448565898E+03  0.47000000000E+01 0.  1.
        -11    1    1    2    0    0  0.12892333380E+02  0.53310555128E+02 -0.57054035761E+02  0.79141585432E+02  0.00000000000E+00 0.  1.
         11    1    1    2    0    0 -0.20950289227E+02 -0.21806840719E+02 -0.10112382045E+03  0.10554847220E+03  0.00000000000E+00 0. -1.
<mgrwt>
<rscale>  0 0.11972218E+03</rscale>
<asrwt>0</asrwt>
<pdfrwt beam="2">  1        2 0.11221762E+00 0.12916278E+03</pdfrwt>
<pdfrwt beam="1">  1       -2 0.31893590E-02 0.12916278E+03</pdfrwt>
<totfact> 0.14613692E+04</totfact>
</mgrwt>
</event>
<event>
 6    1  0.4705246E-006  0.1688417E+03  0.7546771E-02  0.1185530E+00
         -1   -1    0    0    0  501 -0.00000000000E+00  0.00000000000E+00  0.59332517358E+03  0.59332517358E+03  0.00000000000E+00 0.  1.
          1   -1    0    0  501    0  0.00000000000E+00 -0.00000000000E+00 -0.42482689634E+02  0.42482689634E+02  0.00000000000E+00 0. -1.
          5    1    1    2  502    0  0.68129059271E+02 -0.12917919280E+02  0.56143915750E+02  0.89345792466E+02  0.47000000000E+01 0.  1.
         -5    1    1    2    0  502  0.39896351100E+02  0.47730045427E+02  0.27943866572E+03  0.28631788970E+03  0.47000000000E+01 0.  1.
        -11    1    1    2    0    0 -0.48891402588E+01  0.25855217974E+02  0.42719383286E+02  0.50173117277E+02  0.00000000000E+00 0. -1.
         11    1    1    2    0    0 -0.10313627011E+03 -0.60667344121E+02  0.17254051920E+03  0.20997106377E+03  0.00000000000E+00 0.  1.
<mgrwt>
<rscale>  0 0.16283753E+03</rscale>
<asrwt>0</asrwt>
<pdfrwt beam="2">  1        1 0.65357988E-02 0.16884174E+03</pdfrwt>
<pdfrwt beam="1">  1       -1 0.91280790E-01 0.16884174E+03</pdfrwt>
<totfact> 0.13940786E+03</totfact>
</mgrwt>
</event>
<event>
 6    1  0.4705246E-006  0.1582457E+03  0.7546771E-02  0.1197376E+00
          2   -1    0    0  501    0  0.00000000000E+00  0.00000000000E+00  0.22361803233E+03  0.22361803233E+03  0.00000000000E+00 0. -1.
         -2   -1    0    0    0  501 -0.00000000000E+00 -0.00000000000E+00 -0.12535184860E+03  0.12535184860E+03  0.00000000000E+00 0.  1.
          5    1    1    2  502    0 -0.37909689493E+01  0.49046186451E+02  0.13719964869E+03  0.14582775268E+03  0.47000000000E+01 0. -1.
         -5    1    1    2    0  502  0.49490187595E+02  0.36586530296E+02 -0.28019635843E+01  0.61788298789E+02  0.47000000000E+01 0. -1.
        -11    1    1    2    0    0 -0.54035372498E+02 -0.53844158731E+02  0.17676577957E+02  0.78303743964E+02  0.00000000000E+00 0. -1.
         11    1    1    2    0    0  0.83361538521E+01 -0.31788558015E+02 -0.53808079327E+02  0.63050085509E+02  0.00000000000E+00 0.  1.
<mgrwt>
<rscale>  0 0.15254839E+03</rscale>
<asrwt>0</asrwt>
<pdfrwt beam="1">  1        2 0.34402774E-01 0.15824565E+03</pdfrwt>
<pdfrwt beam="2">  1       -2 0.19284900E-01 0.15824565E+03</pdfrwt>
<totfact> 0.32802587E+03</totfact>
</mgrwt>
</event>
<event>
 6    1  0.4705246E-006  0.1593373E+03  0.7546771E-02  0.1210445E+00
         -2   -1    0    0    0  501 -0.00000000000E+00  0.00000000000E+00  0.56642906997E+03  0.56642906997E+03  0.00000000000E+00 0.  1.
          2   -1    0    0  501    0  0.00000000000E+00 -0.00000000000E+00 -0.36118923193E+02  0.36118923193E+02  0.00000000000E+00 0. -1.
          5    1    1    2  502    0 -0.59108040068E+01 -0.46265754813E+02 -0.50543674847E+01  0.47149700987E+02  0.47000000000E+01 0. -1.
         -5    1    1    2    0  502 -0.16414766723E+02 -0.42652000603E+02  0.19712948349E+03  0.20241235383E+03  0.47000000000E+01 0.  1.
        -11    1    1    2    0    0  0.33649446098E+02  0.78707007490E+02  0.29321285072E+03  0.30545188505E+03  0.00000000000E+00 0. -1.
         11    1    1    2    0    0 -0.11323875369E+02  0.10210747926E+02  0.45022180054E+02  0.47534053303E+02  0.00000000000E+00 0.  1.
<mgrwt>
<rscale>  0 0.14216494E+03</rscale>
<asrwt>0</asrwt>
<pdfrwt beam="2">  1        2 0.55567578E-02 0.15933728E+03</pdfrwt>
<pdfrwt beam="1">  1       -2 0.87142927E-01 0.15933728E+03</pdfrwt>
<totfact> 0.15653820E+03</totfact>
</mgrwt>
</event>
<event>
 6    1  0.4705246E-006  0.1262888E+03  0.7546771E-02  0.1281153E+00
          2   -1    0    0  501    0  0.00000000000E+00  0.00000000000E+00  0.54496130202E+02  0.54496130202E+02  0.00000000000E+00 0. -1.
         -2   -1    0    0    0  501 -0.00000000000E+00 -0.00000000000E+00 -0.14300066823E+03  0.14300066823E+03  0.00000000000E+00 0.  1.
          5    1    1    2  502    0 -0.63101120074E+02 -0.26007625525E+02 -0.70064141194E+01  0.68770108178E+02  0.47000000000E+01 0. -1.
         -5    1    1    2    0  502  0.47345721186E+02  0.17292147727E+02 -0.45264440698E+02  0.67908727564E+02  0.47000000000E+01 0. -1.
        -11    1    1    2    0    0 -0.12528785348E+02  0.93706400358E+00 -0.27463280295E+02  0.30200667473E+02  0.00000000000E+00 0.  1.
         11    1    1    2    0    0  0.28284184236E+02  0.77784137948E+01 -0.87704029153E+01  0.30617295216E+02  0.00000000000E+00 0. -1.
<mgrwt>
<rscale>  0 0.99593544E+02</rscale>
<asrwt>0</asrwt>
<pdfrwt beam="1">  1        2 0.83840201E-02 0.12628880E+03</pdfrwt>
<pdfrwt beam="2">  1       -2 0.22000103E-01 0.12628880E+03</pdfrwt>
<totfact> 0.13212017E+04</totfact>
</mgrwt>
</event>
<event>
 6    1  0.4705246E-006  0.1473540E+03  0.7546771E-02  0.1213192E+00
          4   -1    0    0  501    0  0.00000000000E+00  0.00000000000E+00  0.54682804341E+02  0.54682804341E+02  0.00000000000E+00 0. -1.
         -4   -1    0    0    0  501 -0.00000000000E+00 -0.00000000000E+00 -0.33692152270E+03  0.33692152270E+03  0.00000000000E+00 0.  1.
          5    1    1    2  502    0  0.12032535950E+01  0.37103396003E+02  0.19944904467E+01  0.37472360565E+02  0.47000000000E+01 0. -1.
         -5    1    1    2    0  502  0.67106066831E+02  0.60354331963E+00 -0.18897745769E+03  0.20059451136E+03  0.47000000000E+01 0. -1.
        -11    1    1    2    0    0 -0.37950290575E+02  0.27290332149E+02 -0.51308313823E+02  0.69408427809E+02  0.00000000000E+00 0.  1.
         11    1    1    2    0    0 -0.30359029850E+02 -0.64997271472E+02 -0.43947437294E+02  0.84129027315E+02  0.00000000000E+00 0. -1.
<mgrwt>
<rscale>  0 0.14010151E+03</rscale>
<asrwt>0</asrwt>
<pdfrwt beam="1">  1        4 0.84127389E-02 0.14735401E+03</pdfrwt>
<pdfrwt beam="2">  1       -4 0.51834082E-01 0.14735401E+03</pdfrwt>
<totfact> 0.61583922E+02</totfact>
</mgrwt>
</event>
<event>
 6    1  0.4705246E-006  0.1306715E+03  0.7546771E-02  0.1241002E+00
          1   -1    0    0  501    0  0.00000000000E+00  0.00000000000E+00  0.46976769349E+03  0.46976769349E+03  0.00000000000E+00 0. -1.
         -1   -1    0    0    0  501 -0.00000000000E+00 -0.00000000000E+00 -0.27732436496E+02  0.27732436496E+02  0.00000000000E+00 0.  1.
          5    1    1    2  502    0 -0.18615928724E+02 -0.45076093446E+02  0.80083459476E+02  0.93882146781E+02  0.47000000000E+01 0. -1.
         -5    1    1    2    0  502  0.27408378380E+01  0.79692869558E+02  0.19198786098E+03  0.20794204580E+03  0.47000000000E+01 0. -1.
        -11    1    1    2    0    0  0.50608615376E+02 -0.16195140074E+02  0.67349367037E+02  0.85787247028E+02  0.00000000000E+00 0.  1.
         11    1    1    2    0    0 -0.34733524490E+02 -0.18421636038E+02  0.10261456950E+03  0.10988869037E+03  0.00000000000E+00 0. -1.
<mgrwt>
<rscale>  0 0.12127864E+03</rscale>
<asrwt>0</asrwt>
<pdfrwt beam="1">  1        1 0.72271948E-01 0.13067150E+03</pdfrwt>
<pdfrwt beam="2">  1       -1 0.42665290E-02 0.13067150E+03</pdfrwt>
<totfact> 0.10390961E+04</totfact>
</mgrwt>
</event>
<event>
 6    1  0.4705246E-006  0.1827455E+03  0.7546771E-02  0.1169765E+00
          2   -1    0    0  501    0  0.00000000000E+00  0.00000000000E+00  0.52749813419E+03  0.52749813419E+03  0.00000000000E+00 0. -1.
         -2   -1    0    0    0  501 -0.00000000000E+00 -0.00000000000E+00 -0.64825691798E+02  0.64825691798E+02  0.00000000000E+00 0.  1.
          5    1    1    2  502    0  0.39659272259E+02 -0.77444894802E+00  0.15234677554E+02  0.42750942066E+02  0.47000000000E+01 0. -1.
         -5    1    1    2    0  502  0.52970830582E+02  0.96638104436E+02  0.32877985878E+03  0.34678973119E+03  0.47000000000E+01 0. -1.
        -11    1    1    2    0    0 -0.82396151123E+02 -0.56722287769E+02  0.12680711469E+03  0.16151342974E+03  0.00000000000E+00 0. -1.
         11    1    1    2    0    0 -0.10233951718E+02 -0.39141367719E+02 -0.81492086297E+01  0.41269722994E+02  0.00000000000E+00 0.  1.
<mgrwt>
<rscale>  0 0.17798712E+03</rscale>
<asrwt>0</asrwt>
<pdfrwt beam="1">  1        2 0.81153556E-01 0.18274555E+03</pdfrwt>
<pdfrwt beam="2">  1       -2 0.99731837E-02 0.18274555E+03</pdfrwt>
<totfact> 0.38333142E+03</totfact>
</mgrwt>
</event>
<event>
 6    1  0.4705246E-006  0.2362237E+03  0.7546771E-02  0.1122334E+00
          1   -1    0    0  501    0  0.00000000000E+00  0.00000000000E+00  0.30618191443E+03  0.30618191443E+03  0.00000000000E+00 0. -1.
         -1   -1    0    0    0  501 -0.00000000000E+00 -0.00000000000E+00 -0.45562500445E+02  0.45562500445E+02  0.00000000000E+00 0.  1.
          5    1    1    2  502    0 -0.46277375274E+02  0.54293364104E+02  0.52057685412E+02  0.88439004169E+02  0.47000000000E+01 0.  1.
         -5    1    1    2    0  502  0.33753784487E+02 -0.18172407392E+02  0.13047272343E+03  0.13606901160E+03  0.47000000000E+01 0.  1.
        -11    1    1    2    0    0 -0.35010299016E+02 -0.31123349628E+02  0.60025674091E+02  0.76141089297E+02  0.00000000000E+00 0. -1.
         11    1    1    2    0    0  0.47533889802E+02 -0.49976070846E+01  0.18063331054E+02  0.51095309815E+02  0.00000000000E+00 0.  1.
<mgrwt>
<rscale>  0 0.23622374E+03</rscale>
<asrwt>0</asrwt>
<pdfrwt beam="1">  1        1 0.47104909E-01 0.23622374E+03</pdfrwt>
<pdfrwt beam="2">  1       -1 0.70096157E-02 0.23622374E+03</pdfrwt>
<totfact> 0.88541486E+03</totfact>
</mgrwt>
</event>
<event>
 6    1  0.4705246E-006  0.1551113E+03  0.7546771E-02  0.1202684E+00
         -2   -1    0    0    0  501 -0.00000000000E+00  0.00000000000E+00  0.30524514629E+03  0.30524514629E+03  0.00000000000E+00 0.  1.
          2   -1    0    0  501    0  0.00000000000E+00 -0.00000000000E+00 -0.72826802954E+02  0.72826802954E+02  0.00000000000E+00 0. -1.
          5    1    1    2  502    0 -0.52796070243E+02  0.16081298671E+02 -0.31569447412E+00  0.55391541439E+02  0.47000000000E+01 0. -1.
         -5    1    1    2    0  502  0.50119700493E+02  0.75713520454E+02  0.69539811327E+02  0.11446570192E+03  0.47000000000E+01 0. -1.
        -11    1    1    2    0    0 -0.24986163426E+02 -0.80944549912E+02  0.15619286697E+03  0.17768663489E+03  0.00000000000E+00 0.  1.
         11    1    1    2    0    0  0.27662533177E+02 -0.10850269212E+02  0.70013595056E+01  0.30528070995E+02  0.00000000000E+00 0. -1.
<mgrwt>
<rscale>  0 0.14821437E+03</rscale>
<asrwt>0</asrwt>
<pdfrwt beam="2">  1        2 0.11204124E-01 0.15511127E+03</pdfrwt>
<pdfrwt beam="1">  1       -2 0.46960791E-01 0.15511127E+03</pdfrwt>
<totfact> 0.23516667E+03</totfact>
</mgrwt>
</event>
<event>
 6    1  0.4705246E-006  0.2409600E+03  0.7546771E-02  0.1121893E+00
         -2   -1    0    0    0  501 -0.00000000000E+00  0.00000000000E+00  0.22600911052E+03  0.22600911052E+03  0.00000000000E+00 0. -1.
          2   -1    0    0  501    0  0.00000000000E+00 -0.00000000000E+00 -0.26191992722E+03  0.26191992722E+03  0.00000000000E+00 0.  1.
          5    1    1    2  502    0  0.10369404566E+02  0.61687849709E+02  0.29846346524E+02  0.69468048437E+02  0.47000000000E+01 0. -1.
         -5    1    1    2    0  502  0.59916672169E+02  0.13195034833E+03 -0.11859042309E+03  0.18731438940E+03  0.47000000000E+01 0. -1.
        -11    1    1    2    0    0  0.19833031141E+02 -0.41901530524E+02 -0.18287869673E+01  0.46394308339E+02  0.00000000000E+00 0.  1.
         11    1    1    2    0    0 -0.90119107876E+02 -0.15173666751E+03  0.54662046830E+02  0.18475229156E+03  0.00000000000E+00 0. -1.
<mgrwt>
<rscale>  0 0.23687411E+03</rscale>
<asrwt>0</asrwt>
<pdfrwt beam="2">  1        2 0.40295374E-01 0.24095997E+03</pdfrwt>
<pdfrwt beam="1">  1       -2 0.34770632E-01 0.24095997E+03</pdfrwt>
<totfact> 0.98537565E+02</totfact>
</mgrwt>
</event>
<event>
 6    1  0.4705246E-006  0.1738061E+03  0.7546771E-02  0.1180295E+00
         -4   -1    0    0    0  501 -0.00000000000E+00  0.00000000000E+00  0.78100879374E+02  0.78100879374E+02  0.00000000000E+00 0.  1.
          4   -1    0    0  501    0  0.00000000000E+00 -0.00000000000E+00 -0.34702856519E+03  0.34702856519E+03  0.00000000000E+00 0. -1.
          5    1    1    2  502    0  0.42913820048E+02 -0.28116595230E+02 -0.16362257295E+03  0.17154175951E+03  0.47000000000E+01 0. -1.
         -5    1    1    2    0  502  0.76382346885E+02  0.94178985115E+01 -0.16669579759E+02  0.78885515891E+02  0.47000000000E+01 0. -1.
        -11    1    1    2    0    0 -0.22348715981E+02  0.72435716390E+01 -0.71919570043E+02  0.75659493729E+02  0.00000000000E+00 0. -1.
         11    1    1    2    0    0 -0.96947450951E+02  0.11455125080E+02 -0.16715963072E+02  0.99042675438E+02  0.00000000000E+00 0.  1.
<mgrwt>
<rscale>  0 0.16767459E+03</rscale>
<asrwt>0</asrwt>
<pdfrwt beam="2">  1        4 0.53389009E-01 0.17380610E+03</pdfrwt>
<pdfrwt beam="1">  1       -4 0.12015520E-01 0.17380610E+03</pdfrwt>
<totfact> 0.32661106E+02</totfact>
</mgrwt>
</event>
<event>
 6    1  0.4705246E-006  0.1584767E+03  0.7546771E-02  0.1191479E+00
          1   -1    0    0  501    0  0.00000000000E+00  0.00000000000E+00  0.93807319365E+03  0.93807319365E+03  0.00000000000E+00 0. -1.
         -1   -1    0    0    0  501 -0.00000000000E+00 -0.00000000000E+00 -0.26184034139E+02  0.26184034139E+02  0.00000000000E+00 0.  1.
          5    1    1    2  502    0  0.19315811195E+02 -0.23596132894E+02  0.13292429223E+03  0.13645818229E+03  0.47000000000E+01 0. -1.
         -5    1    1    2    0  502 -0.88785243066E+02  0.82958296858E+02  0.33149490247E+03  0.35309468811E+03  0.47000000000E+01 0. -1.
        -11    1    1    2    0    0  0.16142302844E+02  0.66389483821E+01 -0.17491584481E+01  0.17541639947E+02  0.00000000000E+00 0.  1.
         11    1    1    2    0    0  0.53327129027E+02 -0.66001112346E+02  0.44921912326E+03  0.45716271745E+03  0.00000000000E+00 0. -1.
<mgrwt>
<rscale>  0 0.15756073E+03</rscale>
<asrwt>0</asrwt>
<pdfrwt beam="1">  1        1 0.14431893E+00 0.15847668E+03</pdfrwt>
<pdfrwt beam="2">  1       -1 0.40283137E-02 0.15847668E+03</pdfrwt>
<totfact> 0.42651808E+03</totfact>
</mgrwt>
</event>
<event>
 6    1  0.4705246E-006  0.1779449E+03  0.7546771E-02  0.1176509E+00
         -1   -1    0    0    0  501 -0.00000000000E+00  0.00000000000E+00  0.12427305909E+03  0.12427305909E+03  0.00000000000E+00 0.  1.
          1   -1    0    0  501    0  0.00000000000E+00 -0.00000000000E+00 -0.32470960644E+03  0.32470960644E+03  0.00000000000E+00 0. -1.
          5    1    1    2  502    0 -0.19416892563E+02 -0.39901660352E+02 -0.13298345651E+03  0.14027062387E+03  0.47000000000E+01 0. -1.
         -5    1    1    2    0  502  0.99965370716E+02 -0.57832557388E+02 -0.99607743477E+02  0.15258267463E+03  0.47000000000E+01 0. -1.
        -11    1    1    2    0    0  0.15590083759E+02  0.21397604942E+02 -0.68061749146E+01  0.27335548757E+02  0.00000000000E+00 0.  1.
         11    1    1    2    0    0 -0.96138561912E+02  0.76336612798E+02  0.38960827550E+02  0.12879381827E+03  0.00000000000E+00 0. -1.
<mgrwt>
<rscale>  0 0.17129019E+03</rscale>
<asrwt>0</asrwt>
<pdfrwt beam="2">  1        1 0.49955323E-01 0.17794490E+03</pdfrwt>
<pdfrwt beam="1">  1       -1 0.19118932E-01 0.17794490E+03</pdfrwt>
<totfact> 0.17014587E+03</totfact>
</mgrwt>
</event>
<event>
 6    1  0.4705246E-006  0.1798733E+03  0.7546771E-02  0.1172378E+00
         -3   -1    0    0    0  501 -0.00000000000E+00  0.00000000000E+00  0.99828727290E+02  0.99828727290E+02  0.00000000000E+00 0.  1.
          3   -1    0    0  501    0  0.00000000000E+00 -0.00000000000E+00 -0.29353157428E+03  0.29353157428E+03  0.00000000000E+00 0. -1.
          5    1    1    2  502    0  0.23071345535E+02 -0.84296550513E+02 -0.12288191321E+03  0.15086500591E+03  0.47000000000E+01 0. -1.
         -5    1    1    2    0  502 -0.29472815380E+02 -0.44890870330E+02  0.18631184919E+02  0.57035498918E+02  0.47000000000E+01 0. -1.
        -11    1    1    2    0    0 -0.41121316213E+02  0.39280831584E+02 -0.52093160629E+02  0.77120968363E+02  0.00000000000E+00 0.  1.
         11    1    1    2    0    0  0.47522786058E+02  0.89906589259E+02 -0.37358958067E+02  0.10833882838E+03  0.00000000000E+00 0. -1.
<mgrwt>
<rscale>  0 0.17535271E+03</rscale>
<asrwt>0</asrwt>
<pdfrwt beam="2">  1        3 0.45158702E-01 0.17987330E+03</pdfrwt>
<pdfrwt beam="1">  1       -3 0.15358266E-01 0.17987330E+03</pdfrwt>
<totfact> 0.42072482E+02</totfact>
</mgrwt>
</event>
<event>
 6    1  0.4705246E-006  0.2700842E+03  0.7546771E-02  0.1103251E+00
         -1   -1    0    0    0  501 -0.00000000000E+00  0.00000000000E+00  0.12684327434E+04  0.12684327434E+04  0.00000000000E+00 0.  1.
          1   -1    0    0  501    0  0.00000000000E+00 -0.00000000000E+00 -0.55478041867E+02  0.55478041867E+02  0.00000000000E+00 0. -1.
          5    1    1    2  502    0 -0.99253135878E+01 -0.97522909340E+02  0.94437330093E+02  0.13619738988E+03  0.47000000000E+01 0. -1.
         -5    1    1    2    0  502 -0.29848617299E+02 -0.13856858937E+03  0.44536918118E+03  0.46740559631E+03  0.47000000000E+01 0. -1.
        -11    1    1    2    0    0  0.55918010896E+02  0.19970701011E+03  0.62093149480E+03  0.65464924583E+03  0.00000000000E+00 0. -1.
         11    1    1    2    0    0 -0.16144080009E+02  0.36384488601E+02  0.52216695465E+02  0.65658553253E+02  0.00000000000E+00 0.  1.
<mgrwt>
<rscale>  0 0.26658294E+03</rscale>
<asrwt>0</asrwt>
<pdfrwt beam="2">  1        1 0.85350843E-02 0.27008424E+03</pdfrwt>
<pdfrwt beam="1">  1       -1 0.19514348E+00 0.27008424E+03</pdfrwt>
<totfact> 0.14345426E+02</totfact>
</mgrwt>
</event>
<event>
 6    1  0.4705246E-006  0.1273515E+03  0.7546771E-02  0.1249930E+00
          2   -1    0    0  501    0  0.00000000000E+00  0.00000000000E+00  0.85879859981E+02  0.85879859981E+02  0.00000000000E+00 0.  1.
         -2   -1    0    0    0  501 -0.00000000000E+00 -0.00000000000E+00 -0.18043015304E+03  0.18043015304E+03  0.00000000000E+00 0. -1.
          5    1    1    2  502    0  0.56429787725E+02 -0.97430178229E+01  0.95927890247E+01  0.58252544496E+02  0.47000000000E+01 0. -1.
         -5    1    1    2    0  502 -0.68536155331E+02 -0.11513113643E+02  0.29944920344E+01  0.69719533531E+02  0.47000000000E+01 0. -1.
        -11    1    1    2    0    0 -0.14793542096E+02  0.37448478510E+02 -0.18514185456E+02  0.44317180569E+02  0.00000000000E+00 0.  1.
         11    1    1    2    0    0  0.26899909702E+02 -0.16192347044E+02 -0.88623388659E+02  0.94020754423E+02  0.00000000000E+00 0. -1.
<mgrwt>
<rscale>  0 0.11595090E+03</rscale>
<asrwt>0</asrwt>
<pdfrwt beam="1">  1        2 0.13212286E-01 0.12735153E+03</pdfrwt>
<pdfrwt beam="2">  1       -2 0.27758485E-01 0.12735153E+03</pdfrwt>
<totfact> 0.50704019E+03</totfact>
</mgrwt>
</event>
<event>
 6    1  0.4705246E-006  0.1492518E+03  0.7546771E-02  0.1210456E+00
          1   -1    0    0  501    0  0.00000000000E+00  0.00000000000E+00  0.27667652830E+03  0.27667652830E+03  0.00000000000E+00 0. -1.
         -1   -1    0    0    0  501 -0.00000000000E+00 -0.00000000000E+00 -0.70024346110E+02  0.70024346110E+02  0.00000000000E+00 0.  1.
          5    1    1    2  502    0  0.57719637465E+02 -0.24272069936E+01  0.15635966453E+03  0.16675695660E+03  0.47000000000E+01 0. -1.
         -5    1    1    2    0  502  0.10232173093E+02 -0.42409499357E+02 -0.69532170303E+01  0.44426346114E+02  0.47000000000E+01 0. -1.
        -11    1    1    2    0    0 -0.19851049127E+02 -0.21549522484E+02  0.43417879271E+02  0.52378987305E+02  0.00000000000E+00 0. -1.
         11    1    1    2    0    0 -0.48100761431E+02  0.66386228835E+02  0.13827855420E+02  0.83138584392E+02  0.00000000000E+00 0.  1.
<mgrwt>
<rscale>  0 0.14215706E+03</rscale>
<asrwt>0</asrwt>
<pdfrwt beam="1">  1        1 0.42565619E-01 0.14925180E+03</pdfrwt>
<pdfrwt beam="2">  1       -1 0.10772976E-01 0.14925180E+03</pdfrwt>
<totfact> 0.50761784E+03</totfact>
</mgrwt>
</event>
<event>
 6    1  0.9486289E-006  0.1795275E+03  0.7546771E-02  0.1173729E+00
         -1   -1    0    0    0  501 -0.00000000000E+00  0.00000000000E+00  0.30574296744E+03  0.30574296744E+03  0.00000000000E+00 0.  1.
          1   -1    0    0  501    0  0.00000000000E+00 -0.00000000000E+00 -0.98523340721E+02  0.98523340721E+02  0.00000000000E+00 0. -1.
          5    1    1    2  502    0  0.10269741896E+03  0.29394866095E+02  0.65076462668E+01  0.10712262821E+03  0.47000000000E+01 0.  1.
         -5    1    1    2    0  502 -0.95938564976E+01  0.59688248011E+02  0.57242300014E+02  0.83387648630E+02  0.47000000000E+01 0.  1.
        -11    1    1    2    0    0 -0.88073505264E+02 -0.47437489701E+02  0.13944328906E+03  0.17161494289E+03  0.00000000000E+00 0.  1.
         11    1    1    2    0    0 -0.50300571983E+01 -0.41645624405E+02  0.40263913830E+01  0.42141088442E+02  0.00000000000E+00 0. -1.
<mgrwt>
<rscale>  0 0.17401027E+03</rscale>
<asrwt>0</asrwt>
<pdfrwt beam="2">  1        1 0.15157437E-01 0.17952746E+03</pdfrwt>
<pdfrwt beam="1">  1       -1 0.47037379E-01 0.17952746E+03</pdfrwt>
<totfact> 0.16678077E+03</totfact>
</mgrwt>
</event>
<event>
 6    1  0.4705246E-006  0.1335139E+03  0.7546771E-02  0.1232281E+00
         -2   -1    0    0    0  501 -0.00000000000E+00  0.00000000000E+00  0.12912043400E+03  0.12912043400E+03  0.00000000000E+00 0.  1.
          2   -1    0    0  501    0  0.00000000000E+00 -0.00000000000E+00 -0.15381691897E+03  0.15381691897E+03  0.00000000000E+00 0. -1.
          5    1    1    2  502    0 -0.22058761908E+02  0.55695319661E+02 -0.68678135379E+02  0.91254226686E+02  0.47000000000E+01 0. -1.
         -5    1    1    2    0  502 -0.24654680554E+02 -0.60097336994E+02 -0.16736909946E+02  0.67244013425E+02  0.47000000000E+01 0. -1.
        -11    1    1    2    0    0  0.15334313601E+02 -0.57437569275E+01 -0.26524061533E+02  0.31171425336E+02  0.00000000000E+00 0. -1.
         11    1    1    2    0    0  0.31379128860E+02  0.10145774260E+02  0.87242621880E+02  0.93267687523E+02  0.00000000000E+00 0.  1.
<mgrwt>
<rscale>  0 0.12680095E+03</rscale>
<asrwt>0</asrwt>
<pdfrwt beam="2">  1        2 0.23664141E-01 0.13351390E+03</pdfrwt>
<pdfrwt beam="1">  1       -2 0.19864682E-01 0.13351390E+03</pdfrwt>
<totfact> 0.46505529E+03</totfact>
</mgrwt>
</event>
<event>
 6    1  0.4705246E-006  0.1297349E+03  0.7546771E-02  0.1241390E+00
         -2   -1    0    0    0  501 -0.00000000000E+00  0.00000000000E+00  0.34289954666E+02  0.34289954666E+02  0.00000000000E+00 0.  1.
          2   -1    0    0  501    0  0.00000000000E+00 -0.00000000000E+00 -0.38072601113E+03  0.38072601113E+03  0.00000000000E+00 0. -1.
          5    1    1    2  502    0 -0.11749262182E+02 -0.15367885632E+02  0.14510295018E+02  0.24634441990E+02  0.47000000000E+01 0. -1.
         -5    1    1    2    0  502  0.21861346186E+02 -0.17856521674E+02 -0.19817094158E+03  0.20022633671E+03  0.47000000000E+01 0. -1.
        -11    1    1    2    0    0 -0.11531232902E+02  0.54617350323E+02 -0.15883190592E+03  0.16835557201E+03  0.00000000000E+00 0. -1.
         11    1    1    2    0    0  0.14191488980E+01 -0.21392943016E+02 -0.39435039825E+01  0.21799615092E+02  0.00000000000E+00 0.  1.
<mgrwt>
<rscale>  0 0.12104098E+03</rscale>
<asrwt>0</asrwt>
<pdfrwt beam="2">  1        2 0.58573231E-01 0.12973487E+03</pdfrwt>
<pdfrwt beam="1">  1       -2 0.52753778E-02 0.12973487E+03</pdfrwt>
<totfact> 0.14279083E+04</totfact>
</mgrwt>
</event>
<event>
 6    1  0.4705246E-006  0.3506621E+03  0.7546771E-02  0.1062344E+00
         -1   -1    0    0    0  501 -0.00000000000E+00  0.00000000000E+00  0.46641901479E+02  0.46641901479E+02  0.00000000000E+00 0.  1.
          1   -1    0    0  501    0  0.00000000000E+00 -0.00000000000E+00 -0.65908487034E+03  0.65908487034E+03  0.00000000000E+00 0. -1.
          5    1    1    2  502    0  0.12832744487E+03 -0.73692315799E+02 -0.29917703735E+03  0.33380754963E+03  0.47000000000E+01 0.  1.
         -5    1    1    2    0  502 -0.23645439418E+02 -0.20594516893E+01 -0.11803809063E+03  0.12049244369E+03  0.47000000000E+01 0.  1.
        -11    1    1    2    0    0 -0.68670937815E+02  0.43790465863E+02 -0.18509759333E+03  0.20222369213E+03  0.00000000000E+00 0. -1.
         11    1    1    2    0    0 -0.36011067637E+02  0.31961301625E+02 -0.10130247565E+02  0.49203086383E+02  0.00000000000E+00 0.  1.
<mgrwt>
<rscale>  0 0.35066207E+03</rscale>
<asrwt>0</asrwt>
<pdfrwt beam="2">  1        1 0.10139766E+00 0.35066207E+03</pdfrwt>
<pdfrwt beam="1">  1       -1 0.71756779E-02 0.35066207E+03</pdfrwt>
<totfact> 0.31402016E+03</totfact>
</mgrwt>
</event>
<event>
 6    1  0.4705246E-006  0.1397735E+03  0.7546771E-02  0.1219881E+00
         -1   -1    0    0    0  501 -0.00000000000E+00  0.00000000000E+00  0.37398330555E+02  0.37398330555E+02  0.00000000000E+00 0.  1.
          1   -1    0    0  501    0  0.00000000000E+00 -0.00000000000E+00 -0.72649889043E+03  0.72649889043E+03  0.00000000000E+00 0. -1.
          5    1    1    2  502    0  0.69906662469E+02  0.79175704201E+02 -0.43705703146E+03  0.44966284297E+03  0.47000000000E+01 0. -1.
         -5    1    1    2    0  502 -0.67002261663E+01 -0.32957775717E+02 -0.15293774709E+03  0.15666254337E+03  0.47000000000E+01 0.  1.
        -11    1    1    2    0    0 -0.85981988580E+02 -0.42871644525E+02 -0.63475962611E+02  0.11515241245E+03  0.00000000000E+00 0.  1.
         11    1    1    2    0    0  0.22775552277E+02 -0.33462839593E+01 -0.35629818712E+02  0.42419422194E+02  0.00000000000E+00 0. -1.
<mgrwt>
<rscale>  0 0.13523999E+03</rscale>
<asrwt>0</asrwt>
<pdfrwt beam="2">  1        1 0.11176906E+00 0.13977351E+03</pdfrwt>
<pdfrwt beam="1">  1       -1 0.57535893E-02 0.13977351E+03</pdfrwt>
<totfact> 0.37089308E+03</totfact>
</mgrwt>
</event>
<event>
 6    1  0.4705246E-006  0.1255956E+03  0.7546771E-02  0.1249541E+00
         -1   -1    0    0    0  501 -0.00000000000E+00  0.00000000000E+00  0.26274699579E+03  0.26274699579E+03  0.00000000000E+00 0.  1.
          1   -1    0    0  501    0  0.00000000000E+00 -0.00000000000E+00 -0.56337693944E+02  0.56337693944E+02  0.00000000000E+00 0. -1.
          5    1    1    2  502    0  0.39947778865E+01 -0.31178196487E+02  0.82345759788E+02  0.88266371522E+02  0.47000000000E+01 0. -1.
         -5    1    1    2    0  502 -0.12179325666E+02  0.22164691602E+02 -0.37173337411E+02  0.45205713596E+02  0.47000000000E+01 0. -1.
        -11    1    1    2    0    0 -0.27948544501E+02  0.21459276231E+02  0.13432885061E+03  0.13887354602E+03  0.00000000000E+00 0.  1.
         11    1    1    2    0    0  0.36133092280E+02 -0.12445771346E+02  0.26908028861E+02  0.46739058605E+02  0.00000000000E+00 0. -1.
<mgrwt>
<rscale>  0 0.11617645E+03</rscale>
<asrwt>0</asrwt>
<pdfrwt beam="2">  1        1 0.86673377E-02 0.12559558E+03</pdfrwt>
<pdfrwt beam="1">  1       -1 0.40422614E-01 0.12559558E+03</pdfrwt>
<totfact> 0.44907562E+03</totfact>
</mgrwt>
</event>
<event>
 6    1  0.4705246E-006  0.4074345E+03  0.7546771E-02  0.1041235E+00
          1   -1    0    0  501    0  0.00000000000E+00  0.00000000000E+00  0.14708671713E+03  0.14708671713E+03  0.00000000000E+00 0. -1.
         -1   -1    0    0    0  501 -0.00000000000E+00 -0.00000000000E+00 -0.28215140731E+03  0.28215140731E+03  0.00000000000E+00 0.  1.
          5    1    1    2  502    0  0.10891165927E+03  0.69990099899E+02  0.67865856496E+02  0.14624714727E+03  0.47000000000E+01 0. -1.
         -5    1    1    2    0  502  0.12835176151E+02 -0.31850412916E+02 -0.12525150356E+02  0.36853221585E+02  0.47000000000E+01 0.  1.
        -11    1    1    2    0    0 -0.70733443094E+02 -0.19536061719E+02 -0.34577436688E+02  0.81120138112E+02  0.00000000000E+00 0. -1.
         11    1    1    2    0    0 -0.51013392323E+02 -0.18603625264E+02 -0.15582795963E+03  0.16501761746E+03  0.00000000000E+00 0.  1.
<mgrwt>
<rscale>  0 0.40743453E+03</rscale>
<asrwt>0</asrwt>
<pdfrwt beam="1">  1        1 0.22628726E-01 0.40743453E+03</pdfrwt>
<pdfrwt beam="2">  1       -1 0.43407908E-01 0.40743453E+03</pdfrwt>
<totfact> 0.11645431E+03</totfact>
</mgrwt>
</event>
<event>
 6    1  0.4705246E-006  0.1204381E+03  0.7546771E-02  0.1253149E+00
          1   -1    0    0  501    0  0.00000000000E+00  0.00000000000E+00  0.88733214115E+02  0.88733214115E+02  0.00000000000E+00 0. -1.
         -1   -1    0    0    0  501 -0.00000000000E+00 -0.00000000000E+00 -0.16311740692E+03  0.16311740692E+03  0.00000000000E+00 0.  1.
          5    1    1    2  502    0 -0.23150257475E+00  0.50552432207E+02  0.58036561537E+01  0.51101608783E+02  0.47000000000E+01 0. -1.
         -5    1    1    2    0  502  0.30771934830E+02 -0.62324557331E+02  0.73595317225E+01  0.70053658911E+02  0.47000000000E+01 0.  1.
        -11    1    1    2    0    0 -0.62524338476E+02  0.15947390543E+02 -0.53796541042E+02  0.84009999375E+02  0.00000000000E+00 0.  1.
         11    1    1    2    0    0  0.31983906221E+02 -0.41752654197E+01 -0.33750839640E+02  0.46685353965E+02  0.00000000000E+00 0. -1.
<mgrwt>
<rscale>  0 0.11410650E+03</rscale>
<asrwt>0</asrwt>
<pdfrwt beam="1">  1        1 0.13651264E-01 0.12043807E+03</pdfrwt>
<pdfrwt beam="2">  1       -1 0.25094986E-01 0.12043807E+03</pdfrwt>
<totfact> 0.55160860E+03</totfact>
</mgrwt>
</event>
<event>
 6    1  0.4705246E-006  0.2756324E+03  0.7546771E-02  0.1098099E+00
          2   -1    0    0  501    0  0.00000000000E+00  0.00000000000E+00  0.73724984754E+02  0.73724984754E+02  0.00000000000E+00 0.  1.
         -2   -1    0    0    0  501 -0.00000000000E+00 -0.00000000000E+00 -0.25762374708E+03  0.25762374708E+03  0.00000000000E+00 0. -1.
          5    1    1    2  502    0 -0.13271206647E+02  0.97925953787E+02 -0.34927721574E+02  0.10491736313E+03  0.47000000000E+01 0. -1.
         -5    1    1    2    0  502  0.39316063598E+02 -0.26065766635E+02 -0.22132571972E+02  0.52317471166E+02  0.47000000000E+01 0. -1.
        -11    1    1    2    0    0  0.25741381409E+02 -0.45068104960E+02 -0.27019051450E+02  0.58513092063E+02  0.00000000000E+00 0.  1.
         11    1    1    2    0    0 -0.51786238359E+02 -0.26792082192E+02 -0.99819417331E+02  0.11560080548E+03  0.00000000000E+00 0. -1.
<mgrwt>
<rscale>  0 0.27563241E+03</rscale>
<asrwt>0</asrwt>
<pdfrwt beam="1">  1        2 0.11342306E-01 0.27563241E+03</pdfrwt>
<pdfrwt beam="2">  1       -2 0.39634421E-01 0.27563241E+03</pdfrwt>
<totfact> 0.33071142E+03</totfact>
</mgrwt>
</event>
<event>
 6    1  0.4705246E-006  0.1563046E+03  0.7546771E-02  0.1200283E+00
          1   -1    0    0  501    0  0.00000000000E+00  0.00000000000E+00  0.67249413498E+02  0.67249413498E+02  0.00000000000E+00 0. -1.
         -1   -1    0    0    0  501 -0.00000000000E+00 -0.00000000000E+00 -0.34058905389E+03  0.34058905389E+03  0.00000000000E+00 0.  1.
          5    1    1    2  502    0  0.44480466447E+02  0.11092619350E+02  0.18494544000E+01  0.46120153740E+02  0.47000000000E+01 0. -1.
         -5    1    1    2    0  502 -0.92493207932E+01 -0.98066954983E+02 -0.89008354885E+02  0.13284297059E+03  0.47000000000E+01 0. -1.
        -11    1    1    2    0    0  0.14067827201E+02  0.16714310418E+02 -0.11590237380E+03  0.11794334313E+03  0.00000000000E+00 0.  1.
         11    1    1    2    0    0 -0.49298972855E+02  0.70260025215E+02 -0.70278366111E+02  0.11093199994E+03  0.00000000000E+00 0. -1.
<mgrwt>
<rscale>  0 0.15015465E+03</rscale>
<asrwt>0</asrwt>
<pdfrwt beam="1">  1        1 0.10346064E-01 0.15630459E+03</pdfrwt>
<pdfrwt beam="2">  1       -1 0.52398316E-01 0.15630459E+03</pdfrwt>
<totfact> 0.22511181E+03</totfact>
</mgrwt>
</event>
<event>
 6    1  0.4705246E-006  0.1555909E+03  0.7546771E-02  0.1201512E+00
         -1   -1    0    0    0  501 -0.00000000000E+00  0.00000000000E+00  0.21683496091E+02  0.21683496091E+02  0.00000000000E+00 0.  1.
          1   -1    0    0  501    0  0.00000000000E+00 -0.00000000000E+00 -0.10443506563E+04  0.10443506563E+04  0.00000000000E+00 0. -1.
          5    1    1    2  502    0 -0.42592064377E+02  0.50622739191E+02 -0.68936425051E+03  0.69254740311E+03  0.47000000000E+01 0. -1.
         -5    1    1    2    0  502 -0.22499263808E+02  0.15312103324E+02 -0.21104091989E+02  0.34758453343E+02  0.47000000000E+01 0. -1.
        -11    1    1    2    0    0  0.24226382250E+02 -0.82950934273E+02 -0.22275551636E+03  0.23893052371E+03  0.00000000000E+00 0. -1.
         11    1    1    2    0    0  0.40864945934E+02  0.17016091758E+02 -0.89443301371E+02  0.99797772245E+02  0.00000000000E+00 0.  1.
<mgrwt>
<rscale>  0 0.14915777E+03</rscale>
<asrwt>0</asrwt>
<pdfrwt beam="2">  1        1 0.16066934E+00 0.15559095E+03</pdfrwt>
<pdfrwt beam="1">  1       -1 0.33359223E-02 0.15559095E+03</pdfrwt>
<totfact> 0.46933621E+03</totfact>
</mgrwt>
</event>
<event>
 6    1  0.4705246E-006  0.1275488E+03  0.7546771E-02  0.1245596E+00
          2   -1    0    0  501    0  0.00000000000E+00  0.00000000000E+00  0.11595162818E+04  0.11595162818E+04  0.00000000000E+00 0. -1.
         -2   -1    0    0    0  501 -0.00000000000E+00 -0.00000000000E+00 -0.16921818157E+02  0.16921818157E+02  0.00000000000E+00 0.  1.
          5    1    1    2  502    0  0.18480671017E+02 -0.32317433111E+02  0.11427835499E+03  0.12028127079E+03  0.47000000000E+01 0. -1.
         -5    1    1    2    0  502 -0.32827797497E+02  0.53242251154E+02  0.86453644817E+03  0.86680895347E+03  0.47000000000E+01 0. -1.
        -11    1    1    2    0    0 -0.19114386934E+02 -0.31578752303E+02  0.21328112552E+02  0.42631746033E+02  0.00000000000E+00 0.  1.
         11    1    1    2    0    0  0.33461513414E+02  0.10653934260E+02  0.14245154788E+03  0.14671612962E+03  0.00000000000E+00 0. -1.
<mgrwt>
<rscale>  0 0.11849806E+03</rscale>
<asrwt>0</asrwt>
<pdfrwt beam="1">  1        2 0.17838706E+00 0.12754878E+03</pdfrwt>
<pdfrwt beam="2">  1       -2 0.26033575E-02 0.12754878E+03</pdfrwt>
<totfact> 0.10632487E+04</totfact>
</mgrwt>
</event>
<event>
 6    1  0.4705246E-006  0.1940774E+03  0.7546771E-02  0.1186811E+00
         -2   -1    0    0    0  501 -0.00000000000E+00  0.00000000000E+00  0.47044066080E+03  0.47044066080E+03  0.00000000000E+00 0.  1.
          2   -1    0    0  501    0  0.00000000000E+00 -0.00000000000E+00 -0.46248636048E+02  0.46248636048E+02  0.00000000000E+00 0. -1.
          5    1    1    2  502    0  0.86904652538E+01  0.97566455606E+02  0.54889665713E+02  0.11238195072E+03  0.47000000000E+01 0. -1.
         -5    1    1    2    0  502  0.27055860425E+02 -0.65101472052E+02  0.17347330826E+03  0.18731070424E+03  0.47000000000E+01 0.  1.
        -11    1    1    2    0    0 -0.15989356530E+02  0.13371072951E+02  0.74776987715E+01  0.22144098379E+02  0.00000000000E+00 0. -1.
         11    1    1    2    0    0 -0.19756969149E+02 -0.45836056505E+02  0.18835135201E+03  0.19485254350E+03  0.00000000000E+00 0.  1.
<mgrwt>
<rscale>  0 0.16168175E+03</rscale>
<asrwt>0</asrwt>
<pdfrwt beam="2">  1        2 0.71151751E-02 0.19407741E+03</pdfrwt>
<pdfrwt beam="1">  1       -2 0.72375483E-01 0.19407741E+03</pdfrwt>
<totfact> 0.17259356E+03</totfact>
</mgrwt>
</event>
<event>
 6    1  0.4705246E-006  0.1721476E+03  0.7546771E-02  0.1181901E+00
          1   -1    0    0  501    0  0.00000000000E+00  0.00000000000E+00  0.47841260493E+03  0.47841260493E+03  0.00000000000E+00 0. -1.
         -1   -1    0    0    0  501 -0.00000000000E+00 -0.00000000000E+00 -0.56130628895E+02  0.56130628895E+02  0.00000000000E+00 0.  1.
          5    1    1    2  502    0  0.77180608189E+01  0.55456357773E+02  0.28481876865E+02  0.62994312362E+02  0.47000000000E+01 0.  1.
         -5    1    1    2    0  502  0.84301262217E+02  0.18985902920E+02  0.24836437179E+03  0.26300973080E+03  0.47000000000E+01 0.  1.
        -11    1    1    2    0    0 -0.40119162107E+02 -0.38915476463E+01  0.18509231129E+01  0.40349934667E+02  0.00000000000E+00 0.  1.
         11    1    1    2    0    0 -0.51900160929E+02 -0.70550713046E+02  0.14358480426E+03  0.16818925599E+03  0.00000000000E+00 0. -1.
<mgrwt>
<rscale>  0 0.16617049E+03</rscale>
<asrwt>0</asrwt>
<pdfrwt beam="1">  1        1 0.73601937E-01 0.17214758E+03</pdfrwt>
<pdfrwt beam="2">  1       -1 0.86354817E-02 0.17214758E+03</pdfrwt>
<totfact> 0.35917165E+03</totfact>
</mgrwt>
</event>
<event>
 6    1  0.4705246E-006  0.1519113E+03  0.7546771E-02  0.1207032E+00
          2   -1    0    0  501    0  0.00000000000E+00  0.00000000000E+00  0.13269104587E+04  0.13269104587E+04  0.00000000000E+00 0. -1.
         -2   -1    0    0    0  501 -0.00000000000E+00 -0.00000000000E+00 -0.16279247032E+02  0.16279247032E+02  0.00000000000E+00 0.  1.
          5    1    1    2  502    0  0.50099466656E+02 -0.66611361455E+02  0.55648885236E+03  0.56271570339E+03  0.47000000000E+01 0.  1.
         -5    1    1    2    0  502 -0.65112440525E+02 -0.18398413381E+02  0.37681506588E+03  0.38287049430E+03  0.47000000000E+01 0.  1.
        -11    1    1    2    0    0 -0.29346153339E+02  0.61671993966E+02  0.27899542446E+03  0.28723349112E+03  0.00000000000E+00 0. -1.
         11    1    1    2    0    0  0.44359127208E+02  0.23337780871E+02  0.98331869001E+02  0.11037001696E+03  0.00000000000E+00 0.  1.
<mgrwt>
<rscale>  0 0.14478510E+03</rscale>
<asrwt>0</asrwt>
<pdfrwt beam="1">  1        2 0.20413998E+00 0.15191133E+03</pdfrwt>
<pdfrwt beam="2">  1       -2 0.25045006E-02 0.15191133E+03</pdfrwt>
<totfact> 0.91869226E+03</totfact>
</mgrwt>
</event>
<event>
 6    1  0.4705246E-006  0.1464119E+03  0.7546771E-02  0.1220688E+00
          1   -1    0    0  501    0  0.00000000000E+00  0.00000000000E+00  0.22784954762E+03  0.22784954762E+03  0.00000000000E+00 0. -1.
         -1   -1    0    0    0  501 -0.00000000000E+00 -0.00000000000E+00 -0.78034320457E+02  0.78034320457E+02  0.00000000000E+00 0.  1.
          5    1    1    2  502    0 -0.16020985294E+02  0.27182613612E+02 -0.80029949872E-01  0.31900828474E+02  0.47000000000E+01 0.  1.
         -5    1    1    2    0  502  0.91917310768E+02 -0.34410946235E+02  0.13671657691E+03  0.16836394401E+03  0.47000000000E+01 0.  1.
        -11    1    1    2    0    0 -0.50565833897E+02  0.27417211416E+02  0.34279840320E+02  0.66960544292E+02  0.00000000000E+00 0. -1.
         11    1    1    2    0    0 -0.25330491578E+02 -0.20188878793E+02 -0.21101160118E+02  0.38658551302E+02  0.00000000000E+00 0.  1.
<mgrwt>
<rscale>  0 0.13466848E+03</rscale>
<asrwt>0</asrwt>
<pdfrwt beam="1">  1        1 0.35053776E-01 0.14641186E+03</pdfrwt>
<pdfrwt beam="2">  1       -1 0.12005280E-01 0.14641186E+03</pdfrwt>
<totfact> 0.54589420E+03</totfact>
</mgrwt>
</event>
<event>
 6    1  0.4705246E-006  0.1360639E+03  0.7546771E-02  0.1235722E+00
         -1   -1    0    0    0  501 -0.00000000000E+00  0.00000000000E+00  0.81637337946E+02  0.81637337946E+02  0.00000000000E+00 0.  1.
          1   -1    0    0  501    0  0.00000000000E+00 -0.00000000000E+00 -0.26465501252E+04  0.26465501252E+04  0.00000000000E+00 0. -1.
          5    1    1    2  502    0  0.33736493690E+02 -0.56915488334E+02 -0.22524178653E+04  0.22533942961E+04  0.47000000000E+01 0. -1.
         -5    1    1    2    0  502 -0.35777028297E+02  0.23799286047E+02 -0.36373673570E+03  0.36629619800E+03  0.47000000000E+01 0.  1.
        -11    1    1    2    0    0  0.76142077301E+01 -0.19696867228E+02 -0.13268162188E+02  0.24939664509E+02  0.00000000000E+00 0. -1.
         11    1    1    2    0    0 -0.55736731233E+01  0.52813069516E+02  0.64509975938E+02  0.83557304524E+02  0.00000000000E+00 0.  1.
<mgrwt>
<rscale>  0 0.12458345E+03</rscale>
<asrwt>0</asrwt>
<pdfrwt beam="2">  1        1 0.40716145E+00 0.13606391E+03</pdfrwt>
<pdfrwt beam="1">  1       -1 0.12559594E-01 0.13606391E+03</pdfrwt>
<totfact> 0.57883505E+01</totfact>
</mgrwt>
</event>
<event>
 6    1  0.4705246E-006  0.1578535E+03  0.7546771E-02  0.1199643E+00
         -2   -1    0    0    0  501 -0.00000000000E+00  0.00000000000E+00  0.33008016089E+02  0.33008016089E+02  0.00000000000E+00 0.  1.
          2   -1    0    0  501    0  0.00000000000E+00 -0.00000000000E+00 -0.64737101146E+03  0.64737101146E+03  0.00000000000E+00 0. -1.
          5    1    1    2  502    0 -0.40983213057E+02  0.93437450836E+02 -0.33354914669E+03  0.34883707405E+03  0.47000000000E+01 0. -1.
         -5    1    1    2    0  502 -0.31588186584E+02 -0.29989810361E+02 -0.53400746377E+02  0.69071933307E+02  0.47000000000E+01 0. -1.
        -11    1    1    2    0    0  0.73286604575E+02 -0.81825600629E+02 -0.21071762054E+03  0.23763053451E+03  0.00000000000E+00 0. -1.
         11    1    1    2    0    0 -0.71520493326E+00  0.18377960154E+02 -0.16695481765E+02  0.24839485681E+02  0.00000000000E+00 0.  1.
<mgrwt>
<rscale>  0 0.15067766E+03</rscale>
<asrwt>0</asrwt>
<pdfrwt beam="2">  1        2 0.99595534E-01 0.15785347E+03</pdfrwt>
<pdfrwt beam="1">  1       -2 0.50781566E-02 0.15785347E+03</pdfrwt>
<totfact> 0.85315117E+03</totfact>
</mgrwt>
</event>
<event>
 6    1  0.4705246E-006  0.1386062E+03  0.7546771E-02  0.1227184E+00
         -1   -1    0    0    0  501 -0.00000000000E+00  0.00000000000E+00  0.18753972201E+03  0.18753972201E+03  0.00000000000E+00 0.  1.
          1   -1    0    0  501    0  0.00000000000E+00 -0.00000000000E+00 -0.96302561218E+02  0.96302561218E+02  0.00000000000E+00 0. -1.
          5    1    1    2  502    0  0.39746788753E+02 -0.59549643627E+02 -0.11417148724E+02  0.72652656918E+02  0.47000000000E+01 0. -1.
         -5    1    1    2    0  502 -0.65444011508E+02  0.54732900595E+01  0.55795509403E+01  0.66076447657E+02  0.47000000000E+01 0. -1.
        -11    1    1    2    0    0 -0.18944423233E+02 -0.14992381232E+02  0.32794349792E+02  0.40732444623E+02  0.00000000000E+00 0.  1.
         11    1    1    2    0    0  0.44641645989E+02  0.69068734800E+02  0.64280408787E+02  0.10438073403E+03  0.00000000000E+00 0. -1.
<mgrwt>
<rscale>  0 0.13018313E+03</rscale>
<asrwt>0</asrwt>
<pdfrwt beam="2">  1        1 0.14815779E-01 0.13860623E+03</pdfrwt>
<pdfrwt beam="1">  1       -1 0.28852265E-01 0.13860623E+03</pdfrwt>
<totfact> 0.39733174E+03</totfact>
</mgrwt>
</event>
<event>
 6    1  0.4705246E-006  0.1374369E+03  0.7546771E-02  0.1228557E+00
          4   -1    0    0  501    0  0.00000000000E+00  0.00000000000E+00  0.39631981030E+02  0.39631981030E+02  0.00000000000E+00 0. -1.
         -4   -1    0    0    0  501 -0.00000000000E+00 -0.00000000000E+00 -0.39196074057E+03  0.39196074057E+03  0.00000000000E+00 0.  1.
          5    1    1    2  502    0  0.39821739450E+02 -0.47258144436E+02 -0.35046939552E+02  0.71200288765E+02  0.47000000000E+01 0.  1.
         -5    1    1    2    0  502 -0.62957364144E+02 -0.49651677418E+01 -0.12226407551E+03  0.13769123702E+03  0.47000000000E+01 0.  1.
        -11    1    1    2    0    0  0.57030196418E+02  0.19198216465E+02 -0.10624372318E+03  0.12210136581E+03  0.00000000000E+00 0. -1.
         11    1    1    2    0    0 -0.33894571724E+02  0.33025095713E+02 -0.88774021297E+02  0.10059983000E+03  0.00000000000E+00 0.  1.
<mgrwt>
<rscale>  0 0.12926045E+03</rscale>
<asrwt>0</asrwt>
<pdfrwt beam="1">  1        4 0.60972280E-02 0.13743695E+03</pdfrwt>
<pdfrwt beam="2">  1       -4 0.60301651E-01 0.13743695E+03</pdfrwt>
<totfact> 0.75361492E+02</totfact>
</mgrwt>
</event>
<event>
 6    1  0.4705246E-006  0.1590323E+03  0.7546771E-02  0.1197625E+00
          1   -1    0    0  501    0  0.00000000000E+00  0.00000000000E+00  0.93626770214E+03  0.93626770214E+03  0.00000000000E+00 0. -1.
         -1   -1    0    0    0  501 -0.00000000000E+00 -0.00000000000E+00 -0.22921598209E+02  0.22921598209E+02  0.00000000000E+00 0.  1.
          5    1    1    2  502    0  0.37987602052E+02 -0.97719710721E+01  0.10755597274E+03  0.11458152818E+03  0.47000000000E+01 0.  1.
         -5    1    1    2    0  502 -0.96809029194E+02 -0.69006930401E+02  0.39664759387E+03  0.41410789451E+03  0.47000000000E+01 0.  1.
        -11    1    1    2    0    0  0.81911199673E+02  0.46424533524E+02  0.28510132926E+03  0.30024564924E+03  0.00000000000E+00 0.  1.
         11    1    1    2    0    0 -0.23089772530E+02  0.32354367949E+02  0.12404120807E+03  0.13025422841E+03  0.00000000000E+00 0. -1.
<mgrwt>
<rscale>  0 0.15234183E+03</rscale>
<asrwt>0</asrwt>
<pdfrwt beam="1">  1        1 0.14404116E+00 0.15903229E+03</pdfrwt>
<pdfrwt beam="2">  1       -1 0.35264004E-02 0.15903229E+03</pdfrwt>
<totfact> 0.52047233E+03</totfact>
</mgrwt>
</event>
<event>
 6    1  0.4705246E-006  0.2731706E+03  0.7546771E-02  0.1099479E+00
          2   -1    0    0  501    0  0.00000000000E+00  0.00000000000E+00  0.86799512778E+03  0.86799512778E+03  0.00000000000E+00 0. -1.
         -2   -1    0    0    0  501 -0.00000000000E+00 -0.00000000000E+00 -0.21492676927E+02  0.21492676927E+02  0.00000000000E+00 0.  1.
          5    1    1    2  502    0 -0.37192286534E+02  0.38721191752E+02  0.61853354171E+03  0.62087714492E+03  0.47000000000E+01 0.  1.
         -5    1    1    2    0  502  0.90877972319E+01  0.20789279957E+02  0.13637981607E+02  0.26886181617E+02  0.47000000000E+01 0.  1.
        -11    1    1    2    0    0  0.47783783171E+02 -0.19416058062E+02  0.17421651443E+03  0.18169113117E+03  0.00000000000E+00 0. -1.
         11    1    1    2    0    0 -0.19679293869E+02 -0.40094413647E+02  0.40114413105E+02  0.60033346997E+02  0.00000000000E+00 0.  1.
<mgrwt>
<rscale>  0 0.27317056E+03</rscale>
<asrwt>0</asrwt>
<pdfrwt beam="1">  1        2 0.13353768E+00 0.27317056E+03</pdfrwt>
<pdfrwt beam="2">  1       -2 0.33065664E-02 0.27317056E+03</pdfrwt>
<totfact> 0.11635536E+04</totfact>
</mgrwt>
</event>
<event>
 6    1  0.4705246E-006  0.2017905E+03  0.7546771E-02  0.1181685E+00
         -1   -1    0    0    0  501 -0.00000000000E+00  0.00000000000E+00  0.22581432913E+03  0.22581432913E+03  0.00000000000E+00 0.  1.
          1   -1    0    0  501    0  0.00000000000E+00 -0.00000000000E+00 -0.21615962964E+03  0.21615962964E+03  0.00000000000E+00 0. -1.
          5    1    1    2  502    0  0.52923819268E+02  0.67922734522E+02 -0.15023374387E+03  0.17322441025E+03  0.47000000000E+01 0. -1.
         -5    1    1    2    0  502 -0.39613955213E+02 -0.69856962080E+02 -0.36162407932E+01  0.80525944863E+02  0.47000000000E+01 0.  1.
        -11    1    1    2    0    0  0.36967981919E+02  0.16101692204E+02  0.82679344835E+02  0.91987880948E+02  0.00000000000E+00 0. -1.
         11    1    1    2    0    0 -0.50277845974E+02 -0.14167464646E+02  0.80825339311E+02  0.96235722707E+02  0.00000000000E+00 0.  1.
<mgrwt>
<rscale>  0 0.16637199E+03</rscale>
<asrwt>0</asrwt>
<pdfrwt beam="2">  1        1 0.33255327E-01 0.20179055E+03</pdfrwt>
<pdfrwt beam="1">  1       -1 0.34740666E-01 0.20179055E+03</pdfrwt>
<totfact> 0.10495293E+03</totfact>
</mgrwt>
</event>
<event>
 6    1  0.4705246E-006  0.1526879E+03  0.7546771E-02  0.1206113E+00
          2   -1    0    0  501    0  0.00000000000E+00  0.00000000000E+00  0.58303346743E+03  0.58303346743E+03  0.00000000000E+00 0.  1.
         -2   -1    0    0    0  501 -0.00000000000E+00 -0.00000000000E+00 -0.50718737632E+02  0.50718737632E+02  0.00000000000E+00 0. -1.
          5    1    1    2  502    0  0.41769754751E+02  0.64465189602E+02  0.20065014796E+03  0.21490240799E+03  0.47000000000E+01 0. -1.
         -5    1    1    2    0  502  0.45617474052E+02 -0.57938228155E+02  0.26753672233E+03  0.27755320214E+03  0.47000000000E+01 0. -1.
        -11    1    1    2    0    0  0.14053450530E+02 -0.17927702938E+02  0.49737230505E+01  0.23316087266E+02  0.00000000000E+00 0. -1.
         11    1    1    2    0    0 -0.10144067933E+03  0.11400741492E+02  0.59154136450E+02  0.11798050767E+03  0.00000000000E+00 0.  1.
<mgrwt>
<rscale>  0 0.14550070E+03</rscale>
<asrwt>0</asrwt>
<pdfrwt beam="1">  1        2 0.89697452E-01 0.15268786E+03</pdfrwt>
<pdfrwt beam="2">  1       -2 0.78028831E-02 0.15268786E+03</pdfrwt>
<totfact> 0.49876085E+03</totfact>
</mgrwt>
</event>
<event>
 6    1  0.4705246E-006  0.1539735E+03  0.7546771E-02  0.1203930E+00
          1   -1    0    0  501    0  0.00000000000E+00  0.00000000000E+00  0.59595716840E+03  0.59595716840E+03  0.00000000000E+00 0. -1.
         -1   -1    0    0    0  501 -0.00000000000E+00 -0.00000000000E+00 -0.33539210875E+02  0.33539210875E+02  0.00000000000E+00 0.  1.
          5    1    1    2  502    0  0.12088586277E+02  0.72154719097E+02  0.61904597719E+02  0.95951584796E+02  0.47000000000E+01 0.  1.
         -5    1    1    2    0  502  0.26897306450E+02  0.88527404694E+01  0.25255311010E+03  0.25417906981E+03  0.47000000000E+01 0.  1.
        -11    1    1    2    0    0 -0.24735063676E+02 -0.10092750786E+03  0.19305311495E+03  0.21924345009E+03  0.00000000000E+00 0. -1.
         11    1    1    2    0    0 -0.14250829051E+02  0.19920048295E+02  0.54907134762E+02  0.60122274578E+02  0.00000000000E+00 0.  1.
<mgrwt>
<rscale>  0 0.14722107E+03</rscale>
<asrwt>0</asrwt>
<pdfrwt beam="1">  1        1 0.91685710E-01 0.15397346E+03</pdfrwt>
<pdfrwt beam="2">  1       -1 0.51598790E-02 0.15397346E+03</pdfrwt>
<totfact> 0.57849602E+03</totfact>
</mgrwt>
</event>
<event>
 6    1  0.4705246E-006  0.1444065E+03  0.7546771E-02  0.1217479E+00
         -2   -1    0    0    0  501 -0.00000000000E+00  0.00000000000E+00  0.35360900482E+02  0.35360900482E+02  0.00000000000E+00 0. -1.
          2   -1    0    0  501    0  0.00000000000E+00 -0.00000000000E+00 -0.50127999104E+03  0.50127999104E+03  0.00000000000E+00 0.  1.
          5    1    1    2  502    0  0.26360551705E+02  0.32973897579E+02 -0.16599621962E+03  0.17134465715E+03  0.47000000000E+01 0.  1.
         -5    1    1    2    0  502  0.19281198772E+02 -0.89154019964E+02 -0.14221436483E+03  0.16901839978E+03  0.47000000000E+01 0.  1.
        -11    1    1    2    0    0 -0.86647231835E+01  0.69553888284E+02 -0.13152767755E+03  0.14903808495E+03  0.00000000000E+00 0.  1.
         11    1    1    2    0    0 -0.36977027293E+02 -0.13373765899E+02 -0.26180828566E+02  0.47239749641E+02  0.00000000000E+00 0. -1.
<mgrwt>
<rscale>  0 0.13695998E+03</rscale>
<asrwt>0</asrwt>
<pdfrwt beam="2">  1        2 0.77119999E-01 0.14440653E+03</pdfrwt>
<pdfrwt beam="1">  1       -2 0.54401385E-02 0.14440653E+03</pdfrwt>
<totfact> 0.10211148E+04</totfact>
</mgrwt>
</event>
<event>
 6    1  0.4705246E-006  0.1464079E+03  0.7546771E-02  0.1214891E+00
         -1   -1    0    0    0  501 -0.00000000000E+00  0.00000000000E+00  0.88804950983E+02  0.88804950983E+02  0.00000000000E+00 0.  1.
          1   -1    0    0  501    0  0.00000000000E+00 -0.00000000000E+00 -0.19881487425E+03  0.19881487425E+03  0.00000000000E+00 0. -1.
          5    1    1    2  502    0  0.61262580784E+01 -0.28769783961E+02 -0.11224511355E+03  0.11613047414E+03  0.47000000000E+01 0. -1.
         -5    1    1    2    0  502 -0.28502751063E+01 -0.25362433770E+02  0.39571538604E+02  0.47322022172E+02  0.47000000000E+01 0.  1.
        -11    1    1    2    0    0  0.59216097998E+01  0.78988489375E+02 -0.10304824852E+01  0.79216846759E+02  0.00000000000E+00 0. -1.
         11    1    1    2    0    0 -0.91975927719E+01 -0.24856271644E+02 -0.36305865833E+02  0.44950482163E+02  0.00000000000E+00 0.  1.
<mgrwt>
<rscale>  0 0.13884508E+03</rscale>
<asrwt>0</asrwt>
<pdfrwt beam="2">  1        1 0.30586904E-01 0.14640789E+03</pdfrwt>
<pdfrwt beam="1">  1       -1 0.13662300E-01 0.14640789E+03</pdfrwt>
<totfact> 0.52908882E+03</totfact>
</mgrwt>
</event>
<event>
 6    1  0.4705246E-006  0.1608048E+03  0.7546771E-02  0.1197763E+00
         -2   -1    0    0    0  501 -0.00000000000E+00  0.00000000000E+00  0.52077008354E+02  0.52077008354E+02  0.00000000000E+00 0.  1.
          2   -1    0    0  501    0  0.00000000000E+00 -0.00000000000E+00 -0.40364245101E+03  0.40364245101E+03  0.00000000000E+00 0. -1.
          5    1    1    2  502    0 -0.30329336235E+02  0.43466155149E+02 -0.44331536640E+02  0.69257132635E+02  0.47000000000E+01 0. -1.
         -5    1    1    2    0  502 -0.62539120489E+02 -0.83573204551E+02 -0.15344542719E+03  0.18564269777E+03  0.47000000000E+01 0. -1.
        -11    1    1    2    0    0  0.19252279326E+02  0.31976681690E+02 -0.10673478582E+03  0.11307286560E+03  0.00000000000E+00 0. -1.
         11    1    1    2    0    0  0.73616177398E+02  0.81303677110E+01 -0.47053693005E+02  0.87746763354E+02  0.00000000000E+00 0.  1.
<mgrwt>
<rscale>  0 0.15222680E+03</rscale>
<asrwt>0</asrwt>
<pdfrwt beam="2">  1        2 0.62098837E-01 0.16080484E+03</pdfrwt>
<pdfrwt beam="1">  1       -2 0.80118476E-02 0.16080484E+03</pdfrwt>
<totfact> 0.71972270E+03</totfact>
</mgrwt>
</event>
<event>
 6    1  0.4705246E-006  0.1194161E+03  0.7546771E-02  0.1255549E+00
          1   -1    0    0  501    0  0.00000000000E+00  0.00000000000E+00  0.31013974660E+02  0.31013974660E+02  0.00000000000E+00 0. -1.
         -1   -1    0    0    0  501 -0.00000000000E+00 -0.00000000000E+00 -0.45079804149E+03  0.45079804149E+03  0.00000000000E+00 0.  1.
          5    1    1    2  502    0  0.41304236383E+02 -0.13898113772E+02 -0.14339593429E+02  0.46118450205E+02  0.47000000000E+01 0. -1.
         -5    1    1    2    0  502 -0.56404406522E+02  0.22097878537E+02 -0.11402230890E+03  0.12920120060E+03  0.47000000000E+01 0.  1.
        -11    1    1    2    0    0  0.13123937748E+02  0.35427677439E+02 -0.21649432392E+03  0.21976612651E+03  0.00000000000E+00 0.  1.
         11    1    1    2    0    0  0.19762323908E+01 -0.43627442205E+02 -0.74927840583E+02  0.86726238834E+02  0.00000000000E+00 0. -1.
<mgrwt>
<rscale>  0 0.11275658E+03</rscale>
<asrwt>0</asrwt>
<pdfrwt beam="1">  1        1 0.47713810E-02 0.11941609E+03</pdfrwt>
<pdfrwt beam="2">  1       -1 0.69353540E-01 0.11941609E+03</pdfrwt>
<totfact> 0.36949426E+03</totfact>
</mgrwt>
</event>
<event>
 6    1  0.4705246E-006  0.1402565E+03  0.7546771E-02  0.1225851E+00
         -1   -1    0    0    0  501 -0.00000000000E+00  0.00000000000E+00  0.11194100062E+03  0.11194100062E+03  0.00000000000E+00 0.  1.
          1   -1    0    0  501    0  0.00000000000E+00 -0.00000000000E+00 -0.13664527016E+03  0.13664527016E+03  0.00000000000E+00 0. -1.
          5    1    1    2  502    0  0.56261683966E+02  0.68062213418E+02  0.10461624618E+02  0.89047052550E+02  0.47000000000E+01 0. -1.
         -5    1    1    2    0  502 -0.13897116056E+01 -0.44137233989E+02 -0.27516797095E+02  0.52242615218E+02  0.47000000000E+01 0.  1.
        -11    1    1    2    0    0  0.71609539730E+01 -0.11858382424E+02 -0.35596555179E+02  0.38197057951E+02  0.00000000000E+00 0. -1.
         11    1    1    2    0    0 -0.62032926334E+02 -0.12066597006E+02  0.27947458118E+02  0.69099545064E+02  0.00000000000E+00 0.  1.
<mgrwt>
<rscale>  0 0.13108777E+03</rscale>
<asrwt>0</asrwt>
<pdfrwt beam="2">  1        1 0.21022349E-01 0.14025652E+03</pdfrwt>
<pdfrwt beam="1">  1       -1 0.17221692E-01 0.14025652E+03</pdfrwt>
<totfact> 0.58734811E+03</totfact>
</mgrwt>
</event>
<event>
 6    1  0.4705246E-006  0.1392683E+03  0.7546771E-02  0.1228656E+00
         -1   -1    0    0    0  501 -0.00000000000E+00  0.00000000000E+00  0.45343863971E+03  0.45343863971E+03  0.00000000000E+00 0.  1.
          1   -1    0    0  501    0  0.00000000000E+00 -0.00000000000E+00 -0.32409555796E+02  0.32409555796E+02  0.00000000000E+00 0. -1.
          5    1    1    2  502    0 -0.57379513315E+02 -0.66526798579E+02  0.13813900872E+03  0.16377636950E+03  0.47000000000E+01 0. -1.
         -5    1    1    2    0  502  0.11439869978E+02  0.48455564595E+02  0.10839530965E+03  0.11937522992E+03  0.47000000000E+01 0.  1.
        -11    1    1    2    0    0  0.52394198993E+00  0.15470233081E+02 -0.59671896102E+01  0.16589453837E+02  0.00000000000E+00 0. -1.
         11    1    1    2    0    0  0.45415701348E+02  0.26010009032E+01  0.18046195516E+03  0.18610714224E+03  0.00000000000E+00 0.  1.
<mgrwt>
<rscale>  0 0.12919451E+03</rscale>
<asrwt>0</asrwt>
<pdfrwt beam="2">  1        1 0.49860858E-02 0.13926830E+03</pdfrwt>
<pdfrwt beam="1">  1       -1 0.69759786E-01 0.13926830E+03</pdfrwt>
<totfact> 0.34727434E+03</totfact>
</mgrwt>
</event>
<event>
 6    1  0.4705246E-006  0.1335287E+03  0.7546771E-02  0.1235392E+00
          2   -1    0    0  501    0  0.00000000000E+00  0.00000000000E+00  0.28217796637E+03  0.28217796637E+03  0.00000000000E+00 0. -1.
         -2   -1    0    0    0  501 -0.00000000000E+00 -0.00000000000E+00 -0.53527976165E+02  0.53527976165E+02  0.00000000000E+00 0.  1.
          5    1    1    2  502    0 -0.76446059528E+01  0.39244283201E+02  0.27905015224E+01  0.40353818443E+02  0.47000000000E+01 0. -1.
         -5    1    1    2    0  502  0.48204819977E+02 -0.15407791901E+02  0.17354371286E+03  0.18083311365E+03  0.47000000000E+01 0. -1.
        -11    1    1    2    0    0 -0.26172810857E+02  0.28784768441E+02  0.44987207886E+02  0.59476279270E+02  0.00000000000E+00 0. -1.
         11    1    1    2    0    0 -0.14387403167E+02 -0.52621259742E+02  0.73285679389E+01  0.55042731171E+02  0.00000000000E+00 0.  1.
<mgrwt>
<rscale>  0 0.12479389E+03</rscale>
<asrwt>0</asrwt>
<pdfrwt beam="1">  1        2 0.43411994E-01 0.13352866E+03</pdfrwt>
<pdfrwt beam="2">  1       -2 0.82350734E-02 0.13352866E+03</pdfrwt>
<totfact> 0.99727912E+03</totfact>
</mgrwt>
</event>
<event>
 6    1  0.4705246E-006  0.1299397E+03  0.7546771E-02  0.1241483E+00
         -2   -1    0    0    0  501 -0.00000000000E+00  0.00000000000E+00  0.16925525051E+02  0.16925525051E+02  0.00000000000E+00 0.  1.
          2   -1    0    0  501    0  0.00000000000E+00 -0.00000000000E+00 -0.92672802066E+03  0.92672802066E+03  0.00000000000E+00 0. -1.
          5    1    1    2  502    0 -0.36470919454E+02  0.55685023113E+02 -0.26733789613E+03  0.27554054233E+03  0.47000000000E+01 0.  1.
         -5    1    1    2    0  502  0.99707063346E+00 -0.56699871069E+02 -0.43625096634E+03  0.43994643442E+03  0.47000000000E+01 0.  1.
        -11    1    1    2    0    0 -0.45573588888E+01 -0.20149478825E+02 -0.41240634701E+01  0.21066060772E+02  0.00000000000E+00 0.  1.
         11    1    1    2    0    0  0.40031207709E+02  0.21164326780E+02 -0.20208956968E+03  0.20710050819E+03  0.00000000000E+00 0. -1.
<mgrwt>
<rscale>  0 0.12098366E+03</rscale>
<asrwt>0</asrwt>
<pdfrwt beam="2">  1        2 0.14257353E+00 0.12993970E+03</pdfrwt>
<pdfrwt beam="1">  1       -2 0.26039271E-02 0.12993970E+03</pdfrwt>
<totfact> 0.14567505E+04</totfact>
</mgrwt>
</event>
<event>
 6    1  0.4705246E-006  0.1372804E+03  0.7546771E-02  0.1230599E+00
          3   -1    0    0  501    0  0.00000000000E+00  0.00000000000E+00  0.51167618255E+03  0.51167618255E+03  0.00000000000E+00 0. -1.
         -3   -1    0    0    0  501 -0.00000000000E+00 -0.00000000000E+00 -0.31431133802E+02  0.31431133802E+02  0.00000000000E+00 0.  1.
          5    1    1    2  502    0 -0.40852122234E+02  0.74464280953E+02  0.31664995404E+03  0.32787666649E+03  0.47000000000E+01 0.  1.
         -5    1    1    2    0  502 -0.10457798472E+01 -0.35972604118E+02  0.38635127090E+02  0.53008347907E+02  0.47000000000E+01 0.  1.
        -11    1    1    2    0    0  0.60866229512E+02 -0.73433634501E+00  0.79971901469E+02  0.10050244857E+03  0.00000000000E+00 0.  1.
         11    1    1    2    0    0 -0.18968327431E+02 -0.37757340490E+02  0.44988066139E+02  0.61719853381E+02  0.00000000000E+00 0. -1.
<mgrwt>
<rscale>  0 0.12790421E+03</rscale>
<asrwt>0</asrwt>
<pdfrwt beam="1">  1        3 0.78719407E-01 0.13728039E+03</pdfrwt>
<pdfrwt beam="2">  1       -3 0.48355594E-02 0.13728039E+03</pdfrwt>
<totfact> 0.86044650E+02</totfact>
</mgrwt>
</event>
<event>
 6    1  0.6385146E-006  0.3475436E+03  0.7546771E-02  0.1063628E+00
         -1   -1    0    0    0  501 -0.00000000000E+00  0.00000000000E+00  0.26998757687E+03  0.26998757687E+03  0.00000000000E+00 0.  1.
          1   -1    0    0  501    0  0.00000000000E+00 -0.00000000000E+00 -0.11184455496E+03  0.11184455496E+03  0.00000000000E+00 0. -1.
          5    1    1    2  502    0 -0.85409771492E+01 -0.28146543533E+02  0.16026540191E+01  0.29830097275E+02  0.47000000000E+01 0. -1.
         -5    1    1    2    0  502  0.13845138977E+03  0.63306030756E+02  0.64007268499E+02  0.16521338106E+03  0.47000000000E+01 0. -1.
        -11    1    1    2    0    0 -0.52605090999E+02 -0.85300723108E+01  0.90469879472E+02  0.10499931821E+03  0.00000000000E+00 0.  1.
         11    1    1    2    0    0 -0.77305321622E+02 -0.26629414912E+02  0.20632199180E+01  0.81789335284E+02  0.00000000000E+00 0. -1.
<mgrwt>
<rscale>  0 0.34754361E+03</rscale>
<asrwt>0</asrwt>
<pdfrwt beam="2">  1        1 0.17206855E-01 0.34754361E+03</pdfrwt>
<pdfrwt beam="1">  1       -1 0.41536550E-01 0.34754361E+03</pdfrwt>
<totfact> 0.17999652E+03</totfact>
</mgrwt>
</event>
<event>
 6    1  0.4705246E-006  0.1379904E+03  0.7546771E-02  0.1229463E+00
         -2   -1    0    0    0  501 -0.00000000000E+00  0.00000000000E+00  0.18893250167E+02  0.18893250167E+02  0.00000000000E+00 0. -1.
          2   -1    0    0  501    0  0.00000000000E+00 -0.00000000000E+00 -0.79313424220E+03  0.79313424220E+03  0.00000000000E+00 0.  1.
          5    1    1    2  502    0 -0.65941082849E+02 -0.60850666372E+02 -0.43132134469E+03  0.44058055154E+03  0.47000000000E+01 0. -1.
         -5    1    1    2    0  502  0.34685675205E+02  0.11454440051E+02 -0.66565203248E+02  0.76074414522E+02  0.47000000000E+01 0. -1.
        -11    1    1    2    0    0  0.21825559255E+02  0.56452599091E+02 -0.27704051241E+03  0.28357485167E+03  0.00000000000E+00 0.  1.
         11    1    1    2    0    0  0.94298483884E+01 -0.70563727699E+01  0.68606831599E+00  0.11797674645E+02  0.00000000000E+00 0. -1.
<mgrwt>
<rscale>  0 0.12865628E+03</rscale>
<asrwt>0</asrwt>
<pdfrwt beam="2">  1        2 0.12202065E+00 0.13799036E+03</pdfrwt>
<pdfrwt beam="1">  1       -2 0.29066538E-02 0.13799036E+03</pdfrwt>
<totfact> 0.15195281E+04</totfact>
</mgrwt>
</event>
<event>
 6    1  0.4705246E-006  0.4565455E+03  0.7546771E-02  0.1025788E+00
          2   -1    0    0  501    0  0.00000000000E+00  0.00000000000E+00  0.12120547597E+04  0.12120547597E+04  0.00000000000E+00 0. -1.
         -2   -1    0    0    0  501 -0.00000000000E+00 -0.00000000000E+00 -0.42991820922E+02  0.42991820922E+02  0.00000000000E+00 0.  1.
          5    1    1    2  502    0  0.11128611658E+03  0.11888800376E+03  0.86440793059E+03  0.87962612378E+03  0.47000000000E+01 0. -1.
         -5    1    1    2    0  502  0.14258830963E+02  0.40177983882E+01  0.53149244746E+01  0.16425449355E+02  0.47000000000E+01 0. -1.
        -11    1    1    2    0    0 -0.61568466823E+02 -0.34896277523E+02  0.19814705230E+03  0.21040599000E+03  0.00000000000E+00 0. -1.
         11    1    1    2    0    0 -0.63976480721E+02 -0.88009524624E+02  0.10119303142E+03  0.14858901749E+03  0.00000000000E+00 0.  1.
<mgrwt>
<rscale>  0 0.45654547E+03</rscale>
<asrwt>0</asrwt>
<pdfrwt beam="1">  1        2 0.18646994E+00 0.45654547E+03</pdfrwt>
<pdfrwt beam="2">  1       -2 0.66141272E-02 0.45654547E+03</pdfrwt>
<totfact> 0.25039489E+03</totfact>
</mgrwt>
</event>
<event>
 6    1  0.4705246E-006  0.1260099E+03  0.7546771E-02  0.1247317E+00
          2   -1    0    0  501    0  0.00000000000E+00  0.00000000000E+00  0.79279708743E+02  0.79279708743E+02  0.00000000000E+00 0. -1.
         -2   -1    0    0    0  501 -0.00000000000E+00 -0.00000000000E+00 -0.17996620574E+03  0.17996620574E+03  0.00000000000E+00 0.  1.
          5    1    1    2  502    0 -0.98855971218E+01  0.50101399769E+02 -0.31118073243E+02  0.59985829757E+02  0.47000000000E+01 0.  1.
         -5    1    1    2    0  502 -0.19559565495E+01 -0.61823073787E+02  0.23306056307E+02  0.66265982820E+02  0.47000000000E+01 0.  1.
        -11    1    1    2    0    0  0.32207513728E+02  0.44285110738E+02 -0.67690616999E+02  0.87066150733E+02  0.00000000000E+00 0.  1.
         11    1    1    2    0    0 -0.20365960057E+02 -0.32563436721E+02 -0.25183863059E+02  0.45927951170E+02  0.00000000000E+00 0. -1.
<mgrwt>
<rscale>  0 0.11747760E+03</rscale>
<asrwt>0</asrwt>
<pdfrwt beam="1">  1        2 0.12196878E-01 0.12600989E+03</pdfrwt>
<pdfrwt beam="2">  1       -2 0.27687109E-01 0.12600989E+03</pdfrwt>
<totfact> 0.55986419E+03</totfact>
</mgrwt>
</event>
<event>
 6    1  0.4705246E-006  0.1314899E+03  0.7546771E-02  0.1240452E+00
         -1   -1    0    0    0  501 -0.00000000000E+00  0.00000000000E+00  0.11705015530E+03  0.11705015530E+03  0.00000000000E+00 0.  1.
          1   -1    0    0  501    0  0.00000000000E+00 -0.00000000000E+00 -0.11911435143E+03  0.11911435143E+03  0.00000000000E+00 0. -1.
          5    1    1    2  502    0  0.13780298123E+01 -0.41988949161E+02  0.15290580466E+02  0.44954006148E+02  0.47000000000E+01 0. -1.
         -5    1    1    2    0  502  0.25828569640E+02  0.72361738817E+02 -0.47398182355E+02  0.90399192169E+02  0.47000000000E+01 0. -1.
        -11    1    1    2    0    0 -0.47600015516E+00 -0.55062509439E+02  0.24054784439E+01  0.55117083091E+02  0.00000000000E+00 0. -1.
         11    1    1    2    0    0 -0.26730599297E+02  0.24689719783E+02  0.27637927310E+02  0.45694225322E+02  0.00000000000E+00 0.  1.
<mgrwt>
<rscale>  0 0.12161789E+03</rscale>
<asrwt>0</asrwt>
<pdfrwt beam="2">  1        1 0.18325285E-01 0.13148989E+03</pdfrwt>
<pdfrwt beam="1">  1       -1 0.18007716E-01 0.13148989E+03</pdfrwt>
<totfact> 0.64883992E+03</totfact>
</mgrwt>
</event>
<event>
 6    1  0.4705246E-006  0.1540938E+03  0.7546771E-02  0.1203654E+00
          1   -1    0    0  501    0  0.00000000000E+00  0.00000000000E+00  0.21082391908E+02  0.21082391908E+02  0.00000000000E+00 0. -1.
         -1   -1    0    0    0  501 -0.00000000000E+00 -0.00000000000E+00 -0.10088822966E+04  0.10088822966E+04  0.00000000000E+00 0.  1.
          5    1    1    2  502    0  0.49056662866E+01 -0.42768143109E+02 -0.33775326371E+03  0.34051804177E+03  0.47000000000E+01 0.  1.
         -5    1    1    2    0  502  0.64246134362E+02 -0.15006394354E+02 -0.74668986885E+02  0.99751216807E+02  0.47000000000E+01 0.  1.
        -11    1    1    2    0    0  0.52032858703E+01  0.47861661558E+02 -0.14374356805E+03  0.15159164286E+03  0.00000000000E+00 0. -1.
         11    1    1    2    0    0 -0.74355086519E+02  0.99128759055E+01 -0.43163408603E+03  0.43810378705E+03  0.00000000000E+00 0.  1.
<mgrwt>
<rscale>  0 0.14744075E+03</rscale>
<asrwt>0</asrwt>
<pdfrwt beam="1">  1        1 0.32434446E-02 0.15409383E+03</pdfrwt>
<pdfrwt beam="2">  1       -1 0.15521268E+00 0.15409383E+03</pdfrwt>
<totfact> 0.10387202E+03</totfact>
</mgrwt>
</event>
<event>
 6    1  0.4705246E-006  0.1589134E+03  0.7546771E-02  0.1198243E+00
         -1   -1    0    0    0  501 -0.00000000000E+00  0.00000000000E+00  0.46447950228E+02  0.46447950228E+02  0.00000000000E+00 0.  1.
          1   -1    0    0  501    0  0.00000000000E+00 -0.00000000000E+00 -0.46434153547E+03  0.46434153547E+03  0.00000000000E+00 0. -1.
          5    1    1    2  502    0 -0.87991750891E+01 -0.18264685599E+02 -0.14483414798E+03  0.14632171624E+03  0.47000000000E+01 0. -1.
         -5    1    1    2    0  502  0.10692482779E+03  0.19301120197E+02 -0.11519379772E+03  0.15842081010E+03  0.47000000000E+01 0. -1.
        -11    1    1    2    0    0 -0.10661354852E+02 -0.26627458155E+02 -0.83929063283E+02  0.88694834565E+02  0.00000000000E+00 0. -1.
         11    1    1    2    0    0 -0.87464297852E+02  0.25591023556E+02 -0.73936576271E+02  0.11735212480E+03  0.00000000000E+00 0.  1.
<mgrwt>
<rscale>  0 0.15182906E+03</rscale>
<asrwt>0</asrwt>
<pdfrwt beam="2">  1        1 0.71437163E-01 0.15891342E+03</pdfrwt>
<pdfrwt beam="1">  1       -1 0.71458381E-02 0.15891342E+03</pdfrwt>
<totfact> 0.49566916E+03</totfact>
</mgrwt>
</event>
<event>
 6    1  0.4705246E-006  0.2404174E+03  0.7546771E-02  0.1122294E+00
          1   -1    0    0  501    0  0.00000000000E+00  0.00000000000E+00  0.16455323669E+04  0.16455323669E+04  0.00000000000E+00 0. -1.
         -1   -1    0    0    0  501 -0.00000000000E+00 -0.00000000000E+00 -0.51954221165E+02  0.51954221165E+02  0.00000000000E+00 0.  1.
          5    1    1    2  502    0 -0.72197164080E+02  0.14761963062E+03  0.71736659453E+03  0.73596257160E+03  0.47000000000E+01 0.  1.
         -5    1    1    2    0  502  0.28459361887E+02  0.53033107919E+02  0.61187701702E+03  0.61484796476E+03  0.47000000000E+01 0.  1.
        -11    1    1    2    0    0  0.27972926598E+02 -0.14236261547E+03  0.11350795898E+03  0.18421089994E+03  0.00000000000E+00 0.  1.
         11    1    1    2    0    0  0.15764875594E+02 -0.58290123071E+02  0.15082657525E+03  0.16246515180E+03  0.00000000000E+00 0. -1.
<mgrwt>
<rscale>  0 0.23628322E+03</rscale>
<asrwt>0</asrwt>
<pdfrwt beam="1">  1        1 0.25315879E+00 0.24041740E+03</pdfrwt>
<pdfrwt beam="2">  1       -1 0.79929584E-02 0.24041740E+03</pdfrwt>
<totfact> 0.49755886E+02</totfact>
</mgrwt>
</event>
<event>
 6    1  0.4705246E-006  0.1304052E+03  0.7546771E-02  0.1241185E+00
         -1   -1    0    0    0  501 -0.00000000000E+00  0.00000000000E+00  0.40311029031E+02  0.40311029031E+02  0.00000000000E+00 0.  1.
          1   -1    0    0  501    0  0.00000000000E+00 -0.00000000000E+00 -0.36633358528E+03  0.36633358528E+03  0.00000000000E+00 0. -1.
          5    1    1    2  502    0  0.36080503185E+02 -0.50525963382E+02 -0.24156863494E+03  0.24946376705E+03  0.47000000000E+01 0. -1.
         -5    1    1    2    0  502 -0.29727912843E+01  0.33687621847E+02 -0.12949051370E+02  0.36516589177E+02  0.47000000000E+01 0. -1.
        -11    1    1    2    0    0 -0.34147175981E+02 -0.31951099770E+02 -0.24014169809E+02  0.52569789382E+02  0.00000000000E+00 0.  1.
         11    1    1    2    0    0  0.10394640802E+01  0.48789441305E+02 -0.47490700127E+02  0.68094468696E+02  0.00000000000E+00 0. -1.
<mgrwt>
<rscale>  0 0.12116645E+03</rscale>
<asrwt>0</asrwt>
<pdfrwt beam="2">  1        1 0.56359014E-01 0.13040518E+03</pdfrwt>
<pdfrwt beam="1">  1       -1 0.62016967E-02 0.13040518E+03</pdfrwt>
<totfact> 0.81839888E+03</totfact>
</mgrwt>
</event>
<event>
 6    1  0.4705246E-006  0.1280122E+03  0.7546771E-02  0.1245250E+00
          2   -1    0    0  501    0  0.00000000000E+00  0.00000000000E+00  0.10181484793E+04  0.10181484793E+04  0.00000000000E+00 0. -1.
         -2   -1    0    0    0  501 -0.00000000000E+00 -0.00000000000E+00 -0.13114898473E+02  0.13114898473E+02  0.00000000000E+00 0.  1.
          5    1    1    2  502    0  0.11214315977E+02 -0.66593309059E+02  0.23193558130E+03  0.24161256914E+03  0.47000000000E+01 0. -1.
         -5    1    1    2    0  502 -0.81590128645E+00  0.41035321580E+02  0.47718586843E+03  0.47897077817E+03  0.47000000000E+01 0. -1.
        -11    1    1    2    0    0  0.34065522086E+02  0.29418176784E+02  0.19836755188E+03  0.20340986839E+03  0.00000000000E+00 0. -1.
         11    1    1    2    0    0 -0.44463936776E+02 -0.38601893048E+01  0.97544579187E+02  0.10727016204E+03  0.00000000000E+00 0.  1.
<mgrwt>
<rscale>  0 0.11870405E+03</rscale>
<asrwt>0</asrwt>
<pdfrwt beam="1">  1        2 0.15663816E+00 0.12801223E+03</pdfrwt>
<pdfrwt beam="2">  1       -2 0.20176775E-02 0.12801223E+03</pdfrwt>
<totfact> 0.18573665E+04</totfact>
</mgrwt>
</event>
<event>
 6    1  0.4705246E-006  0.1333785E+03  0.7546771E-02  0.1279610E+00
         -2   -1    0    0    0  501 -0.00000000000E+00  0.00000000000E+00  0.18466383956E+02  0.18466383956E+02  0.00000000000E+00 0.  1.
          2   -1    0    0  501    0  0.00000000000E+00 -0.00000000000E+00 -0.57368883569E+03  0.57368883569E+03  0.00000000000E+00 0. -1.
          5    1    1    2  502    0  0.48232154536E+02 -0.65121295721E+02 -0.38642180193E+03  0.39485569882E+03  0.47000000000E+01 0. -1.
         -5    1    1    2    0  502 -0.18400505174E+02  0.44193757870E+02 -0.13348935496E+03  0.14189138350E+03  0.47000000000E+01 0.  1.
        -11    1    1    2    0    0 -0.12182443917E+02  0.21283792508E+02 -0.16198953435E+02  0.29390778412E+02  0.00000000000E+00 0.  1.
         11    1    1    2    0    0 -0.17649205445E+02 -0.35625465652E+00 -0.19112341412E+02  0.26017358906E+02  0.00000000000E+00 0. -1.
<mgrwt>
<rscale>  0 0.10032700E+03</rscale>
<asrwt>0</asrwt>
<pdfrwt beam="2">  1        2 0.88259809E-01 0.13337848E+03</pdfrwt>
<pdfrwt beam="1">  1       -2 0.28409825E-02 0.13337848E+03</pdfrwt>
<totfact> 0.22943710E+04</totfact>
</mgrwt>
</event>
<event>
 6    1  0.4705246E-006  0.1325987E+03  0.7546771E-02  0.1236505E+00
          3   -1    0    0  501    0  0.00000000000E+00  0.00000000000E+00  0.58051566734E+02  0.58051566734E+02  0.00000000000E+00 0. -1.
         -3   -1    0    0    0  501 -0.00000000000E+00 -0.00000000000E+00 -0.24280359777E+03  0.24280359777E+03  0.00000000000E+00 0.  1.
          5    1    1    2  502    0  0.20904948491E+02  0.62564963591E+02 -0.20132329317E+02  0.69128808931E+02  0.47000000000E+01 0. -1.
         -5    1    1    2    0  502  0.22981858691E+02 -0.56711021150E+02 -0.59859468800E+02  0.85729526733E+02  0.47000000000E+01 0. -1.
        -11    1    1    2    0    0 -0.69684400488E+02 -0.19448194291E+02 -0.70656892668E+02  0.10112637843E+03  0.00000000000E+00 0. -1.
         11    1    1    2    0    0  0.25797593306E+02  0.13594251851E+02 -0.34103340246E+02  0.44870450407E+02  0.00000000000E+00 0.  1.
<mgrwt>
<rscale>  0 0.12408562E+03</rscale>
<asrwt>0</asrwt>
<pdfrwt beam="1">  1        3 0.89310103E-02 0.13259870E+03</pdfrwt>
<pdfrwt beam="2">  1       -3 0.37354400E-01 0.13259870E+03</pdfrwt>
<totfact> 0.14448969E+03</totfact>
</mgrwt>
</event>
<event>
 6    1  0.4705246E-006  0.3065354E+03  0.7546771E-02  0.1082018E+00
          2   -1    0    0  501    0  0.00000000000E+00  0.00000000000E+00  0.99025792321E+02  0.99025792321E+02  0.00000000000E+00 0. -1.
         -2   -1    0    0    0  501 -0.00000000000E+00 -0.00000000000E+00 -0.23722094807E+03  0.23722094807E+03  0.00000000000E+00 0.  1.
          5    1    1    2  502    0 -0.77422822084E+02  0.10243764736E+03 -0.56527287152E+02  0.14037517291E+03  0.47000000000E+01 0.  1.
         -5    1    1    2    0  502  0.64208533997E+00 -0.24072101413E+02  0.17935020274E+02  0.30391335809E+02  0.47000000000E+01 0.  1.
        -11    1    1    2    0    0  0.37312763955E+02 -0.63808952978E+02 -0.21854131410E+02  0.77080658364E+02  0.00000000000E+00 0. -1.
         11    1    1    2    0    0  0.39467972789E+02 -0.14556592969E+02 -0.77748757459E+02  0.88399573309E+02  0.00000000000E+00 0.  1.
<mgrwt>
<rscale>  0 0.30653543E+03</rscale>
<asrwt>0</asrwt>
<pdfrwt beam="1">  1        2 0.15234737E-01 0.30653543E+03</pdfrwt>
<pdfrwt beam="2">  1       -2 0.36495530E-01 0.30653543E+03</pdfrwt>
<totfact> 0.27162806E+03</totfact>
</mgrwt>
</event>
<event>
 6    1  0.4705246E-006  0.3843354E+03  0.7546771E-02  0.1050305E+00
          2   -1    0    0  501    0  0.00000000000E+00  0.00000000000E+00  0.14639658527E+04  0.14639658527E+04  0.00000000000E+00 0. -1.
         -2   -1    0    0    0  501 -0.00000000000E+00 -0.00000000000E+00 -0.99813475820E+02  0.99813475820E+02  0.00000000000E+00 0.  1.
          5    1    1    2  502    0 -0.23893070680E+03 -0.89270788733E+02  0.32369306397E+03  0.41213644104E+03  0.47000000000E+01 0. -1.
         -5    1    1    2    0  502 -0.11779274200E+03  0.19694550869E+02  0.26772762041E+03  0.29319477167E+03  0.47000000000E+01 0. -1.
        -11    1    1    2    0    0  0.26547808020E+03  0.21368865551E+02  0.61196085009E+03  0.66740641406E+03  0.00000000000E+00 0.  1.
         11    1    1    2    0    0  0.91245368607E+02  0.48207372313E+02  0.16077084237E+03  0.19104170171E+03  0.00000000000E+00 0. -1.
<mgrwt>
<rscale>  0 0.38170559E+03</rscale>
<asrwt>0</asrwt>
<pdfrwt beam="1">  1        2 0.22522550E+00 0.38433539E+03</pdfrwt>
<pdfrwt beam="2">  1       -2 0.15355920E-01 0.38433539E+03</pdfrwt>
<totfact> 0.46566394E+02</totfact>
</mgrwt>
</event>
<event>
 6    1  0.4705246E-006  0.2520289E+03  0.7546771E-02  0.1112029E+00
          4   -1    0    0  501    0  0.00000000000E+00  0.00000000000E+00  0.26536446184E+02  0.26536446184E+02  0.00000000000E+00 0. -1.
         -4   -1    0    0    0  501 -0.00000000000E+00 -0.00000000000E+00 -0.59840891157E+03  0.59840891157E+03  0.00000000000E+00 0.  1.
          5    1    1    2  502    0  0.23940620572E+02  0.74964993797E+01 -0.76294486672E+01  0.26639243670E+02  0.47000000000E+01 0. -1.
         -5    1    1    2    0  502 -0.87002371449E+02 -0.78044846993E+01 -0.27837170494E+03  0.29179310946E+03  0.47000000000E+01 0. -1.
        -11    1    1    2    0    0  0.17425566642E+02 -0.30499083107E+02 -0.34693184556E+02  0.49370654217E+02  0.00000000000E+00 0. -1.
         11    1    1    2    0    0  0.45636184236E+02  0.30807068427E+02 -0.25117812722E+03  0.25714235041E+03  0.00000000000E+00 0.  1.
<mgrwt>
<rscale>  0 0.25202893E+03</rscale>
<asrwt>0</asrwt>
<pdfrwt beam="1">  1        4 0.40825301E-02 0.25202893E+03</pdfrwt>
<pdfrwt beam="2">  1       -4 0.92062911E-01 0.25202893E+03</pdfrwt>
<totfact> 0.63362680E+02</totfact>
</mgrwt>
</event>
<event>
 6    1  0.4705246E-006  0.2967688E+03  0.7546771E-02  0.1086867E+00
         -2   -1    0    0    0  501 -0.00000000000E+00  0.00000000000E+00  0.38992428760E+02  0.38992428760E+02  0.00000000000E+00 0.  1.
          2   -1    0    0  501    0  0.00000000000E+00 -0.00000000000E+00 -0.56467177875E+03  0.56467177875E+03  0.00000000000E+00 0. -1.
          5    1    1    2  502    0  0.12019900016E+02 -0.92211028816E+02 -0.13594360185E+03  0.16477288829E+03  0.47000000000E+01 0. -1.
         -5    1    1    2    0  502  0.18507325152E+02  0.26757144623E+01 -0.20539907621E+03  0.20630208686E+03  0.47000000000E+01 0.  1.
        -11    1    1    2    0    0 -0.64759375880E+02  0.42035360384E+02 -0.70376531993E+02  0.10446819871E+03  0.00000000000E+00 0.  1.
         11    1    1    2    0    0  0.34232150713E+02  0.47499953970E+02 -0.11396013994E+03  0.12812103365E+03  0.00000000000E+00 0. -1.
<mgrwt>
<rscale>  0 0.29676876E+03</rscale>
<asrwt>0</asrwt>
<pdfrwt beam="2">  1        2 0.86872576E-01 0.29676876E+03</pdfrwt>
<pdfrwt beam="1">  1       -2 0.59988356E-02 0.29676876E+03</pdfrwt>
<totfact> 0.80062083E+03</totfact>
</mgrwt>
</event>
<event>
 6    1  0.4705246E-006  0.1483181E+03  0.7546771E-02  0.1211776E+00
          2   -1    0    0  501    0  0.00000000000E+00  0.00000000000E+00  0.84944068250E+03  0.84944068250E+03  0.00000000000E+00 0. -1.
         -2   -1    0    0    0  501 -0.00000000000E+00 -0.00000000000E+00 -0.30033974002E+02  0.30033974002E+02  0.00000000000E+00 0.  1.
          5    1    1    2  502    0 -0.26595903661E+02 -0.43284082439E+02  0.46056853497E+03  0.46338571330E+03  0.47000000000E+01 0.  1.
         -5    1    1    2    0  502 -0.52289170623E+02  0.55513331052E+02  0.21216707436E+03  0.22550575321E+03  0.47000000000E+01 0.  1.
        -11    1    1    2    0    0  0.56536813432E+02 -0.28556289010E+02  0.14988641584E+03  0.16272003739E+03  0.00000000000E+00 0. -1.
         11    1    1    2    0    0  0.22348260853E+02  0.16327040397E+02 -0.32153166785E+01  0.27863152597E+02  0.00000000000E+00 0.  1.
<mgrwt>
<rscale>  0 0.14116053E+03</rscale>
<asrwt>0</asrwt>
<pdfrwt beam="1">  1        2 0.13068316E+00 0.14831808E+03</pdfrwt>
<pdfrwt beam="2">  1       -2 0.46206120E-02 0.14831808E+03</pdfrwt>
<totfact> 0.70388869E+03</totfact>
</mgrwt>
</event>
<event>
 6    1  0.4705246E-006  0.1426547E+03  0.7546771E-02  0.1214326E+00
          3   -1    0    0  501    0  0.00000000000E+00  0.00000000000E+00  0.62733509034E+03  0.62733509034E+03  0.00000000000E+00 0. -1.
         -3   -1    0    0    0  501 -0.00000000000E+00 -0.00000000000E+00 -0.37987102216E+02  0.37987102216E+02  0.00000000000E+00 0.  1.
          5    1    1    2  502    0 -0.42547666115E+02 -0.55536953932E+02  0.27126857367E+03  0.28018455739E+03  0.47000000000E+01 0. -1.
         -5    1    1    2    0  502 -0.48126998467E+02  0.51316424381E+02  0.19125183978E+03  0.20383557003E+03  0.47000000000E+01 0.  1.
        -11    1    1    2    0    0  0.67550616894E+02 -0.16781389160E+02  0.23669929591E+02  0.73518476805E+02  0.00000000000E+00 0.  1.
         11    1    1    2    0    0  0.23124047688E+02  0.21001918711E+02  0.10315764509E+03  0.10778358832E+03  0.00000000000E+00 0. -1.
<mgrwt>
<rscale>  0 0.13926125E+03</rscale>
<asrwt>0</asrwt>
<pdfrwt beam="1">  1        3 0.96513083E-01 0.14265466E+03</pdfrwt>
<pdfrwt beam="2">  1       -3 0.58441700E-02 0.14265466E+03</pdfrwt>
<totfact> 0.40859280E+02</totfact>
</mgrwt>
</event>
<event>
 6    1  0.4705246E-006  0.1295364E+03  0.7546771E-02  0.1248602E+00
          1   -1    0    0  501    0  0.00000000000E+00  0.00000000000E+00  0.79063311467E+03  0.79063311467E+03  0.00000000000E+00 0. -1.
         -1   -1    0    0    0  501 -0.00000000000E+00 -0.00000000000E+00 -0.14699971870E+02  0.14699971870E+02  0.00000000000E+00 0.  1.
          5    1    1    2  502    0 -0.36647783913E+02 -0.25998601915E+02  0.85094500681E+02  0.96343922555E+02  0.47000000000E+01 0.  1.
         -5    1    1    2    0  502  0.42782059392E+02  0.59418458617E+02  0.35082781430E+03  0.35841749834E+03  0.47000000000E+01 0.  1.
        -11    1    1    2    0    0 -0.17070627698E+02 -0.50264232342E+02  0.30966533853E+03  0.31418230579E+03  0.00000000000E+00 0. -1.
         11    1    1    2    0    0  0.10936352218E+02  0.16844375641E+02  0.30345489291E+02  0.36389359858E+02  0.00000000000E+00 0.  1.
<mgrwt>
<rscale>  0 0.11672346E+03</rscale>
<asrwt>0</asrwt>
<pdfrwt beam="1">  1        1 0.12163583E+00 0.12953642E+03</pdfrwt>
<pdfrwt beam="2">  1       -1 0.22615348E-02 0.12953642E+03</pdfrwt>
<totfact> 0.12799857E+04</totfact>
</mgrwt>
</event>
<event>
 6    1  0.4705246E-006  0.1316571E+03  0.7546771E-02  0.1238003E+00
          1   -1    0    0  501    0  0.00000000000E+00  0.00000000000E+00  0.37012839634E+02  0.37012839634E+02  0.00000000000E+00 0. -1.
         -1   -1    0    0    0  501 -0.00000000000E+00 -0.00000000000E+00 -0.39315532349E+03  0.39315532349E+03  0.00000000000E+00 0.  1.
          5    1    1    2  502    0 -0.38890442234E+02 -0.70909415078E+02 -0.67787785330E+02  0.10563089266E+03  0.47000000000E+01 0.  1.
         -5    1    1    2    0  502  0.36353708305E+02  0.29651469326E+02 -0.75019203433E+02  0.88604585798E+02  0.47000000000E+01 0.  1.
        -11    1    1    2    0    0 -0.33822869735E+02  0.43994943850E+02 -0.17240701993E+03  0.18111797846E+03  0.00000000000E+00 0.  1.
         11    1    1    2    0    0  0.36359603664E+02 -0.27369980977E+01 -0.40928475165E+02  0.54814706206E+02  0.00000000000E+00 0. -1.
<mgrwt>
<rscale>  0 0.12314114E+03</rscale>
<asrwt>0</asrwt>
<pdfrwt beam="1">  1        1 0.56942827E-02 0.13165707E+03</pdfrwt>
<pdfrwt beam="2">  1       -1 0.60485438E-01 0.13165707E+03</pdfrwt>
<totfact> 0.38063785E+03</totfact>
</mgrwt>
</event>
<event>
 6    1  0.4705246E-006  0.1344745E+03  0.7546771E-02  0.1228041E+00
         -2   -1    0    0    0  501 -0.00000000000E+00  0.00000000000E+00  0.32178741116E+02  0.32178741116E+02  0.00000000000E+00 0.  1.
          2   -1    0    0  501    0  0.00000000000E+00 -0.00000000000E+00 -0.49294951403E+03  0.49294951403E+03  0.00000000000E+00 0. -1.
          5    1    1    2  502    0 -0.37694863028E+02 -0.34883633114E+02 -0.13127306554E+03  0.14104069730E+03  0.47000000000E+01 0. -1.
         -5    1    1    2    0  502  0.80447367676E+02  0.97614949505E+01 -0.14328931275E+03  0.16468449501E+03  0.47000000000E+01 0. -1.
        -11    1    1    2    0    0  0.22730225655E+02  0.37456462336E+02 -0.10864871210E+03  0.11715029821E+03  0.00000000000E+00 0. -1.
         11    1    1    2    0    0 -0.65482730303E+02 -0.12334324172E+02 -0.77559682522E+02  0.10225276463E+03  0.00000000000E+00 0.  1.
<mgrwt>
<rscale>  0 0.12960665E+03</rscale>
<asrwt>0</asrwt>
<pdfrwt beam="2">  1        2 0.75838386E-01 0.13447451E+03</pdfrwt>
<pdfrwt beam="1">  1       -2 0.49505756E-02 0.13447451E+03</pdfrwt>
<totfact> 0.11927496E+04</totfact>
</mgrwt>
</event>
<event>
 6    1  0.4705246E-006  0.1729070E+03  0.7546771E-02  0.1181055E+00
         -1   -1    0    0    0  501 -0.00000000000E+00  0.00000000000E+00  0.21240891976E+03  0.21240891976E+03  0.00000000000E+00 0.  1.
          1   -1    0    0  501    0  0.00000000000E+00 -0.00000000000E+00 -0.30069017818E+03  0.30069017818E+03  0.00000000000E+00 0. -1.
          5    1    1    2  502    0  0.40116703688E+02 -0.68208531029E+01 -0.11055631418E+03  0.11790107106E+03  0.47000000000E+01 0. -1.
         -5    1    1    2    0  502 -0.47678224923E+02 -0.11255430457E+03 -0.13188408192E+03  0.17988103200E+03  0.47000000000E+01 0. -1.
        -11    1    1    2    0    0 -0.30428416148E+02  0.30644941564E+02  0.88813739706E+02  0.98756677310E+02  0.00000000000E+00 0. -1.
         11    1    1    2    0    0  0.37989937383E+02  0.88730216111E+02  0.65345397977E+02  0.11656031756E+03  0.00000000000E+00 0.  1.
<mgrwt>
<rscale>  0 0.16696071E+03</rscale>
<asrwt>0</asrwt>
<pdfrwt beam="2">  1        1 0.46260028E-01 0.17290701E+03</pdfrwt>
<pdfrwt beam="1">  1       -1 0.32678295E-01 0.17290701E+03</pdfrwt>
<totfact> 0.77084629E+02</totfact>
</mgrwt>
</event>
<event>
 6    1  0.4705246E-006  0.1646606E+03  0.7546771E-02  0.1190390E+00
         -2   -1    0    0    0  501 -0.00000000000E+00  0.00000000000E+00  0.56907970662E+02  0.56907970662E+02  0.00000000000E+00 0. -1.
          2   -1    0    0  501    0  0.00000000000E+00 -0.00000000000E+00 -0.44883697877E+03  0.44883697877E+03  0.00000000000E+00 0.  1.
          5    1    1    2  502    0 -0.47586068660E+02 -0.82609211642E+02 -0.10754508787E+03  0.14379412959E+03  0.47000000000E+01 0. -1.
         -5    1    1    2    0  502 -0.45489562966E+02  0.29384347565E+02 -0.17480323216E+03  0.18306009995E+03  0.47000000000E+01 0. -1.
        -11    1    1    2    0    0 -0.16603849340E+02  0.20930498490E+02 -0.15998176582E+02  0.31140251025E+02  0.00000000000E+00 0.  1.
         11    1    1    2    0    0  0.10967948097E+03  0.32294365587E+02 -0.93582511498E+02  0.14775046887E+03  0.00000000000E+00 0. -1.
<mgrwt>
<rscale>  0 0.15850926E+03</rscale>
<asrwt>0</asrwt>
<pdfrwt beam="2">  1        2 0.69051843E-01 0.16466060E+03</pdfrwt>
<pdfrwt beam="1">  1       -2 0.87550724E-02 0.16466060E+03</pdfrwt>
<totfact> 0.55961745E+03</totfact>
</mgrwt>
</event>
<event>
 6    1  0.4705246E-006  0.1377812E+03  0.7546771E-02  0.1227312E+00
          2   -1    0    0  501    0  0.00000000000E+00  0.00000000000E+00  0.22871428763E+02  0.22871428763E+02  0.00000000000E+00 0. -1.
         -2   -1    0    0    0  501 -0.00000000000E+00 -0.00000000000E+00 -0.67060103333E+03  0.67060103333E+03  0.00000000000E+00 0.  1.
          5    1    1    2  502    0 -0.19738758735E+02 -0.29221114296E+02 -0.16843776540E+03  0.17215360272E+03  0.47000000000E+01 0.  1.
         -5    1    1    2    0  502  0.65680415635E+02  0.64543808545E+02 -0.17305055258E+03  0.19608264576E+03  0.47000000000E+01 0.  1.
        -11    1    1    2    0    0  0.19160248077E+02 -0.39794142959E+02 -0.13045380935E+03  0.13772757638E+03  0.00000000000E+00 0.  1.
         11    1    1    2    0    0 -0.65101904977E+02  0.44714487098E+01 -0.17578747723E+03  0.18750863723E+03  0.00000000000E+00 0. -1.
<mgrwt>
<rscale>  0 0.13009690E+03</rscale>
<asrwt>0</asrwt>
<pdfrwt beam="1">  1        2 0.35186814E-02 0.13778122E+03</pdfrwt>
<pdfrwt beam="2">  1       -2 0.10316939E+00 0.13778122E+03</pdfrwt>
<totfact> 0.19305627E+03</totfact>
</mgrwt>
</event>
<event>
 6    1  0.4705246E-006  0.1276027E+03  0.7546771E-02  0.1245921E+00
          2   -1    0    0  501    0  0.00000000000E+00  0.00000000000E+00  0.28781900029E+03  0.28781900029E+03  0.00000000000E+00 0. -1.
         -2   -1    0    0    0  501 -0.00000000000E+00 -0.00000000000E+00 -0.43049012839E+02  0.43049012839E+02  0.00000000000E+00 0.  1.
          5    1    1    2  502    0 -0.19188674883E+02 -0.43625724612E+02  0.37927540117E+01  0.48040442075E+02  0.47000000000E+01 0.  1.
         -5    1    1    2    0  502  0.57094637245E+01  0.21803253623E+02  0.15018086703E+03  0.15193538978E+03  0.47000000000E+01 0.  1.
        -11    1    1    2    0    0  0.20596235743E+02  0.55058540100E+02  0.45905993630E+02  0.74585575119E+02  0.00000000000E+00 0. -1.
         11    1    1    2    0    0 -0.71170245839E+01 -0.33236069111E+02  0.44890372779E+02  0.56306606159E+02  0.00000000000E+00 0.  1.
<mgrwt>
<rscale>  0 0.11830423E+03</rscale>
<asrwt>0</asrwt>
<pdfrwt beam="1">  1        2 0.44279845E-01 0.12760273E+03</pdfrwt>
<pdfrwt beam="2">  1       -2 0.66229252E-02 0.12760273E+03</pdfrwt>
<totfact> 0.13593077E+04</totfact>
</mgrwt>
</event>
<event>
 6    1  0.4705246E-006  0.2691318E+03  0.7546771E-02  0.1101778E+00
          1   -1    0    0  501    0  0.00000000000E+00  0.00000000000E+00  0.10407817466E+03  0.10407817466E+03  0.00000000000E+00 0. -1.
         -1   -1    0    0    0  501 -0.00000000000E+00 -0.00000000000E+00 -0.17398439191E+03  0.17398439191E+03  0.00000000000E+00 0.  1.
          5    1    1    2  502    0 -0.58152366541E+00 -0.90703350021E+01 -0.47128017411E+02  0.48226021730E+02  0.47000000000E+01 0. -1.
         -5    1    1    2    0  502  0.24238211868E+02  0.62430569164E+02  0.60520844880E+02  0.90387662575E+02  0.47000000000E+01 0. -1.
        -11    1    1    2    0    0 -0.38097777120E+02 -0.11313275107E+02  0.55209868830E+01  0.40123710089E+02  0.00000000000E+00 0. -1.
         11    1    1    2    0    0  0.14441088918E+02 -0.42046959055E+02 -0.88820031601E+02  0.99325172179E+02  0.00000000000E+00 0.  1.
<mgrwt>
<rscale>  0 0.26913177E+03</rscale>
<asrwt>0</asrwt>
<pdfrwt beam="1">  1        1 0.16012027E-01 0.26913177E+03</pdfrwt>
<pdfrwt beam="2">  1       -1 0.26766830E-01 0.26913177E+03</pdfrwt>
<totfact> 0.42122193E+03</totfact>
</mgrwt>
</event>
<event>
 6    1  0.4705246E-006  0.2596722E+03  0.7546771E-02  0.1149047E+00
          2   -1    0    0  501    0  0.00000000000E+00  0.00000000000E+00  0.17700305573E+03  0.17700305573E+03  0.00000000000E+00 0. -1.
         -2   -1    0    0    0  501 -0.00000000000E+00 -0.00000000000E+00 -0.24563697540E+03  0.24563697540E+03  0.00000000000E+00 0.  1.
          5    1    1    2  502    0  0.13242089854E+02 -0.97862862553E+02 -0.55780590989E+02  0.11351677031E+03  0.47000000000E+01 0. -1.
         -5    1    1    2    0  502  0.19189879203E+01  0.10186557597E+03  0.11331022352E+03  0.15245187712E+03  0.47000000000E+01 0.  1.
        -11    1    1    2    0    0 -0.36968215281E+02 -0.87283990607E-01 -0.12913021875E+03  0.13431779463E+03  0.00000000000E+00 0. -1.
         11    1    1    2    0    0  0.21807137507E+02 -0.39154294236E+01  0.29666665532E+01  0.22353589069E+02  0.00000000000E+00 0.  1.
<mgrwt>
<rscale>  0 0.20082241E+03</rscale>
<asrwt>0</asrwt>
<pdfrwt beam="1">  1        2 0.27231240E-01 0.25967222E+03</pdfrwt>
<pdfrwt beam="2">  1       -2 0.37790304E-01 0.25967222E+03</pdfrwt>
<totfact> 0.12959015E+03</totfact>
</mgrwt>
</event>
<event>
 6    1  0.4705246E-006  0.1415695E+03  0.7546771E-02  0.1221782E+00
         -3   -1    0    0    0  501 -0.00000000000E+00  0.00000000000E+00  0.32475984465E+03  0.32475984465E+03  0.00000000000E+00 0.  1.
          3   -1    0    0  501    0  0.00000000000E+00 -0.00000000000E+00 -0.53086207585E+02  0.53086207585E+02  0.00000000000E+00 0. -1.
          5    1    1    2  502    0 -0.42655293794E+02  0.15876307389E+02 -0.71970635849E+01  0.46318667394E+02  0.47000000000E+01 0.  1.
         -5    1    1    2    0  502  0.41631541359E+02  0.50571431835E+02  0.11195748912E+03  0.12979685791E+03  0.47000000000E+01 0.  1.
        -11    1    1    2    0    0 -0.48598791143E+01 -0.88816615216E+01 -0.10817943214E+02  0.14816552628E+02  0.00000000000E+00 0. -1.
         11    1    1    2    0    0  0.58836315494E+01 -0.57566077702E+02  0.17773115474E+03  0.18691397430E+03  0.00000000000E+00 0.  1.
<mgrwt>
<rscale>  0 0.13389908E+03</rscale>
<asrwt>0</asrwt>
<pdfrwt beam="2">  1        3 0.81671090E-02 0.14156953E+03</pdfrwt>
<pdfrwt beam="1">  1       -3 0.49963052E-01 0.14156953E+03</pdfrwt>
<totfact> 0.95818141E+02</totfact>
</mgrwt>
</event>
<event>
 6    1  0.4705246E-006  0.1357354E+03  0.7546771E-02  0.1228537E+00
          2   -1    0    0  501    0  0.00000000000E+00  0.00000000000E+00  0.80238733259E+03  0.80238733259E+03  0.00000000000E+00 0. -1.
         -2   -1    0    0    0  501 -0.00000000000E+00 -0.00000000000E+00 -0.19073124228E+02  0.19073124228E+02  0.00000000000E+00 0.  1.
          5    1    1    2  502    0 -0.21417873893E+01  0.12232569856E+02 -0.48765950737E+01  0.14145465635E+02  0.47000000000E+01 0.  1.
         -5    1    1    2    0  502 -0.27001669762E+02  0.31897397423E+02  0.43163940957E+03  0.43368329923E+03  0.47000000000E+01 0.  1.
        -11    1    1    2    0    0  0.21555134868E+02 -0.72694524595E+02  0.19167432207E+03  0.20612657152E+03  0.00000000000E+00 0.  1.
         11    1    1    2    0    0  0.75883222832E+01  0.28564557315E+02  0.16487707180E+03  0.16750512044E+03  0.00000000000E+00 0. -1.
<mgrwt>
<rscale>  0 0.12927388E+03</rscale>
<asrwt>0</asrwt>
<pdfrwt beam="1">  1        2 0.12344418E+00 0.13573541E+03</pdfrwt>
<pdfrwt beam="2">  1       -2 0.29343274E-02 0.13573541E+03</pdfrwt>
<totfact> 0.14753808E+04</totfact>
</mgrwt>
</event>
<event>
 6    1  0.4705246E-006  0.2108922E+03  0.7546771E-02  0.1171026E+00
          2   -1    0    0  501    0  0.00000000000E+00  0.00000000000E+00  0.27006930941E+04  0.27006930941E+04  0.00000000000E+00 0. -1.
         -2   -1    0    0    0  501 -0.00000000000E+00 -0.00000000000E+00 -0.17267251592E+02  0.17267251592E+02  0.00000000000E+00 0.  1.
          5    1    1    2  502    0  0.12529397269E+02  0.80684950035E+02  0.21274174532E+04  0.21289889989E+04  0.47000000000E+01 0. -1.
         -5    1    1    2    0  502 -0.65262161482E+02 -0.32239795954E+02  0.35774649085E+03  0.36510710193E+03  0.47000000000E+01 0.  1.
        -11    1    1    2    0    0 -0.16492462519E+02 -0.71673803674E+01  0.70880464925E+02  0.73126007475E+02  0.00000000000E+00 0. -1.
         11    1    1    2    0    0  0.69225226732E+02 -0.41277773714E+02  0.12738143345E+03  0.15073823738E+03  0.00000000000E+00 0.  1.
<mgrwt>
<rscale>  0 0.17670982E+03</rscale>
<asrwt>0</asrwt>
<pdfrwt beam="1">  1        2 0.41549091E+00 0.21089223E+03</pdfrwt>
<pdfrwt beam="2">  1       -2 0.26565024E-02 0.21089223E+03</pdfrwt>
<totfact> 0.15879882E+03</totfact>
</mgrwt>
</event>
<event>
 6    1  0.4705246E-006  0.2035429E+03  0.7546771E-02  0.1150973E+00
         -1   -1    0    0    0  501 -0.00000000000E+00  0.00000000000E+00  0.35569761848E+02  0.35569761848E+02  0.00000000000E+00 0.  1.
          1   -1    0    0  501    0  0.00000000000E+00 -0.00000000000E+00 -0.11135731832E+04  0.11135731832E+04  0.00000000000E+00 0. -1.
          5    1    1    2  502    0  0.46603507027E+02  0.10142886571E+03 -0.49588623039E+03  0.50831579274E+03  0.47000000000E+01 0.  1.
         -5    1    1    2    0  502  0.82899878513E+02 -0.63790836357E+01 -0.19780057974E+03  0.21461649962E+03  0.47000000000E+01 0.  1.
        -11    1    1    2    0    0 -0.79346221984E+01 -0.12928677776E+02 -0.35208087865E+00  0.15173427412E+02  0.00000000000E+00 0.  1.
         11    1    1    2    0    0 -0.12156876334E+03 -0.82121104298E+02 -0.38396453035E+03  0.41103722527E+03  0.00000000000E+00 0. -1.
<mgrwt>
<rscale>  0 0.19854408E+03</rscale>
<asrwt>0</asrwt>
<pdfrwt beam="2">  1        1 0.17131897E+00 0.20354289E+03</pdfrwt>
<pdfrwt beam="1">  1       -1 0.54722703E-02 0.20354289E+03</pdfrwt>
<totfact> 0.20219990E+03</totfact>
</mgrwt>
</event>
<event>
 6    1  0.4705246E-006  0.1647202E+03  0.7546771E-02  0.1190794E+00
         -1   -1    0    0    0  501 -0.00000000000E+00  0.00000000000E+00  0.90719382741E+03  0.90719382741E+03  0.00000000000E+00 0.  1.
          1   -1    0    0  501    0  0.00000000000E+00 -0.00000000000E+00 -0.25786703162E+02  0.25786703162E+02  0.00000000000E+00 0. -1.
          5    1    1    2  502    0 -0.41403356375E+02  0.39667430684E+02  0.14195412567E+03  0.15316920961E+03  0.47000000000E+01 0.  1.
         -5    1    1    2    0  502  0.87927541893E+02  0.56990982196E+02  0.37512517181E+03  0.38951278439E+03  0.47000000000E+01 0.  1.
        -11    1    1    2    0    0 -0.71686088125E+02 -0.85238698365E+02  0.30889225708E+03  0.32835797145E+03  0.00000000000E+00 0.  1.
         11    1    1    2    0    0  0.25161902607E+02 -0.11419714515E+02  0.55435569688E+02  0.61940565133E+02  0.00000000000E+00 0. -1.
<mgrwt>
<rscale>  0 0.15815653E+03</rscale>
<asrwt>0</asrwt>
<pdfrwt beam="2">  1        1 0.39671858E-02 0.16472021E+03</pdfrwt>
<pdfrwt beam="1">  1       -1 0.13956826E+00 0.16472021E+03</pdfrwt>
<totfact> 0.10350801E+03</totfact>
</mgrwt>
</event>
<event>
 6    1  0.4705246E-006  0.1387127E+03  0.7546771E-02  0.1226135E+00
          2   -1    0    0  501    0  0.00000000000E+00  0.00000000000E+00  0.41765833286E+03  0.41765833286E+03  0.00000000000E+00 0. -1.
         -2   -1    0    0    0  501 -0.00000000000E+00 -0.00000000000E+00 -0.38746689707E+02  0.38746689707E+02  0.00000000000E+00 0.  1.
          5    1    1    2  502    0  0.24202288254E+02 -0.35086356227E+02  0.11174034359E+02  0.44314243691E+02  0.47000000000E+01 0. -1.
         -5    1    1    2    0  502 -0.15855888230E+02 -0.24484888943E+02  0.24702993856E+03  0.24879067411E+03  0.47000000000E+01 0. -1.
        -11    1    1    2    0    0  0.53500699655E+01  0.21746787680E+02  0.12101625303E+03  0.12307103445E+03  0.00000000000E+00 0. -1.
         11    1    1    2    0    0 -0.13696469990E+02  0.37824457490E+02 -0.30858280470E+00  0.40229070309E+02  0.00000000000E+00 0.  1.
<mgrwt>
<rscale>  0 0.13089405E+03</rscale>
<asrwt>0</asrwt>
<pdfrwt beam="1">  1        2 0.64255125E-01 0.13871266E+03</pdfrwt>
<pdfrwt beam="2">  1       -2 0.59610295E-02 0.13871266E+03</pdfrwt>
<totfact> 0.10810828E+04</totfact>
</mgrwt>
</event>
<event>
 6    1  0.4705246E-006  0.4255893E+03  0.7546771E-02  0.1068715E+00
          2   -1    0    0  501    0  0.00000000000E+00  0.00000000000E+00  0.72224539570E+03  0.72224539570E+03  0.00000000000E+00 0. -1.
         -2   -1    0    0    0  501 -0.00000000000E+00 -0.00000000000E+00 -0.13347075894E+03  0.13347075894E+03  0.00000000000E+00 0.  1.
          5    1    1    2  502    0 -0.11233588545E+02 -0.12815051047E+03  0.34972652399E+03  0.37266537057E+03  0.47000000000E+01 0. -1.
         -5    1    1    2    0  502 -0.64271169857E+02  0.24081869625E+03  0.18332812843E+03  0.30944421211E+03  0.47000000000E+01 0.  1.
        -11    1    1    2    0    0  0.56856910502E+02 -0.12407517338E+02  0.17394799465E+01  0.58220963139E+02  0.00000000000E+00 0.  1.
         11    1    1    2    0    0  0.18647847900E+02 -0.10026066844E+03  0.53980504390E+02  0.11538560881E+03  0.00000000000E+00 0. -1.
<mgrwt>
<rscale>  0 0.33553115E+03</rscale>
<asrwt>0</asrwt>
<pdfrwt beam="1">  1        2 0.11111467E+00 0.42558926E+03</pdfrwt>
<pdfrwt beam="2">  1       -2 0.20533963E-01 0.42558926E+03</pdfrwt>
<totfact> 0.80989771E+02</totfact>
</mgrwt>
</event>
<event>
 6    1  0.4705246E-006  0.3199381E+03  0.7546771E-02  0.1075678E+00
          1   -1    0    0  501    0  0.00000000000E+00  0.00000000000E+00  0.11758661926E+03  0.11758661926E+03  0.00000000000E+00 0. -1.
         -1   -1    0    0    0  501 -0.00000000000E+00 -0.00000000000E+00 -0.21762759070E+03  0.21762759070E+03  0.00000000000E+00 0.  1.
          5    1    1    2  502    0  0.81623156739E+02 -0.75116026002E+02 -0.65085021438E+02  0.12869695837E+03  0.47000000000E+01 0.  1.
         -5    1    1    2    0  502  0.19360453345E+02  0.19176576689E+02  0.34484416085E+02  0.44202185465E+02  0.47000000000E+01 0.  1.
        -11    1    1    2    0    0 -0.63643076449E+02 -0.32276310127E+01  0.21620840001E-01  0.63724871513E+02  0.00000000000E+00 0. -1.
         11    1    1    2    0    0 -0.37340533635E+02  0.59167080326E+02 -0.69461986919E+02  0.98590194610E+02  0.00000000000E+00 0.  1.
<mgrwt>
<rscale>  0 0.31993807E+03</rscale>
<asrwt>0</asrwt>
<pdfrwt beam="1">  1        1 0.18090249E-01 0.31993807E+03</pdfrwt>
<pdfrwt beam="2">  1       -1 0.33481168E-01 0.31993807E+03</pdfrwt>
<totfact> 0.24633062E+03</totfact>
</mgrwt>
</event>
<event>
 6    1  0.4705246E-006  0.2300320E+03  0.7546771E-02  0.1129650E+00
         -2   -1    0    0    0  501 -0.00000000000E+00  0.00000000000E+00  0.94286453373E+02  0.94286453373E+02  0.00000000000E+00 0.  1.
          2   -1    0    0  501    0  0.00000000000E+00 -0.00000000000E+00 -0.61212938934E+03  0.61212938934E+03  0.00000000000E+00 0. -1.
          5    1    1    2  502    0  0.31926046886E+00  0.54760683591E+01 -0.13772838824E+03  0.13791768625E+03  0.47000000000E+01 0.  1.
         -5    1    1    2    0  502 -0.14059217443E+03  0.12724293440E+03 -0.26524021587E+03  0.32608493676E+03  0.47000000000E+01 0.  1.
        -11    1    1    2    0    0  0.64666418060E+02 -0.65858644066E+02 -0.38636765277E+01  0.92379838813E+02  0.00000000000E+00 0.  1.
         11    1    1    2    0    0  0.75606495901E+02 -0.66860358690E+02 -0.11101065532E+03  0.15003338089E+03  0.00000000000E+00 0. -1.
<mgrwt>
<rscale>  0 0.22577394E+03</rscale>
<asrwt>0</asrwt>
<pdfrwt beam="2">  1        2 0.94173751E-01 0.23003204E+03</pdfrwt>
<pdfrwt beam="1">  1       -2 0.14505608E-01 0.23003204E+03</pdfrwt>
<totfact> 0.17780833E+03</totfact>
</mgrwt>
</event>
<event>
 6    1  0.4705246E-006  0.1576462E+03  0.7546771E-02  0.1203343E+00
          1   -1    0    0  501    0  0.00000000000E+00  0.00000000000E+00  0.37503555024E+03  0.37503555024E+03  0.00000000000E+00 0. -1.
         -1   -1    0    0    0  501 -0.00000000000E+00 -0.00000000000E+00 -0.52029513349E+02  0.52029513349E+02  0.00000000000E+00 0.  1.
          5    1    1    2  502    0 -0.10114184935E+02  0.24070067768E+02  0.57672184845E+01  0.27148033231E+02  0.47000000000E+01 0. -1.
         -5    1    1    2    0  502 -0.18718756368E+01 -0.11937471998E+03  0.18643398516E+03  0.22143520161E+03  0.47000000000E+01 0. -1.
        -11    1    1    2    0    0  0.28014387635E+02  0.62990093455E+02  0.37567956528E+02  0.78510567096E+02  0.00000000000E+00 0.  1.
         11    1    1    2    0    0 -0.16028327063E+02  0.32314558757E+02  0.93236876716E+02  0.99971261650E+02  0.00000000000E+00 0. -1.
<mgrwt>
<rscale>  0 0.14768840E+03</rscale>
<asrwt>0</asrwt>
<pdfrwt beam="1">  1        1 0.57697775E-01 0.15764619E+03</pdfrwt>
<pdfrwt beam="2">  1       -1 0.80045408E-02 0.15764619E+03</pdfrwt>
<totfact> 0.54803312E+03</totfact>
</mgrwt>
</event>
<event>
 6    1  0.4705246E-006  0.1406560E+03  0.7546771E-02  0.1226144E+00
          1   -1    0    0  501    0  0.00000000000E+00  0.00000000000E+00  0.13797674392E+03  0.13797674392E+03  0.00000000000E+00 0. -1.
         -1   -1    0    0    0  501 -0.00000000000E+00 -0.00000000000E+00 -0.11568647518E+03  0.11568647518E+03  0.00000000000E+00 0.  1.
          5    1    1    2  502    0  0.42725820395E+02 -0.59129282788E+01 -0.17038226021E+02  0.46613834804E+02  0.47000000000E+01 0.  1.
         -5    1    1    2    0  502 -0.40366969247E+02  0.70385830769E+02  0.58121570697E+02  0.99919289227E+02  0.47000000000E+01 0.  1.
        -11    1    1    2    0    0 -0.31460704535E+02 -0.68096846595E+02 -0.63775887268E+01  0.75283664124E+02  0.00000000000E+00 0. -1.
         11    1    1    2    0    0  0.29101853388E+02  0.36239441045E+01 -0.12415487210E+02  0.31846430948E+02  0.00000000000E+00 0.  1.
<mgrwt>
<rscale>  0 0.13088799E+03</rscale>
<asrwt>0</asrwt>
<pdfrwt beam="1">  1        1 0.21227191E-01 0.14065602E+03</pdfrwt>
<pdfrwt beam="2">  1       -1 0.17797919E-01 0.14065602E+03</pdfrwt>
<totfact> 0.55073150E+03</totfact>
</mgrwt>
</event>
<event>
 6    1  0.4705246E-006  0.2556886E+03  0.7546771E-02  0.1109762E+00
          4   -1    0    0  501    0  0.00000000000E+00  0.00000000000E+00  0.22587259433E+03  0.22587259433E+03  0.00000000000E+00 0. -1.
         -4   -1    0    0    0  501 -0.00000000000E+00 -0.00000000000E+00 -0.72360082095E+02  0.72360082095E+02  0.00000000000E+00 0.  1.
          5    1    1    2  502    0 -0.26505986950E+01  0.39256956341E+01 -0.25286772724E+02  0.26152392518E+02  0.47000000000E+01 0. -1.
         -5    1    1    2    0  502  0.65480420031E+02 -0.14741030617E+02  0.13919222214E+03  0.15460125515E+03  0.47000000000E+01 0. -1.
        -11    1    1    2    0    0 -0.56889656398E+02  0.35808513716E+02 -0.34841035369E+01  0.67311378214E+02  0.00000000000E+00 0.  1.
         11    1    1    2    0    0 -0.59401649379E+01 -0.24993178732E+02  0.43091166359E+02  0.50167650541E+02  0.00000000000E+00 0. -1.
<mgrwt>
<rscale>  0 0.25568856E+03</rscale>
<asrwt>0</asrwt>
<pdfrwt beam="1">  1        4 0.34749630E-01 0.25568856E+03</pdfrwt>
<pdfrwt beam="2">  1       -4 0.11132320E-01 0.25568856E+03</pdfrwt>
<totfact> 0.94061775E+02</totfact>
</mgrwt>
</event>
<event>
 6    1  0.4705246E-006  0.1255345E+03  0.7546771E-02  0.1250089E+00
         -1   -1    0    0    0  501 -0.00000000000E+00  0.00000000000E+00  0.25805578680E+02  0.25805578680E+02  0.00000000000E+00 0.  1.
          1   -1    0    0  501    0  0.00000000000E+00 -0.00000000000E+00 -0.49742898821E+03  0.49742898821E+03  0.00000000000E+00 0. -1.
          5    1    1    2  502    0 -0.43696165147E+02 -0.66896502196E+01 -0.38501367947E+02  0.58809451642E+02  0.47000000000E+01 0.  1.
         -5    1    1    2    0  502  0.31899473382E+02  0.68622839253E+01 -0.30748098013E+03  0.30924312520E+03  0.47000000000E+01 0.  1.
        -11    1    1    2    0    0  0.10324614863E+02  0.42008053664E+02 -0.90324885125E+02  0.10014918431E+03  0.00000000000E+00 0.  1.
         11    1    1    2    0    0  0.14720769018E+01 -0.42180687370E+02 -0.35316176332E+02  0.55032805745E+02  0.00000000000E+00 0. -1.
<mgrwt>
<rscale>  0 0.11585892E+03</rscale>
<asrwt>0</asrwt>
<pdfrwt beam="2">  1        1 0.76527535E-01 0.12553451E+03</pdfrwt>
<pdfrwt beam="1">  1       -1 0.39700891E-02 0.12553451E+03</pdfrwt>
<totfact> 0.10693433E+04</totfact>
</mgrwt>
</event>
<event>
 6    1  0.4705246E-006  0.3294496E+03  0.7546771E-02  0.1071381E+00
         -1   -1    0    0    0  501 -0.00000000000E+00  0.00000000000E+00  0.70474769044E+03  0.70474769044E+03  0.00000000000E+00 0.  1.
          1   -1    0    0  501    0  0.00000000000E+00 -0.00000000000E+00 -0.38502096417E+02  0.38502096417E+02  0.00000000000E+00 0. -1.
          5    1    1    2  502    0 -0.11908146954E+03  0.49152574743E+02  0.27605247080E+03  0.30466937592E+03  0.47000000000E+01 0.  1.
         -5    1    1    2    0  502 -0.10778823236E+01 -0.34194412948E+02  0.23509988053E+02  0.41775940988E+02  0.47000000000E+01 0.  1.
        -11    1    1    2    0    0  0.45395983841E+02 -0.45940854658E+02  0.21991199842E+03  0.22920000987E+03  0.00000000000E+00 0.  1.
         11    1    1    2    0    0  0.74763368018E+02  0.30982692862E+02  0.14677113675E+03  0.16760446008E+03  0.00000000000E+00 0. -1.
<mgrwt>
<rscale>  0 0.32944962E+03</rscale>
<asrwt>0</asrwt>
<pdfrwt beam="2">  1        1 0.59234000E-02 0.32944962E+03</pdfrwt>
<pdfrwt beam="1">  1       -1 0.10842271E+00 0.32944962E+03</pdfrwt>
<totfact> 0.11061315E+03</totfact>
</mgrwt>
</event>
<event>
 6    1  0.4705246E-006  0.2841883E+03  0.7546771E-02  0.1093423E+00
          2   -1    0    0  501    0  0.00000000000E+00  0.00000000000E+00  0.12143654436E+04  0.12143654436E+04  0.00000000000E+00 0. -1.
         -2   -1    0    0    0  501 -0.00000000000E+00 -0.00000000000E+00 -0.16626578558E+02  0.16626578558E+02  0.00000000000E+00 0.  1.
          5    1    1    2  502    0  0.20315561755E+02  0.69603024532E+02  0.71998118608E+03  0.72363823931E+03  0.47000000000E+01 0. -1.
         -5    1    1    2    0  502 -0.10002930479E+02  0.20367056451E+02  0.15532600394E+02  0.27896725285E+02  0.47000000000E+01 0. -1.
        -11    1    1    2    0    0  0.35625021606E+02 -0.59086909995E+02  0.30699982651E+03  0.31465743051E+03  0.00000000000E+00 0.  1.
         11    1    1    2    0    0 -0.45937652883E+02 -0.30883170988E+02  0.15522525206E+03  0.16479962706E+03  0.00000000000E+00 0. -1.
<mgrwt>
<rscale>  0 0.28418826E+03</rscale>
<asrwt>0</asrwt>
<pdfrwt beam="1">  1        2 0.18682538E+00 0.28418826E+03</pdfrwt>
<pdfrwt beam="2">  1       -2 0.25579361E-02 0.28418826E+03</pdfrwt>
<totfact> 0.10530497E+04</totfact>
</mgrwt>
</event>
<event>
 6    1  0.4705246E-006  0.1278857E+03  0.7546771E-02  0.1250713E+00
          2   -1    0    0  501    0  0.00000000000E+00  0.00000000000E+00  0.56984746551E+03  0.56984746551E+03  0.00000000000E+00 0.  1.
         -2   -1    0    0    0  501 -0.00000000000E+00 -0.00000000000E+00 -0.22135713254E+02  0.22135713254E+02  0.00000000000E+00 0. -1.
          5    1    1    2  502    0  0.34985396858E+02  0.32196259235E+02  0.95551556215E+02  0.10683055273E+03  0.47000000000E+01 0.  1.
         -5    1    1    2    0  502 -0.61679219482E+02 -0.36407652249E+02  0.32015862488E+03  0.32810589501E+03  0.47000000000E+01 0.  1.
        -11    1    1    2    0    0 -0.16906984082E+02 -0.26655887825E+02  0.45440589074E+02  0.55328379715E+02  0.00000000000E+00 0.  1.
         11    1    1    2    0    0  0.43600806707E+02  0.30867280839E+02  0.86560982090E+02  0.10171835131E+03  0.00000000000E+00 0. -1.
<mgrwt>
<rscale>  0 0.11549903E+03</rscale>
<asrwt>0</asrwt>
<pdfrwt beam="1">  1        2 0.87668830E-01 0.12788573E+03</pdfrwt>
<pdfrwt beam="2">  1       -2 0.34054948E-02 0.12788573E+03</pdfrwt>
<totfact> 0.17645693E+04</totfact>
</mgrwt>
</event>
<event>
 6    1  0.4705246E-006  0.2836763E+03  0.7546771E-02  0.1093698E+00
         -2   -1    0    0    0  501 -0.00000000000E+00  0.00000000000E+00  0.27864553160E+02  0.27864553160E+02  0.00000000000E+00 0. -1.
          2   -1    0    0  501    0  0.00000000000E+00 -0.00000000000E+00 -0.72199449286E+03  0.72199449286E+03  0.00000000000E+00 0.  1.
          5    1    1    2  502    0 -0.47120478740E+02 -0.73188684356E+02 -0.41486044768E+03  0.42392004445E+03  0.47000000000E+01 0.  1.
         -5    1    1    2    0  502 -0.59564250708E+01 -0.28039278994E+00  0.81341189173E+01  0.11127062070E+02  0.47000000000E+01 0.  1.
        -11    1    1    2    0    0  0.86895037798E-01  0.69789787210E+02 -0.20698848889E+03  0.21843730561E+03  0.00000000000E+00 0.  1.
         11    1    1    2    0    0  0.52990008773E+02  0.36792899355E+01 -0.80415122048E+02  0.96374633894E+02  0.00000000000E+00 0. -1.
<mgrwt>
<rscale>  0 0.28367625E+03</rscale>
<asrwt>0</asrwt>
<pdfrwt beam="2">  1        2 0.11107606E+00 0.28367625E+03</pdfrwt>
<pdfrwt beam="1">  1       -2 0.42868551E-02 0.28367625E+03</pdfrwt>
<totfact> 0.99680355E+03</totfact>
</mgrwt>
</event>
<event>
 6    1  0.4705246E-006  0.1740171E+03  0.7546771E-02  0.1179037E+00
          2   -1    0    0  501    0  0.00000000000E+00  0.00000000000E+00  0.13936252199E+03  0.13936252199E+03  0.00000000000E+00 0. -1.
         -2   -1    0    0    0  501 -0.00000000000E+00 -0.00000000000E+00 -0.19460788731E+03  0.19460788731E+03  0.00000000000E+00 0.  1.
          5    1    1    2  502    0 -0.27014072040E+02 -0.12633317618E+03 -0.26592946148E+02  0.13198146187E+03  0.47000000000E+01 0.  1.
         -5    1    1    2    0  502 -0.34683566485E+02  0.22169042361E+02  0.10611071767E+02  0.42767991154E+02  0.47000000000E+01 0.  1.
        -11    1    1    2    0    0  0.17189693955E+02  0.26464626875E+02 -0.59561449336E+02  0.67404957540E+02  0.00000000000E+00 0.  1.
         11    1    1    2    0    0  0.44507944570E+02  0.77699506948E+02  0.20297958399E+02  0.91815998742E+02  0.00000000000E+00 0. -1.
<mgrwt>
<rscale>  0 0.16886442E+03</rscale>
<asrwt>0</asrwt>
<pdfrwt beam="1">  1        2 0.21440388E-01 0.17401710E+03</pdfrwt>
<pdfrwt beam="2">  1       -2 0.29939675E-01 0.17401710E+03</pdfrwt>
<totfact> 0.25732527E+03</totfact>
</mgrwt>
</event>
<event>
 6    1  0.4705246E-006  0.1277530E+03  0.7546771E-02  0.1246802E+00
          1   -1    0    0  501    0  0.00000000000E+00  0.00000000000E+00  0.22210335929E+03  0.22210335929E+03  0.00000000000E+00 0. -1.
         -1   -1    0    0    0  501 -0.00000000000E+00 -0.00000000000E+00 -0.64341782388E+02  0.64341782388E+02  0.00000000000E+00 0.  1.
          5    1    1    2  502    0  0.41449181184E+02  0.22805997965E+02  0.88090367245E+02  0.10010070412E+03  0.47000000000E+01 0. -1.
         -5    1    1    2    0  502 -0.63010018644E+02 -0.38034187870E+02  0.56938039653E+02  0.93171305969E+02  0.47000000000E+01 0. -1.
        -11    1    1    2    0    0  0.34940096162E+02  0.46570116578E+02  0.82010328859E+01  0.58794923406E+02  0.00000000000E+00 0.  1.
         11    1    1    2    0    0 -0.13379258703E+02 -0.31341926673E+02  0.45321371176E+01  0.34378208183E+02  0.00000000000E+00 0. -1.
<mgrwt>
<rscale>  0 0.11778163E+03</rscale>
<asrwt>0</asrwt>
<pdfrwt beam="1">  1        1 0.34169747E-01 0.12775301E+03</pdfrwt>
<pdfrwt beam="2">  1       -1 0.98987358E-02 0.12775301E+03</pdfrwt>
<totfact> 0.75080549E+03</totfact>
</mgrwt>
</event>
<event>
 6    1  0.4705246E-006  0.3398671E+03  0.7546771E-02  0.1068072E+00
          1   -1    0    0  501    0  0.00000000000E+00  0.00000000000E+00  0.34614879304E+03  0.34614879304E+03  0.00000000000E+00 0. -1.
         -1   -1    0    0    0  501 -0.00000000000E+00 -0.00000000000E+00 -0.32341834442E+03  0.32341834442E+03  0.00000000000E+00 0.  1.
          5    1    1    2  502    0 -0.77231210745E+01  0.55552122779E+01  0.31418391757E+02  0.33161910729E+02  0.47000000000E+01 0. -1.
         -5    1    1    2    0  502 -0.13174136048E+03  0.27805748085E+03 -0.46390194153E+01  0.30775860543E+03  0.47000000000E+01 0. -1.
        -11    1    1    2    0    0  0.13257944848E+03 -0.19869276524E+03 -0.27068353334E+02  0.24039305496E+03  0.00000000000E+00 0.  1.
         11    1    1    2    0    0  0.68850330721E+01 -0.84919927887E+02  0.23019429606E+02  0.88253566343E+02  0.00000000000E+00 0. -1.
<mgrwt>
<rscale>  0 0.33702019E+03</rscale>
<asrwt>0</asrwt>
<pdfrwt beam="1">  1        1 0.53253660E-01 0.33986713E+03</pdfrwt>
<pdfrwt beam="2">  1       -1 0.49756668E-01 0.33986713E+03</pdfrwt>
<totfact> 0.30335982E+02</totfact>
</mgrwt>
</event>
<event>
 6    1  0.4705246E-006  0.1352496E+03  0.7546771E-02  0.1232117E+00
          1   -1    0    0  501    0  0.00000000000E+00  0.00000000000E+00  0.17106822697E+04  0.17106822697E+04  0.00000000000E+00 0. -1.
         -1   -1    0    0    0  501 -0.00000000000E+00 -0.00000000000E+00 -0.10949135867E+02  0.10949135867E+02  0.00000000000E+00 0.  1.
          5    1    1    2  502    0 -0.57596562821E+02 -0.84994431504E+01  0.11398739134E+04  0.11413694551E+04  0.47000000000E+01 0. -1.
         -5    1    1    2    0  502  0.18753305787E+02  0.42550442328E+02  0.20360894010E+03  0.20890408591E+03  0.47000000000E+01 0. -1.
        -11    1    1    2    0    0 -0.20021278931E+02 -0.40266896022E+02  0.13315403614E+03  0.14054277593E+03  0.00000000000E+00 0. -1.
         11    1    1    2    0    0  0.58864535965E+02  0.62158968452E+01  0.22309624422E+03  0.23081508866E+03  0.00000000000E+00 0.  1.
<mgrwt>
<rscale>  0 0.12690788E+03</rscale>
<asrwt>0</asrwt>
<pdfrwt beam="1">  1        1 0.26318167E+00 0.13524961E+03</pdfrwt>
<pdfrwt beam="2">  1       -1 0.16844838E-02 0.13524961E+03</pdfrwt>
<totfact> 0.45264177E+03</totfact>
</mgrwt>
</event>
<event>
 6    1  0.4705246E-006  0.3681986E+03  0.7546771E-02  0.1055384E+00
          3   -1    0    0  501    0  0.00000000000E+00  0.00000000000E+00  0.30708155787E+03  0.30708155787E+03  0.00000000000E+00 0. -1.
         -3   -1    0    0    0  501 -0.00000000000E+00 -0.00000000000E+00 -0.11036988078E+03  0.11036988078E+03  0.00000000000E+00 0.  1.
          5    1    1    2  502    0  0.10839814362E+03  0.63363832778E+02  0.20639080431E+03  0.24162861368E+03  0.47000000000E+01 0. -1.
         -5    1    1    2    0  502 -0.31627003563E+02 -0.43637445590E+01  0.22472664670E+02  0.39324550579E+02  0.47000000000E+01 0.  1.
        -11    1    1    2    0    0 -0.56250198439E+02 -0.97229862088E+00  0.15844416987E+02  0.58447204712E+02  0.00000000000E+00 0. -1.
         11    1    1    2    0    0 -0.20520941615E+02 -0.58027789598E+02 -0.47996208878E+02  0.78051069673E+02  0.00000000000E+00 0.  1.
<mgrwt>
<rscale>  0 0.36819861E+03</rscale>
<asrwt>0</asrwt>
<pdfrwt beam="1">  1        3 0.47243316E-01 0.36819861E+03</pdfrwt>
<pdfrwt beam="2">  1       -3 0.16979982E-01 0.36819861E+03</pdfrwt>
<totfact> 0.34804702E+02</totfact>
</mgrwt>
</event>
<event>
 6    1  0.4705246E-006  0.2576592E+03  0.7546771E-02  0.1110836E+00
         -1   -1    0    0    0  501 -0.00000000000E+00  0.00000000000E+00  0.82587522232E+02  0.82587522232E+02  0.00000000000E+00 0.  1.
          1   -1    0    0  501    0  0.00000000000E+00 -0.00000000000E+00 -0.97163159131E+03  0.97163159131E+03  0.00000000000E+00 0. -1.
          5    1    1    2  502    0 -0.52162182029E+02 -0.76236110194E+02 -0.46743703073E+03  0.47650005816E+03  0.47000000000E+01 0.  1.
         -5    1    1    2    0  502 -0.35175076361E+02 -0.13145375303E+03 -0.23357436321E+03  0.27036354845E+03  0.47000000000E+01 0.  1.
        -11    1    1    2    0    0  0.16815556564E+02  0.15252219138E+03 -0.12383450432E+03  0.19718206375E+03  0.00000000000E+00 0. -1.
         11    1    1    2    0    0  0.70521701825E+02  0.55167671839E+02 -0.64198170828E+02  0.11017344318E+03  0.00000000000E+00 0.  1.
<mgrwt>
<rscale>  0 0.25394690E+03</rscale>
<asrwt>0</asrwt>
<pdfrwt beam="2">  1        1 0.14948179E+00 0.25765922E+03</pdfrwt>
<pdfrwt beam="1">  1       -1 0.12705772E-01 0.25765922E+03</pdfrwt>
<totfact> 0.70604488E+02</totfact>
</mgrwt>
</event>
<event>
 6    1  0.4705246E-006  0.1530061E+03  0.7546771E-02  0.1206604E+00
         -2   -1    0    0    0  501 -0.00000000000E+00  0.00000000000E+00  0.12562619043E+02  0.12562619043E+02  0.00000000000E+00 0.  1.
          2   -1    0    0  501    0  0.00000000000E+00 -0.00000000000E+00 -0.16253574891E+04  0.16253574891E+04  0.00000000000E+00 0. -1.
          5    1    1    2  502    0 -0.49225535961E+02  0.74733916350E+02 -0.81986935939E+03  0.82475218587E+03  0.47000000000E+01 0. -1.
         -5    1    1    2    0  502 -0.33738652875E+02 -0.44731698698E+02 -0.26887111467E+03  0.27468707263E+03  0.47000000000E+01 0. -1.
        -11    1    1    2    0    0  0.97604904613E+02 -0.92957549655E+01 -0.43292433502E+03  0.44388805832E+03  0.00000000000E+00 0.  1.
         11    1    1    2    0    0 -0.14640715776E+02 -0.20706462686E+02 -0.91130060944E+02  0.94592791285E+02  0.00000000000E+00 0. -1.
<mgrwt>
<rscale>  0 0.14511737E+03</rscale>
<asrwt>0</asrwt>
<pdfrwt beam="2">  1        2 0.25005489E+00 0.15300609E+03</pdfrwt>
<pdfrwt beam="1">  1       -2 0.19327115E-02 0.15300609E+03</pdfrwt>
<totfact> 0.93456221E+03</totfact>
</mgrwt>
</event>
<event>
 6    1  0.4705246E-006  0.1297788E+03  0.7546771E-02  0.1241239E+00
          2   -1    0    0  501    0  0.00000000000E+00  0.00000000000E+00  0.41492481693E+03  0.41492481693E+03  0.00000000000E+00 0. -1.
         -2   -1    0    0    0  501 -0.00000000000E+00 -0.00000000000E+00 -0.35188142513E+02  0.35188142513E+02  0.00000000000E+00 0.  1.
          5    1    1    2  502    0 -0.57894014352E+02 -0.48398485123E+02  0.16873762726E+03  0.18490161468E+03  0.47000000000E+01 0. -1.
         -5    1    1    2    0  502  0.23001585435E+02  0.48810660046E+02  0.11757920343E+03  0.12945467371E+03  0.47000000000E+01 0. -1.
        -11    1    1    2    0    0  0.17608460751E+02  0.19842925197E+02 -0.10461225430E+02  0.28517307164E+02  0.00000000000E+00 0.  1.
         11    1    1    2    0    0  0.17283968166E+02 -0.20255100120E+02  0.10388106916E+03  0.10723936388E+03  0.00000000000E+00 0. -1.
<mgrwt>
<rscale>  0 0.12113342E+03</rscale>
<asrwt>0</asrwt>
<pdfrwt beam="1">  1        2 0.63834584E-01 0.12977884E+03</pdfrwt>
<pdfrwt beam="2">  1       -2 0.54135607E-02 0.12977884E+03</pdfrwt>
<totfact> 0.12530506E+04</totfact>
</mgrwt>
</event>
<event>
 6    1  0.4705246E-006  0.1833335E+03  0.7546771E-02  0.1170292E+00
         -2   -1    0    0    0  501 -0.00000000000E+00  0.00000000000E+00  0.73216878466E+02  0.73216878466E+02  0.00000000000E+00 0.  1.
          2   -1    0    0  501    0  0.00000000000E+00 -0.00000000000E+00 -0.47870660890E+03  0.47870660890E+03  0.00000000000E+00 0. -1.
          5    1    1    2  502    0 -0.78566719058E+01  0.43047313018E+02 -0.21623807535E+03  0.22067123438E+03  0.47000000000E+01 0.  1.
         -5    1    1    2    0  502 -0.99190419246E+02  0.37744168295E+02 -0.10601353985E+03  0.15008105191E+03  0.47000000000E+01 0.  1.
        -11    1    1    2    0    0  0.30002744261E+02 -0.11990841043E+02 -0.69918976715E+02  0.77023426547E+02  0.00000000000E+00 0. -1.
         11    1    1    2    0    0  0.77044346890E+02 -0.68800640270E+02 -0.13319138520E+02  0.10414777453E+03  0.00000000000E+00 0.  1.
<mgrwt>
<rscale>  0 0.17745247E+03</rscale>
<asrwt>0</asrwt>
<pdfrwt beam="2">  1        2 0.73647169E-01 0.18333345E+03</pdfrwt>
<pdfrwt beam="1">  1       -2 0.11264135E-01 0.18333345E+03</pdfrwt>
<totfact> 0.35188984E+03</totfact>
</mgrwt>
</event>
<event>
 6    1  0.4705246E-006  0.1471924E+03  0.7546771E-02  0.1212775E+00
          1   -1    0    0  501    0  0.00000000000E+00  0.00000000000E+00  0.24311658017E+02  0.24311658017E+02  0.00000000000E+00 0. -1.
         -1   -1    0    0    0  501 -0.00000000000E+00 -0.00000000000E+00 -0.77714014841E+03  0.77714014841E+03  0.00000000000E+00 0.  1.
          5    1    1    2  502    0  0.32566597928E+02 -0.38269809394E+02 -0.53097263578E+02  0.73256883711E+02  0.47000000000E+01 0.  1.
         -5    1    1    2    0  502 -0.46447484602E+01 -0.34263798461E+02 -0.43894093641E+03  0.44032580804E+03  0.47000000000E+01 0.  1.
        -11    1    1    2    0    0 -0.60219998042E+02  0.26910273373E+02 -0.13788392849E+03  0.15284825388E+03  0.00000000000E+00 0. -1.
         11    1    1    2    0    0  0.32298148575E+02  0.45623334482E+02 -0.12290636191E+03  0.13502086079E+03  0.00000000000E+00 0.  1.
<mgrwt>
<rscale>  0 0.14041242E+03</rscale>
<asrwt>0</asrwt>
<pdfrwt beam="1">  1        1 0.37402546E-02 0.14719236E+03</pdfrwt>
<pdfrwt beam="2">  1       -1 0.11956004E+00 0.14719236E+03</pdfrwt>
<totfact> 0.16293552E+03</totfact>
</mgrwt>
</event>
<event>
 6    1  0.4705246E-006  0.1867223E+03  0.7546771E-02  0.1166449E+00
          2   -1    0    0  501    0  0.00000000000E+00  0.00000000000E+00  0.51608704142E+03  0.51608704142E+03  0.00000000000E+00 0. -1.
         -2   -1    0    0    0  501 -0.00000000000E+00 -0.00000000000E+00 -0.68055969168E+02  0.68055969168E+02  0.00000000000E+00 0.  1.
          5    1    1    2  502    0  0.13321267355E+03  0.16561940070E+02  0.21437378135E+03  0.25297850182E+03  0.47000000000E+01 0.  1.
         -5    1    1    2    0  502 -0.10821487585E+02  0.48713356101E+02  0.11901208103E+03  0.12913582418E+03  0.47000000000E+01 0.  1.
        -11    1    1    2    0    0 -0.42013255014E+02 -0.22767543264E+02 -0.89235165181E+01  0.48611765759E+02  0.00000000000E+00 0.  1.
         11    1    1    2    0    0 -0.80377930949E+02 -0.42507752907E+02  0.12356872639E+03  0.15341691883E+03  0.00000000000E+00 0. -1.
<mgrwt>
<rscale>  0 0.18140630E+03</rscale>
<asrwt>0</asrwt>
<pdfrwt beam="1">  1        2 0.79398004E-01 0.18672232E+03</pdfrwt>
<pdfrwt beam="2">  1       -2 0.10470149E-01 0.18672232E+03</pdfrwt>
<totfact> 0.36397666E+03</totfact>
</mgrwt>
</event>
<event>
 6    1  0.4705246E-006  0.2807169E+03  0.7546771E-02  0.1116126E+00
         -1   -1    0    0    0  501 -0.00000000000E+00  0.00000000000E+00  0.46219399898E+03  0.46219399898E+03  0.00000000000E+00 0.  1.
          1   -1    0    0  501    0  0.00000000000E+00 -0.00000000000E+00 -0.10733268148E+03  0.10733268148E+03  0.00000000000E+00 0. -1.
          5    1    1    2  502    0 -0.60998750142E+02 -0.15776637473E+02 -0.11090049020E+01  0.63190740625E+02  0.47000000000E+01 0. -1.
         -5    1    1    2    0  502  0.18044642991E+03  0.71807176997E+02  0.21471837630E+03  0.28955699932E+03  0.47000000000E+01 0.  1.
        -11    1    1    2    0    0 -0.43193161696E+02  0.23487440008E+02  0.70119162300E+02  0.85638811161E+02  0.00000000000E+00 0.  1.
         11    1    1    2    0    0 -0.76254518070E+02 -0.79517979532E+02  0.71132783802E+02  0.13114012935E+03  0.00000000000E+00 0. -1.
<mgrwt>
<rscale>  0 0.24558640E+03</rscale>
<asrwt>0</asrwt>
<pdfrwt beam="2">  1        1 0.16512720E-01 0.28071695E+03</pdfrwt>
<pdfrwt beam="1">  1       -1 0.71106768E-01 0.28071695E+03</pdfrwt>
<totfact> 0.68270257E+02</totfact>
</mgrwt>
</event>
<event>
 6    1  0.4836545E-006  0.2234595E+03  0.7546771E-02  0.1134512E+00
          1   -1    0    0  501    0  0.00000000000E+00  0.00000000000E+00  0.29121481609E+03  0.29121481609E+03  0.00000000000E+00 0. -1.
         -1   -1    0    0    0  501 -0.00000000000E+00 -0.00000000000E+00 -0.15948116953E+03  0.15948116953E+03  0.00000000000E+00 0.  1.
          5    1    1    2  502    0  0.37013381920E+02 -0.59936783844E+02 -0.19926244169E+02  0.73359073777E+02  0.47000000000E+01 0.  1.
         -5    1    1    2    0  502 -0.31752373456E+02 -0.12521292828E+03  0.10213502572E+03  0.16474266025E+03  0.47000000000E+01 0.  1.
        -11    1    1    2    0    0  0.55125788882E+01  0.93098342047E+02 -0.21645935711E+02  0.95740463497E+02  0.00000000000E+00 0.  1.
         11    1    1    2    0    0 -0.10773587353E+02  0.92051370076E+02  0.71170800719E+02  0.11685378810E+03  0.00000000000E+00 0. -1.
<mgrwt>
<rscale>  0 0.21915835E+03</rscale>
<asrwt>0</asrwt>
<pdfrwt beam="1">  1        1 0.44802279E-01 0.22345951E+03</pdfrwt>
<pdfrwt beam="2">  1       -1 0.24535565E-01 0.22345951E+03</pdfrwt>
<totfact> 0.13035565E+03</totfact>
</mgrwt>
</event>
<event>
 6    1  0.4705246E-006  0.1619484E+03  0.7546771E-02  0.1193945E+00
          2   -1    0    0  501    0  0.00000000000E+00  0.00000000000E+00  0.22573263245E+03  0.22573263245E+03  0.00000000000E+00 0. -1.
         -2   -1    0    0    0  501 -0.00000000000E+00 -0.00000000000E+00 -0.99734622304E+02  0.99734622304E+02  0.00000000000E+00 0.  1.
          5    1    1    2  502    0 -0.12307454579E+03 -0.43981600331E+02  0.57112307821E+02  0.14270820121E+03  0.47000000000E+01 0. -1.
         -5    1    1    2    0  502  0.30017573900E+02 -0.11196899663E+00  0.22124977783E+02  0.37585528090E+02  0.47000000000E+01 0. -1.
        -11    1    1    2    0    0  0.10448512483E+03  0.17578673940E+02  0.24587681662E+02  0.10876904513E+03  0.00000000000E+00 0.  1.
         11    1    1    2    0    0 -0.11428152946E+02  0.26514895387E+02  0.22173042876E+02  0.36404480322E+02  0.00000000000E+00 0. -1.
<mgrwt>
<rscale>  0 0.15543828E+03</rscale>
<asrwt>0</asrwt>
<pdfrwt beam="1">  1        2 0.34728097E-01 0.16194839E+03</pdfrwt>
<pdfrwt beam="2">  1       -2 0.15343788E-01 0.16194839E+03</pdfrwt>
<totfact> 0.47584335E+03</totfact>
</mgrwt>
</event>
<event>
 6    1  0.4705246E-006  0.1607121E+03  0.7546771E-02  0.1195616E+00
          2   -1    0    0  501    0  0.00000000000E+00  0.00000000000E+00  0.61588479161E+02  0.61588479161E+02  0.00000000000E+00 0. -1.
         -2   -1    0    0    0  501 -0.00000000000E+00 -0.00000000000E+00 -0.35694267779E+03  0.35694267779E+03  0.00000000000E+00 0.  1.
          5    1    1    2  502    0 -0.71691704904E+02 -0.16530545138E+02 -0.18313829764E+02  0.75963450654E+02  0.47000000000E+01 0. -1.
         -5    1    1    2    0  502  0.21514889324E+01 -0.56730107817E+02 -0.13336979877E+03  0.14502595375E+03  0.47000000000E+01 0. -1.
        -11    1    1    2    0    0  0.22571045329E+02 -0.34199697529E+01 -0.89934973008E+02  0.92787109290E+02  0.00000000000E+00 0.  1.
         11    1    1    2    0    0  0.46969170643E+02  0.76680622708E+02 -0.53735597086E+02  0.10475464326E+03  0.00000000000E+00 0. -1.
<mgrwt>
<rscale>  0 0.15402250E+03</rscale>
<asrwt>0</asrwt>
<pdfrwt beam="1">  1        2 0.94751505E-02 0.16071215E+03</pdfrwt>
<pdfrwt beam="2">  1       -2 0.54914259E-01 0.16071215E+03</pdfrwt>
<totfact> 0.21201057E+03</totfact>
</mgrwt>
</event>
<event>
 6    1  0.4705246E-006  0.2425115E+03  0.7546771E-02  0.1146021E+00
          2   -1    0    0  501    0  0.00000000000E+00  0.00000000000E+00  0.75546529599E+03  0.75546529599E+03  0.00000000000E+00 0. -1.
         -2   -1    0    0    0  501 -0.00000000000E+00 -0.00000000000E+00 -0.49152249970E+02  0.49152249970E+02  0.00000000000E+00 0.  1.
          5    1    1    2  502    0  0.58486035942E+02 -0.31194769390E+02  0.36115686747E+03  0.36721942072E+03  0.47000000000E+01 0. -1.
         -5    1    1    2    0  502 -0.13752878487E+03  0.38908966863E+02  0.21866337199E+03  0.26127348626E+03  0.47000000000E+01 0.  1.
        -11    1    1    2    0    0  0.90198991130E+02  0.19541131727E+02  0.86772040446E+02  0.12667715198E+03  0.00000000000E+00 0.  1.
         11    1    1    2    0    0 -0.11156242199E+02 -0.27255329200E+02  0.39720766119E+02  0.49447487002E+02  0.00000000000E+00 0. -1.
<mgrwt>
<rscale>  0 0.20447067E+03</rscale>
<asrwt>0</asrwt>
<pdfrwt beam="1">  1        2 0.11622542E+00 0.24251149E+03</pdfrwt>
<pdfrwt beam="2">  1       -2 0.75618851E-02 0.24251149E+03</pdfrwt>
<totfact> 0.39170483E+03</totfact>
</mgrwt>
</event>
<event>
 6    1  0.4705246E-006  0.2439912E+03  0.7546771E-02  0.1119666E+00
          2   -1    0    0  501    0  0.00000000000E+00  0.00000000000E+00  0.13159781458E+04  0.13159781458E+04  0.00000000000E+00 0. -1.
         -2   -1    0    0    0  501 -0.00000000000E+00 -0.00000000000E+00 -0.44520186819E+02  0.44520186819E+02  0.00000000000E+00 0.  1.
          5    1    1    2  502    0  0.63262264172E+02  0.20587720586E+02  0.15202434429E+03  0.16601042004E+03  0.47000000000E+01 0. -1.
         -5    1    1    2    0  502  0.11904693188E+03 -0.12387993386E+03  0.64668660046E+03  0.66913680157E+03  0.47000000000E+01 0. -1.
        -11    1    1    2    0    0 -0.72836980878E+02  0.73170622335E+02  0.31132245231E+03  0.32799517537E+03  0.00000000000E+00 0. -1.
         11    1    1    2    0    0 -0.10947221517E+03  0.30121590943E+02  0.16142456191E+03  0.19735593562E+03  0.00000000000E+00 0.  1.
<mgrwt>
<rscale>  0 0.24018989E+03</rscale>
<asrwt>0</asrwt>
<pdfrwt beam="1">  1        2 0.20245815E+00 0.24399121E+03</pdfrwt>
<pdfrwt beam="2">  1       -2 0.68492605E-02 0.24399121E+03</pdfrwt>
<totfact> 0.20726166E+03</totfact>
</mgrwt>
</event>
<event>
 6    1  0.4705246E-006  0.1273972E+03  0.7546771E-02  0.1245815E+00
         -2   -1    0    0    0  501 -0.00000000000E+00  0.00000000000E+00  0.44437526729E+02  0.44437526729E+02  0.00000000000E+00 0.  1.
          2   -1    0    0  501    0  0.00000000000E+00 -0.00000000000E+00 -0.45527148496E+03  0.45527148496E+03  0.00000000000E+00 0. -1.
          5    1    1    2  502    0 -0.14559673665E+02 -0.74008441100E+02 -0.22791894488E+03  0.24012157105E+03  0.47000000000E+01 0.  1.
         -5    1    1    2    0  502  0.49870234117E+01  0.51350466960E+02 -0.15065998876E+03  0.15931811909E+03  0.47000000000E+01 0.  1.
        -11    1    1    2    0    0 -0.34458350348E+02  0.34911456122E+02 -0.13589440877E+02  0.50900496860E+02  0.00000000000E+00 0.  1.
         11    1    1    2    0    0  0.44031000601E+02 -0.12253481982E+02 -0.18665583716E+02  0.49368824678E+02  0.00000000000E+00 0. -1.
<mgrwt>
<rscale>  0 0.11836737E+03</rscale>
<asrwt>0</asrwt>
<pdfrwt beam="2">  1        2 0.70041766E-01 0.12739724E+03</pdfrwt>
<pdfrwt beam="1">  1       -2 0.68365427E-02 0.12739724E+03</pdfrwt>
<totfact> 0.79513456E+03</totfact>
</mgrwt>
</event>
<event>
 6    1  0.4705246E-006  0.1632954E+03  0.7546771E-02  0.1193211E+00
          2   -1    0    0  501    0  0.00000000000E+00  0.00000000000E+00  0.27883136620E+03  0.27883136620E+03  0.00000000000E+00 0. -1.
         -2   -1    0    0    0  501 -0.00000000000E+00 -0.00000000000E+00 -0.82208502958E+02  0.82208502958E+02  0.00000000000E+00 0.  1.
          5    1    1    2  502    0 -0.83021847631E+01 -0.12520060807E+02  0.89762671002E+02  0.91132350458E+02  0.47000000000E+01 0.  1.
         -5    1    1    2    0  502  0.11091101711E+03 -0.10118350825E+02  0.43571787353E+02  0.11968385602E+03  0.47000000000E+01 0.  1.
        -11    1    1    2    0    0 -0.10333704496E+03  0.34594287660E+02  0.75922627150E+02  0.13281398613E+03  0.00000000000E+00 0. -1.
         11    1    1    2    0    0  0.72821261326E+00 -0.11955876028E+02 -0.12634222262E+02  0.17409676544E+02  0.00000000000E+00 0.  1.
<mgrwt>
<rscale>  0 0.15606582E+03</rscale>
<asrwt>0</asrwt>
<pdfrwt beam="1">  1        2 0.42897133E-01 0.16329542E+03</pdfrwt>
<pdfrwt beam="2">  1       -2 0.12647462E-01 0.16329542E+03</pdfrwt>
<totfact> 0.52000010E+03</totfact>
</mgrwt>
</event>
<event>
 6    1  0.4705246E-006  0.1404989E+03  0.7546771E-02  0.1222798E+00
          1   -1    0    0  501    0  0.00000000000E+00  0.00000000000E+00  0.92462677488E+03  0.92462677488E+03  0.00000000000E+00 0. -1.
         -1   -1    0    0    0  501 -0.00000000000E+00 -0.00000000000E+00 -0.24364308591E+02  0.24364308591E+02  0.00000000000E+00 0.  1.
          5    1    1    2  502    0 -0.65524918313E+02 -0.28099509154E+02  0.48284840898E+03  0.48810631361E+03  0.47000000000E+01 0.  1.
         -5    1    1    2    0  502  0.11715001723E+02  0.63044083416E+02  0.25352640992E+03  0.26155215206E+03  0.47000000000E+01 0.  1.
        -11    1    1    2    0    0  0.26524359750E+02 -0.51009773976E+02  0.36575028659E+02  0.68141554301E+02  0.00000000000E+00 0.  1.
         11    1    1    2    0    0  0.27285556841E+02  0.16065199713E+02  0.12731261874E+03  0.13119106351E+03  0.00000000000E+00 0. -1.
<mgrwt>
<rscale>  0 0.13318959E+03</rscale>
<asrwt>0</asrwt>
<pdfrwt beam="1">  1        1 0.14225025E+00 0.14049890E+03</pdfrwt>
<pdfrwt beam="2">  1       -1 0.37483559E-02 0.14049890E+03</pdfrwt>
<totfact> 0.48328375E+03</totfact>
</mgrwt>
</event>
<event>
 6    1  0.4705246E-006  0.1302382E+03  0.7546771E-02  0.1241734E+00
          4   -1    0    0  501    0  0.00000000000E+00  0.00000000000E+00  0.55039154637E+03  0.55039154637E+03  0.00000000000E+00 0. -1.
         -4   -1    0    0    0  501 -0.00000000000E+00 -0.00000000000E+00 -0.32368516601E+02  0.32368516601E+02  0.00000000000E+00 0.  1.
          5    1    1    2  502    0 -0.25417918730E+02 -0.52656456106E+02  0.23240695196E+03  0.23969533638E+03  0.47000000000E+01 0. -1.
         -5    1    1    2    0  502  0.59004706440E+02  0.37895160645E+02  0.20698758362E+03  0.21859448381E+03  0.47000000000E+01 0. -1.
        -11    1    1    2    0    0 -0.51895802750E+02 -0.14061654276E+02  0.71712727989E+02  0.89630462565E+02  0.00000000000E+00 0.  1.
         11    1    1    2    0    0  0.18309015040E+02  0.28822949736E+02  0.69157662062E+01  0.34839780216E+02  0.00000000000E+00 0. -1.
<mgrwt>
<rscale>  0 0.12083005E+03</rscale>
<asrwt>0</asrwt>
<pdfrwt beam="1">  1        4 0.84675616E-01 0.13023825E+03</pdfrwt>
<pdfrwt beam="2">  1       -4 0.49797722E-02 0.13023825E+03</pdfrwt>
<totfact> 0.49583141E+02</totfact>
</mgrwt>
</event>
<event>
 6    1  0.4705246E-006  0.1250787E+03  0.7546771E-02  0.1250276E+00
          2   -1    0    0  501    0  0.00000000000E+00  0.00000000000E+00  0.19963527529E+03  0.19963527529E+03  0.00000000000E+00 0. -1.
         -2   -1    0    0    0  501 -0.00000000000E+00 -0.00000000000E+00 -0.63207641203E+02  0.63207641203E+02  0.00000000000E+00 0.  1.
          5    1    1    2  502    0  0.39832375919E+01  0.23396325607E+02 -0.21404600720E+02  0.32303268652E+02  0.47000000000E+01 0.  1.
         -5    1    1    2    0  502  0.44386428001E+00 -0.23726039540E+02  0.13344033977E+03  0.13561539826E+03  0.47000000000E+01 0.  1.
        -11    1    1    2    0    0 -0.42229834942E+02  0.16834281359E+02 -0.27535802502E+01  0.45544859120E+02  0.00000000000E+00 0.  1.
         11    1    1    2    0    0  0.37802733070E+02 -0.16504567425E+02  0.27145475287E+02  0.49379390458E+02  0.00000000000E+00 0. -1.
<mgrwt>
<rscale>  0 0.11575063E+03</rscale>
<asrwt>0</asrwt>
<pdfrwt beam="1">  1        2 0.30713119E-01 0.12507866E+03</pdfrwt>
<pdfrwt beam="2">  1       -2 0.97242526E-02 0.12507866E+03</pdfrwt>
<totfact> 0.11083023E+04</totfact>
</mgrwt>
</event>
<event>
 6    1  0.4705246E-006  0.1475684E+03  0.7546771E-02  0.1212136E+00
          1   -1    0    0  501    0  0.00000000000E+00  0.00000000000E+00  0.26458948513E+03  0.26458948513E+03  0.00000000000E+00 0. -1.
         -1   -1    0    0    0  501 -0.00000000000E+00 -0.00000000000E+00 -0.70324031467E+02  0.70324031467E+02  0.00000000000E+00 0.  1.
          5    1    1    2  502    0  0.68180013103E+02  0.43455189001E+02  0.64303159252E+02  0.10341109190E+03  0.47000000000E+01 0. -1.
         -5    1    1    2    0  502 -0.56439868844E+02  0.34348831268E+02  0.64737937623E+02  0.92619606845E+02  0.47000000000E+01 0. -1.
        -11    1    1    2    0    0 -0.21108134780E+02 -0.44393902826E+02 -0.15067561485E+02  0.51414038658E+02  0.00000000000E+00 0.  1.
         11    1    1    2    0    0  0.93679905204E+01 -0.33410117443E+02  0.80291918268E+02  0.87468779191E+02  0.00000000000E+00 0. -1.
<mgrwt>
<rscale>  0 0.14088998E+03</rscale>
<asrwt>0</asrwt>
<pdfrwt beam="1">  1        1 0.40706074E-01 0.14756839E+03</pdfrwt>
<pdfrwt beam="2">  1       -1 0.10819082E-01 0.14756839E+03</pdfrwt>
<totfact> 0.53264399E+03</totfact>
</mgrwt>
</event>
<event>
 6    1  0.4705246E-006  0.1257785E+03  0.7546771E-02  0.1249252E+00
         -3   -1    0    0    0  501 -0.00000000000E+00  0.00000000000E+00  0.17201066255E+03  0.17201066255E+03  0.00000000000E+00 0.  1.
          3   -1    0    0  501    0  0.00000000000E+00 -0.00000000000E+00 -0.71406722976E+02  0.71406722976E+02  0.00000000000E+00 0. -1.
          5    1    1    2  502    0 -0.62865453482E+02  0.18675027166E+02  0.27512098615E+01  0.65806390547E+02  0.47000000000E+01 0. -1.
         -5    1    1    2    0  502  0.55350700806E+02 -0.68835622969E+01  0.32897907510E+02  0.64926464774E+02  0.47000000000E+01 0. -1.
        -11    1    1    2    0    0 -0.39159599532E+01 -0.39499592787E+02 -0.15645702248E+01  0.39724053830E+02  0.00000000000E+00 0. -1.
         11    1    1    2    0    0  0.11430712629E+02  0.27708127917E+02  0.66519392425E+02  0.72960476372E+02  0.00000000000E+00 0.  1.
<mgrwt>
<rscale>  0 0.11634445E+03</rscale>
<asrwt>0</asrwt>
<pdfrwt beam="2">  1        3 0.10985650E-01 0.12577846E+03</pdfrwt>
<pdfrwt beam="1">  1       -3 0.26463179E-01 0.12577846E+03</pdfrwt>
<totfact> 0.19312494E+03</totfact>
</mgrwt>
</event>
<event>
 6    1  0.4705246E-006  0.1157654E+03  0.7546771E-02  0.1262265E+00
          1   -1    0    0  501    0  0.00000000000E+00  0.00000000000E+00  0.40722785115E+02  0.40722785115E+02  0.00000000000E+00 0. -1.
         -1   -1    0    0    0  501 -0.00000000000E+00 -0.00000000000E+00 -0.26699649090E+03  0.26699649090E+03  0.00000000000E+00 0.  1.
          5    1    1    2  502    0 -0.11708989643E+02  0.16764628766E+02  0.18933002456E+02  0.28261312746E+02  0.47000000000E+01 0. -1.
         -5    1    1    2    0  502  0.24031761745E+02 -0.14145063510E+02 -0.12698427645E+03  0.13009498399E+03  0.47000000000E+01 0.  1.
        -11    1    1    2    0    0  0.24629441196E+02 -0.34561476260E+02 -0.55169067698E+02  0.69604102218E+02  0.00000000000E+00 0.  1.
         11    1    1    2    0    0 -0.36952213298E+02  0.31941911003E+02 -0.63053364093E+02  0.79758877059E+02  0.00000000000E+00 0. -1.
<mgrwt>
<rscale>  0 0.10908946E+03</rscale>
<asrwt>0</asrwt>
<pdfrwt beam="1">  1        1 0.62650439E-02 0.11576545E+03</pdfrwt>
<pdfrwt beam="2">  1       -1 0.41076383E-01 0.11576545E+03</pdfrwt>
<totfact> 0.67081760E+03</totfact>
</mgrwt>
</event>
<event>
 6    1  0.4705246E-006  0.1527421E+03  0.7546771E-02  0.1205859E+00
          2   -1    0    0  501    0  0.00000000000E+00  0.00000000000E+00  0.64110258547E+03  0.64110258547E+03  0.00000000000E+00 0. -1.
         -2   -1    0    0    0  501 -0.00000000000E+00 -0.00000000000E+00 -0.31389476484E+02  0.31389476484E+02  0.00000000000E+00 0.  1.
          5    1    1    2  502    0  0.30367813618E+02 -0.59729936712E+01  0.53434070808E+02  0.61928754876E+02  0.47000000000E+01 0.  1.
         -5    1    1    2    0  502 -0.11445950624E+03  0.31153875692E+02  0.33869522210E+03  0.35889843412E+03  0.47000000000E+01 0.  1.
        -11    1    1    2    0    0  0.87775189439E+02  0.12367749639E+02  0.14820775843E+03  0.17269332579E+03  0.00000000000E+00 0.  1.
         11    1    1    2    0    0 -0.36834968199E+01 -0.37548631660E+02  0.69376057650E+02  0.78971547176E+02  0.00000000000E+00 0. -1.
<mgrwt>
<rscale>  0 0.14569966E+03</rscale>
<asrwt>0</asrwt>
<pdfrwt beam="1">  1        2 0.98631158E-01 0.15274207E+03</pdfrwt>
<pdfrwt beam="2">  1       -2 0.48291507E-02 0.15274207E+03</pdfrwt>
<totfact> 0.92892145E+03</totfact>
</mgrwt>
</event>
<event>
 6    1  0.4705246E-006  0.1441697E+03  0.7546771E-02  0.1213565E+00
          2   -1    0    0  501    0  0.00000000000E+00  0.00000000000E+00  0.33776447280E+03  0.33776447280E+03  0.00000000000E+00 0. -1.
         -2   -1    0    0    0  501 -0.00000000000E+00 -0.00000000000E+00 -0.77974587520E+02  0.77974587520E+02  0.00000000000E+00 0.  1.
          5    1    1    2  502    0  0.23812841793E+02  0.37399067891E+02  0.50316971708E+02  0.67228188695E+02  0.47000000000E+01 0. -1.
         -5    1    1    2    0  502 -0.93162597872E+02  0.21041226317E+02  0.19868143270E+03  0.22049581526E+03  0.47000000000E+01 0.  1.
        -11    1    1    2    0    0  0.85242634906E+02 -0.63558383999E+02  0.21085597824E+02  0.10840008034E+03  0.00000000000E+00 0.  1.
         11    1    1    2    0    0 -0.15892878826E+02  0.51180897913E+01 -0.10294116954E+02  0.19614976022E+02  0.00000000000E+00 0. -1.
<mgrwt>
<rscale>  0 0.13982459E+03</rscale>
<asrwt>0</asrwt>
<pdfrwt beam="1">  1        2 0.51963764E-01 0.14416968E+03</pdfrwt>
<pdfrwt beam="2">  1       -2 0.11996091E-01 0.14416968E+03</pdfrwt>
<totfact> 0.45847422E+03</totfact>
</mgrwt>
</event>
<event>
 6    1  0.4705246E-006  0.1336738E+03  0.7546771E-02  0.1234640E+00
         -2   -1    0    0    0  501 -0.00000000000E+00  0.00000000000E+00  0.11336447487E+02  0.11336447487E+02  0.00000000000E+00 0.  1.
          2   -1    0    0  501    0  0.00000000000E+00 -0.00000000000E+00 -0.12381368303E+04  0.12381368303E+04  0.00000000000E+00 0. -1.
          5    1    1    2  502    0  0.77208930437E+02  0.45206555682E+02 -0.48337140967E+03  0.49160437477E+03  0.47000000000E+01 0. -1.
         -5    1    1    2    0  502 -0.40121067443E+02 -0.15745307614E+02 -0.18633146978E+03  0.19130896841E+03  0.47000000000E+01 0. -1.
        -11    1    1    2    0    0 -0.28774430979E+02 -0.62627266571E+02 -0.37342470718E+03  0.37973168729E+03  0.00000000000E+00 0. -1.
         11    1    1    2    0    0 -0.83134320143E+01  0.33166018503E+02 -0.18367279623E+03  0.18682824735E+03  0.00000000000E+00 0.  1.
<mgrwt>
<rscale>  0 0.12527498E+03</rscale>
<asrwt>0</asrwt>
<pdfrwt beam="2">  1        2 0.19048236E+00 0.13367381E+03</pdfrwt>
<pdfrwt beam="1">  1       -2 0.17440709E-02 0.13367381E+03</pdfrwt>
<totfact> 0.17264706E+04</totfact>
</mgrwt>
</event>
<event>
 6    1  0.4705246E-006  0.3420290E+03  0.7546771E-02  0.1065935E+00
         -1   -1    0    0    0  501 -0.00000000000E+00  0.00000000000E+00  0.55004864743E+03  0.55004864743E+03  0.00000000000E+00 0.  1.
          1   -1    0    0  501    0  0.00000000000E+00 -0.00000000000E+00 -0.53169783451E+02  0.53169783451E+02  0.00000000000E+00 0. -1.
          5    1    1    2  502    0  0.44054544990E+01 -0.22219405841E+02  0.55043322662E+02  0.59707347914E+02  0.47000000000E+01 0. -1.
         -5    1    1    2    0  502 -0.54987373826E+02  0.14120667065E+03  0.15531676432E+03  0.21704451709E+03  0.47000000000E+01 0. -1.
        -11    1    1    2    0    0 -0.44174502796E+01 -0.95034194052E+02  0.15424182111E+03  0.18122238075E+03  0.00000000000E+00 0.  1.
         11    1    1    2    0    0  0.54999369607E+02 -0.23953070761E+02  0.13227695588E+03  0.14524418513E+03  0.00000000000E+00 0. -1.
<mgrwt>
<rscale>  0 0.34202905E+03</rscale>
<asrwt>0</asrwt>
<pdfrwt beam="2">  1        1 0.81799670E-02 0.34202905E+03</pdfrwt>
<pdfrwt beam="1">  1       -1 0.84622865E-01 0.34202905E+03</pdfrwt>
<totfact> 0.12262486E+03</totfact>
</mgrwt>
</event>
<event>
 6    1  0.4705246E-006  0.1302841E+03  0.7546771E-02  0.1249880E+00
         -2   -1    0    0    0  501 -0.00000000000E+00  0.00000000000E+00  0.11768243089E+03  0.11768243089E+03  0.00000000000E+00 0.  1.
          2   -1    0    0  501    0  0.00000000000E+00 -0.00000000000E+00 -0.95581908120E+02  0.95581908120E+02  0.00000000000E+00 0. -1.
          5    1    1    2  502    0  0.43085066717E+02 -0.22916574684E+02 -0.39543041764E+02  0.62985986705E+02  0.47000000000E+01 0. -1.
         -5    1    1    2    0  502 -0.11614872153E+02  0.41792132908E+02  0.52019579339E+02  0.67894140121E+02  0.47000000000E+01 0. -1.
        -11    1    1    2    0    0 -0.15202549940E+02 -0.25894390339E+02 -0.27836539838E+02  0.40945206384E+02  0.00000000000E+00 0. -1.
         11    1    1    2    0    0 -0.16267644624E+02  0.70188321148E+01  0.37460525038E+02  0.41439005804E+02  0.00000000000E+00 0.  1.
<mgrwt>
<rscale>  0 0.11598013E+03</rscale>
<asrwt>0</asrwt>
<pdfrwt beam="2">  1        2 0.14704909E-01 0.13028409E+03</pdfrwt>
<pdfrwt beam="1">  1       -2 0.18104989E-01 0.13028409E+03</pdfrwt>
<totfact> 0.93295851E+03</totfact>
</mgrwt>
</event>
<event>
 6    1  0.4705246E-006  0.1533222E+03  0.7546771E-02  0.1218899E+00
          2   -1    0    0  501    0  0.00000000000E+00  0.00000000000E+00  0.38847024767E+03  0.38847024767E+03  0.00000000000E+00 0. -1.
         -2   -1    0    0    0  501 -0.00000000000E+00 -0.00000000000E+00 -0.14093495739E+03  0.14093495739E+03  0.00000000000E+00 0.  1.
          5    1    1    2  502    0  0.27863766405E+02 -0.52229339059E+02  0.34380810802E+03  0.34889883702E+03  0.47000000000E+01 0. -1.
         -5    1    1    2    0  502 -0.50128950302E+01  0.35217660853E+02  0.10857089108E+02  0.37488386688E+02  0.47000000000E+01 0.  1.
        -11    1    1    2    0    0 -0.36586281948E+02  0.41901827419E+02 -0.98818561344E+02  0.11339941461E+03  0.00000000000E+00 0.  1.
         11    1    1    2    0    0  0.13735410573E+02 -0.24890149213E+02 -0.83113455074E+01  0.29618566738E+02  0.00000000000E+00 0. -1.
<mgrwt>
<rscale>  0 0.13593994E+03</rscale>
<asrwt>0</asrwt>
<pdfrwt beam="1">  1        2 0.59764653E-01 0.15332216E+03</pdfrwt>
<pdfrwt beam="2">  1       -2 0.21682301E-01 0.15332216E+03</pdfrwt>
<totfact> 0.14880713E+03</totfact>
</mgrwt>
</event>
<event>
 6    1  0.4705246E-006  0.1405114E+03  0.7546771E-02  0.1223587E+00
         -3   -1    0    0    0  501 -0.00000000000E+00  0.00000000000E+00  0.19076206257E+03  0.19076206257E+03  0.00000000000E+00 0.  1.
          3   -1    0    0  501    0  0.00000000000E+00 -0.00000000000E+00 -0.86748888272E+02  0.86748888272E+02  0.00000000000E+00 0. -1.
          5    1    1    2  502    0  0.12692346180E+02 -0.66061186910E+02  0.10893636476E+02  0.68307667089E+02  0.47000000000E+01 0.  1.
         -5    1    1    2    0  502 -0.66073615285E+02  0.30439577225E+02  0.19296249381E+02  0.75410382167E+02  0.47000000000E+01 0.  1.
        -11    1    1    2    0    0  0.19160725512E+02  0.38893692897E+02  0.86817872612E+02  0.97042236960E+02  0.00000000000E+00 0.  1.
         11    1    1    2    0    0  0.34220543593E+02 -0.32720832122E+01 -0.12994584175E+02  0.36750664623E+02  0.00000000000E+00 0. -1.
<mgrwt>
<rscale>  0 0.13264250E+03</rscale>
<asrwt>0</asrwt>
<pdfrwt beam="2">  1        3 0.13345983E-01 0.14051138E+03</pdfrwt>
<pdfrwt beam="1">  1       -3 0.29348009E-01 0.14051138E+03</pdfrwt>
<totfact> 0.11746363E+03</totfact>
</mgrwt>
</event>
<event>
 6    1  0.4705246E-006  0.2162826E+03  0.7546771E-02  0.1140292E+00
          2   -1    0    0  501    0  0.00000000000E+00  0.00000000000E+00  0.18320880549E+03  0.18320880549E+03  0.00000000000E+00 0. -1.
         -2   -1    0    0    0  501 -0.00000000000E+00 -0.00000000000E+00 -0.23745070315E+03  0.23745070315E+03  0.00000000000E+00 0.  1.
          5    1    1    2  502    0  0.22602536419E+02 -0.90832700107E+02 -0.35992799249E+02  0.10039435073E+03  0.47000000000E+01 0.  1.
         -5    1    1    2    0  502 -0.82081860995E+02 -0.75493814664E+02  0.31349814583E+02  0.11593812501E+03  0.47000000000E+01 0.  1.
        -11    1    1    2    0    0  0.25117888262E+02  0.16083700544E+03 -0.46986492026E+02  0.16943193637E+03  0.00000000000E+00 0. -1.
         11    1    1    2    0    0  0.34361436313E+02  0.54895093311E+01 -0.26124209662E+01  0.34895096525E+02  0.00000000000E+00 0.  1.
<mgrwt>
<rscale>  0 0.21161712E+03</rscale>
<asrwt>0</asrwt>
<pdfrwt beam="1">  1        2 0.28185970E-01 0.21628265E+03</pdfrwt>
<pdfrwt beam="2">  1       -2 0.36530877E-01 0.21628265E+03</pdfrwt>
<totfact> 0.13240788E+03</totfact>
</mgrwt>
</event>
<event>
 6    1  0.4705246E-006  0.1805014E+03  0.7546771E-02  0.1172506E+00
          2   -1    0    0  501    0  0.00000000000E+00  0.00000000000E+00  0.66755329201E+03  0.66755329201E+03  0.00000000000E+00 0.  1.
         -2   -1    0    0    0  501 -0.00000000000E+00 -0.00000000000E+00 -0.49032149534E+02  0.49032149534E+02  0.00000000000E+00 0. -1.
          5    1    1    2  502    0  0.28847828714E+02  0.30255402972E+02  0.27789962208E+03  0.28106560904E+03  0.47000000000E+01 0. -1.
         -5    1    1    2    0  502 -0.43826365579E+02  0.99093362947E+02  0.16780900349E+03  0.19980539671E+03  0.47000000000E+01 0. -1.
        -11    1    1    2    0    0  0.50003182145E+01 -0.14044704160E+03  0.16992983375E+03  0.22051422420E+03  0.00000000000E+00 0.  1.
         11    1    1    2    0    0  0.99782186499E+01  0.11098275679E+02  0.28826831474E+01  0.15200211597E+02  0.00000000000E+00 0. -1.
<mgrwt>
<rscale>  0 0.17522495E+03</rscale>
<asrwt>0</asrwt>
<pdfrwt beam="1">  1        2 0.10270050E+00 0.18050137E+03</pdfrwt>
<pdfrwt beam="2">  1       -2 0.75434081E-02 0.18050137E+03</pdfrwt>
<totfact> 0.45246422E+03</totfact>
</mgrwt>
</event>
<event>
 6    1  0.4705246E-006  0.1938550E+03  0.7546771E-02  0.1159353E+00
          1   -1    0    0  501    0  0.00000000000E+00  0.00000000000E+00  0.10488778474E+04  0.10488778474E+04  0.00000000000E+00 0. -1.
         -1   -1    0    0    0  501 -0.00000000000E+00 -0.00000000000E+00 -0.35126221305E+02  0.35126221305E+02  0.00000000000E+00 0.  1.
          5    1    1    2  502    0 -0.17386101752E+02  0.40865821084E+02  0.34734563903E+03  0.35020476128E+03  0.47000000000E+01 0.  1.
         -5    1    1    2    0  502 -0.12836558685E+03 -0.14173326394E+02  0.33221822155E+03  0.35646829283E+03  0.47000000000E+01 0.  1.
        -11    1    1    2    0    0  0.51589047467E+02  0.31013378888E+02  0.79394851146E+02  0.99633337178E+02  0.00000000000E+00 0.  1.
         11    1    1    2    0    0  0.94162641134E+02 -0.57705873579E+02  0.25479291441E+03  0.27769767746E+03  0.00000000000E+00 0. -1.
<mgrwt>
<rscale>  0 0.18901452E+03</rscale>
<asrwt>0</asrwt>
<pdfrwt beam="1">  1        1 0.16136580E+00 0.19385501E+03</pdfrwt>
<pdfrwt beam="2">  1       -1 0.54040348E-02 0.19385501E+03</pdfrwt>
<totfact> 0.22923260E+03</totfact>
</mgrwt>
</event>
<event>
 6    1  0.4705246E-006  0.1299437E+03  0.7546771E-02  0.1240322E+00
         -1   -1    0    0    0  501 -0.00000000000E+00  0.00000000000E+00  0.42286064195E+02  0.42286064195E+02  0.00000000000E+00 0.  1.
          1   -1    0    0  501    0  0.00000000000E+00 -0.00000000000E+00 -0.43757089795E+03  0.43757089795E+03  0.00000000000E+00 0. -1.
          5    1    1    2  502    0 -0.15682531487E+02  0.31020665824E+02 -0.30584717593E+03  0.30785192630E+03  0.47000000000E+01 0. -1.
         -5    1    1    2    0  502  0.44535320881E+02 -0.10334696516E+02 -0.37682932165E+02  0.59433106385E+02  0.47000000000E+01 0. -1.
        -11    1    1    2    0    0 -0.33778935732E+02 -0.33227503435E+02  0.10787417612E+02  0.48594771966E+02  0.00000000000E+00 0.  1.
         11    1    1    2    0    0  0.49261463388E+01  0.12541534127E+02 -0.62542143271E+02  0.63977157494E+02  0.00000000000E+00 0. -1.
<mgrwt>
<rscale>  0 0.12169793E+03</rscale>
<asrwt>0</asrwt>
<pdfrwt beam="2">  1        1 0.67318598E-01 0.12994368E+03</pdfrwt>
<pdfrwt beam="1">  1       -1 0.65055485E-02 0.12994368E+03</pdfrwt>
<totfact> 0.60906448E+03</totfact>
</mgrwt>
</event>
<event>
 6    1  0.4705246E-006  0.1279399E+03  0.7546771E-02  0.1248324E+00
         -1   -1    0    0    0  501 -0.00000000000E+00  0.00000000000E+00  0.46108784650E+03  0.46108784650E+03  0.00000000000E+00 0.  1.
          1   -1    0    0  501    0  0.00000000000E+00 -0.00000000000E+00 -0.38677036035E+02  0.38677036035E+02  0.00000000000E+00 0. -1.
          5    1    1    2  502    0 -0.25865685295E+02  0.18562018374E+02 -0.14803970497E+02  0.35423576109E+02  0.47000000000E+01 0. -1.
         -5    1    1    2    0  502  0.46535451917E+02 -0.36342036971E+02  0.10691122963E+03  0.12222271866E+03  0.47000000000E+01 0. -1.
        -11    1    1    2    0    0 -0.10504402670E+02 -0.29231986687E+02  0.59944906272E+02  0.67514763638E+02  0.00000000000E+00 0. -1.
         11    1    1    2    0    0 -0.10165363952E+02  0.47012005285E+02  0.27035864507E+03  0.27460382413E+03  0.00000000000E+00 0.  1.
<mgrwt>
<rscale>  0 0.11688641E+03</rscale>
<asrwt>0</asrwt>
<pdfrwt beam="2">  1        1 0.59503136E-02 0.12793986E+03</pdfrwt>
<pdfrwt beam="1">  1       -1 0.70936588E-01 0.12793986E+03</pdfrwt>
<totfact> 0.26282803E+03</totfact>
</mgrwt>
</event>
<event>
 6    1  0.4705246E-006  0.6917422E+03  0.7546771E-02  0.1008712E+00
          2   -1    0    0  501    0  0.00000000000E+00  0.00000000000E+00  0.36402217346E+04  0.36402217346E+04  0.00000000000E+00 0. -1.
         -2   -1    0    0    0  501 -0.00000000000E+00 -0.00000000000E+00 -0.71822059548E+02  0.71822059548E+02  0.00000000000E+00 0.  1.
          5    1    1    2  502    0 -0.69690059163E+02  0.32679620469E+03  0.25812551572E+04  0.26027970994E+04  0.47000000000E+01 0. -1.
         -5    1    1    2    0  502 -0.11309527807E+03 -0.24325014308E+03  0.68003778052E+03  0.73105037239E+03  0.47000000000E+01 0.  1.
        -11    1    1    2    0    0  0.68163187452E+02 -0.12384430861E+02  0.17985578002E+03  0.19273737536E+03  0.00000000000E+00 0.  1.
         11    1    1    2    0    0  0.11462214978E+03 -0.71161630747E+02  0.12725095729E+03  0.18545894705E+03  0.00000000000E+00 0. -1.
<mgrwt>
<rscale>  0 0.51989939E+03</rscale>
<asrwt>0</asrwt>
<pdfrwt beam="1">  1        2 0.56003397E+00 0.69174225E+03</pdfrwt>
<pdfrwt beam="2">  1       -2 0.11049550E-01 0.69174225E+03</pdfrwt>
<totfact> 0.41149451E+01</totfact>
</mgrwt>
</event>
<event>
 6    1  0.4705246E-006  0.2157851E+03  0.7546771E-02  0.1140580E+00
          2   -1    0    0  501    0  0.00000000000E+00  0.00000000000E+00  0.11064855431E+04  0.11064855431E+04  0.00000000000E+00 0. -1.
         -2   -1    0    0    0  501 -0.00000000000E+00 -0.00000000000E+00 -0.42611902276E+02  0.42611902276E+02  0.00000000000E+00 0.  1.
          5    1    1    2  502    0  0.61380422268E+02 -0.98389416328E+02  0.23825587942E+03  0.26502073043E+03  0.47000000000E+01 0. -1.
         -5    1    1    2    0  502 -0.19610633093E+01 -0.67165204451E+02  0.48761137871E+03  0.49224176692E+03  0.47000000000E+01 0. -1.
        -11    1    1    2    0    0  0.15066090486E+02  0.77645320319E+02  0.17679058963E+03  0.19367678083E+03  0.00000000000E+00 0.  1.
         11    1    1    2    0    0 -0.74485449445E+02  0.87909300460E+02  0.16121579303E+03  0.19815816715E+03  0.00000000000E+00 0. -1.
<mgrwt>
<rscale>  0 0.21124978E+03</rscale>
<asrwt>0</asrwt>
<pdfrwt beam="1">  1        2 0.17022852E+00 0.21578511E+03</pdfrwt>
<pdfrwt beam="2">  1       -2 0.65556781E-02 0.21578511E+03</pdfrwt>
<totfact> 0.29104484E+03</totfact>
</mgrwt>
</event>
<event>
 6    1  0.4705246E-006  0.1276396E+03  0.7546771E-02  0.1255815E+00
         -2   -1    0    0    0  501 -0.00000000000E+00  0.00000000000E+00  0.67532864977E+02  0.67532864977E+02  0.00000000000E+00 0.  1.
          2   -1    0    0  501    0  0.00000000000E+00 -0.00000000000E+00 -0.18668195666E+03  0.18668195666E+03  0.00000000000E+00 0. -1.
          5    1    1    2  502    0 -0.51115493398E+02 -0.29119599432E+01 -0.50563425103E+02  0.72111185916E+02  0.47000000000E+01 0.  1.
         -5    1    1    2    0  502  0.74981844887E+02  0.12804840732E+02 -0.71805866672E+02  0.10471109539E+03  0.47000000000E+01 0.  1.
        -11    1    1    2    0    0 -0.19567041940E+02  0.46409010706E+01 -0.32709537874E+02  0.38396887387E+02  0.00000000000E+00 0. -1.
         11    1    1    2    0    0 -0.42993095497E+01 -0.14533781860E+02  0.35929737971E+02  0.38995652943E+02  0.00000000000E+00 0.  1.
<mgrwt>
<rscale>  0 0.11260816E+03</rscale>
<asrwt>0</asrwt>
<pdfrwt beam="2">  1        2 0.28720301E-01 0.12763963E+03</pdfrwt>
<pdfrwt beam="1">  1       -2 0.10389672E-01 0.12763963E+03</pdfrwt>
<totfact> 0.10759568E+04</totfact>
</mgrwt>
</event>
<event>
 6    1  0.4705246E-006  0.1654164E+03  0.7546771E-02  0.1189892E+00
         -1   -1    0    0    0  501 -0.00000000000E+00  0.00000000000E+00  0.78669102721E+02  0.78669102721E+02  0.00000000000E+00 0.  1.
          1   -1    0    0  501    0  0.00000000000E+00 -0.00000000000E+00 -0.30085367054E+03  0.30085367054E+03  0.00000000000E+00 0. -1.
          5    1    1    2  502    0 -0.21160814977E+02 -0.21122782516E+02  0.13607987113E+01  0.30296762283E+02  0.47000000000E+01 0.  1.
         -5    1    1    2    0  502 -0.94410472858E+00  0.12718183089E+03 -0.10414935623E+03  0.16445451604E+03  0.47000000000E+01 0.  1.
        -11    1    1    2    0    0  0.15983080571E+02  0.96653670387E+01 -0.41792179933E+00  0.18682955954E+02  0.00000000000E+00 0.  1.
         11    1    1    2    0    0  0.61218391347E+01 -0.11572441542E+03 -0.11897808851E+03  0.16608853899E+03  0.00000000000E+00 0. -1.
<mgrwt>
<rscale>  0 0.15894608E+03</rscale>
<asrwt>0</asrwt>
<pdfrwt beam="2">  1        1 0.46285180E-01 0.16541636E+03</pdfrwt>
<pdfrwt beam="1">  1       -1 0.12102939E-01 0.16541636E+03</pdfrwt>
<totfact> 0.38423226E+03</totfact>
</mgrwt>
</event>
<event>
 6    1  0.4705246E-006  0.3975433E+03  0.7546771E-02  0.1044634E+00
         -1   -1    0    0    0  501 -0.00000000000E+00  0.00000000000E+00  0.44961635567E+02  0.44961635567E+02  0.00000000000E+00 0.  1.
          1   -1    0    0  501    0  0.00000000000E+00 -0.00000000000E+00 -0.87875313222E+03  0.87875313222E+03  0.00000000000E+00 0. -1.
          5    1    1    2  502    0 -0.16342337746E+03 -0.45145237509E+02 -0.54766251613E+03  0.57332505121E+03  0.47000000000E+01 0. -1.
         -5    1    1    2    0  502  0.20107471622E+02  0.11244329730E+02 -0.75619239084E+02  0.79190306766E+02  0.47000000000E+01 0. -1.
        -11    1    1    2    0    0  0.10561349520E+03  0.51044522837E+02 -0.10343025020E+03  0.15638916311E+03  0.00000000000E+00 0.  1.
         11    1    1    2    0    0  0.37702410632E+02 -0.17143615059E+02 -0.10707949123E+03  0.11481024670E+03  0.00000000000E+00 0. -1.
<mgrwt>
<rscale>  0 0.39754335E+03</rscale>
<asrwt>0</asrwt>
<pdfrwt beam="2">  1        1 0.13519278E+00 0.39754335E+03</pdfrwt>
<pdfrwt beam="1">  1       -1 0.69171750E-02 0.39754335E+03</pdfrwt>
<totfact> 0.21410975E+03</totfact>
</mgrwt>
</event>
<event>
 6    1  0.4705246E-006  0.1286957E+03  0.7546771E-02  0.1247048E+00
         -1   -1    0    0    0  501 -0.00000000000E+00  0.00000000000E+00  0.14291602281E+03  0.14291602281E+03  0.00000000000E+00 0.  1.
          1   -1    0    0  501    0  0.00000000000E+00 -0.00000000000E+00 -0.11016638766E+03  0.11016638766E+03  0.00000000000E+00 0. -1.
          5    1    1    2  502    0  0.24789353712E+02  0.65073339838E+02 -0.19464811798E+02  0.72457025287E+02  0.47000000000E+01 0. -1.
         -5    1    1    2    0  502 -0.21140295238E+02 -0.54555300800E+02 -0.23410090655E+02  0.63192683695E+02  0.47000000000E+01 0.  1.
        -11    1    1    2    0    0  0.83885854378E+01 -0.26591050973E+02  0.89026130673E+02  0.93290429842E+02  0.00000000000E+00 0.  1.
         11    1    1    2    0    0 -0.12037643912E+02  0.16073011935E+02 -0.13401593069E+02  0.24142271650E+02  0.00000000000E+00 0. -1.
<mgrwt>
<rscale>  0 0.11763633E+03</rscale>
<asrwt>0</asrwt>
<pdfrwt beam="2">  1        1 0.16948675E-01 0.12869571E+03</pdfrwt>
<pdfrwt beam="1">  1       -1 0.21987081E-01 0.12869571E+03</pdfrwt>
<totfact> 0.51985036E+03</totfact>
</mgrwt>
</event>
<event>
 6    1  0.4705246E-006  0.1267011E+03  0.7546771E-02  0.1248924E+00
         -1   -1    0    0    0  501 -0.00000000000E+00  0.00000000000E+00  0.69920997940E+02  0.69920997940E+02  0.00000000000E+00 0.  1.
          1   -1    0    0  501    0  0.00000000000E+00 -0.00000000000E+00 -0.17178087900E+03  0.17178087900E+03  0.00000000000E+00 0. -1.
          5    1    1    2  502    0  0.11118062194E+02  0.48557906180E+02 -0.54488905985E+02  0.73977107507E+02  0.47000000000E+01 0. -1.
         -5    1    1    2    0  502 -0.20967599057E+02 -0.66846495233E+02 -0.20042362670E+02  0.73019726352E+02  0.47000000000E+01 0. -1.
        -11    1    1    2    0    0  0.10565010235E+02  0.42206582731E+02  0.15049405507E+02  0.46038024210E+02  0.00000000000E+00 0.  1.
         11    1    1    2    0    0 -0.71547337177E+00 -0.23917993678E+02 -0.42378017916E+02  0.48667018875E+02  0.00000000000E+00 0. -1.
<mgrwt>
<rscale>  0 0.11653561E+03</rscale>
<asrwt>0</asrwt>
<pdfrwt beam="2">  1        1 0.26427827E-01 0.12670106E+03</pdfrwt>
<pdfrwt beam="1">  1       -1 0.10757077E-01 0.12670106E+03</pdfrwt>
<totfact> 0.90924470E+03</totfact>
</mgrwt>
</event>
<event>
 6    1  0.4705246E-006  0.1309408E+03  0.7546771E-02  0.1260970E+00
          2   -1    0    0  501    0  0.00000000000E+00  0.00000000000E+00  0.56937172972E+03  0.56937172972E+03  0.00000000000E+00 0. -1.
         -2   -1    0    0    0  501 -0.00000000000E+00 -0.00000000000E+00 -0.17280614714E+03  0.17280614714E+03  0.00000000000E+00 0.  1.
          5    1    1    2  502    0 -0.15396859507E+01 -0.85150947018E+02  0.39416818195E+03  0.40329108603E+03  0.47000000000E+01 0. -1.
         -5    1    1    2    0  502 -0.22434791590E+02  0.38472292955E+02  0.16125453877E+03  0.16735756175E+03  0.47000000000E+01 0.  1.
        -11    1    1    2    0    0  0.21210484197E+02  0.58208179585E+01 -0.37802280523E+02  0.43735328675E+02  0.00000000000E+00 0. -1.
         11    1    1    2    0    0  0.27639933436E+01  0.40857836104E+02 -0.12105485761E+03  0.12779390041E+03  0.00000000000E+00 0.  1.
<mgrwt>
<rscale>  0 0.10978422E+03</rscale>
<asrwt>0</asrwt>
<pdfrwt beam="1">  1        2 0.87595649E-01 0.13094075E+03</pdfrwt>
<pdfrwt beam="2">  1       -2 0.26585562E-01 0.13094075E+03</pdfrwt>
<totfact> 0.68626767E+02</totfact>
</mgrwt>
</event>
<event>
 6    1  0.4705246E-006  0.1311771E+03  0.7546771E-02  0.1235539E+00
         -1   -1    0    0    0  501 -0.00000000000E+00  0.00000000000E+00  0.44594891763E+03  0.44594891763E+03  0.00000000000E+00 0.  1.
          1   -1    0    0  501    0  0.00000000000E+00 -0.00000000000E+00 -0.33059956478E+02  0.33059956478E+02  0.00000000000E+00 0. -1.
          5    1    1    2  502    0  0.12501162128E+02  0.41863611939E+02  0.38924738567E+02  0.58703205463E+02  0.47000000000E+01 0. -1.
         -5    1    1    2    0  502 -0.25011538674E+02 -0.79642688088E+02  0.14172085119E+03  0.16454611662E+03  0.47000000000E+01 0. -1.
        -11    1    1    2    0    0  0.12361455166E+02 -0.28349018509E+02  0.30426294597E+02  0.43384695772E+02  0.00000000000E+00 0. -1.
         11    1    1    2    0    0  0.14892138018E+00  0.66128094659E+02  0.20181707680E+03  0.21237485625E+03  0.00000000000E+00 0.  1.
<mgrwt>
<rscale>  0 0.12470020E+03</rscale>
<asrwt>0</asrwt>
<pdfrwt beam="2">  1        1 0.50861475E-02 0.13117710E+03</pdfrwt>
<pdfrwt beam="1">  1       -1 0.68607521E-01 0.13117710E+03</pdfrwt>
<totfact> 0.34798654E+03</totfact>
</mgrwt>
</event>
<event>
 6    1  0.4705246E-006  0.1399815E+03  0.7546771E-02  0.1224324E+00
         -1   -1    0    0    0  501 -0.00000000000E+00  0.00000000000E+00  0.17850001708E+03  0.17850001708E+03  0.00000000000E+00 0. -1.
          1   -1    0    0  501    0  0.00000000000E+00 -0.00000000000E+00 -0.10363376812E+03  0.10363376812E+03  0.00000000000E+00 0.  1.
          5    1    1    2  502    0  0.60173073379E+02 -0.21984594480E+02 -0.32240774547E+01  0.64316450693E+02  0.47000000000E+01 0.  1.
         -5    1    1    2    0  502 -0.63437114926E+02 -0.40935476769E+02 -0.96046060522E+01  0.76251683692E+02  0.47000000000E+01 0.  1.
        -11    1    1    2    0    0 -0.10336701947E+02  0.36009958109E+02  0.10165503639E+03  0.10833887074E+03  0.00000000000E+00 0. -1.
         11    1    1    2    0    0  0.13600743493E+02  0.26910113140E+02 -0.13960103914E+02  0.33226780074E+02  0.00000000000E+00 0.  1.
<mgrwt>
<rscale>  0 0.13213361E+03</rscale>
<asrwt>0</asrwt>
<pdfrwt beam="2">  1        1 0.15943657E-01 0.13998152E+03</pdfrwt>
<pdfrwt beam="1">  1       -1 0.27461541E-01 0.13998152E+03</pdfrwt>
<totfact> 0.39260749E+03</totfact>
</mgrwt>
</event>
<event>
 6    1  0.4705246E-006  0.2327110E+03  0.7546771E-02  0.1156530E+00
          2   -1    0    0  501    0  0.00000000000E+00  0.00000000000E+00  0.15312092893E+04  0.15312092893E+04  0.00000000000E+00 0. -1.
         -2   -1    0    0    0  501 -0.00000000000E+00 -0.00000000000E+00 -0.31779335937E+02  0.31779335937E+02  0.00000000000E+00 0.  1.
          5    1    1    2  502    0  0.59811694520E+02  0.38711265079E+02  0.13172362205E+04  0.13191699479E+04  0.47000000000E+01 0. -1.
         -5    1    1    2    0  502 -0.30227934877E+01 -0.52703188967E+02  0.71892978360E+02  0.89316592777E+02  0.47000000000E+01 0.  1.
        -11    1    1    2    0    0 -0.36351717424E+02  0.48046499007E+02  0.35817291990E+02  0.70091310674E+02  0.00000000000E+00 0.  1.
         11    1    1    2    0    0 -0.20437183609E+02 -0.34054575119E+02  0.74483462537E+02  0.84410773909E+02  0.00000000000E+00 0. -1.
<mgrwt>
<rscale>  0 0.19215753E+03</rscale>
<asrwt>0</asrwt>
<pdfrwt beam="1">  1        2 0.23557060E+00 0.23271099E+03</pdfrwt>
<pdfrwt beam="2">  1       -2 0.48891298E-02 0.23271099E+03</pdfrwt>
<totfact> 0.26600051E+03</totfact>
</mgrwt>
</event>
<event>
 6    1  0.4705246E-006  0.1539247E+03  0.7546771E-02  0.1227052E+00
          2   -1    0    0  501    0  0.00000000000E+00  0.00000000000E+00  0.92088971044E+03  0.92088971044E+03  0.00000000000E+00 0. -1.
         -2   -1    0    0    0  501 -0.00000000000E+00 -0.00000000000E+00 -0.88968205268E+02  0.88968205268E+02  0.00000000000E+00 0.  1.
          5    1    1    2  502    0  0.25097131311E+02  0.24177488495E+02  0.45022537749E+03  0.45159649853E+03  0.47000000000E+01 0. -1.
         -5    1    1    2    0  502 -0.79648830937E+02 -0.65156651770E+02  0.44517519052E+03  0.45693803277E+03  0.47000000000E+01 0.  1.
        -11    1    1    2    0    0  0.11217673057E+02 -0.35765586755E+01 -0.26508156220E+02  0.29005349626E+02  0.00000000000E+00 0. -1.
         11    1    1    2    0    0  0.43334026569E+02  0.44555721951E+02 -0.36970906621E+02  0.72318034774E+02  0.00000000000E+00 0.  1.
<mgrwt>
<rscale>  0 0.13027222E+03</rscale>
<asrwt>0</asrwt>
<pdfrwt beam="1">  1        2 0.14167533E+00 0.15392471E+03</pdfrwt>
<pdfrwt beam="2">  1       -2 0.13687417E-01 0.15392471E+03</pdfrwt>
<totfact> 0.11754706E+03</totfact>
</mgrwt>
</event>
<event>
 6    1  0.4705246E-006  0.1445769E+03  0.7546771E-02  0.1217506E+00
          2   -1    0    0  501    0  0.00000000000E+00  0.00000000000E+00  0.29751373568E+03  0.29751373568E+03  0.00000000000E+00 0. -1.
         -2   -1    0    0    0  501 -0.00000000000E+00 -0.00000000000E+00 -0.61420761717E+02  0.61420761717E+02  0.00000000000E+00 0.  1.
          5    1    1    2  502    0  0.36366086334E+02  0.94758915738E+02  0.90834273094E+02  0.13628902933E+03  0.47000000000E+01 0.  1.
         -5    1    1    2    0  502  0.14740008070E+01 -0.32754699920E+02  0.85789682620E+02  0.91961963275E+02  0.47000000000E+01 0.  1.
        -11    1    1    2    0    0 -0.29340389548E+02  0.36467045169E+01 -0.13203146477E+02  0.32380240727E+02  0.00000000000E+00 0.  1.
         11    1    1    2    0    0 -0.84996975923E+01 -0.65650920336E+02  0.72672164726E+02  0.98303264066E+02  0.00000000000E+00 0. -1.
<mgrwt>
<rscale>  0 0.13694087E+03</rscale>
<asrwt>0</asrwt>
<pdfrwt beam="1">  1        2 0.45771343E-01 0.14457695E+03</pdfrwt>
<pdfrwt beam="2">  1       -2 0.94493481E-02 0.14457695E+03</pdfrwt>
<totfact> 0.76540022E+03</totfact>
</mgrwt>
</event>
<event>
 6    1  0.1019324E-005  0.3201731E+03  0.7546771E-02  0.1075570E+00
         -1   -1    0    0    0  501 -0.00000000000E+00  0.00000000000E+00  0.20083470414E+02  0.20083470414E+02  0.00000000000E+00 0. -1.
          1   -1    0    0  501    0  0.00000000000E+00 -0.00000000000E+00 -0.12760598786E+04  0.12760598786E+04  0.00000000000E+00 0.  1.
          5    1    1    2  502    0  0.36171966882E+01  0.11146745638E+03 -0.33578210112E+03  0.35384995037E+03  0.47000000000E+01 0. -1.
         -5    1    1    2    0  502  0.18646143439E+02  0.19689756056E+01 -0.43871698214E+03  0.43914261459E+03  0.47000000000E+01 0. -1.
        -11    1    1    2    0    0 -0.56000532620E+02 -0.67812841246E+02 -0.32554149964E+03  0.33721196461E+03  0.00000000000E+00 0.  1.
         11    1    1    2    0    0  0.33737192493E+02 -0.45623590739E+02 -0.15593582525E+03  0.16593881941E+03  0.00000000000E+00 0. -1.
<mgrwt>
<rscale>  0 0.32017315E+03</rscale>
<asrwt>0</asrwt>
<pdfrwt beam="2">  1        1 0.19631696E+00 0.32017315E+03</pdfrwt>
<pdfrwt beam="1">  1       -1 0.30897638E-02 0.32017315E+03</pdfrwt>
<totfact> 0.36674232E+03</totfact>
</mgrwt>
</event>
<event>
 6    1  0.4705246E-006  0.2390784E+03  0.7546771E-02  0.1120408E+00
          2   -1    0    0  501    0  0.00000000000E+00  0.00000000000E+00  0.57650492126E+03  0.57650492126E+03  0.00000000000E+00 0. -1.
         -2   -1    0    0    0  501 -0.00000000000E+00 -0.00000000000E+00 -0.24786631154E+02  0.24786631154E+02  0.00000000000E+00 0.  1.
          5    1    1    2  502    0  0.27934544112E+01 -0.87281668703E+01  0.35761394736E+03  0.35776222499E+03  0.47000000000E+01 0. -1.
         -5    1    1    2    0  502  0.31533298458E+02 -0.13996430935E+01  0.12097721352E+02  0.34128474539E+02  0.47000000000E+01 0. -1.
        -11    1    1    2    0    0  0.20757361065E+02  0.32788282348E+02  0.10570796957E+03  0.11260601373E+03  0.00000000000E+00 0. -1.
         11    1    1    2    0    0 -0.55084113934E+02 -0.22660472384E+02  0.76298651829E+02  0.96794839157E+02  0.00000000000E+00 0.  1.
<mgrwt>
<rscale>  0 0.23907835E+03</rscale>
<asrwt>0</asrwt>
<pdfrwt beam="1">  1        2 0.88693055E-01 0.23907835E+03</pdfrwt>
<pdfrwt beam="2">  1       -2 0.38133283E-02 0.23907835E+03</pdfrwt>
<totfact> 0.15402370E+04</totfact>
</mgrwt>
</event>
<event>
 6    1  0.4705246E-006  0.1378489E+03  0.7546771E-02  0.1228900E+00
         -4   -1    0    0    0  501 -0.00000000000E+00  0.00000000000E+00  0.59517650137E+02  0.59517650137E+02  0.00000000000E+00 0.  1.
          4   -1    0    0  501    0  0.00000000000E+00 -0.00000000000E+00 -0.26220293660E+03  0.26220293660E+03  0.00000000000E+00 0. -1.
          5    1    1    2  502    0  0.18763384342E+02 -0.44727276654E+02 -0.20752021897E+02  0.52965368701E+02  0.47000000000E+01 0. -1.
         -5    1    1    2    0  502 -0.73468650660E+02  0.25086629586E+02 -0.12851174826E+03  0.15021431708E+03  0.47000000000E+01 0. -1.
        -11    1    1    2    0    0  0.71042489211E+02  0.13673071342E+02 -0.11630835961E+02  0.73275265256E+02  0.00000000000E+00 0.  1.
         11    1    1    2    0    0 -0.16337222893E+02  0.59675757259E+01 -0.41790680343E+02  0.45265635701E+02  0.00000000000E+00 0. -1.
<mgrwt>
<rscale>  0 0.12903139E+03</rscale>
<asrwt>0</asrwt>
<pdfrwt beam="2">  1        4 0.40338913E-01 0.13784887E+03</pdfrwt>
<pdfrwt beam="1">  1       -4 0.91565616E-02 0.13784887E+03</pdfrwt>
<totfact> 0.87350695E+02</totfact>
</mgrwt>
</event>
<event>
 6    1  0.4705246E-006  0.1515412E+03  0.7546771E-02  0.1207751E+00
          2   -1    0    0  501    0  0.00000000000E+00  0.00000000000E+00  0.15541493059E+04  0.15541493059E+04  0.00000000000E+00 0. -1.
         -2   -1    0    0    0  501 -0.00000000000E+00 -0.00000000000E+00 -0.16097373920E+02  0.16097373920E+02  0.00000000000E+00 0.  1.
          5    1    1    2  502    0  0.32385006745E+02  0.91505860743E+02  0.52618785716E+03  0.53508678010E+03  0.47000000000E+01 0.  1.
         -5    1    1    2    0  502  0.16834208061E+02 -0.21381501637E+02  0.68327903204E+03  0.68383688465E+03  0.47000000000E+01 0.  1.
        -11    1    1    2    0    0  0.17067639527E+02  0.86466650206E+01  0.30956416678E+02  0.36391879156E+02  0.00000000000E+00 0.  1.
         11    1    1    2    0    0 -0.66286854333E+02 -0.78771024127E+02  0.29762862613E+03  0.31493113595E+03  0.00000000000E+00 0. -1.
<mgrwt>
<rscale>  0 0.14422759E+03</rscale>
<asrwt>0</asrwt>
<pdfrwt beam="1">  1        2 0.23909978E+00 0.15154123E+03</pdfrwt>
<pdfrwt beam="2">  1       -2 0.24765203E-02 0.15154123E+03</pdfrwt>
<totfact> 0.70832957E+03</totfact>
</mgrwt>
</event>
<event>
 6    1  0.4705246E-006  0.2398370E+03  0.7546771E-02  0.1119901E+00
          2   -1    0    0  501    0  0.00000000000E+00  0.00000000000E+00  0.88162617697E+03  0.88162617697E+03  0.00000000000E+00 0. -1.
         -2   -1    0    0    0  501 -0.00000000000E+00 -0.00000000000E+00 -0.16311280042E+02  0.16311280042E+02  0.00000000000E+00 0.  1.
          5    1    1    2  502    0 -0.23004201294E+02 -0.22331335022E+01  0.14649685991E+02  0.27764788168E+02  0.47000000000E+01 0.  1.
         -5    1    1    2    0  502  0.64690187047E+02  0.33283602325E+02  0.46277922699E+03  0.46848620195E+03  0.47000000000E+01 0.  1.
        -11    1    1    2    0    0 -0.15653284847E+02 -0.60334921441E+02  0.19015438901E+03  0.20011001907E+03  0.00000000000E+00 0. -1.
         11    1    1    2    0    0 -0.26032700907E+02  0.29284452618E+02  0.19773159493E+03  0.20157644782E+03  0.00000000000E+00 0.  1.
<mgrwt>
<rscale>  0 0.23983704E+03</rscale>
<asrwt>0</asrwt>
<pdfrwt beam="1">  1        2 0.13563476E+00 0.23983704E+03</pdfrwt>
<pdfrwt beam="2">  1       -2 0.25094284E-02 0.23983704E+03</pdfrwt>
<totfact> 0.17076391E+04</totfact>
</mgrwt>
</event>
<event>
 6    1  0.4705246E-006  0.1453012E+03  0.7546771E-02  0.1216622E+00
          1   -1    0    0  501    0  0.00000000000E+00  0.00000000000E+00  0.25239714332E+03  0.25239714332E+03  0.00000000000E+00 0. -1.
         -1   -1    0    0    0  501 -0.00000000000E+00 -0.00000000000E+00 -0.68094536400E+02  0.68094536400E+02  0.00000000000E+00 0.  1.
          5    1    1    2  502    0  0.61478343259E+02  0.26641852180E+01  0.30282548896E+02  0.68744507711E+02  0.47000000000E+01 0.  1.
         -5    1    1    2    0  502 -0.42641203468E+02  0.68989140850E+02  0.76344522446E+02  0.11148250937E+03  0.47000000000E+01 0.  1.
        -11    1    1    2    0    0 -0.24356292382E+02 -0.11401185060E+02  0.75028359214E+02  0.79702388206E+02  0.00000000000E+00 0. -1.
         11    1    1    2    0    0  0.55191525912E+01 -0.60252141008E+02  0.26471763637E+01  0.60562274430E+02  0.00000000000E+00 0.  1.
<mgrwt>
<rscale>  0 0.13758037E+03</rscale>
<asrwt>0</asrwt>
<pdfrwt beam="1">  1        1 0.38830329E-01 0.14530122E+03</pdfrwt>
<pdfrwt beam="2">  1       -1 0.10476083E-01 0.14530122E+03</pdfrwt>
<totfact> 0.59276560E+03</totfact>
</mgrwt>
</event>
<event>
 6    1  0.4705246E-006  0.1388052E+03  0.7546771E-02  0.1225383E+00
         -1   -1    0    0    0  501 -0.00000000000E+00  0.00000000000E+00  0.21320517315E+03  0.21320517315E+03  0.00000000000E+00 0.  1.
          1   -1    0    0  501    0  0.00000000000E+00 -0.00000000000E+00 -0.10550001172E+03  0.10550001172E+03  0.00000000000E+00 0. -1.
          5    1    1    2  502    0 -0.23763255385E+02  0.22057694528E+02  0.46380443036E+02  0.56784414152E+02  0.47000000000E+01 0.  1.
         -5    1    1    2    0  502 -0.35891883850E+02 -0.13296268251E+02 -0.75885795501E+02  0.85122042001E+02  0.47000000000E+01 0.  1.
        -11    1    1    2    0    0  0.22611109355E+02 -0.65006280702E+01 -0.95700252721E+01  0.25398933349E+02  0.00000000000E+00 0. -1.
         11    1    1    2    0    0  0.37044029880E+02 -0.22607982065E+01  0.14678053917E+03  0.15139979536E+03  0.00000000000E+00 0.  1.
<mgrwt>
<rscale>  0 0.13140678E+03</rscale>
<asrwt>0</asrwt>
<pdfrwt beam="2">  1        1 0.16230771E-01 0.13880517E+03</pdfrwt>
<pdfrwt beam="1">  1       -1 0.32800796E-01 0.13880517E+03</pdfrwt>
<totfact> 0.28447450E+03</totfact>
</mgrwt>
</event>
<event>
 6    1  0.4705246E-006  0.1430214E+03  0.7546771E-02  0.1218817E+00
          1   -1    0    0  501    0  0.00000000000E+00  0.00000000000E+00  0.57229151543E+02  0.57229151543E+02  0.00000000000E+00 0. -1.
         -1   -1    0    0    0  501 -0.00000000000E+00 -0.00000000000E+00 -0.31630826632E+03  0.31630826632E+03  0.00000000000E+00 0.  1.
          5    1    1    2  502    0 -0.45737970978E+01  0.52131622954E+02  0.19628732463E+02  0.56089240232E+02  0.47000000000E+01 0. -1.
         -5    1    1    2    0  502 -0.91459034161E+01  0.16010226021E+02 -0.11327763175E+03  0.11486464531E+03  0.47000000000E+01 0. -1.
        -11    1    1    2    0    0  0.18082806499E+02 -0.81150082746E+02 -0.16905444149E+03  0.18839248395E+03  0.00000000000E+00 0.  1.
         11    1    1    2    0    0 -0.43631059848E+01  0.13008233771E+02  0.36242260077E+01  0.14191048370E+02  0.00000000000E+00 0. -1.
<mgrwt>
<rscale>  0 0.13599828E+03</rscale>
<asrwt>0</asrwt>
<pdfrwt beam="1">  1        1 0.88044847E-02 0.14302138E+03</pdfrwt>
<pdfrwt beam="2">  1       -1 0.48662811E-01 0.14302138E+03</pdfrwt>
<totfact> 0.31827373E+03</totfact>
</mgrwt>
</event>
<event>
 6    1  0.4705246E-006  0.1967295E+03  0.7546771E-02  0.1177914E+00
         -2   -1    0    0    0  501 -0.00000000000E+00  0.00000000000E+00  0.39775765744E+02  0.39775765744E+02  0.00000000000E+00 0.  1.
          2   -1    0    0  501    0  0.00000000000E+00 -0.00000000000E+00 -0.12627705607E+04  0.12627705607E+04  0.00000000000E+00 0. -1.
          5    1    1    2  502    0  0.27400516275E+02 -0.37255619770E+02 -0.11595717192E+04  0.11605030941E+04  0.47000000000E+01 0. -1.
         -5    1    1    2    0  502  0.91183557119E+01 -0.11351846030E+02  0.33923841108E+00  0.15304048545E+02  0.47000000000E+01 0.  1.
        -11    1    1    2    0    0 -0.15815719175E+02  0.72126258256E+02 -0.27449488053E+02  0.78776954101E+02  0.00000000000E+00 0.  1.
         11    1    1    2    0    0 -0.20703152812E+02 -0.23518792456E+02 -0.36312826103E+02  0.47962229666E+02  0.00000000000E+00 0. -1.
<mgrwt>
<rscale>  0 0.16993664E+03</rscale>
<asrwt>0</asrwt>
<pdfrwt beam="2">  1        2 0.19427239E+00 0.19672949E+03</pdfrwt>
<pdfrwt beam="1">  1       -2 0.61193487E-02 0.19672949E+03</pdfrwt>
<totfact> 0.26357325E+03</totfact>
</mgrwt>
</event>
<event>
 6    1  0.4705246E-006  0.1722968E+03  0.7546771E-02  0.1179070E+00
         -1   -1    0    0    0  501 -0.00000000000E+00  0.00000000000E+00  0.29238726364E+02  0.29238726364E+02  0.00000000000E+00 0.  1.
          1   -1    0    0  501    0  0.00000000000E+00 -0.00000000000E+00 -0.94211115176E+03  0.94211115176E+03  0.00000000000E+00 0. -1.
          5    1    1    2  502    0 -0.11488981160E+03 -0.59060030519E+02 -0.44124413649E+03  0.45978933654E+03  0.47000000000E+01 0. -1.
         -5    1    1    2    0  502  0.20936784301E+02 -0.30973007196E+02 -0.67041469284E+02  0.76904646904E+02  0.47000000000E+01 0.  1.
        -11    1    1    2    0    0 -0.15393557980E+02  0.36545539830E+00 -0.65070680665E+02  0.66867695243E+02  0.00000000000E+00 0. -1.
         11    1    1    2    0    0  0.10934658527E+03  0.89667582317E+02 -0.33951613896E+03  0.36778819943E+03  0.00000000000E+00 0.  1.
<mgrwt>
<rscale>  0 0.16883357E+03</rscale>
<asrwt>0</asrwt>
<pdfrwt beam="2">  1        1 0.14494016E+00 0.17229676E+03</pdfrwt>
<pdfrwt beam="1">  1       -1 0.44982660E-02 0.17229676E+03</pdfrwt>
<totfact> 0.36069360E+03</totfact>
</mgrwt>
</event>
<event>
 6    1  0.4923394E-006  0.3916823E+03  0.7546771E-02  0.1046698E+00
         -1   -1    0    0    0  501 -0.00000000000E+00  0.00000000000E+00  0.48652540470E+02  0.48652540470E+02  0.00000000000E+00 0.  1.
          1   -1    0    0  501    0  0.00000000000E+00 -0.00000000000E+00 -0.78831971610E+03  0.78831971610E+03  0.00000000000E+00 0. -1.
          5    1    1    2  502    0  0.26684452092E+02 -0.18338830003E+02 -0.11080164081E+03  0.11553123506E+03  0.47000000000E+01 0.  1.
         -5    1    1    2    0  502 -0.13178660829E+03 -0.10305897211E+03 -0.33259242886E+03  0.37232871981E+03  0.47000000000E+01 0.  1.
        -11    1    1    2    0    0  0.68606564815E+02  0.86905935379E+02 -0.27131112950E+03  0.29303452242E+03  0.00000000000E+00 0.  1.
         11    1    1    2    0    0  0.36495591380E+02  0.34491866729E+02 -0.24961976466E+02  0.56077779287E+02  0.00000000000E+00 0. -1.
<mgrwt>
<rscale>  0 0.39168230E+03</rscale>
<asrwt>0</asrwt>
<pdfrwt beam="2">  1        1 0.12127995E+00 0.39168230E+03</pdfrwt>
<pdfrwt beam="1">  1       -1 0.74850064E-02 0.39168230E+03</pdfrwt>
<totfact> 0.22542393E+03</totfact>
</mgrwt>
</event>
<event>
 6    1  0.5674941E-006  0.2011847E+03  0.7546771E-02  0.1152771E+00
         -1   -1    0    0    0  501 -0.00000000000E+00  0.00000000000E+00  0.15551051215E+02  0.15551051215E+02  0.00000000000E+00 0.  1.
          1   -1    0    0  501    0  0.00000000000E+00 -0.00000000000E+00 -0.23868367940E+04  0.23868367940E+04  0.00000000000E+00 0. -1.
          5    1    1    2  502    0 -0.10834640287E+03 -0.74289193690E+02 -0.10946106599E+04  0.11024755843E+04  0.47000000000E+01 0. -1.
         -5    1    1    2    0  502 -0.45171402934E+02  0.38475728640E+02 -0.24320642751E+03  0.25038429208E+03  0.47000000000E+01 0. -1.
        -11    1    1    2    0    0  0.34231735997E+02  0.52232552095E+02 -0.34309172208E+03  0.34872909401E+03  0.00000000000E+00 0.  1.
         11    1    1    2    0    0  0.11928606981E+03 -0.16419087045E+02 -0.69037693328E+03  0.70079887476E+03  0.00000000000E+00 0. -1.
<mgrwt>
<rscale>  0 0.19644825E+03</rscale>
<asrwt>0</asrwt>
<pdfrwt beam="2">  1        1 0.36720531E+00 0.20118471E+03</pdfrwt>
<pdfrwt beam="1">  1       -1 0.23924717E-02 0.20118471E+03</pdfrwt>
<totfact> 0.10005170E+03</totfact>
</mgrwt>
</event>
<event>
 6    1  0.4705246E-006  0.1457485E+03  0.7546771E-02  0.1215833E+00
         -1   -1    0    0    0  501 -0.00000000000E+00  0.00000000000E+00  0.79832366011E+02  0.79832366011E+02  0.00000000000E+00 0. -1.
          1   -1    0    0  501    0  0.00000000000E+00 -0.00000000000E+00 -0.38685028877E+03  0.38685028877E+03  0.00000000000E+00 0.  1.
          5    1    1    2  502    0  0.69317007947E+02  0.14361005884E+02 -0.25451493287E+03  0.26421776461E+03  0.47000000000E+01 0. -1.
         -5    1    1    2    0  502 -0.72809720491E+01 -0.56415154803E+02 -0.62173355635E+02  0.84399635049E+02  0.47000000000E+01 0. -1.
        -11    1    1    2    0    0 -0.57706367781E+01 -0.17343486864E+02  0.28736418783E+02  0.34056989736E+02  0.00000000000E+00 0. -1.
         11    1    1    2    0    0 -0.56265399120E+02  0.59397635782E+02 -0.19066053033E+02  0.84008265385E+02  0.00000000000E+00 0.  1.
<mgrwt>
<rscale>  0 0.13815548E+03</rscale>
<asrwt>0</asrwt>
<pdfrwt beam="2">  1        1 0.59515427E-01 0.14574848E+03</pdfrwt>
<pdfrwt beam="1">  1       -1 0.12281903E-01 0.14574848E+03</pdfrwt>
<totfact> 0.27273334E+03</totfact>
</mgrwt>
</event>
<event>
 6    1  0.4705246E-006  0.1260323E+03  0.7546771E-02  0.1261434E+00
         -1   -1    0    0    0  501 -0.00000000000E+00  0.00000000000E+00  0.10049499810E+03  0.10049499810E+03  0.00000000000E+00 0.  1.
          1   -1    0    0  501    0  0.00000000000E+00 -0.00000000000E+00 -0.17550705246E+03  0.17550705246E+03  0.00000000000E+00 0. -1.
          5    1    1    2  502    0  0.25647191082E+02 -0.36459145730E+02 -0.94473351276E+01  0.45808185499E+02  0.47000000000E+01 0.  1.
         -5    1    1    2    0  502 -0.29363114533E+02  0.52164452918E+02 -0.12384661977E+03  0.13763501688E+03  0.47000000000E+01 0.  1.
        -11    1    1    2    0    0 -0.15203111763E+02  0.57273658513E+01 -0.96224114819E+01  0.18881952484E+02  0.00000000000E+00 0. -1.
         11    1    1    2    0    0  0.18919035214E+02 -0.21432673039E+02  0.67904312027E+02  0.73676895693E+02  0.00000000000E+00 0.  1.
<mgrwt>
<rscale>  0 0.10953462E+03</rscale>
<asrwt>0</asrwt>
<pdfrwt beam="2">  1        1 0.27001085E-01 0.12603226E+03</pdfrwt>
<pdfrwt beam="1">  1       -1 0.15460769E-01 0.12603226E+03</pdfrwt>
<totfact> 0.50471368E+03</totfact>
</mgrwt>
</event>
<event>
 6    1  0.4705246E-006  0.2894803E+03  0.7546771E-02  0.1096499E+00
         -2   -1    0    0    0  501 -0.00000000000E+00  0.00000000000E+00  0.31224423161E+03  0.31224423161E+03  0.00000000000E+00 0.  1.
          2   -1    0    0  501    0  0.00000000000E+00 -0.00000000000E+00 -0.26361832970E+03  0.26361832970E+03  0.00000000000E+00 0. -1.
          5    1    1    2  502    0 -0.34301525932E+02  0.15867331269E+03 -0.25950876540E+02  0.16446687458E+03  0.47000000000E+01 0. -1.
         -5    1    1    2    0  502 -0.12478854024E+03  0.11154150756E+02 -0.48553164785E+02  0.13444736763E+03  0.47000000000E+01 0.  1.
        -11    1    1    2    0    0  0.13197936465E+03 -0.13447451974E+03  0.13385313019E+03  0.23112466249E+03  0.00000000000E+00 0.  1.
         11    1    1    2    0    0  0.27110701513E+02 -0.35352943710E+02 -0.10723186958E+02  0.45823656599E+02  0.00000000000E+00 0. -1.
<mgrwt>
<rscale>  0 0.27852133E+03</rscale>
<asrwt>0</asrwt>
<pdfrwt beam="2">  1        2 0.40556666E-01 0.28948035E+03</pdfrwt>
<pdfrwt beam="1">  1       -2 0.48037574E-01 0.28948035E+03</pdfrwt>
<totfact> 0.52588778E+02</totfact>
</mgrwt>
</event>
<event>
 6    1  0.4705246E-006  0.2435803E+03  0.7546771E-02  0.1120160E+00
          2   -1    0    0  501    0  0.00000000000E+00  0.00000000000E+00  0.65473750915E+03  0.65473750915E+03  0.00000000000E+00 0. -1.
         -2   -1    0    0    0  501 -0.00000000000E+00 -0.00000000000E+00 -0.93278585937E+02  0.93278585937E+02  0.00000000000E+00 0.  1.
          5    1    1    2  502    0 -0.10448285654E+03  0.19189945409E+03  0.34471453698E+03  0.40815716311E+03  0.47000000000E+01 0. -1.
         -5    1    1    2    0  502  0.22792459700E+02  0.54024095981E+00  0.57926824792E+02  0.62429120688E+02  0.47000000000E+01 0. -1.
        -11    1    1    2    0    0  0.59477333471E+01 -0.12768569160E+03  0.89208815760E+02  0.15587566899E+03  0.00000000000E+00 0. -1.
         11    1    1    2    0    0  0.75742663497E+02 -0.64754003444E+02  0.69608745676E+02  0.12155414230E+03  0.00000000000E+00 0.  1.
<mgrwt>
<rscale>  0 0.23944980E+03</rscale>
<asrwt>0</asrwt>
<pdfrwt beam="1">  1        2 0.10072884E+00 0.24358034E+03</pdfrwt>
<pdfrwt beam="2">  1       -2 0.14350552E-01 0.24358034E+03</pdfrwt>
<totfact> 0.16731104E+03</totfact>
</mgrwt>
</event>
<event>
 6    1  0.4705246E-006  0.1832934E+03  0.7546771E-02  0.1169962E+00
         -1   -1    0    0    0  501 -0.00000000000E+00  0.00000000000E+00  0.43111887125E+02  0.43111887125E+02  0.00000000000E+00 0.  1.
          1   -1    0    0  501    0  0.00000000000E+00 -0.00000000000E+00 -0.71433775262E+03  0.71433775262E+03  0.00000000000E+00 0. -1.
          5    1    1    2  502    0 -0.43883222671E+02 -0.88343547579E+02 -0.73887545191E+02  0.12333604082E+03  0.47000000000E+01 0. -1.
         -5    1    1    2    0  502  0.46694697003E+01 -0.39851257244E+02 -0.21522289599E+03  0.21898153258E+03  0.47000000000E+01 0. -1.
        -11    1    1    2    0    0  0.50313961978E+02  0.72074306603E+02 -0.13221465225E+03  0.15876685647E+03  0.00000000000E+00 0.  1.
         11    1    1    2    0    0 -0.11100209007E+02  0.56120498219E+02 -0.24990077206E+03  0.25636520988E+03  0.00000000000E+00 0. -1.
<mgrwt>
<rscale>  0 0.17778737E+03</rscale>
<asrwt>0</asrwt>
<pdfrwt beam="2">  1        1 0.10989812E+00 0.18329341E+03</pdfrwt>
<pdfrwt beam="1">  1       -1 0.66325980E-02 0.18329341E+03</pdfrwt>
<totfact> 0.30998280E+03</totfact>
</mgrwt>
</event>
<event>
 6    1  0.4705246E-006  0.1518659E+03  0.7546771E-02  0.1207037E+00
          2   -1    0    0  501    0  0.00000000000E+00  0.00000000000E+00  0.95341370786E+03  0.95341370786E+03  0.00000000000E+00 0. -1.
         -2   -1    0    0    0  501 -0.00000000000E+00 -0.00000000000E+00 -0.21403530038E+02  0.21403530038E+02  0.00000000000E+00 0.  1.
          5    1    1    2  502    0  0.13653004724E+02  0.20466863093E+02  0.26234957242E+02  0.36272027850E+02  0.47000000000E+01 0. -1.
         -5    1    1    2    0  502 -0.98814503686E+02 -0.68179807712E+01  0.59832811054E+03  0.60648941364E+03  0.47000000000E+01 0. -1.
        -11    1    1    2    0    0 -0.96368349674E+01  0.20718670576E+02  0.81226520538E+02  0.84379378626E+02  0.00000000000E+00 0. -1.
         11    1    1    2    0    0  0.94798333930E+02 -0.34367552898E+02  0.22622058950E+03  0.24767641778E+03  0.00000000000E+00 0.  1.
<mgrwt>
<rscale>  0 0.14478098E+03</rscale>
<asrwt>0</asrwt>
<pdfrwt beam="1">  1        2 0.14667900E+00 0.15186588E+03</pdfrwt>
<pdfrwt beam="2">  1       -2 0.32928515E-02 0.15186588E+03</pdfrwt>
<totfact> 0.10027331E+04</totfact>
</mgrwt>
</event>
<event>
 6    1  0.4705246E-006  0.2394644E+03  0.7546771E-02  0.1123292E+00
          1   -1    0    0  501    0  0.00000000000E+00  0.00000000000E+00  0.21515805204E+03  0.21515805204E+03  0.00000000000E+00 0. -1.
         -1   -1    0    0    0  501 -0.00000000000E+00 -0.00000000000E+00 -0.25224957440E+03  0.25224957440E+03  0.00000000000E+00 0.  1.
          5    1    1    2  502    0 -0.29570929579E+02 -0.15450097136E+00  0.52329022431E+02  0.60289968778E+02  0.47000000000E+01 0.  1.
         -5    1    1    2    0  502 -0.16855584972E+03 -0.49474916957E+02 -0.37303232519E+02  0.17964538134E+03  0.47000000000E+01 0.  1.
        -11    1    1    2    0    0  0.10427313982E+03  0.35203880315E+02  0.15165458609E+02  0.11109541850E+03  0.00000000000E+00 0. -1.
         11    1    1    2    0    0  0.93853639477E+02  0.14425537613E+02 -0.67282770876E+02  0.11637685782E+03  0.00000000000E+00 0.  1.
<mgrwt>
<rscale>  0 0.23482028E+03</rscale>
<asrwt>0</asrwt>
<pdfrwt beam="1">  1        1 0.33101239E-01 0.23946440E+03</pdfrwt>
<pdfrwt beam="2">  1       -1 0.38807627E-01 0.23946440E+03</pdfrwt>
<totfact> 0.87150477E+02</totfact>
</mgrwt>
</event>
<event>
 6    1  0.4705246E-006  0.1329869E+03  0.7546771E-02  0.1239580E+00
          1   -1    0    0  501    0  0.00000000000E+00  0.00000000000E+00  0.54306099223E+02  0.54306099223E+02  0.00000000000E+00 0. -1.
         -1   -1    0    0    0  501 -0.00000000000E+00 -0.00000000000E+00 -0.24201765307E+03  0.24201765307E+03  0.00000000000E+00 0.  1.
          5    1    1    2  502    0 -0.53617077439E+02 -0.16009827711E+02  0.28264947574E+01  0.56224413283E+02  0.47000000000E+01 0. -1.
         -5    1    1    2    0  502  0.43061888484E+02  0.15875602183E+02 -0.94916860782E+02  0.10553511949E+03  0.47000000000E+01 0.  1.
        -11    1    1    2    0    0  0.64495580666E+01  0.37852165053E+02 -0.87795239849E+02  0.95824774138E+02  0.00000000000E+00 0.  1.
         11    1    1    2    0    0  0.41056308886E+01 -0.37717939526E+02 -0.78259479741E+01  0.38739445385E+02  0.00000000000E+00 0. -1.
<mgrwt>
<rscale>  0 0.12215748E+03</rscale>
<asrwt>0</asrwt>
<pdfrwt beam="1">  1        1 0.83547845E-02 0.13298688E+03</pdfrwt>
<pdfrwt beam="2">  1       -1 0.37233485E-01 0.13298688E+03</pdfrwt>
<totfact> 0.54636052E+03</totfact>
</mgrwt>
</event>
<event>
 6    1  0.4705246E-006  0.1992026E+03  0.7546771E-02  0.1154641E+00
         -2   -1    0    0    0  501 -0.00000000000E+00  0.00000000000E+00  0.35449396827E+02  0.35449396827E+02  0.00000000000E+00 0.  1.
          2   -1    0    0  501    0  0.00000000000E+00 -0.00000000000E+00 -0.15762130031E+04  0.15762130031E+04  0.00000000000E+00 0. -1.
          5    1    1    2  502    0 -0.73848291504E+02 -0.13057079084E+03 -0.10448909815E+04  0.10556143021E+04  0.47000000000E+01 0. -1.
         -5    1    1    2    0  502 -0.39604478918E+02  0.24827276970E+02 -0.23038810783E+03  0.23512906809E+03  0.47000000000E+01 0. -1.
        -11    1    1    2    0    0  0.48944812571E+02 -0.37261731947E+01 -0.45798744939E+02  0.67134224373E+02  0.00000000000E+00 0.  1.
         11    1    1    2    0    0  0.64507957852E+02  0.10946968706E+03 -0.21968577202E+03  0.25378480538E+03  0.00000000000E+00 0. -1.
<mgrwt>
<rscale>  0 0.19429804E+03</rscale>
<asrwt>0</asrwt>
<pdfrwt beam="2">  1        2 0.24249428E+00 0.19920264E+03</pdfrwt>
<pdfrwt beam="1">  1       -2 0.54537540E-02 0.19920264E+03</pdfrwt>
<totfact> 0.21331613E+03</totfact>
</mgrwt>
</event>
<event>
 6    1  0.4705246E-006  0.2453122E+03  0.7546771E-02  0.1116304E+00
         -2   -1    0    0    0  501 -0.00000000000E+00  0.00000000000E+00  0.15699748978E+02  0.15699748978E+02  0.00000000000E+00 0.  1.
          2   -1    0    0  501    0  0.00000000000E+00 -0.00000000000E+00 -0.95826507471E+03  0.95826507471E+03  0.00000000000E+00 0. -1.
          5    1    1    2  502    0 -0.19598836098E+02  0.86897927268E+01 -0.19483778086E+02  0.29348500516E+02  0.47000000000E+01 0.  1.
         -5    1    1    2    0  502  0.51524992827E+02 -0.40143258676E+02 -0.64206598859E+03  0.64539687775E+03  0.47000000000E+01 0.  1.
        -11    1    1    2    0    0 -0.87614369751E+01  0.60807891532E+02 -0.21202802751E+03  0.22074928517E+03  0.00000000000E+00 0.  1.
         11    1    1    2    0    0 -0.23164719754E+02 -0.29354425582E+02 -0.68987531547E+02  0.78470160261E+02  0.00000000000E+00 0. -1.
<mgrwt>
<rscale>  0 0.24531222E+03</rscale>
<asrwt>0</asrwt>
<pdfrwt beam="2">  1        2 0.14742535E+00 0.24531222E+03</pdfrwt>
<pdfrwt beam="1">  1       -2 0.24153467E-02 0.24531222E+03</pdfrwt>
<totfact> 0.16164725E+04</totfact>
</mgrwt>
</event>
<event>
 6    1  0.4705246E-006  0.1286539E+03  0.7546771E-02  0.1244185E+00
         -2   -1    0    0    0  501 -0.00000000000E+00  0.00000000000E+00  0.24098007764E+02  0.24098007764E+02  0.00000000000E+00 0.  1.
          2   -1    0    0  501    0  0.00000000000E+00 -0.00000000000E+00 -0.58309008740E+03  0.58309008740E+03  0.00000000000E+00 0. -1.
          5    1    1    2  502    0  0.94019484092E+01  0.55041629090E+02 -0.39630386152E+03  0.40024594717E+03  0.47000000000E+01 0.  1.
         -5    1    1    2    0  502  0.47839993267E+01 -0.28102260851E+02 -0.19124246376E+02  0.34647518150E+02  0.47000000000E+01 0.  1.
        -11    1    1    2    0    0 -0.44388065429E+02  0.81484729259E+01 -0.95137112596E+02  0.10529847177E+03  0.00000000000E+00 0. -1.
         11    1    1    2    0    0  0.30202117693E+02 -0.35087841165E+02 -0.48426859142E+02  0.66996158077E+02  0.00000000000E+00 0.  1.
<mgrwt>
<rscale>  0 0.11934298E+03</rscale>
<asrwt>0</asrwt>
<pdfrwt beam="2">  1        2 0.89706157E-01 0.12865385E+03</pdfrwt>
<pdfrwt beam="1">  1       -2 0.37073862E-02 0.12865385E+03</pdfrwt>
<totfact> 0.15175930E+04</totfact>
</mgrwt>
</event>
<event>
 6    1  0.4705246E-006  0.1592878E+03  0.7546771E-02  0.1197130E+00
         -2   -1    0    0    0  501 -0.00000000000E+00  0.00000000000E+00  0.37179268699E+02  0.37179268699E+02  0.00000000000E+00 0.  1.
          2   -1    0    0  501    0  0.00000000000E+00 -0.00000000000E+00 -0.67947836015E+03  0.67947836015E+03  0.00000000000E+00 0. -1.
          5    1    1    2  502    0 -0.16030505857E+02 -0.87963346639E+02 -0.40942344706E+03  0.41909924418E+03  0.47000000000E+01 0.  1.
         -5    1    1    2    0  502 -0.48290562937E+02  0.13064328860E+02 -0.70543712191E+02  0.86609240194E+02  0.47000000000E+01 0.  1.
        -11    1    1    2    0    0  0.43711761115E+02  0.71990166650E+02 -0.52682031961E+02  0.99341323958E+02  0.00000000000E+00 0.  1.
         11    1    1    2    0    0  0.20609307679E+02  0.29088511284E+01 -0.10964990023E+03  0.11160782051E+03  0.00000000000E+00 0. -1.
<mgrwt>
<rscale>  0 0.15275312E+03</rscale>
<asrwt>0</asrwt>
<pdfrwt beam="2">  1        2 0.10453513E+00 0.15928778E+03</pdfrwt>
<pdfrwt beam="1">  1       -2 0.57198879E-02 0.15928778E+03</pdfrwt>
<totfact> 0.67348189E+03</totfact>
</mgrwt>
</event>
<event>
 6    1  0.4705246E-006  0.1351161E+03  0.7546771E-02  0.1232230E+00
         -2   -1    0    0    0  501 -0.00000000000E+00  0.00000000000E+00  0.41310044781E+02  0.41310044781E+02  0.00000000000E+00 0.  1.
          2   -1    0    0  501    0  0.00000000000E+00 -0.00000000000E+00 -0.47827926903E+03  0.47827926903E+03  0.00000000000E+00 0. -1.
          5    1    1    2  502    0  0.32931722036E+01 -0.34328680596E+02 -0.20060224562E+02  0.40172203127E+02  0.47000000000E+01 0.  1.
         -5    1    1    2    0  502  0.46062935035E+02  0.20376526322E+02 -0.35292606513E+03  0.35653316011E+03  0.47000000000E+01 0.  1.
        -11    1    1    2    0    0 -0.28689490036E+02 -0.35091496138E+02 -0.50747456414E+02  0.68042665088E+02  0.00000000000E+00 0.  1.
         11    1    1    2    0    0 -0.20666617202E+02  0.49043650413E+02 -0.13235478145E+02  0.54841285489E+02  0.00000000000E+00 0. -1.
<mgrwt>
<rscale>  0 0.12683448E+03</rscale>
<asrwt>0</asrwt>
<pdfrwt beam="2">  1        2 0.73581424E-01 0.13511615E+03</pdfrwt>
<pdfrwt beam="1">  1       -2 0.63553917E-02 0.13511615E+03</pdfrwt>
<totfact> 0.84561548E+03</totfact>
</mgrwt>
</event>
<event>
 6    1  0.4705246E-006  0.1439965E+03  0.7546771E-02  0.1225429E+00
         -1   -1    0    0    0  501 -0.00000000000E+00  0.00000000000E+00  0.39755748441E+02  0.39755748441E+02  0.00000000000E+00 0.  1.
          1   -1    0    0  501    0  0.00000000000E+00 -0.00000000000E+00 -0.39497437828E+03  0.39497437828E+03  0.00000000000E+00 0. -1.
          5    1    1    2  502    0  0.27705241851E+01  0.36008592836E+02 -0.20075219464E+03  0.20402898866E+03  0.47000000000E+01 0.  1.
         -5    1    1    2    0  502  0.67418923485E+02 -0.22496094127E+02 -0.57035993135E+02  0.91250095933E+02  0.47000000000E+01 0.  1.
        -11    1    1    2    0    0  0.11514135153E+02 -0.67998380127E+01 -0.18013586481E+01  0.13492886952E+02  0.00000000000E+00 0.  1.
         11    1    1    2    0    0 -0.81703582822E+02 -0.67126606959E+01 -0.95629083414E+02  0.12595815517E+03  0.00000000000E+00 0. -1.
<mgrwt>
<rscale>  0 0.13137511E+03</rscale>
<asrwt>0</asrwt>
<pdfrwt beam="2">  1        1 0.60765289E-01 0.14399649E+03</pdfrwt>
<pdfrwt beam="1">  1       -1 0.61162690E-02 0.14399649E+03</pdfrwt>
<totfact> 0.76520154E+03</totfact>
</mgrwt>
</event>
<event>
 6    1  0.4705246E-006  0.1360909E+03  0.7546771E-02  0.1230500E+00
         -1   -1    0    0    0  501 -0.00000000000E+00  0.00000000000E+00  0.36068730253E+02  0.36068730253E+02  0.00000000000E+00 0.  1.
          1   -1    0    0  501    0  0.00000000000E+00 -0.00000000000E+00 -0.42167444089E+03  0.42167444089E+03  0.00000000000E+00 0. -1.
          5    1    1    2  502    0 -0.10086559036E+02  0.61882796376E+02 -0.45876088439E+02  0.77832670846E+02  0.47000000000E+01 0. -1.
         -5    1    1    2    0  502 -0.20880531491E+02 -0.17872954402E+02 -0.21129805395E+03  0.21312999952E+03  0.47000000000E+01 0. -1.
        -11    1    1    2    0    0  0.31547481957E+02  0.23208917743E+02 -0.48601155015E+02  0.62417703815E+02  0.00000000000E+00 0. -1.
         11    1    1    2    0    0 -0.58039143066E+00 -0.67218759717E+02 -0.79830413238E+02  0.10436279696E+03  0.00000000000E+00 0.  1.
<mgrwt>
<rscale>  0 0.12796988E+03</rscale>
<asrwt>0</asrwt>
<pdfrwt beam="2">  1        1 0.64872992E-01 0.13609091E+03</pdfrwt>
<pdfrwt beam="1">  1       -1 0.55490354E-02 0.13609091E+03</pdfrwt>
<totfact> 0.81130775E+03</totfact>
</mgrwt>
</event>
<event>
 6    1  0.4705246E-006  0.1276599E+03  0.7546771E-02  0.1243787E+00
         -2   -1    0    0    0  501 -0.00000000000E+00  0.00000000000E+00  0.30939539093E+02  0.30939539093E+02  0.00000000000E+00 0.  1.
          2   -1    0    0  501    0  0.00000000000E+00 -0.00000000000E+00 -0.42744671991E+03  0.42744671991E+03  0.00000000000E+00 0. -1.
          5    1    1    2  502    0  0.59310394446E+02  0.13850249413E+01 -0.21883506141E+03  0.22678296956E+03  0.47000000000E+01 0. -1.
         -5    1    1    2    0  502 -0.43730684144E+02 -0.22120493325E+02 -0.46757600242E+02  0.67897364758E+02  0.47000000000E+01 0. -1.
        -11    1    1    2    0    0 -0.38434834990E+02 -0.25883862541E+02 -0.63831281430E+02  0.78877394542E+02  0.00000000000E+00 0.  1.
         11    1    1    2    0    0  0.22855124688E+02  0.46619330924E+02 -0.67083237740E+02  0.84828530141E+02  0.00000000000E+00 0. -1.
<mgrwt>
<rscale>  0 0.11958277E+03</rscale>
<asrwt>0</asrwt>
<pdfrwt beam="2">  1        2 0.65761042E-01 0.12765985E+03</pdfrwt>
<pdfrwt beam="1">  1       -2 0.47599285E-02 0.12765985E+03</pdfrwt>
<totfact> 0.14703021E+04</totfact>
</mgrwt>
</event>
<event>
 6    1  0.4705246E-006  0.3659726E+03  0.7546771E-02  0.1065223E+00
          1   -1    0    0  501    0  0.00000000000E+00  0.00000000000E+00  0.12624493529E+04  0.12624493529E+04  0.00000000000E+00 0. -1.
         -1   -1    0    0    0  501 -0.00000000000E+00 -0.00000000000E+00 -0.84358406851E+02  0.84358406851E+02  0.00000000000E+00 0.  1.
          5    1    1    2  502    0 -0.17009016426E+03  0.13745506633E+01  0.65224336391E+03  0.67407421634E+03  0.47000000000E+01 0. -1.
         -5    1    1    2    0  502 -0.94277247906E+02 -0.60832000403E+02  0.61521804038E+02  0.12804590629E+03  0.47000000000E+01 0.  1.
        -11    1    1    2    0    0  0.74171710251E+02 -0.22406293055E+02  0.13587653223E+03  0.15641584505E+03  0.00000000000E+00 0.  1.
         11    1    1    2    0    0  0.19019570192E+03  0.81863742795E+02  0.32844924589E+03  0.38827179210E+03  0.00000000000E+00 0. -1.
<mgrwt>
<rscale>  0 0.34372002E+03</rscale>
<asrwt>0</asrwt>
<pdfrwt beam="1">  1        1 0.19422296E+00 0.36597264E+03</pdfrwt>
<pdfrwt beam="2">  1       -1 0.12978217E-01 0.36597264E+03</pdfrwt>
<totfact> 0.41667191E+02</totfact>
</mgrwt>
</event>
<event>
 6    1  0.4705246E-006  0.2524618E+03  0.7546771E-02  0.1150043E+00
         -2   -1    0    0    0  501 -0.00000000000E+00  0.00000000000E+00  0.12753774948E+03  0.12753774948E+03  0.00000000000E+00 0.  1.
          2   -1    0    0  501    0  0.00000000000E+00 -0.00000000000E+00 -0.83018176894E+03  0.83018176894E+03  0.00000000000E+00 0. -1.
          5    1    1    2  502    0  0.51383781184E+02  0.11213109603E+03 -0.67941879574E+03  0.69054012604E+03  0.47000000000E+01 0. -1.
         -5    1    1    2    0  502 -0.38112101331E+02 -0.73990242716E+02 -0.10843238480E+03  0.13677265940E+03  0.47000000000E+01 0.  1.
        -11    1    1    2    0    0 -0.20870407400E+02 -0.16569505176E+02  0.99787142869E+02  0.10328405631E+03  0.00000000000E+00 0.  1.
         11    1    1    2    0    0  0.75987275469E+01 -0.21571348141E+02 -0.14579981779E+02  0.27122676668E+02  0.00000000000E+00 0. -1.
<mgrwt>
<rscale>  0 0.19964027E+03</rscale>
<asrwt>0</asrwt>
<pdfrwt beam="2">  1        2 0.12772027E+00 0.25246180E+03</pdfrwt>
<pdfrwt beam="1">  1       -2 0.19621192E-01 0.25246180E+03</pdfrwt>
<totfact> 0.73770497E+02</totfact>
</mgrwt>
</event>
<event>
 6    1  0.4705246E-006  0.1190324E+03  0.7546771E-02  0.1255437E+00
          1   -1    0    0  501    0  0.00000000000E+00  0.00000000000E+00  0.50557295871E+03  0.50557295871E+03  0.00000000000E+00 0. -1.
         -1   -1    0    0    0  501 -0.00000000000E+00 -0.00000000000E+00 -0.22877148711E+02  0.22877148711E+02  0.00000000000E+00 0.  1.
          5    1    1    2  502    0 -0.21514994583E+02  0.25083509674E+02  0.19349501097E+03  0.19635296463E+03  0.47000000000E+01 0. -1.
         -5    1    1    2    0  502  0.51974770050E+02 -0.33307624892E+02  0.74354252879E+02  0.96754428937E+02  0.47000000000E+01 0.  1.
        -11    1    1    2    0    0 -0.14578534719E+02  0.44376108464E+02  0.16645968994E+03  0.17288898476E+03  0.00000000000E+00 0. -1.
         11    1    1    2    0    0 -0.15881240749E+02 -0.36151993246E+02  0.48386856206E+02  0.62453729087E+02  0.00000000000E+00 0.  1.
<mgrwt>
<rscale>  0 0.11281904E+03</rscale>
<asrwt>0</asrwt>
<pdfrwt beam="1">  1        1 0.77780447E-01 0.11903242E+03</pdfrwt>
<pdfrwt beam="2">  1       -1 0.35195617E-02 0.11903242E+03</pdfrwt>
<totfact> 0.12434011E+04</totfact>
</mgrwt>
</event>
<event>
 6    1  0.4705246E-006  0.1740879E+03  0.7546771E-02  0.1179344E+00
          4   -1    0    0  501    0  0.00000000000E+00  0.00000000000E+00  0.87954955846E+02  0.87954955846E+02  0.00000000000E+00 0. -1.
         -4   -1    0    0    0  501 -0.00000000000E+00 -0.00000000000E+00 -0.35909623441E+03  0.35909623441E+03  0.00000000000E+00 0.  1.
          5    1    1    2  502    0  0.53947349526E+02  0.10936436720E+03 -0.61385274219E+02  0.13660572179E+03  0.47000000000E+01 0.  1.
         -5    1    1    2    0  502  0.35910456775E+02 -0.28080684222E+02  0.56778311864E+01  0.46178062964E+02  0.47000000000E+01 0.  1.
        -11    1    1    2    0    0 -0.62327268980E+02 -0.99829656890E+02 -0.18482826108E+03  0.21911671535E+03  0.00000000000E+00 0.  1.
         11    1    1    2    0    0 -0.27530537321E+02  0.18545973912E+02 -0.30605574446E+02  0.45150690147E+02  0.00000000000E+00 0. -1.
<mgrwt>
<rscale>  0 0.16857283E+03</rscale>
<asrwt>0</asrwt>
<pdfrwt beam="1">  1        4 0.13531532E-01 0.17408789E+03</pdfrwt>
<pdfrwt beam="2">  1       -4 0.55245574E-01 0.17408789E+03</pdfrwt>
<totfact> 0.24781775E+02</totfact>
</mgrwt>
</event>
<event>
 6    1  0.4705246E-006  0.1461073E+03  0.7546771E-02  0.1215559E+00
          1   -1    0    0  501    0  0.00000000000E+00  0.00000000000E+00  0.46387731130E+02  0.46387731130E+02  0.00000000000E+00 0. -1.
         -1   -1    0    0    0  501 -0.00000000000E+00 -0.00000000000E+00 -0.38584946851E+03  0.38584946851E+03  0.00000000000E+00 0.  1.
          5    1    1    2  502    0  0.57442531488E+01  0.82793480437E+02 -0.15615942678E+03  0.17690566249E+03  0.47000000000E+01 0. -1.
         -5    1    1    2    0  502  0.28333635322E+02 -0.15260175962E+02  0.54771857982E+01  0.32981167736E+02  0.47000000000E+01 0. -1.
        -11    1    1    2    0    0 -0.37870899477E+02 -0.47985989900E+02 -0.19260603402E+03  0.20207410669E+03  0.00000000000E+00 0.  1.
         11    1    1    2    0    0  0.37930110057E+01 -0.19547314575E+02  0.38265376315E+01  0.20276262718E+02  0.00000000000E+00 0. -1.
<mgrwt>
<rscale>  0 0.13835557E+03</rscale>
<asrwt>0</asrwt>
<pdfrwt beam="1">  1        1 0.71365737E-02 0.14610730E+03</pdfrwt>
<pdfrwt beam="2">  1       -1 0.59361459E-01 0.14610730E+03</pdfrwt>
<totfact> 0.29218898E+03</totfact>
</mgrwt>
</event>
<event>
 6    1  0.4705246E-006  0.2255343E+03  0.7546771E-02  0.1132856E+00
         -2   -1    0    0    0  501 -0.00000000000E+00  0.00000000000E+00  0.22799731025E+02  0.22799731025E+02  0.00000000000E+00 0.  1.
          2   -1    0    0  501    0  0.00000000000E+00 -0.00000000000E+00 -0.25775349850E+04  0.25775349850E+04  0.00000000000E+00 0. -1.
          5    1    1    2  502    0  0.14600203176E+03 -0.91266912174E+02 -0.14112058610E+04  0.14216786960E+04  0.47000000000E+01 0.  1.
         -5    1    1    2    0  502  0.34590657692E+02  0.40022163910E+02 -0.47863677235E+03  0.48157402033E+03  0.47000000000E+01 0.  1.
        -11    1    1    2    0    0 -0.94490869445E+02  0.17486379230E+02 -0.48905274672E+03  0.49840434081E+03  0.00000000000E+00 0. -1.
         11    1    1    2    0    0 -0.86101820010E+02  0.33758369033E+02 -0.17583987394E+03  0.19867765892E+03  0.00000000000E+00 0.  1.
<mgrwt>
<rscale>  0 0.22138320E+03</rscale>
<asrwt>0</asrwt>
<pdfrwt beam="2">  1        2 0.39654400E+00 0.22553431E+03</pdfrwt>
<pdfrwt beam="1">  1       -2 0.35076495E-02 0.22553431E+03</pdfrwt>
<totfact> 0.12259065E+03</totfact>
</mgrwt>
</event>
<event>
 6    1  0.4705246E-006  0.1251828E+03  0.7546771E-02  0.1250204E+00
         -1   -1    0    0    0  501 -0.00000000000E+00  0.00000000000E+00  0.34884731454E+03  0.34884731454E+03  0.00000000000E+00 0.  1.
          1   -1    0    0  501    0  0.00000000000E+00 -0.00000000000E+00 -0.35312479095E+02  0.35312479095E+02  0.00000000000E+00 0. -1.
          5    1    1    2  502    0  0.44880689052E+02 -0.33150891260E+01  0.13406499755E+03  0.14149480427E+03  0.47000000000E+01 0. -1.
         -5    1    1    2    0  502 -0.44080693725E+02  0.99837965485E+01  0.51595563873E+01  0.45732863183E+02  0.47000000000E+01 0. -1.
        -11    1    1    2    0    0 -0.59842979740E+01  0.42131130502E+02  0.82619933103E+02  0.92934909079E+02  0.00000000000E+00 0.  1.
         11    1    1    2    0    0  0.51843026471E+01 -0.48799837925E+02  0.91690348399E+02  0.10399721710E+03  0.00000000000E+00 0. -1.
<mgrwt>
<rscale>  0 0.11579281E+03</rscale>
<asrwt>0</asrwt>
<pdfrwt beam="2">  1        1 0.54326893E-02 0.12518276E+03</pdfrwt>
<pdfrwt beam="1">  1       -1 0.53668815E-01 0.12518276E+03</pdfrwt>
<totfact> 0.50596829E+03</totfact>
</mgrwt>
</event>
<event>
 6    1  0.4705246E-006  0.2128665E+03  0.7546771E-02  0.1142985E+00
         -1   -1    0    0    0  501 -0.00000000000E+00  0.00000000000E+00  0.27843359084E+03  0.27843359084E+03  0.00000000000E+00 0.  1.
          1   -1    0    0  501    0  0.00000000000E+00 -0.00000000000E+00 -0.15410479248E+03  0.15410479248E+03  0.00000000000E+00 0. -1.
          5    1    1    2  502    0  0.20402773046E+01 -0.67093747798E+02 -0.18069976880E+02  0.69673149702E+02  0.47000000000E+01 0.  1.
         -5    1    1    2    0  502 -0.12823070172E+03 -0.50224898647E+02  0.44633492978E+02  0.14484437167E+03  0.47000000000E+01 0.  1.
        -11    1    1    2    0    0  0.35300753781E+02  0.82313460541E+02  0.77716449363E+02  0.11858117686E+03  0.00000000000E+00 0.  1.
         11    1    1    2    0    0  0.90889670640E+02  0.35005185904E+02  0.20048832901E+02  0.99439685085E+02  0.00000000000E+00 0. -1.
<mgrwt>
<rscale>  0 0.20821776E+03</rscale>
<asrwt>0</asrwt>
<pdfrwt beam="2">  1        1 0.23708430E-01 0.21286650E+03</pdfrwt>
<pdfrwt beam="1">  1       -1 0.42835937E-01 0.21286650E+03</pdfrwt>
<totfact> 0.11138812E+03</totfact>
</mgrwt>
</event>
<event>
 6    1  0.4705246E-006  0.1212700E+03  0.7546771E-02  0.1251812E+00
         -1   -1    0    0    0  501 -0.00000000000E+00  0.00000000000E+00  0.34195785154E+02  0.34195785154E+02  0.00000000000E+00 0.  1.
          1   -1    0    0  501    0  0.00000000000E+00 -0.00000000000E+00 -0.43910432944E+03  0.43910432944E+03  0.00000000000E+00 0. -1.
          5    1    1    2  502    0  0.88553670445E+01  0.21285619248E+02 -0.32425707733E+03  0.32510957739E+03  0.47000000000E+01 0. -1.
         -5    1    1    2    0  502  0.31968864095E+01 -0.21785311265E+02 -0.15881377945E+01  0.22570601483E+02  0.47000000000E+01 0.  1.
        -11    1    1    2    0    0 -0.29818436928E+02  0.11056138570E+02  0.10664788039E+02  0.33542735202E+02  0.00000000000E+00 0.  1.
         11    1    1    2    0    0  0.17766183474E+02 -0.10556446553E+02 -0.89728117202E+02  0.92077200520E+02  0.00000000000E+00 0. -1.
<mgrwt>
<rscale>  0 0.11486769E+03</rscale>
<asrwt>0</asrwt>
<pdfrwt beam="2">  1        1 0.67554504E-01 0.12126996E+03</pdfrwt>
<pdfrwt beam="1">  1       -1 0.52608907E-02 0.12126996E+03</pdfrwt>
<totfact> 0.82743085E+03</totfact>
</mgrwt>
</event>
<event>
 6    1  0.4705246E-006  0.1879536E+03  0.7546771E-02  0.1183496E+00
          1   -1    0    0  501    0  0.00000000000E+00  0.00000000000E+00  0.14780755316E+04  0.14780755316E+04  0.00000000000E+00 0. -1.
         -1   -1    0    0    0  501 -0.00000000000E+00 -0.00000000000E+00 -0.32338201698E+02  0.32338201698E+02  0.00000000000E+00 0.  1.
          5    1    1    2  502    0  0.10186912439E+03 -0.10307424250E+02  0.11203631992E+04  0.11250419324E+04  0.47000000000E+01 0. -1.
         -5    1    1    2    0  502 -0.50662735148E+02  0.36687776119E+02  0.23242843277E+03  0.24074420452E+03  0.47000000000E+01 0.  1.
        -11    1    1    2    0    0 -0.26652675691E+02 -0.61735279082E+02  0.63399284430E+02  0.92417958596E+02  0.00000000000E+00 0. -1.
         11    1    1    2    0    0 -0.24553713556E+02  0.35354927212E+02  0.29546413486E+02  0.52209637783E+02  0.00000000000E+00 0.  1.
<mgrwt>
<rscale>  0 0.16469487E+03</rscale>
<asrwt>0</asrwt>
<pdfrwt beam="1">  1        1 0.22739618E+00 0.18795364E+03</pdfrwt>
<pdfrwt beam="2">  1       -1 0.49751091E-02 0.18795364E+03</pdfrwt>
<totfact> 0.13172874E+03</totfact>
</mgrwt>
</event>
<event>
 6    1  0.4705246E-006  0.1392160E+03  0.7546771E-02  0.1226092E+00
         -1   -1    0    0    0  501 -0.00000000000E+00  0.00000000000E+00  0.24910592184E+02  0.24910592184E+02  0.00000000000E+00 0.  1.
          1   -1    0    0  501    0  0.00000000000E+00 -0.00000000000E+00 -0.66711512349E+03  0.66711512349E+03  0.00000000000E+00 0. -1.
          5    1    1    2  502    0 -0.23498676817E+02 -0.29418764129E+02 -0.33061212218E+02  0.50326784602E+02  0.47000000000E+01 0. -1.
         -5    1    1    2    0  502 -0.36469946017E+02  0.42254437478E+02 -0.41781180924E+03  0.42154986940E+03  0.47000000000E+01 0. -1.
        -11    1    1    2    0    0  0.17554327755E+02  0.37967013441E+02 -0.88090936858E+02  0.97517494272E+02  0.00000000000E+00 0. -1.
         11    1    1    2    0    0  0.42414295079E+02 -0.50802686789E+02 -0.10324057299E+03  0.12263156740E+03  0.00000000000E+00 0.  1.
<mgrwt>
<rscale>  0 0.13092352E+03</rscale>
<asrwt>0</asrwt>
<pdfrwt beam="2">  1        1 0.10263309E+00 0.13921600E+03</pdfrwt>
<pdfrwt beam="1">  1       -1 0.38323988E-02 0.13921600E+03</pdfrwt>
<totfact> 0.76340644E+03</totfact>
</mgrwt>
</event>
<event>
 6    1  0.4705246E-006  0.3924209E+03  0.7546771E-02  0.1046436E+00
          2   -1    0    0  501    0  0.00000000000E+00  0.00000000000E+00  0.12489826764E+04  0.12489826764E+04  0.00000000000E+00 0. -1.
         -2   -1    0    0    0  501 -0.00000000000E+00 -0.00000000000E+00 -0.30823926177E+02  0.30823926177E+02  0.00000000000E+00 0.  1.
          5    1    1    2  502    0  0.11724587913E+03  0.12460435946E+03  0.56391161047E+03  0.58931420906E+03  0.47000000000E+01 0. -1.
         -5    1    1    2    0  502  0.43623710372E-01 -0.14755835459E+02  0.22198312575E+03  0.22252266109E+03  0.47000000000E+01 0. -1.
        -11    1    1    2    0    0 -0.35131791176E+02  0.29972511799E+01  0.51388004224E+02  0.62321370684E+02  0.00000000000E+00 0.  1.
         11    1    1    2    0    0 -0.82157711660E+02 -0.11284577518E+03  0.38087600979E+03  0.40564836175E+03  0.00000000000E+00 0. -1.
<mgrwt>
<rscale>  0 0.39242095E+03</rscale>
<asrwt>0</asrwt>
<pdfrwt beam="1">  1        2 0.19215114E+00 0.39242095E+03</pdfrwt>
<pdfrwt beam="2">  1       -2 0.47421435E-02 0.39242095E+03</pdfrwt>
<totfact> 0.39911674E+03</totfact>
</mgrwt>
</event>
<event>
 6    1  0.4705246E-006  0.1273151E+03  0.7546771E-02  0.1246746E+00
         -2   -1    0    0    0  501 -0.00000000000E+00  0.00000000000E+00  0.12519053390E+03  0.12519053390E+03  0.00000000000E+00 0. -1.
          2   -1    0    0  501    0  0.00000000000E+00 -0.00000000000E+00 -0.99849077921E+02  0.99849077921E+02  0.00000000000E+00 0.  1.
          5    1    1    2  502    0 -0.37766121672E+02  0.36830891600E+02 -0.28710153758E+02  0.60242488752E+02  0.47000000000E+01 0. -1.
         -5    1    1    2    0  502  0.57556345154E+02 -0.22991813108E+02  0.25324564779E+02  0.67117657280E+02  0.47000000000E+01 0. -1.
        -11    1    1    2    0    0 -0.50671366260E+02 -0.26529366774E+02  0.29349399123E+02  0.64286716271E+02  0.00000000000E+00 0. -1.
         11    1    1    2    0    0  0.30881142778E+02  0.12690288281E+02 -0.62235416221E+00  0.33392749522E+02  0.00000000000E+00 0.  1.
<mgrwt>
<rscale>  0 0.11781482E+03</rscale>
<asrwt>0</asrwt>
<pdfrwt beam="2">  1        2 0.15361397E-01 0.12731514E+03</pdfrwt>
<pdfrwt beam="1">  1       -2 0.19260082E-01 0.12731514E+03</pdfrwt>
<totfact> 0.79779615E+03</totfact>
</mgrwt>
</event>
<event>
 6    1  0.4705246E-006  0.1362436E+03  0.7546771E-02  0.1230268E+00
          3   -1    0    0  501    0  0.00000000000E+00  0.00000000000E+00  0.59562746777E+02  0.59562746777E+02  0.00000000000E+00 0.  1.
         -3   -1    0    0    0  501 -0.00000000000E+00 -0.00000000000E+00 -0.24763000186E+03  0.24763000186E+03  0.00000000000E+00 0. -1.
          5    1    1    2  502    0 -0.17590610892E+02  0.32752617941E+02 -0.56873356525E+02  0.68108973388E+02  0.47000000000E+01 0.  1.
         -5    1    1    2    0  502  0.47076471110E+02 -0.78224835187E+02 -0.44269248587E+02  0.10157349725E+03  0.47000000000E+01 0.  1.
        -11    1    1    2    0    0  0.12629875746E+02  0.25570624892E+02  0.97976480515E+01  0.30155671540E+02  0.00000000000E+00 0.  1.
         11    1    1    2    0    0 -0.42115735964E+02  0.19901592354E+02 -0.96722298018E+02  0.10735460646E+03  0.00000000000E+00 0. -1.
<mgrwt>
<rscale>  0 0.12812290E+03</rscale>
<asrwt>0</asrwt>
<pdfrwt beam="1">  1        3 0.91634996E-02 0.13624358E+03</pdfrwt>
<pdfrwt beam="2">  1       -3 0.38096923E-01 0.13624358E+03</pdfrwt>
<totfact> 0.13400627E+03</totfact>
</mgrwt>
</event>
<event>
 6    1  0.4705246E-006  0.1224127E+03  0.7546771E-02  0.1245443E+00
         -3   -1    0    0    0  501 -0.00000000000E+00  0.00000000000E+00  0.27546333432E+03  0.27546333432E+03  0.00000000000E+00 0.  1.
          3   -1    0    0  501    0  0.00000000000E+00 -0.00000000000E+00 -0.48883223922E+02  0.48883223922E+02  0.00000000000E+00 0. -1.
          5    1    1    2  502    0 -0.49332653186E+02 -0.91148708417E+01  0.17925828895E+02  0.53480995526E+02  0.47000000000E+01 0. -1.
         -5    1    1    2    0  502  0.57016979078E+02 -0.30496372439E+02  0.82036754372E+02  0.10456138725E+03  0.47000000000E+01 0.  1.
        -11    1    1    2    0    0 -0.80469568423E+00  0.64430543006E+02  0.39775336282E+02  0.75723310701E+02  0.00000000000E+00 0.  1.
         11    1    1    2    0    0 -0.68796302077E+01 -0.24819299725E+02  0.86842190845E+02  0.90580864764E+02  0.00000000000E+00 0. -1.
<mgrwt>
<rscale>  0 0.11858901E+03</rscale>
<asrwt>0</asrwt>
<pdfrwt beam="2">  1        3 0.75204961E-02 0.12241273E+03</pdfrwt>
<pdfrwt beam="1">  1       -3 0.42378974E-01 0.12241273E+03</pdfrwt>
<totfact> 0.14788245E+03</totfact>
</mgrwt>
</event>
<event>
 6    1  0.4705246E-006  0.1541801E+03  0.7546771E-02  0.1216352E+00
          1   -1    0    0  501    0  0.00000000000E+00  0.00000000000E+00  0.94588546388E+02  0.94588546388E+02  0.00000000000E+00 0. -1.
         -1   -1    0    0    0  501 -0.00000000000E+00 -0.00000000000E+00 -0.18604510474E+03  0.18604510474E+03  0.00000000000E+00 0.  1.
          5    1    1    2  502    0  0.24181582216E+02 -0.72507478582E+02 -0.13284978279E+02  0.77721708786E+02  0.47000000000E+01 0. -1.
         -5    1    1    2    0  502 -0.58410661445E+02  0.49927658499E+02  0.51245283639E+00  0.76986551173E+02  0.47000000000E+01 0.  1.
        -11    1    1    2    0    0  0.31968687536E+02  0.34928939579E+02 -0.94519941680E+02  0.10571682543E+03  0.00000000000E+00 0.  1.
         11    1    1    2    0    0  0.22603916926E+01 -0.12349119497E+02  0.15835908769E+02  0.20208565745E+02  0.00000000000E+00 0. -1.
<mgrwt>
<rscale>  0 0.13777718E+03</rscale>
<asrwt>0</asrwt>
<pdfrwt beam="1">  1        1 0.14552084E-01 0.15418012E+03</pdfrwt>
<pdfrwt beam="2">  1       -1 0.28622324E-01 0.15418012E+03</pdfrwt>
<totfact> 0.41470115E+03</totfact>
</mgrwt>
</event>
<event>
 6    1  0.4705246E-006  0.2746931E+03  0.7546771E-02  0.1098623E+00
         -2   -1    0    0    0  501 -0.00000000000E+00  0.00000000000E+00  0.22933254821E+02  0.22933254821E+02  0.00000000000E+00 0. -1.
          2   -1    0    0  501    0  0.00000000000E+00 -0.00000000000E+00 -0.82256429852E+03  0.82256429852E+03  0.00000000000E+00 0.  1.
          5    1    1    2  502    0 -0.10353668086E+03 -0.32904154428E+02 -0.36054958861E+03  0.37659079053E+03  0.47000000000E+01 0. -1.
         -5    1    1    2    0  502  0.37128204553E+02 -0.11891340456E+02 -0.15650403216E+03  0.16135522809E+03  0.47000000000E+01 0. -1.
        -11    1    1    2    0    0  0.21624451973E+02  0.38383756050E+02 -0.36102245029E+02  0.56958772352E+02  0.00000000000E+00 0. -1.
         11    1    1    2    0    0  0.44784024334E+02  0.64117388336E+01 -0.24647517790E+03  0.25059276237E+03  0.00000000000E+00 0.  1.
<mgrwt>
<rscale>  0 0.27469311E+03</rscale>
<asrwt>0</asrwt>
<pdfrwt beam="2">  1        2 0.12654835E+00 0.27469311E+03</pdfrwt>
<pdfrwt beam="1">  1       -2 0.35281931E-02 0.27469311E+03</pdfrwt>
<totfact> 0.11327697E+04</totfact>
</mgrwt>
</event>
<event>
 6    1  0.4705246E-006  0.1276193E+03  0.7546771E-02  0.1231150E+00
          2   -1    0    0  501    0  0.00000000000E+00  0.00000000000E+00  0.76193361450E+02  0.76193361450E+02  0.00000000000E+00 0. -1.
         -2   -1    0    0    0  501 -0.00000000000E+00 -0.00000000000E+00 -0.39221826127E+03  0.39221826127E+03  0.00000000000E+00 0.  1.
          5    1    1    2  502    0 -0.27349287341E+02 -0.68824830215E+02 -0.31046102613E+02  0.80441228606E+02  0.47000000000E+01 0. -1.
         -5    1    1    2    0  502 -0.17802812119E+02  0.29576003884E+02  0.31350334557E+02  0.46868044571E+02  0.47000000000E+01 0.  1.
        -11    1    1    2    0    0 -0.19413817795E+02 -0.25173463501E+02 -0.12743938370E+03  0.13134457014E+03  0.00000000000E+00 0.  1.
         11    1    1    2    0    0  0.64565917255E+02  0.64422289833E+02 -0.18888974806E+03  0.20975777940E+03  0.00000000000E+00 0. -1.
<mgrwt>
<rscale>  0 0.12754165E+03</rscale>
<asrwt>0</asrwt>
<pdfrwt beam="1">  1        2 0.11722056E-01 0.12761933E+03</pdfrwt>
<pdfrwt beam="2">  1       -2 0.60341271E-01 0.12761933E+03</pdfrwt>
<totfact> 0.13345099E+03</totfact>
</mgrwt>
</event>
<event>
 6    1  0.4705246E-006  0.1328524E+03  0.7546771E-02  0.1236045E+00
          2   -1    0    0  501    0  0.00000000000E+00  0.00000000000E+00  0.36674065107E+03  0.36674065107E+03  0.00000000000E+00 0. -1.
         -2   -1    0    0    0  501 -0.00000000000E+00 -0.00000000000E+00 -0.46694468031E+02  0.46694468031E+02  0.00000000000E+00 0.  1.
          5    1    1    2  502    0  0.27798439426E+01 -0.42431341821E+02  0.61793410956E+02  0.75157580713E+02  0.47000000000E+01 0. -1.
         -5    1    1    2    0  502 -0.11768166504E+02  0.86513146721E+02  0.20563179888E+03  0.22344919111E+03  0.47000000000E+01 0. -1.
        -11    1    1    2    0    0  0.64063698884E+00  0.14505404578E+02 -0.17717157124E+02  0.22906654803E+02  0.00000000000E+00 0.  1.
         11    1    1    2    0    0  0.83476855725E+01 -0.58587209478E+02  0.70338130329E+02  0.91921692472E+02  0.00000000000E+00 0. -1.
<mgrwt>
<rscale>  0 0.12437776E+03</rscale>
<asrwt>0</asrwt>
<pdfrwt beam="1">  1        2 0.56421637E-01 0.13285240E+03</pdfrwt>
<pdfrwt beam="2">  1       -2 0.71837646E-02 0.13285240E+03</pdfrwt>
<totfact> 0.93174259E+03</totfact>
</mgrwt>
</event>
<event>
 6    1  0.4705246E-006  0.1256692E+03  0.7546771E-02  0.1250125E+00
          3   -1    0    0  501    0  0.00000000000E+00  0.00000000000E+00  0.31504107301E+02  0.31504107301E+02  0.00000000000E+00 0. -1.
         -3   -1    0    0    0  501 -0.00000000000E+00 -0.00000000000E+00 -0.37362400374E+03  0.37362400374E+03  0.00000000000E+00 0.  1.
          5    1    1    2  502    0  0.23435203401E+02  0.61772037666E+02 -0.10544751795E+03  0.12452414399E+03  0.47000000000E+01 0.  1.
         -5    1    1    2    0  502 -0.30062235068E+02 -0.50640695230E+02 -0.78311037689E+02  0.98096516832E+02  0.47000000000E+01 0.  1.
        -11    1    1    2    0    0 -0.25977906702E+02  0.27967827622E+02 -0.85373766260E+02  0.93518613035E+02  0.00000000000E+00 0. -1.
         11    1    1    2    0    0  0.32604938369E+02 -0.39099170058E+02 -0.72987574537E+02  0.88988837177E+02  0.00000000000E+00 0.  1.
<mgrwt>
<rscale>  0 0.11583798E+03</rscale>
<asrwt>0</asrwt>
<pdfrwt beam="1">  1        3 0.48467857E-02 0.12566922E+03</pdfrwt>
<pdfrwt beam="2">  1       -3 0.57480617E-01 0.12566922E+03</pdfrwt>
<totfact> 0.16335981E+03</totfact>
</mgrwt>
</event>
<event>
 6    1  0.4705246E-006  0.1928671E+03  0.7546771E-02  0.1183208E+00
         -2   -1    0    0    0  501 -0.00000000000E+00  0.00000000000E+00  0.34697937634E+02  0.34697937634E+02  0.00000000000E+00 0.  1.
          2   -1    0    0  501    0  0.00000000000E+00 -0.00000000000E+00 -0.14961069424E+04  0.14961069424E+04  0.00000000000E+00 0. -1.
          5    1    1    2  502    0  0.10790243704E+03 -0.46264969002E+02 -0.10305391931E+04  0.10372157450E+04  0.47000000000E+01 0. -1.
         -5    1    1    2    0  502 -0.59050005249E+02  0.36570697963E+02 -0.36401980166E+03  0.37061681703E+03  0.47000000000E+01 0.  1.
        -11    1    1    2    0    0 -0.42396400493E+02  0.47113447964E+02 -0.30237032585E+02  0.70223997987E+02  0.00000000000E+00 0.  1.
         11    1    1    2    0    0 -0.64560313006E+01 -0.37419176924E+02 -0.36612977406E+02  0.52748319939E+02  0.00000000000E+00 0. -1.
<mgrwt>
<rscale>  0 0.16496014E+03</rscale>
<asrwt>0</asrwt>
<pdfrwt beam="2">  1        2 0.23017031E+00 0.19286714E+03</pdfrwt>
<pdfrwt beam="1">  1       -2 0.53381440E-02 0.19286714E+03</pdfrwt>
<totfact> 0.24289289E+03</totfact>
</mgrwt>
</event>
<event>
 6    1  0.4705246E-006  0.1336421E+03  0.7546771E-02  0.1235060E+00
          4   -1    0    0  501    0  0.00000000000E+00  0.00000000000E+00  0.29615884144E+03  0.29615884144E+03  0.00000000000E+00 0. -1.
         -4   -1    0    0    0  501 -0.00000000000E+00 -0.00000000000E+00 -0.48023247084E+02  0.48023247084E+02  0.00000000000E+00 0.  1.
          5    1    1    2  502    0 -0.40826638615E+02  0.27444061125E+01  0.91145135067E+02  0.10001935729E+03  0.47000000000E+01 0.  1.
         -5    1    1    2    0  502  0.81989640676E+02  0.20492929967E+02  0.74025730686E+02  0.11244625454E+03  0.47000000000E+01 0.  1.
        -11    1    1    2    0    0 -0.45580281532E+01  0.21260826742E+02 -0.87217165978E+01  0.23427904618E+02  0.00000000000E+00 0.  1.
         11    1    1    2    0    0 -0.36604973908E+02 -0.44498162821E+02  0.91686445201E+02  0.10828857208E+03  0.00000000000E+00 0. -1.
<mgrwt>
<rscale>  0 0.12500592E+03</rscale>
<asrwt>0</asrwt>
<pdfrwt beam="1">  1        4 0.45562898E-01 0.13364214E+03</pdfrwt>
<pdfrwt beam="2">  1       -4 0.73881920E-02 0.13364214E+03</pdfrwt>
<totfact> 0.97288614E+02</totfact>
</mgrwt>
</event>
<event>
 6    1  0.4705246E-006  0.1320980E+03  0.7546771E-02  0.1235824E+00
         -1   -1    0    0    0  501 -0.00000000000E+00  0.00000000000E+00  0.59294414589E+02  0.59294414589E+02  0.00000000000E+00 0.  1.
          1   -1    0    0  501    0  0.00000000000E+00 -0.00000000000E+00 -0.25558800211E+03  0.25558800211E+03  0.00000000000E+00 0. -1.
          5    1    1    2  502    0  0.31905088728E+02 -0.63912475420E+01 -0.13109050672E+03  0.13515026335E+03  0.47000000000E+01 0. -1.
         -5    1    1    2    0  502 -0.40351673828E+02  0.48268909434E+02 -0.21445182000E+02  0.66634308203E+02  0.47000000000E+01 0. -1.
        -11    1    1    2    0    0 -0.17613047615E+02  0.23180384879E+02  0.23501382979E+01  0.29207410694E+02  0.00000000000E+00 0. -1.
         11    1    1    2    0    0  0.26059632715E+02 -0.65058046771E+02 -0.46108037095E+02  0.83890434447E+02  0.00000000000E+00 0.  1.
<mgrwt>
<rscale>  0 0.12451814E+03</rscale>
<asrwt>0</asrwt>
<pdfrwt beam="2">  1        1 0.39321231E-01 0.13209798E+03</pdfrwt>
<pdfrwt beam="1">  1       -1 0.91222176E-02 0.13209798E+03</pdfrwt>
<totfact> 0.71636439E+03</totfact>
</mgrwt>
</event>
<event>
 6    1  0.4705246E-006  0.2758649E+03  0.7546771E-02  0.1097969E+00
          2   -1    0    0  501    0  0.00000000000E+00  0.00000000000E+00  0.45226307019E+02  0.45226307019E+02  0.00000000000E+00 0. -1.
         -2   -1    0    0    0  501 -0.00000000000E+00 -0.00000000000E+00 -0.42067007780E+03  0.42067007780E+03  0.00000000000E+00 0.  1.
          5    1    1    2  502    0  0.51702326376E+02 -0.63630149918E+02 -0.21451954610E+03  0.22970122375E+03  0.47000000000E+01 0. -1.
         -5    1    1    2    0  502 -0.60773789125E-01 -0.48684078378E+01  0.17577555558E+02  0.18835220936E+02  0.47000000000E+01 0. -1.
        -11    1    1    2    0    0 -0.51837937990E+02  0.80709376796E+02 -0.18104414172E+03  0.20488571587E+03  0.00000000000E+00 0.  1.
         11    1    1    2    0    0  0.19638540350E+00 -0.12210819040E+02  0.25423614890E+01  0.12474224256E+02  0.00000000000E+00 0. -1.
<mgrwt>
<rscale>  0 0.27586485E+03</rscale>
<asrwt>0</asrwt>
<pdfrwt beam="1">  1        2 0.69578935E-02 0.27586485E+03</pdfrwt>
<pdfrwt beam="2">  1       -2 0.64718472E-01 0.27586485E+03</pdfrwt>
<totfact> 0.22907502E+03</totfact>
</mgrwt>
</event>
<event>
 6    1  0.4705246E-006  0.1317711E+03  0.7546771E-02  0.1238571E+00
         -1   -1    0    0    0  501 -0.00000000000E+00  0.00000000000E+00  0.20213285279E+03  0.20213285279E+03  0.00000000000E+00 0.  1.
          1   -1    0    0  501    0  0.00000000000E+00 -0.00000000000E+00 -0.69737999115E+02  0.69737999115E+02  0.00000000000E+00 0. -1.
          5    1    1    2  502    0 -0.39264844504E+02 -0.10418374009E+01  0.42388738249E+02  0.57980242923E+02  0.47000000000E+01 0.  1.
         -5    1    1    2    0  502  0.80492251460E+02  0.72025607549E+01  0.16908354512E+01  0.80968069948E+02  0.47000000000E+01 0.  1.
        -11    1    1    2    0    0 -0.24537082308E+02 -0.30544466709E+02  0.94881894838E+02  0.10265284615E+03  0.00000000000E+00 0.  1.
         11    1    1    2    0    0 -0.16690324649E+02  0.24383743355E+02 -0.65666148589E+01  0.30269692889E+02  0.00000000000E+00 0. -1.
<mgrwt>
<rscale>  0 0.12278583E+03</rscale>
<asrwt>0</asrwt>
<pdfrwt beam="2">  1        1 0.10728923E-01 0.13177111E+03</pdfrwt>
<pdfrwt beam="1">  1       -1 0.31097362E-01 0.13177111E+03</pdfrwt>
<totfact> 0.53270406E+03</totfact>
</mgrwt>
</event>
<event>
 6    1  0.4705246E-006  0.1380207E+03  0.7546771E-02  0.1228127E+00
          2   -1    0    0  501    0  0.00000000000E+00  0.00000000000E+00  0.17427314629E+03  0.17427314629E+03  0.00000000000E+00 0. -1.
         -2   -1    0    0    0  501 -0.00000000000E+00 -0.00000000000E+00 -0.88431536219E+02  0.88431536219E+02  0.00000000000E+00 0.  1.
          5    1    1    2  502    0 -0.47637731623E+01 -0.17145533558E+02  0.98315019576E+02  0.10002297701E+03  0.47000000000E+01 0. -1.
         -5    1    1    2    0  502  0.24857050519E+02 -0.37827505504E+02 -0.29469116511E+02  0.54215421801E+02  0.47000000000E+01 0. -1.
        -11    1    1    2    0    0  0.16107866521E+01  0.53075033808E+02 -0.26853001302E+02  0.59503256435E+02  0.00000000000E+00 0.  1.
         11    1    1    2    0    0 -0.21704064008E+02  0.18980052537E+01  0.43848708306E+02  0.48963027261E+02  0.00000000000E+00 0. -1.
<mgrwt>
<rscale>  0 0.12954852E+03</rscale>
<asrwt>0</asrwt>
<pdfrwt beam="1">  1        2 0.26811253E-01 0.13802074E+03</pdfrwt>
<pdfrwt beam="2">  1       -2 0.13604852E-01 0.13802074E+03</pdfrwt>
<totfact> 0.75894488E+03</totfact>
</mgrwt>
</event>
<event>
 6    1  0.4705246E-006  0.1319978E+03  0.7546771E-02  0.1238868E+00
          1   -1    0    0  501    0  0.00000000000E+00  0.00000000000E+00  0.14329915604E+03  0.14329915604E+03  0.00000000000E+00 0. -1.
         -1   -1    0    0    0  501 -0.00000000000E+00 -0.00000000000E+00 -0.95052085868E+02  0.95052085868E+02  0.00000000000E+00 0.  1.
          5    1    1    2  502    0 -0.48180981611E+02  0.34172850709E+02  0.68548066828E+02  0.90609702463E+02  0.47000000000E+01 0. -1.
         -5    1    1    2    0  502  0.43578116072E+02  0.79846243274E+01 -0.21569389378E+02  0.49498838211E+02  0.47000000000E+01 0. -1.
        -11    1    1    2    0    0 -0.31107352132E+02 -0.51491657731E+02 -0.65487709912E+01  0.60514003123E+02  0.00000000000E+00 0.  1.
         11    1    1    2    0    0  0.35710217670E+02  0.93341826940E+01  0.78171637122E+01  0.37728698110E+02  0.00000000000E+00 0. -1.
<mgrwt>
<rscale>  0 0.12260013E+03</rscale>
<asrwt>0</asrwt>
<pdfrwt beam="1">  1        1 0.22046024E-01 0.13199775E+03</pdfrwt>
<pdfrwt beam="2">  1       -1 0.14623398E-01 0.13199775E+03</pdfrwt>
<totfact> 0.71249170E+03</totfact>
</mgrwt>
</event>
<event>
 6    1  0.4705246E-006  0.2000701E+03  0.7546771E-02  0.1154029E+00
          2   -1    0    0  501    0  0.00000000000E+00  0.00000000000E+00  0.46655597799E+03  0.46655597799E+03  0.00000000000E+00 0. -1.
         -2   -1    0    0    0  501 -0.00000000000E+00 -0.00000000000E+00 -0.78723631108E+02  0.78723631108E+02  0.00000000000E+00 0.  1.
          5    1    1    2  502    0  0.61585783885E+02  0.42589155410E+02  0.11388248541E+03  0.13637432097E+03  0.47000000000E+01 0. -1.
         -5    1    1    2    0  502 -0.47293353209E+02  0.11297040271E+03  0.12203040617E+03  0.17295225692E+03  0.47000000000E+01 0. -1.
        -11    1    1    2    0    0 -0.40277236442E+02 -0.46490365997E+02  0.86502762747E+02  0.10614300669E+03  0.00000000000E+00 0. -1.
         11    1    1    2    0    0  0.25984805766E+02 -0.10906919212E+03  0.65416692552E+02  0.12981002452E+03  0.00000000000E+00 0.  1.
<mgrwt>
<rscale>  0 0.19499764E+03</rscale>
<asrwt>0</asrwt>
<pdfrwt beam="1">  1        2 0.71777841E-01 0.20007009E+03</pdfrwt>
<pdfrwt beam="2">  1       -2 0.12111328E-01 0.20007009E+03</pdfrwt>
<totfact> 0.32324384E+03</totfact>
</mgrwt>
</event>
<event>
 6    1  0.4705246E-006  0.2237594E+03  0.7546771E-02  0.1150468E+00
          1   -1    0    0  501    0  0.00000000000E+00  0.00000000000E+00  0.17923890939E+03  0.17923890939E+03  0.00000000000E+00 0. -1.
         -1   -1    0    0    0  501 -0.00000000000E+00 -0.00000000000E+00 -0.28622303398E+03  0.28622303398E+03  0.00000000000E+00 0.  1.
          5    1    1    2  502    0  0.56218738583E+02  0.93963889662E+02  0.17580646121E+02  0.11099967678E+03  0.47000000000E+01 0. -1.
         -5    1    1    2    0  502 -0.11033693275E+03 -0.11911038947E+02  0.57091512117E+02  0.12489052139E+03  0.47000000000E+01 0.  1.
        -11    1    1    2    0    0  0.97135342821E+01 -0.52800522823E+02 -0.16551143281E+03  0.17400081135E+03  0.00000000000E+00 0.  1.
         11    1    1    2    0    0  0.44404659881E+02 -0.29252327891E+02 -0.16144850019E+02  0.55570933844E+02  0.00000000000E+00 0. -1.
<mgrwt>
<rscale>  0 0.19913872E+03</rscale>
<asrwt>0</asrwt>
<pdfrwt beam="1">  1        1 0.27575217E-01 0.22375937E+03</pdfrwt>
<pdfrwt beam="2">  1       -1 0.44034312E-01 0.22375937E+03</pdfrwt>
<totfact> 0.87538867E+02</totfact>
</mgrwt>
</event>
<event>
 6    1  0.4705246E-006  0.2924090E+03  0.7546771E-02  0.1089098E+00
         -4   -1    0    0    0  501 -0.00000000000E+00  0.00000000000E+00  0.32693283538E+03  0.32693283538E+03  0.00000000000E+00 0.  1.
          4   -1    0    0  501    0  0.00000000000E+00 -0.00000000000E+00 -0.65382723364E+02  0.65382723364E+02  0.00000000000E+00 0. -1.
          5    1    1    2  502    0  0.79320065073E+02 -0.53572553258E+02  0.13782674801E+03  0.16786897764E+03  0.47000000000E+01 0. -1.
         -5    1    1    2    0  502  0.53556989844E+01  0.97109447466E+01 -0.23581361676E+02  0.26479361359E+02  0.47000000000E+01 0. -1.
        -11    1    1    2    0    0 -0.22112067481E+02  0.55340884376E+02  0.35590627809E+02  0.69413613936E+02  0.00000000000E+00 0.  1.
         11    1    1    2    0    0 -0.62563696577E+02 -0.11479275864E+02  0.11171409787E+03  0.12855360581E+03  0.00000000000E+00 0. -1.
<mgrwt>
<rscale>  0 0.29240902E+03</rscale>
<asrwt>0</asrwt>
<pdfrwt beam="2">  1        4 0.10058881E-01 0.29240902E+03</pdfrwt>
<pdfrwt beam="1">  1       -4 0.50297358E-01 0.29240902E+03</pdfrwt>
<totfact> 0.54361746E+02</totfact>
</mgrwt>
</event>
<event>
 6    1  0.4705246E-006  0.1503847E+03  0.7546771E-02  0.1209012E+00
          1   -1    0    0  501    0  0.00000000000E+00  0.00000000000E+00  0.36425283205E+03  0.36425283205E+03  0.00000000000E+00 0. -1.
         -1   -1    0    0    0  501 -0.00000000000E+00 -0.00000000000E+00 -0.53510651338E+02  0.53510651338E+02  0.00000000000E+00 0.  1.
          5    1    1    2  502    0 -0.35129737348E+02 -0.23852537086E+02  0.45426252107E+02  0.62359252337E+02  0.47000000000E+01 0. -1.
         -5    1    1    2    0  502  0.10344223598E+03 -0.24357659083E+02  0.16362220710E+03  0.19516123692E+03  0.47000000000E+01 0. -1.
        -11    1    1    2    0    0 -0.39691311271E+02  0.74623394953E+02  0.75261750966E+02  0.11317412435E+03  0.00000000000E+00 0.  1.
         11    1    1    2    0    0 -0.28621187356E+02 -0.26413198784E+02  0.26431970542E+02  0.47068869780E+02  0.00000000000E+00 0. -1.
<mgrwt>
<rscale>  0 0.14325750E+03</rscale>
<asrwt>0</asrwt>
<pdfrwt beam="1">  1        1 0.56038896E-01 0.15038465E+03</pdfrwt>
<pdfrwt beam="2">  1       -1 0.82324081E-02 0.15038465E+03</pdfrwt>
<totfact> 0.54341757E+03</totfact>
</mgrwt>
</event>
<event>
 6    1  0.4705246E-006  0.2811294E+03  0.7546771E-02  0.1095074E+00
         -1   -1    0    0    0  501 -0.00000000000E+00  0.00000000000E+00  0.20608910211E+03  0.20608910211E+03  0.00000000000E+00 0.  1.
          1   -1    0    0  501    0  0.00000000000E+00 -0.00000000000E+00 -0.95873244762E+02  0.95873244762E+02  0.00000000000E+00 0. -1.
          5    1    1    2  502    0  0.23631727858E+02  0.41405312314E+01 -0.44724932423E+02  0.50970698844E+02  0.47000000000E+01 0.  1.
         -5    1    1    2    0  502 -0.70750151725E+02  0.12136116266E+02  0.42620015574E+02  0.83614741611E+02  0.47000000000E+01 0.  1.
        -11    1    1    2    0    0  0.42263229434E+02  0.32807026270E+02  0.10903766977E+02  0.54601956642E+02  0.00000000000E+00 0. -1.
         11    1    1    2    0    0  0.48551944329E+01 -0.49083673767E+02  0.10141700722E+03  0.11277494978E+03  0.00000000000E+00 0.  1.
<mgrwt>
<rscale>  0 0.28112937E+03</rscale>
<asrwt>0</asrwt>
<pdfrwt beam="2">  1        1 0.14749730E-01 0.28112937E+03</pdfrwt>
<pdfrwt beam="1">  1       -1 0.31706016E-01 0.28112937E+03</pdfrwt>
<totfact> 0.35248302E+03</totfact>
</mgrwt>
</event>
<event>
 6    1  0.4705246E-006  0.1294022E+03  0.7546771E-02  0.1242585E+00
          4   -1    0    0  501    0  0.00000000000E+00  0.00000000000E+00  0.62476208835E+02  0.62476208835E+02  0.00000000000E+00 0. -1.
         -4   -1    0    0    0  501 -0.00000000000E+00 -0.00000000000E+00 -0.28755980302E+03  0.28755980302E+03  0.00000000000E+00 0.  1.
          5    1    1    2  502    0 -0.20040904574E+02 -0.41682767227E+02 -0.59593566544E+02  0.75581572578E+02  0.47000000000E+01 0.  1.
         -5    1    1    2    0  502  0.45338629416E+02  0.19789754409E+02  0.28799028278E+02  0.57434307923E+02  0.47000000000E+01 0.  1.
        -11    1    1    2    0    0 -0.56180077673E+02  0.16193953749E+02 -0.83982344614E+02  0.10233024710E+03  0.00000000000E+00 0.  1.
         11    1    1    2    0    0  0.30882352831E+02  0.56990590698E+01 -0.11030671131E+03  0.11468988425E+03  0.00000000000E+00 0. -1.
<mgrwt>
<rscale>  0 0.12031083E+03</rscale>
<asrwt>0</asrwt>
<pdfrwt beam="1">  1        4 0.96117242E-02 0.12940217E+03</pdfrwt>
<pdfrwt beam="2">  1       -4 0.44239971E-01 0.12940217E+03</pdfrwt>
<totfact> 0.66195465E+02</totfact>
</mgrwt>
</event>
<event>
 6    1  0.4705246E-006  0.3065660E+03  0.7546771E-02  0.1082004E+00
         -1   -1    0    0    0  501 -0.00000000000E+00  0.00000000000E+00  0.24281199723E+03  0.24281199723E+03  0.00000000000E+00 0.  1.
          1   -1    0    0  501    0  0.00000000000E+00 -0.00000000000E+00 -0.96764889742E+02  0.96764889742E+02  0.00000000000E+00 0. -1.
          5    1    1    2  502    0  0.97864507530E+01 -0.27172622633E+02  0.73793260000E+02  0.79383003600E+02  0.47000000000E+01 0. -1.
         -5    1    1    2    0  502  0.97232302745E+02  0.13310492646E+02 -0.75774379789E+01  0.98543378661E+02  0.47000000000E+01 0. -1.
        -11    1    1    2    0    0 -0.66113751544E+02 -0.32399927240E+02  0.21492854562E+02  0.76698932363E+02  0.00000000000E+00 0.  1.
         11    1    1    2    0    0 -0.40905001954E+02  0.46262057227E+02  0.58338430901E+02  0.84951572344E+02  0.00000000000E+00 0. -1.
<mgrwt>
<rscale>  0 0.30656599E+03</rscale>
<asrwt>0</asrwt>
<pdfrwt beam="2">  1        1 0.14886906E-01 0.30656599E+03</pdfrwt>
<pdfrwt beam="1">  1       -1 0.37355692E-01 0.30656599E+03</pdfrwt>
<totfact> 0.26241910E+03</totfact>
</mgrwt>
</event>
<event>
 6    1  0.4705246E-006  0.1501108E+03  0.7546771E-02  0.1210110E+00
          2   -1    0    0  501    0  0.00000000000E+00  0.00000000000E+00  0.12598488455E+04  0.12598488455E+04  0.00000000000E+00 0. -1.
         -2   -1    0    0    0  501 -0.00000000000E+00 -0.00000000000E+00 -0.17404986151E+02  0.17404986151E+02  0.00000000000E+00 0.  1.
          5    1    1    2  502    0  0.43529573710E+01  0.71672230369E+02  0.46689466464E+03  0.47240721281E+03  0.47000000000E+01 0.  1.
         -5    1    1    2    0  502  0.69871495768E+02 -0.34350531926E+02  0.46189258313E+03  0.46843231455E+03  0.47000000000E+01 0.  1.
        -11    1    1    2    0    0 -0.80033725804E+02  0.37452077593E+01  0.21041353281E+03  0.22515167918E+03  0.00000000000E+00 0.  1.
         11    1    1    2    0    0  0.58092726649E+01 -0.41066906202E+02  0.10324307877E+03  0.11126262512E+03  0.00000000000E+00 0. -1.
<mgrwt>
<rscale>  0 0.14241973E+03</rscale>
<asrwt>0</asrwt>
<pdfrwt beam="1">  1        2 0.19382283E+00 0.15011084E+03</pdfrwt>
<pdfrwt beam="2">  1       -2 0.26776912E-02 0.15011084E+03</pdfrwt>
<totfact> 0.90520846E+03</totfact>
</mgrwt>
</event>
<event>
 6    1  0.4705246E-006  0.1239064E+03  0.7546771E-02  0.1246441E+00
          2   -1    0    0  501    0  0.00000000000E+00  0.00000000000E+00  0.19519557219E+04  0.19519557219E+04  0.00000000000E+00 0. -1.
         -2   -1    0    0    0  501 -0.00000000000E+00 -0.00000000000E+00 -0.19990980986E+02  0.19990980986E+02  0.00000000000E+00 0.  1.
          5    1    1    2  502    0 -0.61985078866E+01 -0.40323800122E+02  0.13160940127E+04  0.13167345862E+04  0.47000000000E+01 0. -1.
         -5    1    1    2    0  502 -0.38605500933E+02  0.45005394997E+02  0.48843765375E+03  0.49204603634E+03  0.47000000000E+01 0.  1.
        -11    1    1    2    0    0  0.68407390493E+02  0.96372440272E+00  0.58261083311E+02  0.89860189558E+02  0.00000000000E+00 0.  1.
         11    1    1    2    0    0 -0.23603381674E+02 -0.56453192779E+01  0.69171991120E+02  0.73305890703E+02  0.00000000000E+00 0. -1.
<mgrwt>
<rscale>  0 0.11799562E+03</rscale>
<asrwt>0</asrwt>
<pdfrwt beam="1">  1        2 0.30030073E+00 0.12390644E+03</pdfrwt>
<pdfrwt beam="2">  1       -2 0.30755371E-02 0.12390644E+03</pdfrwt>
<totfact> 0.32129182E+03</totfact>
</mgrwt>
</event>
<event>
 6    1  0.4705246E-006  0.1641217E+03  0.7546771E-02  0.1191136E+00
          1   -1    0    0  501    0  0.00000000000E+00  0.00000000000E+00  0.67199549686E+03  0.67199549686E+03  0.00000000000E+00 0. -1.
         -1   -1    0    0    0  501 -0.00000000000E+00 -0.00000000000E+00 -0.36268299188E+02  0.36268299188E+02  0.00000000000E+00 0.  1.
          5    1    1    2  502    0 -0.41844302725E+02 -0.98806514792E+02  0.22588455424E+03  0.25011916136E+03  0.47000000000E+01 0. -1.
         -5    1    1    2    0  502 -0.40509242848E+02  0.31530928316E+02  0.19312470099E+03  0.19988606337E+03  0.47000000000E+01 0. -1.
        -11    1    1    2    0    0  0.60041889918E+02  0.36376976570E+02  0.47403712944E+02  0.84707880213E+02  0.00000000000E+00 0.  1.
         11    1    1    2    0    0  0.22311655655E+02  0.30898609907E+02  0.16931422950E+03  0.17355069111E+03  0.00000000000E+00 0. -1.
<mgrwt>
<rscale>  0 0.15785842E+03</rscale>
<asrwt>0</asrwt>
<pdfrwt beam="1">  1        1 0.10338391E+00 0.16412174E+03</pdfrwt>
<pdfrwt beam="2">  1       -1 0.55797388E-02 0.16412174E+03</pdfrwt>
<totfact> 0.43693585E+03</totfact>
</mgrwt>
</event>
<event>
 6    1  0.4705246E-006  0.1580338E+03  0.7546771E-02  0.1199082E+00
         -2   -1    0    0    0  501 -0.00000000000E+00  0.00000000000E+00  0.16881240736E+03  0.16881240736E+03  0.00000000000E+00 0. -1.
          2   -1    0    0  501    0  0.00000000000E+00 -0.00000000000E+00 -0.12716373187E+03  0.12716373187E+03  0.00000000000E+00 0.  1.
          5    1    1    2  502    0 -0.48883423878E+02 -0.34429256316E+02  0.83834404567E+02  0.10307890283E+03  0.47000000000E+01 0.  1.
         -5    1    1    2    0  502 -0.43977317395E+02  0.74825948804E+01 -0.40878527546E+02  0.60688859651E+02  0.47000000000E+01 0.  1.
        -11    1    1    2    0    0  0.70557539934E+01  0.28781626286E+02  0.28734747523E+02  0.41277734813E+02  0.00000000000E+00 0. -1.
         11    1    1    2    0    0  0.85804987279E+02 -0.18349648508E+01 -0.30041949053E+02  0.90930641925E+02  0.00000000000E+00 0.  1.
<mgrwt>
<rscale>  0 0.15113737E+03</rscale>
<asrwt>0</asrwt>
<pdfrwt beam="2">  1        2 0.19563651E-01 0.15803377E+03</pdfrwt>
<pdfrwt beam="1">  1       -2 0.25971140E-01 0.15803377E+03</pdfrwt>
<totfact> 0.36623834E+03</totfact>
</mgrwt>
</event>
<event>
 6    1  0.4705246E-006  0.1566057E+03  0.7546771E-02  0.1200562E+00
         -1   -1    0    0    0  501 -0.00000000000E+00  0.00000000000E+00  0.57397119091E+02  0.57397119091E+02  0.00000000000E+00 0.  1.
          1   -1    0    0  501    0  0.00000000000E+00 -0.00000000000E+00 -0.37825954852E+03  0.37825954852E+03  0.00000000000E+00 0. -1.
          5    1    1    2  502    0 -0.39884166280E+02 -0.25893869286E+02 -0.11945969619E+03  0.12866214750E+03  0.47000000000E+01 0. -1.
         -5    1    1    2    0  502  0.79020434397E+02 -0.59931846944E+02 -0.99753045252E+02  0.14074379335E+03  0.47000000000E+01 0. -1.
        -11    1    1    2    0    0 -0.46960965953E+02  0.48180609473E+02 -0.11516863616E+02  0.68259370052E+02  0.00000000000E+00 0.  1.
         11    1    1    2    0    0  0.78246978365E+01  0.37645106757E+02 -0.90132824371E+02  0.97991356701E+02  0.00000000000E+00 0. -1.
<mgrwt>
<rscale>  0 0.14992782E+03</rscale>
<asrwt>0</asrwt>
<pdfrwt beam="2">  1        1 0.58193780E-01 0.15660567E+03</pdfrwt>
<pdfrwt beam="1">  1       -1 0.88303255E-02 0.15660567E+03</pdfrwt>
<totfact> 0.46693038E+03</totfact>
</mgrwt>
</event>
<event>
 6    1  0.4705246E-006  0.1496496E+03  0.7546771E-02  0.1210878E+00
          1   -1    0    0  501    0  0.00000000000E+00  0.00000000000E+00  0.27933260181E+02  0.27933260181E+02  0.00000000000E+00 0. -1.
         -1   -1    0    0    0  501 -0.00000000000E+00 -0.00000000000E+00 -0.66251883970E+03  0.66251883970E+03  0.00000000000E+00 0.  1.
          5    1    1    2  502    0  0.34948038226E+02 -0.62568593041E+02 -0.13292807897E+03  0.15108990168E+03  0.47000000000E+01 0.  1.
         -5    1    1    2    0  502  0.47314098886E+02  0.60576633506E+02 -0.17995812915E+03  0.19574261347E+03  0.47000000000E+01 0.  1.
        -11    1    1    2    0    0 -0.84768294624E+02 -0.22096447118E+02 -0.29425276621E+03  0.30701564646E+03  0.00000000000E+00 0.  1.
         11    1    1    2    0    0  0.25061575132E+01  0.24088406654E+02 -0.27446605183E+02  0.36603938267E+02  0.00000000000E+00 0. -1.
<mgrwt>
<rscale>  0 0.14183751E+03</rscale>
<asrwt>0</asrwt>
<pdfrwt beam="1">  1        1 0.42974251E-02 0.14964964E+03</pdfrwt>
<pdfrwt beam="2">  1       -1 0.10192596E+00 0.14964964E+03</pdfrwt>
<totfact> 0.19377914E+03</totfact>
</mgrwt>
</event>
<event>
 6    1  0.4705246E-006  0.1354394E+03  0.7546771E-02  0.1231679E+00
          2   -1    0    0  501    0  0.00000000000E+00  0.00000000000E+00  0.45941928071E+03  0.45941928071E+03  0.00000000000E+00 0. -1.
         -2   -1    0    0    0  501 -0.00000000000E+00 -0.00000000000E+00 -0.35653637169E+02  0.35653637169E+02  0.00000000000E+00 0.  1.
          5    1    1    2  502    0  0.35533042399E+01  0.30991501824E+02  0.31948825736E+03  0.32104195325E+03  0.47000000000E+01 0.  1.
         -5    1    1    2    0  502 -0.14740075026E+02  0.19933897543E+02 -0.78589109110E+00  0.25245548278E+02  0.47000000000E+01 0.  1.
        -11    1    1    2    0    0 -0.27363566652E+02 -0.77830856448E+01 -0.44802527882E+00  0.28452450311E+02  0.00000000000E+00 0. -1.
         11    1    1    2    0    0  0.38550337438E+02 -0.43142313722E+02  0.10551130255E+03  0.12033296604E+03  0.00000000000E+00 0.  1.
<mgrwt>
<rscale>  0 0.12719450E+03</rscale>
<asrwt>0</asrwt>
<pdfrwt beam="1">  1        2 0.70679885E-01 0.13543942E+03</pdfrwt>
<pdfrwt beam="2">  1       -2 0.54851753E-02 0.13543942E+03</pdfrwt>
<totfact> 0.11043616E+04</totfact>
</mgrwt>
</event>
<event>
 6    1  0.4705246E-006  0.3057215E+03  0.7546771E-02  0.1082415E+00
         -2   -1    0    0    0  501 -0.00000000000E+00  0.00000000000E+00  0.20024738469E+02  0.20024738469E+02  0.00000000000E+00 0.  1.
          2   -1    0    0  501    0  0.00000000000E+00 -0.00000000000E+00 -0.11668772276E+04  0.11668772276E+04  0.00000000000E+00 0. -1.
          5    1    1    2  502    0  0.96206487497E+02  0.44145710682E+01 -0.30677182074E+03  0.32156837014E+03  0.47000000000E+01 0.  1.
         -5    1    1    2    0  502 -0.15037939188E+01 -0.72573140103E+01 -0.51283022819E+03  0.51290531577E+03  0.47000000000E+01 0.  1.
        -11    1    1    2    0    0 -0.56328954645E+02  0.44391477491E+02 -0.21653740959E+03  0.22810524798E+03  0.00000000000E+00 0. -1.
         11    1    1    2    0    0 -0.38373738932E+02 -0.41548734548E+02 -0.11071303062E+03  0.12432303219E+03  0.00000000000E+00 0.  1.
<mgrwt>
<rscale>  0 0.30572152E+03</rscale>
<asrwt>0</asrwt>
<pdfrwt beam="2">  1        2 0.17951961E+00 0.30572152E+03</pdfrwt>
<pdfrwt beam="1">  1       -2 0.30807284E-02 0.30572152E+03</pdfrwt>
<totfact> 0.85135110E+03</totfact>
</mgrwt>
</event>
<event>
 6    1  0.4705246E-006  0.1559052E+03  0.7546771E-02  0.1201190E+00
         -2   -1    0    0    0  501 -0.00000000000E+00  0.00000000000E+00  0.31573764965E+02  0.31573764965E+02  0.00000000000E+00 0.  1.
          2   -1    0    0  501    0  0.00000000000E+00 -0.00000000000E+00 -0.75585028404E+03  0.75585028404E+03  0.00000000000E+00 0. -1.
          5    1    1    2  502    0 -0.50076958293E+02  0.27580141665E+02 -0.81235953398E+02  0.99447152250E+02  0.47000000000E+01 0.  1.
         -5    1    1    2    0  502 -0.41482991992E+02 -0.44813550280E+02 -0.45143120561E+03  0.45556702725E+03  0.47000000000E+01 0.  1.
        -11    1    1    2    0    0  0.32913451947E+02  0.53157695927E+02 -0.98167328375E+02  0.11638668444E+03  0.00000000000E+00 0.  1.
         11    1    1    2    0    0  0.58646498338E+02 -0.35924287312E+02 -0.93442031687E+02  0.11602318506E+03  0.00000000000E+00 0. -1.
<mgrwt>
<rscale>  0 0.14941764E+03</rscale>
<asrwt>0</asrwt>
<pdfrwt beam="2">  1        2 0.11628465E+00 0.15590522E+03</pdfrwt>
<pdfrwt beam="1">  1       -2 0.48575026E-02 0.15590522E+03</pdfrwt>
<totfact> 0.75754260E+03</totfact>
</mgrwt>
</event>
<event>
 6    1  0.4705246E-006  0.1476885E+03  0.7546771E-02  0.1214974E+00
         -2   -1    0    0    0  501 -0.00000000000E+00  0.00000000000E+00  0.66328708808E+02  0.66328708808E+02  0.00000000000E+00 0.  1.
          2   -1    0    0  501    0  0.00000000000E+00 -0.00000000000E+00 -0.27823732628E+03  0.27823732628E+03  0.00000000000E+00 0. -1.
          5    1    1    2  502    0  0.29413509523E+01 -0.11020303483E+03 -0.13189518674E+03  0.17196450423E+03  0.47000000000E+01 0.  1.
         -5    1    1    2    0  502  0.13728114668E+02  0.33333069089E+02 -0.29613952894E+02  0.46889559960E+02  0.47000000000E+01 0.  1.
        -11    1    1    2    0    0  0.13651817930E+02  0.55410699927E+01  0.17355337161E+02  0.22765836629E+02  0.00000000000E+00 0.  1.
         11    1    1    2    0    0 -0.30321283551E+02  0.71328895747E+02 -0.67754814999E+02  0.10294613427E+03  0.00000000000E+00 0. -1.
<mgrwt>
<rscale>  0 0.13878479E+03</rscale>
<asrwt>0</asrwt>
<pdfrwt beam="2">  1        2 0.42805743E-01 0.14768852E+03</pdfrwt>
<pdfrwt beam="1">  1       -2 0.10204417E-01 0.14768852E+03</pdfrwt>
<totfact> 0.72933170E+03</totfact>
</mgrwt>
</event>
<event>
 6    1  0.4705246E-006  0.1385278E+03  0.7546771E-02  0.1226666E+00
         -2   -1    0    0    0  501 -0.00000000000E+00  0.00000000000E+00  0.25128955477E+02  0.25128955477E+02  0.00000000000E+00 0.  1.
          2   -1    0    0  501    0  0.00000000000E+00 -0.00000000000E+00 -0.61237015628E+03  0.61237015628E+03  0.00000000000E+00 0. -1.
          5    1    1    2  502    0  0.19515840715E+02 -0.93566868164E+02 -0.19765641397E+03  0.21960367675E+03  0.47000000000E+01 0. -1.
         -5    1    1    2    0  502  0.14216104331E+01  0.37663710856E+02 -0.14755702927E+03  0.15236713222E+03  0.47000000000E+01 0. -1.
        -11    1    1    2    0    0  0.11363297744E+02  0.61847357458E+02 -0.88737973974E+02  0.10875958893E+03  0.00000000000E+00 0.  1.
         11    1    1    2    0    0 -0.32300748892E+02 -0.59442001498E+01 -0.15328978358E+03  0.15676871385E+03  0.00000000000E+00 0. -1.
<mgrwt>
<rscale>  0 0.13053382E+03</rscale>
<asrwt>0</asrwt>
<pdfrwt beam="2">  1        2 0.94210787E-01 0.13852784E+03</pdfrwt>
<pdfrwt beam="1">  1       -2 0.38659934E-02 0.13852784E+03</pdfrwt>
<totfact> 0.13565843E+04</totfact>
</mgrwt>
</event>
<event>
 6    1  0.4705246E-006  0.1759787E+03  0.7546771E-02  0.1177442E+00
         -3   -1    0    0    0  501 -0.00000000000E+00  0.00000000000E+00  0.67487086560E+03  0.67487086560E+03  0.00000000000E+00 0.  1.
          3   -1    0    0  501    0  0.00000000000E+00 -0.00000000000E+00 -0.50681893617E+02  0.50681893617E+02  0.00000000000E+00 0. -1.
          5    1    1    2  502    0  0.30805170111E+02  0.47643507543E+00  0.67951103840E+02  0.74757126811E+02  0.47000000000E+01 0.  1.
         -5    1    1    2    0  502 -0.61564600607E+02 -0.12046281338E+03  0.97877269392E+02  0.16704352523E+03  0.47000000000E+01 0.  1.
        -11    1    1    2    0    0  0.12140278560E+02 -0.14478896862E+02  0.58786505586E+02  0.61748506515E+02  0.00000000000E+00 0.  1.
         11    1    1    2    0    0  0.18619151935E+02  0.13446527517E+03  0.39957409317E+03  0.42200360067E+03  0.00000000000E+00 0. -1.
<mgrwt>
<rscale>  0 0.17038997E+03</rscale>
<asrwt>0</asrwt>
<pdfrwt beam="2">  1        3 0.77972149E-02 0.17597871E+03</pdfrwt>
<pdfrwt beam="1">  1       -3 0.10382628E+00 0.17597871E+03</pdfrwt>
<totfact> 0.22242634E+02</totfact>
</mgrwt>
</event>
<event>
 6    1  0.4705246E-006  0.2611062E+03  0.7546771E-02  0.1106480E+00
         -2   -1    0    0    0  501 -0.00000000000E+00  0.00000000000E+00  0.38801534246E+02  0.38801534246E+02  0.00000000000E+00 0. -1.
          2   -1    0    0  501    0  0.00000000000E+00 -0.00000000000E+00 -0.43926383013E+03  0.43926383013E+03  0.00000000000E+00 0.  1.
          5    1    1    2  502    0 -0.13190021473E+02 -0.33450108521E+02 -0.15199544092E+02  0.39319239147E+02  0.47000000000E+01 0. -1.
         -5    1    1    2    0  502  0.84953737205E+02  0.37215521269E+02 -0.18987681326E+03  0.21137035436E+03  0.47000000000E+01 0. -1.
        -11    1    1    2    0    0 -0.44087779150E+02 -0.40310698160E+02 -0.60972651440E+02  0.85360112934E+02  0.00000000000E+00 0.  1.
         11    1    1    2    0    0 -0.27675936582E+02  0.36545285411E+02 -0.13441328710E+03  0.14201565794E+03  0.00000000000E+00 0. -1.
<mgrwt>
<rscale>  0 0.26110619E+03</rscale>
<asrwt>0</asrwt>
<pdfrwt beam="2">  1        2 0.67579056E-01 0.26110619E+03</pdfrwt>
<pdfrwt beam="1">  1       -2 0.59694664E-02 0.26110619E+03</pdfrwt>
<totfact> 0.10636128E+04</totfact>
</mgrwt>
</event>
<event>
 6    1  0.4705246E-006  0.2211645E+03  0.7546771E-02  0.1136338E+00
         -2   -1    0    0    0  501 -0.00000000000E+00  0.00000000000E+00  0.17486505193E+02  0.17486505193E+02  0.00000000000E+00 0. -1.
          2   -1    0    0  501    0  0.00000000000E+00 -0.00000000000E+00 -0.27659202191E+04  0.27659202191E+04  0.00000000000E+00 0.  1.
          5    1    1    2  502    0 -0.54492008837E+02 -0.64032276573E+00 -0.17017106017E+03  0.17874582165E+03  0.47000000000E+01 0. -1.
         -5    1    1    2    0  502 -0.12760259956E+03  0.12044622042E+02 -0.16123820352E+04  0.16174750118E+04  0.47000000000E+01 0. -1.
        -11    1    1    2    0    0  0.62906670061E+02 -0.47827655321E+02 -0.34762521660E+03  0.35649407424E+03  0.00000000000E+00 0.  1.
         11    1    1    2    0    0  0.11918793833E+03  0.36423356045E+02 -0.61825540195E+03  0.63069181662E+03  0.00000000000E+00 0. -1.
<mgrwt>
<rscale>  0 0.21673902E+03</rscale>
<asrwt>0</asrwt>
<pdfrwt beam="2">  1        2 0.42552603E+00 0.22116452E+03</pdfrwt>
<pdfrwt beam="1">  1       -2 0.26902325E-02 0.22116452E+03</pdfrwt>
<totfact> 0.14301101E+03</totfact>
</mgrwt>
</event>
<event>
 6    1  0.4705246E-006  0.1380770E+03  0.7546771E-02  0.1227679E+00
          2   -1    0    0  501    0  0.00000000000E+00  0.00000000000E+00  0.11752895670E+03  0.11752895670E+03  0.00000000000E+00 0. -1.
         -2   -1    0    0    0  501 -0.00000000000E+00 -0.00000000000E+00 -0.12893299364E+03  0.12893299364E+03  0.00000000000E+00 0.  1.
          5    1    1    2  502    0 -0.34769886491E+02 -0.72806266485E+02 -0.55098149345E+01  0.81007070721E+02  0.47000000000E+01 0.  1.
         -5    1    1    2    0  502 -0.20431443610E+02  0.53015461607E+02  0.30502708775E+01  0.57091831376E+02  0.47000000000E+01 0.  1.
        -11    1    1    2    0    0  0.80583497646E+02  0.17669016461E+02 -0.58487393985E+01  0.82704909093E+02  0.00000000000E+00 0. -1.
         11    1    1    2    0    0 -0.25382167544E+02  0.21217884172E+01 -0.30957534842E+01  0.25658139156E+02  0.00000000000E+00 0.  1.
<mgrwt>
<rscale>  0 0.12984947E+03</rscale>
<asrwt>0</asrwt>
<pdfrwt beam="1">  1        2 0.18081378E-01 0.13807700E+03</pdfrwt>
<pdfrwt beam="2">  1       -2 0.19835845E-01 0.13807700E+03</pdfrwt>
<totfact> 0.63262790E+03</totfact>
</mgrwt>
</event>
<event>
 6    1  0.4705246E-006  0.2803674E+03  0.7546771E-02  0.1095488E+00
          1   -1    0    0  501    0  0.00000000000E+00  0.00000000000E+00  0.30119069738E+03  0.30119069738E+03  0.00000000000E+00 0. -1.
         -1   -1    0    0    0  501 -0.00000000000E+00 -0.00000000000E+00 -0.65245933271E+02  0.65245933271E+02  0.00000000000E+00 0.  1.
          5    1    1    2  502    0  0.84950908725E+02  0.25551466125E+02  0.17769368290E+03  0.19866219886E+03  0.47000000000E+01 0.  1.
         -5    1    1    2    0  502 -0.15361093471E+02  0.16003950550E+02 -0.10745328454E+02  0.25092662462E+02  0.47000000000E+01 0.  1.
        -11    1    1    2    0    0 -0.29814648836E+02 -0.54043556949E+02 -0.40269414555E+00  0.61723427444E+02  0.00000000000E+00 0.  1.
         11    1    1    2    0    0 -0.39775166417E+02  0.12488140274E+02  0.69399103815E+02  0.80958341888E+02  0.00000000000E+00 0. -1.
<mgrwt>
<rscale>  0 0.28036739E+03</rscale>
<asrwt>0</asrwt>
<pdfrwt beam="1">  1        1 0.46337030E-01 0.28036739E+03</pdfrwt>
<pdfrwt beam="2">  1       -1 0.10037836E-01 0.28036739E+03</pdfrwt>
<totfact> 0.52535213E+03</totfact>
</mgrwt>
</event>
<event>
 6    1  0.4705246E-006  0.1842239E+03  0.7546771E-02  0.1168785E+00
          1   -1    0    0  501    0  0.00000000000E+00  0.00000000000E+00  0.26058732596E+03  0.26058732596E+03  0.00000000000E+00 0. -1.
         -1   -1    0    0    0  501 -0.00000000000E+00 -0.00000000000E+00 -0.13153345040E+03  0.13153345040E+03  0.00000000000E+00 0.  1.
          5    1    1    2  502    0 -0.33727451332E+01 -0.32486812164E+02 -0.29133573703E+02  0.44018444896E+02  0.47000000000E+01 0. -1.
         -5    1    1    2    0  502 -0.13191696515E+03  0.36010064613E+02  0.30632960316E+02  0.14021154983E+03  0.47000000000E+01 0. -1.
        -11    1    1    2    0    0  0.11424838742E+03  0.24546605944E+00  0.14187785523E+03  0.18215949080E+03  0.00000000000E+00 0. -1.
         11    1    1    2    0    0  0.21041322859E+02 -0.37687185083E+01 -0.14323366277E+02  0.25731290841E+02  0.00000000000E+00 0.  1.
<mgrwt>
<rscale>  0 0.17898892E+03</rscale>
<asrwt>0</asrwt>
<pdfrwt beam="1">  1        1 0.40090358E-01 0.18422389E+03</pdfrwt>
<pdfrwt beam="2">  1       -1 0.20235916E-01 0.18422389E+03</pdfrwt>
<totfact> 0.20450945E+03</totfact>
</mgrwt>
</event>
<event>
 6    1  0.4705246E-006  0.1486505E+03  0.7546771E-02  0.1212019E+00
         -2   -1    0    0    0  501 -0.00000000000E+00  0.00000000000E+00  0.28022718038E+02  0.28022718038E+02  0.00000000000E+00 0.  1.
          2   -1    0    0  501    0  0.00000000000E+00 -0.00000000000E+00 -0.65950329107E+03  0.65950329107E+03  0.00000000000E+00 0. -1.
          5    1    1    2  502    0  0.21253658476E+02 -0.10302090892E+03 -0.37200516942E+03  0.38661991897E+03  0.47000000000E+01 0. -1.
         -5    1    1    2    0  502  0.59276195976E+01  0.27305324392E+02 -0.26848445677E+02  0.39033914094E+02  0.47000000000E+01 0. -1.
        -11    1    1    2    0    0 -0.23014063084E+02  0.93273989128E+02 -0.15649856006E+03  0.18363410209E+03  0.00000000000E+00 0.  1.
         11    1    1    2    0    0 -0.41672149892E+01 -0.17558404600E+02 -0.76128397873E+02  0.78238073951E+02  0.00000000000E+00 0. -1.
<mgrwt>
<rscale>  0 0.14097834E+03</rscale>
<asrwt>0</asrwt>
<pdfrwt beam="2">  1        2 0.10146204E+00 0.14865053E+03</pdfrwt>
<pdfrwt beam="1">  1       -2 0.43111877E-02 0.14865053E+03</pdfrwt>
<totfact> 0.10635551E+04</totfact>
</mgrwt>
</event>
<event>
 6    1  0.4705246E-006  0.2339655E+03  0.7546771E-02  0.1126883E+00
          3   -1    0    0  501    0  0.00000000000E+00  0.00000000000E+00  0.28257115568E+04  0.28257115568E+04  0.00000000000E+00 0. -1.
         -3   -1    0    0    0  501 -0.00000000000E+00 -0.00000000000E+00 -0.31132381819E+02  0.31132381819E+02  0.00000000000E+00 0.  1.
          5    1    1    2  502    0  0.35569897243E+02  0.16901223541E+03  0.17217598840E+04  0.17304073340E+04  0.47000000000E+01 0.  1.
         -5    1    1    2    0  502  0.60860285792E+02  0.37344553809E+01  0.63265190826E+03  0.63560085555E+03  0.47000000000E+01 0.  1.
        -11    1    1    2    0    0 -0.96147712877E+01 -0.10525642296E+02  0.54746034255E+00  0.14266488197E+02  0.00000000000E+00 0. -1.
         11    1    1    2    0    0 -0.86815411747E+02 -0.16222104849E+03  0.43961992240E+03  0.47656926093E+03  0.00000000000E+00 0.  1.
<mgrwt>
<rscale>  0 0.22965447E+03</rscale>
<asrwt>0</asrwt>
<pdfrwt beam="1">  1        3 0.43472465E+00 0.23396552E+03</pdfrwt>
<pdfrwt beam="2">  1       -3 0.47895994E-02 0.23396552E+03</pdfrwt>
<totfact> 0.54621079E+00</totfact>
</mgrwt>
</event>
<event>
 6    1  0.4705246E-006  0.1488298E+03  0.7546771E-02  0.1217306E+00
         -1   -1    0    0    0  501 -0.00000000000E+00  0.00000000000E+00  0.11458379497E+03  0.11458379497E+03  0.00000000000E+00 0.  1.
          1   -1    0    0  501    0  0.00000000000E+00 -0.00000000000E+00 -0.15147280832E+03  0.15147280832E+03  0.00000000000E+00 0. -1.
          5    1    1    2  502    0  0.88323596882E+02  0.56133224298E+02 -0.14397712901E+02  0.10574204827E+03  0.47000000000E+01 0. -1.
         -5    1    1    2    0  502 -0.10763670368E+02 -0.33522679074E+02 -0.38064146418E+02  0.52063383050E+02  0.47000000000E+01 0. -1.
        -11    1    1    2    0    0 -0.36973977728E+02 -0.31740400059E+02  0.37255698917E+02  0.61339344036E+02  0.00000000000E+00 0.  1.
         11    1    1    2    0    0 -0.40585948786E+02  0.91298548351E+01 -0.21682852945E+02  0.46911827933E+02  0.00000000000E+00 0. -1.
<mgrwt>
<rscale>  0 0.13708511E+03</rscale>
<asrwt>0</asrwt>
<pdfrwt beam="2">  1        1 0.23303509E-01 0.14882979E+03</pdfrwt>
<pdfrwt beam="1">  1       -1 0.17628276E-01 0.14882979E+03</pdfrwt>
<totfact> 0.49862615E+03</totfact>
</mgrwt>
</event>
<event>
 6    1  0.4705246E-006  0.1478395E+03  0.7546771E-02  0.1216431E+00
         -1   -1    0    0    0  501 -0.00000000000E+00  0.00000000000E+00  0.14278235629E+03  0.14278235629E+03  0.00000000000E+00 0.  1.
          1   -1    0    0  501    0  0.00000000000E+00 -0.00000000000E+00 -0.12256107422E+03  0.12256107422E+03  0.00000000000E+00 0. -1.
          5    1    1    2  502    0  0.11642429427E+01 -0.38533624012E+02 -0.39462697611E+02  0.55367771708E+02  0.47000000000E+01 0. -1.
         -5    1    1    2    0  502  0.77485712371E+02  0.45424886697E+02  0.24521869168E+02  0.93224825130E+02  0.47000000000E+01 0. -1.
        -11    1    1    2    0    0  0.15117957342E+02 -0.66641821785E+01  0.11229569094E+02  0.19976665897E+02  0.00000000000E+00 0.  1.
         11    1    1    2    0    0 -0.93767912656E+02 -0.22708050616E+00  0.23932541418E+02  0.96774167773E+02  0.00000000000E+00 0. -1.
<mgrwt>
<rscale>  0 0.13771970E+03</rscale>
<asrwt>0</asrwt>
<pdfrwt beam="2">  1        1 0.18855550E-01 0.14783955E+03</pdfrwt>
<pdfrwt beam="1">  1       -1 0.21966516E-01 0.14783955E+03</pdfrwt>
<totfact> 0.45808698E+03</totfact>
</mgrwt>
</event>
<event>
 6    1  0.4705246E-006  0.1767793E+03  0.7546771E-02  0.1176861E+00
          1   -1    0    0  501    0  0.00000000000E+00  0.00000000000E+00  0.48625620018E+03  0.48625620018E+03  0.00000000000E+00 0. -1.
         -1   -1    0    0    0  501 -0.00000000000E+00 -0.00000000000E+00 -0.57935828924E+02  0.57935828924E+02  0.00000000000E+00 0.  1.
          5    1    1    2  502    0 -0.19409461280E+02  0.51918815690E+02  0.19266409975E+03  0.20053387730E+03  0.47000000000E+01 0.  1.
         -5    1    1    2    0  502  0.72457488931E+02  0.61271388933E+02  0.78886020226E+02  0.12348831925E+03  0.47000000000E+01 0.  1.
        -11    1    1    2    0    0 -0.45943110003E+02 -0.37534326008E+02  0.18068718735E+02  0.62016720184E+02  0.00000000000E+00 0.  1.
         11    1    1    2    0    0 -0.71049176471E+01 -0.75655878615E+02  0.13870153254E+03  0.15815311237E+03  0.00000000000E+00 0. -1.
<mgrwt>
<rscale>  0 0.17094971E+03</rscale>
<asrwt>0</asrwt>
<pdfrwt beam="1">  1        1 0.74808644E-01 0.17677929E+03</pdfrwt>
<pdfrwt beam="2">  1       -1 0.89132048E-02 0.17677929E+03</pdfrwt>
<totfact> 0.33538967E+03</totfact>
</mgrwt>
</event>
<event>
 6    1  0.4705246E-006  0.1330208E+03  0.7546771E-02  0.1235555E+00
         -1   -1    0    0    0  501 -0.00000000000E+00  0.00000000000E+00  0.26441436298E+03  0.26441436298E+03  0.00000000000E+00 0.  1.
          1   -1    0    0  501    0  0.00000000000E+00 -0.00000000000E+00 -0.55234516119E+02  0.55234516119E+02  0.00000000000E+00 0. -1.
          5    1    1    2  502    0 -0.20814282648E+02  0.66801463852E+02  0.68400981860E+02  0.97961493733E+02  0.47000000000E+01 0.  1.
         -5    1    1    2    0  502  0.47852243544E+02 -0.30224951389E+02  0.13929574942E+02  0.58476559036E+02  0.47000000000E+01 0.  1.
        -11    1    1    2    0    0 -0.44244872462E+02  0.11445695917E+02  0.32920412309E+02  0.56323762666E+02  0.00000000000E+00 0. -1.
         11    1    1    2    0    0  0.17206911567E+02 -0.48022208380E+02  0.93928877752E+02  0.10688706367E+03  0.00000000000E+00 0.  1.
<mgrwt>
<rscale>  0 0.12468983E+03</rscale>
<asrwt>0</asrwt>
<pdfrwt beam="2">  1        1 0.84976180E-02 0.13302084E+03</pdfrwt>
<pdfrwt beam="1">  1       -1 0.40679132E-01 0.13302084E+03</pdfrwt>
<totfact> 0.45773729E+03</totfact>
</mgrwt>
</event>
<event>
 6    1  0.4705246E-006  0.3336435E+03  0.7546771E-02  0.1069536E+00
          1   -1    0    0  501    0  0.00000000000E+00  0.00000000000E+00  0.13892522046E+03  0.13892522046E+03  0.00000000000E+00 0. -1.
         -1   -1    0    0    0  501 -0.00000000000E+00 -0.00000000000E+00 -0.20032001912E+03  0.20032001912E+03  0.00000000000E+00 0.  1.
          5    1    1    2  502    0  0.57004371764E+02 -0.63579666920E+02  0.93111044440E+02  0.12642637795E+03  0.47000000000E+01 0. -1.
         -5    1    1    2    0  502 -0.21026884302E+02 -0.64494782019E+01 -0.30916000477E+02  0.38231070061E+02  0.47000000000E+01 0.  1.
        -11    1    1    2    0    0  0.28334214637E+02  0.45062701003E+02 -0.65487380578E+02  0.84392367876E+02  0.00000000000E+00 0. -1.
         11    1    1    2    0    0 -0.64311702098E+02  0.24966444119E+02 -0.58102462040E+02  0.90195423686E+02  0.00000000000E+00 0.  1.
<mgrwt>
<rscale>  0 0.33364354E+03</rscale>
<asrwt>0</asrwt>
<pdfrwt beam="1">  1        1 0.21373111E-01 0.33364354E+03</pdfrwt>
<pdfrwt beam="2">  1       -1 0.30818464E-01 0.33364354E+03</pdfrwt>
<totfact> 0.22907073E+03</totfact>
</mgrwt>
</event>
<event>
 6    1  0.4705246E-006  0.1289515E+03  0.7546771E-02  0.1243399E+00
         -2   -1    0    0    0  501 -0.00000000000E+00  0.00000000000E+00  0.12275567663E+02  0.12275567663E+02  0.00000000000E+00 0.  1.
          2   -1    0    0  501    0  0.00000000000E+00 -0.00000000000E+00 -0.12099775043E+04  0.12099775043E+04  0.00000000000E+00 0. -1.
          5    1    1    2  502    0 -0.25012715600E+02  0.31632319163E+01 -0.34660385942E+02  0.43116984258E+02  0.47000000000E+01 0.  1.
         -5    1    1    2    0  502  0.19330267241E+02  0.27973899367E+02 -0.87116483504E+03  0.87184084447E+03  0.47000000000E+01 0.  1.
        -11    1    1    2    0    0 -0.35185473678E+01 -0.62585961377E+02 -0.20818817737E+03  0.21742056005E+03  0.00000000000E+00 0.  1.
         11    1    1    2    0    0  0.92009957266E+01  0.31448830094E+02 -0.83688538279E+02  0.89874683175E+02  0.00000000000E+00 0. -1.
<mgrwt>
<rscale>  0 0.11981720E+03</rscale>
<asrwt>0</asrwt>
<pdfrwt beam="2">  1        2 0.18615042E+00 0.12895153E+03</pdfrwt>
<pdfrwt beam="1">  1       -2 0.18885485E-02 0.12895153E+03</pdfrwt>
<totfact> 0.15907820E+04</totfact>
</mgrwt>
</event>
<event>
 6    1  0.4705246E-006  0.1937114E+03  0.7546771E-02  0.1159778E+00
          2   -1    0    0  501    0  0.00000000000E+00  0.00000000000E+00  0.11658214713E+04  0.11658214713E+04  0.00000000000E+00 0. -1.
         -2   -1    0    0    0  501 -0.00000000000E+00 -0.00000000000E+00 -0.35524522796E+02  0.35524522796E+02  0.00000000000E+00 0.  1.
          5    1    1    2  502    0  0.14287089324E+02  0.69855813974E+02  0.16627608405E+03  0.18098005910E+03  0.47000000000E+01 0.  1.
         -5    1    1    2    0  502  0.93776803220E+02  0.31244089371E+02  0.68139286248E+03  0.68854092470E+03  0.47000000000E+01 0.  1.
        -11    1    1    2    0    0 -0.19963630413E+02 -0.76560722476E+02  0.16352639200E+03  0.18166169559E+03  0.00000000000E+00 0.  1.
         11    1    1    2    0    0 -0.88100262131E+02 -0.24539180868E+02  0.11910161001E+03  0.15016331474E+03  0.00000000000E+00 0. -1.
<mgrwt>
<rscale>  0 0.18854706E+03</rscale>
<asrwt>0</asrwt>
<pdfrwt beam="1">  1        2 0.17935712E+00 0.19371138E+03</pdfrwt>
<pdfrwt beam="2">  1       -2 0.54653121E-02 0.19371138E+03</pdfrwt>
<totfact> 0.35485575E+03</totfact>
</mgrwt>
</event>
<event>
 6    1  0.4705246E-006  0.1691854E+03  0.7546771E-02  0.1185529E+00
         -1   -1    0    0    0  501 -0.00000000000E+00  0.00000000000E+00  0.24162164715E+02  0.24162164715E+02  0.00000000000E+00 0.  1.
          1   -1    0    0  501    0  0.00000000000E+00 -0.00000000000E+00 -0.12022045002E+04  0.12022045002E+04  0.00000000000E+00 0. -1.
          5    1    1    2  502    0  0.58833775147E+02  0.45782521741E+02 -0.39907862362E+03  0.40600897801E+03  0.47000000000E+01 0. -1.
         -5    1    1    2    0  502 -0.65193068955E+02  0.68049271347E+02 -0.46461369821E+03  0.47409789931E+03  0.47000000000E+01 0. -1.
        -11    1    1    2    0    0 -0.40548781496E+02 -0.59057666462E+02 -0.18095467221E+03  0.19461912816E+03  0.00000000000E+00 0. -1.
         11    1    1    2    0    0  0.46908075304E+02 -0.54774126625E+02 -0.13339534149E+03  0.15164065948E+03  0.00000000000E+00 0.  1.
<mgrwt>
<rscale>  0 0.16283797E+03</rscale>
<asrwt>0</asrwt>
<pdfrwt beam="2">  1        1 0.18495452E+00 0.16918537E+03</pdfrwt>
<pdfrwt beam="1">  1       -1 0.37172565E-02 0.16918537E+03</pdfrwt>
<totfact> 0.31056835E+03</totfact>
</mgrwt>
</event>
<event>
 6    1  0.4705246E-006  0.1271280E+03  0.7546771E-02  0.1242435E+00
         -2   -1    0    0    0  501 -0.00000000000E+00  0.00000000000E+00  0.17704155152E+03  0.17704155152E+03  0.00000000000E+00 0.  1.
          2   -1    0    0  501    0  0.00000000000E+00 -0.00000000000E+00 -0.11925038294E+03  0.11925038294E+03  0.00000000000E+00 0. -1.
          5    1    1    2  502    0 -0.27627096695E+02 -0.84430210602E+01  0.28813183241E+02  0.41071043387E+02  0.47000000000E+01 0. -1.
         -5    1    1    2    0  502  0.32219794777E+02  0.31235969620E+02 -0.88570362848E+02  0.99401207984E+02  0.47000000000E+01 0. -1.
        -11    1    1    2    0    0 -0.27669732984E+02 -0.45715048119E+02  0.11020137798E+03  0.12247376640E+03  0.00000000000E+00 0.  1.
         11    1    1    2    0    0  0.23077034902E+02  0.22922099559E+02  0.73469702069E+01  0.33345916680E+02  0.00000000000E+00 0. -1.
<mgrwt>
<rscale>  0 0.12040198E+03</rscale>
<asrwt>0</asrwt>
<pdfrwt beam="2">  1        2 0.18346213E-01 0.12712802E+03</pdfrwt>
<pdfrwt beam="1">  1       -2 0.27237162E-01 0.12712802E+03</pdfrwt>
<totfact> 0.35786824E+03</totfact>
</mgrwt>
</event>
<event>
 6    1  0.4705246E-006  0.1383760E+03  0.7546771E-02  0.1227359E+00
         -1   -1    0    0    0  501 -0.00000000000E+00  0.00000000000E+00  0.16343111302E+02  0.16343111302E+02  0.00000000000E+00 0.  1.
          1   -1    0    0  501    0  0.00000000000E+00 -0.00000000000E+00 -0.10016974042E+04  0.10016974042E+04  0.00000000000E+00 0. -1.
          5    1    1    2  502    0  0.18374106620E+02  0.61421482551E+01 -0.15248986613E+02  0.25098911770E+02  0.47000000000E+01 0.  1.
         -5    1    1    2    0  502 -0.68107675188E+02  0.26202095959E+02 -0.67023548369E+03  0.67421279938E+03  0.47000000000E+01 0.  1.
        -11    1    1    2    0    0  0.59465285399E+02 -0.85429482796E+01 -0.27961405086E+03  0.28599496424E+03  0.00000000000E+00 0. -1.
         11    1    1    2    0    0 -0.97317168314E+01 -0.23801295935E+02 -0.20255771768E+02  0.32733840144E+02  0.00000000000E+00 0.  1.
<mgrwt>
<rscale>  0 0.13006529E+03</rscale>
<asrwt>0</asrwt>
<pdfrwt beam="2">  1        1 0.15410730E+00 0.13837597E+03</pdfrwt>
<pdfrwt beam="1">  1       -1 0.25143247E-02 0.13837597E+03</pdfrwt>
<totfact> 0.75746717E+03</totfact>
</mgrwt>
</event>
<event>
 6    1  0.4705246E-006  0.1351327E+03  0.7546771E-02  0.1234159E+00
          1   -1    0    0  501    0  0.00000000000E+00  0.00000000000E+00  0.83079976560E+02  0.83079976560E+02  0.00000000000E+00 0. -1.
         -1   -1    0    0    0  501 -0.00000000000E+00 -0.00000000000E+00 -0.17281706477E+03  0.17281706477E+03  0.00000000000E+00 0.  1.
          5    1    1    2  502    0  0.26691656421E+02 -0.51191117928E+02  0.16596234562E+02  0.60253631251E+02  0.47000000000E+01 0. -1.
         -5    1    1    2    0  502 -0.58925184463E+02  0.22457868527E+02 -0.45587047014E+02  0.77953845820E+02  0.47000000000E+01 0.  1.
        -11    1    1    2    0    0  0.44133004324E+02  0.20380784118E+02 -0.79970996246E+02  0.93586637254E+02  0.00000000000E+00 0.  1.
         11    1    1    2    0    0 -0.11899476282E+02  0.83524652839E+01  0.19224720491E+02  0.24102927002E+02  0.00000000000E+00 0. -1.
<mgrwt>
<rscale>  0 0.12558445E+03</rscale>
<asrwt>0</asrwt>
<pdfrwt beam="1">  1        1 0.12781535E-01 0.13513267E+03</pdfrwt>
<pdfrwt beam="2">  1       -1 0.26587241E-01 0.13513267E+03</pdfrwt>
<totfact> 0.55083042E+03</totfact>
</mgrwt>
</event>
<event>
 6    1  0.4705246E-006  0.1403784E+03  0.7546771E-02  0.1224096E+00
         -2   -1    0    0    0  501 -0.00000000000E+00  0.00000000000E+00  0.12045571988E+02  0.12045571988E+02  0.00000000000E+00 0.  1.
          2   -1    0    0  501    0  0.00000000000E+00 -0.00000000000E+00 -0.14031396242E+04  0.14031396242E+04  0.00000000000E+00 0. -1.
          5    1    1    2  502    0  0.22362632063E+02  0.36541217842E+02 -0.20233543234E+03  0.20687451533E+03  0.47000000000E+01 0. -1.
         -5    1    1    2    0  502  0.84987869503E+01 -0.92493618188E+02 -0.75234870237E+03  0.75807516695E+03  0.47000000000E+01 0. -1.
        -11    1    1    2    0    0 -0.33512646482E+02 -0.14492372209E+02 -0.20848167515E+03  0.21165475473E+03  0.00000000000E+00 0. -1.
         11    1    1    2    0    0  0.26512274686E+01  0.70444772554E+02 -0.22792824233E+03  0.23858075915E+03  0.00000000000E+00 0.  1.
<mgrwt>
<rscale>  0 0.13229073E+03</rscale>
<asrwt>0</asrwt>
<pdfrwt beam="2">  1        2 0.21586768E+00 0.14037839E+03</pdfrwt>
<pdfrwt beam="1">  1       -2 0.18531645E-02 0.14037839E+03</pdfrwt>
<totfact> 0.12928676E+04</totfact>
</mgrwt>
</event>
<event>
 6    1  0.4705246E-006  0.1646509E+03  0.7546771E-02  0.1191904E+00
          2   -1    0    0  501    0  0.00000000000E+00  0.00000000000E+00  0.14994055990E+04  0.14994055990E+04  0.00000000000E+00 0. -1.
         -2   -1    0    0    0  501 -0.00000000000E+00 -0.00000000000E+00 -0.21046348939E+02  0.21046348939E+02  0.00000000000E+00 0.  1.
          5    1    1    2  502    0  0.24487760757E+02  0.12893813994E+03  0.10460786120E+04  0.10542899255E+04  0.47000000000E+01 0.  1.
         -5    1    1    2    0  502 -0.20204296984E+02 -0.21850861872E+02  0.14345302974E+03  0.14658286231E+03  0.47000000000E+01 0.  1.
        -11    1    1    2    0    0  0.39260529932E+01 -0.98193991209E+02  0.29112125819E+03  0.30726057471E+03  0.00000000000E+00 0. -1.
         11    1    1    2    0    0 -0.82095167656E+01 -0.88932868601E+01 -0.22936499468E+01  0.12318585421E+02  0.00000000000E+00 0.  1.
<mgrwt>
<rscale>  0 0.15719211E+03</rscale>
<asrwt>0</asrwt>
<pdfrwt beam="1">  1        2 0.23067770E+00 0.16465092E+03</pdfrwt>
<pdfrwt beam="2">  1       -2 0.32379010E-02 0.16465092E+03</pdfrwt>
<totfact> 0.51092638E+03</totfact>
</mgrwt>
</event>
<event>
 6    1  0.4705246E-006  0.2209997E+03  0.7546771E-02  0.1157017E+00
         -2   -1    0    0    0  501 -0.00000000000E+00  0.00000000000E+00  0.15451201622E+03  0.15451201622E+03  0.00000000000E+00 0.  1.
          2   -1    0    0  501    0  0.00000000000E+00 -0.00000000000E+00 -0.22245372316E+03  0.22245372316E+03  0.00000000000E+00 0. -1.
          5    1    1    2  502    0 -0.41668659115E+02  0.57971551990E+02 -0.14331470766E+01  0.71562014387E+02  0.47000000000E+01 0. -1.
         -5    1    1    2    0  502  0.11993301460E+02 -0.13751815643E+03 -0.10635091638E+03  0.17432065295E+03  0.47000000000E+01 0.  1.
        -11    1    1    2    0    0  0.58881526514E+02  0.36642349834E+02  0.38153100855E+02  0.79153995924E+02  0.00000000000E+00 0.  1.
         11    1    1    2    0    0 -0.29206168859E+02  0.42904254606E+02  0.16892556665E+01  0.51929076128E+02  0.00000000000E+00 0. -1.
<mgrwt>
<rscale>  0 0.19161003E+03</rscale>
<asrwt>0</asrwt>
<pdfrwt beam="2">  1        2 0.34223650E-01 0.22099973E+03</pdfrwt>
<pdfrwt beam="1">  1       -2 0.23771079E-01 0.22099973E+03</pdfrwt>
<totfact> 0.23331661E+03</totfact>
</mgrwt>
</event>
<event>
 6    1  0.4705246E-006  0.1287674E+03  0.7546771E-02  0.1243802E+00
          1   -1    0    0  501    0  0.00000000000E+00  0.00000000000E+00  0.17111036380E+03  0.17111036380E+03  0.00000000000E+00 0. -1.
         -1   -1    0    0    0  501 -0.00000000000E+00 -0.00000000000E+00 -0.74723734431E+02  0.74723734431E+02  0.00000000000E+00 0.  1.
          5    1    1    2  502    0 -0.45232725068E+02  0.29074048768E+02  0.19747518660E+02  0.57474813806E+02  0.47000000000E+01 0.  1.
         -5    1    1    2    0  502  0.72130959138E+02 -0.13783760036E+02  0.50033309275E+02  0.88984770292E+02  0.47000000000E+01 0.  1.
        -11    1    1    2    0    0 -0.21535169315E+02  0.13938114002E+02 -0.27523815618E+02  0.37624393225E+02  0.00000000000E+00 0.  1.
         11    1    1    2    0    0 -0.53630647557E+01 -0.29228402734E+02  0.54129617053E+02  0.61750120909E+02  0.00000000000E+00 0. -1.
<mgrwt>
<rscale>  0 0.11957362E+03</rscale>
<asrwt>0</asrwt>
<pdfrwt beam="1">  1        1 0.26324671E-01 0.12876741E+03</pdfrwt>
<pdfrwt beam="2">  1       -1 0.11495959E-01 0.12876741E+03</pdfrwt>
<totfact> 0.82626231E+03</totfact>
</mgrwt>
</event>
<event>
 6    1  0.4705246E-006  0.1869933E+03  0.7546771E-02  0.1166339E+00
          2   -1    0    0  501    0  0.00000000000E+00  0.00000000000E+00  0.57290816794E+03  0.57290816794E+03  0.00000000000E+00 0. -1.
         -2   -1    0    0    0  501 -0.00000000000E+00 -0.00000000000E+00 -0.56165651834E+02  0.56165651834E+02  0.00000000000E+00 0.  1.
          5    1    1    2  502    0  0.99461143682E+02 -0.40884383956E+02  0.10645499722E+03  0.15138959141E+03  0.47000000000E+01 0. -1.
         -5    1    1    2    0  502  0.38423284813E+02  0.22745243060E+02  0.22262882924E+03  0.22711094316E+03  0.47000000000E+01 0. -1.
        -11    1    1    2    0    0 -0.25333304581E+02  0.20358614129E+02  0.10769071905E+03  0.11248795695E+03  0.00000000000E+00 0. -1.
         11    1    1    2    0    0 -0.11255112391E+03 -0.22194732323E+01  0.79967970603E+02  0.13808532825E+03  0.00000000000E+00 0.  1.
<mgrwt>
<rscale>  0 0.18152082E+03</rscale>
<asrwt>0</asrwt>
<pdfrwt beam="1">  1        2 0.88139714E-01 0.18699329E+03</pdfrwt>
<pdfrwt beam="2">  1       -2 0.86408699E-02 0.18699329E+03</pdfrwt>
<totfact> 0.43796875E+03</totfact>
</mgrwt>
</event>
<event>
 6    1  0.4705246E-006  0.2360108E+03  0.7546771E-02  0.1122479E+00
          2   -1    0    0  501    0  0.00000000000E+00  0.00000000000E+00  0.38582084125E+03  0.38582084125E+03  0.00000000000E+00 0. -1.
         -2   -1    0    0    0  501 -0.00000000000E+00 -0.00000000000E+00 -0.36092594162E+02  0.36092594162E+02  0.00000000000E+00 0.  1.
          5    1    1    2  502    0  0.27613016243E+02 -0.54961429972E+02  0.24848893280E+03  0.25603139881E+03  0.47000000000E+01 0. -1.
         -5    1    1    2    0  502 -0.15379770501E+02  0.19494656228E+02  0.72893984022E+00  0.25282411186E+02  0.47000000000E+01 0. -1.
        -11    1    1    2    0    0 -0.51441192837E+02  0.13982948866E+02  0.60099588009E+02  0.80334797307E+02  0.00000000000E+00 0. -1.
         11    1    1    2    0    0  0.39207947095E+02  0.21483824879E+02  0.40410786438E+02  0.60264828112E+02  0.00000000000E+00 0.  1.
<mgrwt>
<rscale>  0 0.23601081E+03</rscale>
<asrwt>0</asrwt>
<pdfrwt beam="1">  1        2 0.59357050E-01 0.23601081E+03</pdfrwt>
<pdfrwt beam="2">  1       -2 0.55527071E-02 0.23601081E+03</pdfrwt>
<totfact> 0.13613591E+04</totfact>
</mgrwt>
</event>
<event>
 6    1  0.4705246E-006  0.1699377E+03  0.7546771E-02  0.1184975E+00
         -2   -1    0    0    0  501 -0.00000000000E+00  0.00000000000E+00  0.17244347334E+03  0.17244347334E+03  0.00000000000E+00 0.  1.
          2   -1    0    0  501    0  0.00000000000E+00 -0.00000000000E+00 -0.15947066014E+03  0.15947066014E+03  0.00000000000E+00 0. -1.
          5    1    1    2  502    0  0.61142316754E+02 -0.48420034475E+02 -0.59523051717E+02  0.98224061830E+02  0.47000000000E+01 0. -1.
         -5    1    1    2    0  502 -0.39833805653E+02 -0.64714894701E+02  0.14660638834E+02  0.77535630519E+02  0.47000000000E+01 0. -1.
        -11    1    1    2    0    0 -0.51394601625E+01  0.95136693556E+02  0.19930944365E+01  0.95296258778E+02  0.00000000000E+00 0. -1.
         11    1    1    2    0    0 -0.16169050938E+02  0.17998235620E+02  0.55842131642E+02  0.60858182359E+02  0.00000000000E+00 0.  1.
<mgrwt>
<rscale>  0 0.16334140E+03</rscale>
<asrwt>0</asrwt>
<pdfrwt beam="2">  1        2 0.24533948E-01 0.16993773E+03</pdfrwt>
<pdfrwt beam="1">  1       -2 0.26529765E-01 0.16993773E+03</pdfrwt>
<totfact> 0.27437946E+03</totfact>
</mgrwt>
</event>
<event>
 6    1  0.4705246E-006  0.1295477E+03  0.7546771E-02  0.1241733E+00
          4   -1    0    0  501    0  0.00000000000E+00  0.00000000000E+00  0.22401676961E+03  0.22401676961E+03  0.00000000000E+00 0. -1.
         -4   -1    0    0    0  501 -0.00000000000E+00 -0.00000000000E+00 -0.59032591251E+02  0.59032591251E+02  0.00000000000E+00 0.  1.
          5    1    1    2  502    0  0.85380411328E-01 -0.34754378620E+02  0.13716625813E+03  0.14157876427E+03  0.47000000000E+01 0.  1.
         -5    1    1    2    0  502  0.18720856548E+02  0.63966468562E+01 -0.23280571776E+02  0.30910557793E+02  0.47000000000E+01 0.  1.
        -11    1    1    2    0    0  0.21642366132E+02  0.37344844684E+02 -0.19985462711E+01  0.43209068764E+02  0.00000000000E+00 0.  1.
         11    1    1    2    0    0 -0.40448603092E+02 -0.89871129198E+01  0.53097038280E+02  0.67350970037E+02  0.00000000000E+00 0. -1.
<mgrwt>
<rscale>  0 0.12083054E+03</rscale>
<asrwt>0</asrwt>
<pdfrwt beam="1">  1        4 0.34464118E-01 0.12954774E+03</pdfrwt>
<pdfrwt beam="2">  1       -4 0.90819372E-02 0.12954774E+03</pdfrwt>
<totfact> 0.11874868E+03</totfact>
</mgrwt>
</event>
<event>
 6    1  0.4705246E-006  0.1295085E+03  0.7546771E-02  0.1241916E+00
          1   -1    0    0  501    0  0.00000000000E+00  0.00000000000E+00  0.14491846234E+03  0.14491846234E+03  0.00000000000E+00 0. -1.
         -1   -1    0    0    0  501 -0.00000000000E+00 -0.00000000000E+00 -0.31775562244E+03  0.31775562244E+03  0.00000000000E+00 0.  1.
          5    1    1    2  502    0  0.45473883434E+02 -0.20084847016E+02  0.73949317205E+02  0.89229292664E+02  0.47000000000E+01 0. -1.
         -5    1    1    2    0  502 -0.56079831988E+02  0.43658363163E+02  0.31946345419E+02  0.78061893492E+02  0.47000000000E+01 0.  1.
        -11    1    1    2    0    0  0.37374405484E+02 -0.22073316246E+02 -0.25763701514E+03  0.26126788751E+03  0.00000000000E+00 0.  1.
         11    1    1    2    0    0 -0.26768456929E+02 -0.15001999010E+01 -0.21095807584E+02  0.34115011120E+02  0.00000000000E+00 0. -1.
<mgrwt>
<rscale>  0 0.12071900E+03</rscale>
<asrwt>0</asrwt>
<pdfrwt beam="1">  1        1 0.22295148E-01 0.12950849E+03</pdfrwt>
<pdfrwt beam="2">  1       -1 0.48885480E-01 0.12950849E+03</pdfrwt>
<totfact> 0.94024191E+02</totfact>
</mgrwt>
</event>
<event>
 6    1  0.4705246E-006  0.1319848E+03  0.7546771E-02  0.1237664E+00
          2   -1    0    0  501    0  0.00000000000E+00  0.00000000000E+00  0.37860160677E+03  0.37860160677E+03  0.00000000000E+00 0. -1.
         -2   -1    0    0    0  501 -0.00000000000E+00 -0.00000000000E+00 -0.40720854538E+02  0.40720854538E+02  0.00000000000E+00 0.  1.
          5    1    1    2  502    0 -0.24495271186E+02  0.11670752289E+02  0.20431117672E+03  0.20615860812E+03  0.47000000000E+01 0. -1.
         -5    1    1    2    0  502  0.40624254654E+02 -0.50852226286E+02  0.57222379616E+02  0.86791530194E+02  0.47000000000E+01 0. -1.
        -11    1    1    2    0    0 -0.33323532283E+02  0.38453336839E+02  0.29329193770E+01  0.50967822535E+02  0.00000000000E+00 0.  1.
         11    1    1    2    0    0  0.17194548815E+02  0.72813715858E+00  0.73414276524E+02  0.75404500464E+02  0.00000000000E+00 0. -1.
<mgrwt>
<rscale>  0 0.12335404E+03</rscale>
<asrwt>0</asrwt>
<pdfrwt beam="1">  1        2 0.58246399E-01 0.13198478E+03</pdfrwt>
<pdfrwt beam="2">  1       -2 0.62647471E-02 0.13198478E+03</pdfrwt>
<totfact> 0.11093717E+04</totfact>
</mgrwt>
</event>
<event>
 6    1  0.4705246E-006  0.2385502E+03  0.7546771E-02  0.1123502E+00
          2   -1    0    0  501    0  0.00000000000E+00  0.00000000000E+00  0.21619349932E+03  0.21619349932E+03  0.00000000000E+00 0. -1.
         -2   -1    0    0    0  501 -0.00000000000E+00 -0.00000000000E+00 -0.25315839591E+03  0.25315839591E+03  0.00000000000E+00 0.  1.
          5    1    1    2  502    0  0.46408336823E+02 -0.12188576895E+03 -0.33289415162E+02  0.13468537248E+03  0.47000000000E+01 0.  1.
         -5    1    1    2    0  502 -0.39209525685E+02 -0.81034736397E+02  0.53251222951E+02  0.10469860626E+03  0.47000000000E+01 0.  1.
        -11    1    1    2    0    0 -0.99255926636E+01  0.11405857371E+03  0.15189026959E+02  0.11549277971E+03  0.00000000000E+00 0.  1.
         11    1    1    2    0    0  0.27267815255E+01  0.88861931635E+02 -0.72115731337E+02  0.11447513677E+03  0.00000000000E+00 0. -1.
<mgrwt>
<rscale>  0 0.23451406E+03</rscale>
<asrwt>0</asrwt>
<pdfrwt beam="1">  1        2 0.33260538E-01 0.23855024E+03</pdfrwt>
<pdfrwt beam="2">  1       -2 0.38947445E-01 0.23855024E+03</pdfrwt>
<totfact> 0.98010817E+02</totfact>
</mgrwt>
</event>
<event>
 6    1  0.4705246E-006  0.1374062E+03  0.7546771E-02  0.1227330E+00
         -1   -1    0    0    0  501 -0.00000000000E+00  0.00000000000E+00  0.15299309948E+02  0.15299309948E+02  0.00000000000E+00 0.  1.
          1   -1    0    0  501    0  0.00000000000E+00 -0.00000000000E+00 -0.11770231126E+04  0.11770231126E+04  0.00000000000E+00 0. -1.
          5    1    1    2  502    0  0.12113574190E+02 -0.37309439029E+02 -0.19334063259E+03  0.19733581310E+03  0.47000000000E+01 0.  1.
         -5    1    1    2    0  502 -0.39482792566E+02  0.87608021597E+02 -0.66940630959E+03  0.67628466912E+03  0.47000000000E+01 0.  1.
        -11    1    1    2    0    0 -0.33851460749E+02 -0.29269220932E+02 -0.10270027834E+03  0.11202658551E+03  0.00000000000E+00 0. -1.
         11    1    1    2    0    0  0.61220679124E+02 -0.21029361636E+02 -0.19627658217E+03  0.20667535487E+03  0.00000000000E+00 0.  1.
<mgrwt>
<rscale>  0 0.13008505E+03</rscale>
<asrwt>0</asrwt>
<pdfrwt beam="2">  1        1 0.18108043E+00 0.13740619E+03</pdfrwt>
<pdfrwt beam="1">  1       -1 0.23537406E-02 0.13740619E+03</pdfrwt>
<totfact> 0.62597432E+03</totfact>
</mgrwt>
</event>
<event>
 6    1  0.4705246E-006  0.1350520E+03  0.7546771E-02  0.1232764E+00
         -1   -1    0    0    0  501 -0.00000000000E+00  0.00000000000E+00  0.15129274981E+03  0.15129274981E+03  0.00000000000E+00 0.  1.
          1   -1    0    0  501    0  0.00000000000E+00 -0.00000000000E+00 -0.10439540927E+03  0.10439540927E+03  0.00000000000E+00 0. -1.
          5    1    1    2  502    0 -0.37037578375E+02  0.16467613796E+02  0.86123472206E+01  0.41704041059E+02  0.47000000000E+01 0. -1.
         -5    1    1    2    0  502  0.86626287721E+02 -0.28887428733E+02 -0.21730614073E+02  0.93983545640E+02  0.47000000000E+01 0. -1.
        -11    1    1    2    0    0 -0.76155490449E+02  0.12597766529E+02  0.47482608249E+02  0.90625385699E+02  0.00000000000E+00 0.  1.
         11    1    1    2    0    0  0.26566781103E+02 -0.17795159236E+00  0.12532999144E+02  0.29375186680E+02  0.00000000000E+00 0. -1.
<mgrwt>
<rscale>  0 0.12648672E+03</rscale>
<asrwt>0</asrwt>
<pdfrwt beam="2">  1        1 0.16060832E-01 0.13505196E+03</pdfrwt>
<pdfrwt beam="1">  1       -1 0.23275808E-01 0.13505196E+03</pdfrwt>
<totfact> 0.50946518E+03</totfact>
</mgrwt>
</event>
<event>
 6    1  0.4705246E-006  0.1234899E+03  0.7546771E-02  0.1247660E+00
          2   -1    0    0  501    0  0.00000000000E+00  0.00000000000E+00  0.17906204182E+03  0.17906204182E+03  0.00000000000E+00 0. -1.
         -2   -1    0    0    0  501 -0.00000000000E+00 -0.00000000000E+00 -0.70350618110E+02  0.70350618110E+02  0.00000000000E+00 0.  1.
          5    1    1    2  502    0 -0.20394281719E+02 -0.61367996911E+02  0.33914482108E+02  0.73172671595E+02  0.47000000000E+01 0. -1.
         -5    1    1    2    0  502 -0.22350978629E+02  0.53964198404E+02  0.34576264076E+02  0.68039025511E+02  0.47000000000E+01 0.  1.
        -11    1    1    2    0    0  0.39001677994E+02 -0.17751573900E+02  0.61557317013E+02  0.75003683510E+02  0.00000000000E+00 0. -1.
         11    1    1    2    0    0  0.37435823538E+01  0.25155372406E+02 -0.21336639483E+02  0.33197279319E+02  0.00000000000E+00 0.  1.
<mgrwt>
<rscale>  0 0.11727587E+03</rscale>
<asrwt>0</asrwt>
<pdfrwt beam="1">  1        2 0.27548006E-01 0.12348992E+03</pdfrwt>
<pdfrwt beam="2">  1       -2 0.10823172E-01 0.12348992E+03</pdfrwt>
<totfact> 0.10526716E+04</totfact>
</mgrwt>
</event>
<event>
 6    1  0.4705246E-006  0.2279935E+03  0.7546771E-02  0.1131514E+00
         -2   -1    0    0    0  501 -0.00000000000E+00  0.00000000000E+00  0.12585002157E+03  0.12585002157E+03  0.00000000000E+00 0.  1.
          2   -1    0    0  501    0  0.00000000000E+00 -0.00000000000E+00 -0.40467819525E+03  0.40467819525E+03  0.00000000000E+00 0. -1.
          5    1    1    2  502    0  0.11947952460E+02 -0.30521471415E+01  0.11447470326E+02  0.17470081483E+02  0.47000000000E+01 0.  1.
         -5    1    1    2    0  502 -0.58209441048E+02 -0.18191845985E+03 -0.22170727824E+03  0.29267537014E+03  0.47000000000E+01 0.  1.
        -11    1    1    2    0    0  0.61179103069E+02  0.71894927839E+02 -0.20445565745E+02  0.96590809397E+02  0.00000000000E+00 0. -1.
         11    1    1    2    0    0 -0.14917614481E+02  0.11307567915E+03 -0.48122800022E+02  0.12379195579E+03  0.00000000000E+00 0.  1.
<mgrwt>
<rscale>  0 0.22320759E+03</rscale>
<asrwt>0</asrwt>
<pdfrwt beam="2">  1        2 0.62258183E-01 0.22799345E+03</pdfrwt>
<pdfrwt beam="1">  1       -2 0.19361542E-01 0.22799345E+03</pdfrwt>
<totfact> 0.17434975E+03</totfact>
</mgrwt>
</event>
<event>
 6    1  0.4705246E-006  0.1409986E+03  0.7546771E-02  0.1218003E+00
          3   -1    0    0  501    0  0.00000000000E+00  0.00000000000E+00  0.73837742279E+03  0.73837742279E+03  0.00000000000E+00 0. -1.
         -3   -1    0    0    0  501 -0.00000000000E+00 -0.00000000000E+00 -0.25632244436E+02  0.25632244436E+02  0.00000000000E+00 0.  1.
          5    1    1    2  502    0 -0.53037403355E+02 -0.29846673998E+02  0.31913763170E+03  0.32492261859E+03  0.47000000000E+01 0. -1.
         -5    1    1    2    0  502 -0.19169806830E+02  0.66881829578E+02  0.16012347541E+03  0.17464901374E+03  0.47000000000E+01 0.  1.
        -11    1    1    2    0    0 -0.19310372590E+02  0.81136499769E+01  0.54801186265E+02  0.58667638623E+02  0.00000000000E+00 0.  1.
         11    1    1    2    0    0  0.91517582775E+02 -0.45148805558E+02  0.17868288498E+03  0.20577039628E+03  0.00000000000E+00 0. -1.
<mgrwt>
<rscale>  0 0.13658274E+03</rscale>
<asrwt>0</asrwt>
<pdfrwt beam="1">  1        3 0.11359651E+00 0.14099861E+03</pdfrwt>
<pdfrwt beam="2">  1       -3 0.39434228E-02 0.14099861E+03</pdfrwt>
<totfact> 0.52290389E+02</totfact>
</mgrwt>
</event>
<event>
 6    1  0.4705246E-006  0.1370986E+03  0.7546771E-02  0.1229573E+00
          1   -1    0    0  501    0  0.00000000000E+00  0.00000000000E+00  0.92803710010E+02  0.92803710010E+02  0.00000000000E+00 0. -1.
         -1   -1    0    0    0  501 -0.00000000000E+00 -0.00000000000E+00 -0.16534807934E+03  0.16534807934E+03  0.00000000000E+00 0.  1.
          5    1    1    2  502    0  0.94400067042E+01 -0.15117659108E+02 -0.62661472911E+02  0.65316211853E+02  0.47000000000E+01 0. -1.
         -5    1    1    2    0  502 -0.50792270448E+02 -0.23134876773E+02  0.46413382817E+02  0.72741799298E+02  0.47000000000E+01 0. -1.
        -11    1    1    2    0    0 -0.71382914229E+01 -0.14179688267E+02 -0.45089155568E+02  0.47802204066E+02  0.00000000000E+00 0.  1.
         11    1    1    2    0    0  0.48490555167E+02  0.52432224148E+02 -0.11207123666E+02  0.72291574131E+02  0.00000000000E+00 0. -1.
<mgrwt>
<rscale>  0 0.12858324E+03</rscale>
<asrwt>0</asrwt>
<pdfrwt beam="1">  1        1 0.14277494E-01 0.13709856E+03</pdfrwt>
<pdfrwt beam="2">  1       -1 0.25438166E-01 0.13709856E+03</pdfrwt>
<totfact> 0.51340539E+03</totfact>
</mgrwt>
</event>
<event>
 6    1  0.4705246E-006  0.1295590E+03  0.7546771E-02  0.1242534E+00
         -1   -1    0    0    0  501 -0.00000000000E+00  0.00000000000E+00  0.19688338656E+03  0.19688338656E+03  0.00000000000E+00 0.  1.
          1   -1    0    0  501    0  0.00000000000E+00 -0.00000000000E+00 -0.99186690284E+02  0.99186690284E+02  0.00000000000E+00 0. -1.
          5    1    1    2  502    0  0.50159420840E+02  0.47994507592E+02  0.17059890302E+02  0.71641957784E+02  0.47000000000E+01 0.  1.
         -5    1    1    2    0  502 -0.30123306308E+02 -0.20462257049E+02 -0.50009032290E+02  0.62041202898E+02  0.47000000000E+01 0.  1.
        -11    1    1    2    0    0 -0.29060130705E+02  0.12961767148E+02  0.11283885697E+03  0.11723952510E+03  0.00000000000E+00 0.  1.
         11    1    1    2    0    0  0.90240161732E+01 -0.40494017692E+02  0.17806981296E+02  0.45147391060E+02  0.00000000000E+00 0. -1.
<mgrwt>
<rscale>  0 0.12034221E+03</rscale>
<asrwt>0</asrwt>
<pdfrwt beam="2">  1        1 0.15259491E-01 0.12955903E+03</pdfrwt>
<pdfrwt beam="1">  1       -1 0.30289752E-01 0.12955903E+03</pdfrwt>
<totfact> 0.35117992E+03</totfact>
</mgrwt>
</event>
<event>
 6    1  0.4705246E-006  0.2610808E+03  0.7546771E-02  0.1145902E+00
          1   -1    0    0  501    0  0.00000000000E+00  0.00000000000E+00  0.23017495529E+03  0.23017495529E+03  0.00000000000E+00 0. -1.
         -1   -1    0    0    0  501 -0.00000000000E+00 -0.00000000000E+00 -0.21957700861E+03  0.21957700861E+03  0.00000000000E+00 0.  1.
          5    1    1    2  502    0  0.10855906255E+03  0.73723595181E+02  0.14107208072E+03  0.19272690655E+03  0.47000000000E+01 0. -1.
         -5    1    1    2    0  502 -0.92417224179E+02 -0.37360049236E+02 -0.83685561288E+01  0.10014409286E+03  0.47000000000E+01 0.  1.
        -11    1    1    2    0    0 -0.33916327416E+02  0.15316472012E+02 -0.78822639072E+02  0.87166048497E+02  0.00000000000E+00 0.  1.
         11    1    1    2    0    0  0.17774489049E+02 -0.51680017957E+02 -0.43282938846E+02  0.69714915995E+02  0.00000000000E+00 0. -1.
<mgrwt>
<rscale>  0 0.20461531E+03</rscale>
<asrwt>0</asrwt>
<pdfrwt beam="1">  1        1 0.35411532E-01 0.26108082E+03</pdfrwt>
<pdfrwt beam="2">  1       -1 0.33781078E-01 0.26108082E+03</pdfrwt>
<totfact> 0.10211292E+03</totfact>
</mgrwt>
</event>
<event>
 6    1  0.4705246E-006  0.1251732E+03  0.7546771E-02  0.1250675E+00
          2   -1    0    0  501    0  0.00000000000E+00  0.00000000000E+00  0.12123450241E+03  0.12123450241E+03  0.00000000000E+00 0. -1.
         -2   -1    0    0    0  501 -0.00000000000E+00 -0.00000000000E+00 -0.97278486761E+02  0.97278486761E+02  0.00000000000E+00 0.  1.
          5    1    1    2  502    0 -0.41354207823E+02  0.88469217676E+01 -0.33635340973E+02  0.54238959170E+02  0.47000000000E+01 0. -1.
         -5    1    1    2    0  502  0.40828687770E+02 -0.15394131408E+02  0.58909942804E+02  0.73460413747E+02  0.47000000000E+01 0. -1.
        -11    1    1    2    0    0 -0.43926934197E+02  0.10538886046E+02  0.60544048873E+01  0.45577401041E+02  0.00000000000E+00 0. -1.
         11    1    1    2    0    0  0.44452454251E+02 -0.39916764057E+01 -0.73729910703E+01  0.45236215213E+02  0.00000000000E+00 0.  1.
<mgrwt>
<rscale>  0 0.11552068E+03</rscale>
<asrwt>0</asrwt>
<pdfrwt beam="1">  1        2 0.18651462E-01 0.12517318E+03</pdfrwt>
<pdfrwt beam="2">  1       -2 0.14965921E-01 0.12517318E+03</pdfrwt>
<totfact> 0.96722865E+03</totfact>
</mgrwt>
</event>
<event>
 6    1  0.4705246E-006  0.1383845E+03  0.7546771E-02  0.1226608E+00
          2   -1    0    0  501    0  0.00000000000E+00  0.00000000000E+00  0.40078720976E+03  0.40078720976E+03  0.00000000000E+00 0. -1.
         -2   -1    0    0    0  501 -0.00000000000E+00 -0.00000000000E+00 -0.39641148172E+02  0.39641148172E+02  0.00000000000E+00 0.  1.
          5    1    1    2  502    0 -0.79936765658E+01 -0.69688853514E+02  0.16081993092E+03  0.17551517128E+03  0.47000000000E+01 0. -1.
         -5    1    1    2    0  502  0.54326458978E+02  0.32546621633E+02  0.78910085601E+02  0.10128937918E+03  0.47000000000E+01 0. -1.
        -11    1    1    2    0    0 -0.66655209700E+02  0.17691141865E+02  0.45389312225E+02  0.82559573309E+02  0.00000000000E+00 0.  1.
         11    1    1    2    0    0  0.20322427288E+02  0.19451090016E+02  0.76026732847E+02  0.81064234167E+02  0.00000000000E+00 0. -1.
<mgrwt>
<rscale>  0 0.13057285E+03</rscale>
<asrwt>0</asrwt>
<pdfrwt beam="1">  1        2 0.61659568E-01 0.13838453E+03</pdfrwt>
<pdfrwt beam="2">  1       -2 0.60986385E-02 0.13838453E+03</pdfrwt>
<totfact> 0.10912808E+04</totfact>
</mgrwt>
</event>
<event>
 6    1  0.4705246E-006  0.1311862E+03  0.7546771E-02  0.1234387E+00
         -1   -1    0    0    0  501 -0.00000000000E+00  0.00000000000E+00  0.41983243347E+03  0.41983243347E+03  0.00000000000E+00 0.  1.
          1   -1    0    0  501    0  0.00000000000E+00 -0.00000000000E+00 -0.38088006273E+02  0.38088006273E+02  0.00000000000E+00 0. -1.
          5    1    1    2  502    0 -0.20635804846E+01  0.53754329892E+02  0.13267918048E+03  0.14324678453E+03  0.47000000000E+01 0. -1.
         -5    1    1    2    0  502  0.34306827494E+02 -0.30377006906E+02  0.40535933288E+01  0.46241135152E+02  0.47000000000E+01 0. -1.
        -11    1    1    2    0    0  0.22194225012E+02  0.13733240318E+02  0.15331959669E+03  0.15552518845E+03  0.00000000000E+00 0.  1.
         11    1    1    2    0    0 -0.54437472021E+02 -0.37110563304E+02  0.91692056691E+02  0.11290733160E+03  0.00000000000E+00 0. -1.
<mgrwt>
<rscale>  0 0.12543772E+03</rscale>
<asrwt>0</asrwt>
<pdfrwt beam="2">  1        1 0.58596936E-02 0.13118620E+03</pdfrwt>
<pdfrwt beam="1">  1       -1 0.64589602E-01 0.13118620E+03</pdfrwt>
<totfact> 0.32275655E+03</totfact>
</mgrwt>
</event>
<event>
 6    1  0.4705246E-006  0.1360543E+03  0.7546771E-02  0.1231480E+00
         -2   -1    0    0    0  501 -0.00000000000E+00  0.00000000000E+00  0.69911325594E+02  0.69911325594E+02  0.00000000000E+00 0.  1.
          2   -1    0    0  501    0  0.00000000000E+00 -0.00000000000E+00 -0.21379708170E+03  0.21379708170E+03  0.00000000000E+00 0. -1.
          5    1    1    2  502    0  0.25436851672E+02 -0.66948132347E+02 -0.33361497517E+02  0.79146480429E+02  0.47000000000E+01 0. -1.
         -5    1    1    2    0  502 -0.54083141289E+02  0.21502561740E+02 -0.73416919067E+02  0.93805545350E+02  0.47000000000E+01 0. -1.
        -11    1    1    2    0    0 -0.11689182728E+02 -0.22000195568E+02 -0.30195781800E+01  0.25095088170E+02  0.00000000000E+00 0.  1.
         11    1    1    2    0    0  0.40335472346E+02  0.67445766175E+02 -0.34087761341E+02  0.85661293345E+02  0.00000000000E+00 0. -1.
<mgrwt>
<rscale>  0 0.12732474E+03</rscale>
<asrwt>0</asrwt>
<pdfrwt beam="2">  1        2 0.32891858E-01 0.13605430E+03</pdfrwt>
<pdfrwt beam="1">  1       -2 0.10755589E-01 0.13605430E+03</pdfrwt>
<totfact> 0.88437273E+03</totfact>
</mgrwt>
</event>
<event>
 6    1  0.4705246E-006  0.1256973E+03  0.7546771E-02  0.1249080E+00
         -2   -1    0    0    0  501 -0.00000000000E+00  0.00000000000E+00  0.42471128543E+02  0.42471128543E+02  0.00000000000E+00 0.  1.
          2   -1    0    0  501    0  0.00000000000E+00 -0.00000000000E+00 -0.28048161532E+03  0.28048161532E+03  0.00000000000E+00 0. -1.
          5    1    1    2  502    0 -0.39599699376E+02  0.39955044287E+02 -0.50575282816E+02  0.75792420377E+02  0.47000000000E+01 0. -1.
         -5    1    1    2    0  502  0.42761652891E+02 -0.52812936048E+02 -0.88308463462E+02  0.11152685726E+03  0.47000000000E+01 0. -1.
        -11    1    1    2    0    0 -0.68232440531E+01 -0.39276093147E+02 -0.49571124971E+02  0.63611827384E+02  0.00000000000E+00 0.  1.
         11    1    1    2    0    0  0.36612905382E+01  0.52133984908E+02 -0.49555615530E+02  0.72021638841E+02  0.00000000000E+00 0. -1.
<mgrwt>
<rscale>  0 0.11644456E+03</rscale>
<asrwt>0</asrwt>
<pdfrwt beam="2">  1        2 0.43151019E-01 0.12569732E+03</pdfrwt>
<pdfrwt beam="1">  1       -2 0.65340196E-02 0.12569732E+03</pdfrwt>
<totfact> 0.14241171E+04</totfact>
</mgrwt>
</event>
<event>
 6    1  0.4705246E-006  0.1208635E+03  0.7546771E-02  0.1254622E+00
          1   -1    0    0  501    0  0.00000000000E+00  0.00000000000E+00  0.27694628241E+03  0.27694628241E+03  0.00000000000E+00 0. -1.
         -1   -1    0    0    0  501 -0.00000000000E+00 -0.00000000000E+00 -0.45172050125E+02  0.45172050125E+02  0.00000000000E+00 0.  1.
          5    1    1    2  502    0  0.51776297586E+01  0.57299814024E+02  0.15782394643E+03  0.16804929219E+03  0.47000000000E+01 0. -1.
         -5    1    1    2    0  502 -0.11491015368E+02 -0.39702284215E+02  0.18037155345E+02  0.45340310751E+02  0.47000000000E+01 0.  1.
        -11    1    1    2    0    0 -0.31400221814E+02  0.20837690144E+02  0.33428759721E+02  0.50375244288E+02  0.00000000000E+00 0. -1.
         11    1    1    2    0    0  0.37713607424E+02 -0.38435219954E+02  0.22484370781E+02  0.58353485305E+02  0.00000000000E+00 0.  1.
<mgrwt>
<rscale>  0 0.11327506E+03</rscale>
<asrwt>0</asrwt>
<pdfrwt beam="1">  1        1 0.42607119E-01 0.12086354E+03</pdfrwt>
<pdfrwt beam="2">  1       -1 0.69495464E-02 0.12086354E+03</pdfrwt>
<totfact> 0.97089644E+03</totfact>
</mgrwt>
</event>
<event>
 6    1  0.4705246E-006  0.1387524E+03  0.7546771E-02  0.1226778E+00
          4   -1    0    0  501    0  0.00000000000E+00  0.00000000000E+00  0.50821229534E+02  0.50821229534E+02  0.00000000000E+00 0. -1.
         -4   -1    0    0    0  501 -0.00000000000E+00 -0.00000000000E+00 -0.30093813756E+03  0.30093813756E+03  0.00000000000E+00 0.  1.
          5    1    1    2  502    0  0.18434460102E+02  0.64950136852E+02 -0.83991210859E+02  0.10786548613E+03  0.47000000000E+01 0. -1.
         -5    1    1    2    0  502 -0.63789258166E+02 -0.25333606688E+02 -0.50226343955E+02  0.85180025313E+02  0.47000000000E+01 0. -1.
        -11    1    1    2    0    0 -0.18299276408E+02 -0.26957372895E+02 -0.92500274193E+01  0.33869255641E+02  0.00000000000E+00 0. -1.
         11    1    1    2    0    0  0.63654074472E+02 -0.12659157269E+02 -0.10664932580E+03  0.12484460001E+03  0.00000000000E+00 0.  1.
<mgrwt>
<rscale>  0 0.13045758E+03</rscale>
<asrwt>0</asrwt>
<pdfrwt beam="1">  1        4 0.78186507E-02 0.13875236E+03</pdfrwt>
<pdfrwt beam="2">  1       -4 0.46298175E-01 0.13875236E+03</pdfrwt>
<totfact> 0.86458704E+02</totfact>
</mgrwt>
</event>
<event>
 6    1  0.4705246E-006  0.1370460E+03  0.7546771E-02  0.1229434E+00
         -2   -1    0    0    0  501 -0.00000000000E+00  0.00000000000E+00  0.36324364124E+02  0.36324364124E+02  0.00000000000E+00 0.  1.
          2   -1    0    0  501    0  0.00000000000E+00 -0.00000000000E+00 -0.40981840855E+03  0.40981840855E+03  0.00000000000E+00 0. -1.
          5    1    1    2  502    0  0.67172654938E+01  0.44594659961E+02 -0.20129902288E+03  0.20634241436E+03  0.47000000000E+01 0.  1.
         -5    1    1    2    0  502 -0.50296087424E+02 -0.91326930044E+01 -0.22421712432E+02  0.56017190933E+02  0.47000000000E+01 0.  1.
        -11    1    1    2    0    0  0.31896876124E+02 -0.17536483855E+02 -0.15702727547E+03  0.16119089370E+03  0.00000000000E+00 0. -1.
         11    1    1    2    0    0  0.11681945806E+02 -0.17925483102E+02  0.72539663474E+01  0.22592273680E+02  0.00000000000E+00 0.  1.
<mgrwt>
<rscale>  0 0.12867567E+03</rscale>
<asrwt>0</asrwt>
<pdfrwt beam="2">  1        2 0.63048983E-01 0.13704596E+03</pdfrwt>
<pdfrwt beam="1">  1       -2 0.55883639E-02 0.13704596E+03</pdfrwt>
<totfact> 0.12154323E+04</totfact>
</mgrwt>
</event>
<event>
 6    1  0.4705246E-006  0.2737175E+03  0.7546771E-02  0.1101163E+00
          2   -1    0    0  501    0  0.00000000000E+00  0.00000000000E+00  0.30771505521E+03  0.30771505521E+03  0.00000000000E+00 0.  1.
         -2   -1    0    0    0  501 -0.00000000000E+00 -0.00000000000E+00 -0.34874917490E+03  0.34874917490E+03  0.00000000000E+00 0. -1.
          5    1    1    2  502    0 -0.48203707629E+02  0.21844629342E+03  0.12028705763E+03  0.25403434172E+03  0.47000000000E+01 0. -1.
         -5    1    1    2    0  502 -0.46170519055E+02  0.60318070999E+01  0.49226814659E+02  0.67922520626E+02  0.47000000000E+01 0. -1.
        -11    1    1    2    0    0  0.74574979493E+01 -0.12201815348E+03 -0.73787214417E+02  0.14278864474E+03  0.00000000000E+00 0. -1.
         11    1    1    2    0    0  0.86916728734E+02 -0.10245994704E+03 -0.13676077756E+03  0.19171872303E+03  0.00000000000E+00 0.  1.
<mgrwt>
<rscale>  0 0.27020409E+03</rscale>
<asrwt>0</asrwt>
<pdfrwt beam="1">  1        2 0.47340778E-01 0.27371750E+03</pdfrwt>
<pdfrwt beam="2">  1       -2 0.53653719E-01 0.27371750E+03</pdfrwt>
<totfact> 0.35615232E+02</totfact>
</mgrwt>
</event>
<event>
 6    1  0.4705246E-006  0.1263190E+03  0.7546771E-02  0.1241275E+00
          2   -1    0    0  501    0  0.00000000000E+00  0.00000000000E+00  0.19562203579E+04  0.19562203579E+04  0.00000000000E+00 0. -1.
         -2   -1    0    0    0  501 -0.00000000000E+00 -0.00000000000E+00 -0.11041708083E+02  0.11041708083E+02  0.00000000000E+00 0.  1.
          5    1    1    2  502    0 -0.79438429191E+01  0.42210404335E+02  0.15242478754E+04  0.15248601571E+04  0.47000000000E+01 0. -1.
         -5    1    1    2    0  502  0.27895904506E+02  0.76687896476E+01  0.97766817158E+02  0.10206582366E+03  0.47000000000E+01 0.  1.
        -11    1    1    2    0    0 -0.29370432609E+02  0.12386029879E+02  0.45079718376E+02  0.55210660716E+02  0.00000000000E+00 0. -1.
         11    1    1    2    0    0  0.94183710223E+01 -0.62265223861E+02  0.27808423880E+03  0.28512542448E+03  0.00000000000E+00 0.  1.
<mgrwt>
<rscale>  0 0.12111128E+03</rscale>
<asrwt>0</asrwt>
<pdfrwt beam="1">  1        2 0.30095670E+00 0.12631898E+03</pdfrwt>
<pdfrwt beam="2">  1       -2 0.16987259E-02 0.12631898E+03</pdfrwt>
<totfact> 0.75827333E+03</totfact>
</mgrwt>
</event>
<event>
 6    1  0.4705246E-006  0.2631469E+03  0.7546771E-02  0.1105267E+00
          1   -1    0    0  501    0  0.00000000000E+00  0.00000000000E+00  0.16028255136E+03  0.16028255136E+03  0.00000000000E+00 0. -1.
         -1   -1    0    0    0  501 -0.00000000000E+00 -0.00000000000E+00 -0.10800656811E+03  0.10800656811E+03  0.00000000000E+00 0.  1.
          5    1    1    2  502    0  0.34822443470E+02  0.39464055965E+02  0.11454279433E+03  0.12614339466E+03  0.47000000000E+01 0. -1.
         -5    1    1    2    0  502 -0.92746900300E+01  0.90665365811E+01 -0.28105722839E+02  0.31308842474E+02  0.47000000000E+01 0.  1.
        -11    1    1    2    0    0 -0.56580989507E+02 -0.12742783734E+02 -0.16737136584E+02  0.60364879292E+02  0.00000000000E+00 0. -1.
         11    1    1    2    0    0  0.31033236067E+02 -0.35787808812E+02 -0.17423951659E+02  0.50472003049E+02  0.00000000000E+00 0.  1.
<mgrwt>
<rscale>  0 0.26314687E+03</rscale>
<asrwt>0</asrwt>
<pdfrwt beam="1">  1        1 0.24658854E-01 0.26314687E+03</pdfrwt>
<pdfrwt beam="2">  1       -1 0.16616395E-01 0.26314687E+03</pdfrwt>
<totfact> 0.52590974E+03</totfact>
</mgrwt>
</event>
<event>
 6    1  0.4705246E-006  0.4048316E+03  0.7546771E-02  0.1042119E+00
         -1   -1    0    0    0  501 -0.00000000000E+00  0.00000000000E+00  0.25199951954E+03  0.25199951954E+03  0.00000000000E+00 0.  1.
          1   -1    0    0  501    0  0.00000000000E+00 -0.00000000000E+00 -0.16258822738E+03  0.16258822738E+03  0.00000000000E+00 0. -1.
          5    1    1    2  502    0  0.97219218394E+01  0.14900597712E+01  0.34888450005E+02  0.36551743955E+02  0.47000000000E+01 0.  1.
         -5    1    1    2    0  502  0.10409061311E+03 -0.91671723051E+02 -0.80327772131E+02  0.16035336454E+03  0.47000000000E+01 0.  1.
        -11    1    1    2    0    0 -0.26066258796E+02 -0.20884512579E+01 -0.69953197625E+01  0.27069281019E+02  0.00000000000E+00 0.  1.
         11    1    1    2    0    0 -0.87746276154E+02  0.92270114538E+02  0.14184593405E+03  0.19061335741E+03  0.00000000000E+00 0. -1.
<mgrwt>
<rscale>  0 0.40483160E+03</rscale>
<asrwt>0</asrwt>
<pdfrwt beam="2">  1        1 0.25013573E-01 0.40483160E+03</pdfrwt>
<pdfrwt beam="1">  1       -1 0.38769157E-01 0.40483160E+03</pdfrwt>
<totfact> 0.12541599E+03</totfact>
</mgrwt>
</event>
<event>
 6    1  0.4705246E-006  0.1379080E+03  0.7546771E-02  0.1227946E+00
         -2   -1    0    0    0  501 -0.00000000000E+00  0.00000000000E+00  0.57949259150E+02  0.57949259150E+02  0.00000000000E+00 0. -1.
          2   -1    0    0  501    0  0.00000000000E+00 -0.00000000000E+00 -0.26045591659E+03  0.26045591659E+03  0.00000000000E+00 0.  1.
          5    1    1    2  502    0  0.51562587678E+02  0.49268366811E+02 -0.55694249140E+02  0.90609115455E+02  0.47000000000E+01 0. -1.
         -5    1    1    2    0  502 -0.65739957395E+02  0.72407316691E+01 -0.59248522739E+02  0.88919332207E+02  0.47000000000E+01 0. -1.
        -11    1    1    2    0    0 -0.17474952520E+02  0.15331623379E+02 -0.42275221319E+02  0.48245486614E+02  0.00000000000E+00 0. -1.
         11    1    1    2    0    0  0.31652322237E+02 -0.71840721859E+02 -0.45288664239E+02  0.90631241461E+02  0.00000000000E+00 0.  1.
<mgrwt>
<rscale>  0 0.12967006E+03</rscale>
<asrwt>0</asrwt>
<pdfrwt beam="2">  1        2 0.40070140E-01 0.13790802E+03</pdfrwt>
<pdfrwt beam="1">  1       -2 0.89152709E-02 0.13790802E+03</pdfrwt>
<totfact> 0.96219732E+03</totfact>
</mgrwt>
</event>
<event>
 6    1  0.4705246E-006  0.3306953E+03  0.7546771E-02  0.1070830E+00
         -3   -1    0    0    0  501 -0.00000000000E+00  0.00000000000E+00  0.14286144126E+03  0.14286144126E+03  0.00000000000E+00 0.  1.
          3   -1    0    0  501    0  0.00000000000E+00 -0.00000000000E+00 -0.19137320629E+03  0.19137320629E+03  0.00000000000E+00 0. -1.
          5    1    1    2  502    0  0.89732582531E+02  0.75646594497E+02 -0.62920920056E+02  0.13324967470E+03  0.47000000000E+01 0.  1.
         -5    1    1    2    0  502  0.20963006720E+02 -0.46048084642E+02 -0.12486342048E+02  0.52324683350E+02  0.47000000000E+01 0.  1.
        -11    1    1    2    0    0 -0.61111757611E+02  0.27993281565E+02  0.27593171841E+02  0.72661226685E+02  0.00000000000E+00 0.  1.
         11    1    1    2    0    0 -0.49583831640E+02 -0.57591791421E+02 -0.69767476235E+00  0.75999062818E+02  0.00000000000E+00 0. -1.
<mgrwt>
<rscale>  0 0.33069534E+03</rscale>
<asrwt>0</asrwt>
<pdfrwt beam="2">  1        3 0.29442032E-01 0.33069534E+03</pdfrwt>
<pdfrwt beam="1">  1       -3 0.21978683E-01 0.33069534E+03</pdfrwt>
<totfact> 0.54447709E+02</totfact>
</mgrwt>
</event>
<event>
 6    1  0.4705246E-006  0.1291997E+03  0.7546771E-02  0.1242426E+00
         -1   -1    0    0    0  501 -0.00000000000E+00  0.00000000000E+00  0.22331005465E+03  0.22331005465E+03  0.00000000000E+00 0.  1.
          1   -1    0    0  501    0  0.00000000000E+00 -0.00000000000E+00 -0.69314448891E+02  0.69314448891E+02  0.00000000000E+00 0. -1.
          5    1    1    2  502    0  0.46386128429E+02 -0.93832285766E+01  0.19686024843E+02  0.51471812317E+02  0.47000000000E+01 0.  1.
         -5    1    1    2    0  502 -0.77770010701E+02  0.18498790612E+02  0.63852369226E+01  0.80332067502E+02  0.47000000000E+01 0.  1.
        -11    1    1    2    0    0  0.32558910663E+02 -0.23688191185E+02  0.13754628944E+03  0.14331850824E+03  0.00000000000E+00 0.  1.
         11    1    1    2    0    0 -0.11750283905E+01  0.14572629149E+02 -0.96219454500E+01  0.17502115480E+02  0.00000000000E+00 0. -1.
<mgrwt>
<rscale>  0 0.12040754E+03</rscale>
<asrwt>0</asrwt>
<pdfrwt beam="2">  1        1 0.10663761E-01 0.12919966E+03</pdfrwt>
<pdfrwt beam="1">  1       -1 0.34355393E-01 0.12919966E+03</pdfrwt>
<totfact> 0.45283314E+03</totfact>
</mgrwt>
</event>
<event>
 6    1  0.4705246E-006  0.1429264E+03  0.7546771E-02  0.1219896E+00
         -2   -1    0    0    0  501 -0.00000000000E+00  0.00000000000E+00  0.19753742158E+02  0.19753742158E+02  0.00000000000E+00 0.  1.
          2   -1    0    0  501    0  0.00000000000E+00 -0.00000000000E+00 -0.84015767674E+03  0.84015767674E+03  0.00000000000E+00 0. -1.
          5    1    1    2  502    0  0.16675374328E+02 -0.14513607657E+02 -0.99033830837E+01  0.24675492147E+02  0.47000000000E+01 0.  1.
         -5    1    1    2    0  502  0.17248503271E+02  0.75087708276E+02 -0.46179003687E+03  0.46819632949E+03  0.47000000000E+01 0.  1.
        -11    1    1    2    0    0 -0.65123980654E+02 -0.46522740879E+02 -0.25579926970E+03  0.26802754458E+03  0.00000000000E+00 0. -1.
         11    1    1    2    0    0  0.31200103055E+02 -0.14051359739E+02 -0.92911244932E+02  0.99012052681E+02  0.00000000000E+00 0.  1.
<mgrwt>
<rscale>  0 0.13522969E+03</rscale>
<asrwt>0</asrwt>
<pdfrwt beam="2">  1        2 0.12925499E+00 0.14292638E+03</pdfrwt>
<pdfrwt beam="1">  1       -2 0.30390380E-02 0.14292638E+03</pdfrwt>
<totfact> 0.13270622E+04</totfact>
</mgrwt>
</event>
<event>
 6    1  0.4705246E-006  0.1550437E+03  0.7546771E-02  0.1203360E+00
         -2   -1    0    0    0  501 -0.00000000000E+00  0.00000000000E+00  0.53245465331E+02  0.53245465331E+02  0.00000000000E+00 0.  1.
          2   -1    0    0  501    0  0.00000000000E+00 -0.00000000000E+00 -0.56002914417E+03  0.56002914417E+03  0.00000000000E+00 0. -1.
          5    1    1    2  502    0 -0.21516978666E+02 -0.10055518789E+03 -0.22763910430E+03  0.24983189946E+03  0.47000000000E+01 0. -1.
         -5    1    1    2    0  502 -0.32393145632E+02  0.26345321097E+02 -0.21788051190E+03  0.22189501863E+03  0.47000000000E+01 0. -1.
        -11    1    1    2    0    0  0.40811776529E+02  0.91649701435E+02 -0.64826686070E+02  0.11944776307E+03  0.00000000000E+00 0. -1.
         11    1    1    2    0    0  0.13098347769E+02 -0.17439834644E+02  0.35626234301E+01  0.22099928335E+02  0.00000000000E+00 0.  1.
<mgrwt>
<rscale>  0 0.14767455E+03</rscale>
<asrwt>0</asrwt>
<pdfrwt beam="2">  1        2 0.86158337E-01 0.15504373E+03</pdfrwt>
<pdfrwt beam="1">  1       -2 0.81916094E-02 0.15504373E+03</pdfrwt>
<totfact> 0.48447388E+03</totfact>
</mgrwt>
</event>
<event>
 6    1  0.4705246E-006  0.2463314E+03  0.7546771E-02  0.1118128E+00
         -1   -1    0    0    0  501 -0.00000000000E+00  0.00000000000E+00  0.15507952235E+03  0.15507952235E+03  0.00000000000E+00 0.  1.
          1   -1    0    0  501    0  0.00000000000E+00 -0.00000000000E+00 -0.39278160076E+03  0.39278160076E+03  0.00000000000E+00 0. -1.
          5    1    1    2  502    0  0.99385248020E+02 -0.36215274650E+02 -0.70340628305E+02  0.12711753472E+03  0.47000000000E+01 0. -1.
         -5    1    1    2    0  502  0.10560467414E+03  0.91306853739E+02 -0.12082918719E+03  0.18469182769E+03  0.47000000000E+01 0. -1.
        -11    1    1    2    0    0 -0.76170590796E+02  0.34175025854E+01 -0.55463764207E+02  0.94286093175E+02  0.00000000000E+00 0.  1.
         11    1    1    2    0    0 -0.12881933137E+03 -0.58509081675E+02  0.89315012873E+01  0.14176566752E+03  0.00000000000E+00 0. -1.
<mgrwt>
<rscale>  0 0.24251582E+03</rscale>
<asrwt>0</asrwt>
<pdfrwt beam="2">  1        1 0.60427939E-01 0.24633144E+03</pdfrwt>
<pdfrwt beam="1">  1       -1 0.23858388E-01 0.24633144E+03</pdfrwt>
<totfact> 0.93554620E+02</totfact>
</mgrwt>
</event>
<event>
 6    1  0.4705246E-006  0.1868473E+03  0.7546771E-02  0.1166615E+00
         -1   -1    0    0    0  501 -0.00000000000E+00  0.00000000000E+00  0.74545115268E+02  0.74545115268E+02  0.00000000000E+00 0.  1.
          1   -1    0    0  501    0  0.00000000000E+00 -0.00000000000E+00 -0.73003192586E+03  0.73003192586E+03  0.00000000000E+00 0. -1.
          5    1    1    2  502    0 -0.13346716324E+02  0.40857080357E+02 -0.49911524953E+02  0.66035491783E+02  0.47000000000E+01 0. -1.
         -5    1    1    2    0  502 -0.11620069882E+03  0.91891367826E+01 -0.55275208395E+03  0.56492831311E+03  0.47000000000E+01 0. -1.
        -11    1    1    2    0    0  0.19767693517E+02 -0.51620732972E+02 -0.22777483435E+02  0.59785245096E+02  0.00000000000E+00 0. -1.
         11    1    1    2    0    0  0.10977972163E+03  0.15745158329E+01 -0.30045718256E+02  0.11382799114E+03  0.00000000000E+00 0.  1.
<mgrwt>
<rscale>  0 0.18123298E+03</rscale>
<asrwt>0</asrwt>
<pdfrwt beam="2">  1        1 0.11231260E+00 0.18684726E+03</pdfrwt>
<pdfrwt beam="1">  1       -1 0.11468480E-01 0.18684726E+03</pdfrwt>
<totfact> 0.13014067E+03</totfact>
</mgrwt>
</event>
<event>
 6    1  0.4705246E-006  0.1674545E+03  0.7546771E-02  0.1187708E+00
         -1   -1    0    0    0  501 -0.00000000000E+00  0.00000000000E+00  0.34984259492E+03  0.34984259492E+03  0.00000000000E+00 0.  1.
          1   -1    0    0  501    0  0.00000000000E+00 -0.00000000000E+00 -0.14915803539E+03  0.14915803539E+03  0.00000000000E+00 0. -1.
          5    1    1    2  502    0 -0.44503708353E+02 -0.10562388195E+03 -0.70897817845E+02  0.13485390269E+03  0.47000000000E+01 0.  1.
         -5    1    1    2    0  502 -0.38354254289E+02  0.31126349131E+02 -0.80100758429E+01  0.50260817217E+02  0.47000000000E+01 0.  1.
        -11    1    1    2    0    0  0.74502494251E+02  0.29056870692E+02  0.24022657636E+03  0.25318714693E+03  0.00000000000E+00 0.  1.
         11    1    1    2    0    0  0.83554683912E+01  0.45440662125E+02  0.39365876859E+02  0.60698763475E+02  0.00000000000E+00 0. -1.
<mgrwt>
<rscale>  0 0.16087909E+03</rscale>
<asrwt>0</asrwt>
<pdfrwt beam="2">  1        1 0.22947390E-01 0.16745448E+03</pdfrwt>
<pdfrwt beam="1">  1       -1 0.53821937E-01 0.16745448E+03</pdfrwt>
<totfact> 0.76264180E+02</totfact>
</mgrwt>
</event>
<event>
 6    1  0.4705246E-006  0.1296405E+03  0.7546771E-02  0.1242978E+00
          1   -1    0    0  501    0  0.00000000000E+00  0.00000000000E+00  0.86498940272E+02  0.86498940272E+02  0.00000000000E+00 0. -1.
         -1   -1    0    0    0  501 -0.00000000000E+00 -0.00000000000E+00 -0.15143655685E+03  0.15143655685E+03  0.00000000000E+00 0.  1.
          5    1    1    2  502    0  0.17191631747E+02  0.53103034840E+02  0.38448486585E+02  0.67940125345E+02  0.47000000000E+01 0.  1.
         -5    1    1    2    0  502  0.83278548808E+01 -0.29978067232E+02 -0.54175702886E+02  0.62650893570E+02  0.47000000000E+01 0.  1.
        -11    1    1    2    0    0  0.12334469455E+02 -0.41635965726E+02 -0.11669569387E+01  0.43440241334E+02  0.00000000000E+00 0. -1.
         11    1    1    2    0    0 -0.37853956084E+02  0.18510998119E+02 -0.48043443340E+02  0.63904236875E+02  0.00000000000E+00 0.  1.
<mgrwt>
<rscale>  0 0.12007229E+03</rscale>
<asrwt>0</asrwt>
<pdfrwt beam="1">  1        1 0.13307529E-01 0.12964054E+03</pdfrwt>
<pdfrwt beam="2">  1       -1 0.23297932E-01 0.12964054E+03</pdfrwt>
<totfact> 0.64718098E+03</totfact>
</mgrwt>
</event>
<event>
 6    1  0.4705246E-006  0.1680837E+03  0.7546771E-02  0.1186492E+00
          2   -1    0    0  501    0  0.00000000000E+00  0.00000000000E+00  0.37221584254E+03  0.37221584254E+03  0.00000000000E+00 0. -1.
         -2   -1    0    0    0  501 -0.00000000000E+00 -0.00000000000E+00 -0.66199218896E+02  0.66199218896E+02  0.00000000000E+00 0.  1.
          5    1    1    2  502    0  0.23812003610E+02 -0.41024860974E+02  0.17518869143E+03  0.18155775483E+03  0.47000000000E+01 0. -1.
         -5    1    1    2    0  502  0.38816304456E+02 -0.52276522346E+02  0.59492351406E+01  0.65551687080E+02  0.47000000000E+01 0. -1.
        -11    1    1    2    0    0 -0.86088334857E+02  0.75377247790E+02  0.89787050285E+02  0.14544636565E+03  0.00000000000E+00 0.  1.
         11    1    1    2    0    0  0.23460026790E+02  0.17924135530E+02  0.35091646787E+02  0.45859253872E+02  0.00000000000E+00 0. -1.
<mgrwt>
<rscale>  0 0.16196820E+03</rscale>
<asrwt>0</asrwt>
<pdfrwt beam="1">  1        2 0.57263974E-01 0.16808369E+03</pdfrwt>
<pdfrwt beam="2">  1       -2 0.10184495E-01 0.16808369E+03</pdfrwt>
<totfact> 0.54055287E+03</totfact>
</mgrwt>
</event>
<event>
 6    1  0.4705246E-006  0.1565071E+03  0.7546771E-02  0.1200868E+00
          2   -1    0    0  501    0  0.00000000000E+00  0.00000000000E+00  0.57424854860E+03  0.57424854860E+03  0.00000000000E+00 0. -1.
         -2   -1    0    0    0  501 -0.00000000000E+00 -0.00000000000E+00 -0.37938649179E+02  0.37938649179E+02  0.00000000000E+00 0.  1.
          5    1    1    2  502    0  0.69303103279E+02  0.14265875622E+02  0.12450692209E+03  0.14328467810E+03  0.47000000000E+01 0. -1.
         -5    1    1    2    0  502 -0.33371160496E+01 -0.81479002485E+02  0.23574725065E+03  0.24949713501E+03  0.47000000000E+01 0. -1.
        -11    1    1    2    0    0 -0.29415258430E+02  0.33433994902E+02  0.94482949183E+01  0.45523177838E+02  0.00000000000E+00 0.  1.
         11    1    1    2    0    0 -0.36550728800E+02  0.33779131962E+02  0.16660743177E+03  0.17388220683E+03  0.00000000000E+00 0. -1.
<mgrwt>
<rscale>  0 0.14967932E+03</rscale>
<asrwt>0</asrwt>
<pdfrwt beam="1">  1        2 0.88345924E-01 0.15650714E+03</pdfrwt>
<pdfrwt beam="2">  1       -2 0.58367157E-02 0.15650714E+03</pdfrwt>
<totfact> 0.79272675E+03</totfact>
</mgrwt>
</event>
<event>
 6    1  0.4705246E-006  0.1482623E+03  0.7546771E-02  0.1211660E+00
          4   -1    0    0  501    0  0.00000000000E+00  0.00000000000E+00  0.41607585882E+02  0.41607585882E+02  0.00000000000E+00 0. -1.
         -4   -1    0    0    0  501 -0.00000000000E+00 -0.00000000000E+00 -0.45732564815E+03  0.45732564815E+03  0.00000000000E+00 0.  1.
          5    1    1    2  502    0  0.59553177895E+02 -0.60630845602E+02 -0.15893603400E+03  0.18029263252E+03  0.47000000000E+01 0. -1.
         -5    1    1    2    0  502 -0.60005306276E+02 -0.19096624251E+02 -0.11752318979E+03  0.13341329760E+03  0.47000000000E+01 0. -1.
        -11    1    1    2    0    0 -0.35696172051E+02  0.11489355573E+02 -0.78399903001E+02  0.86906655563E+02  0.00000000000E+00 0.  1.
         11    1    1    2    0    0  0.36148300432E+02  0.68238114280E+02 -0.60858935476E+02  0.98320648350E+02  0.00000000000E+00 0. -1.
<mgrwt>
<rscale>  0 0.14124727E+03</rscale>
<asrwt>0</asrwt>
<pdfrwt beam="1">  1        4 0.64011672E-02 0.14826230E+03</pdfrwt>
<pdfrwt beam="2">  1       -4 0.70357791E-01 0.14826230E+03</pdfrwt>
<totfact> 0.50842734E+02</totfact>
</mgrwt>
</event>
<event>
 6    1  0.8373390E-006  0.3056215E+03  0.7546771E-02  0.1084068E+00
         -1   -1    0    0    0  501 -0.00000000000E+00  0.00000000000E+00  0.54223840155E+03  0.54223840155E+03  0.00000000000E+00 0.  1.
          1   -1    0    0  501    0  0.00000000000E+00 -0.00000000000E+00 -0.18419668523E+03  0.18419668523E+03  0.00000000000E+00 0. -1.
          5    1    1    2  502    0 -0.55329026077E+02 -0.34197685965E+02  0.36867620120E+02  0.74913912361E+02  0.47000000000E+01 0.  1.
         -5    1    1    2    0  502 -0.21781854247E+03  0.90498878569E+02  0.28642789807E+02  0.23764987666E+03  0.47000000000E+01 0.  1.
        -11    1    1    2    0    0  0.20620503649E+03 -0.15661396966E+01  0.20141013277E+03  0.28825164605E+03  0.00000000000E+00 0.  1.
         11    1    1    2    0    0  0.66942532058E+02 -0.54735052908E+02  0.91121173626E+02  0.12561965172E+03  0.00000000000E+00 0. -1.
<mgrwt>
<rscale>  0 0.30235696E+03</rscale>
<asrwt>0</asrwt>
<pdfrwt beam="2">  1        1 0.28337952E-01 0.30562151E+03</pdfrwt>
<pdfrwt beam="1">  1       -1 0.83421292E-01 0.30562151E+03</pdfrwt>
<totfact> 0.24418451E+02</totfact>
</mgrwt>
</event>
<event>
 6    1  0.4705246E-006  0.3319062E+03  0.7546771E-02  0.1070297E+00
         -2   -1    0    0    0  501 -0.00000000000E+00  0.00000000000E+00  0.49383343133E+02  0.49383343133E+02  0.00000000000E+00 0.  1.
          2   -1    0    0  501    0  0.00000000000E+00 -0.00000000000E+00 -0.55768670255E+03  0.55768670255E+03  0.00000000000E+00 0. -1.
          5    1    1    2  502    0 -0.29113567698E+02  0.94468826164E+02 -0.32738823362E+03  0.34201915803E+03  0.47000000000E+01 0. -1.
         -5    1    1    2    0  502  0.84973918834E+01 -0.38269044828E+02 -0.14551010465E+03  0.15077137002E+03  0.47000000000E+01 0. -1.
        -11    1    1    2    0    0  0.12536457423E+01 -0.29431293908E+02 -0.64084331999E+02  0.70530662102E+02  0.00000000000E+00 0. -1.
         11    1    1    2    0    0  0.19362530072E+02 -0.26768487428E+02  0.28679310856E+02  0.43748855541E+02  0.00000000000E+00 0.  1.
<mgrwt>
<rscale>  0 0.33190621E+03</rscale>
<asrwt>0</asrwt>
<pdfrwt beam="2">  1        2 0.85797953E-01 0.33190621E+03</pdfrwt>
<pdfrwt beam="1">  1       -2 0.75974375E-02 0.33190621E+03</pdfrwt>
<totfact> 0.56479162E+03</totfact>
</mgrwt>
</event>
<event>
 6    1  0.4705246E-006  0.1629959E+03  0.7546771E-02  0.1192729E+00
         -2   -1    0    0    0  501 -0.00000000000E+00  0.00000000000E+00  0.71465728039E+02  0.71465728039E+02  0.00000000000E+00 0.  1.
          2   -1    0    0  501    0  0.00000000000E+00 -0.00000000000E+00 -0.31871053056E+03  0.31871053056E+03  0.00000000000E+00 0. -1.
          5    1    1    2  502    0  0.63231220366E+02  0.15288845385E+02 -0.11151083692E+03  0.12918472345E+03  0.47000000000E+01 0.  1.
         -5    1    1    2    0  502  0.26192163479E+02 -0.69570932074E+02 -0.12283831415E+02  0.75492559445E+02  0.47000000000E+01 0.  1.
        -11    1    1    2    0    0 -0.16857858592E+02  0.39904798864E+02 -0.98203144742E+02  0.10733330334E+03  0.00000000000E+00 0. -1.
         11    1    1    2    0    0 -0.72565525253E+02  0.14377287825E+02 -0.25246989449E+02  0.78165672368E+02  0.00000000000E+00 0.  1.
<mgrwt>
<rscale>  0 0.15648047E+03</rscale>
<asrwt>0</asrwt>
<pdfrwt beam="2">  1        2 0.49032389E-01 0.16299592E+03</pdfrwt>
<pdfrwt beam="1">  1       -2 0.10994727E-01 0.16299592E+03</pdfrwt>
<totfact> 0.56423003E+03</totfact>
</mgrwt>
</event>
<event>
 6    1  0.4705246E-006  0.1972868E+03  0.7546771E-02  0.1156624E+00
          2   -1    0    0  501    0  0.00000000000E+00  0.00000000000E+00  0.96184485923E+03  0.96184485923E+03  0.00000000000E+00 0. -1.
         -2   -1    0    0    0  501 -0.00000000000E+00 -0.00000000000E+00 -0.42006224524E+02  0.42006224524E+02  0.00000000000E+00 0.  1.
          5    1    1    2  502    0  0.50095815032E+02  0.88234211457E+02  0.60657750385E+03  0.61502294667E+03  0.47000000000E+01 0. -1.
         -5    1    1    2    0  502  0.15148640000E+02  0.49755922484E+02  0.57203694966E+02  0.77456347925E+02  0.47000000000E+01 0. -1.
        -11    1    1    2    0    0 -0.31413229682E+02 -0.92910265692E+01  0.10533581705E+03  0.11031205069E+03  0.00000000000E+00 0. -1.
         11    1    1    2    0    0 -0.33831225349E+02 -0.12869910737E+03  0.15072161883E+03  0.20105973846E+03  0.00000000000E+00 0.  1.
<mgrwt>
<rscale>  0 0.19205131E+03</rscale>
<asrwt>0</asrwt>
<pdfrwt beam="1">  1        2 0.14797612E+00 0.19728683E+03</pdfrwt>
<pdfrwt beam="2">  1       -2 0.64624968E-02 0.19728683E+03</pdfrwt>
<totfact> 0.36265684E+03</totfact>
</mgrwt>
</event>
<event>
 6    1  0.4705246E-006  0.1366209E+03  0.7546771E-02  0.1229672E+00
         -1   -1    0    0    0  501 -0.00000000000E+00  0.00000000000E+00  0.31416790989E+02  0.31416790989E+02  0.00000000000E+00 0.  1.
          1   -1    0    0  501    0  0.00000000000E+00 -0.00000000000E+00 -0.81871503496E+03  0.81871503496E+03  0.00000000000E+00 0. -1.
          5    1    1    2  502    0 -0.58288354354E+02 -0.15536630841E+02 -0.68668769521E+03  0.68934824284E+03  0.47000000000E+01 0. -1.
         -5    1    1    2    0  502  0.31913750111E+01  0.17063277275E+02 -0.99367698841E+01  0.20546768640E+02  0.47000000000E+01 0. -1.
        -11    1    1    2    0    0 -0.50586770319E+01  0.29864322325E+02 -0.46048833755E+01  0.30637769373E+02  0.00000000000E+00 0.  1.
         11    1    1    2    0    0  0.60155656374E+02 -0.31390968760E+02 -0.86068895500E+02  0.10959904510E+03  0.00000000000E+00 0. -1.
<mgrwt>
<rscale>  0 0.12851777E+03</rscale>
<asrwt>0</asrwt>
<pdfrwt beam="2">  1        1 0.12595618E+00 0.13662094E+03</pdfrwt>
<pdfrwt beam="1">  1       -1 0.48333518E-02 0.13662094E+03</pdfrwt>
<totfact> 0.40183631E+03</totfact>
</mgrwt>
</event>
<event>
 6    1  0.4705246E-006  0.1320487E+03  0.7546771E-02  0.1238166E+00
          1   -1    0    0  501    0  0.00000000000E+00  0.00000000000E+00  0.30789200409E+02  0.30789200409E+02  0.00000000000E+00 0. -1.
         -1   -1    0    0    0  501 -0.00000000000E+00 -0.00000000000E+00 -0.44777960296E+03  0.44777960296E+03  0.00000000000E+00 0.  1.
          5    1    1    2  502    0 -0.33853633006E+02 -0.28293143819E+02 -0.54253396209E+02  0.70086314321E+02  0.47000000000E+01 0.  1.
         -5    1    1    2    0  502  0.76292436909E+02  0.24871804001E+02 -0.22200469257E+03  0.23610869549E+03  0.47000000000E+01 0.  1.
        -11    1    1    2    0    0  0.45001310037E+01 -0.33376209620E+02 -0.82091626194E+02  0.88731379110E+02  0.00000000000E+00 0.  1.
         11    1    1    2    0    0 -0.46938934907E+02  0.36797549438E+02 -0.58640687579E+02  0.83642414447E+02  0.00000000000E+00 0. -1.
<mgrwt>
<rscale>  0 0.12303936E+03</rscale>
<asrwt>0</asrwt>
<pdfrwt beam="1">  1        1 0.47368004E-02 0.13204867E+03</pdfrwt>
<pdfrwt beam="2">  1       -1 0.68889165E-01 0.13204867E+03</pdfrwt>
<totfact> 0.38061178E+03</totfact>
</mgrwt>
</event>
<event>
 6    1  0.4705246E-006  0.1282536E+03  0.7546771E-02  0.1244507E+00
         -2   -1    0    0    0  501 -0.00000000000E+00  0.00000000000E+00  0.35055731735E+03  0.35055731735E+03  0.00000000000E+00 0. -1.
          2   -1    0    0  501    0  0.00000000000E+00 -0.00000000000E+00 -0.35719264764E+02  0.35719264764E+02  0.00000000000E+00 0.  1.
          5    1    1    2  502    0  0.51916656343E+02 -0.14448889397E+02  0.17487806879E+03  0.18305337624E+03  0.47000000000E+01 0.  1.
         -5    1    1    2    0  502 -0.35132962452E+02 -0.88285834692E+01  0.35704291146E+01  0.36702954933E+02  0.47000000000E+01 0.  1.
        -11    1    1    2    0    0  0.19223316220E+02  0.41081173637E+02  0.34461969856E+02  0.56963374902E+02  0.00000000000E+00 0. -1.
         11    1    1    2    0    0 -0.36007010110E+02 -0.17803700770E+02  0.10192758483E+03  0.10955687603E+03  0.00000000000E+00 0.  1.
<mgrwt>
<rscale>  0 0.11914955E+03</rscale>
<asrwt>0</asrwt>
<pdfrwt beam="2">  1        2 0.54952717E-02 0.12825357E+03</pdfrwt>
<pdfrwt beam="1">  1       -2 0.53931893E-01 0.12825357E+03</pdfrwt>
<totfact> 0.43266901E+03</totfact>
</mgrwt>
</event>
<event>
 6    1  0.4705246E-006  0.3128931E+03  0.7546771E-02  0.1099954E+00
         -1   -1    0    0    0  501 -0.00000000000E+00  0.00000000000E+00  0.19049473397E+03  0.19049473397E+03  0.00000000000E+00 0.  1.
          1   -1    0    0  501    0  0.00000000000E+00 -0.00000000000E+00 -0.36272609443E+03  0.36272609443E+03  0.00000000000E+00 0. -1.
          5    1    1    2  502    0  0.25754753309E+02 -0.16154269806E+03  0.64369593270E+01  0.16377690637E+03  0.47000000000E+01 0. -1.
         -5    1    1    2    0  502  0.16442707876E+02  0.11351859885E+02 -0.20669982462E+03  0.20771647711E+03  0.47000000000E+01 0.  1.
        -11    1    1    2    0    0  0.16847387093E+02  0.10182308120E+03  0.17405790939E+02  0.10466487412E+03  0.00000000000E+00 0.  1.
         11    1    1    2    0    0 -0.59044848278E+02  0.48367756973E+02  0.10625713885E+02  0.77062570801E+02  0.00000000000E+00 0. -1.
<mgrwt>
<rscale>  0 0.27232963E+03</rscale>
<asrwt>0</asrwt>
<pdfrwt beam="2">  1        1 0.55804014E-01 0.31289314E+03</pdfrwt>
<pdfrwt beam="1">  1       -1 0.29306883E-01 0.31289314E+03</pdfrwt>
<totfact> 0.73320816E+02</totfact>
</mgrwt>
</event>
<event>
 6    1  0.4705246E-006  0.1323875E+03  0.7546771E-02  0.1236435E+00
          2   -1    0    0  501    0  0.00000000000E+00  0.00000000000E+00  0.99017381224E+03  0.99017381224E+03  0.00000000000E+00 0. -1.
         -2   -1    0    0    0  501 -0.00000000000E+00 -0.00000000000E+00 -0.18243133703E+02  0.18243133703E+02  0.00000000000E+00 0.  1.
          5    1    1    2  502    0 -0.20682063902E+02 -0.39949032218E+02  0.12637687983E+03  0.13422696710E+03  0.47000000000E+01 0. -1.
         -5    1    1    2    0  502  0.61298683900E+02  0.24078592874E+02  0.65127371552E+03  0.65461198417E+03  0.47000000000E+01 0. -1.
        -11    1    1    2    0    0  0.23483390420E+02  0.28170268229E+02  0.61045081834E+02  0.71214715150E+02  0.00000000000E+00 0.  1.
         11    1    1    2    0    0 -0.64100010418E+02 -0.12299828885E+02  0.13323500135E+03  0.14836327952E+03  0.00000000000E+00 0. -1.
<mgrwt>
<rscale>  0 0.12413012E+03</rscale>
<asrwt>0</asrwt>
<pdfrwt beam="1">  1        2 0.15233439E+00 0.13238747E+03</pdfrwt>
<pdfrwt beam="2">  1       -2 0.28066367E-02 0.13238747E+03</pdfrwt>
<totfact> 0.11956976E+04</totfact>
</mgrwt>
</event>
<event>
 6    1  0.4705246E-006  0.1651489E+03  0.7546771E-02  0.1189694E+00
         -1   -1    0    0    0  501 -0.00000000000E+00  0.00000000000E+00  0.51740841791E+03  0.51740841791E+03  0.00000000000E+00 0.  1.
          1   -1    0    0  501    0  0.00000000000E+00 -0.00000000000E+00 -0.99598841530E+02  0.99598841530E+02  0.00000000000E+00 0. -1.
          5    1    1    2  502    0  0.95625245365E+02  0.60195809747E+02 -0.28327090291E+02  0.11658575002E+03  0.47000000000E+01 0. -1.
         -5    1    1    2    0  502 -0.34877890058E+02  0.29022119483E+02  0.17641033342E+02  0.48908554380E+02  0.47000000000E+01 0. -1.
        -11    1    1    2    0    0  0.16598921376E+02 -0.35804585449E+02  0.20969082022E+03  0.21337228643E+03  0.00000000000E+00 0.  1.
         11    1    1    2    0    0 -0.77346276682E+02 -0.53413343782E+02  0.21880481310E+03  0.23814066861E+03  0.00000000000E+00 0. -1.
<mgrwt>
<rscale>  0 0.15911992E+03</rscale>
<asrwt>0</asrwt>
<pdfrwt beam="2">  1        1 0.15322899E-01 0.16514894E+03</pdfrwt>
<pdfrwt beam="1">  1       -1 0.79601294E-01 0.16514894E+03</pdfrwt>
<totfact> 0.59658961E+02</totfact>
</mgrwt>
</event>
<event>
 6    1  0.4705246E-006  0.1286564E+03  0.7546771E-02  0.1243557E+00
          2   -1    0    0  501    0  0.00000000000E+00  0.00000000000E+00  0.95045965028E+03  0.95045965028E+03  0.00000000000E+00 0. -1.
         -2   -1    0    0    0  501 -0.00000000000E+00 -0.00000000000E+00 -0.14446892893E+02  0.14446892893E+02  0.00000000000E+00 0.  1.
          5    1    1    2  502    0 -0.28383417692E+02  0.30339049564E+02  0.61326619632E+03  0.61468983551E+03  0.47000000000E+01 0. -1.
         -5    1    1    2    0  502 -0.17677296589E+01 -0.34272366783E+02  0.49300067113E+02  0.60252025778E+02  0.47000000000E+01 0. -1.
        -11    1    1    2    0    0  0.41157689473E+02 -0.15823018984E+02  0.25987566529E+03  0.26358999364E+03  0.00000000000E+00 0. -1.
         11    1    1    2    0    0 -0.11006542122E+02  0.19756336203E+02  0.13570828653E+02  0.26374688244E+02  0.00000000000E+00 0.  1.
<mgrwt>
<rscale>  0 0.11972145E+03</rscale>
<asrwt>0</asrwt>
<pdfrwt beam="1">  1        2 0.14622451E+00 0.12865637E+03</pdfrwt>
<pdfrwt beam="2">  1       -2 0.22225996E-02 0.12865637E+03</pdfrwt>
<totfact> 0.17730060E+04</totfact>
</mgrwt>
</event>
<event>
 6    1  0.4705246E-006  0.1636352E+03  0.7546771E-02  0.1190888E+00
          1   -1    0    0  501    0  0.00000000000E+00  0.00000000000E+00  0.10276373361E+03  0.10276373361E+03  0.00000000000E+00 0.  1.
         -1   -1    0    0    0  501 -0.00000000000E+00 -0.00000000000E+00 -0.28006478202E+03  0.28006478202E+03  0.00000000000E+00 0. -1.
          5    1    1    2  502    0  0.11468070239E+02 -0.17063707312E+02 -0.57200212155E+02  0.60964260127E+02  0.47000000000E+01 0.  1.
         -5    1    1    2    0  502  0.92097468333E+02 -0.25231190477E+01  0.45940386920E+02  0.10305784276E+03  0.47000000000E+01 0.  1.
        -11    1    1    2    0    0 -0.10341265216E+03 -0.13546186571E+02 -0.97942023809E+02  0.14307451145E+03  0.00000000000E+00 0.  1.
         11    1    1    2    0    0 -0.15288640783E+00  0.33133012931E+02 -0.68099199368E+02  0.75731901301E+02  0.00000000000E+00 0. -1.
<mgrwt>
<rscale>  0 0.15807457E+03</rscale>
<asrwt>0</asrwt>
<pdfrwt beam="1">  1        1 0.15809805E-01 0.16363516E+03</pdfrwt>
<pdfrwt beam="2">  1       -1 0.43086889E-01 0.16363516E+03</pdfrwt>
<totfact> 0.18433703E+03</totfact>
</mgrwt>
</event>
<event>
 6    1  0.4705246E-006  0.2870525E+03  0.7546771E-02  0.1093735E+00
          2   -1    0    0  501    0  0.00000000000E+00  0.00000000000E+00  0.97328796218E+03  0.97328796218E+03  0.00000000000E+00 0. -1.
         -2   -1    0    0    0  501 -0.00000000000E+00 -0.00000000000E+00 -0.86992177959E+02  0.86992177959E+02  0.00000000000E+00 0.  1.
          5    1    1    2  502    0  0.45073959159E+01  0.12502668832E+03  0.18749044514E+03  0.22544787963E+03  0.47000000000E+01 0. -1.
         -5    1    1    2    0  502  0.10831825641E+03  0.10745027708E+03  0.40795137308E+03  0.43557412631E+03  0.47000000000E+01 0. -1.
        -11    1    1    2    0    0 -0.74920010081E+01 -0.67919000172E+01 -0.60048919429E+01  0.11760897593E+02  0.00000000000E+00 0.  1.
         11    1    1    2    0    0 -0.10533365131E+03 -0.22568506538E+03  0.29685885794E+03  0.38749723660E+03  0.00000000000E+00 0. -1.
<mgrwt>
<rscale>  0 0.28360684E+03</rscale>
<asrwt>0</asrwt>
<pdfrwt beam="1">  1        2 0.14973660E+00 0.28705249E+03</pdfrwt>
<pdfrwt beam="2">  1       -2 0.13383413E-01 0.28705249E+03</pdfrwt>
<totfact> 0.11290394E+03</totfact>
</mgrwt>
</event>
<event>
 6    1  0.4705246E-006  0.2807992E+03  0.7546771E-02  0.1095253E+00
          2   -1    0    0  501    0  0.00000000000E+00  0.00000000000E+00  0.13344251549E+03  0.13344251549E+03  0.00000000000E+00 0. -1.
         -2   -1    0    0    0  501 -0.00000000000E+00 -0.00000000000E+00 -0.14771941957E+03  0.14771941957E+03  0.00000000000E+00 0.  1.
          5    1    1    2  502    0 -0.25348891962E+02 -0.19491066790E+02 -0.17463213986E+02  0.36735838782E+02  0.47000000000E+01 0. -1.
         -5    1    1    2    0  502  0.69787099150E+02 -0.16330563409E+02  0.82577799311E+02  0.10944454965E+03  0.47000000000E+01 0.  1.
        -11    1    1    2    0    0 -0.51999868564E+02 -0.13729399095E+02 -0.20278527977E+02  0.57477834224E+02  0.00000000000E+00 0. -1.
         11    1    1    2    0    0  0.75616613751E+01  0.49551029294E+02 -0.59112961426E+02  0.77503712398E+02  0.00000000000E+00 0.  1.
<mgrwt>
<rscale>  0 0.28079922E+03</rscale>
<asrwt>0</asrwt>
<pdfrwt beam="1">  1        2 0.20529618E-01 0.28079922E+03</pdfrwt>
<pdfrwt beam="2">  1       -2 0.22726065E-01 0.28079922E+03</pdfrwt>
<totfact> 0.45092053E+03</totfact>
</mgrwt>
</event>
<event>
 6    1  0.4705246E-006  0.2971699E+03  0.7546771E-02  0.1086664E+00
         -1   -1    0    0    0  501 -0.00000000000E+00  0.00000000000E+00  0.30098250467E+02  0.30098250467E+02  0.00000000000E+00 0.  1.
          1   -1    0    0  501    0  0.00000000000E+00 -0.00000000000E+00 -0.73351404346E+03  0.73351404346E+03  0.00000000000E+00 0. -1.
          5    1    1    2  502    0  0.91697984228E+02 -0.36498558886E+02 -0.17474170134E+03  0.20074216623E+03  0.47000000000E+01 0.  1.
         -5    1    1    2    0  502 -0.11419081191E+02 -0.18955364691E+02 -0.27892900330E+03  0.27984492161E+03  0.47000000000E+01 0.  1.
        -11    1    1    2    0    0 -0.15275344788E+02  0.42314134343E+02 -0.18482203170E+03  0.19021831018E+03  0.00000000000E+00 0. -1.
         11    1    1    2    0    0 -0.65003558249E+02  0.13139789234E+02 -0.64923056647E+02  0.92806895921E+02  0.00000000000E+00 0.  1.
<mgrwt>
<rscale>  0 0.29716991E+03</rscale>
<asrwt>0</asrwt>
<pdfrwt beam="2">  1        1 0.11284831E+00 0.29716991E+03</pdfrwt>
<pdfrwt beam="1">  1       -1 0.46305004E-02 0.29716991E+03</pdfrwt>
<totfact> 0.51951847E+03</totfact>
</mgrwt>
</event>
<event>
 6    1  0.4705246E-006  0.1450902E+03  0.7546771E-02  0.1216963E+00
          1   -1    0    0  501    0  0.00000000000E+00  0.00000000000E+00  0.69345818200E+03  0.69345818200E+03  0.00000000000E+00 0. -1.
         -1   -1    0    0    0  501 -0.00000000000E+00 -0.00000000000E+00 -0.24670310487E+02  0.24670310487E+02  0.00000000000E+00 0.  1.
          5    1    1    2  502    0 -0.11568772570E+02 -0.53146045869E+02  0.83706130950E+02  0.99935704575E+02  0.47000000000E+01 0. -1.
         -5    1    1    2    0  502 -0.62117944887E+02  0.52512755417E+02  0.28092478235E+03  0.29250137076E+03  0.47000000000E+01 0. -1.
        -11    1    1    2    0    0  0.35310981102E+02  0.34421684416E+02  0.67618531300E+02  0.83689805351E+02  0.00000000000E+00 0. -1.
         11    1    1    2    0    0  0.38375736354E+02 -0.33788393963E+02  0.23653842691E+03  0.24200161180E+03  0.00000000000E+00 0.  1.
<mgrwt>
<rscale>  0 0.13733294E+03</rscale>
<asrwt>0</asrwt>
<pdfrwt beam="1">  1        1 0.10668586E+00 0.14509016E+03</pdfrwt>
<pdfrwt beam="2">  1       -1 0.37954329E-02 0.14509016E+03</pdfrwt>
<totfact> 0.73468532E+03</totfact>
</mgrwt>
</event>
<event>
 6    1  0.4705246E-006  0.1445723E+03  0.7546771E-02  0.1216680E+00
         -3   -1    0    0    0  501 -0.00000000000E+00  0.00000000000E+00  0.55871040359E+03  0.55871040359E+03  0.00000000000E+00 0.  1.
          3   -1    0    0  501    0  0.00000000000E+00 -0.00000000000E+00 -0.32325570139E+02  0.32325570139E+02  0.00000000000E+00 0. -1.
          5    1    1    2  502    0 -0.29617002296E+02 -0.42373940827E+02  0.19537157665E+03  0.20215058904E+03  0.47000000000E+01 0. -1.
         -5    1    1    2    0  502 -0.43006754283E+02  0.40521593813E+02  0.32192602148E+02  0.67453940672E+02  0.47000000000E+01 0. -1.
        -11    1    1    2    0    0 -0.56994739828E+01 -0.10033112285E+02 -0.74984139178E+00  0.11563287073E+02  0.00000000000E+00 0. -1.
         11    1    1    2    0    0  0.78323230562E+02  0.11885459300E+02  0.29957049604E+03  0.30986815694E+03  0.00000000000E+00 0.  1.
<mgrwt>
<rscale>  0 0.13753850E+03</rscale>
<asrwt>0</asrwt>
<pdfrwt beam="2">  1        3 0.49731650E-02 0.14457229E+03</pdfrwt>
<pdfrwt beam="1">  1       -3 0.85955440E-01 0.14457229E+03</pdfrwt>
<totfact> 0.68363482E+02</totfact>
</mgrwt>
</event>
<event>
 6    1  0.4705246E-006  0.1283338E+03  0.7546771E-02  0.1243197E+00
         -2   -1    0    0    0  501 -0.00000000000E+00  0.00000000000E+00  0.33254895812E+02  0.33254895812E+02  0.00000000000E+00 0.  1.
          2   -1    0    0  501    0  0.00000000000E+00 -0.00000000000E+00 -0.41071066915E+03  0.41071066915E+03  0.00000000000E+00 0. -1.
          5    1    1    2  502    0 -0.18209498267E+01  0.87387101108E+01 -0.27428783605E+03  0.27447329181E+03  0.47000000000E+01 0. -1.
         -5    1    1    2    0  502  0.67245961612E+01  0.19890435475E+02  0.65010760531E+01  0.22476734789E+02  0.47000000000E+01 0. -1.
        -11    1    1    2    0    0  0.28641575635E+02 -0.50328187888E+02 -0.67206895252E+02  0.88713207136E+02  0.00000000000E+00 0. -1.
         11    1    1    2    0    0 -0.33545221969E+02  0.21699042302E+02 -0.42462118094E+02  0.58302331230E+02  0.00000000000E+00 0.  1.
<mgrwt>
<rscale>  0 0.11993946E+03</rscale>
<asrwt>0</asrwt>
<pdfrwt beam="2">  1        2 0.63186256E-01 0.12833382E+03</pdfrwt>
<pdfrwt beam="1">  1       -2 0.51161379E-02 0.12833382E+03</pdfrwt>
<totfact> 0.13778877E+04</totfact>
</mgrwt>
</event>
<event>
 6    1  0.4705246E-006  0.2924545E+03  0.7546771E-02  0.1089075E+00
          1   -1    0    0  501    0  0.00000000000E+00  0.00000000000E+00  0.23710689678E+03  0.23710689678E+03  0.00000000000E+00 0. -1.
         -1   -1    0    0    0  501 -0.00000000000E+00 -0.00000000000E+00 -0.90180444600E+02  0.90180444600E+02  0.00000000000E+00 0.  1.
          5    1    1    2  502    0 -0.42098296082E+02 -0.38832400127E+01  0.21473784088E+02  0.47650388131E+02  0.47000000000E+01 0.  1.
         -5    1    1    2    0  502  0.61220133688E+02  0.72066529208E+02  0.13366290399E+03  0.16379667671E+03  0.47000000000E+01 0.  1.
        -11    1    1    2    0    0 -0.45698928568E+02 -0.17531678735E+02  0.18990631468E+02  0.52501389649E+02  0.00000000000E+00 0.  1.
         11    1    1    2    0    0  0.26577090962E+02 -0.50651610461E+02 -0.27200867363E+02  0.63338886883E+02  0.00000000000E+00 0. -1.
<mgrwt>
<rscale>  0 0.29245448E+03</rscale>
<asrwt>0</asrwt>
<pdfrwt beam="1">  1        1 0.36477984E-01 0.29245448E+03</pdfrwt>
<pdfrwt beam="2">  1       -1 0.13873915E-01 0.29245448E+03</pdfrwt>
<totfact> 0.42847688E+03</totfact>
</mgrwt>
</event>
<event>
 6    1  0.4705246E-006  0.1690486E+03  0.7546771E-02  0.1185564E+00
          2   -1    0    0  501    0  0.00000000000E+00  0.00000000000E+00  0.13796272465E+03  0.13796272465E+03  0.00000000000E+00 0. -1.
         -2   -1    0    0    0  501 -0.00000000000E+00 -0.00000000000E+00 -0.20343109357E+03  0.20343109357E+03  0.00000000000E+00 0.  1.
          5    1    1    2  502    0  0.17893576743E+02 -0.54164748932E+02  0.74131637991E+02  0.93656766262E+02  0.47000000000E+01 0.  1.
         -5    1    1    2    0  502  0.34641294696E+02 -0.46788790008E+02 -0.50278538985E+02  0.77066410654E+02  0.47000000000E+01 0.  1.
        -11    1    1    2    0    0 -0.69607839845E+02  0.81595252594E+02 -0.96074129192E+02  0.14399053758E+03  0.00000000000E+00 0.  1.
         11    1    1    2    0    0  0.17072968407E+02  0.19358286346E+02  0.67526612589E+01  0.26680103721E+02  0.00000000000E+00 0. -1.
<mgrwt>
<rscale>  0 0.16280692E+03</rscale>
<asrwt>0</asrwt>
<pdfrwt beam="1">  1        2 0.21225035E-01 0.16904861E+03</pdfrwt>
<pdfrwt beam="2">  1       -2 0.31297091E-01 0.16904861E+03</pdfrwt>
<totfact> 0.23987124E+03</totfact>
</mgrwt>
</event>
<event>
 6    1  0.4705246E-006  0.1701689E+03  0.7546771E-02  0.1184105E+00
         -2   -1    0    0    0  501 -0.00000000000E+00  0.00000000000E+00  0.96485474444E+02  0.96485474444E+02  0.00000000000E+00 0.  1.
          2   -1    0    0  501    0  0.00000000000E+00 -0.00000000000E+00 -0.31700035917E+03  0.31700035917E+03  0.00000000000E+00 0. -1.
          5    1    1    2  502    0 -0.53896443927E+02 -0.42527171181E+02 -0.20434143856E+03  0.21561748647E+03  0.47000000000E+01 0. -1.
         -5    1    1    2    0  502 -0.47859020229E+02 -0.12060340716E+02  0.93030514879E+00  0.49587227217E+02  0.47000000000E+01 0. -1.
        -11    1    1    2    0    0 -0.57632389607E+00  0.23529481281E+02  0.24091018141E+02  0.33680050381E+02  0.00000000000E+00 0.  1.
         11    1    1    2    0    0  0.10233178805E+03  0.31058030616E+02 -0.41194769455E+02  0.11460106955E+03  0.00000000000E+00 0. -1.
<mgrwt>
<rscale>  0 0.16413623E+03</rscale>
<asrwt>0</asrwt>
<pdfrwt beam="2">  1        2 0.48769287E-01 0.17016889E+03</pdfrwt>
<pdfrwt beam="1">  1       -2 0.14843919E-01 0.17016889E+03</pdfrwt>
<totfact> 0.35022909E+03</totfact>
</mgrwt>
</event>
<event>
 6    1  0.4705246E-006  0.2627087E+03  0.7546771E-02  0.1107703E+00
          1   -1    0    0  501    0  0.00000000000E+00  0.00000000000E+00  0.21310337133E+03  0.21310337133E+03  0.00000000000E+00 0. -1.
         -1   -1    0    0    0  501 -0.00000000000E+00 -0.00000000000E+00 -0.33073358000E+03  0.33073358000E+03  0.00000000000E+00 0.  1.
          5    1    1    2  502    0 -0.17036787244E+03 -0.15532414412E+02  0.24510456555E+02  0.17288528086E+03  0.47000000000E+01 0.  1.
         -5    1    1    2    0  502 -0.53908971128E+02  0.71216481685E+02 -0.11307454629E+02  0.90154938644E+02  0.47000000000E+01 0.  1.
        -11    1    1    2    0    0  0.16989461423E+03 -0.70158550913E+02 -0.66857859300E+02  0.19559237092E+03  0.00000000000E+00 0. -1.
         11    1    1    2    0    0  0.54382229339E+02  0.14474483640E+02 -0.63975351297E+02  0.85204360911E+02  0.00000000000E+00 0.  1.
<mgrwt>
<rscale>  0 0.25907014E+03</rscale>
<asrwt>0</asrwt>
<pdfrwt beam="1">  1        1 0.32785134E-01 0.26270866E+03</pdfrwt>
<pdfrwt beam="2">  1       -1 0.50882089E-01 0.26270866E+03</pdfrwt>
<totfact> 0.53996136E+02</totfact>
</mgrwt>
</event>
<event>
 6    1  0.4705246E-006  0.2978205E+03  0.7546771E-02  0.1086335E+00
          1   -1    0    0  501    0  0.00000000000E+00  0.00000000000E+00  0.16955028190E+03  0.16955028190E+03  0.00000000000E+00 0. -1.
         -1   -1    0    0    0  501 -0.00000000000E+00 -0.00000000000E+00 -0.13078281227E+03  0.13078281227E+03  0.00000000000E+00 0.  1.
          5    1    1    2  502    0  0.92584727999E+02  0.91554722835E+01  0.84406742803E+02  0.12570736956E+03  0.47000000000E+01 0. -1.
         -5    1    1    2    0  502  0.22814530859E+01 -0.26698464192E+02 -0.30579730850E+02  0.40929487625E+02  0.47000000000E+01 0. -1.
        -11    1    1    2    0    0 -0.63467183994E+02 -0.33900178533E+02 -0.14632111527E+02  0.73426182227E+02  0.00000000000E+00 0.  1.
         11    1    1    2    0    0 -0.31398997091E+02  0.51443170442E+02 -0.42743080006E+00  0.60270054758E+02  0.00000000000E+00 0. -1.
<mgrwt>
<rscale>  0 0.29782050E+03</rscale>
<asrwt>0</asrwt>
<pdfrwt beam="1">  1        1 0.26084659E-01 0.29782050E+03</pdfrwt>
<pdfrwt beam="2">  1       -1 0.20120433E-01 0.29782050E+03</pdfrwt>
<totfact> 0.36085574E+03</totfact>
</mgrwt>
</event>
<event>
 6    1  0.4705246E-006  0.1627846E+03  0.7546771E-02  0.1192600E+00
         -2   -1    0    0    0  501 -0.00000000000E+00  0.00000000000E+00  0.28305727117E+02  0.28305727117E+02  0.00000000000E+00 0.  1.
          2   -1    0    0  501    0  0.00000000000E+00 -0.00000000000E+00 -0.94125373486E+03  0.94125373486E+03  0.00000000000E+00 0. -1.
          5    1    1    2  502    0  0.83071147545E+02  0.93156363626E+02 -0.50889271323E+03  0.52399695345E+03  0.47000000000E+01 0. -1.
         -5    1    1    2    0  502 -0.37557580069E+02  0.66597152905E+00 -0.16084833139E+03  0.16524312709E+03  0.47000000000E+01 0. -1.
        -11    1    1    2    0    0 -0.69186657819E+02 -0.75977267426E+02 -0.21949259247E+03  0.24235580648E+03  0.00000000000E+00 0. -1.
         11    1    1    2    0    0  0.23673090344E+02 -0.17845067729E+02 -0.23714370649E+02  0.37963574963E+02  0.00000000000E+00 0.  1.
<mgrwt>
<rscale>  0 0.15659114E+03</rscale>
<asrwt>0</asrwt>
<pdfrwt beam="2">  1        2 0.14480826E+00 0.16278459E+03</pdfrwt>
<pdfrwt beam="1">  1       -2 0.43547276E-02 0.16278459E+03</pdfrwt>
<totfact> 0.67530922E+03</totfact>
</mgrwt>
</event>
<event>
 6    1  0.4705246E-006  0.1253868E+03  0.7546771E-02  0.1249141E+00
          1   -1    0    0  501    0  0.00000000000E+00  0.00000000000E+00  0.83262184664E+03  0.83262184664E+03  0.00000000000E+00 0. -1.
         -1   -1    0    0    0  501 -0.00000000000E+00 -0.00000000000E+00 -0.23464578396E+02  0.23464578396E+02  0.00000000000E+00 0.  1.
          5    1    1    2  502    0  0.21434241176E+02  0.60413630365E+02  0.26480411194E+03  0.27249319465E+03  0.47000000000E+01 0.  1.
         -5    1    1    2    0  502 -0.17040636012E+02 -0.51588300246E+02  0.44138792536E+03  0.44474388883E+03  0.47000000000E+01 0.  1.
        -11    1    1    2    0    0  0.34448370958E+02  0.24029742137E+02  0.41270795632E+02  0.58884610391E+02  0.00000000000E+00 0.  1.
         11    1    1    2    0    0 -0.38841976122E+02 -0.32855072256E+02  0.61694435307E+02  0.79964731162E+02  0.00000000000E+00 0. -1.
<mgrwt>
<rscale>  0 0.11640908E+03</rscale>
<asrwt>0</asrwt>
<pdfrwt beam="1">  1        1 0.12809565E+00 0.12538676E+03</pdfrwt>
<pdfrwt beam="2">  1       -1 0.36099358E-02 0.12538676E+03</pdfrwt>
<totfact> 0.59901125E+03</totfact>
</mgrwt>
</event>
<event>
 6    1  0.4705246E-006  0.1253212E+03  0.7546771E-02  0.1250917E+00
         -1   -1    0    0    0  501 -0.00000000000E+00  0.00000000000E+00  0.43763380514E+03  0.43763380514E+03  0.00000000000E+00 0.  1.
          1   -1    0    0  501    0  0.00000000000E+00 -0.00000000000E+00 -0.29994051140E+02  0.29994051140E+02  0.00000000000E+00 0. -1.
          5    1    1    2  502    0  0.22395396967E+02 -0.41758169573E+02  0.12914185886E+03  0.13764086690E+03  0.47000000000E+01 0.  1.
         -5    1    1    2    0  502 -0.29696144840E+02  0.46975352587E+02  0.25280475583E+02  0.61235097899E+02  0.47000000000E+01 0.  1.
        -11    1    1    2    0    0  0.11429820839E+02  0.36079797625E+02  0.18555158658E+03  0.18937207789E+03  0.00000000000E+00 0.  1.
         11    1    1    2    0    0 -0.41290729664E+01 -0.41296980639E+02  0.67665832978E+02  0.79379813593E+02  0.00000000000E+00 0. -1.
<mgrwt>
<rscale>  0 0.11538145E+03</rscale>
<asrwt>0</asrwt>
<pdfrwt beam="2">  1        1 0.46144697E-02 0.12532116E+03</pdfrwt>
<pdfrwt beam="1">  1       -1 0.67328273E-01 0.12532116E+03</pdfrwt>
<totfact> 0.41114657E+03</totfact>
</mgrwt>
</event>
<event>
 6    1  0.4705246E-006  0.1289574E+03  0.7546771E-02  0.1243799E+00
          2   -1    0    0  501    0  0.00000000000E+00  0.00000000000E+00  0.11714317568E+04  0.11714317568E+04  0.00000000000E+00 0. -1.
         -2   -1    0    0    0  501 -0.00000000000E+00 -0.00000000000E+00 -0.10988104276E+02  0.10988104276E+02  0.00000000000E+00 0.  1.
          5    1    1    2  502    0 -0.52005090199E+02  0.17046844518E+02  0.70958710674E+03  0.71170996646E+03  0.47000000000E+01 0.  1.
         -5    1    1    2    0  502  0.28606103097E+02  0.43373898441E+01  0.44251031348E+02  0.53078864536E+02  0.47000000000E+01 0.  1.
        -11    1    1    2    0    0  0.49164701866E+02 -0.36520184566E+02  0.32513831134E+03  0.33085618219E+03  0.00000000000E+00 0.  1.
         11    1    1    2    0    0 -0.25765714764E+02  0.15135950203E+02  0.81467203116E+02  0.86774847907E+02  0.00000000000E+00 0. -1.
<mgrwt>
<rscale>  0 0.11957520E+03</rscale>
<asrwt>0</asrwt>
<pdfrwt beam="1">  1        2 0.18022017E+00 0.12895743E+03</pdfrwt>
<pdfrwt beam="2">  1       -2 0.16904785E-02 0.12895743E+03</pdfrwt>
<totfact> 0.19612032E+04</totfact>
</mgrwt>
</event>
<event>
 6    1  0.4705246E-006  0.1595644E+03  0.7546771E-02  0.1196936E+00
         -1   -1    0    0    0  501 -0.00000000000E+00  0.00000000000E+00  0.46036372453E+02  0.46036372453E+02  0.00000000000E+00 0.  1.
          1   -1    0    0  501    0  0.00000000000E+00 -0.00000000000E+00 -0.47750489129E+03  0.47750489129E+03  0.00000000000E+00 0. -1.
          5    1    1    2  502    0  0.88655161514E+01 -0.19465201374E+02 -0.17466094201E+03  0.17602848095E+03  0.47000000000E+01 0. -1.
         -5    1    1    2    0  502  0.86450966215E+02  0.46864750816E+02 -0.92102652641E+02  0.13481492147E+03  0.47000000000E+01 0. -1.
        -11    1    1    2    0    0 -0.68046985520E+01  0.27924591628E+02 -0.49502475668E+02  0.57241434619E+02  0.00000000000E+00 0. -1.
         11    1    1    2    0    0 -0.88511783814E+02 -0.55324141069E+02 -0.11520244853E+03  0.15545642671E+03  0.00000000000E+00 0.  1.
<mgrwt>
<rscale>  0 0.15291492E+03</rscale>
<asrwt>0</asrwt>
<pdfrwt beam="2">  1        1 0.73462296E-01 0.15956442E+03</pdfrwt>
<pdfrwt beam="1">  1       -1 0.70825184E-02 0.15956442E+03</pdfrwt>
<totfact> 0.48457091E+03</totfact>
</mgrwt>
</event>
<event>
 6    1  0.4705246E-006  0.1502740E+03  0.7546771E-02  0.1206759E+00
          2   -1    0    0  501    0  0.00000000000E+00  0.00000000000E+00  0.85667284550E+03  0.85667284550E+03  0.00000000000E+00 0. -1.
         -2   -1    0    0    0  501 -0.00000000000E+00 -0.00000000000E+00 -0.93922000468E+02  0.93922000468E+02  0.00000000000E+00 0.  1.
          5    1    1    2  502    0  0.10267163544E+03  0.18056531744E+02  0.49349697452E+03  0.50440941399E+03  0.47000000000E+01 0. -1.
         -5    1    1    2    0  502 -0.91877817199E+01 -0.42266590807E+02  0.30740011672E+03  0.31046384942E+03  0.47000000000E+01 0.  1.
        -11    1    1    2    0    0 -0.10840666872E+03  0.22696584264E+02 -0.44590841900E+02  0.11939633135E+03  0.00000000000E+00 0.  1.
         11    1    1    2    0    0  0.14922814997E+02  0.15134747989E+01  0.64445956886E+01  0.16325251207E+02  0.00000000000E+00 0. -1.
<mgrwt>
<rscale>  0 0.14499662E+03</rscale>
<asrwt>0</asrwt>
<pdfrwt beam="1">  1        2 0.13179582E+00 0.15027403E+03</pdfrwt>
<pdfrwt beam="2">  1       -2 0.14449539E-01 0.15027403E+03</pdfrwt>
<totfact> 0.11826824E+03</totfact>
</mgrwt>
</event>
<event>
 6    1  0.4705246E-006  0.1250121E+03  0.7546771E-02  0.1251302E+00
          2   -1    0    0  501    0  0.00000000000E+00  0.00000000000E+00  0.13501789974E+02  0.13501789974E+02  0.00000000000E+00 0. -1.
         -2   -1    0    0    0  501 -0.00000000000E+00 -0.00000000000E+00 -0.86123641851E+03  0.86123641851E+03  0.00000000000E+00 0.  1.
          5    1    1    2  502    0 -0.74712180309E+01  0.60373247377E+02 -0.33953032552E+03  0.34496910014E+03  0.47000000000E+01 0.  1.
         -5    1    1    2    0  502  0.69102116660E+01 -0.58709133163E+02 -0.18595283669E+03  0.19517956045E+03  0.47000000000E+01 0.  1.
        -11    1    1    2    0    0  0.44054863203E+02  0.94823621200E+01 -0.15532000281E+03  0.16172522820E+03  0.00000000000E+00 0. -1.
         11    1    1    2    0    0 -0.43493856838E+02 -0.11146476333E+02 -0.16693146350E+03  0.17286431970E+03  0.00000000000E+00 0.  1.
<mgrwt>
<rscale>  0 0.11516022E+03</rscale>
<asrwt>0</asrwt>
<pdfrwt beam="1">  1        2 0.20771976E-02 0.12501209E+03</pdfrwt>
<pdfrwt beam="2">  1       -2 0.13249797E+00 0.12501209E+03</pdfrwt>
<totfact> 0.21471723E+03</totfact>
</mgrwt>
</event>
<event>
 6    1  0.4705246E-006  0.1514280E+03  0.7546771E-02  0.1208926E+00
         -1   -1    0    0    0  501 -0.00000000000E+00  0.00000000000E+00  0.48363840144E+03  0.48363840144E+03  0.00000000000E+00 0.  1.
          1   -1    0    0  501    0  0.00000000000E+00 -0.00000000000E+00 -0.47631735708E+02  0.47631735708E+02  0.00000000000E+00 0. -1.
          5    1    1    2  502    0 -0.69297229869E+01  0.96713630401E+02  0.30561198663E+02  0.10177241389E+03  0.47000000000E+01 0. -1.
         -5    1    1    2    0  502  0.10192085022E+02 -0.11308034882E+02  0.91077226037E+02  0.92460269048E+02  0.47000000000E+01 0. -1.
        -11    1    1    2    0    0 -0.90182461200E+01 -0.67376601529E+02  0.31032732409E+03  0.31768535263E+03  0.00000000000E+00 0.  1.
         11    1    1    2    0    0  0.57558840852E+01 -0.18028993990E+02  0.40409169456E+01  0.19352101582E+02  0.00000000000E+00 0. -1.
<mgrwt>
<rscale>  0 0.14332289E+03</rscale>
<asrwt>0</asrwt>
<pdfrwt beam="2">  1        1 0.73279597E-02 0.15142797E+03</pdfrwt>
<pdfrwt beam="1">  1       -1 0.74405904E-01 0.15142797E+03</pdfrwt>
<totfact> 0.18168564E+03</totfact>
</mgrwt>
</event>
<event>
 6    1  0.4705246E-006  0.1368589E+03  0.7546771E-02  0.1229128E+00
          2   -1    0    0  501    0  0.00000000000E+00  0.00000000000E+00  0.65575498564E+03  0.65575498564E+03  0.00000000000E+00 0. -1.
         -2   -1    0    0    0  501 -0.00000000000E+00 -0.00000000000E+00 -0.26122542290E+02  0.26122542290E+02  0.00000000000E+00 0.  1.
          5    1    1    2  502    0 -0.36169034076E+02 -0.17740847397E+02  0.24314863778E+03  0.24650818799E+03  0.47000000000E+01 0.  1.
         -5    1    1    2    0  502  0.86733254338E+02 -0.56482910828E+01  0.22555752284E+03  0.24177023537E+03  0.47000000000E+01 0.  1.
        -11    1    1    2    0    0  0.85175743306E+01 -0.28018270303E+02  0.45698376951E+02  0.54276276578E+02  0.00000000000E+00 0. -1.
         11    1    1    2    0    0 -0.59081794592E+02  0.51407408782E+02  0.11522790578E+03  0.13932282800E+03  0.00000000000E+00 0.  1.
<mgrwt>
<rscale>  0 0.12887954E+03</rscale>
<asrwt>0</asrwt>
<pdfrwt beam="1">  1        2 0.10088537E+00 0.13685888E+03</pdfrwt>
<pdfrwt beam="2">  1       -2 0.40188532E-02 0.13685888E+03</pdfrwt>
<totfact> 0.11823342E+04</totfact>
</mgrwt>
</event>
<event>
 6    1  0.4705246E-006  0.1330181E+03  0.7546771E-02  0.1237088E+00
         -2   -1    0    0    0  501 -0.00000000000E+00  0.00000000000E+00  0.84603199397E+02  0.84603199397E+02  0.00000000000E+00 0.  1.
          2   -1    0    0  501    0  0.00000000000E+00 -0.00000000000E+00 -0.16676079729E+03  0.16676079729E+03  0.00000000000E+00 0. -1.
          5    1    1    2  502    0  0.52658953720E+02 -0.22599326014E+02 -0.37944556706E+02  0.68888129070E+02  0.47000000000E+01 0.  1.
         -5    1    1    2    0  502 -0.72590927174E+02 -0.18285996893E+02 -0.34203519677E+02  0.82436588652E+02  0.47000000000E+01 0.  1.
        -11    1    1    2    0    0 -0.34720632153E+02  0.10985852745E+02  0.24851102284E+01  0.36501877082E+02  0.00000000000E+00 0.  1.
         11    1    1    2    0    0  0.54652605606E+02  0.29899470162E+02 -0.12494631737E+02  0.63537401881E+02  0.00000000000E+00 0. -1.
<mgrwt>
<rscale>  0 0.12371706E+03</rscale>
<asrwt>0</asrwt>
<pdfrwt beam="2">  1        2 0.25655507E-01 0.13301814E+03</pdfrwt>
<pdfrwt beam="1">  1       -2 0.13015877E-01 0.13301814E+03</pdfrwt>
<totfact> 0.85324416E+03</totfact>
</mgrwt>
</event>
<event>
 6    1  0.4705246E-006  0.1621757E+03  0.7546771E-02  0.1193816E+00
         -2   -1    0    0    0  501 -0.00000000000E+00  0.00000000000E+00  0.26223663981E+02  0.26223663981E+02  0.00000000000E+00 0.  1.
          2   -1    0    0  501    0  0.00000000000E+00 -0.00000000000E+00 -0.86893049152E+03  0.86893049152E+03  0.00000000000E+00 0. -1.
          5    1    1    2  502    0  0.47844697951E+02  0.58276513221E+02 -0.35403822011E+03  0.36200886510E+03  0.47000000000E+01 0.  1.
         -5    1    1    2    0  502  0.55236926632E+02 -0.51358438606E+02 -0.15887018407E+03  0.17592791895E+03  0.47000000000E+01 0.  1.
        -11    1    1    2    0    0 -0.92261867652E+02  0.16970627164E+02 -0.31129287288E+03  0.32512075774E+03  0.00000000000E+00 0.  1.
         11    1    1    2    0    0 -0.10819756931E+02 -0.23888701779E+02 -0.18505550481E+02  0.32096613706E+02  0.00000000000E+00 0. -1.
<mgrwt>
<rscale>  0 0.15554874E+03</rscale>
<asrwt>0</asrwt>
<pdfrwt beam="2">  1        2 0.13368162E+00 0.16217568E+03</pdfrwt>
<pdfrwt beam="1">  1       -2 0.40344097E-02 0.16217568E+03</pdfrwt>
<totfact> 0.84118673E+03</totfact>
</mgrwt>
</event>
<event>
 6    1  0.4705246E-006  0.2294497E+03  0.7546771E-02  0.1130018E+00
         -2   -1    0    0    0  501 -0.00000000000E+00  0.00000000000E+00  0.11175258875E+03  0.11175258875E+03  0.00000000000E+00 0.  1.
          2   -1    0    0  501    0  0.00000000000E+00 -0.00000000000E+00 -0.47307121276E+03  0.47307121276E+03  0.00000000000E+00 0. -1.
          5    1    1    2  502    0 -0.74514292304E+02 -0.52395898488E+02 -0.57130978846E+02  0.10762782484E+03  0.47000000000E+01 0.  1.
         -5    1    1    2    0  502  0.86956711150E+00 -0.12536393972E+03 -0.20897131130E+03  0.24373750732E+03  0.47000000000E+01 0.  1.
        -11    1    1    2    0    0  0.22850515455E+02  0.11029672121E+03 -0.97506923293E+02  0.14898024317E+03  0.00000000000E+00 0. -1.
         11    1    1    2    0    0  0.50794209737E+02  0.67463116998E+02  0.22905894325E+01  0.84478226176E+02  0.00000000000E+00 0.  1.
<mgrwt>
<rscale>  0 0.22526384E+03</rscale>
<asrwt>0</asrwt>
<pdfrwt beam="2">  1        2 0.72780187E-01 0.22944971E+03</pdfrwt>
<pdfrwt beam="1">  1       -2 0.17192706E-01 0.22944971E+03</pdfrwt>
<totfact> 0.17957821E+03</totfact>
</mgrwt>
</event>
<event>
 6    1  0.4705246E-006  0.2843560E+03  0.7546771E-02  0.1093333E+00
          2   -1    0    0  501    0  0.00000000000E+00  0.00000000000E+00  0.15892892666E+04  0.15892892666E+04  0.00000000000E+00 0. -1.
         -2   -1    0    0    0  501 -0.00000000000E+00 -0.00000000000E+00 -0.12719255849E+02  0.12719255849E+02  0.00000000000E+00 0.  1.
          5    1    1    2  502    0  0.89981613238E+02 -0.22975940279E+02  0.48368995475E+03  0.49254710118E+03  0.47000000000E+01 0. -1.
         -5    1    1    2    0  502 -0.15153952646E+02  0.10001988248E+02  0.68522622066E+03  0.68548285575E+03  0.47000000000E+01 0. -1.
        -11    1    1    2    0    0 -0.19919950613E+02 -0.22529149249E+02  0.37377412245E+02  0.47973304498E+02  0.00000000000E+00 0.  1.
         11    1    1    2    0    0 -0.54907709978E+02  0.35503101280E+02  0.37027642313E+03  0.37600526106E+03  0.00000000000E+00 0. -1.
<mgrwt>
<rscale>  0 0.28435595E+03</rscale>
<asrwt>0</asrwt>
<pdfrwt beam="1">  1        2 0.24450588E+00 0.28435595E+03</pdfrwt>
<pdfrwt beam="2">  1       -2 0.19568099E-02 0.28435595E+03</pdfrwt>
<totfact> 0.97678914E+03</totfact>
</mgrwt>
</event>
<event>
 6    1  0.4705246E-006  0.1337831E+03  0.7546771E-02  0.1233678E+00
         -2   -1    0    0    0  501 -0.00000000000E+00  0.00000000000E+00  0.55739150032E+02  0.55739150032E+02  0.00000000000E+00 0.  1.
          2   -1    0    0  501    0  0.00000000000E+00 -0.00000000000E+00 -0.27222783905E+03  0.27222783905E+03  0.00000000000E+00 0. -1.
          5    1    1    2  502    0 -0.54422016107E+02 -0.21118672108E+02 -0.68885681217E+02  0.90416155777E+02  0.47000000000E+01 0. -1.
         -5    1    1    2    0  502  0.36798970094E+02  0.65416445657E+02 -0.91966937275E+02  0.11880018146E+03  0.47000000000E+01 0. -1.
        -11    1    1    2    0    0  0.46200732372E+02  0.17586471729E+01 -0.42901702480E+02  0.63072629462E+02  0.00000000000E+00 0.  1.
         11    1    1    2    0    0 -0.28577686358E+02 -0.46056420722E+02 -0.12734368046E+02  0.55678022386E+02  0.00000000000E+00 0. -1.
<mgrwt>
<rscale>  0 0.12589436E+03</rscale>
<asrwt>0</asrwt>
<pdfrwt beam="2">  1        2 0.41881205E-01 0.13378307E+03</pdfrwt>
<pdfrwt beam="1">  1       -2 0.85752540E-02 0.13378307E+03</pdfrwt>
<totfact> 0.97312198E+03</totfact>
</mgrwt>
</event>
<event>
 6    1  0.4705246E-006  0.1377326E+03  0.7546771E-02  0.1228942E+00
         -1   -1    0    0    0  501 -0.00000000000E+00  0.00000000000E+00  0.23061384176E+02  0.23061384176E+02  0.00000000000E+00 0.  1.
          1   -1    0    0  501    0  0.00000000000E+00 -0.00000000000E+00 -0.69224452656E+03  0.69224452656E+03  0.00000000000E+00 0. -1.
          5    1    1    2  502    0 -0.25181947625E+01 -0.15121245071E+02 -0.35056853555E+03  0.35093501033E+03  0.47000000000E+01 0. -1.
         -5    1    1    2    0  502  0.45863636827E+02  0.53400595610E+02 -0.11824380646E+03  0.13769090225E+03  0.47000000000E+01 0. -1.
        -11    1    1    2    0    0 -0.69194048311E+02 -0.24780115880E+02 -0.16640432878E+03  0.18191281181E+03  0.00000000000E+00 0. -1.
         11    1    1    2    0    0  0.25848606246E+02 -0.13499234659E+02 -0.33966471594E+02  0.44767186351E+02  0.00000000000E+00 0.  1.
<mgrwt>
<rscale>  0 0.12900334E+03</rscale>
<asrwt>0</asrwt>
<pdfrwt beam="2">  1        1 0.10649915E+00 0.13773260E+03</pdfrwt>
<pdfrwt beam="1">  1       -1 0.35479056E-02 0.13773260E+03</pdfrwt>
<totfact> 0.81065170E+03</totfact>
</mgrwt>
</event>
<event>
 6    1  0.4705246E-006  0.1323754E+03  0.7546771E-02  0.1237377E+00
         -2   -1    0    0    0  501 -0.00000000000E+00  0.00000000000E+00  0.88176827624E+02  0.88176827624E+02  0.00000000000E+00 0.  1.
          2   -1    0    0  501    0  0.00000000000E+00 -0.00000000000E+00 -0.20445931768E+03  0.20445931768E+03  0.00000000000E+00 0. -1.
          5    1    1    2  502    0 -0.54218808353E+02  0.41988019528E+02 -0.96230993733E+02  0.11825889868E+03  0.47000000000E+01 0. -1.
         -5    1    1    2    0  502  0.13614864729E+02 -0.57797550851E+02 -0.40350567721E+02  0.71945672151E+02  0.47000000000E+01 0. -1.
        -11    1    1    2    0    0  0.44736358648E+02  0.36232389604E+02 -0.16723341916E+02  0.59948294440E+02  0.00000000000E+00 0. -1.
         11    1    1    2    0    0 -0.41324150232E+01 -0.20422858281E+02  0.37022413314E+02  0.42483280027E+02  0.00000000000E+00 0.  1.
<mgrwt>
<rscale>  0 0.12353473E+03</rscale>
<asrwt>0</asrwt>
<pdfrwt beam="2">  1        2 0.31455280E-01 0.13237544E+03</pdfrwt>
<pdfrwt beam="1">  1       -2 0.13565666E-01 0.13237544E+03</pdfrwt>
<totfact> 0.63921384E+03</totfact>
</mgrwt>
</event>
<event>
 6    1  0.4705246E-006  0.1667585E+03  0.7546771E-02  0.1188392E+00
          2   -1    0    0  501    0  0.00000000000E+00  0.00000000000E+00  0.35401031039E+03  0.35401031039E+03  0.00000000000E+00 0. -1.
         -2   -1    0    0    0  501 -0.00000000000E+00 -0.00000000000E+00 -0.67471207797E+02  0.67471207797E+02  0.00000000000E+00 0.  1.
          5    1    1    2  502    0 -0.30312139232E+02 -0.21731733807E+02  0.13146749528E+03  0.13673655822E+03  0.47000000000E+01 0.  1.
         -5    1    1    2    0  502 -0.77856083957E+02  0.43734392248E+02  0.27255614573E+02  0.93483824270E+02  0.47000000000E+01 0.  1.
        -11    1    1    2    0    0  0.16052054855E+02  0.27078508964E+02  0.57046540179E+02  0.65155367079E+02  0.00000000000E+00 0. -1.
         11    1    1    2    0    0  0.92116168334E+02 -0.49081167405E+02  0.70769452559E+02  0.12610576861E+03  0.00000000000E+00 0.  1.
<mgrwt>
<rscale>  0 0.16027019E+03</rscale>
<asrwt>0</asrwt>
<pdfrwt beam="1">  1        2 0.54463124E-01 0.16675850E+03</pdfrwt>
<pdfrwt beam="2">  1       -2 0.10380186E-01 0.16675850E+03</pdfrwt>
<totfact> 0.55324544E+03</totfact>
</mgrwt>
</event>
<event>
 6    1  0.4705246E-006  0.1572631E+03  0.7546771E-02  0.1200131E+00
         -1   -1    0    0    0  501 -0.00000000000E+00  0.00000000000E+00  0.10425068486E+03  0.10425068486E+03  0.00000000000E+00 0.  1.
          1   -1    0    0  501    0  0.00000000000E+00 -0.00000000000E+00 -0.21134472684E+03  0.21134472684E+03  0.00000000000E+00 0. -1.
          5    1    1    2  502    0 -0.10252939365E+01  0.31161004208E+02 -0.14396264053E+02  0.34661243913E+02  0.47000000000E+01 0.  1.
         -5    1    1    2    0  502  0.35333208665E+02 -0.12021249902E+03 -0.81017115151E+02  0.14928276358E+03  0.47000000000E+01 0.  1.
        -11    1    1    2    0    0 -0.37781770103E+02  0.68978787516E+02 -0.46459575062E+02  0.91345647922E+02  0.00000000000E+00 0. -1.
         11    1    1    2    0    0  0.34738553742E+01  0.20072707294E+02  0.34778912292E+02  0.40305756282E+02  0.00000000000E+00 0.  1.
<mgrwt>
<rscale>  0 0.15027872E+03</rscale>
<asrwt>0</asrwt>
<pdfrwt beam="2">  1        1 0.32514573E-01 0.15726311E+03</pdfrwt>
<pdfrwt beam="1">  1       -1 0.16038567E-01 0.15726311E+03</pdfrwt>
<totfact> 0.38269260E+03</totfact>
</mgrwt>
</event>
<event>
 6    1  0.4705246E-006  0.1974738E+03  0.7546771E-02  0.1156403E+00
          1   -1    0    0  501    0  0.00000000000E+00  0.00000000000E+00  0.28962603931E+03  0.28962603931E+03  0.00000000000E+00 0. -1.
         -1   -1    0    0    0  501 -0.00000000000E+00 -0.00000000000E+00 -0.13869816623E+03  0.13869816623E+03  0.00000000000E+00 0.  1.
          5    1    1    2  502    0 -0.98423133123E+02 -0.80475685674E+02  0.15352178449E+03  0.19938524878E+03  0.47000000000E+01 0. -1.
         -5    1    1    2    0  502  0.16283585620E+02 -0.48436363733E+02  0.94349579995E+00  0.51324620570E+02  0.47000000000E+01 0. -1.
        -11    1    1    2    0    0  0.35333296403E+02  0.12329382455E+03  0.97743024812E+01  0.12862871373E+03  0.00000000000E+00 0.  1.
         11    1    1    2    0    0  0.46806251100E+02  0.56182248565E+01 -0.13311709700E+02  0.48985622459E+02  0.00000000000E+00 0. -1.
<mgrwt>
<rscale>  0 0.19230038E+03</rscale>
<asrwt>0</asrwt>
<pdfrwt beam="1">  1        1 0.44557852E-01 0.19747384E+03</pdfrwt>
<pdfrwt beam="2">  1       -1 0.21338180E-01 0.19747384E+03</pdfrwt>
<totfact> 0.16474010E+03</totfact>
</mgrwt>
</event>
<event>
 6    1  0.4705246E-006  0.2076753E+03  0.7546771E-02  0.1147405E+00
          3   -1    0    0  501    0  0.00000000000E+00  0.00000000000E+00  0.55701462610E+03  0.55701462610E+03  0.00000000000E+00 0. -1.
         -3   -1    0    0    0  501 -0.00000000000E+00 -0.00000000000E+00 -0.71600227701E+02  0.71600227701E+02  0.00000000000E+00 0.  1.
          5    1    1    2  502    0  0.69201342190E+02 -0.42471707094E+02  0.18632230192E+03  0.20329968485E+03  0.47000000000E+01 0. -1.
         -5    1    1    2    0  502 -0.10806029290E+02 -0.11279394501E+03  0.10562662254E+03  0.15497844266E+03  0.47000000000E+01 0. -1.
        -11    1    1    2    0    0  0.20530968666E+02  0.67263453550E+02  0.65088717747E+02  0.95825017797E+02  0.00000000000E+00 0.  1.
         11    1    1    2    0    0 -0.78926281566E+02  0.88002198557E+02  0.12837675619E+03  0.17451170850E+03  0.00000000000E+00 0. -1.
<mgrwt>
<rscale>  0 0.20279198E+03</rscale>
<asrwt>0</asrwt>
<pdfrwt beam="1">  1        3 0.85694555E-01 0.20767533E+03</pdfrwt>
<pdfrwt beam="2">  1       -3 0.11015420E-01 0.20767533E+03</pdfrwt>
<totfact> 0.19744336E+02</totfact>
</mgrwt>
</event>
<event>
 6    1  0.4705246E-006  0.1795007E+03  0.7546771E-02  0.1172313E+00
         -1   -1    0    0    0  501 -0.00000000000E+00  0.00000000000E+00  0.28230725602E+03  0.28230725602E+03  0.00000000000E+00 0.  1.
          1   -1    0    0  501    0  0.00000000000E+00 -0.00000000000E+00 -0.19017862819E+03  0.19017862819E+03  0.00000000000E+00 0. -1.
          5    1    1    2  502    0  0.35833155894E+01  0.79566796282E+02 -0.11337213276E+03  0.13863277285E+03  0.47000000000E+01 0.  1.
         -5    1    1    2    0  502 -0.63824439162E+02  0.34301061866E+02  0.19535841757E+01  0.72636274482E+02  0.47000000000E+01 0.  1.
        -11    1    1    2    0    0 -0.27653877898E+02 -0.30617374018E+02  0.37726789239E+02  0.55905913648E+02  0.00000000000E+00 0.  1.
         11    1    1    2    0    0  0.87895001471E+02 -0.83250484130E+02  0.16582038718E+03  0.20531092323E+03  0.00000000000E+00 0. -1.
<mgrwt>
<rscale>  0 0.17541720E+03</rscale>
<asrwt>0</asrwt>
<pdfrwt beam="2">  1        1 0.29258250E-01 0.17950074E+03</pdfrwt>
<pdfrwt beam="1">  1       -1 0.43431886E-01 0.17950074E+03</pdfrwt>
<totfact> 0.83084987E+02</totfact>
</mgrwt>
</event>
<event>
 6    1  0.4705246E-006  0.1301759E+03  0.7546771E-02  0.1241643E+00
         -1   -1    0    0    0  501 -0.00000000000E+00  0.00000000000E+00  0.20345505004E+02  0.20345505004E+02  0.00000000000E+00 0.  1.
          1   -1    0    0  501    0  0.00000000000E+00 -0.00000000000E+00 -0.11541886216E+04  0.11541886216E+04  0.00000000000E+00 0. -1.
          5    1    1    2  502    0 -0.41150445095E+02 -0.29902367223E+02 -0.18818071094E+03  0.19499123228E+03  0.47000000000E+01 0. -1.
         -5    1    1    2    0  502  0.10607484413E+02  0.49583955985E+02 -0.81671162730E+03  0.81829765952E+03  0.47000000000E+01 0. -1.
        -11    1    1    2    0    0 -0.13290581225E+02  0.15307739472E+02  0.38105912854E+00  0.20275888220E+02  0.00000000000E+00 0.  1.
         11    1    1    2    0    0  0.43833541907E+02 -0.34989328234E+02 -0.12933183744E+03  0.14096934653E+03  0.00000000000E+00 0. -1.
<mgrwt>
<rscale>  0 0.12088583E+03</rscale>
<asrwt>0</asrwt>
<pdfrwt beam="2">  1        1 0.17756751E+00 0.13017591E+03</pdfrwt>
<pdfrwt beam="1">  1       -1 0.31300771E-02 0.13017591E+03</pdfrwt>
<totfact> 0.42824578E+03</totfact>
</mgrwt>
</event>
<event>
 6    1  0.4705246E-006  0.2715158E+03  0.7546771E-02  0.1112023E+00
          1   -1    0    0  501    0  0.00000000000E+00  0.00000000000E+00  0.69924202408E+03  0.69924202408E+03  0.00000000000E+00 0. -1.
         -1   -1    0    0    0  501 -0.00000000000E+00 -0.00000000000E+00 -0.81129571460E+02  0.81129571460E+02  0.00000000000E+00 0.  1.
          5    1    1    2  502    0 -0.56625009155E+01  0.66038912601E+02  0.13404055899E+01  0.66461181011E+02  0.47000000000E+01 0. -1.
         -5    1    1    2    0  502 -0.15498579962E+03  0.15273041313E+02  0.30778370708E+03  0.34497357032E+03  0.47000000000E+01 0.  1.
        -11    1    1    2    0    0  0.30951996501E+02  0.17268844116E+02  0.83911629651E+02  0.91090068917E+02  0.00000000000E+00 0.  1.
         11    1    1    2    0    0  0.12969630404E+03 -0.98580798031E+02  0.22507671030E+03  0.27784677530E+03  0.00000000000E+00 0. -1.
<mgrwt>
<rscale>  0 0.25203820E+03</rscale>
<asrwt>0</asrwt>
<pdfrwt beam="1">  1        1 0.10757569E+00 0.27151581E+03</pdfrwt>
<pdfrwt beam="2">  1       -1 0.12481473E-01 0.27151581E+03</pdfrwt>
<totfact> 0.12166022E+03</totfact>
</mgrwt>
</event>
<event>
 6    1  0.4705246E-006  0.2646148E+03  0.7546771E-02  0.1104402E+00
          1   -1    0    0  501    0  0.00000000000E+00  0.00000000000E+00  0.61783759191E+03  0.61783759191E+03  0.00000000000E+00 0. -1.
         -1   -1    0    0    0  501 -0.00000000000E+00 -0.00000000000E+00 -0.28333082282E+02  0.28333082282E+02  0.00000000000E+00 0.  1.
          5    1    1    2  502    0 -0.30096053252E+01 -0.34601285526E+02  0.19146487071E+03  0.19464632902E+03  0.47000000000E+01 0.  1.
         -5    1    1    2    0  502 -0.46682005423E+02  0.83359516329E+02  0.18890504436E+03  0.21174329831E+03  0.47000000000E+01 0.  1.
        -11    1    1    2    0    0  0.47206645312E+02  0.90707557253E+01  0.45415292734E+02  0.66130891308E+02  0.00000000000E+00 0.  1.
         11    1    1    2    0    0  0.24849654362E+01 -0.57828986528E+02  0.16371930183E+03  0.17365015556E+03  0.00000000000E+00 0. -1.
<mgrwt>
<rscale>  0 0.26461476E+03</rscale>
<asrwt>0</asrwt>
<pdfrwt beam="1">  1        1 0.95051927E-01 0.26461476E+03</pdfrwt>
<pdfrwt beam="2">  1       -1 0.43589362E-02 0.26461476E+03</pdfrwt>
<totfact> 0.72608014E+03</totfact>
</mgrwt>
</event>
<event>
 6    1  0.4705246E-006  0.1252885E+03  0.7546771E-02  0.1249896E+00
          1   -1    0    0  501    0  0.00000000000E+00  0.00000000000E+00  0.76511431107E+02  0.76511431107E+02  0.00000000000E+00 0. -1.
         -1   -1    0    0    0  501 -0.00000000000E+00 -0.00000000000E+00 -0.17768723126E+03  0.17768723126E+03  0.00000000000E+00 0.  1.
          5    1    1    2  502    0 -0.20392372080E+02 -0.35508381400E+02 -0.54664317915E+02  0.68461460997E+02  0.47000000000E+01 0.  1.
         -5    1    1    2    0  502  0.24830943033E+02  0.28267928564E+02  0.43045926515E+02  0.57364564905E+02  0.47000000000E+01 0.  1.
        -11    1    1    2    0    0 -0.44247153990E+02  0.11783129152E+02 -0.24407349822E+02  0.51888066972E+02  0.00000000000E+00 0. -1.
         11    1    1    2    0    0  0.39808583037E+02 -0.45426763159E+01 -0.65150058927E+02  0.76484569488E+02  0.00000000000E+00 0.  1.
<mgrwt>
<rscale>  0 0.11597069E+03</rscale>
<asrwt>0</asrwt>
<pdfrwt beam="1">  1        1 0.11770990E-01 0.12528847E+03</pdfrwt>
<pdfrwt beam="2">  1       -1 0.27336497E-01 0.12528847E+03</pdfrwt>
<totfact> 0.58286175E+03</totfact>
</mgrwt>
</event>
<event>
 6    1  0.4705246E-006  0.1291028E+03  0.7546771E-02  0.1236027E+00
         -2   -1    0    0    0  501 -0.00000000000E+00  0.00000000000E+00  0.25547998646E+02  0.25547998646E+02  0.00000000000E+00 0.  1.
          2   -1    0    0  501    0  0.00000000000E+00 -0.00000000000E+00 -0.58964743426E+03  0.58964743426E+03  0.00000000000E+00 0. -1.
          5    1    1    2  502    0 -0.48891301327E+02 -0.50672593816E+01 -0.13010040153E+03  0.13915545603E+03  0.47000000000E+01 0.  1.
         -5    1    1    2    0  502  0.79166997943E+02 -0.63207417337E+01 -0.23433041153E+03  0.24746756779E+03  0.47000000000E+01 0.  1.
        -11    1    1    2    0    0  0.19814059167E+02  0.17839523199E+00  0.25161161224E+01  0.19973973212E+02  0.00000000000E+00 0.  1.
         11    1    1    2    0    0 -0.50089755783E+02  0.11209605883E+02 -0.20218473867E+03  0.20859843588E+03  0.00000000000E+00 0. -1.
<mgrwt>
<rscale>  0 0.12438908E+03</rscale>
<asrwt>0</asrwt>
<pdfrwt beam="2">  1        2 0.90715001E-01 0.12910285E+03</pdfrwt>
<pdfrwt beam="1">  1       -2 0.39304609E-02 0.12910285E+03</pdfrwt>
<totfact> 0.13746880E+04</totfact>
</mgrwt>
</event>
<event>
 6    1  0.4705246E-006  0.1256866E+03  0.7546771E-02  0.1247182E+00
         -2   -1    0    0    0  501 -0.00000000000E+00  0.00000000000E+00  0.26436186051E+02  0.26436186051E+02  0.00000000000E+00 0. -1.
          2   -1    0    0  501    0  0.00000000000E+00 -0.00000000000E+00 -0.47613657121E+03  0.47613657121E+03  0.00000000000E+00 0.  1.
          5    1    1    2  502    0 -0.43757580678E+02  0.44122717992E+02 -0.93968431548E+02  0.11275502755E+03  0.47000000000E+01 0.  1.
         -5    1    1    2    0  502  0.30570373881E+02 -0.43893000540E+02 -0.19725772314E+03  0.20443542402E+03  0.47000000000E+01 0.  1.
        -11    1    1    2    0    0  0.25615186001E+02  0.11301852432E+02 -0.16489379867E+03  0.16725380254E+03  0.00000000000E+00 0.  1.
         11    1    1    2    0    0 -0.12427979204E+02 -0.11531569884E+02  0.64195681954E+01  0.18128503162E+02  0.00000000000E+00 0. -1.
<mgrwt>
<rscale>  0 0.11755716E+03</rscale>
<asrwt>0</asrwt>
<pdfrwt beam="2">  1        2 0.73251775E-01 0.12568655E+03</pdfrwt>
<pdfrwt beam="1">  1       -2 0.40671059E-02 0.12568655E+03</pdfrwt>
<totfact> 0.16521010E+04</totfact>
</mgrwt>
</event>
<event>
 6    1  0.4705246E-006  0.1421133E+03  0.7546771E-02  0.1220990E+00
         -1   -1    0    0    0  501 -0.00000000000E+00  0.00000000000E+00  0.11368054126E+03  0.11368054126E+03  0.00000000000E+00 0.  1.
          1   -1    0    0  501    0  0.00000000000E+00 -0.00000000000E+00 -0.14558059689E+03  0.14558059689E+03  0.00000000000E+00 0. -1.
          5    1    1    2  502    0  0.32216998599E+02  0.51173127870E+02 -0.35748070338E+02  0.70403398694E+02  0.47000000000E+01 0.  1.
         -5    1    1    2    0  502  0.33591302319E+02 -0.66677379535E+02  0.50813682273E+01  0.74981056515E+02  0.47000000000E+01 0.  1.
        -11    1    1    2    0    0  0.11962008051E+02  0.30838297291E+02 -0.88597887454E+01  0.34243044156E+02  0.00000000000E+00 0. -1.
         11    1    1    2    0    0 -0.77770308969E+02 -0.15334045627E+02  0.76264352263E+01  0.79633638788E+02  0.00000000000E+00 0.  1.
<mgrwt>
<rscale>  0 0.13445545E+03</rscale>
<asrwt>0</asrwt>
<pdfrwt beam="2">  1        1 0.22397015E-01 0.14211331E+03</pdfrwt>
<pdfrwt beam="1">  1       -1 0.17489314E-01 0.14211331E+03</pdfrwt>
<totfact> 0.52941249E+03</totfact>
</mgrwt>
</event>
<event>
 6    1  0.4705246E-006  0.1309887E+03  0.7546771E-02  0.1244005E+00
          4   -1    0    0  501    0  0.00000000000E+00  0.00000000000E+00  0.57208525822E+03  0.57208525822E+03  0.00000000000E+00 0.  1.
         -4   -1    0    0    0  501 -0.00000000000E+00 -0.00000000000E+00 -0.23906362424E+02  0.23906362424E+02  0.00000000000E+00 0. -1.
          5    1    1    2  502    0 -0.26484441835E+02  0.17741912213E+02  0.28577223965E+03  0.28758314287E+03  0.47000000000E+01 0. -1.
         -5    1    1    2    0  502  0.56101291953E+02 -0.43224010941E+02  0.12716798538E+03  0.14563466822E+03  0.47000000000E+01 0. -1.
        -11    1    1    2    0    0  0.10785508583E+02 -0.23159483618E+02  0.54752963549E+02  0.60419995815E+02  0.00000000000E+00 0. -1.
         11    1    1    2    0    0 -0.40402358701E+02  0.48641582346E+02  0.80485707209E+02  0.10235381374E+03  0.00000000000E+00 0.  1.
<mgrwt>
<rscale>  0 0.11945123E+03</rscale>
<asrwt>0</asrwt>
<pdfrwt beam="1">  1        4 0.88013107E-01 0.13098871E+03</pdfrwt>
<pdfrwt beam="2">  1       -4 0.36779023E-02 0.13098871E+03</pdfrwt>
<totfact> 0.73769919E+02</totfact>
</mgrwt>
</event>
<event>
 6    1  0.4705246E-006  0.2574386E+03  0.7546771E-02  0.1111017E+00
          2   -1    0    0  501    0  0.00000000000E+00  0.00000000000E+00  0.10633810875E+04  0.10633810875E+04  0.00000000000E+00 0. -1.
         -2   -1    0    0    0  501 -0.00000000000E+00 -0.00000000000E+00 -0.13137640854E+03  0.13137640854E+03  0.00000000000E+00 0.  1.
          5    1    1    2  502    0 -0.15068496068E+03  0.89386890784E+02  0.45200912815E+03  0.48479925284E+03  0.47000000000E+01 0.  1.
         -5    1    1    2    0  502 -0.43249051879E+02  0.24806077514E+02  0.46411136410E+03  0.46680538799E+03  0.47000000000E+01 0.  1.
        -11    1    1    2    0    0  0.19751165563E+02 -0.45947148301E+02  0.24884265021E+02  0.55861217529E+02  0.00000000000E+00 0. -1.
         11    1    1    2    0    0  0.17418284699E+03 -0.68245819996E+02 -0.90000783170E+01  0.18729163768E+03  0.00000000000E+00 0.  1.
<mgrwt>
<rscale>  0 0.25365471E+03</rscale>
<asrwt>0</asrwt>
<pdfrwt beam="1">  1        2 0.16359708E+00 0.25743861E+03</pdfrwt>
<pdfrwt beam="2">  1       -2 0.20211756E-01 0.25743861E+03</pdfrwt>
<totfact> 0.49907722E+02</totfact>
</mgrwt>
</event>
<event>
 6    1  0.4705246E-006  0.1851071E+03  0.7546771E-02  0.1168362E+00
          1   -1    0    0  501    0  0.00000000000E+00  0.00000000000E+00  0.49254749833E+03  0.49254749833E+03  0.00000000000E+00 0. -1.
         -1   -1    0    0    0  501 -0.00000000000E+00 -0.00000000000E+00 -0.76371434361E+02  0.76371434361E+02  0.00000000000E+00 0.  1.
          5    1    1    2  502    0 -0.69429394388E+02 -0.86973545228E+02  0.15363924930E+03  0.18976814090E+03  0.47000000000E+01 0.  1.
         -5    1    1    2    0  502 -0.55548179444E+02  0.32015924408E+02  0.18962021188E+03  0.20022121368E+03  0.47000000000E+01 0.  1.
        -11    1    1    2    0    0  0.10530361082E+03  0.86153695662E+01  0.73283336212E+02  0.12858274539E+03  0.00000000000E+00 0. -1.
         11    1    1    2    0    0  0.19673963012E+02  0.46342251254E+02 -0.36673342450E+00  0.50346832723E+02  0.00000000000E+00 0.  1.
<mgrwt>
<rscale>  0 0.17942341E+03</rscale>
<asrwt>0</asrwt>
<pdfrwt beam="1">  1        1 0.75776536E-01 0.18510710E+03</pdfrwt>
<pdfrwt beam="2">  1       -1 0.11749452E-01 0.18510710E+03</pdfrwt>
<totfact> 0.21585067E+03</totfact>
</mgrwt>
</event>
<event>
 6    1  0.4705246E-006  0.1422305E+03  0.7546771E-02  0.1224113E+00
         -2   -1    0    0    0  501 -0.00000000000E+00  0.00000000000E+00  0.56609589714E+02  0.56609589714E+02  0.00000000000E+00 0.  1.
          2   -1    0    0  501    0  0.00000000000E+00 -0.00000000000E+00 -0.36962496777E+03  0.36962496777E+03  0.00000000000E+00 0. -1.
          5    1    1    2  502    0 -0.22450441817E+02 -0.38816846001E+02 -0.19985794044E+03  0.20488059017E+03  0.47000000000E+01 0. -1.
         -5    1    1    2    0  502  0.71984777269E+02  0.18323785970E+02 -0.81419731994E+02  0.11031242926E+03  0.47000000000E+01 0.  1.
        -11    1    1    2    0    0 -0.51182142791E+01  0.40378438427E+02 -0.44926339644E+02  0.60621699094E+02  0.00000000000E+00 0.  1.
         11    1    1    2    0    0 -0.44416121173E+02 -0.19885378396E+02  0.13188634020E+02  0.50419838966E+02  0.00000000000E+00 0. -1.
<mgrwt>
<rscale>  0 0.13227855E+03</rscale>
<asrwt>0</asrwt>
<pdfrwt beam="2">  1        2 0.56865379E-01 0.14223048E+03</pdfrwt>
<pdfrwt beam="1">  1       -2 0.87091677E-02 0.14223048E+03</pdfrwt>
<totfact> 0.68949410E+03</totfact>
</mgrwt>
</event>
<event>
 6    1  0.4705246E-006  0.1569251E+03  0.7546771E-02  0.1200903E+00
         -1   -1    0    0    0  501 -0.00000000000E+00  0.00000000000E+00  0.52945695672E+02  0.52945695672E+02  0.00000000000E+00 0.  1.
          1   -1    0    0  501    0  0.00000000000E+00 -0.00000000000E+00 -0.39191020677E+03  0.39191020677E+03  0.00000000000E+00 0. -1.
          5    1    1    2  502    0 -0.41604699485E+02 -0.32172395421E+02 -0.24494212465E+02  0.58207134362E+02  0.47000000000E+01 0. -1.
         -5    1    1    2    0  502 -0.43906781752E+02  0.73232998456E+02 -0.18254305307E+03  0.20158108486E+03  0.47000000000E+01 0. -1.
        -11    1    1    2    0    0  0.43769171726E+02 -0.66957779357E+01 -0.19819170911E+01  0.44322701081E+02  0.00000000000E+00 0.  1.
         11    1    1    2    0    0  0.41742309511E+02 -0.34364825099E+02 -0.12994532847E+03  0.14074498214E+03  0.00000000000E+00 0. -1.
<mgrwt>
<rscale>  0 0.14965079E+03</rscale>
<asrwt>0</asrwt>
<pdfrwt beam="2">  1        1 0.60293880E-01 0.15692511E+03</pdfrwt>
<pdfrwt beam="1">  1       -1 0.81454914E-02 0.15692511E+03</pdfrwt>
<totfact> 0.50478012E+03</totfact>
</mgrwt>
</event>
<event>
 6    1  0.4705246E-006  0.1427790E+03  0.7546771E-02  0.1220201E+00
          1   -1    0    0  501    0  0.00000000000E+00  0.00000000000E+00  0.12353153842E+03  0.12353153842E+03  0.00000000000E+00 0. -1.
         -1   -1    0    0    0  501 -0.00000000000E+00 -0.00000000000E+00 -0.13434522368E+03  0.13434522368E+03  0.00000000000E+00 0.  1.
          5    1    1    2  502    0  0.48058539862E+02  0.22219022762E+02 -0.54625470096E+02  0.76219027870E+02  0.47000000000E+01 0. -1.
         -5    1    1    2    0  502 -0.50695294169E+01  0.31751410560E+02  0.58138148057E+02  0.66603201578E+02  0.47000000000E+01 0. -1.
        -11    1    1    2    0    0 -0.55564253173E+01  0.25613931651E+02 -0.30570374349E+01  0.26387361270E+02  0.00000000000E+00 0. -1.
         11    1    1    2    0    0 -0.37432585128E+02 -0.79584364973E+02 -0.11269325784E+02  0.88667171383E+02  0.00000000000E+00 0.  1.
<mgrwt>
<rscale>  0 0.13501311E+03</rscale>
<asrwt>0</asrwt>
<pdfrwt beam="1">  1        1 0.19004852E-01 0.14277903E+03</pdfrwt>
<pdfrwt beam="2">  1       -1 0.20668496E-01 0.14277903E+03</pdfrwt>
<totfact> 0.49942409E+03</totfact>
</mgrwt>
</event>
<event>
 6    1  0.4705246E-006  0.1256046E+03  0.7546771E-02  0.1249768E+00
         -2   -1    0    0    0  501 -0.00000000000E+00  0.00000000000E+00  0.30909549551E+02  0.30909549551E+02  0.00000000000E+00 0. -1.
          2   -1    0    0  501    0  0.00000000000E+00 -0.00000000000E+00 -0.38308876441E+03  0.38308876441E+03  0.00000000000E+00 0.  1.
          5    1    1    2  502    0  0.31931141300E+02 -0.27118774606E+02 -0.21414692362E+03  0.21825677680E+03  0.47000000000E+01 0.  1.
         -5    1    1    2    0  502 -0.28735761361E+02  0.15240464773E+02 -0.35230322636E+01  0.33053252546E+02  0.47000000000E+01 0.  1.
        -11    1    1    2    0    0 -0.20781382581E+02 -0.25526391768E+02 -0.10958644065E+03  0.11442312053E+03  0.00000000000E+00 0.  1.
         11    1    1    2    0    0  0.17586002642E+02  0.37404701601E+02 -0.24922818324E+02  0.48265164083E+02  0.00000000000E+00 0. -1.
<mgrwt>
<rscale>  0 0.11604478E+03</rscale>
<asrwt>0</asrwt>
<pdfrwt beam="2">  1        2 0.58936728E-01 0.12560462E+03</pdfrwt>
<pdfrwt beam="1">  1       -2 0.47553157E-02 0.12560462E+03</pdfrwt>
<totfact> 0.16527896E+04</totfact>
</mgrwt>
</event>
<event>
 6    1  0.4705246E-006  0.2830351E+03  0.7546771E-02  0.1094043E+00
          1   -1    0    0  501    0  0.00000000000E+00  0.00000000000E+00  0.29887372303E+02  0.29887372303E+02  0.00000000000E+00 0. -1.
         -1   -1    0    0    0  501 -0.00000000000E+00 -0.00000000000E+00 -0.67008951484E+03  0.67008951484E+03  0.00000000000E+00 0.  1.
          5    1    1    2  502    0  0.92615427890E+01  0.10750617922E+03 -0.28760353718E+03  0.30721529803E+03  0.47000000000E+01 0. -1.
         -5    1    1    2    0  502  0.22408942688E+02 -0.23485893650E+02 -0.25215988757E+02  0.41372502970E+02  0.47000000000E+01 0. -1.
        -11    1    1    2    0    0 -0.47484666426E+02 -0.45283157655E+02 -0.28253559518E+03  0.29005468529E+03  0.00000000000E+00 0.  1.
         11    1    1    2    0    0  0.15814180949E+02 -0.38737127915E+02 -0.44847021420E+02  0.61334400856E+02  0.00000000000E+00 0. -1.
<mgrwt>
<rscale>  0 0.28303508E+03</rscale>
<asrwt>0</asrwt>
<pdfrwt beam="1">  1        1 0.45980571E-02 0.28303508E+03</pdfrwt>
<pdfrwt beam="2">  1       -1 0.10309070E+00 0.28303508E+03</pdfrwt>
<totfact> 0.17607458E+03</totfact>
</mgrwt>
</event>
<event>
 6    1  0.4705246E-006  0.1278309E+03  0.7546771E-02  0.1245170E+00
         -2   -1    0    0    0  501 -0.00000000000E+00  0.00000000000E+00  0.10617220330E+03  0.10617220330E+03  0.00000000000E+00 0.  1.
          2   -1    0    0  501    0  0.00000000000E+00 -0.00000000000E+00 -0.12394303859E+03  0.12394303859E+03  0.00000000000E+00 0. -1.
          5    1    1    2  502    0 -0.54942480872E+02 -0.50288782478E+02 -0.41212025614E+01  0.74744311878E+02  0.47000000000E+01 0.  1.
         -5    1    1    2    0  502  0.33009780047E+02  0.34876830013E+02 -0.32688040722E+02  0.58280673098E+02  0.47000000000E+01 0.  1.
        -11    1    1    2    0    0  0.10549431564E+02  0.19045989064E+02  0.55022727793E+02  0.59173818362E+02  0.00000000000E+00 0.  1.
         11    1    1    2    0    0  0.11383269261E+02 -0.36340365988E+01 -0.35984319798E+02  0.37916438551E+02  0.00000000000E+00 0. -1.
<mgrwt>
<rscale>  0 0.11875232E+03</rscale>
<asrwt>0</asrwt>
<pdfrwt beam="2">  1        2 0.19068160E-01 0.12783085E+03</pdfrwt>
<pdfrwt beam="1">  1       -2 0.16334185E-01 0.12783085E+03</pdfrwt>
<totfact> 0.81866540E+03</totfact>
</mgrwt>
</event>
<event>
 6    1  0.4705246E-006  0.2338338E+03  0.7546771E-02  0.1126947E+00
          1   -1    0    0  501    0  0.00000000000E+00  0.00000000000E+00  0.21602002357E+04  0.21602002357E+04  0.00000000000E+00 0. -1.
         -1   -1    0    0    0  501 -0.00000000000E+00 -0.00000000000E+00 -0.25714979399E+02  0.25714979399E+02  0.00000000000E+00 0.  1.
          5    1    1    2  502    0  0.19843983238E+02  0.72090019137E+02  0.24723337860E+03  0.25833541767E+03  0.47000000000E+01 0.  1.
         -5    1    1    2    0  502  0.11893934431E+03  0.68582943163E+02  0.11732967874E+04  0.11813118255E+04  0.47000000000E+01 0.  1.
        -11    1    1    2    0    0 -0.12269921830E+03 -0.79468333029E+02  0.57966431098E+03  0.59781353912E+03  0.00000000000E+00 0.  1.
         11    1    1    2    0    0 -0.16084109246E+02 -0.61204629271E+02  0.13429077935E+03  0.14845443285E+03  0.00000000000E+00 0. -1.
<mgrwt>
<rscale>  0 0.22956453E+03</rscale>
<asrwt>0</asrwt>
<pdfrwt beam="1">  1        1 0.33233835E+00 0.23383377E+03</pdfrwt>
<pdfrwt beam="2">  1       -1 0.39561524E-02 0.23383377E+03</pdfrwt>
<totfact> 0.66657138E+02</totfact>
</mgrwt>
</event>
<event>
 6    1  0.4705246E-006  0.1385965E+03  0.7546771E-02  0.1226876E+00
          1   -1    0    0  501    0  0.00000000000E+00  0.00000000000E+00  0.19546910940E+03  0.19546910940E+03  0.00000000000E+00 0. -1.
         -1   -1    0    0    0  501 -0.00000000000E+00 -0.00000000000E+00 -0.81088868000E+02  0.81088868000E+02  0.00000000000E+00 0.  1.
          5    1    1    2  502    0  0.52054669610E+02 -0.14617891184E+02  0.12112667049E+03  0.13272954334E+03  0.47000000000E+01 0. -1.
         -5    1    1    2    0  502  0.32613026041E+01 -0.79265914201E+01 -0.31059441150E+02  0.32561416289E+02  0.47000000000E+01 0. -1.
        -11    1    1    2    0    0 -0.80278570057E+02  0.20433994368E+02  0.13290875065E+02  0.83897820569E+02  0.00000000000E+00 0.  1.
         11    1    1    2    0    0  0.24962597842E+02  0.21104882359E+01  0.11022136994E+02  0.27369197203E+02  0.00000000000E+00 0. -1.
<mgrwt>
<rscale>  0 0.13039169E+03</rscale>
<asrwt>0</asrwt>
<pdfrwt beam="1">  1        1 0.30072171E-01 0.13859652E+03</pdfrwt>
<pdfrwt beam="2">  1       -1 0.12475210E-01 0.13859652E+03</pdfrwt>
<totfact> 0.62022512E+03</totfact>
</mgrwt>
</event>
<event>
 6    1  0.4705246E-006  0.3694946E+03  0.7546771E-02  0.1054886E+00
         -2   -1    0    0    0  501 -0.00000000000E+00  0.00000000000E+00  0.27625833040E+02  0.27625833040E+02  0.00000000000E+00 0.  1.
          2   -1    0    0  501    0  0.00000000000E+00 -0.00000000000E+00 -0.12354946907E+04  0.12354946907E+04  0.00000000000E+00 0. -1.
          5    1    1    2  502    0  0.98011003069E+02  0.43271741425E+02 -0.50679965385E+03  0.51802179440E+03  0.47000000000E+01 0.  1.
         -5    1    1    2    0  502 -0.29217472467E+01 -0.27694802508E+02 -0.52698822405E+03  0.52774446182E+03  0.47000000000E+01 0.  1.
        -11    1    1    2    0    0 -0.49762992944E+02 -0.40243018752E+02 -0.44704734514E+02  0.78066441657E+02  0.00000000000E+00 0.  1.
         11    1    1    2    0    0 -0.45326262878E+02  0.24666079835E+02 -0.12937624526E+03  0.13928782588E+03  0.00000000000E+00 0. -1.
<mgrwt>
<rscale>  0 0.36949463E+03</rscale>
<asrwt>0</asrwt>
<pdfrwt beam="2">  1        2 0.19007615E+00 0.36949463E+03</pdfrwt>
<pdfrwt beam="1">  1       -2 0.42501271E-02 0.36949463E+03</pdfrwt>
<totfact> 0.48001963E+03</totfact>
</mgrwt>
</event>
<event>
 6    1  0.4705246E-006  0.1409076E+03  0.7546771E-02  0.1217294E+00
         -2   -1    0    0    0  501 -0.00000000000E+00  0.00000000000E+00  0.10233554344E+03  0.10233554344E+03  0.00000000000E+00 0.  1.
          2   -1    0    0  501    0  0.00000000000E+00 -0.00000000000E+00 -0.36619884197E+03  0.36619884197E+03  0.00000000000E+00 0. -1.
          5    1    1    2  502    0 -0.83781854636E+02 -0.25324259539E+02 -0.28705964374E+03  0.30014337632E+03  0.47000000000E+01 0. -1.
         -5    1    1    2    0  502  0.14251782555E+02 -0.27042824961E+02 -0.17748261757E+02  0.35658357832E+02  0.47000000000E+01 0.  1.
        -11    1    1    2    0    0 -0.13299521263E+02 -0.11963038261E+02 -0.44809104088E+01  0.18440989896E+02  0.00000000000E+00 0. -1.
         11    1    1    2    0    0  0.82829593345E+02  0.64330122761E+02  0.45425517377E+02  0.11429166136E+03  0.00000000000E+00 0.  1.
<mgrwt>
<rscale>  0 0.13709351E+03</rscale>
<asrwt>0</asrwt>
<pdfrwt beam="2">  1        2 0.56338282E-01 0.14090758E+03</pdfrwt>
<pdfrwt beam="1">  1       -2 0.15743930E-01 0.14090758E+03</pdfrwt>
<totfact> 0.27046310E+03</totfact>
</mgrwt>
</event>
<event>
 6    1  0.4705246E-006  0.1508268E+03  0.7546771E-02  0.1209132E+00
          1   -1    0    0  501    0  0.00000000000E+00  0.00000000000E+00  0.12912361438E+04  0.12912361438E+04  0.00000000000E+00 0. -1.
         -1   -1    0    0    0  501 -0.00000000000E+00 -0.00000000000E+00 -0.15168949564E+02  0.15168949564E+02  0.00000000000E+00 0.  1.
          5    1    1    2  502    0 -0.41127857700E+02 -0.54106410406E+02  0.74060824565E+03  0.74373494462E+03  0.47000000000E+01 0.  1.
         -5    1    1    2    0  502 -0.38501829074E+02  0.26135609649E+02  0.10129139480E+03  0.11156835391E+03  0.47000000000E+01 0.  1.
        -11    1    1    2    0    0  0.71179607919E+02  0.57360586738E+02  0.30790981980E+03  0.32119344735E+03  0.00000000000E+00 0. -1.
         11    1    1    2    0    0  0.84500788547E+01 -0.29389785981E+02  0.12625773397E+03  0.12990834747E+03  0.00000000000E+00 0.  1.
<mgrwt>
<rscale>  0 0.14316573E+03</rscale>
<asrwt>0</asrwt>
<pdfrwt beam="1">  1        1 0.19865163E+00 0.15082681E+03</pdfrwt>
<pdfrwt beam="2">  1       -1 0.23336856E-02 0.15082681E+03</pdfrwt>
<totfact> 0.53186678E+03</totfact>
</mgrwt>
</event>
<event>
 6    1  0.4705246E-006  0.1253451E+03  0.7546771E-02  0.1238109E+00
          3   -1    0    0  501    0  0.00000000000E+00  0.00000000000E+00  0.14774541944E+03  0.14774541944E+03  0.00000000000E+00 0. -1.
         -3   -1    0    0    0  501 -0.00000000000E+00 -0.00000000000E+00 -0.11389777256E+03  0.11389777256E+03  0.00000000000E+00 0.  1.
          5    1    1    2  502    0 -0.26568196314E+02 -0.21678549787E+02  0.92313470924E+02  0.98588516016E+02  0.47000000000E+01 0.  1.
         -5    1    1    2    0  502  0.29380165810E+02  0.12803888942E+02 -0.27528162210E+02  0.42509098199E+02  0.47000000000E+01 0.  1.
        -11    1    1    2    0    0  0.11901531601E+02 -0.24174750101E+02  0.35696234937E+02  0.44724559087E+02  0.00000000000E+00 0. -1.
         11    1    1    2    0    0 -0.14713501096E+02  0.33049410946E+02 -0.66633896764E+02  0.75821018697E+02  0.00000000000E+00 0.  1.
<mgrwt>
<rscale>  0 0.12307489E+03</rscale>
<asrwt>0</asrwt>
<pdfrwt beam="1">  1        3 0.22730065E-01 0.12534513E+03</pdfrwt>
<pdfrwt beam="2">  1       -3 0.17522734E-01 0.12534513E+03</pdfrwt>
<totfact> 0.11496732E+03</totfact>
</mgrwt>
</event>
<event>
 6    1  0.4705246E-006  0.1750148E+03  0.7546771E-02  0.1178902E+00
          2   -1    0    0  501    0  0.00000000000E+00  0.00000000000E+00  0.29408668205E+03  0.29408668205E+03  0.00000000000E+00 0. -1.
         -2   -1    0    0    0  501 -0.00000000000E+00 -0.00000000000E+00 -0.20790791363E+03  0.20790791363E+03  0.00000000000E+00 0.  1.
          5    1    1    2  502    0  0.28854449046E+02 -0.78403796467E+01  0.14222198322E+03  0.14540712945E+03  0.47000000000E+01 0.  1.
         -5    1    1    2    0  502 -0.11990895364E+02 -0.11349210333E+03  0.90209780753E+02  0.14554770226E+03  0.47000000000E+01 0.  1.
        -11    1    1    2    0    0  0.13018784397E+02  0.11145267976E+03 -0.13918292135E+03  0.17878219758E+03  0.00000000000E+00 0. -1.
         11    1    1    2    0    0 -0.29882338078E+02  0.98798032133E+01 -0.70700742009E+01  0.32257566395E+02  0.00000000000E+00 0.  1.
<mgrwt>
<rscale>  0 0.16899348E+03</rscale>
<asrwt>0</asrwt>
<pdfrwt beam="1">  1        2 0.45244105E-01 0.17501483E+03</pdfrwt>
<pdfrwt beam="2">  1       -2 0.31985833E-01 0.17501483E+03</pdfrwt>
<totfact> 0.10099461E+03</totfact>
</mgrwt>
</event>
<event>
 6    1  0.4705246E-006  0.2493347E+03  0.7546771E-02  0.1113726E+00
         -2   -1    0    0    0  501 -0.00000000000E+00  0.00000000000E+00  0.21519477703E+02  0.21519477703E+02  0.00000000000E+00 0.  1.
          2   -1    0    0  501    0  0.00000000000E+00 -0.00000000000E+00 -0.72222694035E+03  0.72222694035E+03  0.00000000000E+00 0. -1.
          5    1    1    2  502    0 -0.66278341222E+01 -0.18682668595E+01 -0.38045982928E+03  0.38055116647E+03  0.47000000000E+01 0. -1.
         -5    1    1    2    0  502 -0.23032431860E+02  0.49507281507E+02 -0.62543065805E+02  0.83157614924E+02  0.47000000000E+01 0. -1.
        -11    1    1    2    0    0  0.14836001117E+02 -0.75689837102E+02 -0.19656923565E+03  0.21115994595E+03  0.00000000000E+00 0.  1.
         11    1    1    2    0    0  0.14824264866E+02  0.28050822455E+02 -0.61135331909E+02  0.68877690705E+02  0.00000000000E+00 0. -1.
<mgrwt>
<rscale>  0 0.24933469E+03</rscale>
<asrwt>0</asrwt>
<pdfrwt beam="2">  1        2 0.11111182E+00 0.24933469E+03</pdfrwt>
<pdfrwt beam="1">  1       -2 0.33106893E-02 0.24933469E+03</pdfrwt>
<totfact> 0.14606609E+04</totfact>
</mgrwt>
</event>
<event>
 6    1  0.4705246E-006  0.1931195E+03  0.7546771E-02  0.1160075E+00
          2   -1    0    0  501    0  0.00000000000E+00  0.00000000000E+00  0.22083322785E+03  0.22083322785E+03  0.00000000000E+00 0. -1.
         -2   -1    0    0    0  501 -0.00000000000E+00 -0.00000000000E+00 -0.15481812336E+03  0.15481812336E+03  0.00000000000E+00 0.  1.
          5    1    1    2  502    0 -0.57882614977E+02 -0.15482294778E+03  0.43644543114E+02  0.17101894169E+03  0.47000000000E+01 0.  1.
         -5    1    1    2    0  502  0.24414350162E+02  0.11467433396E+02  0.12486143163E+02  0.30092462405E+02  0.47000000000E+01 0.  1.
        -11    1    1    2    0    0  0.28988740983E+02  0.93544189089E+01  0.25278010468E+02  0.39583204394E+02  0.00000000000E+00 0.  1.
         11    1    1    2    0    0  0.44795238331E+01  0.13400109547E+03 -0.15393592256E+02  0.13495674271E+03  0.00000000000E+00 0. -1.
<mgrwt>
<rscale>  0 0.18822137E+03</rscale>
<asrwt>0</asrwt>
<pdfrwt beam="1">  1        2 0.33974343E-01 0.19311950E+03</pdfrwt>
<pdfrwt beam="2">  1       -2 0.23818173E-01 0.19311950E+03</pdfrwt>
<totfact> 0.23327582E+03</totfact>
</mgrwt>
</event>
<event>
 6    1  0.4705246E-006  0.1864226E+03  0.7546771E-02  0.1181540E+00
          1   -1    0    0  501    0  0.00000000000E+00  0.00000000000E+00  0.27582612608E+03  0.27582612608E+03  0.00000000000E+00 0. -1.
         -1   -1    0    0    0  501 -0.00000000000E+00 -0.00000000000E+00 -0.10466751960E+03  0.10466751960E+03  0.00000000000E+00 0.  1.
          5    1    1    2  502    0  0.11735240107E+02 -0.99305747880E+02  0.14119741717E+03  0.17308422238E+03  0.47000000000E+01 0. -1.
         -5    1    1    2    0  502  0.53400231462E+02  0.56129269088E+02  0.41840583236E+02  0.88174848875E+02  0.47000000000E+01 0.  1.
        -11    1    1    2    0    0 -0.43180838250E+02  0.15672142399E+02  0.37013564863E+02  0.58993260829E+02  0.00000000000E+00 0. -1.
         11    1    1    2    0    0 -0.21954633319E+02  0.27504336393E+02 -0.48892958785E+02  0.60241313593E+02  0.00000000000E+00 0.  1.
<mgrwt>
<rscale>  0 0.16650717E+03</rscale>
<asrwt>0</asrwt>
<pdfrwt beam="1">  1        1 0.42434788E-01 0.18642262E+03</pdfrwt>
<pdfrwt beam="2">  1       -1 0.16102695E-01 0.18642262E+03</pdfrwt>
<totfact> 0.27490726E+03</totfact>
</mgrwt>
</event>
<event>
 6    1  0.4705246E-006  0.2179073E+03  0.7546771E-02  0.1164091E+00
         -1   -1    0    0    0  501 -0.00000000000E+00  0.00000000000E+00  0.17500143725E+02  0.17500143725E+02  0.00000000000E+00 0.  1.
          1   -1    0    0  501    0  0.00000000000E+00 -0.00000000000E+00 -0.15466571476E+04  0.15466571476E+04  0.00000000000E+00 0. -1.
          5    1    1    2  502    0  0.75812467930E+02 -0.12332767193E+02 -0.10610989745E+04  0.10638856852E+04  0.47000000000E+01 0. -1.
         -5    1    1    2    0  502 -0.13844573813E+02  0.90810983215E+01  0.20645738592E+01  0.17334677268E+02  0.47000000000E+01 0.  1.
        -11    1    1    2    0    0 -0.70718047163E+02  0.34049809310E+02 -0.33159003628E+03  0.34075267257E+03  0.00000000000E+00 0.  1.
         11    1    1    2    0    0  0.87501530457E+01 -0.30798140439E+02 -0.13853256691E+03  0.14218425625E+03  0.00000000000E+00 0. -1.
<mgrwt>
<rscale>  0 0.18388905E+03</rscale>
<asrwt>0</asrwt>
<pdfrwt beam="2">  1        1 0.23794730E+00 0.21790734E+03</pdfrwt>
<pdfrwt beam="1">  1       -1 0.26923293E-02 0.21790734E+03</pdfrwt>
<totfact> 0.29455693E+03</totfact>
</mgrwt>
</event>
<event>
 6    1  0.4705246E-006  0.3496327E+03  0.7546771E-02  0.1062766E+00
          2   -1    0    0  501    0  0.00000000000E+00  0.00000000000E+00  0.76031195033E+03  0.76031195033E+03  0.00000000000E+00 0. -1.
         -2   -1    0    0    0  501 -0.00000000000E+00 -0.00000000000E+00 -0.40195033752E+02  0.40195033752E+02  0.00000000000E+00 0.  1.
          5    1    1    2  502    0  0.24336702375E+02 -0.75066013131E+01  0.63944539430E+02  0.68989986728E+02  0.47000000000E+01 0.  1.
         -5    1    1    2    0  502 -0.13613456261E+03  0.66960035297E+02  0.43513954959E+03  0.46085223562E+03  0.47000000000E+01 0.  1.
        -11    1    1    2    0    0  0.61316806979E+02 -0.22420830677E+02  0.34369090447E+02  0.73781290613E+02  0.00000000000E+00 0.  1.
         11    1    1    2    0    0  0.50481053257E+02 -0.37032603307E+02  0.18666373711E+03  0.19688347111E+03  0.00000000000E+00 0. -1.
<mgrwt>
<rscale>  0 0.34963275E+03</rscale>
<asrwt>0</asrwt>
<pdfrwt beam="1">  1        2 0.11697106E+00 0.34963275E+03</pdfrwt>
<pdfrwt beam="2">  1       -2 0.61838519E-02 0.34963275E+03</pdfrwt>
<totfact> 0.53688361E+03</totfact>
</mgrwt>
</event>
<event>
 6    1  0.4705246E-006  0.1695090E+03  0.7546771E-02  0.1184780E+00
         -4   -1    0    0    0  501 -0.00000000000E+00  0.00000000000E+00  0.89633394068E+02  0.89633394068E+02  0.00000000000E+00 0.  1.
          4   -1    0    0  501    0  0.00000000000E+00 -0.00000000000E+00 -0.28807815705E+03  0.28807815705E+03  0.00000000000E+00 0. -1.
          5    1    1    2  502    0 -0.31684041528E+02  0.18521268145E+02 -0.13517969284E+03  0.14015190051E+03  0.47000000000E+01 0. -1.
         -5    1    1    2    0  502 -0.52023527104E+02  0.59610569863E+02 -0.43169284144E+01  0.79376276573E+02  0.47000000000E+01 0. -1.
        -11    1    1    2    0    0  0.14214706553E+02  0.18584897469E+02  0.35840592520E+01  0.23670694478E+02  0.00000000000E+00 0.  1.
         11    1    1    2    0    0  0.69492862078E+02 -0.96716735477E+02 -0.62532200980E+02  0.13451267955E+03  0.00000000000E+00 0. -1.
<mgrwt>
<rscale>  0 0.16351900E+03</rscale>
<asrwt>0</asrwt>
<pdfrwt beam="2">  1        4 0.44319717E-01 0.16950904E+03</pdfrwt>
<pdfrwt beam="1">  1       -4 0.13789753E-01 0.16950904E+03</pdfrwt>
<totfact> 0.37457298E+02</totfact>
</mgrwt>
</event>
<event>
 6    1  0.4705246E-006  0.1277453E+03  0.7546771E-02  0.1244991E+00
         -1   -1    0    0    0  501 -0.00000000000E+00  0.00000000000E+00  0.47963193563E+02  0.47963193563E+02  0.00000000000E+00 0.  1.
          1   -1    0    0  501    0  0.00000000000E+00 -0.00000000000E+00 -0.33420403094E+03  0.33420403094E+03  0.00000000000E+00 0. -1.
          5    1    1    2  502    0  0.31341617760E+02  0.40337873398E+02 -0.11455013841E+03  0.12551201235E+03  0.47000000000E+01 0. -1.
         -5    1    1    2    0  502 -0.36659109989E+02 -0.66143277836E+02 -0.13365142788E+03  0.15363468919E+03  0.47000000000E+01 0. -1.
        -11    1    1    2    0    0 -0.39785307379E+02  0.30005645029E+02 -0.14112229038E+02  0.51791547817E+02  0.00000000000E+00 0.  1.
         11    1    1    2    0    0  0.45102799607E+02 -0.42002405912E+01 -0.23927042047E+02  0.51228975146E+02  0.00000000000E+00 0. -1.
<mgrwt>
<rscale>  0 0.11885915E+03</rscale>
<asrwt>0</asrwt>
<pdfrwt beam="2">  1        1 0.51416003E-01 0.12774531E+03</pdfrwt>
<pdfrwt beam="1">  1       -1 0.73789531E-02 0.12774531E+03</pdfrwt>
<totfact> 0.70652778E+03</totfact>
</mgrwt>
</event>
<event>
 6    1  0.4705246E-006  0.1280073E+03  0.7546771E-02  0.1247338E+00
          3   -1    0    0  501    0  0.00000000000E+00  0.00000000000E+00  0.11806381679E+03  0.11806381679E+03  0.00000000000E+00 0. -1.
         -3   -1    0    0    0  501 -0.00000000000E+00 -0.00000000000E+00 -0.11081431976E+03  0.11081431976E+03  0.00000000000E+00 0.  1.
          5    1    1    2  502    0 -0.16334333155E+01  0.43317791034E+02 -0.18992919771E+02  0.47559648084E+02  0.47000000000E+01 0. -1.
         -5    1    1    2    0  502  0.23495743525E+02 -0.60174412257E+02  0.56180265839E+02  0.85739851434E+02  0.47000000000E+01 0. -1.
        -11    1    1    2    0    0 -0.22347162806E+01  0.37705815369E+02 -0.48485549259E+02  0.61461947223E+02  0.00000000000E+00 0.  1.
         11    1    1    2    0    0 -0.19627593929E+02 -0.20849194146E+02  0.18547700218E+02  0.34116689806E+02  0.00000000000E+00 0. -1.
<mgrwt>
<rscale>  0 0.11746548E+03</rscale>
<asrwt>0</asrwt>
<pdfrwt beam="1">  1        3 0.18163664E-01 0.12800726E+03</pdfrwt>
<pdfrwt beam="2">  1       -3 0.17048357E-01 0.12800726E+03</pdfrwt>
<totfact> 0.17960632E+03</totfact>
</mgrwt>
</event>
<event>
 6    1  0.4705246E-006  0.1797075E+03  0.7546771E-02  0.1188476E+00
          2   -1    0    0  501    0  0.00000000000E+00  0.00000000000E+00  0.33106496077E+04  0.33106496077E+04  0.00000000000E+00 0. -1.
         -2   -1    0    0    0  501 -0.00000000000E+00 -0.00000000000E+00 -0.72279730879E+02  0.72279730879E+02  0.00000000000E+00 0.  1.
          5    1    1    2  502    0  0.15509963688E+02  0.10592218328E+03  0.19924075809E+04  0.19952869784E+04  0.47000000000E+01 0. -1.
         -5    1    1    2    0  502  0.37758413764E+02 -0.61684694087E+02  0.12696523205E+04  0.12717192317E+04  0.47000000000E+01 0.  1.
        -11    1    1    2    0    0 -0.12276698051E+02 -0.63693123901E+02 -0.27361993917E+02  0.70400355528E+02  0.00000000000E+00 0.  1.
         11    1    1    2    0    0 -0.40991679401E+02  0.19455634704E+02  0.36719694046E+01  0.45522772995E+02  0.00000000000E+00 0. -1.
<mgrwt>
<rscale>  0 0.16019585E+03</rscale>
<asrwt>0</asrwt>
<pdfrwt beam="1">  1        2 0.50933059E+00 0.17970748E+03</pdfrwt>
<pdfrwt beam="2">  1       -2 0.11119961E-01 0.17970748E+03</pdfrwt>
<totfact> 0.79026418E+01</totfact>
</mgrwt>
</event>
<event>
 6    1  0.4705246E-006  0.1253662E+03  0.7546771E-02  0.1252420E+00
          2   -1    0    0  501    0  0.00000000000E+00  0.00000000000E+00  0.14319249245E+03  0.14319249245E+03  0.00000000000E+00 0. -1.
         -2   -1    0    0    0  501 -0.00000000000E+00 -0.00000000000E+00 -0.81955442573E+02  0.81955442573E+02  0.00000000000E+00 0.  1.
          5    1    1    2  502    0  0.52862075664E+02 -0.11131802471E+02  0.58104123115E+02  0.79476381352E+02  0.47000000000E+01 0. -1.
         -5    1    1    2    0  502 -0.54338900044E+02  0.20503999484E+02 -0.10129138205E+01  0.58277320179E+02  0.47000000000E+01 0. -1.
        -11    1    1    2    0    0 -0.24961357327E+02 -0.51909318570E+01  0.37052051219E+02  0.44976323024E+02  0.00000000000E+00 0. -1.
         11    1    1    2    0    0  0.26438181707E+02 -0.41812651556E+01 -0.32906210635E+02  0.42417910470E+02  0.00000000000E+00 0.  1.
<mgrwt>
<rscale>  0 0.11452061E+03</rscale>
<asrwt>0</asrwt>
<pdfrwt beam="1">  1        2 0.22029614E-01 0.12536617E+03</pdfrwt>
<pdfrwt beam="2">  1       -2 0.12608530E-01 0.12536617E+03</pdfrwt>
<totfact> 0.10578811E+04</totfact>
</mgrwt>
</event>
<event>
 6    1  0.4705246E-006  0.2523647E+03  0.7546771E-02  0.1111819E+00
         -1   -1    0    0    0  501 -0.00000000000E+00  0.00000000000E+00  0.41482612041E+03  0.41482612041E+03  0.00000000000E+00 0.  1.
          1   -1    0    0  501    0  0.00000000000E+00 -0.00000000000E+00 -0.38382312202E+02  0.38382312202E+02  0.00000000000E+00 0. -1.
          5    1    1    2  502    0 -0.68545537324E+02  0.59264259884E+02  0.93390887319E+02  0.13021018017E+03  0.47000000000E+01 0. -1.
         -5    1    1    2    0  502  0.42201001669E+02 -0.54790962858E+01  0.89984206889E+02  0.99650351367E+02  0.47000000000E+01 0. -1.
        -11    1    1    2    0    0 -0.20589497120E+02 -0.48568166510E+02  0.15154923214E+03  0.16046795303E+03  0.00000000000E+00 0.  1.
         11    1    1    2    0    0  0.46934032775E+02 -0.52169970881E+01  0.41519481867E+02  0.62879948041E+02  0.00000000000E+00 0. -1.
<mgrwt>
<rscale>  0 0.25236470E+03</rscale>
<asrwt>0</asrwt>
<pdfrwt beam="2">  1        1 0.59049714E-02 0.25236470E+03</pdfrwt>
<pdfrwt beam="1">  1       -1 0.63819400E-01 0.25236470E+03</pdfrwt>
<totfact> 0.33805639E+03</totfact>
</mgrwt>
</event>
<event>
 6    1  0.4705246E-006  0.2929062E+03  0.7546771E-02  0.1088841E+00
          1   -1    0    0  501    0  0.00000000000E+00  0.00000000000E+00  0.10513697944E+03  0.10513697944E+03  0.00000000000E+00 0. -1.
         -1   -1    0    0    0  501 -0.00000000000E+00 -0.00000000000E+00 -0.20400535674E+03  0.20400535674E+03  0.00000000000E+00 0.  1.
          5    1    1    2  502    0 -0.62668385235E+02 -0.82236476084E+02  0.15155913302E+02  0.10460380593E+03  0.47000000000E+01 0. -1.
         -5    1    1    2    0  502  0.40558992015E+02 -0.61253769033E+01 -0.29464467565E+02  0.50722745632E+02  0.47000000000E+01 0. -1.
        -11    1    1    2    0    0 -0.28869752307E+02  0.44952518522E+02 -0.11373952868E+02  0.54621958255E+02  0.00000000000E+00 0. -1.
         11    1    1    2    0    0  0.50979145527E+02  0.43409334465E+02 -0.73185870167E+02  0.99193826368E+02  0.00000000000E+00 0.  1.
<mgrwt>
<rscale>  0 0.29290618E+03</rscale>
<asrwt>0</asrwt>
<pdfrwt beam="1">  1        1 0.16174920E-01 0.29290618E+03</pdfrwt>
<pdfrwt beam="2">  1       -1 0.31385439E-01 0.29290618E+03</pdfrwt>
<totfact> 0.31812222E+03</totfact>
</mgrwt>
</event>
<event>
 6    1  0.4705246E-006  0.3118218E+03  0.7546771E-02  0.1079476E+00
          2   -1    0    0  501    0  0.00000000000E+00  0.00000000000E+00  0.42043792995E+03  0.42043792995E+03  0.00000000000E+00 0. -1.
         -2   -1    0    0    0  501 -0.00000000000E+00 -0.00000000000E+00 -0.57816407181E+02  0.57816407181E+02  0.00000000000E+00 0.  1.
          5    1    1    2  502    0 -0.10360812738E+03 -0.70449894593E+02  0.19226284876E+03  0.22953196885E+03  0.47000000000E+01 0. -1.
         -5    1    1    2    0  502  0.27074040486E+01  0.38052827117E+02  0.54768099766E+02  0.66910256615E+02  0.47000000000E+01 0. -1.
        -11    1    1    2    0    0  0.55325122771E+02  0.38061213439E+02  0.11621386324E+02  0.68151168722E+02  0.00000000000E+00 0. -1.
         11    1    1    2    0    0  0.45575600562E+02 -0.56641459629E+01  0.10396918792E+03  0.11366094295E+03  0.00000000000E+00 0.  1.
<mgrwt>
<rscale>  0 0.31182181E+03</rscale>
<asrwt>0</asrwt>
<pdfrwt beam="1">  1        2 0.64682756E-01 0.31182181E+03</pdfrwt>
<pdfrwt beam="2">  1       -2 0.88948322E-02 0.31182181E+03</pdfrwt>
<totfact> 0.60406549E+03</totfact>
</mgrwt>
</event>
<event>
 6    1  0.4705246E-006  0.2115469E+03  0.7546771E-02  0.1144435E+00
          1   -1    0    0  501    0  0.00000000000E+00  0.00000000000E+00  0.33259038538E+03  0.33259038538E+03  0.00000000000E+00 0. -1.
         -1   -1    0    0    0  501 -0.00000000000E+00 -0.00000000000E+00 -0.14798170019E+03  0.14798170019E+03  0.00000000000E+00 0.  1.
          5    1    1    2  502    0  0.39642130111E+02 -0.11723578741E+03  0.15380449240E+03  0.19746807390E+03  0.47000000000E+01 0.  1.
         -5    1    1    2    0  502 -0.61316761569E+02 -0.52044306086E+02  0.42306057705E+02  0.90995865641E+02  0.47000000000E+01 0.  1.
        -11    1    1    2    0    0  0.27439588216E+02  0.88010689455E+02  0.34632391842E+02  0.98479515761E+02  0.00000000000E+00 0. -1.
         11    1    1    2    0    0 -0.57649567581E+01  0.81269404039E+02 -0.46134256760E+02  0.93628630269E+02  0.00000000000E+00 0.  1.
<mgrwt>
<rscale>  0 0.20641750E+03</rscale>
<asrwt>0</asrwt>
<pdfrwt beam="1">  1        1 0.51167751E-01 0.21154691E+03</pdfrwt>
<pdfrwt beam="2">  1       -1 0.22766415E-01 0.21154691E+03</pdfrwt>
<totfact> 0.12469764E+03</totfact>
</mgrwt>
</event>
<event>
 6    1  0.4705246E-006  0.2613941E+03  0.7546771E-02  0.1108504E+00
         -1   -1    0    0    0  501 -0.00000000000E+00  0.00000000000E+00  0.36456591649E+02  0.36456591649E+02  0.00000000000E+00 0.  1.
          1   -1    0    0  501    0  0.00000000000E+00 -0.00000000000E+00 -0.18513810343E+04  0.18513810343E+04  0.00000000000E+00 0. -1.
          5    1    1    2  502    0 -0.17669692465E+03  0.45698209481E+02 -0.10484953812E+04  0.10642719501E+04  0.47000000000E+01 0. -1.
         -5    1    1    2    0  502 -0.41655963090E+02  0.25176746930E+02 -0.77278675609E+02  0.91450377532E+02  0.47000000000E+01 0. -1.
        -11    1    1    2    0    0  0.94229491322E+02 -0.13357722067E+02 -0.41443348656E+03  0.42522081388E+03  0.00000000000E+00 0. -1.
         11    1    1    2    0    0  0.12412339641E+03 -0.57517234344E+02 -0.27471689932E+03  0.30689448440E+03  0.00000000000E+00 0.  1.
<mgrwt>
<rscale>  0 0.25774810E+03</rscale>
<asrwt>0</asrwt>
<pdfrwt beam="2">  1        1 0.28482782E+00 0.26139409E+03</pdfrwt>
<pdfrwt beam="1">  1       -1 0.56087071E-02 0.26139409E+03</pdfrwt>
<totfact> 0.62427362E+02</totfact>
</mgrwt>
</event>
<event>
 6    1  0.4705246E-006  0.2081488E+03  0.7546771E-02  0.1146955E+00
          2   -1    0    0  501    0  0.00000000000E+00  0.00000000000E+00  0.34760182829E+02  0.34760182829E+02  0.00000000000E+00 0. -1.
         -2   -1    0    0    0  501 -0.00000000000E+00 -0.00000000000E+00 -0.13226483075E+04  0.13226483075E+04  0.00000000000E+00 0.  1.
          5    1    1    2  502    0  0.89952015695E+02  0.39123887469E+02 -0.36656198780E+03  0.37948889918E+03  0.47000000000E+01 0. -1.
         -5    1    1    2    0  502  0.69260109285E+02  0.93744621748E+01 -0.49622421304E+02  0.85844731785E+02  0.47000000000E+01 0. -1.
        -11    1    1    2    0    0 -0.36221895560E+02  0.26506763294E+02 -0.17805473640E+03  0.18362495302E+03  0.00000000000E+00 0.  1.
         11    1    1    2    0    0 -0.12299022942E+03 -0.75005112938E+02 -0.69364897914E+03  0.70844990632E+03  0.00000000000E+00 0. -1.
<mgrwt>
<rscale>  0 0.20333535E+03</rscale>
<asrwt>0</asrwt>
<pdfrwt beam="1">  1        2 0.53477214E-02 0.20814881E+03</pdfrwt>
<pdfrwt beam="2">  1       -2 0.20348432E+00 0.20814881E+03</pdfrwt>
<totfact> 0.19675648E+02</totfact>
</mgrwt>
</event>
<event>
 6    1  0.4705246E-006  0.1821128E+03  0.7546771E-02  0.1171298E+00
         -3   -1    0    0    0  501 -0.00000000000E+00  0.00000000000E+00  0.73755011681E+02  0.73755011681E+02  0.00000000000E+00 0.  1.
          3   -1    0    0  501    0  0.00000000000E+00 -0.00000000000E+00 -0.40495478817E+03  0.40495478817E+03  0.00000000000E+00 0. -1.
          5    1    1    2  502    0  0.92100813860E+02  0.90313078442E+02 -0.11947343797E+03  0.17588349676E+03  0.47000000000E+01 0.  1.
         -5    1    1    2    0  502  0.29349519196E+02 -0.37434185451E+02 -0.88272681174E+02  0.10038360802E+03  0.47000000000E+01 0.  1.
        -11    1    1    2    0    0 -0.37594175884E+02  0.35748698206E+01  0.59556244204E+01  0.38230501133E+02  0.00000000000E+00 0.  1.
         11    1    1    2    0    0 -0.83856157172E+02 -0.56453762812E+02 -0.12940928176E+03  0.16421219393E+03  0.00000000000E+00 0. -1.
<mgrwt>
<rscale>  0 0.17643555E+03</rscale>
<asrwt>0</asrwt>
<pdfrwt beam="2">  1        3 0.62300737E-01 0.18211278E+03</pdfrwt>
<pdfrwt beam="1">  1       -3 0.11346925E-01 0.18211278E+03</pdfrwt>
<totfact> 0.36729352E+02</totfact>
</mgrwt>
</event>
<event>
 6    1  0.4705246E-006  0.3178300E+03  0.7546771E-02  0.1076652E+00
         -1   -1    0    0    0  501 -0.00000000000E+00  0.00000000000E+00  0.40535006103E+02  0.40535006103E+02  0.00000000000E+00 0.  1.
          1   -1    0    0  501    0  0.00000000000E+00 -0.00000000000E+00 -0.62301659449E+03  0.62301659449E+03  0.00000000000E+00 0. -1.
          5    1    1    2  502    0 -0.53332625543E+02  0.10877511256E+03 -0.29855305622E+03  0.32223037014E+03  0.47000000000E+01 0.  1.
         -5    1    1    2    0  502  0.33066550973E+02  0.51517625633E+01 -0.20718345849E+02  0.39639340376E+02  0.47000000000E+01 0.  1.
        -11    1    1    2    0    0  0.41825039275E+02 -0.65891328316E+02 -0.82966277385E+02  0.11390524238E+03  0.00000000000E+00 0.  1.
         11    1    1    2    0    0 -0.21558964706E+02 -0.48035546805E+02 -0.18024390893E+03  0.18777664770E+03  0.00000000000E+00 0. -1.
<mgrwt>
<rscale>  0 0.31783003E+03</rscale>
<asrwt>0</asrwt>
<pdfrwt beam="2">  1        1 0.95848703E-01 0.31783003E+03</pdfrwt>
<pdfrwt beam="1">  1       -1 0.62361550E-02 0.31783003E+03</pdfrwt>
<totfact> 0.42079520E+03</totfact>
</mgrwt>
</event>
<event>
 6    1  0.4705246E-006  0.1391470E+03  0.7546771E-02  0.1220997E+00
         -1   -1    0    0    0  501 -0.00000000000E+00  0.00000000000E+00  0.12271227100E+03  0.12271227100E+03  0.00000000000E+00 0.  1.
          1   -1    0    0  501    0  0.00000000000E+00 -0.00000000000E+00 -0.13997421454E+03  0.13997421454E+03  0.00000000000E+00 0. -1.
          5    1    1    2  502    0 -0.44996343721E+02 -0.39064489935E+01 -0.79719999470E+01  0.46103948585E+02  0.47000000000E+01 0. -1.
         -5    1    1    2    0  502  0.32811473673E+02  0.85994985150E+02  0.13570209022E+02  0.93155627036E+02  0.47000000000E+01 0.  1.
        -11    1    1    2    0    0 -0.85947606133E+00  0.14276982972E+02 -0.21925304461E+02  0.26178042661E+02  0.00000000000E+00 0. -1.
         11    1    1    2    0    0  0.13044346109E+02 -0.96365519129E+02 -0.93484814698E+00  0.97248867260E+02  0.00000000000E+00 0.  1.
<mgrwt>
<rscale>  0 0.13445066E+03</rscale>
<asrwt>0</asrwt>
<pdfrwt beam="2">  1        1 0.21534495E-01 0.13914701E+03</pdfrwt>
<pdfrwt beam="1">  1       -1 0.18878811E-01 0.13914701E+03</pdfrwt>
<totfact> 0.49195926E+03</totfact>
</mgrwt>
</event>
<event>
 6    1  0.4705246E-006  0.3879970E+03  0.7546771E-02  0.1048017E+00
          2   -1    0    0  501    0  0.00000000000E+00  0.00000000000E+00  0.81949213753E+03  0.81949213753E+03  0.00000000000E+00 0. -1.
         -2   -1    0    0    0  501 -0.00000000000E+00 -0.00000000000E+00 -0.45925290417E+02  0.45925290417E+02  0.00000000000E+00 0.  1.
          5    1    1    2  502    0 -0.24134651849E+02 -0.10050539104E+02  0.50153931072E+02  0.56753868222E+02  0.47000000000E+01 0.  1.
         -5    1    1    2    0  502  0.62126348326E+02  0.14954034326E+03  0.50899393525E+03  0.53415251899E+03  0.47000000000E+01 0.  1.
        -11    1    1    2    0    0  0.77086582958E+01 -0.44260605844E+02  0.12500644201E+02  0.46633579616E+02  0.00000000000E+00 0.  1.
         11    1    1    2    0    0 -0.45700354773E+02 -0.95229198308E+02  0.20191833659E+03  0.22787746112E+03  0.00000000000E+00 0. -1.
<mgrwt>
<rscale>  0 0.38799698E+03</rscale>
<asrwt>0</asrwt>
<pdfrwt beam="1">  1        2 0.12607570E+00 0.38799698E+03</pdfrwt>
<pdfrwt beam="2">  1       -2 0.70654299E-02 0.38799698E+03</pdfrwt>
<totfact> 0.39697428E+03</totfact>
</mgrwt>
</event>
<event>
 6    1  0.4705246E-006  0.1292488E+03  0.7546771E-02  0.1231428E+00
          1   -1    0    0  501    0  0.00000000000E+00  0.00000000000E+00  0.32655813546E+03  0.32655813546E+03  0.00000000000E+00 0. -1.
         -1   -1    0    0    0  501 -0.00000000000E+00 -0.00000000000E+00 -0.51219658116E+02  0.51219658116E+02  0.00000000000E+00 0.  1.
          5    1    1    2  502    0 -0.50370394576E+02  0.17734342248E+01  0.42365195490E+02  0.66009253197E+02  0.47000000000E+01 0. -1.
         -5    1    1    2    0  502  0.63902554382E+02 -0.31640813163E+02  0.14442834553E+03  0.16114066683E+03  0.47000000000E+01 0. -1.
        -11    1    1    2    0    0 -0.48679627586E+02  0.40017420774E+02  0.94478376266E+02  0.11356612034E+03  0.00000000000E+00 0. -1.
         11    1    1    2    0    0  0.35147467780E+02 -0.10150041836E+02 -0.59334399502E+01  0.37061753201E+02  0.00000000000E+00 0.  1.
<mgrwt>
<rscale>  0 0.12735924E+03</rscale>
<asrwt>0</asrwt>
<pdfrwt beam="1">  1        1 0.50239712E-01 0.12924883E+03</pdfrwt>
<pdfrwt beam="2">  1       -1 0.78799476E-02 0.12924883E+03</pdfrwt>
<totfact> 0.65927031E+03</totfact>
</mgrwt>
</event>
<event>
 6    1  0.4705246E-006  0.1309961E+03  0.7546771E-02  0.1238643E+00
         -2   -1    0    0    0  501 -0.00000000000E+00  0.00000000000E+00  0.20866035283E+02  0.20866035283E+02  0.00000000000E+00 0.  1.
          2   -1    0    0  501    0  0.00000000000E+00 -0.00000000000E+00 -0.11748622557E+04  0.11748622557E+04  0.00000000000E+00 0. -1.
          5    1    1    2  502    0  0.60495908905E+02  0.19646244901E+02 -0.95805113393E+03  0.96017175295E+03  0.47000000000E+01 0.  1.
         -5    1    1    2    0  502 -0.21387300371E+02 -0.17585670949E+02 -0.59712212732E+02  0.65987201708E+02  0.47000000000E+01 0.  1.
        -11    1    1    2    0    0  0.29807982692E+02  0.21469853059E+01 -0.57849266238E+02  0.65112694479E+02  0.00000000000E+00 0.  1.
         11    1    1    2    0    0 -0.68916591225E+02 -0.42075592573E+01 -0.78383607560E+02  0.10445664189E+03  0.00000000000E+00 0. -1.
<mgrwt>
<rscale>  0 0.12274073E+03</rscale>
<asrwt>0</asrwt>
<pdfrwt beam="2">  1        2 0.18074803E+00 0.13099607E+03</pdfrwt>
<pdfrwt beam="1">  1       -2 0.32101594E-02 0.13099607E+03</pdfrwt>
<totfact> 0.76780346E+03</totfact>
</mgrwt>
</event>
<event>
 6    1  0.4705246E-006  0.1355059E+03  0.7546771E-02  0.1231870E+00
          1   -1    0    0  501    0  0.00000000000E+00  0.00000000000E+00  0.13764601922E+03  0.13764601922E+03  0.00000000000E+00 0. -1.
         -1   -1    0    0    0  501 -0.00000000000E+00 -0.00000000000E+00 -0.11210425677E+03  0.11210425677E+03  0.00000000000E+00 0.  1.
          5    1    1    2  502    0 -0.70571025842E+02 -0.56170713413E+02  0.47086286540E+02  0.10185591349E+03  0.47000000000E+01 0.  1.
         -5    1    1    2    0  502  0.37915842583E+02  0.15296404192E+02 -0.13042421156E+01  0.41175018488E+02  0.47000000000E+01 0.  1.
        -11    1    1    2    0    0 -0.28431388595E+02  0.53586019787E+01 -0.21502430049E+02  0.36047371203E+02  0.00000000000E+00 0.  1.
         11    1    1    2    0    0  0.61086571855E+02  0.35515707242E+02  0.12621480692E+01  0.70671972801E+02  0.00000000000E+00 0. -1.
<mgrwt>
<rscale>  0 0.12706933E+03</rscale>
<asrwt>0</asrwt>
<pdfrwt beam="1">  1        1 0.21176311E-01 0.13550591E+03</pdfrwt>
<pdfrwt beam="2">  1       -1 0.17246809E-01 0.13550591E+03</pdfrwt>
<totfact> 0.57930600E+03</totfact>
</mgrwt>
</event>
<event>
 6    1  0.4705246E-006  0.1942480E+03  0.7546771E-02  0.1159030E+00
          1   -1    0    0  501    0  0.00000000000E+00  0.00000000000E+00  0.50990907383E+03  0.50990907383E+03  0.00000000000E+00 0. -1.
         -1   -1    0    0    0  501 -0.00000000000E+00 -0.00000000000E+00 -0.79771278302E+02  0.79771278302E+02  0.00000000000E+00 0.  1.
          5    1    1    2  502    0  0.58755897676E+02  0.13103971732E+02  0.25142214644E+03  0.25857137372E+03  0.47000000000E+01 0. -1.
         -5    1    1    2    0  502  0.84554202790E+02 -0.52736841845E+02  0.90602641002E+02  0.13476466990E+03  0.47000000000E+01 0. -1.
        -11    1    1    2    0    0 -0.60716652645E+02  0.51184958562E+02  0.65339913545E+01  0.79681270914E+02  0.00000000000E+00 0.  1.
         11    1    1    2    0    0 -0.82593447820E+02 -0.11552088449E+02  0.81579016735E+02  0.11666303760E+03  0.00000000000E+00 0. -1.
<mgrwt>
<rscale>  0 0.18937109E+03</rscale>
<asrwt>0</asrwt>
<pdfrwt beam="1">  1        1 0.78447548E-01 0.19424801E+03</pdfrwt>
<pdfrwt beam="2">  1       -1 0.12272505E-01 0.19424801E+03</pdfrwt>
<totfact> 0.19291740E+03</totfact>
</mgrwt>
</event>
<event>
 6    1  0.4705246E-006  0.3436586E+03  0.7546771E-02  0.1065248E+00
          2   -1    0    0  501    0  0.00000000000E+00  0.00000000000E+00  0.32454105502E+03  0.32454105502E+03  0.00000000000E+00 0. -1.
         -2   -1    0    0    0  501 -0.00000000000E+00 -0.00000000000E+00 -0.90975585232E+02  0.90975585232E+02  0.00000000000E+00 0.  1.
          5    1    1    2  502    0  0.96281133455E+02 -0.82223048502E+02  0.17328674813E+03  0.21466502612E+03  0.47000000000E+01 0. -1.
         -5    1    1    2    0  502  0.13435034280E+02  0.17979376017E+02 -0.11745264915E+02  0.25764303910E+02  0.47000000000E+01 0.  1.
        -11    1    1    2    0    0 -0.74284034263E+02  0.47498435615E+02 -0.53718811768E+01  0.88335022724E+02  0.00000000000E+00 0.  1.
         11    1    1    2    0    0 -0.35432133472E+02  0.16745236871E+02  0.77395867751E+02  0.86752287492E+02  0.00000000000E+00 0. -1.
<mgrwt>
<rscale>  0 0.34365862E+03</rscale>
<asrwt>0</asrwt>
<pdfrwt beam="1">  1        2 0.49929392E-01 0.34365862E+03</pdfrwt>
<pdfrwt beam="2">  1       -2 0.13996244E-01 0.34365862E+03</pdfrwt>
<totfact> 0.38655786E+03</totfact>
</mgrwt>
</event>
<event>
 6    1  0.4705246E-006  0.1316664E+03  0.7546771E-02  0.1238507E+00
         -2   -1    0    0    0  501 -0.00000000000E+00  0.00000000000E+00  0.17609667153E+03  0.17609667153E+03  0.00000000000E+00 0.  1.
          2   -1    0    0  501    0  0.00000000000E+00 -0.00000000000E+00 -0.13538857626E+03  0.13538857626E+03  0.00000000000E+00 0. -1.
          5    1    1    2  502    0  0.37928257388E+02  0.11229020513E+02  0.50401568994E+01  0.40151423284E+02  0.47000000000E+01 0. -1.
         -5    1    1    2    0  502 -0.75098581173E+02  0.69429891889E+01 -0.85702673529E+02  0.11425865500E+03  0.47000000000E+01 0. -1.
        -11    1    1    2    0    0  0.51769490954E+02  0.22515417420E+02  0.70558616733E+02  0.90363391982E+02  0.00000000000E+00 0.  1.
         11    1    1    2    0    0 -0.14599167168E+02 -0.40687427122E+02  0.50811995163E+02  0.66711777523E+02  0.00000000000E+00 0. -1.
<mgrwt>
<rscale>  0 0.12282568E+03</rscale>
<asrwt>0</asrwt>
<pdfrwt beam="2">  1        2 0.20829012E-01 0.13166636E+03</pdfrwt>
<pdfrwt beam="1">  1       -2 0.27091796E-01 0.13166636E+03</pdfrwt>
<totfact> 0.31355323E+03</totfact>
</mgrwt>
</event>
<event>
 6    1  0.4705246E-006  0.2394986E+03  0.7546771E-02  0.1120127E+00
          1   -1    0    0  501    0  0.00000000000E+00  0.00000000000E+00  0.49394926314E+03  0.49394926314E+03  0.00000000000E+00 0. -1.
         -1   -1    0    0    0  501 -0.00000000000E+00 -0.00000000000E+00 -0.29031103132E+02  0.29031103132E+02  0.00000000000E+00 0.  1.
          5    1    1    2  502    0 -0.10861771510E+02  0.25629353938E+01 -0.10183766528E+02  0.15822320275E+02  0.47000000000E+01 0. -1.
         -5    1    1    2    0  502  0.55857474068E+02  0.71767819045E+01  0.27340813290E+03  0.27918750105E+03  0.47000000000E+01 0. -1.
        -11    1    1    2    0    0  0.23215920132E+02 -0.27164633683E+02  0.62871336459E+02  0.72316673173E+02  0.00000000000E+00 0. -1.
         11    1    1    2    0    0 -0.68211622690E+02  0.17424916385E+02  0.13882245719E+03  0.15565387178E+03  0.00000000000E+00 0.  1.
<mgrwt>
<rscale>  0 0.23949858E+03</rscale>
<asrwt>0</asrwt>
<pdfrwt beam="1">  1        1 0.75992188E-01 0.23949858E+03</pdfrwt>
<pdfrwt beam="2">  1       -1 0.44663239E-02 0.23949858E+03</pdfrwt>
<totfact> 0.94513916E+03</totfact>
</mgrwt>
</event>
<event>
 6    1  0.4705246E-006  0.1259013E+03  0.7546771E-02  0.1248711E+00
         -2   -1    0    0    0  501 -0.00000000000E+00  0.00000000000E+00  0.28066616143E+02  0.28066616143E+02  0.00000000000E+00 0.  1.
          2   -1    0    0  501    0  0.00000000000E+00 -0.00000000000E+00 -0.44383936617E+03  0.44383936617E+03  0.00000000000E+00 0. -1.
          5    1    1    2  502    0  0.32836735122E+02 -0.60584527613E+02 -0.19053544640E+03  0.20266865198E+03  0.47000000000E+01 0. -1.
         -5    1    1    2    0  502 -0.26530958138E+02  0.46984213234E+02 -0.94218013385E+02  0.10867627192E+03  0.47000000000E+01 0. -1.
        -11    1    1    2    0    0  0.32510668584E+02 -0.22635264967E+02 -0.59592989829E+02  0.71558530090E+02  0.00000000000E+00 0.  1.
         11    1    1    2    0    0 -0.38816445568E+02  0.36235579346E+02 -0.71426300417E+02  0.89002528325E+02  0.00000000000E+00 0. -1.
<mgrwt>
<rscale>  0 0.11665998E+03</rscale>
<asrwt>0</asrwt>
<pdfrwt beam="2">  1        2 0.68282976E-01 0.12590127E+03</pdfrwt>
<pdfrwt beam="1">  1       -2 0.43179411E-02 0.12590127E+03</pdfrwt>
<totfact> 0.16310639E+04</totfact>
</mgrwt>
</event>
<event>
 6    1  0.4705246E-006  0.1273047E+03  0.7546771E-02  0.1247564E+00
          1   -1    0    0  501    0  0.00000000000E+00  0.00000000000E+00  0.10005185479E+04  0.10005185479E+04  0.00000000000E+00 0. -1.
         -1   -1    0    0    0  501 -0.00000000000E+00 -0.00000000000E+00 -0.14753905298E+02  0.14753905298E+02  0.00000000000E+00 0.  1.
          5    1    1    2  502    0 -0.19585723713E+02 -0.70455362714E+02  0.40217698235E+03  0.40879820675E+03  0.47000000000E+01 0.  1.
         -5    1    1    2    0  502  0.24607731352E+02  0.46849117055E+02  0.37242910998E+03  0.37619929847E+03  0.47000000000E+01 0.  1.
        -11    1    1    2    0    0 -0.11230367487E+02  0.56323381982E+02  0.11560991023E+03  0.12908948778E+03  0.00000000000E+00 0.  1.
         11    1    1    2    0    0  0.62083598475E+01 -0.32717136324E+02  0.95548640036E+02  0.10118546019E+03  0.00000000000E+00 0. -1.
<mgrwt>
<rscale>  0 0.11733220E+03</rscale>
<asrwt>0</asrwt>
<pdfrwt beam="1">  1        1 0.15392588E+00 0.12730469E+03</pdfrwt>
<pdfrwt beam="2">  1       -1 0.22698324E-02 0.12730469E+03</pdfrwt>
<totfact> 0.87620596E+03</totfact>
</mgrwt>
</event>
<event>
 6    1  0.4705246E-006  0.2655147E+03  0.7546771E-02  0.1106002E+00
          2   -1    0    0  501    0  0.00000000000E+00  0.00000000000E+00  0.41158210814E+03  0.41158210814E+03  0.00000000000E+00 0. -1.
         -2   -1    0    0    0  501 -0.00000000000E+00 -0.00000000000E+00 -0.16520916667E+03  0.16520916667E+03  0.00000000000E+00 0.  1.
          5    1    1    2  502    0 -0.22316887297E+02  0.10155593077E+02  0.75696322670E+02  0.79706980844E+02  0.47000000000E+01 0.  1.
         -5    1    1    2    0  502 -0.20682196126E+03 -0.58797940805E+02  0.89116267797E+02  0.23280103240E+03  0.47000000000E+01 0.  1.
        -11    1    1    2    0    0  0.82043020689E+02  0.18645429899E+02 -0.15451850889E+02  0.85542205933E+02  0.00000000000E+00 0.  1.
         11    1    1    2    0    0  0.14709582786E+03  0.29996917829E+02  0.97012201886E+02  0.17874105563E+03  0.00000000000E+00 0. -1.
<mgrwt>
<rscale>  0 0.26190908E+03</rscale>
<asrwt>0</asrwt>
<pdfrwt beam="1">  1        2 0.63320324E-01 0.26551472E+03</pdfrwt>
<pdfrwt beam="2">  1       -2 0.25416795E-01 0.26551472E+03</pdfrwt>
<totfact> 0.10687860E+03</totfact>
</mgrwt>
</event>
<event>
 6    1  0.4705246E-006  0.1289716E+03  0.7546771E-02  0.1241415E+00
         -1   -1    0    0    0  501 -0.00000000000E+00  0.00000000000E+00  0.19575244354E+02  0.19575244354E+02  0.00000000000E+00 0.  1.
          1   -1    0    0  501    0  0.00000000000E+00 -0.00000000000E+00 -0.83989858698E+03  0.83989858698E+03  0.00000000000E+00 0. -1.
          5    1    1    2  502    0  0.90863117803E+01  0.18498056120E+02 -0.54029459631E+03  0.54070794330E+03  0.47000000000E+01 0. -1.
         -5    1    1    2    0  502 -0.14802966343E+02 -0.49742339961E+02 -0.10350233068E+03  0.11588032902E+03  0.47000000000E+01 0. -1.
        -11    1    1    2    0    0  0.15508971543E+02 -0.29964797221E+02 -0.36244494438E+02  0.49518487940E+02  0.00000000000E+00 0.  1.
         11    1    1    2    0    0 -0.97923169800E+01  0.61209081061E+02 -0.14028192119E+03  0.15336707108E+03  0.00000000000E+00 0. -1.
<mgrwt>
<rscale>  0 0.12102522E+03</rscale>
<asrwt>0</asrwt>
<pdfrwt beam="2">  1        1 0.12921514E+00 0.12897161E+03</pdfrwt>
<pdfrwt beam="1">  1       -1 0.30115767E-02 0.12897161E+03</pdfrwt>
<totfact> 0.77091478E+03</totfact>
</mgrwt>
</event>
<event>
 6    1  0.4705246E-006  0.1255076E+03  0.7546771E-02  0.1249163E+00
         -2   -1    0    0    0  501 -0.00000000000E+00  0.00000000000E+00  0.13896753977E+02  0.13896753977E+02  0.00000000000E+00 0. -1.
          2   -1    0    0  501    0  0.00000000000E+00 -0.00000000000E+00 -0.10712548090E+04  0.10712548090E+04  0.00000000000E+00 0.  1.
          5    1    1    2  502    0 -0.23962450146E+02 -0.31873734342E+02 -0.88667721746E+02  0.97335444919E+02  0.47000000000E+01 0.  1.
         -5    1    1    2    0  502  0.25567697346E+02  0.20783925403E+02 -0.74340193111E+03  0.74414662526E+03  0.47000000000E+01 0.  1.
        -11    1    1    2    0    0 -0.32270057134E+02 -0.20469908917E+02 -0.16290922472E+03  0.16733137560E+03  0.00000000000E+00 0.  1.
         11    1    1    2    0    0  0.30664809934E+02  0.31559717857E+02 -0.62379177423E+02  0.76338117186E+02  0.00000000000E+00 0. -1.
<mgrwt>
<rscale>  0 0.11639672E+03</rscale>
<asrwt>0</asrwt>
<pdfrwt beam="2">  1        2 0.16480845E+00 0.12550764E+03</pdfrwt>
<pdfrwt beam="1">  1       -2 0.21379620E-02 0.12550764E+03</pdfrwt>
<totfact> 0.15878911E+04</totfact>
</mgrwt>
</event>
<event>
 6    1  0.4705246E-006  0.2581754E+03  0.7546771E-02  0.1108244E+00
          1   -1    0    0  501    0  0.00000000000E+00  0.00000000000E+00  0.25137886668E+03  0.25137886668E+03  0.00000000000E+00 0. -1.
         -1   -1    0    0    0  501 -0.00000000000E+00 -0.00000000000E+00 -0.66288908654E+02  0.66288908654E+02  0.00000000000E+00 0.  1.
          5    1    1    2  502    0 -0.75843873740E+01 -0.49495711487E+01 -0.23891420751E+02  0.25979052560E+02  0.47000000000E+01 0.  1.
         -5    1    1    2    0  502 -0.44953435887E+02  0.69594482334E+01  0.15899970319E+03  0.16544558299E+03  0.47000000000E+01 0.  1.
        -11    1    1    2    0    0  0.78280956867E+02 -0.20952682057E+02  0.48077164795E+02  0.94224926999E+02  0.00000000000E+00 0.  1.
         11    1    1    2    0    0 -0.25743133605E+02  0.18942804972E+02  0.19045107892E+01  0.32018212776E+02  0.00000000000E+00 0. -1.
<mgrwt>
<rscale>  0 0.25817537E+03</rscale>
<asrwt>0</asrwt>
<pdfrwt beam="1">  1        1 0.38673671E-01 0.25817537E+03</pdfrwt>
<pdfrwt beam="2">  1       -1 0.10198294E-01 0.25817537E+03</pdfrwt>
<totfact> 0.64133711E+03</totfact>
</mgrwt>
</event>
<event>
 6    1  0.4705246E-006  0.1323264E+03  0.7546771E-02  0.1239266E+00
         -3   -1    0    0    0  501 -0.00000000000E+00  0.00000000000E+00  0.88390802971E+02  0.88390802971E+02  0.00000000000E+00 0.  1.
          3   -1    0    0  501    0  0.00000000000E+00 -0.00000000000E+00 -0.15007756275E+03  0.15007756275E+03  0.00000000000E+00 0. -1.
          5    1    1    2  502    0 -0.24440072711E+02  0.43964020423E+02 -0.65820224929E+02  0.82973153824E+02  0.47000000000E+01 0. -1.
         -5    1    1    2    0  502  0.53576403851E+02 -0.11747009089E+02  0.17708346794E+02  0.57828183599E+02  0.47000000000E+01 0. -1.
        -11    1    1    2    0    0 -0.47877874569E+02  0.23882216625E+01  0.13615044505E+02  0.49833361444E+02  0.00000000000E+00 0.  1.
         11    1    1    2    0    0  0.18741543428E+02 -0.34605232996E+02 -0.27189926151E+02  0.47833666856E+02  0.00000000000E+00 0. -1.
<mgrwt>
<rscale>  0 0.12235247E+03</rscale>
<asrwt>0</asrwt>
<pdfrwt beam="2">  1        3 0.23088856E-01 0.13232635E+03</pdfrwt>
<pdfrwt beam="1">  1       -3 0.13598585E-01 0.13232635E+03</pdfrwt>
<totfact> 0.17421896E+03</totfact>
</mgrwt>
</event>
<event>
 6    1  0.4705246E-006  0.1278911E+03  0.7546771E-02  0.1244825E+00
         -2   -1    0    0    0  501 -0.00000000000E+00  0.00000000000E+00  0.36350057305E+02  0.36350057305E+02  0.00000000000E+00 0.  1.
          2   -1    0    0  501    0  0.00000000000E+00 -0.00000000000E+00 -0.44367029377E+03  0.44367029377E+03  0.00000000000E+00 0. -1.
          5    1    1    2  502    0 -0.99211546745E+01 -0.37878115139E+02 -0.28640442045E+02  0.48739571573E+02  0.47000000000E+01 0.  1.
         -5    1    1    2    0  502 -0.16917253031E+02  0.41161585413E+02 -0.31060216147E+03  0.31380927691E+03  0.47000000000E+01 0.  1.
        -11    1    1    2    0    0  0.42653519327E+02  0.34432596184E+02 -0.40146980700E+02  0.67946349793E+02  0.00000000000E+00 0.  1.
         11    1    1    2    0    0 -0.15815111622E+02 -0.37716066458E+02 -0.27930652248E+02  0.49525152798E+02  0.00000000000E+00 0. -1.
<mgrwt>
<rscale>  0 0.11895882E+03</rscale>
<asrwt>0</asrwt>
<pdfrwt beam="2">  1        2 0.68256967E-01 0.12789106E+03</pdfrwt>
<pdfrwt beam="1">  1       -2 0.55923166E-02 0.12789106E+03</pdfrwt>
<totfact> 0.11091135E+04</totfact>
</mgrwt>
</event>
<event>
 6    1  0.4705246E-006  0.1584731E+03  0.7546771E-02  0.1198444E+00
          3   -1    0    0  501    0  0.00000000000E+00  0.00000000000E+00  0.12016801384E+03  0.12016801384E+03  0.00000000000E+00 0. -1.
         -3   -1    0    0    0  501 -0.00000000000E+00 -0.00000000000E+00 -0.17697539808E+03  0.17697539808E+03  0.00000000000E+00 0.  1.
          5    1    1    2  502    0 -0.41482887064E+02  0.13228534524E+02  0.60259219582E+01  0.44206625977E+02  0.47000000000E+01 0. -1.
         -5    1    1    2    0  502  0.20698765488E+02 -0.10838145150E+03 -0.43047784012E+02  0.11853345364E+03  0.47000000000E+01 0. -1.
        -11    1    1    2    0    0  0.53895159855E+02  0.61823030162E+02 -0.28090173735E+02  0.86693905061E+02  0.00000000000E+00 0.  1.
         11    1    1    2    0    0 -0.33111038279E+02  0.33329886819E+02  0.83046515467E+01  0.47709427250E+02  0.00000000000E+00 0. -1.
<mgrwt>
<rscale>  0 0.15166304E+03</rscale>
<asrwt>0</asrwt>
<pdfrwt beam="1">  1        3 0.18487387E-01 0.15847307E+03</pdfrwt>
<pdfrwt beam="2">  1       -3 0.27226984E-01 0.15847307E+03</pdfrwt>
<totfact> 0.78363241E+02</totfact>
</mgrwt>
</event>
<event>
 6    1  0.4705246E-006  0.1393993E+03  0.7546771E-02  0.1225954E+00
          1   -1    0    0  501    0  0.00000000000E+00  0.00000000000E+00  0.62711214472E+02  0.62711214472E+02  0.00000000000E+00 0. -1.
         -1   -1    0    0    0  501 -0.00000000000E+00 -0.00000000000E+00 -0.25637061773E+03  0.25637061773E+03  0.00000000000E+00 0.  1.
          5    1    1    2  502    0 -0.15582474427E+02 -0.30613948617E+02  0.44290712176E+01  0.34953312162E+02  0.47000000000E+01 0.  1.
         -5    1    1    2    0  502  0.18514797268E+02  0.92244710418E+02 -0.80144001154E+02  0.12368118385E+03  0.47000000000E+01 0.  1.
        -11    1    1    2    0    0 -0.36081933590E+02 -0.60479399413E+02 -0.10119502278E+03  0.12328867069E+03  0.00000000000E+00 0.  1.
         11    1    1    2    0    0  0.33149610750E+02 -0.11513623871E+01 -0.16749450541E+02  0.37158665499E+02  0.00000000000E+00 0. -1.
<mgrwt>
<rscale>  0 0.13101761E+03</rscale>
<asrwt>0</asrwt>
<pdfrwt beam="1">  1        1 0.96478793E-02 0.13939926E+03</pdfrwt>
<pdfrwt beam="2">  1       -1 0.39441633E-01 0.13939926E+03</pdfrwt>
<totfact> 0.40916986E+03</totfact>
</mgrwt>
</event>
<event>
 6    1  0.4705246E-006  0.2438480E+03  0.7546771E-02  0.1119914E+00
         -3   -1    0    0    0  501 -0.00000000000E+00  0.00000000000E+00  0.77978174807E+03  0.77978174807E+03  0.00000000000E+00 0.  1.
          3   -1    0    0  501    0  0.00000000000E+00 -0.00000000000E+00 -0.93703578962E+02  0.93703578962E+02  0.00000000000E+00 0. -1.
          5    1    1    2  502    0 -0.12048487317E+03  0.25451602653E+02  0.15836225466E+02  0.12424678981E+03  0.47000000000E+01 0.  1.
         -5    1    1    2    0  502 -0.65364705792E+02  0.70871104937E+02  0.12300582819E+03  0.15635786532E+03  0.47000000000E+01 0.  1.
        -11    1    1    2    0    0  0.79728523420E+02 -0.35466458987E+02  0.35060878594E+03  0.36130461931E+03  0.00000000000E+00 0.  1.
         11    1    1    2    0    0  0.10612105554E+03 -0.60856248603E+02  0.19662732951E+03  0.23157605259E+03  0.00000000000E+00 0. -1.
<mgrwt>
<rscale>  0 0.23981797E+03</rscale>
<asrwt>0</asrwt>
<pdfrwt beam="2">  1        3 0.14415936E-01 0.24384802E+03</pdfrwt>
<pdfrwt beam="1">  1       -3 0.11996642E+00 0.24384802E+03</pdfrwt>
<totfact> 0.58272239E+01</totfact>
</mgrwt>
</event>
<event>
 6    1  0.4705246E-006  0.1367328E+03  0.7546771E-02  0.1228564E+00
         -2   -1    0    0    0  501 -0.00000000000E+00  0.00000000000E+00  0.34632170798E+03  0.34632170798E+03  0.00000000000E+00 0.  1.
          2   -1    0    0  501    0  0.00000000000E+00 -0.00000000000E+00 -0.43661678179E+02  0.43661678179E+02  0.00000000000E+00 0. -1.
          5    1    1    2  502    0 -0.58260064508E+02  0.63167219070E+02  0.16293834286E+03  0.18426971063E+03  0.47000000000E+01 0. -1.
         -5    1    1    2    0  502  0.21474997397E+02 -0.21713013594E+02  0.34469024997E+01  0.31090217261E+02  0.47000000000E+01 0. -1.
        -11    1    1    2    0    0  0.15713189536E+02 -0.13866384543E+01 -0.11853691787E+02  0.19731626911E+02  0.00000000000E+00 0. -1.
         11    1    1    2    0    0  0.21071877575E+02 -0.40067567022E+02  0.14812847623E+03  0.15489183136E+03  0.00000000000E+00 0.  1.
<mgrwt>
<rscale>  0 0.12925594E+03</rscale>
<asrwt>0</asrwt>
<pdfrwt beam="2">  1        2 0.67171815E-02 0.13673276E+03</pdfrwt>
<pdfrwt beam="1">  1       -2 0.53280261E-01 0.13673276E+03</pdfrwt>
<totfact> 0.34408075E+03</totfact>
</mgrwt>
</event>
<event>
 6    1  0.4705246E-006  0.1340702E+03  0.7546771E-02  0.1233243E+00
         -1   -1    0    0    0  501 -0.00000000000E+00  0.00000000000E+00  0.53370603516E+02  0.53370603516E+02  0.00000000000E+00 0.  1.
          1   -1    0    0  501    0  0.00000000000E+00 -0.00000000000E+00 -0.35745067453E+03  0.35745067453E+03  0.00000000000E+00 0. -1.
          5    1    1    2  502    0  0.54933391705E+02 -0.68883066240E+01 -0.54063317649E+02  0.77524567768E+02  0.47000000000E+01 0.  1.
         -5    1    1    2    0  502 -0.32619760186E+02  0.49929389249E+02 -0.21387682103E+03  0.22208641840E+03  0.47000000000E+01 0.  1.
        -11    1    1    2    0    0 -0.48374899227E+02 -0.56196665130E+02 -0.16320232949E+02  0.75924607674E+02  0.00000000000E+00 0.  1.
         11    1    1    2    0    0  0.26061267708E+02  0.13155582504E+02 -0.19819699383E+02  0.35285684196E+02  0.00000000000E+00 0. -1.
<mgrwt>
<rscale>  0 0.12617597E+03</rscale>
<asrwt>0</asrwt>
<pdfrwt beam="2">  1        1 0.54992411E-01 0.13407022E+03</pdfrwt>
<pdfrwt beam="1">  1       -1 0.82108621E-02 0.13407022E+03</pdfrwt>
<totfact> 0.55497985E+03</totfact>
</mgrwt>
</event>
<event>
 6    1  0.4705246E-006  0.3029661E+03  0.7546771E-02  0.1085671E+00
         -2   -1    0    0    0  501 -0.00000000000E+00  0.00000000000E+00  0.10139580554E+03  0.10139580554E+03  0.00000000000E+00 0.  1.
          2   -1    0    0  501    0  0.00000000000E+00 -0.00000000000E+00 -0.91432447042E+03  0.91432447042E+03  0.00000000000E+00 0. -1.
          5    1    1    2  502    0 -0.16227807749E+03 -0.36193154797E+02 -0.35816549745E+03  0.39490344700E+03  0.47000000000E+01 0. -1.
         -5    1    1    2    0  502 -0.72134376983E+02 -0.10945793018E+03 -0.18070306102E+03  0.22329373723E+03  0.47000000000E+01 0. -1.
        -11    1    1    2    0    0  0.15506351273E+03  0.51210144960E+02 -0.17463493303E+03  0.23909105329E+03  0.00000000000E+00 0.  1.
         11    1    1    2    0    0  0.79348941742E+02  0.94440940020E+02 -0.99425173371E+02  0.15843203845E+03  0.00000000000E+00 0. -1.
<mgrwt>
<rscale>  0 0.29914039E+03</rscale>
<asrwt>0</asrwt>
<pdfrwt beam="2">  1        2 0.14066530E+00 0.30296606E+03</pdfrwt>
<pdfrwt beam="1">  1       -2 0.15599355E-01 0.30296606E+03</pdfrwt>
<totfact> 0.95452636E+02</totfact>
</mgrwt>
</event>
<event>
 6    1  0.4705246E-006  0.1593600E+03  0.7546771E-02  0.1197120E+00
         -1   -1    0    0    0  501 -0.00000000000E+00  0.00000000000E+00  0.26996017263E+02  0.26996017263E+02  0.00000000000E+00 0.  1.
          1   -1    0    0  501    0  0.00000000000E+00 -0.00000000000E+00 -0.80795530713E+03  0.80795530713E+03  0.00000000000E+00 0. -1.
          5    1    1    2  502    0 -0.19378759006E+02 -0.31126460883E+02 -0.19756096866E+02  0.41914033821E+02  0.47000000000E+01 0. -1.
         -5    1    1    2    0  502 -0.21081805634E+02 -0.59082772705E+02 -0.44454863301E+03  0.44897749796E+03  0.47000000000E+01 0. -1.
        -11    1    1    2    0    0  0.53471519876E+01  0.36064444844E+02 -0.22352274270E+02  0.42765177204E+02  0.00000000000E+00 0.  1.
         11    1    1    2    0    0  0.35113412653E+02  0.54144788745E+02 -0.29430228572E+03  0.30129461541E+03  0.00000000000E+00 0. -1.
<mgrwt>
<rscale>  0 0.15276203E+03</rscale>
<asrwt>0</asrwt>
<pdfrwt beam="2">  1        1 0.12430082E+00 0.15936001E+03</pdfrwt>
<pdfrwt beam="1">  1       -1 0.41532332E-02 0.15936001E+03</pdfrwt>
<totfact> 0.51611092E+03</totfact>
</mgrwt>
</event>
<event>
 6    1  0.4705246E-006  0.2961903E+03  0.7546771E-02  0.1128818E+00
         -2   -1    0    0    0  501 -0.00000000000E+00  0.00000000000E+00  0.39397999617E+02  0.39397999617E+02  0.00000000000E+00 0.  1.
          2   -1    0    0  501    0  0.00000000000E+00 -0.00000000000E+00 -0.19539883054E+04  0.19539883054E+04  0.00000000000E+00 0. -1.
          5    1    1    2  502    0  0.15585725747E+03 -0.29857829774E+02 -0.10593912021E+04  0.10712211647E+04  0.47000000000E+01 0. -1.
         -5    1    1    2    0  502 -0.12945554405E+03  0.43567231365E+02 -0.78846282463E+03  0.80022031801E+03  0.47000000000E+01 0.  1.
        -11    1    1    2    0    0 -0.63516128503E+02 -0.38302144699E+01 -0.40318310549E+02  0.75329511405E+02  0.00000000000E+00 0.  1.
         11    1    1    2    0    0  0.37114415085E+02 -0.98791871215E+01 -0.26417968473E+02  0.46615310827E+02  0.00000000000E+00 0. -1.
<mgrwt>
<rscale>  0 0.22693162E+03</rscale>
<asrwt>0</asrwt>
<pdfrwt beam="2">  1        2 0.30061355E+00 0.29619034E+03</pdfrwt>
<pdfrwt beam="1">  1       -2 0.60612314E-02 0.29619034E+03</pdfrwt>
<totfact> 0.11417674E+03</totfact>
</mgrwt>
</event>
<event>
 6    1  0.4705246E-006  0.1397298E+03  0.7546771E-02  0.1223840E+00
         -2   -1    0    0    0  501 -0.00000000000E+00  0.00000000000E+00  0.15820209355E+02  0.15820209355E+02  0.00000000000E+00 0.  1.
          2   -1    0    0  501    0  0.00000000000E+00 -0.00000000000E+00 -0.13377812683E+04  0.13377812683E+04  0.00000000000E+00 0. -1.
          5    1    1    2  502    0 -0.58316906119E+02  0.43820839565E+02 -0.50952214172E+03  0.51473879825E+03  0.47000000000E+01 0. -1.
         -5    1    1    2    0  502  0.63448373816E+02  0.18377420038E+02 -0.53888917614E+03  0.54294296189E+03  0.47000000000E+01 0. -1.
        -11    1    1    2    0    0  0.25425332930E+02 -0.59471816658E+02 -0.24706501572E+03  0.25539081136E+03  0.00000000000E+00 0. -1.
         11    1    1    2    0    0 -0.30556800627E+02 -0.27264429446E+01 -0.26484725323E+02  0.40528906118E+02  0.00000000000E+00 0.  1.
<mgrwt>
<rscale>  0 0.13246732E+03</rscale>
<asrwt>0</asrwt>
<pdfrwt beam="2">  1        2 0.20581252E+00 0.13972979E+03</pdfrwt>
<pdfrwt beam="1">  1       -2 0.24338782E-02 0.13972979E+03</pdfrwt>
<totfact> 0.94175298E+03</totfact>
</mgrwt>
</event>
<event>
 6    1  0.4705246E-006  0.1345229E+03  0.7546771E-02  0.1236598E+00
         -2   -1    0    0    0  501 -0.00000000000E+00  0.00000000000E+00  0.10484897003E+03  0.10484897003E+03  0.00000000000E+00 0.  1.
          2   -1    0    0  501    0  0.00000000000E+00 -0.00000000000E+00 -0.12975352223E+03  0.12975352223E+03  0.00000000000E+00 0. -1.
          5    1    1    2  502    0  0.47860763316E+02 -0.73057565063E+02 -0.27891651491E+02  0.91804655116E+02  0.47000000000E+01 0. -1.
         -5    1    1    2    0  502 -0.38275640353E+02  0.24248327126E+02  0.12800475884E+00  0.45553401608E+02  0.47000000000E+01 0. -1.
        -11    1    1    2    0    0  0.23662807772E+02  0.32333220344E+02  0.31012173489E+02  0.50666759458E+02  0.00000000000E+00 0.  1.
         11    1    1    2    0    0 -0.33247930735E+02  0.16476017592E+02 -0.28153078960E+02  0.46577676077E+02  0.00000000000E+00 0. -1.
<mgrwt>
<rscale>  0 0.12402706E+03</rscale>
<asrwt>0</asrwt>
<pdfrwt beam="2">  1        2 0.19962080E-01 0.13452292E+03</pdfrwt>
<pdfrwt beam="1">  1       -2 0.16130611E-01 0.13452292E+03</pdfrwt>
<totfact> 0.79661966E+03</totfact>
</mgrwt>
</event>
<event>
 6    1  0.4705246E-006  0.1310052E+03  0.7546771E-02  0.1239179E+00
         -2   -1    0    0    0  501 -0.00000000000E+00  0.00000000000E+00  0.63797510723E+02  0.63797510723E+02  0.00000000000E+00 0. -1.
          2   -1    0    0  501    0  0.00000000000E+00 -0.00000000000E+00 -0.24663882440E+03  0.24663882440E+03  0.00000000000E+00 0.  1.
          5    1    1    2  502    0 -0.42723729298E+02 -0.29291394043E+02 -0.76901650058E+02  0.92839951486E+02  0.47000000000E+01 0.  1.
         -5    1    1    2    0  502  0.37825738542E+02  0.68173270569E+02 -0.85257866194E+02  0.11562601379E+03  0.47000000000E+01 0.  1.
        -11    1    1    2    0    0  0.32335684110E+02  0.17206916239E+02 -0.15370977944E+01  0.36661111589E+02  0.00000000000E+00 0. -1.
         11    1    1    2    0    0 -0.27437693354E+02 -0.56088792765E+02 -0.19144699627E+02  0.65309258258E+02  0.00000000000E+00 0.  1.
<mgrwt>
<rscale>  0 0.12240647E+03</rscale>
<asrwt>0</asrwt>
<pdfrwt beam="2">  1        2 0.37944435E-01 0.13100515E+03</pdfrwt>
<pdfrwt beam="1">  1       -2 0.98150014E-02 0.13100515E+03</pdfrwt>
<totfact> 0.87414285E+03</totfact>
</mgrwt>
</event>
<event>
 6    1  0.4705246E-006  0.1593587E+03  0.7546771E-02  0.1197141E+00
         -2   -1    0    0    0  501 -0.00000000000E+00  0.00000000000E+00  0.10678364175E+03  0.10678364175E+03  0.00000000000E+00 0.  1.
          2   -1    0    0  501    0  0.00000000000E+00 -0.00000000000E+00 -0.24876620786E+03  0.24876620786E+03  0.00000000000E+00 0. -1.
          5    1    1    2  502    0  0.10922784109E+03 -0.63848069273E+01 -0.73703791331E+02  0.13200691605E+03  0.47000000000E+01 0.  1.
         -5    1    1    2    0  502 -0.15279578367E+02  0.37095565334E+02 -0.78883545319E+02  0.88624207780E+02  0.47000000000E+01 0.  1.
        -11    1    1    2    0    0 -0.11176032173E+03 -0.22509307385E+02  0.34885880786E+01  0.11405791809E+03  0.00000000000E+00 0. -1.
         11    1    1    2    0    0  0.17812059000E+02 -0.82014510212E+01  0.71161824649E+01  0.20860807692E+02  0.00000000000E+00 0.  1.
<mgrwt>
<rscale>  0 0.15274376E+03</rscale>
<asrwt>0</asrwt>
<pdfrwt beam="2">  1        2 0.38271724E-01 0.15935871E+03</pdfrwt>
<pdfrwt beam="1">  1       -2 0.16428253E-01 0.15935871E+03</pdfrwt>
<totfact> 0.38265904E+03</totfact>
</mgrwt>
</event>
<event>
 6    1  0.4705246E-006  0.1285011E+03  0.7546771E-02  0.1243790E+00
         -3   -1    0    0    0  501 -0.00000000000E+00  0.00000000000E+00  0.11351231792E+03  0.11351231792E+03  0.00000000000E+00 0.  1.
          3   -1    0    0  501    0  0.00000000000E+00 -0.00000000000E+00 -0.11168009796E+03  0.11168009796E+03  0.00000000000E+00 0. -1.
          5    1    1    2  502    0 -0.51023627837E+02  0.44131183160E+02  0.31750669920E+02  0.74707208254E+02  0.47000000000E+01 0.  1.
         -5    1    1    2    0  502  0.24387591042E+02 -0.30748473966E+02 -0.36625420042E+02  0.53886312189E+02  0.47000000000E+01 0.  1.
        -11    1    1    2    0    0  0.34648062110E+02 -0.58455395699E+01  0.44807730589E+02  0.56941999099E+02  0.00000000000E+00 0.  1.
         11    1    1    2    0    0 -0.80120253158E+01 -0.75371696237E+01 -0.38100760507E+02  0.39656896333E+02  0.00000000000E+00 0. -1.
<mgrwt>
<rscale>  0 0.11958062E+03</rscale>
<asrwt>0</asrwt>
<pdfrwt beam="2">  1        3 0.17181554E-01 0.12850109E+03</pdfrwt>
<pdfrwt beam="1">  1       -3 0.17463434E-01 0.12850109E+03</pdfrwt>
<totfact> 0.18985577E+03</totfact>
</mgrwt>
</event>
<event>
 6    1  0.4705246E-006  0.1355517E+03  0.7546771E-02  0.1231456E+00
          2   -1    0    0  501    0  0.00000000000E+00  0.00000000000E+00  0.19000863499E+04  0.19000863499E+04  0.00000000000E+00 0. -1.
         -2   -1    0    0    0  501 -0.00000000000E+00 -0.00000000000E+00 -0.81667109500E+01  0.81667109500E+01  0.00000000000E+00 0.  1.
          5    1    1    2  502    0  0.35069683714E+02  0.46053083927E+02  0.34861946358E+03  0.35342381023E+03  0.47000000000E+01 0.  1.
         -5    1    1    2    0  502 -0.65371791117E+02 -0.32518670739E+01  0.94582567797E+03  0.94809933489E+03  0.47000000000E+01 0.  1.
        -11    1    1    2    0    0  0.47587127938E+02  0.11185705333E+02  0.27518583118E+03  0.27949400071E+03  0.00000000000E+00 0. -1.
         11    1    1    2    0    0 -0.17285020535E+02 -0.53986922186E+02  0.32228866620E+03  0.32723591500E+03  0.00000000000E+00 0.  1.
<mgrwt>
<rscale>  0 0.12734029E+03</rscale>
<asrwt>0</asrwt>
<pdfrwt beam="1">  1        2 0.29232062E+00 0.13555173E+03</pdfrwt>
<pdfrwt beam="2">  1       -2 0.12564186E-02 0.13555173E+03</pdfrwt>
<totfact> 0.12533039E+04</totfact>
</mgrwt>
</event>
<event>
 6    1  0.4705246E-006  0.1481778E+03  0.7546771E-02  0.1212352E+00
          2   -1    0    0  501    0  0.00000000000E+00  0.00000000000E+00  0.19422504733E+03  0.19422504733E+03  0.00000000000E+00 0. -1.
         -2   -1    0    0    0  501 -0.00000000000E+00 -0.00000000000E+00 -0.98043699996E+02  0.98043699996E+02  0.00000000000E+00 0.  1.
          5    1    1    2  502    0  0.10677719414E+03  0.14097390525E+02  0.66731252324E+02  0.12678823149E+03  0.47000000000E+01 0. -1.
         -5    1    1    2    0  502 -0.28423623153E+02 -0.27959647344E+02  0.19170804713E+02  0.44488807425E+02  0.47000000000E+01 0. -1.
        -11    1    1    2    0    0 -0.74607615982E+02  0.26462133539E+01  0.43032671024E+02  0.86169075561E+02  0.00000000000E+00 0. -1.
         11    1    1    2    0    0 -0.37459550073E+01  0.11216043466E+02 -0.32753380723E+02  0.34822632851E+02  0.00000000000E+00 0.  1.
<mgrwt>
<rscale>  0 0.14072880E+03</rscale>
<asrwt>0</asrwt>
<pdfrwt beam="1">  1        2 0.29880776E-01 0.14817780E+03</pdfrwt>
<pdfrwt beam="2">  1       -2 0.15083646E-01 0.14817780E+03</pdfrwt>
<totfact> 0.57276644E+03</totfact>
</mgrwt>
</event>
<event>
 6    1  0.4705246E-006  0.1185806E+03  0.7546771E-02  0.1260856E+00
         -1   -1    0    0    0  501 -0.00000000000E+00  0.00000000000E+00  0.25346114714E+03  0.25346114714E+03  0.00000000000E+00 0.  1.
          1   -1    0    0  501    0  0.00000000000E+00 -0.00000000000E+00 -0.44664863412E+02  0.44664863412E+02  0.00000000000E+00 0. -1.
          5    1    1    2  502    0 -0.38140038928E+02 -0.12457826676E+01 -0.12907622286E+02  0.40557505557E+02  0.47000000000E+01 0. -1.
         -5    1    1    2    0  502  0.40461780634E+02 -0.83532671392E+01  0.94898463606E+02  0.10360859597E+03  0.47000000000E+01 0.  1.
        -11    1    1    2    0    0  0.28136041809E+02  0.36866689118E+02  0.70209672895E+02  0.84143851726E+02  0.00000000000E+00 0.  1.
         11    1    1    2    0    0 -0.30457783514E+02 -0.27267639311E+02  0.56595769513E+02  0.69816057301E+02  0.00000000000E+00 0. -1.
<mgrwt>
<rscale>  0 0.10984579E+03</rscale>
<asrwt>0</asrwt>
<pdfrwt beam="2">  1        1 0.68715176E-02 0.11858063E+03</pdfrwt>
<pdfrwt beam="1">  1       -1 0.38994022E-01 0.11858063E+03</pdfrwt>
<totfact> 0.64986394E+03</totfact>
</mgrwt>
</event>
<event>
 6    1  0.4705246E-006  0.3762589E+03  0.7546771E-02  0.1052325E+00
         -1   -1    0    0    0  501 -0.00000000000E+00  0.00000000000E+00  0.47709843020E+02  0.47709843020E+02  0.00000000000E+00 0.  1.
          1   -1    0    0  501    0  0.00000000000E+00 -0.00000000000E+00 -0.74183191772E+03  0.74183191772E+03  0.00000000000E+00 0. -1.
          5    1    1    2  502    0  0.22707061483E+02 -0.15185299905E+02 -0.36524700540E+03  0.36629724123E+03  0.47000000000E+01 0.  1.
         -5    1    1    2    0  502 -0.85284400726E+02  0.31195224112E+02 -0.29118607206E+03  0.30505407648E+03  0.47000000000E+01 0.  1.
        -11    1    1    2    0    0  0.29677010414E+02 -0.64537837575E+01  0.29771413287E+02  0.42528970373E+02  0.00000000000E+00 0.  1.
         11    1    1    2    0    0  0.32900328829E+02 -0.95561404494E+01 -0.67460410520E+02  0.75661472658E+02  0.00000000000E+00 0. -1.
<mgrwt>
<rscale>  0 0.37625887E+03</rscale>
<asrwt>0</asrwt>
<pdfrwt beam="2">  1        1 0.11412798E+00 0.37625887E+03</pdfrwt>
<pdfrwt beam="1">  1       -1 0.73399762E-02 0.37625887E+03</pdfrwt>
<totfact> 0.25489738E+03</totfact>
</mgrwt>
</event>
<event>
 6    1  0.4705246E-006  0.3501430E+03  0.7546771E-02  0.1062556E+00
         -2   -1    0    0    0  501 -0.00000000000E+00  0.00000000000E+00  0.37862534412E+02  0.37862534412E+02  0.00000000000E+00 0.  1.
          2   -1    0    0  501    0  0.00000000000E+00 -0.00000000000E+00 -0.80950818674E+03  0.80950818674E+03  0.00000000000E+00 0. -1.
          5    1    1    2  502    0  0.36904602157E+02  0.76231362530E+02 -0.64972443609E+03  0.65523820336E+03  0.47000000000E+01 0. -1.
         -5    1    1    2    0  502 -0.27558669277E+02 -0.81425121197E+01 -0.42404323149E+02  0.51439259109E+02  0.47000000000E+01 0. -1.
        -11    1    1    2    0    0  0.38336248986E+02 -0.26852608026E+02 -0.11995003473E+02  0.48317808853E+02  0.00000000000E+00 0. -1.
         11    1    1    2    0    0 -0.47682181866E+02 -0.41236242385E+02 -0.67521889614E+02  0.92375449826E+02  0.00000000000E+00 0.  1.
<mgrwt>
<rscale>  0 0.35014301E+03</rscale>
<asrwt>0</asrwt>
<pdfrwt beam="2">  1        2 0.12453971E+00 0.35014301E+03</pdfrwt>
<pdfrwt beam="1">  1       -2 0.58250059E-02 0.35014301E+03</pdfrwt>
<totfact> 0.54353836E+03</totfact>
</mgrwt>
</event>
<event>
 6    1  0.4705246E-006  0.1337457E+03  0.7546771E-02  0.1234496E+00
         -2   -1    0    0    0  501 -0.00000000000E+00  0.00000000000E+00  0.10489747959E+02  0.10489747959E+02  0.00000000000E+00 0.  1.
          2   -1    0    0  501    0  0.00000000000E+00 -0.00000000000E+00 -0.14834452448E+04  0.14834452448E+04  0.00000000000E+00 0. -1.
          5    1    1    2  502    0 -0.34662885919E+02 -0.56210123485E+01 -0.89435280859E+02  0.96197042067E+02  0.47000000000E+01 0.  1.
         -5    1    1    2    0  502  0.38719559224E+02 -0.41792923089E+02 -0.96417158697E+03  0.96586478960E+03  0.47000000000E+01 0.  1.
        -11    1    1    2    0    0  0.15080172609E+02 -0.19652596025E+02 -0.47821724045E+02  0.53856786267E+02  0.00000000000E+00 0.  1.
         11    1    1    2    0    0 -0.19136845913E+02  0.67066531462E+02 -0.37152690493E+03  0.37801637478E+03  0.00000000000E+00 0. -1.
<mgrwt>
<rscale>  0 0.12536760E+03</rscale>
<asrwt>0</asrwt>
<pdfrwt beam="2">  1        2 0.22822227E+00 0.13374566E+03</pdfrwt>
<pdfrwt beam="1">  1       -2 0.16138079E-02 0.13374566E+03</pdfrwt>
<totfact> 0.14295650E+04</totfact>
</mgrwt>
</event>
<event>
 6    1  0.4705246E-006  0.3018922E+03  0.7546771E-02  0.1084299E+00
         -1   -1    0    0    0  501 -0.00000000000E+00  0.00000000000E+00  0.25783443783E+02  0.25783443783E+02  0.00000000000E+00 0.  1.
          1   -1    0    0  501    0  0.00000000000E+00 -0.00000000000E+00 -0.88369621001E+03  0.88369621001E+03  0.00000000000E+00 0. -1.
          5    1    1    2  502    0 -0.19982661510E+02 -0.48437600212E+01 -0.29690267086E+03  0.29765089407E+03  0.47000000000E+01 0.  1.
         -5    1    1    2    0  502  0.10317062939E+03 -0.36538178293E+02 -0.30512863191E+03  0.32419868793E+03  0.47000000000E+01 0.  1.
        -11    1    1    2    0    0 -0.81306240888E+02  0.10845252656E+02 -0.23900610303E+03  0.25269001088E+03  0.00000000000E+00 0. -1.
         11    1    1    2    0    0 -0.18817269942E+01  0.30536685658E+02 -0.16875360413E+02  0.34940060912E+02  0.00000000000E+00 0.  1.
<mgrwt>
<rscale>  0 0.30189224E+03</rscale>
<asrwt>0</asrwt>
<pdfrwt beam="2">  1        1 0.13595325E+00 0.30189224E+03</pdfrwt>
<pdfrwt beam="1">  1       -1 0.39666840E-02 0.30189224E+03</pdfrwt>
<totfact> 0.49055703E+03</totfact>
</mgrwt>
</event>
<event>
 6    1  0.4705246E-006  0.1488371E+03  0.7546771E-02  0.1209881E+00
         -1   -1    0    0    0  501 -0.00000000000E+00  0.00000000000E+00  0.34833716741E+02  0.34833716741E+02  0.00000000000E+00 0.  1.
          1   -1    0    0  501    0  0.00000000000E+00 -0.00000000000E+00 -0.57490124418E+03  0.57490124418E+03  0.00000000000E+00 0. -1.
          5    1    1    2  502    0 -0.18438795899E+02  0.82932301299E+01 -0.22000452870E+01  0.20873357647E+02  0.47000000000E+01 0. -1.
         -5    1    1    2    0  502  0.66811327660E+02  0.56426081420E+02 -0.36466572645E+03  0.37503444937E+03  0.47000000000E+01 0. -1.
        -11    1    1    2    0    0 -0.29487762282E+01  0.24321166499E+02 -0.45284871345E+02  0.51487221657E+02  0.00000000000E+00 0.  1.
         11    1    1    2    0    0 -0.45423755532E+02 -0.89040478049E+02 -0.12791688436E+03  0.16233993224E+03  0.00000000000E+00 0. -1.
<mgrwt>
<rscale>  0 0.14259396E+03</rscale>
<asrwt>0</asrwt>
<pdfrwt beam="2">  1        1 0.88446347E-01 0.14883715E+03</pdfrwt>
<pdfrwt beam="1">  1       -1 0.53590332E-02 0.14883715E+03</pdfrwt>
<totfact> 0.57320194E+03</totfact>
</mgrwt>
</event>
<event>
 6    1  0.4705246E-006  0.1730022E+03  0.7546771E-02  0.1181193E+00
         -1   -1    0    0    0  501 -0.00000000000E+00  0.00000000000E+00  0.89417479075E+02  0.89417479075E+02  0.00000000000E+00 0.  1.
          1   -1    0    0  501    0  0.00000000000E+00 -0.00000000000E+00 -0.45843182373E+03  0.45843182373E+03  0.00000000000E+00 0. -1.
          5    1    1    2  502    0 -0.51148343079E+02  0.21867623414E+02 -0.30209476478E+03  0.30720950972E+03  0.47000000000E+01 0. -1.
         -5    1    1    2    0  502 -0.68416089478E+02 -0.18918254794E+02 -0.56177844571E+02  0.90646025200E+02  0.47000000000E+01 0. -1.
        -11    1    1    2    0    0  0.10383188033E+03 -0.38492144853E+02 -0.75701206096E+01  0.11099554637E+03  0.00000000000E+00 0.  1.
         11    1    1    2    0    0  0.15732552225E+02  0.35542776233E+02 -0.31716146995E+01  0.38998221519E+02  0.00000000000E+00 0. -1.
<mgrwt>
<rscale>  0 0.16683144E+03</rscale>
<asrwt>0</asrwt>
<pdfrwt beam="2">  1        1 0.70527972E-01 0.17300221E+03</pdfrwt>
<pdfrwt beam="1">  1       -1 0.13756535E-01 0.17300221E+03</pdfrwt>
<totfact> 0.18504375E+03</totfact>
</mgrwt>
</event>
<event>
 6    1  0.4705246E-006  0.1599414E+03  0.7546771E-02  0.1196197E+00
          2   -1    0    0  501    0  0.00000000000E+00  0.00000000000E+00  0.13747099514E+04  0.13747099514E+04  0.00000000000E+00 0. -1.
         -2   -1    0    0    0  501 -0.00000000000E+00 -0.00000000000E+00 -0.18109688755E+02  0.18109688755E+02  0.00000000000E+00 0.  1.
          5    1    1    2  502    0 -0.45160414945E+02 -0.57589138320E+02  0.62308075089E+03  0.62738160960E+03  0.47000000000E+01 0. -1.
         -5    1    1    2    0  502 -0.54613466667E+02  0.56293993532E+02  0.34602181926E+03  0.35483071154E+03  0.47000000000E+01 0. -1.
        -11    1    1    2    0    0  0.29744981593E+02  0.30065123063E+02  0.53821991304E+02  0.68450582924E+02  0.00000000000E+00 0.  1.
         11    1    1    2    0    0  0.70028900020E+02 -0.28769978274E+02  0.33367570122E+03  0.34215673612E+03  0.00000000000E+00 0. -1.
<mgrwt>
<rscale>  0 0.15353320E+03</rscale>
<asrwt>0</asrwt>
<pdfrwt beam="1">  1        2 0.21149376E+00 0.15994140E+03</pdfrwt>
<pdfrwt beam="2">  1       -2 0.27861070E-02 0.15994140E+03</pdfrwt>
<totfact> 0.74202522E+03</totfact>
</mgrwt>
</event>
<event>
 6    1  0.4705246E-006  0.1613736E+03  0.7546771E-02  0.1194794E+00
          2   -1    0    0  501    0  0.00000000000E+00  0.00000000000E+00  0.58333431131E+03  0.58333431131E+03  0.00000000000E+00 0. -1.
         -2   -1    0    0    0  501 -0.00000000000E+00 -0.00000000000E+00 -0.37992859300E+02  0.37992859300E+02  0.00000000000E+00 0.  1.
          5    1    1    2  502    0 -0.47559757510E+02 -0.94487983480E+00  0.26464121494E+03  0.26892356903E+03  0.47000000000E+01 0. -1.
         -5    1    1    2    0  502 -0.50273285797E+02  0.30013164245E+02  0.27573368779E+02  0.64888935564E+02  0.47000000000E+01 0. -1.
        -11    1    1    2    0    0  0.39818171619E+02 -0.12810591768E+02  0.19328829296E+02  0.46078212796E+02  0.00000000000E+00 0.  1.
         11    1    1    2    0    0  0.58014871689E+02 -0.16257692642E+02  0.23379803900E+03  0.24143645323E+03  0.00000000000E+00 0. -1.
<mgrwt>
<rscale>  0 0.15471717E+03</rscale>
<asrwt>0</asrwt>
<pdfrwt beam="1">  1        2 0.89743734E-01 0.16137356E+03</pdfrwt>
<pdfrwt beam="2">  1       -2 0.58450557E-02 0.16137356E+03</pdfrwt>
<totfact> 0.77840044E+03</totfact>
</mgrwt>
</event>
<event>
 6    1  0.4705246E-006  0.2184143E+03  0.7546771E-02  0.1152562E+00
         -2   -1    0    0    0  501 -0.00000000000E+00  0.00000000000E+00  0.65085605373E+02  0.65085605373E+02  0.00000000000E+00 0.  1.
          2   -1    0    0  501    0  0.00000000000E+00 -0.00000000000E+00 -0.93593563909E+03  0.93593563909E+03  0.00000000000E+00 0. -1.
          5    1    1    2  502    0 -0.94694858026E+02 -0.84203320131E+02 -0.50614976278E+03  0.52179209233E+03  0.47000000000E+01 0. -1.
         -5    1    1    2    0  502 -0.16120944622E+02  0.89516302701E+02 -0.31393234411E+03  0.32687713285E+03  0.47000000000E+01 0.  1.
        -11    1    1    2    0    0  0.67958366826E+02  0.15349309024E+02  0.14913715522E+02  0.71248577669E+02  0.00000000000E+00 0.  1.
         11    1    1    2    0    0  0.42857435821E+02 -0.20662291595E+02 -0.65681642354E+02  0.81103441613E+02  0.00000000000E+00 0. -1.
<mgrwt>
<rscale>  0 0.19669034E+03</rscale>
<asrwt>0</asrwt>
<pdfrwt beam="2">  1        2 0.14399009E+00 0.21841427E+03</pdfrwt>
<pdfrwt beam="1">  1       -2 0.10013171E-01 0.21841427E+03</pdfrwt>
<totfact> 0.19030142E+03</totfact>
</mgrwt>
</event>
<event>
 6    1  0.4705246E-006  0.1334039E+03  0.7546771E-02  0.1233826E+00
          1   -1    0    0  501    0  0.00000000000E+00  0.00000000000E+00  0.48167278509E+03  0.48167278509E+03  0.00000000000E+00 0. -1.
         -1   -1    0    0    0  501 -0.00000000000E+00 -0.00000000000E+00 -0.32810615102E+02  0.32810615102E+02  0.00000000000E+00 0.  1.
          5    1    1    2  502    0  0.62968229909E+02 -0.50059323925E+02  0.29735749520E+03  0.30808197584E+03  0.47000000000E+01 0.  1.
         -5    1    1    2    0  502 -0.27747661972E+02  0.19537947033E+02  0.30470102346E+02  0.45849550228E+02  0.47000000000E+01 0.  1.
        -11    1    1    2    0    0 -0.45270553212E+02  0.49919909472E+01  0.10602691886E+02  0.46762806128E+02  0.00000000000E+00 0.  1.
         11    1    1    2    0    0  0.10049985275E+02  0.25529385945E+02  0.11043188056E+03  0.11378906799E+03  0.00000000000E+00 0. -1.
<mgrwt>
<rscale>  0 0.12579871E+03</rscale>
<asrwt>0</asrwt>
<pdfrwt beam="1">  1        1 0.74103501E-01 0.13340387E+03</pdfrwt>
<pdfrwt beam="2">  1       -1 0.50477873E-02 0.13340387E+03</pdfrwt>
<totfact> 0.78627134E+03</totfact>
</mgrwt>
</event>
<event>
 6    1  0.4705246E-006  0.1488806E+03  0.7546771E-02  0.1210725E+00
         -2   -1    0    0    0  501 -0.00000000000E+00  0.00000000000E+00  0.11575300108E+03  0.11575300108E+03  0.00000000000E+00 0.  1.
          2   -1    0    0  501    0  0.00000000000E+00 -0.00000000000E+00 -0.18233548389E+03  0.18233548389E+03  0.00000000000E+00 0. -1.
          5    1    1    2  502    0  0.42731030337E+01 -0.51899824505E+02 -0.11937694738E+03  0.13032573329E+03  0.47000000000E+01 0.  1.
         -5    1    1    2    0  502  0.77631706315E+01 -0.28073195632E+02  0.31011514446E+02  0.42803915236E+02  0.47000000000E+01 0.  1.
        -11    1    1    2    0    0 -0.40368526951E+02  0.14526193798E+02  0.31166274641E+02  0.53027963844E+02  0.00000000000E+00 0.  1.
         11    1    1    2    0    0  0.28332253286E+02  0.65446826339E+02 -0.93833245183E+01  0.71930872601E+02  0.00000000000E+00 0. -1.
<mgrwt>
<rscale>  0 0.14195315E+03</rscale>
<asrwt>0</asrwt>
<pdfrwt beam="2">  1        2 0.28051613E-01 0.14888057E+03</pdfrwt>
<pdfrwt beam="1">  1       -2 0.17808154E-01 0.14888057E+03</pdfrwt>
<totfact> 0.46636159E+03</totfact>
</mgrwt>
</event>
<event>
 6    1  0.4705246E-006  0.1251909E+03  0.7546771E-02  0.1252651E+00
         -2   -1    0    0    0  501 -0.00000000000E+00  0.00000000000E+00  0.10552881216E+02  0.10552881216E+02  0.00000000000E+00 0.  1.
          2   -1    0    0  501    0  0.00000000000E+00 -0.00000000000E+00 -0.13958104034E+04  0.13958104034E+04  0.00000000000E+00 0. -1.
          5    1    1    2  502    0 -0.43441404674E+02  0.43849349758E+02 -0.78703615963E+03  0.78946686294E+03  0.47000000000E+01 0.  1.
         -5    1    1    2    0  502  0.37493704598E+02 -0.40435574635E+02 -0.33624962476E+03  0.34077369871E+03  0.47000000000E+01 0.  1.
        -11    1    1    2    0    0 -0.32450257804E+02 -0.21193193624E+02 -0.17705186048E+03  0.18124439850E+03  0.00000000000E+00 0. -1.
         11    1    1    2    0    0  0.38397957880E+02  0.17779418501E+02 -0.84919877329E+02  0.94878324485E+02  0.00000000000E+00 0.  1.
<mgrwt>
<rscale>  0 0.11438929E+03</rscale>
<asrwt>0</asrwt>
<pdfrwt beam="2">  1        2 0.21474007E+00 0.12519095E+03</pdfrwt>
<pdfrwt beam="1">  1       -2 0.16235201E-02 0.12519095E+03</pdfrwt>
<totfact> 0.15695546E+04</totfact>
</mgrwt>
</event>
<event>
 6    1  0.4705246E-006  0.2482051E+03  0.7546771E-02  0.1116928E+00
          2   -1    0    0  501    0  0.00000000000E+00  0.00000000000E+00  0.14835949737E+04  0.14835949737E+04  0.00000000000E+00 0. -1.
         -2   -1    0    0    0  501 -0.00000000000E+00 -0.00000000000E+00 -0.43765465168E+02  0.43765465168E+02  0.00000000000E+00 0.  1.
          5    1    1    2  502    0 -0.17267674636E+02 -0.93029656396E+02  0.58490292782E+03  0.59252528598E+03  0.47000000000E+01 0. -1.
         -5    1    1    2    0  502 -0.11684836455E+03 -0.74285277833E+02  0.40585823121E+03  0.42885293125E+03  0.47000000000E+01 0. -1.
        -11    1    1    2    0    0  0.61013908287E+02  0.14205958308E+03  0.32268433695E+03  0.35781112820E+03  0.00000000000E+00 0. -1.
         11    1    1    2    0    0  0.73102130900E+02  0.25255351152E+02  0.12638401260E+03  0.14817109348E+03  0.00000000000E+00 0.  1.
<mgrwt>
<rscale>  0 0.24435073E+03</rscale>
<asrwt>0</asrwt>
<pdfrwt beam="1">  1        2 0.22824534E+00 0.24820513E+03</pdfrwt>
<pdfrwt beam="2">  1       -2 0.67331496E-02 0.24820513E+03</pdfrwt>
<totfact> 0.17259911E+03</totfact>
</mgrwt>
</event>
<event>
 6    1  0.4705246E-006  0.1291636E+03  0.7546771E-02  0.1243412E+00
          1   -1    0    0  501    0  0.00000000000E+00  0.00000000000E+00  0.14439963118E+03  0.14439963118E+03  0.00000000000E+00 0. -1.
         -1   -1    0    0    0  501 -0.00000000000E+00 -0.00000000000E+00 -0.90075000265E+02  0.90075000265E+02  0.00000000000E+00 0.  1.
          5    1    1    2  502    0 -0.33284819619E+02  0.17925459314E+02  0.57469146438E+02  0.68949213926E+02  0.47000000000E+01 0. -1.
         -5    1    1    2    0  502  0.55345847225E+02 -0.41807838338E+02 -0.66803654655E+01  0.69841072688E+02  0.47000000000E+01 0. -1.
        -11    1    1    2    0    0  0.47000797874E+01  0.45439585684E+02  0.27928775001E+02  0.53543096382E+02  0.00000000000E+00 0. -1.
         11    1    1    2    0    0 -0.26761107393E+02 -0.21557206660E+02 -0.24392925059E+02  0.42141248449E+02  0.00000000000E+00 0.  1.
<mgrwt>
<rscale>  0 0.11980949E+03</rscale>
<asrwt>0</asrwt>
<pdfrwt beam="1">  1        1 0.22215328E-01 0.12916363E+03</pdfrwt>
<pdfrwt beam="2">  1       -1 0.13857692E-01 0.12916363E+03</pdfrwt>
<totfact> 0.76613854E+03</totfact>
</mgrwt>
</event>
<event>
 6    1  0.4705246E-006  0.1426988E+03  0.7546771E-02  0.1220649E+00
          1   -1    0    0  501    0  0.00000000000E+00  0.00000000000E+00  0.30991284745E+03  0.30991284745E+03  0.00000000000E+00 0. -1.
         -1   -1    0    0    0  501 -0.00000000000E+00 -0.00000000000E+00 -0.55331285395E+02  0.55331285395E+02  0.00000000000E+00 0.  1.
          5    1    1    2  502    0 -0.96686386184E+02  0.32043320178E+01  0.14077775747E+03  0.17087712549E+03  0.47000000000E+01 0. -1.
         -5    1    1    2    0  502  0.34577965670E+02  0.26440079002E+02  0.38849778974E+02  0.58532972023E+02  0.47000000000E+01 0. -1.
        -11    1    1    2    0    0  0.10607359556E+02  0.11375074679E+02  0.67851900546E+02  0.69611700226E+02  0.00000000000E+00 0. -1.
         11    1    1    2    0    0  0.51501060959E+02 -0.41019485698E+02  0.71021250670E+01  0.66222335109E+02  0.00000000000E+00 0.  1.
<mgrwt>
<rscale>  0 0.13469618E+03</rscale>
<asrwt>0</asrwt>
<pdfrwt beam="1">  1        1 0.47678899E-01 0.14269878E+03</pdfrwt>
<pdfrwt beam="2">  1       -1 0.85125056E-02 0.14269878E+03</pdfrwt>
<totfact> 0.62996951E+03</totfact>
</mgrwt>
</event>
<event>
 6    1  0.4764661E-006  0.1667214E+03  0.7546771E-02  0.1187950E+00
         -1   -1    0    0    0  501 -0.00000000000E+00  0.00000000000E+00  0.13324972331E+03  0.13324972331E+03  0.00000000000E+00 0.  1.
          1   -1    0    0  501    0  0.00000000000E+00 -0.00000000000E+00 -0.18700707520E+03  0.18700707520E+03  0.00000000000E+00 0. -1.
          5    1    1    2  502    0 -0.79235204806E+01 -0.79904991223E+02 -0.90952656489E+02  0.12141690789E+03  0.47000000000E+01 0. -1.
         -5    1    1    2    0  502 -0.38650395729E+02 -0.20105663747E+02  0.33250942794E+02  0.55007326797E+02  0.47000000000E+01 0. -1.
        -11    1    1    2    0    0 -0.30947749972E+01  0.73061004341E+02  0.33073117192E+02  0.80257828705E+02  0.00000000000E+00 0.  1.
         11    1    1    2    0    0  0.49668691207E+02  0.26949650629E+02 -0.29128755385E+02  0.63574735119E+02  0.00000000000E+00 0. -1.
<mgrwt>
<rscale>  0 0.16066340E+03</rscale>
<asrwt>0</asrwt>
<pdfrwt beam="2">  1        1 0.28770319E-01 0.16672139E+03</pdfrwt>
<pdfrwt beam="1">  1       -1 0.20499958E-01 0.16672139E+03</pdfrwt>
<totfact> 0.30200965E+03</totfact>
</mgrwt>
</event>
<event>
 6    1  0.4705246E-006  0.1276343E+03  0.7546771E-02  0.1241153E+00
         -1   -1    0    0    0  501 -0.00000000000E+00  0.00000000000E+00  0.37013832054E+02  0.37013832054E+02  0.00000000000E+00 0.  1.
          1   -1    0    0  501    0  0.00000000000E+00 -0.00000000000E+00 -0.39285846487E+03  0.39285846487E+03  0.00000000000E+00 0. -1.
          5    1    1    2  502    0 -0.35060864802E+02  0.20761071311E+02 -0.57337056023E+02  0.70497619223E+02  0.47000000000E+01 0. -1.
         -5    1    1    2    0  502  0.81183031399E+02 -0.19839126924E+02 -0.19787303329E+03  0.21484902338E+03  0.47000000000E+01 0.  1.
        -11    1    1    2    0    0  0.25465536687E+02  0.12713076436E+01 -0.52112027097E+02  0.58015283763E+02  0.00000000000E+00 0.  1.
         11    1    1    2    0    0 -0.71587703284E+02 -0.21932520300E+01 -0.48522516408E+02  0.86510370561E+02  0.00000000000E+00 0. -1.
<mgrwt>
<rscale>  0 0.12118640E+03</rscale>
<asrwt>0</asrwt>
<pdfrwt beam="2">  1        1 0.60439765E-01 0.12763431E+03</pdfrwt>
<pdfrwt beam="1">  1       -1 0.56944356E-02 0.12763431E+03</pdfrwt>
<totfact> 0.84994981E+03</totfact>
</mgrwt>
</event>
<event>
 6    1  0.4705246E-006  0.1613478E+03  0.7546771E-02  0.1194572E+00
          2   -1    0    0  501    0  0.00000000000E+00  0.00000000000E+00  0.12498146192E+04  0.12498146192E+04  0.00000000000E+00 0.  1.
         -2   -1    0    0    0  501 -0.00000000000E+00 -0.00000000000E+00 -0.19068077991E+02  0.19068077991E+02  0.00000000000E+00 0. -1.
          5    1    1    2  502    0 -0.87965150910E+02  0.14647955197E+02  0.25389826993E+03  0.26914466712E+03  0.47000000000E+01 0. -1.
         -5    1    1    2    0  502 -0.14027946570E+02 -0.15278280274E+02  0.57039580692E+03  0.57079214753E+03  0.47000000000E+01 0. -1.
        -11    1    1    2    0    0 -0.23330710523E+01  0.28396034829E+02  0.10270067782E+03  0.10657958172E+03  0.00000000000E+00 0.  1.
         11    1    1    2    0    0  0.10432616853E+03 -0.27765709752E+02  0.30375178653E+03  0.32236630082E+03  0.00000000000E+00 0. -1.
<mgrwt>
<rscale>  0 0.15490521E+03</rscale>
<asrwt>0</asrwt>
<pdfrwt beam="1">  1        2 0.19227911E+00 0.16134785E+03</pdfrwt>
<pdfrwt beam="2">  1       -2 0.29335514E-02 0.16134785E+03</pdfrwt>
<totfact> 0.80398601E+03</totfact>
</mgrwt>
</event>
<event>
 6    1  0.4705246E-006  0.4916256E+03  0.7546771E-02  0.1015988E+00
         -1   -1    0    0    0  501 -0.00000000000E+00  0.00000000000E+00  0.74443645623E+03  0.74443645623E+03  0.00000000000E+00 0.  1.
          1   -1    0    0  501    0  0.00000000000E+00 -0.00000000000E+00 -0.81167362336E+02  0.81167362336E+02  0.00000000000E+00 0. -1.
          5    1    1    2  502    0 -0.11536733349E+03  0.12317128711E+03  0.60174864873E+02  0.17923139224E+03  0.47000000000E+01 0.  1.
         -5    1    1    2    0  502  0.25452236903E+02  0.18901116175E+02  0.44858733006E+02  0.55131338483E+02  0.47000000000E+01 0.  1.
        -11    1    1    2    0    0  0.52617658868E+02 -0.69109823772E+01  0.18791826568E+03  0.19526815992E+03  0.00000000000E+00 0.  1.
         11    1    1    2    0    0  0.37297437714E+02 -0.13516142091E+03  0.37031723034E+03  0.39597292792E+03  0.00000000000E+00 0. -1.
<mgrwt>
<rscale>  0 0.49162564E+03</rscale>
<asrwt>0</asrwt>
<pdfrwt beam="2">  1        1 0.12487287E-01 0.49162564E+03</pdfrwt>
<pdfrwt beam="1">  1       -1 0.11452868E+00 0.49162564E+03</pdfrwt>
<totfact> 0.34951658E+02</totfact>
</mgrwt>
</event>
<event>
 6    1  0.4705246E-006  0.1277536E+03  0.7546771E-02  0.1246281E+00
          3   -1    0    0  501    0  0.00000000000E+00  0.00000000000E+00  0.32369297450E+03  0.32369297450E+03  0.00000000000E+00 0. -1.
         -3   -1    0    0    0  501 -0.00000000000E+00 -0.00000000000E+00 -0.44581853701E+02  0.44581853701E+02  0.00000000000E+00 0.  1.
          5    1    1    2  502    0  0.25754320967E+02  0.45621961983E+02  0.29088277929E+02  0.60107124175E+02  0.47000000000E+01 0.  1.
         -5    1    1    2    0  502 -0.57051735270E+01 -0.28500670731E+02  0.20033974613E+03  0.20249182975E+03  0.47000000000E+01 0.  1.
        -11    1    1    2    0    0 -0.30430818101E+02  0.15830907363E+02 -0.10849951659E+02  0.35977406372E+02  0.00000000000E+00 0.  1.
         11    1    1    2    0    0  0.10381670661E+02 -0.32952198616E+02  0.60533048398E+02  0.69698467901E+02  0.00000000000E+00 0. -1.
<mgrwt>
<rscale>  0 0.11809010E+03</rscale>
<asrwt>0</asrwt>
<pdfrwt beam="1">  1        3 0.49798918E-01 0.12775364E+03</pdfrwt>
<pdfrwt beam="2">  1       -3 0.68587469E-02 0.12775364E+03</pdfrwt>
<totfact> 0.12593082E+03</totfact>
</mgrwt>
</event>
<event>
 6    1  0.5902050E-006  0.1944950E+03  0.7546771E-02  0.1159023E+00
         -1   -1    0    0    0  501 -0.00000000000E+00  0.00000000000E+00  0.43245445894E+02  0.43245445894E+02  0.00000000000E+00 0.  1.
          1   -1    0    0  501    0  0.00000000000E+00 -0.00000000000E+00 -0.99229892520E+03  0.99229892520E+03  0.00000000000E+00 0. -1.
          5    1    1    2  502    0  0.10084872152E+02 -0.72243894592E+02 -0.13887995313E+03  0.15694144237E+03  0.47000000000E+01 0. -1.
         -5    1    1    2    0  502  0.82760488676E+02 -0.44301619562E+02 -0.59011121787E+03  0.59754938829E+03  0.47000000000E+01 0. -1.
        -11    1    1    2    0    0 -0.72240276023E+02  0.28951917290E+02 -0.63375033097E+02  0.10036566054E+03  0.00000000000E+00 0.  1.
         11    1    1    2    0    0 -0.20605084805E+02  0.87593596865E+02 -0.15668727521E+03  0.18068787990E+03  0.00000000000E+00 0. -1.
<mgrwt>
<rscale>  0 0.18937905E+03</rscale>
<asrwt>0</asrwt>
<pdfrwt beam="2">  1        1 0.15266137E+00 0.19449495E+03</pdfrwt>
<pdfrwt beam="1">  1       -1 0.66531455E-02 0.19449495E+03</pdfrwt>
<totfact> 0.18457878E+03</totfact>
</mgrwt>
</event>
<event>
 6    1  0.4705246E-006  0.1259115E+03  0.7546771E-02  0.1249605E+00
          2   -1    0    0  501    0  0.00000000000E+00  0.00000000000E+00  0.45932288013E+03  0.45932288013E+03  0.00000000000E+00 0. -1.
         -2   -1    0    0    0  501 -0.00000000000E+00 -0.00000000000E+00 -0.27237332176E+02  0.27237332176E+02  0.00000000000E+00 0.  1.
          5    1    1    2  502    0  0.30871134866E+02  0.61253183781E+02  0.20804743606E+03  0.21911368086E+03  0.47000000000E+01 0. -1.
         -5    1    1    2    0  502 -0.21898535070E+02 -0.49055970233E+02  0.98730773263E+02  0.11249839840E+03  0.47000000000E+01 0. -1.
        -11    1    1    2    0    0  0.30147087573E+02 -0.28020280170E+02  0.30669253781E+02  0.51328219504E+02  0.00000000000E+00 0.  1.
         11    1    1    2    0    0 -0.39119687369E+02  0.15823066622E+02  0.94638084852E+02  0.10361991354E+03  0.00000000000E+00 0. -1.
<mgrwt>
<rscale>  0 0.11613938E+03</rscale>
<asrwt>0</asrwt>
<pdfrwt beam="1">  1        2 0.70665053E-01 0.12591148E+03</pdfrwt>
<pdfrwt beam="2">  1       -2 0.41903591E-02 0.12591148E+03</pdfrwt>
<totfact> 0.16435175E+04</totfact>
</mgrwt>
</event>
<event>
 6    1  0.4705246E-006  0.1652296E+03  0.7546771E-02  0.1207647E+00
          1   -1    0    0  501    0  0.00000000000E+00  0.00000000000E+00  0.21889593094E+03  0.21889593094E+03  0.00000000000E+00 0. -1.
         -1   -1    0    0    0  501 -0.00000000000E+00 -0.00000000000E+00 -0.90333621173E+02  0.90333621173E+02  0.00000000000E+00 0.  1.
          5    1    1    2  502    0  0.66728746302E+02  0.54404719342E+02  0.59974570841E+02  0.10503160580E+03  0.47000000000E+01 0. -1.
         -5    1    1    2    0  502 -0.41224139126E+02 -0.66298081655E+02  0.74316467633E+02  0.10788833412E+03  0.47000000000E+01 0.  1.
        -11    1    1    2    0    0 -0.53993272915E+02 -0.20392334867E+01 -0.24641166182E+02  0.59385343850E+02  0.00000000000E+00 0.  1.
         11    1    1    2    0    0  0.28488665738E+02  0.13932595799E+02  0.18912437476E+02  0.36924268341E+02  0.00000000000E+00 0. -1.
<mgrwt>
<rscale>  0 0.14430815E+03</rscale>
<asrwt>0</asrwt>
<pdfrwt beam="1">  1        1 0.33676297E-01 0.16522959E+03</pdfrwt>
<pdfrwt beam="2">  1       -1 0.13897480E-01 0.16522959E+03</pdfrwt>
<totfact> 0.46010413E+03</totfact>
</mgrwt>
</event>
<event>
 6    1  0.4705246E-006  0.1629441E+03  0.7546771E-02  0.1208810E+00
          1   -1    0    0  501    0  0.00000000000E+00  0.00000000000E+00  0.29518857454E+03  0.29518857454E+03  0.00000000000E+00 0. -1.
         -1   -1    0    0    0  501 -0.00000000000E+00 -0.00000000000E+00 -0.14522422236E+03  0.14522422236E+03  0.00000000000E+00 0.  1.
          5    1    1    2  502    0  0.26587388578E+02 -0.23998407027E+02  0.25338350534E+03  0.25594550895E+03  0.47000000000E+01 0. -1.
         -5    1    1    2    0  502 -0.47339349220E+00  0.43305114658E+02 -0.20230506657E+01  0.43608941640E+02  0.47000000000E+01 0.  1.
        -11    1    1    2    0    0  0.12308629903E+02 -0.47694713507E+02 -0.42784113983E+02  0.65243915240E+02  0.00000000000E+00 0. -1.
         11    1    1    2    0    0 -0.38422624989E+02  0.28388005876E+02 -0.58611988512E+02  0.75614431070E+02  0.00000000000E+00 0.  1.
<mgrwt>
<rscale>  0 0.14341208E+03</rscale>
<asrwt>0</asrwt>
<pdfrwt beam="1">  1        1 0.45413627E-01 0.16294413E+03</pdfrwt>
<pdfrwt beam="2">  1       -1 0.22342188E-01 0.16294413E+03</pdfrwt>
<totfact> 0.14858781E+03</totfact>
</mgrwt>
</event>
<event>
 6    1  0.4705246E-006  0.1894158E+03  0.7546771E-02  0.1163833E+00
          2   -1    0    0  501    0  0.00000000000E+00  0.00000000000E+00  0.27811582462E+03  0.27811582462E+03  0.00000000000E+00 0. -1.
         -2   -1    0    0    0  501 -0.00000000000E+00 -0.00000000000E+00 -0.11598032153E+03  0.11598032153E+03  0.00000000000E+00 0.  1.
          5    1    1    2  502    0 -0.10229537132E+03  0.49467177842E+02  0.61114714002E+02  0.12910632418E+03  0.47000000000E+01 0. -1.
         -5    1    1    2    0  502 -0.39949929864E+02 -0.64000667548E+02  0.35057046683E+02  0.83325679504E+02  0.47000000000E+01 0.  1.
        -11    1    1    2    0    0  0.91756469033E+02 -0.34870820321E+02  0.31679660535E+02  0.10314467805E+03  0.00000000000E+00 0.  1.
         11    1    1    2    0    0  0.50488832151E+02  0.49404310026E+02  0.34284081865E+02  0.78519464405E+02  0.00000000000E+00 0. -1.
<mgrwt>
<rscale>  0 0.18416367E+03</rscale>
<asrwt>0</asrwt>
<pdfrwt beam="1">  1        2 0.42787050E-01 0.18941581E+03</pdfrwt>
<pdfrwt beam="2">  1       -2 0.17843126E-01 0.18941581E+03</pdfrwt>
<totfact> 0.29814868E+03</totfact>
</mgrwt>
</event>
<event>
 6    1  0.4705246E-006  0.2551186E+03  0.7546771E-02  0.1110112E+00
          2   -1    0    0  501    0  0.00000000000E+00  0.00000000000E+00  0.45426561194E+03  0.45426561194E+03  0.00000000000E+00 0. -1.
         -2   -1    0    0    0  501 -0.00000000000E+00 -0.00000000000E+00 -0.35819078523E+02  0.35819078523E+02  0.00000000000E+00 0.  1.
          5    1    1    2  502    0 -0.20356519468E+02 -0.59750199135E+02  0.44568372497E+02  0.77413848945E+02  0.47000000000E+01 0.  1.
         -5    1    1    2    0  502  0.72280164801E+01 -0.37848328089E+00  0.23302545488E+03  0.23318520556E+03  0.47000000000E+01 0.  1.
        -11    1    1    2    0    0  0.35066586510E+02  0.49602575111E+01  0.10338113377E+03  0.10927913096E+03  0.00000000000E+00 0. -1.
         11    1    1    2    0    0 -0.21938083522E+02  0.55168424905E+02  0.37471572272E+02  0.70206504995E+02  0.00000000000E+00 0.  1.
<mgrwt>
<rscale>  0 0.25511860E+03</rscale>
<asrwt>0</asrwt>
<pdfrwt beam="1">  1        2 0.69887013E-01 0.25511860E+03</pdfrwt>
<pdfrwt beam="2">  1       -2 0.55106278E-02 0.25511860E+03</pdfrwt>
<totfact> 0.11572122E+04</totfact>
</mgrwt>
</event>
<event>
 6    1  0.4705246E-006  0.1377687E+03  0.7546771E-02  0.1227914E+00
         -1   -1    0    0    0  501 -0.00000000000E+00  0.00000000000E+00  0.21731606376E+03  0.21731606376E+03  0.00000000000E+00 0.  1.
          1   -1    0    0  501    0  0.00000000000E+00 -0.00000000000E+00 -0.73704586296E+02  0.73704586296E+02  0.00000000000E+00 0. -1.
          5    1    1    2  502    0 -0.19160450141E+02  0.16562739929E+02 -0.25857604523E+02  0.36498670047E+02  0.47000000000E+01 0.  1.
         -5    1    1    2    0  502  0.74892750722E+02 -0.32301852829E+02  0.71695860917E+02  0.10869553937E+03  0.47000000000E+01 0.  1.
        -11    1    1    2    0    0  0.15637835497E+02  0.22720452150E+02  0.57029564775E+02  0.63349286526E+02  0.00000000000E+00 0.  1.
         11    1    1    2    0    0 -0.71370136078E+02 -0.69813392501E+01  0.40743656292E+02  0.82477154107E+02  0.00000000000E+00 0. -1.
<mgrwt>
<rscale>  0 0.12969188E+03</rscale>
<asrwt>0</asrwt>
<pdfrwt beam="2">  1        1 0.11339167E-01 0.13776869E+03</pdfrwt>
<pdfrwt beam="1">  1       -1 0.33433240E-01 0.13776869E+03</pdfrwt>
<totfact> 0.43924049E+03</totfact>
</mgrwt>
</event>
<event>
 6    1  0.4705246E-006  0.1383174E+03  0.7546771E-02  0.1231657E+00
          1   -1    0    0  501    0  0.00000000000E+00  0.00000000000E+00  0.99260834234E+02  0.99260834234E+02  0.00000000000E+00 0. -1.
         -1   -1    0    0    0  501 -0.00000000000E+00 -0.00000000000E+00 -0.35220388356E+03  0.35220388356E+03  0.00000000000E+00 0.  1.
          5    1    1    2  502    0  0.25401647602E+02  0.39649187648E+02  0.30129486945E+00  0.47323171498E+02  0.47000000000E+01 0. -1.
         -5    1    1    2    0  502  0.91822895369E+01 -0.87731664496E+02  0.38284898761E+02  0.96275556968E+02  0.47000000000E+01 0. -1.
        -11    1    1    2    0    0 -0.31103285570E+02  0.63551978213E+02 -0.27848772390E+03  0.28733548454E+03  0.00000000000E+00 0.  1.
         11    1    1    2    0    0 -0.34806515682E+01 -0.15469501365E+02 -0.13041519048E+02  0.20530504789E+02  0.00000000000E+00 0. -1.
<mgrwt>
<rscale>  0 0.12720889E+03</rscale>
<asrwt>0</asrwt>
<pdfrwt beam="1">  1        1 0.15270898E-01 0.13831739E+03</pdfrwt>
<pdfrwt beam="2">  1       -1 0.54185213E-01 0.13831739E+03</pdfrwt>
<totfact> 0.12640984E+03</totfact>
</mgrwt>
</event>
<event>
 6    1  0.4705246E-006  0.1295044E+03  0.7546771E-02  0.1243808E+00
          1   -1    0    0  501    0  0.00000000000E+00  0.00000000000E+00  0.75107484522E+02  0.75107484522E+02  0.00000000000E+00 0. -1.
         -1   -1    0    0    0  501 -0.00000000000E+00 -0.00000000000E+00 -0.18414872738E+03  0.18414872738E+03  0.00000000000E+00 0.  1.
          5    1    1    2  502    0  0.53766052329E+02 -0.44453738819E+01  0.22202058467E+02  0.58528378862E+02  0.47000000000E+01 0. -1.
         -5    1    1    2    0  502 -0.44235524157E+02  0.36530531886E+02 -0.44781537854E+02  0.72929674961E+02  0.47000000000E+01 0. -1.
        -11    1    1    2    0    0  0.23110040144E+02 -0.20368746299E+02 -0.87846148417E+02  0.93090845806E+02  0.00000000000E+00 0.  1.
         11    1    1    2    0    0 -0.32640568316E+02 -0.11716411706E+02  0.13843849493E+01  0.34707312269E+02  0.00000000000E+00 0. -1.
<mgrwt>
<rscale>  0 0.11957009E+03</rscale>
<asrwt>0</asrwt>
<pdfrwt beam="1">  1        1 0.11554998E-01 0.12950439E+03</pdfrwt>
<pdfrwt beam="2">  1       -1 0.28330573E-01 0.12950439E+03</pdfrwt>
<totfact> 0.56412170E+03</totfact>
</mgrwt>
</event>
<event>
 6    1  0.4705246E-006  0.1590429E+03  0.7546771E-02  0.1197606E+00
          1   -1    0    0  501    0  0.00000000000E+00  0.00000000000E+00  0.33781154014E+03  0.33781154014E+03  0.00000000000E+00 0. -1.
         -1   -1    0    0    0  501 -0.00000000000E+00 -0.00000000000E+00 -0.69707460105E+02  0.69707460105E+02  0.00000000000E+00 0.  1.
          5    1    1    2  502    0 -0.16434463471E+02 -0.16340267933E+02  0.30866752719E+01  0.23847714983E+02  0.47000000000E+01 0. -1.
         -5    1    1    2    0  502  0.94326480145E+02  0.76321342297E+02  0.20190647933E+03  0.23560719119E+03  0.47000000000E+01 0. -1.
        -11    1    1    2    0    0 -0.86883636384E+02 -0.53451320845E+02  0.78756599016E+02  0.12887362748E+03  0.00000000000E+00 0. -1.
         11    1    1    2    0    0  0.89916197107E+01 -0.65297535192E+01 -0.15645673582E+02  0.19190466589E+02  0.00000000000E+00 0.  1.
<mgrwt>
<rscale>  0 0.15235740E+03</rscale>
<asrwt>0</asrwt>
<pdfrwt beam="1">  1        1 0.51971005E-01 0.15904293E+03</pdfrwt>
<pdfrwt beam="2">  1       -1 0.10724225E-01 0.15904293E+03</pdfrwt>
<totfact> 0.40008274E+03</totfact>
</mgrwt>
</event>
<event>
 6    1  0.4705246E-006  0.1322460E+03  0.7546771E-02  0.1237462E+00
         -2   -1    0    0    0  501 -0.00000000000E+00  0.00000000000E+00  0.15052331418E+02  0.15052331418E+02  0.00000000000E+00 0.  1.
          2   -1    0    0  501    0  0.00000000000E+00 -0.00000000000E+00 -0.10189943990E+04  0.10189943990E+04  0.00000000000E+00 0. -1.
          5    1    1    2  502    0 -0.53133812578E+02  0.12973537586E+00 -0.11709919751E+03  0.12867606976E+03  0.47000000000E+01 0. -1.
         -5    1    1    2    0  502  0.10935842717E+02 -0.92428523749E+01 -0.62061189081E+03  0.62079483889E+03  0.47000000000E+01 0. -1.
        -11    1    1    2    0    0  0.66397579766E+02 -0.44043387061E+01 -0.22691508485E+03  0.23647091265E+03  0.00000000000E+00 0. -1.
         11    1    1    2    0    0 -0.24199609905E+02  0.13517455705E+02 -0.39315894416E+02  0.48104909126E+02  0.00000000000E+00 0.  1.
<mgrwt>
<rscale>  0 0.12348123E+03</rscale>
<asrwt>0</asrwt>
<pdfrwt beam="2">  1        2 0.15676837E+00 0.13224596E+03</pdfrwt>
<pdfrwt beam="1">  1       -2 0.23157433E-02 0.13224596E+03</pdfrwt>
<totfact> 0.15220004E+04</totfact>
</mgrwt>
</event>
<event>
 6    1  0.4705246E-006  0.1282096E+03  0.7546771E-02  0.1278794E+00
         -1   -1    0    0    0  501 -0.00000000000E+00  0.00000000000E+00  0.28700773565E+02  0.28700773565E+02  0.00000000000E+00 0.  1.
          1   -1    0    0  501    0  0.00000000000E+00 -0.00000000000E+00 -0.27855358987E+03  0.27855358987E+03  0.00000000000E+00 0. -1.
          5    1    1    2  502    0 -0.44276450207E+02 -0.22555712011E+02 -0.68745421442E+02  0.84954029666E+02  0.47000000000E+01 0. -1.
         -5    1    1    2    0  502  0.71540108361E+02  0.30869763845E+02 -0.91656544230E+02  0.12039078671E+03  0.47000000000E+01 0. -1.
        -11    1    1    2    0    0  0.91068059143E+00 -0.17004201661E+02 -0.18867633206E+02  0.25415739141E+02  0.00000000000E+00 0.  1.
         11    1    1    2    0    0 -0.28174338745E+02  0.86901498262E+01 -0.70583217430E+02  0.76493807923E+02  0.00000000000E+00 0. -1.
<mgrwt>
<rscale>  0 0.10071775E+03</rscale>
<asrwt>0</asrwt>
<pdfrwt beam="2">  1        1 0.42854396E-01 0.12820961E+03</pdfrwt>
<pdfrwt beam="1">  1       -1 0.44155039E-02 0.12820961E+03</pdfrwt>
<totfact> 0.18975874E+04</totfact>
</mgrwt>
</event>
<event>
 6    1  0.4705246E-006  0.1291851E+03  0.7546771E-02  0.1243358E+00
          2   -1    0    0  501    0  0.00000000000E+00  0.00000000000E+00  0.78399665869E+03  0.78399665869E+03  0.00000000000E+00 0. -1.
         -2   -1    0    0    0  501 -0.00000000000E+00 -0.00000000000E+00 -0.16210985958E+02  0.16210985958E+02  0.00000000000E+00 0.  1.
          5    1    1    2  502    0  0.19047767328E+02 -0.73813762164E+02  0.22627063760E+03  0.23881327511E+03  0.47000000000E+01 0. -1.
         -5    1    1    2    0  502 -0.25203100644E+02  0.41832848571E+02  0.24365379281E+03  0.24854465243E+03  0.47000000000E+01 0. -1.
        -11    1    1    2    0    0 -0.28235393623E+02 -0.17741041165E+02  0.78028190688E+02  0.84855056047E+02  0.00000000000E+00 0.  1.
         11    1    1    2    0    0  0.34390726940E+02  0.49721954759E+02  0.21983305163E+03  0.22799466106E+03  0.00000000000E+00 0. -1.
<mgrwt>
<rscale>  0 0.11984181E+03</rscale>
<asrwt>0</asrwt>
<pdfrwt beam="1">  1        2 0.12061484E+00 0.12918506E+03</pdfrwt>
<pdfrwt beam="2">  1       -2 0.24939985E-02 0.12918506E+03</pdfrwt>
<totfact> 0.19192117E+04</totfact>
</mgrwt>
</event>
<event>
 6    1  0.4705246E-006  0.1323999E+03  0.7546771E-02  0.1235054E+00
         -2   -1    0    0    0  501 -0.00000000000E+00  0.00000000000E+00  0.51712947571E+02  0.51712947571E+02  0.00000000000E+00 0.  1.
          2   -1    0    0  501    0  0.00000000000E+00 -0.00000000000E+00 -0.29740020898E+03  0.29740020898E+03  0.00000000000E+00 0. -1.
          5    1    1    2  502    0  0.26532590825E+01  0.33241134771E+02  0.52764740123E+00  0.33680576545E+02  0.47000000000E+01 0. -1.
         -5    1    1    2    0  502  0.40697205025E+02 -0.37943714882E+02 -0.18599480179E+03  0.19419614901E+03  0.47000000000E+01 0. -1.
        -11    1    1    2    0    0  0.25027329717E+02 -0.16366753265E+02 -0.38545258376E+01  0.30151205857E+02  0.00000000000E+00 0.  1.
         11    1    1    2    0    0 -0.68377793824E+02  0.21069333376E+02 -0.56365581178E+02  0.91085225139E+02  0.00000000000E+00 0. -1.
<mgrwt>
<rscale>  0 0.12500952E+03</rscale>
<asrwt>0</asrwt>
<pdfrwt beam="2">  1        2 0.45753878E-01 0.13239991E+03</pdfrwt>
<pdfrwt beam="1">  1       -2 0.79558381E-02 0.13239991E+03</pdfrwt>
<totfact> 0.99431749E+03</totfact>
</mgrwt>
</event>
<event>
 6    1  0.4705246E-006  0.2022938E+03  0.7546771E-02  0.1151726E+00
         -2   -1    0    0    0  501 -0.00000000000E+00  0.00000000000E+00  0.24930688632E+02  0.24930688632E+02  0.00000000000E+00 0.  1.
          2   -1    0    0  501    0  0.00000000000E+00 -0.00000000000E+00 -0.15124579840E+04  0.15124579840E+04  0.00000000000E+00 0. -1.
          5    1    1    2  502    0 -0.16983814025E+02 -0.88876309893E+02 -0.72316203227E+03  0.72881606960E+03  0.47000000000E+01 0. -1.
         -5    1    1    2    0  502 -0.15670579712E+02 -0.67984398326E+02 -0.12592981460E+03  0.14404115276E+03  0.47000000000E+01 0.  1.
        -11    1    1    2    0    0 -0.10561136339E+02 -0.82491266335E+01 -0.37155335943E+02  0.39498160464E+02  0.00000000000E+00 0.  1.
         11    1    1    2    0    0  0.43215530077E+02  0.16510983485E+03 -0.60128011261E+03  0.62503328985E+03  0.00000000000E+00 0. -1.
<mgrwt>
<rscale>  0 0.19766296E+03</rscale>
<asrwt>0</asrwt>
<pdfrwt beam="2">  1        2 0.23268590E+00 0.20229376E+03</pdfrwt>
<pdfrwt beam="1">  1       -2 0.38354897E-02 0.20229376E+03</pdfrwt>
<totfact> 0.39214059E+03</totfact>
</mgrwt>
</event>
<event>
 6    1  0.4705246E-006  0.1424104E+03  0.7546771E-02  0.1220730E+00
          3   -1    0    0  501    0  0.00000000000E+00  0.00000000000E+00  0.44617663106E+02  0.44617663106E+02  0.00000000000E+00 0. -1.
         -3   -1    0    0    0  501 -0.00000000000E+00 -0.00000000000E+00 -0.44102411532E+03  0.44102411532E+03  0.00000000000E+00 0.  1.
          5    1    1    2  502    0  0.19343578004E+02 -0.23926367471E+01 -0.13062525692E+03  0.13215500924E+03  0.47000000000E+01 0.  1.
         -5    1    1    2    0  502  0.38532244543E+02 -0.33773139476E+02  0.12408617721E+02  0.52928466947E+02  0.47000000000E+01 0.  1.
        -11    1    1    2    0    0 -0.66384556340E+02 -0.95271115270E+01 -0.17372771389E+03  0.18622296784E+03  0.00000000000E+00 0.  1.
         11    1    1    2    0    0  0.85087337925E+01  0.45692887751E+02 -0.10446209912E+03  0.11433533441E+03  0.00000000000E+00 0. -1.
<mgrwt>
<rscale>  0 0.13463936E+03</rscale>
<asrwt>0</asrwt>
<pdfrwt beam="1">  1        3 0.68642560E-02 0.14241039E+03</pdfrwt>
<pdfrwt beam="2">  1       -3 0.67849863E-01 0.14241039E+03</pdfrwt>
<totfact> 0.67861645E+02</totfact>
</mgrwt>
</event>
<event>
 6    1  0.4705246E-006  0.1600204E+03  0.7546771E-02  0.1195115E+00
          2   -1    0    0  501    0  0.00000000000E+00  0.00000000000E+00  0.10106845157E+04  0.10106845157E+04  0.00000000000E+00 0. -1.
         -2   -1    0    0    0  501 -0.00000000000E+00 -0.00000000000E+00 -0.22874362518E+02  0.22874362518E+02  0.00000000000E+00 0.  1.
          5    1    1    2  502    0 -0.12544697229E+02 -0.39943175577E+02  0.52337888951E+03  0.52507178432E+03  0.47000000000E+01 0. -1.
         -5    1    1    2    0  502 -0.51664238158E+02 -0.36579216439E+02  0.99419842147E+02  0.11795604093E+03  0.47000000000E+01 0. -1.
        -11    1    1    2    0    0  0.37526217936E+02  0.13874925913E+02  0.33748520173E+02  0.52342078823E+02  0.00000000000E+00 0.  1.
         11    1    1    2    0    0  0.26682717451E+02  0.62647466104E+02  0.33126290136E+03  0.33818897415E+03  0.00000000000E+00 0. -1.
<mgrwt>
<rscale>  0 0.15444475E+03</rscale>
<asrwt>0</asrwt>
<pdfrwt beam="1">  1        2 0.15548989E+00 0.16002039E+03</pdfrwt>
<pdfrwt beam="2">  1       -2 0.35191335E-02 0.16002039E+03</pdfrwt>
<totfact> 0.84109641E+03</totfact>
</mgrwt>
</event>
<event>
 6    1  0.4705246E-006  0.1253117E+03  0.7546771E-02  0.1249538E+00
          1   -1    0    0  501    0  0.00000000000E+00  0.00000000000E+00  0.14537222069E+03  0.14537222069E+03  0.00000000000E+00 0. -1.
         -1   -1    0    0    0  501 -0.00000000000E+00 -0.00000000000E+00 -0.32151006197E+03  0.32151006197E+03  0.00000000000E+00 0.  1.
          5    1    1    2  502    0  0.14431177844E+02 -0.31749959263E+02  0.12768864498E+03  0.13244923127E+03  0.47000000000E+01 0.  1.
         -5    1    1    2    0  502 -0.65620358025E+01  0.27707660319E+02 -0.18063251107E+02  0.34046230258E+02  0.47000000000E+01 0.  1.
        -11    1    1    2    0    0 -0.13906664216E+02 -0.40701471511E+02 -0.93889353658E+02  0.10327253179E+03  0.00000000000E+00 0.  1.
         11    1    1    2    0    0  0.60375221741E+01  0.44743770455E+02 -0.19187388149E+03  0.19711428935E+03  0.00000000000E+00 0. -1.
<mgrwt>
<rscale>  0 0.11617868E+03</rscale>
<asrwt>0</asrwt>
<pdfrwt beam="1">  1        1 0.22364957E-01 0.12531166E+03</pdfrwt>
<pdfrwt beam="2">  1       -1 0.49463087E-01 0.12531166E+03</pdfrwt>
<totfact> 0.91614094E+02</totfact>
</mgrwt>
</event>
<event>
 6    1  0.4705246E-006  0.1707243E+03  0.7546771E-02  0.1182672E+00
          1   -1    0    0  501    0  0.00000000000E+00  0.00000000000E+00  0.20674089812E+03  0.20674089812E+03  0.00000000000E+00 0. -1.
         -1   -1    0    0    0  501 -0.00000000000E+00 -0.00000000000E+00 -0.12630559529E+03  0.12630559529E+03  0.00000000000E+00 0.  1.
          5    1    1    2  502    0  0.77483802479E+02  0.70427289590E+02  0.86109580794E+02  0.13564915285E+03  0.47000000000E+01 0.  1.
         -5    1    1    2    0  502  0.28928030157E+02 -0.23537499170E+02 -0.25602954490E+02  0.45480172323E+02  0.47000000000E+01 0.  1.
        -11    1    1    2    0    0 -0.33174731282E+02  0.24531280231E+02 -0.14879400149E+02  0.43860495371E+02  0.00000000000E+00 0.  1.
         11    1    1    2    0    0 -0.73237101353E+02 -0.71421070651E+02  0.34808076677E+02  0.10805667286E+03  0.00000000000E+00 0. -1.
<mgrwt>
<rscale>  0 0.16545537E+03</rscale>
<asrwt>0</asrwt>
<pdfrwt beam="1">  1        1 0.31806292E-01 0.17072428E+03</pdfrwt>
<pdfrwt beam="2">  1       -1 0.19431630E-01 0.17072428E+03</pdfrwt>
<totfact> 0.29069945E+03</totfact>
</mgrwt>
</event>
<event>
 6    1  0.4705246E-006  0.2261553E+03  0.7546771E-02  0.1133087E+00
          3   -1    0    0  501    0  0.00000000000E+00  0.00000000000E+00  0.20698508377E+03  0.20698508377E+03  0.00000000000E+00 0. -1.
         -3   -1    0    0    0  501 -0.00000000000E+00 -0.00000000000E+00 -0.24097286350E+03  0.24097286350E+03  0.00000000000E+00 0.  1.
          5    1    1    2  502    0  0.88822393556E+02  0.20623028320E+02  0.67034007825E+02  0.11327124569E+03  0.47000000000E+01 0.  1.
         -5    1    1    2    0  502  0.95833091788E+02 -0.58391125377E+02 -0.29138003394E+02  0.11603714167E+03  0.47000000000E+01 0.  1.
        -11    1    1    2    0    0 -0.58582237540E+02 -0.27287549954E+02 -0.22175857391E+02  0.68324648472E+02  0.00000000000E+00 0.  1.
         11    1    1    2    0    0 -0.12607324780E+03  0.65055647010E+02 -0.49707926769E+02  0.15032491145E+03  0.00000000000E+00 0. -1.
<mgrwt>
<rscale>  0 0.22107147E+03</rscale>
<asrwt>0</asrwt>
<pdfrwt beam="1">  1        3 0.31843859E-01 0.22615532E+03</pdfrwt>
<pdfrwt beam="2">  1       -3 0.37072748E-01 0.22615532E+03</pdfrwt>
<totfact> 0.17068731E+02</totfact>
</mgrwt>
</event>
<event>
 6    1  0.4705246E-006  0.1393939E+03  0.7546771E-02  0.1223484E+00
         -4   -1    0    0    0  501 -0.00000000000E+00  0.00000000000E+00  0.42661301659E+02  0.42661301659E+02  0.00000000000E+00 0.  1.
          4   -1    0    0  501    0  0.00000000000E+00 -0.00000000000E+00 -0.37962631914E+03  0.37962631914E+03  0.00000000000E+00 0. -1.
          5    1    1    2  502    0  0.94676919064E+01 -0.51515112717E+02 -0.37074685439E+02  0.64343347198E+02  0.47000000000E+01 0. -1.
         -5    1    1    2    0  502 -0.68009919692E+02  0.32097051357E+02 -0.16218061532E+03  0.17883012013E+03  0.47000000000E+01 0. -1.
        -11    1    1    2    0    0 -0.74353920700E+01  0.43582736706E+02 -0.55961747659E+02  0.71319402655E+02  0.00000000000E+00 0. -1.
         11    1    1    2    0    0  0.65977619856E+02 -0.24164675346E+02 -0.81747969068E+02  0.10779475081E+03  0.00000000000E+00 0.  1.
<mgrwt>
<rscale>  0 0.13271375E+03</rscale>
<asrwt>0</asrwt>
<pdfrwt beam="2">  1        4 0.58404049E-01 0.13939390E+03</pdfrwt>
<pdfrwt beam="1">  1       -4 0.65632772E-02 0.13939390E+03</pdfrwt>
<totfact> 0.71663355E+02</totfact>
</mgrwt>
</event>
<event>
 6    1  0.4705246E-006  0.1286098E+03  0.7546771E-02  0.1243173E+00
         -2   -1    0    0    0  501 -0.00000000000E+00  0.00000000000E+00  0.14713181688E+02  0.14713181688E+02  0.00000000000E+00 0.  1.
          2   -1    0    0  501    0  0.00000000000E+00 -0.00000000000E+00 -0.92749837119E+03  0.92749837119E+03  0.00000000000E+00 0. -1.
          5    1    1    2  502    0 -0.34156562913E+02  0.31569696059E+02 -0.15609940182E+03  0.16294916308E+03  0.47000000000E+01 0. -1.
         -5    1    1    2    0  502  0.61015629982E+02 -0.45656497672E+02 -0.47825216346E+03  0.48430841903E+03  0.47000000000E+01 0. -1.
        -11    1    1    2    0    0 -0.21104462096E+02  0.52730510801E+02 -0.13916878101E+03  0.15031252343E+03  0.00000000000E+00 0. -1.
         11    1    1    2    0    0 -0.57546049733E+01 -0.38643709188E+02 -0.13926484320E+03  0.14464144734E+03  0.00000000000E+00 0.  1.
<mgrwt>
<rscale>  0 0.11995376E+03</rscale>
<asrwt>0</asrwt>
<pdfrwt beam="2">  1        2 0.14269208E+00 0.12860976E+03</pdfrwt>
<pdfrwt beam="1">  1       -2 0.22635660E-02 0.12860976E+03</pdfrwt>
<totfact> 0.17835397E+04</totfact>
</mgrwt>
</event>
<event>
 6    1  0.4705246E-006  0.1697738E+03  0.7546771E-02  0.1180070E+00
         -1   -1    0    0    0  501 -0.00000000000E+00  0.00000000000E+00  0.21290661425E+03  0.21290661425E+03  0.00000000000E+00 0.  1.
          1   -1    0    0  501    0  0.00000000000E+00 -0.00000000000E+00 -0.13032034899E+03  0.13032034899E+03  0.00000000000E+00 0. -1.
          5    1    1    2  502    0 -0.95188791821E+02 -0.82757557614E+02  0.42109744841E+02  0.13306028724E+03  0.47000000000E+01 0. -1.
         -5    1    1    2    0  502  0.26777557629E+02  0.49317109370E+01 -0.15150818956E+02  0.31511849840E+02  0.47000000000E+01 0. -1.
        -11    1    1    2    0    0  0.77494263446E+02  0.84829313309E+02 -0.68808541479E+01  0.11510308170E+03  0.00000000000E+00 0. -1.
         11    1    1    2    0    0 -0.90830292528E+01 -0.70034666319E+01  0.62508193524E+02  0.63551744452E+02  0.00000000000E+00 0.  1.
<mgrwt>
<rscale>  0 0.16788637E+03</rscale>
<asrwt>0</asrwt>
<pdfrwt beam="2">  1        1 0.20049284E-01 0.16977381E+03</pdfrwt>
<pdfrwt beam="1">  1       -1 0.32754864E-01 0.16977381E+03</pdfrwt>
<totfact> 0.21928325E+03</totfact>
</mgrwt>
</event>
<event>
 6    1  0.4705246E-006  0.1314753E+03  0.7546771E-02  0.1238510E+00
          1   -1    0    0  501    0  0.00000000000E+00  0.00000000000E+00  0.26918637217E+02  0.26918637217E+02  0.00000000000E+00 0. -1.
         -1   -1    0    0    0  501 -0.00000000000E+00 -0.00000000000E+00 -0.56165590218E+03  0.56165590218E+03  0.00000000000E+00 0.  1.
          5    1    1    2  502    0  0.52782589528E+02 -0.21796382730E+02 -0.20263306915E+03  0.21057857149E+03  0.47000000000E+01 0.  1.
         -5    1    1    2    0  502 -0.12367557810E+02  0.26783745038E+02  0.12764908022E+01  0.29900583828E+02  0.47000000000E+01 0.  1.
        -11    1    1    2    0    0 -0.47475425859E+02  0.26486311572E+02 -0.28370043200E+03  0.28886220916E+03  0.00000000000E+00 0.  1.
         11    1    1    2    0    0  0.70603941407E+01 -0.31473673880E+02 -0.49680254615E+02  0.59233174924E+02  0.00000000000E+00 0. -1.
<mgrwt>
<rscale>  0 0.12282403E+03</rscale>
<asrwt>0</asrwt>
<pdfrwt beam="1">  1        1 0.41413290E-02 0.13147529E+03</pdfrwt>
<pdfrwt beam="2">  1       -1 0.86408596E-01 0.13147529E+03</pdfrwt>
<totfact> 0.28909216E+03</totfact>
</mgrwt>
</event>
<event>
 6    1  0.4705246E-006  0.1342179E+03  0.7546771E-02  0.1245100E+00
          3   -1    0    0  501    0  0.00000000000E+00  0.00000000000E+00  0.26253399847E+03  0.26253399847E+03  0.00000000000E+00 0. -1.
         -3   -1    0    0    0  501 -0.00000000000E+00 -0.00000000000E+00 -0.50600609122E+02  0.50600609122E+02  0.00000000000E+00 0.  1.
          5    1    1    2  502    0  0.65327681169E+02  0.59278129840E+01  0.17486554597E+03  0.18682316254E+03  0.47000000000E+01 0. -1.
         -5    1    1    2    0  502 -0.24178437525E+02 -0.28609937353E+02  0.57273023079E+01  0.38183993350E+02  0.47000000000E+01 0.  1.
        -11    1    1    2    0    0 -0.36337481822E+02  0.36503779664E+02 -0.21783953055E+01  0.51552729521E+02  0.00000000000E+00 0. -1.
         11    1    1    2    0    0 -0.48117618222E+01 -0.13821655296E+02  0.33518936372E+02  0.36574722179E+02  0.00000000000E+00 0.  1.
<mgrwt>
<rscale>  0 0.11879422E+03</rscale>
<asrwt>0</asrwt>
<pdfrwt beam="1">  1        3 0.40389845E-01 0.13421790E+03</pdfrwt>
<pdfrwt beam="2">  1       -3 0.77847093E-02 0.13421790E+03</pdfrwt>
<totfact> 0.15597500E+03</totfact>
</mgrwt>
</event>
<event>
 6    1  0.4705246E-006  0.1140683E+03  0.7546771E-02  0.1288644E+00
         -2   -1    0    0    0  501 -0.00000000000E+00  0.00000000000E+00  0.22819699491E+02  0.22819699491E+02  0.00000000000E+00 0.  1.
          2   -1    0    0  501    0  0.00000000000E+00 -0.00000000000E+00 -0.92952961001E+03  0.92952961001E+03  0.00000000000E+00 0. -1.
          5    1    1    2  502    0 -0.11878104411E+02  0.52241876273E+02 -0.71431795955E+03  0.71633968223E+03  0.47000000000E+01 0. -1.
         -5    1    1    2    0  502 -0.13225618625E+02 -0.40269959477E+02 -0.16831167336E+03  0.17363034301E+03  0.47000000000E+01 0.  1.
        -11    1    1    2    0    0  0.80165960906E+01 -0.17028851271E+02 -0.36219351415E+02  0.40817753557E+02  0.00000000000E+00 0. -1.
         11    1    1    2    0    0  0.17087126945E+02  0.50569344755E+01  0.12139073805E+02  0.21561530706E+02  0.00000000000E+00 0.  1.
<mgrwt>
<rscale>  0 0.96133287E+02</rscale>
<asrwt>0</asrwt>
<pdfrwt beam="2">  1        2 0.14300457E+00 0.11406830E+03</pdfrwt>
<pdfrwt beam="1">  1       -2 0.35107227E-02 0.11406830E+03</pdfrwt>
<totfact> 0.92853314E+03</totfact>
</mgrwt>
</event>
<event>
 6    1  0.4705246E-006  0.2343359E+03  0.7546771E-02  0.1128118E+00
         -2   -1    0    0    0  501 -0.00000000000E+00  0.00000000000E+00  0.33268380568E+02  0.33268380568E+02  0.00000000000E+00 0.  1.
          2   -1    0    0  501    0  0.00000000000E+00 -0.00000000000E+00 -0.15235661125E+04  0.15235661125E+04  0.00000000000E+00 0. -1.
          5    1    1    2  502    0  0.10765033664E+03  0.11559220393E+03 -0.63203016925E+03  0.65148628338E+03  0.47000000000E+01 0. -1.
         -5    1    1    2    0  502  0.63137463111E+02 -0.42353864716E+02 -0.28251401912E+03  0.29260288806E+03  0.47000000000E+01 0.  1.
        -11    1    1    2    0    0 -0.67980108312E+02 -0.66149105212E+02 -0.17611203562E+03  0.20003111842E+03  0.00000000000E+00 0.  1.
         11    1    1    2    0    0 -0.10280769143E+03 -0.70892340063E+01 -0.39964150796E+03  0.41271420322E+03  0.00000000000E+00 0. -1.
<mgrwt>
<rscale>  0 0.22791193E+03</rscale>
<asrwt>0</asrwt>
<pdfrwt beam="2">  1        2 0.23439472E+00 0.23433585E+03</pdfrwt>
<pdfrwt beam="1">  1       -2 0.51182140E-02 0.23433585E+03</pdfrwt>
<totfact> 0.25043363E+03</totfact>
</mgrwt>
</event>
<event>
 6    1  0.4705246E-006  0.4516691E+03  0.7546771E-02  0.1027225E+00
         -1   -1    0    0    0  501 -0.00000000000E+00  0.00000000000E+00  0.83869739690E+03  0.83869739690E+03  0.00000000000E+00 0.  1.
          1   -1    0    0  501    0  0.00000000000E+00 -0.00000000000E+00 -0.60810077726E+02  0.60810077726E+02  0.00000000000E+00 0. -1.
          5    1    1    2  502    0  0.46379161561E+01 -0.11118133830E+03  0.93605775498E+02  0.14548859563E+03  0.47000000000E+01 0. -1.
         -5    1    1    2    0  502 -0.11284624578E+02  0.27995574308E+02 -0.16058639913E+02  0.34511807379E+02  0.47000000000E+01 0.  1.
        -11    1    1    2    0    0  0.78678566881E+01  0.11572352590E+03  0.64460678591E+03  0.65495934687E+03  0.00000000000E+00 0.  1.
         11    1    1    2    0    0 -0.12211482662E+01 -0.32537761908E+02  0.55733397682E+02  0.64547724749E+02  0.00000000000E+00 0. -1.
<mgrwt>
<rscale>  0 0.45166914E+03</rscale>
<asrwt>0</asrwt>
<pdfrwt beam="2">  1        1 0.93553972E-02 0.45166914E+03</pdfrwt>
<pdfrwt beam="1">  1       -1 0.12903036E+00 0.45166914E+03</pdfrwt>
<totfact> 0.38818869E+02</totfact>
</mgrwt>
</event>
<event>
 6    1  0.4705246E-006  0.1328038E+03  0.7546771E-02  0.1236814E+00
          2   -1    0    0  501    0  0.00000000000E+00  0.00000000000E+00  0.65739682138E+02  0.65739682138E+02  0.00000000000E+00 0. -1.
         -2   -1    0    0    0  501 -0.00000000000E+00 -0.00000000000E+00 -0.24541245896E+03  0.24541245896E+03  0.00000000000E+00 0.  1.
          5    1    1    2  502    0 -0.79628751488E+01 -0.41053430048E+02 -0.29069239691E+02  0.51145891287E+02  0.47000000000E+01 0. -1.
         -5    1    1    2    0  502  0.13345573926E+02  0.85598229496E+02 -0.10291222488E+02  0.87367960355E+02  0.47000000000E+01 0. -1.
        -11    1    1    2    0    0 -0.81965425825E+00 -0.57560786773E+02 -0.14658699498E+03  0.15748543775E+03  0.00000000000E+00 0.  1.
         11    1    1    2    0    0 -0.45630445187E+01  0.13015987325E+02  0.62746803378E+01  0.15152851701E+02  0.00000000000E+00 0. -1.
<mgrwt>
<rscale>  0 0.12388999E+03</rscale>
<asrwt>0</asrwt>
<pdfrwt beam="1">  1        2 0.10113797E-01 0.13280377E+03</pdfrwt>
<pdfrwt beam="2">  1       -2 0.37755763E-01 0.13280377E+03</pdfrwt>
<totfact> 0.40090033E+03</totfact>
</mgrwt>
</event>
<event>
 6    1  0.4705246E-006  0.1316313E+03  0.7546771E-02  0.1236261E+00
         -1   -1    0    0    0  501 -0.00000000000E+00  0.00000000000E+00  0.12040939238E+03  0.12040939238E+03  0.00000000000E+00 0.  1.
          1   -1    0    0  501    0  0.00000000000E+00 -0.00000000000E+00 -0.15745548086E+03  0.15745548086E+03  0.00000000000E+00 0. -1.
          5    1    1    2  502    0  0.30627597448E+02 -0.75615648101E+02 -0.43552006630E+02  0.92599369569E+02  0.47000000000E+01 0.  1.
         -5    1    1    2    0  502 -0.19273791116E+00  0.47623405229E+02 -0.47704523608E+02  0.67570980799E+02  0.47000000000E+01 0.  1.
        -11    1    1    2    0    0 -0.46716326605E+02  0.63532161203E+01  0.71442356867E+02  0.85596663961E+02  0.00000000000E+00 0.  1.
         11    1    1    2    0    0  0.16281467069E+02  0.21639026752E+02 -0.17231915112E+02  0.32097858918E+02  0.00000000000E+00 0. -1.
<mgrwt>
<rscale>  0 0.12424057E+03</rscale>
<asrwt>0</asrwt>
<pdfrwt beam="2">  1        1 0.24223920E-01 0.13163125E+03</pdfrwt>
<pdfrwt beam="1">  1       -1 0.18524522E-01 0.13163125E+03</pdfrwt>
<totfact> 0.43568887E+03</totfact>
</mgrwt>
</event>
<event>
 6    1  0.4705246E-006  0.1368660E+03  0.7546771E-02  0.1230908E+00
          2   -1    0    0  501    0  0.00000000000E+00  0.00000000000E+00  0.33730116452E+03  0.33730116452E+03  0.00000000000E+00 0. -1.
         -2   -1    0    0    0  501 -0.00000000000E+00 -0.00000000000E+00 -0.45074784688E+02  0.45074784688E+02  0.00000000000E+00 0.  1.
          5    1    1    2  502    0  0.36596346066E+01 -0.40525236853E+02  0.24005778197E+01  0.41030970270E+02  0.47000000000E+01 0. -1.
         -5    1    1    2    0  502  0.31948832267E+02 -0.23713044290E+01  0.20446335060E+03  0.20701135888E+03  0.47000000000E+01 0. -1.
        -11    1    1    2    0    0 -0.75077580372E+01  0.51468616381E+02  0.93577688755E+01  0.52848393933E+02  0.00000000000E+00 0.  1.
         11    1    1    2    0    0 -0.28100708837E+02 -0.85720750997E+01  0.76004682537E+02  0.81485226123E+02  0.00000000000E+00 0. -1.
<mgrwt>
<rscale>  0 0.12770036E+03</rscale>
<asrwt>0</asrwt>
<pdfrwt beam="1">  1        2 0.51892485E-01 0.13686604E+03</pdfrwt>
<pdfrwt beam="2">  1       -2 0.69345825E-02 0.13686604E+03</pdfrwt>
<totfact> 0.10772397E+04</totfact>
</mgrwt>
</event>
<event>
 6    1  0.4705246E-006  0.1662022E+03  0.7546771E-02  0.1188574E+00
         -2   -1    0    0    0  501 -0.00000000000E+00  0.00000000000E+00  0.10756349092E+03  0.10756349092E+03  0.00000000000E+00 0.  1.
          2   -1    0    0  501    0  0.00000000000E+00 -0.00000000000E+00 -0.22246343033E+03  0.22246343033E+03  0.00000000000E+00 0. -1.
          5    1    1    2  502    0 -0.28873026384E+02  0.62547133684E+02 -0.69297749619E+02  0.97826702320E+02  0.47000000000E+01 0. -1.
         -5    1    1    2    0  502 -0.75054727839E+02 -0.28014267864E+02  0.49371028400E+01  0.80401967386E+02  0.47000000000E+01 0. -1.
        -11    1    1    2    0    0  0.56759826523E+02 -0.57600011298E+02 -0.29278386289E+01  0.80919784030E+02  0.00000000000E+00 0.  1.
         11    1    1    2    0    0  0.47167927700E+02  0.23067145479E+02 -0.47611454009E+02  0.70878467512E+02  0.00000000000E+00 0. -1.
<mgrwt>
<rscale>  0 0.16010920E+03</rscale>
<asrwt>0</asrwt>
<pdfrwt beam="2">  1        2 0.34225143E-01 0.16620218E+03</pdfrwt>
<pdfrwt beam="1">  1       -2 0.16548229E-01 0.16620218E+03</pdfrwt>
<totfact> 0.42723068E+03</totfact>
</mgrwt>
</event>
<event>
 6    1  0.4705246E-006  0.1306047E+03  0.7546771E-02  0.1239472E+00
          1   -1    0    0  501    0  0.00000000000E+00  0.00000000000E+00  0.44307477504E+03  0.44307477504E+03  0.00000000000E+00 0. -1.
         -1   -1    0    0    0  501 -0.00000000000E+00 -0.00000000000E+00 -0.30053276901E+02  0.30053276901E+02  0.00000000000E+00 0.  1.
          5    1    1    2  502    0 -0.74774923143E+01  0.13698375018E+02 -0.11755359788E+02  0.20095692404E+02  0.47000000000E+01 0.  1.
         -5    1    1    2    0  502  0.29585858658E+02  0.17171725196E+02  0.24334657796E+03  0.24578412924E+03  0.47000000000E+01 0.  1.
        -11    1    1    2    0    0  0.11643260905E+02 -0.48538589743E+02  0.14926148526E+03  0.15738662968E+03  0.00000000000E+00 0.  1.
         11    1    1    2    0    0 -0.33751627249E+02  0.17668489529E+02  0.32168794705E+02  0.49861600626E+02  0.00000000000E+00 0. -1.
<mgrwt>
<rscale>  0 0.12222446E+03</rscale>
<asrwt>0</asrwt>
<pdfrwt beam="1">  1        1 0.68165345E-01 0.13060470E+03</pdfrwt>
<pdfrwt beam="2">  1       -1 0.46235814E-02 0.13060470E+03</pdfrwt>
<totfact> 0.99499775E+03</totfact>
</mgrwt>
</event>
<event>
 6    1  0.4705246E-006  0.2858349E+03  0.7546771E-02  0.1092544E+00
          2   -1    0    0  501    0  0.00000000000E+00  0.00000000000E+00  0.64199819638E+03  0.64199819638E+03  0.00000000000E+00 0. -1.
         -2   -1    0    0    0  501 -0.00000000000E+00 -0.00000000000E+00 -0.31815355973E+02  0.31815355973E+02  0.00000000000E+00 0.  1.
          5    1    1    2  502    0 -0.27370159869E+02 -0.12851091804E+02  0.41382511724E+02  0.51467256469E+02  0.47000000000E+01 0.  1.
         -5    1    1    2    0  502  0.11250955985E+03  0.39528089449E+01  0.37823094949E+03  0.39465778455E+03  0.47000000000E+01 0.  1.
        -11    1    1    2    0    0 -0.27058701236E+02 -0.19395882611E+02  0.83047917384E+01  0.34312434199E+02  0.00000000000E+00 0.  1.
         11    1    1    2    0    0 -0.58080698749E+02  0.28294165470E+02  0.18226458745E+03  0.19337607713E+03  0.00000000000E+00 0. -1.
<mgrwt>
<rscale>  0 0.28583493E+03</rscale>
<asrwt>0</asrwt>
<pdfrwt beam="1">  1        2 0.98768944E-01 0.28583493E+03</pdfrwt>
<pdfrwt beam="2">  1       -2 0.48946706E-02 0.28583493E+03</pdfrwt>
<totfact> 0.93960806E+03</totfact>
</mgrwt>
</event>
<event>
 6    1  0.4705246E-006  0.1272608E+03  0.7546771E-02  0.1245194E+00
          2   -1    0    0  501    0  0.00000000000E+00  0.00000000000E+00  0.46842261338E+03  0.46842261338E+03  0.00000000000E+00 0. -1.
         -2   -1    0    0    0  501 -0.00000000000E+00 -0.00000000000E+00 -0.31070634249E+02  0.31070634249E+02  0.00000000000E+00 0.  1.
          5    1    1    2  502    0  0.16013935150E+02 -0.29520979904E+02  0.16557697948E+02  0.37738332433E+02  0.47000000000E+01 0. -1.
         -5    1    1    2    0  502 -0.33314055265E+02  0.13046744140E+02  0.32082273872E+03  0.32284572708E+03  0.47000000000E+01 0. -1.
        -11    1    1    2    0    0 -0.35612138449E+02  0.81816317433E+00  0.63363991175E+02  0.72690365066E+02  0.00000000000E+00 0.  1.
         11    1    1    2    0    0  0.52912258564E+02  0.15656072589E+02  0.36607551283E+02  0.66218823050E+02  0.00000000000E+00 0. -1.
<mgrwt>
<rscale>  0 0.11873801E+03</rscale>
<asrwt>0</asrwt>
<pdfrwt beam="1">  1        2 0.72065012E-01 0.12726078E+03</pdfrwt>
<pdfrwt beam="2">  1       -2 0.47800979E-02 0.12726078E+03</pdfrwt>
<totfact> 0.13233318E+04</totfact>
</mgrwt>
</event>
<event>
 6    1  0.4705246E-006  0.1460511E+03  0.7546771E-02  0.1220091E+00
         -2   -1    0    0    0  501 -0.00000000000E+00  0.00000000000E+00  0.98019027149E+01  0.98019027149E+01  0.00000000000E+00 0.  1.
          2   -1    0    0  501    0  0.00000000000E+00 -0.00000000000E+00 -0.17054647148E+04  0.17054647148E+04  0.00000000000E+00 0. -1.
          5    1    1    2  502    0  0.29005257196E+02  0.62522412256E+02 -0.10644131360E+04  0.10666526009E+04  0.47000000000E+01 0.  1.
         -5    1    1    2    0  502 -0.32399428677E+02  0.12927407996E+02 -0.84958849773E+02  0.91961606178E+02  0.47000000000E+01 0.  1.
        -11    1    1    2    0    0 -0.35917233892E+02 -0.41803688717E+02 -0.27372902127E+03  0.27922244388E+03  0.00000000000E+00 0. -1.
         11    1    1    2    0    0  0.39311405374E+02 -0.33646131535E+02 -0.27256180503E+03  0.27742996652E+03  0.00000000000E+00 0.  1.
<mgrwt>
<rscale>  0 0.13509087E+03</rscale>
<asrwt>0</asrwt>
<pdfrwt beam="2">  1        2 0.26237929E+00 0.14605108E+03</pdfrwt>
<pdfrwt beam="1">  1       -2 0.15079844E-02 0.14605108E+03</pdfrwt>
<totfact> 0.12155626E+04</totfact>
</mgrwt>
</event>
<event>
 6    1  0.4705246E-006  0.1266130E+03  0.7546771E-02  0.1247632E+00
         -1   -1    0    0    0  501 -0.00000000000E+00  0.00000000000E+00  0.18717014739E+02  0.18717014739E+02  0.00000000000E+00 0.  1.
          1   -1    0    0  501    0  0.00000000000E+00 -0.00000000000E+00 -0.65989305180E+03  0.65989305180E+03  0.00000000000E+00 0. -1.
          5    1    1    2  502    0 -0.25585644435E+02  0.30896452579E+02 -0.36432145960E+02  0.54393080832E+02  0.47000000000E+01 0.  1.
         -5    1    1    2    0  502  0.66496264402E+01 -0.23609229093E+02 -0.38101845509E+03  0.38183604643E+03  0.47000000000E+01 0.  1.
        -11    1    1    2    0    0  0.72625228126E+01 -0.48931953959E+02 -0.13217177060E+03  0.14112567910E+03  0.00000000000E+00 0. -1.
         11    1    1    2    0    0  0.11673495182E+02  0.41644730472E+02 -0.91553665404E+02  0.10125526018E+03  0.00000000000E+00 0.  1.
<mgrwt>
<rscale>  0 0.11729248E+03</rscale>
<asrwt>0</asrwt>
<pdfrwt beam="2">  1        1 0.10152200E+00 0.12661298E+03</pdfrwt>
<pdfrwt beam="1">  1       -1 0.28795409E-02 0.12661298E+03</pdfrwt>
<totfact> 0.11692339E+04</totfact>
</mgrwt>
</event>
<event>
 6    1  0.4705246E-006  0.2116759E+03  0.7546771E-02  0.1145803E+00
         -1   -1    0    0    0  501 -0.00000000000E+00  0.00000000000E+00  0.13959863477E+03  0.13959863477E+03  0.00000000000E+00 0.  1.
          1   -1    0    0  501    0  0.00000000000E+00 -0.00000000000E+00 -0.28246277148E+03  0.28246277148E+03  0.00000000000E+00 0. -1.
          5    1    1    2  502    0 -0.33664250860E+02 -0.28107428405E+02  0.12765595739E+02  0.45916878728E+02  0.47000000000E+01 0.  1.
         -5    1    1    2    0  502 -0.12620815336E+03  0.88281722015E+02 -0.95914347373E+02  0.18150430422E+03  0.47000000000E+01 0.  1.
        -11    1    1    2    0    0  0.40070254090E+02 -0.49323827119E+02 -0.93649071046E+01  0.64235244761E+02  0.00000000000E+00 0.  1.
         11    1    1    2    0    0  0.11980215013E+03 -0.10850466491E+02 -0.50350477973E+02  0.13040497855E+03  0.00000000000E+00 0. -1.
<mgrwt>
<rscale>  0 0.20473646E+03</rscale>
<asrwt>0</asrwt>
<pdfrwt beam="2">  1        1 0.43455810E-01 0.21167588E+03</pdfrwt>
<pdfrwt beam="1">  1       -1 0.21476713E-01 0.21167588E+03</pdfrwt>
<totfact> 0.16846411E+03</totfact>
</mgrwt>
</event>
<event>
 6    1  0.4705246E-006  0.4261763E+03  0.7546771E-02  0.1035075E+00
         -2   -1    0    0    0  501 -0.00000000000E+00  0.00000000000E+00  0.35776358938E+02  0.35776358938E+02  0.00000000000E+00 0.  1.
          2   -1    0    0  501    0  0.00000000000E+00 -0.00000000000E+00 -0.12691780617E+04  0.12691780617E+04  0.00000000000E+00 0. -1.
          5    1    1    2  502    0  0.53952316296E+02  0.42927325157E+02 -0.45130220372E+03  0.45656256609E+03  0.47000000000E+01 0. -1.
         -5    1    1    2    0  502 -0.12637965222E+02 -0.70088056503E+02 -0.29465297360E+03  0.30317407323E+03  0.47000000000E+01 0.  1.
        -11    1    1    2    0    0 -0.86293093225E+02  0.83608501847E+02 -0.11665641209E+03  0.16746819997E+03  0.00000000000E+00 0.  1.
         11    1    1    2    0    0  0.44978742151E+02 -0.56447770501E+02 -0.37079011332E+03  0.37774958131E+03  0.00000000000E+00 0. -1.
<mgrwt>
<rscale>  0 0.42617635E+03</rscale>
<asrwt>0</asrwt>
<pdfrwt beam="2">  1        2 0.19525817E+00 0.42617635E+03</pdfrwt>
<pdfrwt beam="1">  1       -2 0.55040551E-02 0.42617635E+03</pdfrwt>
<totfact> 0.30907874E+03</totfact>
</mgrwt>
</event>
<event>
 6    1  0.4705246E-006  0.2368853E+03  0.7546771E-02  0.1124739E+00
         -1   -1    0    0    0  501 -0.00000000000E+00  0.00000000000E+00  0.10756504714E+03  0.10756504714E+03  0.00000000000E+00 0.  1.
          1   -1    0    0  501    0  0.00000000000E+00 -0.00000000000E+00 -0.55905489091E+03  0.55905489091E+03  0.00000000000E+00 0. -1.
          5    1    1    2  502    0 -0.39140216133E+02  0.66994346841E+02 -0.10169250385E+03  0.12799864986E+03  0.47000000000E+01 0. -1.
         -5    1    1    2    0  502 -0.15693636774E+03 -0.21800436141E+02 -0.25096957121E+03  0.29683682084E+03  0.47000000000E+01 0. -1.
        -11    1    1    2    0    0  0.16169764166E+02 -0.33217604061E+02 -0.17009060079E+01  0.36983287766E+02  0.00000000000E+00 0.  1.
         11    1    1    2    0    0  0.17990681971E+03 -0.11976306639E+02 -0.97126862703E+02  0.20480117958E+03  0.00000000000E+00 0. -1.
<mgrwt>
<rscale>  0 0.23272158E+03</rscale>
<asrwt>0</asrwt>
<pdfrwt beam="2">  1        1 0.86008445E-01 0.23688528E+03</pdfrwt>
<pdfrwt beam="1">  1       -1 0.16548469E-01 0.23688528E+03</pdfrwt>
<totfact> 0.10659725E+03</totfact>
</mgrwt>
</event>
<event>
 6    1  0.4705246E-006  0.1767850E+03  0.7546771E-02  0.1176606E+00
         -1   -1    0    0    0  501 -0.00000000000E+00  0.00000000000E+00  0.36287523307E+03  0.36287523307E+03  0.00000000000E+00 0.  1.
          1   -1    0    0  501    0  0.00000000000E+00 -0.00000000000E+00 -0.99563573169E+02  0.99563573169E+02  0.00000000000E+00 0. -1.
          5    1    1    2  502    0  0.86665478377E+02 -0.67035163507E+02  0.25893917058E+02  0.11268186735E+03  0.47000000000E+01 0. -1.
         -5    1    1    2    0  502 -0.42788247378E+02 -0.50023202516E+02  0.33189752836E-01  0.65994287671E+02  0.47000000000E+01 0. -1.
        -11    1    1    2    0    0 -0.21558379961E+02  0.12378901814E+03  0.16299114189E+03  0.20580232529E+03  0.00000000000E+00 0. -1.
         11    1    1    2    0    0 -0.22318851038E+02 -0.67306521165E+01  0.74393411199E+02  0.77960325931E+02  0.00000000000E+00 0.  1.
<mgrwt>
<rscale>  0 0.17119588E+03</rscale>
<asrwt>0</asrwt>
<pdfrwt beam="2">  1        1 0.15317473E-01 0.17678505E+03</pdfrwt>
<pdfrwt beam="1">  1       -1 0.55826958E-01 0.17678505E+03</pdfrwt>
<totfact> 0.11983973E+03</totfact>
</mgrwt>
</event>
<event>
 6    1  0.4705246E-006  0.2813645E+03  0.7546771E-02  0.1094946E+00
          1   -1    0    0  501    0  0.00000000000E+00  0.00000000000E+00  0.66663174116E+03  0.66663174116E+03  0.00000000000E+00 0. -1.
         -1   -1    0    0    0  501 -0.00000000000E+00 -0.00000000000E+00 -0.29688792970E+02  0.29688792970E+02  0.00000000000E+00 0.  1.
          5    1    1    2  502    0 -0.57744257765E+02  0.87282228028E+02  0.23174402286E+03  0.25432256834E+03  0.47000000000E+01 0. -1.
         -5    1    1    2    0  502 -0.74228128378E+01 -0.36366203841E+02  0.18012757662E+03  0.18397182608E+03  0.47000000000E+01 0. -1.
        -11    1    1    2    0    0  0.10830962730E+02 -0.42420196051E+02  0.24750048868E+02  0.50292620787E+02  0.00000000000E+00 0.  1.
         11    1    1    2    0    0  0.54336107873E+02 -0.84958281372E+01  0.20032129984E+03  0.20773351892E+03  0.00000000000E+00 0. -1.
<mgrwt>
<rscale>  0 0.28136447E+03</rscale>
<asrwt>0</asrwt>
<pdfrwt beam="1">  1        1 0.10255872E+00 0.28136447E+03</pdfrwt>
<pdfrwt beam="2">  1       -1 0.45675071E-02 0.28136447E+03</pdfrwt>
<totfact> 0.60909260E+03</totfact>
</mgrwt>
</event>
<event>
 6    1  0.4705246E-006  0.3719772E+03  0.7546771E-02  0.1053939E+00
          3   -1    0    0  501    0  0.00000000000E+00  0.00000000000E+00  0.37781901753E+03  0.37781901753E+03  0.00000000000E+00 0. -1.
         -3   -1    0    0    0  501 -0.00000000000E+00 -0.00000000000E+00 -0.91556442692E+02  0.91556442692E+02  0.00000000000E+00 0.  1.
          5    1    1    2  502    0  0.70666741546E+00 -0.29341780036E+02  0.70145927636E+02  0.76183860485E+02  0.47000000000E+01 0.  1.
         -5    1    1    2    0  502  0.54942586307E+02  0.12250084469E+03  0.21454892712E+03  0.25313726882E+03  0.47000000000E+01 0.  1.
        -11    1    1    2    0    0 -0.22288161210E+02 -0.58218637851E+02 -0.41864191985E+02  0.75091827078E+02  0.00000000000E+00 0.  1.
         11    1    1    2    0    0 -0.33361092512E+02 -0.34940426800E+02  0.43431912066E+02  0.64962503834E+02  0.00000000000E+00 0. -1.
<mgrwt>
<rscale>  0 0.37197723E+03</rscale>
<asrwt>0</asrwt>
<pdfrwt beam="1">  1        3 0.58126002E-01 0.37197723E+03</pdfrwt>
<pdfrwt beam="2">  1       -3 0.14085607E-01 0.37197723E+03</pdfrwt>
<totfact> 0.31583849E+02</totfact>
</mgrwt>
</event>
<event>
 6    1  0.4705246E-006  0.1426510E+03  0.7546771E-02  0.1220779E+00
          2   -1    0    0  501    0  0.00000000000E+00  0.00000000000E+00  0.13508658111E+04  0.13508658111E+04  0.00000000000E+00 0.  1.
         -2   -1    0    0    0  501 -0.00000000000E+00 -0.00000000000E+00 -0.17252536114E+02  0.17252536114E+02  0.00000000000E+00 0. -1.
          5    1    1    2  502    0  0.65695124977E+01 -0.17944372111E+02  0.73737728954E+03  0.73763982818E+03  0.47000000000E+01 0.  1.
         -5    1    1    2    0  502  0.36080656965E+02  0.71842500010E+02  0.35544424642E+03  0.36445282401E+03  0.47000000000E+01 0.  1.
        -11    1    1    2    0    0  0.23297226247E+02  0.40111692465E+01  0.34305953837E+02  0.41662317485E+02  0.00000000000E+00 0.  1.
         11    1    1    2    0    0 -0.65947395710E+02 -0.57909297145E+02  0.20648578517E+03  0.22436337753E+03  0.00000000000E+00 0. -1.
<mgrwt>
<rscale>  0 0.13460485E+03</rscale>
<asrwt>0</asrwt>
<pdfrwt beam="1">  1        2 0.20782543E+00 0.14265099E+03</pdfrwt>
<pdfrwt beam="2">  1       -2 0.26542374E-02 0.14265099E+03</pdfrwt>
<totfact> 0.81703209E+03</totfact>
</mgrwt>
</event>
<event>
 6    1  0.4705246E-006  0.1256468E+03  0.7546771E-02  0.1248199E+00
          2   -1    0    0  501    0  0.00000000000E+00  0.00000000000E+00  0.12014563038E+04  0.12014563038E+04  0.00000000000E+00 0. -1.
         -2   -1    0    0    0  501 -0.00000000000E+00 -0.00000000000E+00 -0.29917314936E+02  0.29917314936E+02  0.00000000000E+00 0.  1.
          5    1    1    2  502    0 -0.23023402660E+02  0.43898053790E+02  0.24764032633E+03  0.25259639234E+03  0.47000000000E+01 0. -1.
         -5    1    1    2    0  502  0.34605999817E+02 -0.49384966256E+02  0.86595674784E+03  0.86806660416E+03  0.47000000000E+01 0. -1.
        -11    1    1    2    0    0  0.14133474749E+02  0.50558194266E+01 -0.22056332090E+02  0.26679546544E+02  0.00000000000E+00 0.  1.
         11    1    1    2    0    0 -0.25716071906E+02  0.43109303887E+00  0.79998246792E+02  0.84031075712E+02  0.00000000000E+00 0. -1.
<mgrwt>
<rscale>  0 0.11695927E+03</rscale>
<asrwt>0</asrwt>
<pdfrwt beam="1">  1        2 0.18483939E+00 0.12564676E+03</pdfrwt>
<pdfrwt beam="2">  1       -2 0.46026648E-02 0.12564676E+03</pdfrwt>
<totfact> 0.43448795E+03</totfact>
</mgrwt>
</event>
<event>
 6    1  0.4705246E-006  0.1700802E+03  0.7546771E-02  0.1183989E+00
          2   -1    0    0  501    0  0.00000000000E+00  0.00000000000E+00  0.15276044003E+03  0.15276044003E+03  0.00000000000E+00 0. -1.
         -2   -1    0    0    0  501 -0.00000000000E+00 -0.00000000000E+00 -0.19477376633E+03  0.19477376633E+03  0.00000000000E+00 0.  1.
          5    1    1    2  502    0  0.48302968393E+02  0.67745800994E+02 -0.26636009775E+02  0.87488498242E+02  0.47000000000E+01 0. -1.
         -5    1    1    2    0  502 -0.24989461368E+02  0.45210141993E+02  0.71637154904E+02  0.88444344541E+02  0.47000000000E+01 0. -1.
        -11    1    1    2    0    0  0.12750929129E+02 -0.96577350639E+02 -0.88989486745E+02  0.13194278912E+03  0.00000000000E+00 0.  1.
         11    1    1    2    0    0 -0.36064436154E+02 -0.16378592348E+02  0.19750153104E+01  0.39658574456E+02  0.00000000000E+00 0. -1.
<mgrwt>
<rscale>  0 0.16424230E+03</rscale>
<asrwt>0</asrwt>
<pdfrwt beam="1">  1        2 0.23501606E-01 0.17008016E+03</pdfrwt>
<pdfrwt beam="2">  1       -2 0.29965195E-01 0.17008016E+03</pdfrwt>
<totfact> 0.23152738E+03</totfact>
</mgrwt>
</event>
<event>
 6    1  0.4705246E-006  0.3189831E+03  0.7546771E-02  0.1077330E+00
         -2   -1    0    0    0  501 -0.00000000000E+00  0.00000000000E+00  0.85569273841E+02  0.85569273841E+02  0.00000000000E+00 0.  1.
          2   -1    0    0  501    0  0.00000000000E+00 -0.00000000000E+00 -0.17544287251E+04  0.17544287251E+04  0.00000000000E+00 0. -1.
          5    1    1    2  502    0 -0.13155360693E+03 -0.16315014719E+02 -0.77833744104E+03  0.78955923991E+03  0.47000000000E+01 0. -1.
         -5    1    1    2    0  502 -0.15357454491E+03  0.85790728743E+02 -0.60459594412E+03  0.62968526712E+03  0.47000000000E+01 0. -1.
        -11    1    1    2    0    0  0.19523131467E+03 -0.83972775785E+02 -0.16330999072E+03  0.26802396603E+03  0.00000000000E+00 0. -1.
         11    1    1    2    0    0  0.89896837179E+02  0.14497061761E+02 -0.12261607541E+03  0.15272952590E+03  0.00000000000E+00 0.  1.
<mgrwt>
<rscale>  0 0.31637405E+03</rscale>
<asrwt>0</asrwt>
<pdfrwt beam="2">  1        2 0.26991213E+00 0.31898311E+03</pdfrwt>
<pdfrwt beam="1">  1       -2 0.13164503E-01 0.31898311E+03</pdfrwt>
<totfact> 0.42325890E+02</totfact>
</mgrwt>
</event>
<event>
 6    1  0.4705246E-006  0.3872477E+03  0.7546771E-02  0.1048287E+00
         -2   -1    0    0    0  501 -0.00000000000E+00  0.00000000000E+00  0.78832478748E+02  0.78832478748E+02  0.00000000000E+00 0.  1.
          2   -1    0    0  501    0  0.00000000000E+00 -0.00000000000E+00 -0.47556799782E+03  0.47556799782E+03  0.00000000000E+00 0. -1.
          5    1    1    2  502    0 -0.14538668113E+03  0.80638259551E+02 -0.20649099367E+03  0.26514229466E+03  0.47000000000E+01 0.  1.
         -5    1    1    2    0  502  0.23093400492E+02  0.10791286639E+02 -0.69155409732E+02  0.73853352725E+02  0.47000000000E+01 0.  1.
        -11    1    1    2    0    0  0.52767881134E+02 -0.65542784114E+02 -0.14263703327E+02  0.85344941627E+02  0.00000000000E+00 0.  1.
         11    1    1    2    0    0  0.69525399505E+02 -0.25886762076E+02 -0.10682541235E+03  0.13005988755E+03  0.00000000000E+00 0. -1.
<mgrwt>
<rscale>  0 0.38724775E+03</rscale>
<asrwt>0</asrwt>
<pdfrwt beam="2">  1        2 0.73164307E-01 0.38724775E+03</pdfrwt>
<pdfrwt beam="1">  1       -2 0.12128074E-01 0.38724775E+03</pdfrwt>
<totfact> 0.32184627E+03</totfact>
</mgrwt>
</event>
<event>
 6    1  0.4705246E-006  0.2936659E+03  0.7546771E-02  0.1089908E+00
         -2   -1    0    0    0  501 -0.00000000000E+00  0.00000000000E+00  0.50332465080E+02  0.50332465080E+02  0.00000000000E+00 0.  1.
          2   -1    0    0  501    0  0.00000000000E+00 -0.00000000000E+00 -0.17738211124E+04  0.17738211124E+04  0.00000000000E+00 0. -1.
          5    1    1    2  502    0  0.12473892942E+03 -0.72949268237E+02 -0.28830968749E+03  0.32253056002E+03  0.47000000000E+01 0.  1.
         -5    1    1    2    0  502  0.13991283051E+03  0.48977207140E+02 -0.34713124817E+03  0.37748716590E+03  0.47000000000E+01 0.  1.
        -11    1    1    2    0    0 -0.14966047100E+03  0.14139193282E+02 -0.79676936378E+03  0.81082648725E+03  0.00000000000E+00 0. -1.
         11    1    1    2    0    0 -0.11499128893E+03  0.98328678149E+01 -0.29127834793E+03  0.31330936435E+03  0.00000000000E+00 0.  1.
<mgrwt>
<rscale>  0 0.29084613E+03</rscale>
<asrwt>0</asrwt>
<pdfrwt beam="2">  1        2 0.27289555E+00 0.29366585E+03</pdfrwt>
<pdfrwt beam="1">  1       -2 0.77434564E-02 0.29366585E+03</pdfrwt>
<totfact> 0.97077450E+02</totfact>
</mgrwt>
</event>
<event>
 6    1  0.4705246E-006  0.2386176E+03  0.7546771E-02  0.1120717E+00
          2   -1    0    0  501    0  0.00000000000E+00  0.00000000000E+00  0.37408318154E+03  0.37408318154E+03  0.00000000000E+00 0.  1.
         -2   -1    0    0    0  501 -0.00000000000E+00 -0.00000000000E+00 -0.38051938979E+02  0.38051938979E+02  0.00000000000E+00 0. -1.
          5    1    1    2  502    0 -0.13309966765E+02  0.17615192150E+01 -0.13547411317E+02  0.19643841748E+02  0.47000000000E+01 0.  1.
         -5    1    1    2    0  502 -0.24841502432E+02  0.35559071049E+02  0.24426885635E+03  0.24813486647E+03  0.47000000000E+01 0.  1.
        -11    1    1    2    0    0  0.36190577480E+02  0.76815038159E+00  0.99369382087E+02  0.10575737350E+03  0.00000000000E+00 0.  1.
         11    1    1    2    0    0  0.19608917165E+01 -0.38088740646E+02  0.59404154373E+01  0.38599038795E+02  0.00000000000E+00 0. -1.
<mgrwt>
<rscale>  0 0.23861761E+03</rscale>
<asrwt>0</asrwt>
<pdfrwt beam="1">  1        2 0.57551256E-01 0.23861761E+03</pdfrwt>
<pdfrwt beam="2">  1       -2 0.58541447E-02 0.23861761E+03</pdfrwt>
<totfact> 0.12991638E+04</totfact>
</mgrwt>
</event>
<event>
 6    1  0.4705246E-006  0.2007797E+03  0.7546771E-02  0.1153507E+00
         -1   -1    0    0    0  501 -0.00000000000E+00  0.00000000000E+00  0.34290691841E+02  0.34290691841E+02  0.00000000000E+00 0.  1.
          1   -1    0    0  501    0  0.00000000000E+00 -0.00000000000E+00 -0.10790877040E+04  0.10790877040E+04  0.00000000000E+00 0. -1.
          5    1    1    2  502    0  0.76886044401E+02 -0.67053474060E+02 -0.27847843289E+03  0.29661415980E+03  0.47000000000E+01 0.  1.
         -5    1    1    2    0  502  0.79803681832E+02  0.55319456013E+02 -0.34122391622E+03  0.35480236872E+03  0.47000000000E+01 0.  1.
        -11    1    1    2    0    0 -0.25834773297E+02 -0.76544374422E+01 -0.14530733814E+02  0.30613202201E+02  0.00000000000E+00 0.  1.
         11    1    1    2    0    0 -0.13085495294E+03  0.19388455489E+02 -0.41056392921E+03  0.43134866510E+03  0.00000000000E+00 0. -1.
<mgrwt>
<rscale>  0 0.19559773E+03</rscale>
<asrwt>0</asrwt>
<pdfrwt beam="2">  1        1 0.16601351E+00 0.20077971E+03</pdfrwt>
<pdfrwt beam="1">  1       -1 0.52754904E-02 0.20077971E+03</pdfrwt>
<totfact> 0.22607020E+03</totfact>
</mgrwt>
</event>
<event>
 6    1  0.4705246E-006  0.1410106E+03  0.7546771E-02  0.1222048E+00
          2   -1    0    0  501    0  0.00000000000E+00  0.00000000000E+00  0.95465443055E+03  0.95465443055E+03  0.00000000000E+00 0. -1.
         -2   -1    0    0    0  501 -0.00000000000E+00 -0.00000000000E+00 -0.17057487025E+02  0.17057487025E+02  0.00000000000E+00 0.  1.
          5    1    1    2  502    0 -0.45945309942E+02 -0.26817930183E+01  0.47107505299E+02  0.66025529721E+02  0.47000000000E+01 0. -1.
         -5    1    1    2    0  502 -0.16617309137E+02 -0.15898995826E+02  0.45227644499E+03  0.45288517940E+03  0.47000000000E+01 0. -1.
        -11    1    1    2    0    0 -0.17627590031E+02  0.28188353006E+02  0.12746552652E+03  0.13172993443E+03  0.00000000000E+00 0.  1.
         11    1    1    2    0    0  0.80190209110E+02 -0.96075641616E+01  0.31074746673E+03  0.32107127402E+03  0.00000000000E+00 0. -1.
<mgrwt>
<rscale>  0 0.13371333E+03</rscale>
<asrwt>0</asrwt>
<pdfrwt beam="1">  1        2 0.14686987E+00 0.14101062E+03</pdfrwt>
<pdfrwt beam="2">  1       -2 0.26242295E-02 0.14101062E+03</pdfrwt>
<totfact> 0.13918154E+04</totfact>
</mgrwt>
</event>
<event>
 6    1  0.4705246E-006  0.2287322E+03  0.7546771E-02  0.1130440E+00
         -2   -1    0    0    0  501 -0.00000000000E+00  0.00000000000E+00  0.12396984872E+03  0.12396984872E+03  0.00000000000E+00 0. -1.
          2   -1    0    0  501    0  0.00000000000E+00 -0.00000000000E+00 -0.80136814637E+03  0.80136814637E+03  0.00000000000E+00 0.  1.
          5    1    1    2  502    0 -0.51571769675E+02  0.10358694047E+03 -0.32575592546E+03  0.34572953972E+03  0.47000000000E+01 0. -1.
         -5    1    1    2    0  502  0.71557787361E+02  0.86922812955E+02 -0.34888886889E+03  0.36663554817E+03  0.47000000000E+01 0. -1.
        -11    1    1    2    0    0  0.18081789930E+02 -0.12299933940E+03 -0.34807871544E+02  0.12910219417E+03  0.00000000000E+00 0.  1.
         11    1    1    2    0    0 -0.38067807615E+02 -0.67510414032E+02  0.32054368246E+02  0.83870713024E+02  0.00000000000E+00 0. -1.
<mgrwt>
<rscale>  0 0.22468159E+03</rscale>
<asrwt>0</asrwt>
<pdfrwt beam="2">  1        2 0.12328740E+00 0.22873220E+03</pdfrwt>
<pdfrwt beam="1">  1       -2 0.19072285E-01 0.22873220E+03</pdfrwt>
<totfact> 0.81090771E+02</totfact>
</mgrwt>
</event>
<event>
 6    1  0.4705246E-006  0.1264894E+03  0.7546771E-02  0.1248469E+00
          3   -1    0    0  501    0  0.00000000000E+00  0.00000000000E+00  0.29527519404E+03  0.29527519404E+03  0.00000000000E+00 0. -1.
         -3   -1    0    0    0  501 -0.00000000000E+00 -0.00000000000E+00 -0.46926010180E+02  0.46926010180E+02  0.00000000000E+00 0.  1.
          5    1    1    2  502    0  0.24047178464E+02  0.39914472349E+02  0.32400148126E+02  0.56949903367E+02  0.47000000000E+01 0. -1.
         -5    1    1    2    0  502 -0.41584327383E+02 -0.48126400134E+02  0.17176250800E+03  0.18322078438E+03  0.47000000000E+01 0. -1.
        -11    1    1    2    0    0  0.51842394078E+02 -0.34942311888E+01  0.11490391984E+02  0.53215341616E+02  0.00000000000E+00 0. -1.
         11    1    1    2    0    0 -0.34305245159E+02  0.11706158974E+02  0.32696135750E+02  0.48815174857E+02  0.00000000000E+00 0.  1.
<mgrwt>
<rscale>  0 0.11680129E+03</rscale>
<asrwt>0</asrwt>
<pdfrwt beam="1">  1        3 0.45426952E-01 0.12648940E+03</pdfrwt>
<pdfrwt beam="2">  1       -3 0.72193863E-02 0.12648940E+03</pdfrwt>
<totfact> 0.13879854E+03</totfact>
</mgrwt>
</event>
<event>
 6    1  0.4705246E-006  0.1271477E+03  0.7546771E-02  0.1249900E+00
          2   -1    0    0  501    0  0.00000000000E+00  0.00000000000E+00  0.17637804818E+03  0.17637804818E+03  0.00000000000E+00 0. -1.
         -2   -1    0    0    0  501 -0.00000000000E+00 -0.00000000000E+00 -0.70595702315E+02  0.70595702315E+02  0.00000000000E+00 0.  1.
          5    1    1    2  502    0  0.32544482152E+02  0.24786891203E+01  0.11227348381E+03  0.11701586382E+03  0.47000000000E+01 0.  1.
         -5    1    1    2    0  502 -0.30318539217E+02  0.20702700099E+02 -0.18108038276E+02  0.41204449539E+02  0.47000000000E+01 0.  1.
        -11    1    1    2    0    0  0.18967138717E+02 -0.75772306787E+01  0.43114611865E+02  0.47707824643E+02  0.00000000000E+00 0. -1.
         11    1    1    2    0    0 -0.21193081651E+02 -0.15604158540E+02 -0.31497711531E+02  0.41045612498E+02  0.00000000000E+00 0.  1.
<mgrwt>
<rscale>  0 0.11596837E+03</rscale>
<asrwt>0</asrwt>
<pdfrwt beam="1">  1        2 0.27135084E-01 0.12714770E+03</pdfrwt>
<pdfrwt beam="2">  1       -2 0.10860877E-01 0.12714770E+03</pdfrwt>
<totfact> 0.10668568E+04</totfact>
</mgrwt>
</event>
<event>
 6    1  0.4705246E-006  0.1299150E+03  0.7546771E-02  0.1241010E+00
          2   -1    0    0  501    0  0.00000000000E+00  0.00000000000E+00  0.65929902800E+02  0.65929902800E+02  0.00000000000E+00 0. -1.
         -2   -1    0    0    0  501 -0.00000000000E+00 -0.00000000000E+00 -0.20248005204E+03  0.20248005204E+03  0.00000000000E+00 0.  1.
          5    1    1    2  502    0  0.10610216691E+02  0.74577384366E+02 -0.66882939643E+02  0.10084532995E+03  0.47000000000E+01 0.  1.
         -5    1    1    2    0  502 -0.31961426672E+01 -0.39965770461E+02  0.90352610687E+01  0.41366702540E+02  0.47000000000E+01 0.  1.
        -11    1    1    2    0    0 -0.20852987997E+02 -0.58738007967E+02 -0.27719567176E+02  0.68215651377E+02  0.00000000000E+00 0. -1.
         11    1    1    2    0    0  0.13438913974E+02  0.24126394062E+02 -0.50982903492E+02  0.57982270978E+02  0.00000000000E+00 0.  1.
<mgrwt>
<rscale>  0 0.12127432E+03</rscale>
<asrwt>0</asrwt>
<pdfrwt beam="1">  1        2 0.10143062E-01 0.12991500E+03</pdfrwt>
<pdfrwt beam="2">  1       -2 0.31150777E-01 0.12991500E+03</pdfrwt>
<totfact> 0.56804571E+03</totfact>
</mgrwt>
</event>
<event>
 6    1  0.4705246E-006  0.1138244E+03  0.7546771E-02  0.1263802E+00
         -1   -1    0    0    0  501 -0.00000000000E+00  0.00000000000E+00  0.33817412360E+02  0.33817412360E+02  0.00000000000E+00 0.  1.
          1   -1    0    0  501    0  0.00000000000E+00 -0.00000000000E+00 -0.36482525752E+03  0.36482525752E+03  0.00000000000E+00 0. -1.
          5    1    1    2  502    0 -0.41961934449E+02 -0.32137308902E+02 -0.19670263884E+03  0.20373421090E+03  0.47000000000E+01 0. -1.
         -5    1    1    2    0  502  0.44796406728E+02  0.14367144961E+02 -0.55121895646E+02  0.72619875308E+02  0.47000000000E+01 0.  1.
        -11    1    1    2    0    0 -0.28306850399E+02  0.41701352405E+02 -0.21397306822E+02  0.54755139587E+02  0.00000000000E+00 0.  1.
         11    1    1    2    0    0  0.25472378121E+02 -0.23931188464E+02 -0.57786003857E+02  0.67533444086E+02  0.00000000000E+00 0. -1.
<mgrwt>
<rscale>  0 0.10827284E+03</rscale>
<asrwt>0</asrwt>
<pdfrwt beam="2">  1        1 0.56126962E-01 0.11382436E+03</pdfrwt>
<pdfrwt beam="1">  1       -1 0.52026789E-02 0.11382436E+03</pdfrwt>
<totfact> 0.10564415E+04</totfact>
</mgrwt>
</event>
<event>
 6    1  0.4705246E-006  0.1414986E+03  0.7546771E-02  0.1221836E+00
          2   -1    0    0  501    0  0.00000000000E+00  0.00000000000E+00  0.19165835399E+03  0.19165835399E+03  0.00000000000E+00 0. -1.
         -2   -1    0    0    0  501 -0.00000000000E+00 -0.00000000000E+00 -0.10486179177E+03  0.10486179177E+03  0.00000000000E+00 0.  1.
          5    1    1    2  502    0 -0.21822085052E+02 -0.68348228364E+01 -0.18564030402E+02  0.29826689793E+02  0.47000000000E+01 0. -1.
         -5    1    1    2    0  502  0.55826321163E+02 -0.50087672021E+02  0.13051023061E+03  0.15060001101E+03  0.47000000000E+01 0. -1.
        -11    1    1    2    0    0 -0.79956276601E+01  0.57296116547E+02  0.22284965567E+02  0.61995118545E+02  0.00000000000E+00 0. -1.
         11    1    1    2    0    0 -0.26008608450E+02 -0.37362168937E+00 -0.47434603552E+02  0.54098326414E+02  0.00000000000E+00 0.  1.
<mgrwt>
<rscale>  0 0.13386177E+03</rscale>
<asrwt>0</asrwt>
<pdfrwt beam="1">  1        2 0.29485901E-01 0.14149856E+03</pdfrwt>
<pdfrwt beam="2">  1       -2 0.16132583E-01 0.14149856E+03</pdfrwt>
<totfact> 0.51883729E+03</totfact>
</mgrwt>
</event>
<event>
 6    1  0.4705246E-006  0.2483347E+03  0.7546771E-02  0.1116780E+00
          1   -1    0    0  501    0  0.00000000000E+00  0.00000000000E+00  0.19660191287E+03  0.19660191287E+03  0.00000000000E+00 0. -1.
         -1   -1    0    0    0  501 -0.00000000000E+00 -0.00000000000E+00 -0.30588134424E+03  0.30588134424E+03  0.00000000000E+00 0.  1.
          5    1    1    2  502    0 -0.13596899538E+03 -0.13938446234E+02  0.40524905999E+00  0.13676294167E+03  0.47000000000E+01 0. -1.
         -5    1    1    2    0  502 -0.78329495397E+02  0.24998933115E+02 -0.10313220188E+03  0.13198029236E+03  0.47000000000E+01 0. -1.
        -11    1    1    2    0    0  0.93456789308E+02  0.40230643516E+02  0.56015653818E+01  0.10190217701E+03  0.00000000000E+00 0.  1.
         11    1    1    2    0    0  0.12084170147E+03 -0.51291130397E+02 -0.12154043931E+02  0.13183784607E+03  0.00000000000E+00 0. -1.
<mgrwt>
<rscale>  0 0.24457867E+03</rscale>
<asrwt>0</asrwt>
<pdfrwt beam="1">  1        1 0.30246448E-01 0.24833465E+03</pdfrwt>
<pdfrwt beam="2">  1       -1 0.47058668E-01 0.24833465E+03</pdfrwt>
<totfact> 0.69061741E+02</totfact>
</mgrwt>
</event>
<event>
 6    1  0.4705246E-006  0.1353752E+03  0.7546771E-02  0.1232940E+00
         -1   -1    0    0    0  501 -0.00000000000E+00  0.00000000000E+00  0.35495437234E+02  0.35495437234E+02  0.00000000000E+00 0.  1.
          1   -1    0    0  501    0  0.00000000000E+00 -0.00000000000E+00 -0.54173699193E+03  0.54173699193E+03  0.00000000000E+00 0. -1.
          5    1    1    2  502    0  0.88778493481E+02 -0.41077985409E+01 -0.33521328704E+03  0.34682637259E+03  0.47000000000E+01 0.  1.
         -5    1    1    2    0  502 -0.39836173466E+02 -0.13315924579E+02 -0.90282507863E+02  0.99685785295E+02  0.47000000000E+01 0.  1.
        -11    1    1    2    0    0 -0.63895211248E+02 -0.10820499179E+02 -0.31603354431E+02  0.72100299820E+02  0.00000000000E+00 0.  1.
         11    1    1    2    0    0  0.14952891233E+02  0.28244222299E+02 -0.49142405363E+02  0.58619971463E+02  0.00000000000E+00 0. -1.
<mgrwt>
<rscale>  0 0.12637259E+03</rscale>
<asrwt>0</asrwt>
<pdfrwt beam="2">  1        1 0.83344151E-01 0.13537517E+03</pdfrwt>
<pdfrwt beam="1">  1       -1 0.54608366E-02 0.13537517E+03</pdfrwt>
<totfact> 0.60049287E+03</totfact>
</mgrwt>
</event>
<event>
 6    1  0.4705246E-006  0.3104749E+03  0.7546771E-02  0.1080118E+00
         -3   -1    0    0    0  501 -0.00000000000E+00  0.00000000000E+00  0.18923027260E+03  0.18923027260E+03  0.00000000000E+00 0.  1.
          3   -1    0    0  501    0  0.00000000000E+00 -0.00000000000E+00 -0.12735102731E+03  0.12735102731E+03  0.00000000000E+00 0. -1.
          5    1    1    2  502    0  0.16468807026E+02  0.80292505847E+01 -0.64735475829E+02  0.67442288667E+02  0.47000000000E+01 0. -1.
         -5    1    1    2    0  502 -0.41601409544E+02  0.76412811893E+02  0.49066863890E+02  0.99996211075E+02  0.47000000000E+01 0.  1.
        -11    1    1    2    0    0 -0.26313606987E+02 -0.50502226108E+02  0.10204430814E+02  0.57853359131E+02  0.00000000000E+00 0.  1.
         11    1    1    2    0    0  0.51446209505E+02 -0.33939836370E+02  0.67343426415E+02  0.91289441046E+02  0.00000000000E+00 0. -1.
<mgrwt>
<rscale>  0 0.31047492E+03</rscale>
<asrwt>0</asrwt>
<pdfrwt beam="2">  1        3 0.19592466E-01 0.31047492E+03</pdfrwt>
<pdfrwt beam="1">  1       -3 0.29112350E-01 0.31047492E+03</pdfrwt>
<totfact> 0.67924452E+02</totfact>
</mgrwt>
</event>
<event>
 6    1  0.4705246E-006  0.1638849E+03  0.7546771E-02  0.1202228E+00
         -1   -1    0    0    0  501 -0.00000000000E+00  0.00000000000E+00  0.21426218655E+02  0.21426218655E+02  0.00000000000E+00 0.  1.
          1   -1    0    0  501    0  0.00000000000E+00 -0.00000000000E+00 -0.90262577136E+03  0.90262577136E+03  0.00000000000E+00 0. -1.
          5    1    1    2  502    0  0.96649312454E+00 -0.64134790692E+02 -0.14277837017E+03  0.15659488649E+03  0.47000000000E+01 0. -1.
         -5    1    1    2    0  502 -0.63083233671E+02  0.59994929824E+02 -0.45298019729E+03  0.46129387067E+03  0.47000000000E+01 0.  1.
        -11    1    1    2    0    0  0.59341174906E+02 -0.34911000813E+02 -0.14755137602E+03  0.16282371320E+03  0.00000000000E+00 0. -1.
         11    1    1    2    0    0  0.27755656407E+01  0.39050861681E+02 -0.13788960923E+03  0.14333951966E+03  0.00000000000E+00 0.  1.
<mgrwt>
<rscale>  0 0.14858078E+03</rscale>
<asrwt>0</asrwt>
<pdfrwt beam="2">  1        1 0.13886551E+00 0.16388485E+03</pdfrwt>
<pdfrwt beam="1">  1       -1 0.32963412E-02 0.16388485E+03</pdfrwt>
<totfact> 0.61050798E+03</totfact>
</mgrwt>
</event>
<event>
 6    1  0.4705246E-006  0.1636287E+03  0.7546771E-02  0.1191811E+00
         -2   -1    0    0    0  501 -0.00000000000E+00  0.00000000000E+00  0.65069183262E+02  0.65069183262E+02  0.00000000000E+00 0.  1.
          2   -1    0    0  501    0  0.00000000000E+00 -0.00000000000E+00 -0.51055601739E+03  0.51055601739E+03  0.00000000000E+00 0. -1.
          5    1    1    2  502    0  0.53709561128E+02 -0.45281581314E+02 -0.22015567481E+03  0.23114010841E+03  0.47000000000E+01 0.  1.
         -5    1    1    2    0  502  0.47401501349E+02  0.75682837177E+02 -0.17412294578E+03  0.19574392563E+03  0.47000000000E+01 0.  1.
        -11    1    1    2    0    0 -0.10384404948E+03  0.55469543890E-01 -0.21377369744E+02  0.10602160925E+03  0.00000000000E+00 0.  1.
         11    1    1    2    0    0  0.27329870063E+01 -0.30456725407E+02 -0.29830843791E+02  0.42719557369E+02  0.00000000000E+00 0. -1.
<mgrwt>
<rscale>  0 0.15727276E+03</rscale>
<asrwt>0</asrwt>
<pdfrwt beam="2">  1        2 0.78547076E-01 0.16362869E+03</pdfrwt>
<pdfrwt beam="1">  1       -2 0.10010644E-01 0.16362869E+03</pdfrwt>
<totfact> 0.39346178E+03</totfact>
</mgrwt>
</event>
<event>
 6    1  0.4705246E-006  0.3403934E+03  0.7546771E-02  0.1066628E+00
          2   -1    0    0  501    0  0.00000000000E+00  0.00000000000E+00  0.97975776696E+03  0.97975776696E+03  0.00000000000E+00 0.  1.
         -2   -1    0    0    0  501 -0.00000000000E+00 -0.00000000000E+00 -0.29565385944E+02  0.29565385944E+02  0.00000000000E+00 0. -1.
          5    1    1    2  502    0 -0.22846376135E+02 -0.30304862811E+01  0.35251191160E+02  0.42377791682E+02  0.47000000000E+01 0.  1.
         -5    1    1    2    0  502  0.14928087417E+03  0.35702188080E+02  0.44911399128E+03  0.47464185739E+03  0.47000000000E+01 0.  1.
        -11    1    1    2    0    0 -0.80731807914E+02 -0.34149910774E+02  0.41404175973E+03  0.42321911584E+03  0.00000000000E+00 0.  1.
         11    1    1    2    0    0 -0.45702690126E+02  0.14782089753E+01  0.51785438846E+02  0.69084387983E+02  0.00000000000E+00 0. -1.
<mgrwt>
<rscale>  0 0.34039340E+03</rscale>
<asrwt>0</asrwt>
<pdfrwt beam="1">  1        2 0.15073194E+00 0.34039340E+03</pdfrwt>
<pdfrwt beam="2">  1       -2 0.45485217E-02 0.34039340E+03</pdfrwt>
<totfact> 0.61360703E+03</totfact>
</mgrwt>
</event>
<event>
 6    1  0.4705246E-006  0.2904633E+03  0.7546771E-02  0.1090107E+00
          2   -1    0    0  501    0  0.00000000000E+00  0.00000000000E+00  0.36083148892E+03  0.36083148892E+03  0.00000000000E+00 0. -1.
         -2   -1    0    0    0  501 -0.00000000000E+00 -0.00000000000E+00 -0.58454535233E+02  0.58454535233E+02  0.00000000000E+00 0.  1.
          5    1    1    2  502    0  0.11279880742E+03  0.32251419278E+02  0.78976245737E+02  0.14150287061E+03  0.47000000000E+01 0.  1.
         -5    1    1    2    0  502 -0.22998422483E+02 -0.17219637953E+02  0.58790995897E+02  0.65604226743E+02  0.47000000000E+01 0.  1.
        -11    1    1    2    0    0 -0.80740769327E+02  0.19252532280E+02  0.15436713716E+03  0.17526820837E+03  0.00000000000E+00 0. -1.
         11    1    1    2    0    0 -0.90596156081E+01 -0.34284313605E+02  0.10242574890E+02  0.36910718426E+02  0.00000000000E+00 0.  1.
<mgrwt>
<rscale>  0 0.29046333E+03</rscale>
<asrwt>0</asrwt>
<pdfrwt beam="1">  1        2 0.55512535E-01 0.29046333E+03</pdfrwt>
<pdfrwt beam="2">  1       -2 0.89930056E-02 0.29046333E+03</pdfrwt>
<totfact> 0.69970387E+03</totfact>
</mgrwt>
</event>
<event>
 6    1  0.4705246E-006  0.1283266E+03  0.7546771E-02  0.1244566E+00
         -2   -1    0    0    0  501 -0.00000000000E+00  0.00000000000E+00  0.22088503344E+02  0.22088503344E+02  0.00000000000E+00 0.  1.
          2   -1    0    0  501    0  0.00000000000E+00 -0.00000000000E+00 -0.57408564713E+03  0.57408564713E+03  0.00000000000E+00 0. -1.
          5    1    1    2  502    0  0.18929397069E+02  0.55687660801E+02 -0.72581219840E+02  0.93539088687E+02  0.47000000000E+01 0. -1.
         -5    1    1    2    0  502 -0.46869362115E+01 -0.30349412253E+02 -0.27909765283E+03  0.28082137385E+03  0.47000000000E+01 0. -1.
        -11    1    1    2    0    0 -0.23974724496E+01  0.30182598645E+02 -0.31439787736E+02  0.43648566850E+02  0.00000000000E+00 0.  1.
         11    1    1    2    0    0 -0.11844988408E+02 -0.55520847194E+02 -0.16887848338E+03  0.17816512109E+03  0.00000000000E+00 0. -1.
<mgrwt>
<rscale>  0 0.11911375E+03</rscale>
<asrwt>0</asrwt>
<pdfrwt beam="2">  1        2 0.88320877E-01 0.12832664E+03</pdfrwt>
<pdfrwt beam="1">  1       -2 0.33982310E-02 0.12832664E+03</pdfrwt>
<totfact> 0.17559720E+04</totfact>
</mgrwt>
</event>
<event>
 6    1  0.4705246E-006  0.1252086E+03  0.7546771E-02  0.1249864E+00
          1   -1    0    0  501    0  0.00000000000E+00  0.00000000000E+00  0.30252244377E+03  0.30252244377E+03  0.00000000000E+00 0. -1.
         -1   -1    0    0    0  501 -0.00000000000E+00 -0.00000000000E+00 -0.46158756441E+02  0.46158756441E+02  0.00000000000E+00 0.  1.
          5    1    1    2  502    0  0.41965916010E+02 -0.31687579798E+02  0.16713394936E+03  0.17527432170E+03  0.47000000000E+01 0. -1.
         -5    1    1    2    0  502 -0.39367051335E+02  0.38187611229E+02  0.45197052649E+02  0.71224447701E+02  0.47000000000E+01 0. -1.
        -11    1    1    2    0    0 -0.27278591654E+02 -0.18358192701E+02  0.61476410668E+02  0.69717242275E+02  0.00000000000E+00 0. -1.
         11    1    1    2    0    0  0.24679726979E+02  0.11858161271E+02 -0.17443725346E+02  0.32465188533E+02  0.00000000000E+00 0.  1.
<mgrwt>
<rscale>  0 0.11598934E+03</rscale>
<asrwt>0</asrwt>
<pdfrwt beam="1">  1        1 0.46541913E-01 0.12520858E+03</pdfrwt>
<pdfrwt beam="2">  1       -1 0.71013473E-02 0.12520858E+03</pdfrwt>
<totfact> 0.84530404E+03</totfact>
</mgrwt>
</event>
<event>
 6    1  0.8071367E-006  0.2285888E+03  0.7546771E-02  0.1130627E+00
         -1   -1    0    0    0  501 -0.00000000000E+00  0.00000000000E+00  0.12422850714E+03  0.12422850714E+03  0.00000000000E+00 0.  1.
          1   -1    0    0  501    0  0.00000000000E+00 -0.00000000000E+00 -0.44589568164E+03  0.44589568164E+03  0.00000000000E+00 0. -1.
          5    1    1    2  502    0  0.12721075516E+03 -0.29090032364E+02 -0.25214481288E+03  0.28395052892E+03  0.47000000000E+01 0. -1.
         -5    1    1    2    0  502  0.51327817218E+02 -0.39846962256E+02 -0.13548413299E+02  0.66543029119E+02  0.47000000000E+01 0. -1.
        -11    1    1    2    0    0 -0.13217045690E+03  0.78604904891E+01 -0.53798501856E+02  0.14291639441E+03  0.00000000000E+00 0. -1.
         11    1    1    2    0    0 -0.46368115474E+02  0.61076504131E+02 -0.21754464656E+01  0.76714236337E+02  0.00000000000E+00 0.  1.
<mgrwt>
<rscale>  0 0.22442371E+03</rscale>
<asrwt>0</asrwt>
<pdfrwt beam="2">  1        1 0.68599337E-01 0.22858881E+03</pdfrwt>
<pdfrwt beam="1">  1       -1 0.19112078E-01 0.22858881E+03</pdfrwt>
<totfact> 0.11416533E+03</totfact>
</mgrwt>
</event>
<event>
 6    1  0.4705246E-006  0.1432885E+03  0.7546771E-02  0.1219682E+00
          1   -1    0    0  501    0  0.00000000000E+00  0.00000000000E+00  0.15878411091E+03  0.15878411091E+03  0.00000000000E+00 0. -1.
         -1   -1    0    0    0  501 -0.00000000000E+00 -0.00000000000E+00 -0.11265906443E+03  0.11265906443E+03  0.00000000000E+00 0.  1.
          5    1    1    2  502    0  0.52952003643E+02 -0.37599791805E+02 -0.96901709265E+01  0.65830452271E+02  0.47000000000E+01 0.  1.
         -5    1    1    2    0  502  0.15544153467E+02  0.52398305597E+02  0.71755289899E+02  0.90322282771E+02  0.47000000000E+01 0.  1.
        -11    1    1    2    0    0 -0.66580058017E+02  0.26810770230E+02 -0.16439420218E+02  0.73634068630E+02  0.00000000000E+00 0.  1.
         11    1    1    2    0    0 -0.19160990931E+01 -0.41609284022E+02  0.49934772468E+00  0.41656371670E+02  0.00000000000E+00 0. -1.
<mgrwt>
<rscale>  0 0.13538142E+03</rscale>
<asrwt>0</asrwt>
<pdfrwt beam="1">  1        1 0.24428325E-01 0.14328851E+03</pdfrwt>
<pdfrwt beam="2">  1       -1 0.17332164E-01 0.14328851E+03</pdfrwt>
<totfact> 0.48158402E+03</totfact>
</mgrwt>
</event>
<event>
 6    1  0.4705246E-006  0.2292585E+03  0.7546771E-02  0.1130169E+00
          2   -1    0    0  501    0  0.00000000000E+00  0.00000000000E+00  0.81822232432E+03  0.81822232432E+03  0.00000000000E+00 0. -1.
         -2   -1    0    0    0  501 -0.00000000000E+00 -0.00000000000E+00 -0.96571311114E+02  0.96571311114E+02  0.00000000000E+00 0.  1.
          5    1    1    2  502    0  0.11911991572E+03  0.77762977149E+01  0.44485305327E+03  0.46061519095E+03  0.47000000000E+01 0.  1.
         -5    1    1    2    0  502  0.46578741090E+02  0.89583324966E+02  0.20660036250E+03  0.23000119787E+03  0.47000000000E+01 0.  1.
        -11    1    1    2    0    0 -0.95886241251E+02 -0.10546900709E+02  0.85159491760E+01  0.96839711721E+02  0.00000000000E+00 0.  1.
         11    1    1    2    0    0 -0.69812415561E+02 -0.86812721972E+02  0.61681648255E+02  0.12733753490E+03  0.00000000000E+00 0. -1.
<mgrwt>
<rscale>  0 0.22505545E+03</rscale>
<asrwt>0</asrwt>
<pdfrwt beam="1">  1        2 0.12588035E+00 0.22925846E+03</pdfrwt>
<pdfrwt beam="2">  1       -2 0.14857125E-01 0.22925846E+03</pdfrwt>
<totfact> 0.11998777E+03</totfact>
</mgrwt>
</event>
<event>
 6    1  0.4705246E-006  0.1506356E+03  0.7546771E-02  0.1209363E+00
          2   -1    0    0  501    0  0.00000000000E+00  0.00000000000E+00  0.13501433573E+04  0.13501433573E+04  0.00000000000E+00 0. -1.
         -2   -1    0    0    0  501 -0.00000000000E+00 -0.00000000000E+00 -0.16709983522E+02  0.16709983522E+02  0.00000000000E+00 0.  1.
          5    1    1    2  502    0  0.72694650873E+02  0.31024780098E+02  0.83115346416E+03  0.83491629535E+03  0.47000000000E+01 0. -1.
         -5    1    1    2    0  502 -0.32812809792E+02  0.39820255338E+02  0.17694722422E+03  0.18437663459E+03  0.47000000000E+01 0.  1.
        -11    1    1    2    0    0 -0.10837617996E+02 -0.82103985364E+02  0.16956104764E+03  0.18870470914E+03  0.00000000000E+00 0.  1.
         11    1    1    2    0    0 -0.29044223085E+02  0.11258949928E+02  0.15577163771E+03  0.15885570170E+03  0.00000000000E+00 0. -1.
<mgrwt>
<rscale>  0 0.14298840E+03</rscale>
<asrwt>0</asrwt>
<pdfrwt beam="1">  1        2 0.20771428E+00 0.15063558E+03</pdfrwt>
<pdfrwt beam="2">  1       -2 0.25707678E-02 0.15063558E+03</pdfrwt>
<totfact> 0.85884255E+03</totfact>
</mgrwt>
</event>
<event>
 6    1  0.4705246E-006  0.1394440E+03  0.7546771E-02  0.1226010E+00
          1   -1    0    0  501    0  0.00000000000E+00  0.00000000000E+00  0.30559517288E+02  0.30559517288E+02  0.00000000000E+00 0. -1.
         -1   -1    0    0    0  501 -0.00000000000E+00 -0.00000000000E+00 -0.52338195658E+03  0.52338195658E+03  0.00000000000E+00 0.  1.
          5    1    1    2  502    0 -0.62008543832E+02 -0.52602930668E+02 -0.20410949181E+03  0.21976101217E+03  0.47000000000E+01 0.  1.
         -5    1    1    2    0  502  0.56824399165E+02 -0.89663060608E+01 -0.12592427075E+03  0.13852226879E+03  0.47000000000E+01 0.  1.
        -11    1    1    2    0    0 -0.21981641710E+02  0.75051072385E+02 -0.11868371533E+03  0.14213261527E+03  0.00000000000E+00 0.  1.
         11    1    1    2    0    0  0.27165786376E+02 -0.13481835656E+02 -0.44104961392E+02  0.53525577638E+02  0.00000000000E+00 0. -1.
<mgrwt>
<rscale>  0 0.13097913E+03</rscale>
<asrwt>0</asrwt>
<pdfrwt beam="1">  1        1 0.47014640E-02 0.13944399E+03</pdfrwt>
<pdfrwt beam="2">  1       -1 0.80520305E-01 0.13944399E+03</pdfrwt>
<totfact> 0.28207919E+03</totfact>
</mgrwt>
</event>
<event>
 6    1  0.4705246E-006  0.1251137E+03  0.7546771E-02  0.1243371E+00
         -2   -1    0    0    0  501 -0.00000000000E+00  0.00000000000E+00  0.20618994314E+03  0.20618994314E+03  0.00000000000E+00 0.  1.
          2   -1    0    0  501    0  0.00000000000E+00 -0.00000000000E+00 -0.64977115835E+02  0.64977115835E+02  0.00000000000E+00 0. -1.
          5    1    1    2  502    0 -0.60857114024E+02 -0.75282253281E+01  0.32179647494E+02  0.69410966113E+02  0.47000000000E+01 0. -1.
         -5    1    1    2    0  502  0.63371220618E+02  0.26774873856E+01  0.31365948975E+02  0.70915395341E+02  0.47000000000E+01 0. -1.
        -11    1    1    2    0    0  0.58109305841E+01 -0.49009749765E+02  0.47738761292E+02  0.68663759116E+02  0.00000000000E+00 0.  1.
         11    1    1    2    0    0 -0.83250371779E+01  0.53860487707E+02  0.29928469541E+02  0.62176938403E+02  0.00000000000E+00 0. -1.
<mgrwt>
<rscale>  0 0.11983424E+03</rscale>
<asrwt>0</asrwt>
<pdfrwt beam="2">  1        2 0.99964795E-02 0.12511373E+03</pdfrwt>
<pdfrwt beam="1">  1       -2 0.31721529E-01 0.12511373E+03</pdfrwt>
<totfact> 0.55797053E+03</totfact>
</mgrwt>
</event>
<event>
 6    1  0.4705246E-006  0.1670980E+03  0.7546771E-02  0.1188300E+00
          2   -1    0    0  501    0  0.00000000000E+00  0.00000000000E+00  0.15892085440E+03  0.15892085440E+03  0.00000000000E+00 0. -1.
         -2   -1    0    0    0  501 -0.00000000000E+00 -0.00000000000E+00 -0.15129203888E+03  0.15129203888E+03  0.00000000000E+00 0.  1.
          5    1    1    2  502    0  0.23197667916E+02 -0.17070405935E+02  0.14118963903E+02  0.32418601098E+02  0.47000000000E+01 0.  1.
         -5    1    1    2    0  502 -0.13270849636E+03 -0.55997708432E+00 -0.24227653871E+02  0.13498491691E+03  0.47000000000E+01 0.  1.
        -11    1    1    2    0    0  0.21916623928E+02 -0.23507391195E+02  0.31571719878E+02  0.45052295627E+02  0.00000000000E+00 0. -1.
         11    1    1    2    0    0  0.87594204518E+02  0.41137774214E+02 -0.13834214389E+02  0.97757079642E+02  0.00000000000E+00 0.  1.
<mgrwt>
<rscale>  0 0.16035174E+03</rscale>
<asrwt>0</asrwt>
<pdfrwt beam="1">  1        2 0.24449362E-01 0.16709803E+03</pdfrwt>
<pdfrwt beam="2">  1       -2 0.23275698E-01 0.16709803E+03</pdfrwt>
<totfact> 0.34617982E+03</totfact>
</mgrwt>
</event>
<event>
 6    1  0.4705246E-006  0.1363419E+03  0.7546771E-02  0.1229840E+00
          1   -1    0    0  501    0  0.00000000000E+00  0.00000000000E+00  0.29532219067E+03  0.29532219067E+03  0.00000000000E+00 0. -1.
         -1   -1    0    0    0  501 -0.00000000000E+00 -0.00000000000E+00 -0.66291117366E+02  0.66291117366E+02  0.00000000000E+00 0.  1.
          5    1    1    2  502    0 -0.42912964108E+02  0.30397343334E+02  0.17882234651E+02  0.55743926005E+02  0.47000000000E+01 0.  1.
         -5    1    1    2    0  502  0.19912354677E+02  0.18951318996E+02  0.19548931297E+03  0.19746851862E+03  0.47000000000E+01 0.  1.
        -11    1    1    2    0    0 -0.27098212321E+02  0.98861855199E+01  0.10325645296E+02  0.30637701054E+02  0.00000000000E+00 0.  1.
         11    1    1    2    0    0  0.50098821753E+02 -0.59234847849E+02  0.53338803936E+01  0.77763162364E+02  0.00000000000E+00 0. -1.
<mgrwt>
<rscale>  0 0.12840603E+03</rscale>
<asrwt>0</asrwt>
<pdfrwt beam="1">  1        1 0.45434182E-01 0.13634194E+03</pdfrwt>
<pdfrwt beam="2">  1       -1 0.10198634E-01 0.13634194E+03</pdfrwt>
<totfact> 0.50663605E+03</totfact>
</mgrwt>
</event>
<event>
 6    1  0.4705246E-006  0.1476936E+03  0.7546771E-02  0.1211591E+00
         -2   -1    0    0    0  501 -0.00000000000E+00  0.00000000000E+00  0.53544087415E+02  0.53544087415E+02  0.00000000000E+00 0.  1.
          2   -1    0    0  501    0  0.00000000000E+00 -0.00000000000E+00 -0.34754024608E+03  0.34754024608E+03  0.00000000000E+00 0. -1.
          5    1    1    2  502    0 -0.81891526635E+02 -0.11190715337E+02 -0.51140342466E+02  0.97308164467E+02  0.47000000000E+01 0. -1.
         -5    1    1    2    0  502  0.19567503508E+02 -0.36807084920E+02 -0.12893664819E+03  0.13558907751E+03  0.47000000000E+01 0. -1.
        -11    1    1    2    0    0 -0.17576574365E+02  0.21874986676E+02 -0.18884854142E+01  0.28125031301E+02  0.00000000000E+00 0.  1.
         11    1    1    2    0    0  0.79900597492E+02  0.26122813581E+02 -0.11203068259E+03  0.14006206021E+03  0.00000000000E+00 0. -1.
<mgrwt>
<rscale>  0 0.14129955E+03</rscale>
<asrwt>0</asrwt>
<pdfrwt beam="2">  1        2 0.53467731E-01 0.14769361E+03</pdfrwt>
<pdfrwt beam="1">  1       -2 0.82375519E-02 0.14769361E+03</pdfrwt>
<totfact> 0.80472641E+03</totfact>
</mgrwt>
</event>
<event>
 6    1  0.4705246E-006  0.2486956E+03  0.7546771E-02  0.1114132E+00
          3   -1    0    0  501    0  0.00000000000E+00  0.00000000000E+00  0.72457187713E+02  0.72457187713E+02  0.00000000000E+00 0. -1.
         -3   -1    0    0    0  501 -0.00000000000E+00 -0.00000000000E+00 -0.21340015953E+03  0.21340015953E+03  0.00000000000E+00 0.  1.
          5    1    1    2  502    0 -0.33037297764E+02  0.56164254073E+02  0.27833107839E+02  0.71011677710E+02  0.47000000000E+01 0.  1.
         -5    1    1    2    0  502 -0.42884634727E+01 -0.22509269011E+02 -0.64535048698E+02  0.68643431010E+02  0.47000000000E+01 0.  1.
        -11    1    1    2    0    0  0.55818650826E+02  0.83945760708E+01 -0.61120828536E+02  0.83198235368E+02  0.00000000000E+00 0. -1.
         11    1    1    2    0    0 -0.18492889589E+02 -0.42049561134E+02 -0.43120202425E+02  0.63004003159E+02  0.00000000000E+00 0.  1.
<mgrwt>
<rscale>  0 0.24869560E+03</rscale>
<asrwt>0</asrwt>
<pdfrwt beam="1">  1        3 0.11147260E-01 0.24869560E+03</pdfrwt>
<pdfrwt beam="2">  1       -3 0.32830794E-01 0.24869560E+03</pdfrwt>
<totfact> 0.14027054E+03</totfact>
</mgrwt>
</event>
<event>
 6    1  0.4705246E-006  0.2639551E+03  0.7546771E-02  0.1107116E+00
         -1   -1    0    0    0  501 -0.00000000000E+00  0.00000000000E+00  0.44832427415E+03  0.44832427415E+03  0.00000000000E+00 0.  1.
          1   -1    0    0  501    0  0.00000000000E+00 -0.00000000000E+00 -0.22235348808E+03  0.22235348808E+03  0.00000000000E+00 0. -1.
          5    1    1    2  502    0 -0.56752090003E+02 -0.34147480057E+02 -0.66663075713E+01  0.66733647964E+02  0.47000000000E+01 0. -1.
         -5    1    1    2    0  502  0.17180535872E+02 -0.19494730722E+03 -0.73892139616E+02  0.20924091785E+03  0.47000000000E+01 0. -1.
        -11    1    1    2    0    0  0.22871175550E+02  0.85587553895E+02  0.18800072122E+03  0.20782827342E+03  0.00000000000E+00 0.  1.
         11    1    1    2    0    0  0.16700378582E+02  0.14350723339E+03  0.11852851204E+03  0.18687492300E+03  0.00000000000E+00 0. -1.
<mgrwt>
<rscale>  0 0.26004460E+03</rscale>
<asrwt>0</asrwt>
<pdfrwt beam="2">  1        1 0.34208229E-01 0.26395511E+03</pdfrwt>
<pdfrwt beam="1">  1       -1 0.68972965E-01 0.26395511E+03</pdfrwt>
<totfact> 0.28491712E+02</totfact>
</mgrwt>
</event>
<event>
 6    1  0.4705246E-006  0.2408904E+03  0.7546771E-02  0.1119201E+00
          1   -1    0    0  501    0  0.00000000000E+00  0.00000000000E+00  0.98411433283E+03  0.98411433283E+03  0.00000000000E+00 0. -1.
         -1   -1    0    0    0  501 -0.00000000000E+00 -0.00000000000E+00 -0.14741215992E+02  0.14741215992E+02  0.00000000000E+00 0.  1.
          5    1    1    2  502    0 -0.42586093679E+02 -0.27437118313E+02  0.61207017494E+03  0.61418104813E+03  0.47000000000E+01 0. -1.
         -5    1    1    2    0  502  0.20370171218E+01  0.47416037212E+01 -0.41998700982E+01  0.81462355383E+01  0.47000000000E+01 0. -1.
        -11    1    1    2    0    0 -0.13049020384E+02 -0.12241078562E+02  0.12786148684E+02  0.21991055807E+02  0.00000000000E+00 0.  1.
         11    1    1    2    0    0  0.53598096941E+02  0.34936593153E+02  0.34871666331E+03  0.35453720934E+03  0.00000000000E+00 0. -1.
<mgrwt>
<rscale>  0 0.24089036E+03</rscale>
<asrwt>0</asrwt>
<pdfrwt beam="1">  1        1 0.15140215E+00 0.24089036E+03</pdfrwt>
<pdfrwt beam="2">  1       -1 0.22678802E-02 0.24089036E+03</pdfrwt>
<totfact> 0.93116148E+03</totfact>
</mgrwt>
</event>
<event>
 6    1  0.4705246E-006  0.2725444E+03  0.7546771E-02  0.1099832E+00
          1   -1    0    0  501    0  0.00000000000E+00  0.00000000000E+00  0.10290123504E+04  0.10290123504E+04  0.00000000000E+00 0. -1.
         -1   -1    0    0    0  501 -0.00000000000E+00 -0.00000000000E+00 -0.18046533386E+02  0.18046533386E+02  0.00000000000E+00 0.  1.
          5    1    1    2  502    0  0.74378734304E+02  0.10347530075E+02  0.32909577908E+03  0.33758760242E+03  0.47000000000E+01 0. -1.
         -5    1    1    2    0  502 -0.34267383748E+02 -0.86756944680E+01  0.45012568547E+03  0.45153598304E+03  0.47000000000E+01 0.  1.
        -11    1    1    2    0    0 -0.59739222669E+02  0.36561475607E+02  0.13549815481E+03  0.15252955838E+03  0.00000000000E+00 0.  1.
         11    1    1    2    0    0  0.19627872113E+02 -0.38233311214E+02  0.96246197636E+02  0.10540573993E+03  0.00000000000E+00 0. -1.
<mgrwt>
<rscale>  0 0.27254435E+03</rscale>
<asrwt>0</asrwt>
<pdfrwt beam="1">  1        1 0.15830955E+00 0.27254435E+03</pdfrwt>
<pdfrwt beam="2">  1       -1 0.27763906E-02 0.27254435E+03</pdfrwt>
<totfact> 0.64289794E+03</totfact>
</mgrwt>
</event>
<event>
 6    1  0.4705246E-006  0.1356485E+03  0.7546771E-02  0.1231179E+00
         -2   -1    0    0    0  501 -0.00000000000E+00  0.00000000000E+00  0.16517478523E+03  0.16517478523E+03  0.00000000000E+00 0.  1.
          2   -1    0    0  501    0  0.00000000000E+00 -0.00000000000E+00 -0.99420338766E+02  0.99420338766E+02  0.00000000000E+00 0. -1.
          5    1    1    2  502    0 -0.81200065797E-01 -0.51102819688E+02 -0.97035398985E+01  0.52227899250E+02  0.47000000000E+01 0. -1.
         -5    1    1    2    0  502 -0.50191187902E+02  0.66678057236E+02  0.23156239578E+01  0.83621592751E+02  0.47000000000E+01 0. -1.
        -11    1    1    2    0    0  0.39576982016E+02  0.12136437614E+02 -0.81550174133E+01  0.42191645292E+02  0.00000000000E+00 0. -1.
         11    1    1    2    0    0  0.10695405952E+02 -0.27711675162E+02  0.81297379817E+02  0.86553986701E+02  0.00000000000E+00 0.  1.
<mgrwt>
<rscale>  0 0.12752270E+03</rscale>
<asrwt>0</asrwt>
<pdfrwt beam="2">  1        2 0.15295437E-01 0.13564845E+03</pdfrwt>
<pdfrwt beam="1">  1       -2 0.25411505E-01 0.13564845E+03</pdfrwt>
<totfact> 0.50078953E+03</totfact>
</mgrwt>
</event>
<event>
 6    1  0.4705246E-006  0.3610695E+03  0.7546771E-02  0.1058161E+00
          1   -1    0    0  501    0  0.00000000000E+00  0.00000000000E+00  0.12316756881E+04  0.12316756881E+04  0.00000000000E+00 0. -1.
         -1   -1    0    0    0  501 -0.00000000000E+00 -0.00000000000E+00 -0.26462154936E+02  0.26462154936E+02  0.00000000000E+00 0.  1.
          5    1    1    2  502    0  0.34042877979E+02 -0.12041331957E+02  0.19774959241E+03  0.20107437061E+03  0.47000000000E+01 0. -1.
         -5    1    1    2    0  502 -0.11199054433E+03 -0.70786377834E+02  0.74644084407E+03  0.75812176925E+03  0.47000000000E+01 0. -1.
        -11    1    1    2    0    0  0.43302548886E+02  0.25750713561E+02  0.20703513600E+03  0.21307688173E+03  0.00000000000E+00 0. -1.
         11    1    1    2    0    0  0.34645117464E+02  0.57076996230E+02  0.53987960648E+02  0.85864821421E+02  0.00000000000E+00 0.  1.
<mgrwt>
<rscale>  0 0.36106948E+03</rscale>
<asrwt>0</asrwt>
<pdfrwt beam="1">  1        1 0.18948852E+00 0.36106948E+03</pdfrwt>
<pdfrwt beam="2">  1       -1 0.40711017E-02 0.36106948E+03</pdfrwt>
<totfact> 0.26099629E+03</totfact>
</mgrwt>
</event>
<event>
 6    1  0.4705246E-006  0.3226385E+03  0.7546771E-02  0.1074441E+00
          1   -1    0    0  501    0  0.00000000000E+00  0.00000000000E+00  0.55142827490E+02  0.55142827490E+02  0.00000000000E+00 0. -1.
         -1   -1    0    0    0  501 -0.00000000000E+00 -0.00000000000E+00 -0.47193640388E+03  0.47193640388E+03  0.00000000000E+00 0.  1.
          5    1    1    2  502    0  0.31147111496E+02 -0.19722940010E+02 -0.58860345081E+02  0.69611544590E+02  0.47000000000E+01 0.  1.
         -5    1    1    2    0  502 -0.10642847886E+03 -0.51480276815E+02 -0.68710631801E+02  0.13682280854E+03  0.47000000000E+01 0.  1.
        -11    1    1    2    0    0  0.54875811415E+02 -0.24418059095E+01 -0.17332019580E+03  0.18181641116E+03  0.00000000000E+00 0.  1.
         11    1    1    2    0    0  0.20405555951E+02  0.73645022734E+02 -0.11590240370E+03  0.13882846708E+03  0.00000000000E+00 0. -1.
<mgrwt>
<rscale>  0 0.32263855E+03</rscale>
<asrwt>0</asrwt>
<pdfrwt beam="1">  1        1 0.84835119E-02 0.32263855E+03</pdfrwt>
<pdfrwt beam="2">  1       -1 0.72605601E-01 0.32263855E+03</pdfrwt>
<totfact> 0.16015514E+03</totfact>
</mgrwt>
</event>
<event>
 6    1  0.4705246E-006  0.2725494E+03  0.7546771E-02  0.1099829E+00
          3   -1    0    0  501    0  0.00000000000E+00  0.00000000000E+00  0.18054159907E+04  0.18054159907E+04  0.00000000000E+00 0. -1.
         -3   -1    0    0    0  501 -0.00000000000E+00 -0.00000000000E+00 -0.10286155211E+02  0.10286155211E+02  0.00000000000E+00 0.  1.
          5    1    1    2  502    0 -0.59842324974E+02  0.23876949978E+02  0.12679793982E+04  0.12696239825E+04  0.47000000000E+01 0.  1.
         -5    1    1    2    0  502  0.18811505504E+00  0.15551947916E+02  0.17435708039E+02  0.23832590839E+02  0.47000000000E+01 0.  1.
        -11    1    1    2    0    0  0.37437609977E+02  0.23244885107E+02  0.26586027756E+03  0.26948763702E+03  0.00000000000E+00 0. -1.
         11    1    1    2    0    0  0.22216599942E+02 -0.62673783001E+02  0.24385445163E+03  0.25275793552E+03  0.00000000000E+00 0.  1.
<mgrwt>
<rscale>  0 0.27254937E+03</rscale>
<asrwt>0</asrwt>
<pdfrwt beam="1">  1        3 0.27775605E+00 0.27254937E+03</pdfrwt>
<pdfrwt beam="2">  1       -3 0.15824869E-02 0.27254937E+03</pdfrwt>
<totfact> 0.20183731E+02</totfact>
</mgrwt>
</event>
<event>
 6    1  0.4705246E-006  0.1317319E+03  0.7546771E-02  0.1238280E+00
          2   -1    0    0  501    0  0.00000000000E+00  0.00000000000E+00  0.32829429504E+03  0.32829429504E+03  0.00000000000E+00 0. -1.
         -2   -1    0    0    0  501 -0.00000000000E+00 -0.00000000000E+00 -0.42020240978E+02  0.42020240978E+02  0.00000000000E+00 0.  1.
          5    1    1    2  502    0 -0.15585188180E+02  0.13428855522E+02  0.20532755103E+03  0.20640912156E+03  0.47000000000E+01 0. -1.
         -5    1    1    2    0  502 -0.22271452510E+02  0.37542118782E+01 -0.13172106567E+02  0.26565129308E+02  0.47000000000E+01 0. -1.
        -11    1    1    2    0    0  0.65028685975E+02 -0.15162393924E+02  0.43020836736E+02  0.79431861256E+02  0.00000000000E+00 0.  1.
         11    1    1    2    0    0 -0.27172045285E+02 -0.20206734764E+01  0.51097772856E+02  0.57908423887E+02  0.00000000000E+00 0. -1.
<mgrwt>
<rscale>  0 0.12296743E+03</rscale>
<asrwt>0</asrwt>
<pdfrwt beam="1">  1        2 0.50506813E-01 0.13173187E+03</pdfrwt>
<pdfrwt beam="2">  1       -2 0.64646527E-02 0.13173187E+03</pdfrwt>
<totfact> 0.12302934E+04</totfact>
</mgrwt>
</event>
<event>
 6    1  0.4705246E-006  0.1465797E+03  0.7546771E-02  0.1214162E+00
         -1   -1    0    0    0  501 -0.00000000000E+00  0.00000000000E+00  0.13350221172E+03  0.13350221172E+03  0.00000000000E+00 0.  1.
          1   -1    0    0  501    0  0.00000000000E+00 -0.00000000000E+00 -0.13306587064E+03  0.13306587064E+03  0.00000000000E+00 0. -1.
          5    1    1    2  502    0  0.31467819352E+02 -0.40518460453E+02 -0.41570826133E+02  0.66198133490E+02  0.47000000000E+01 0.  1.
         -5    1    1    2    0  502  0.44721596847E+02  0.48140270592E+02  0.46187566395E+02  0.80454261334E+02  0.47000000000E+01 0.  1.
        -11    1    1    2    0    0 -0.92493738889E+02  0.13144546974E+02 -0.24072911742E+01  0.93454084446E+02  0.00000000000E+00 0.  1.
         11    1    1    2    0    0  0.16304322690E+02 -0.20766357114E+02 -0.17731080034E+01  0.26461603091E+02  0.00000000000E+00 0. -1.
<mgrwt>
<rscale>  0 0.13938254E+03</rscale>
<asrwt>0</asrwt>
<pdfrwt beam="2">  1        1 0.20471672E-01 0.14657971E+03</pdfrwt>
<pdfrwt beam="1">  1       -1 0.20538802E-01 0.14657971E+03</pdfrwt>
<totfact> 0.45963297E+03</totfact>
</mgrwt>
</event>
<event>
 6    1  0.4705246E-006  0.1293052E+03  0.7546771E-02  0.1248406E+00
          2   -1    0    0  501    0  0.00000000000E+00  0.00000000000E+00  0.16344365707E+03  0.16344365707E+03  0.00000000000E+00 0. -1.
         -2   -1    0    0    0  501 -0.00000000000E+00 -0.00000000000E+00 -0.74286068541E+02  0.74286068541E+02  0.00000000000E+00 0.  1.
          5    1    1    2  502    0  0.51323119211E+02  0.57300385603E+02  0.57527282100E+02  0.96171071230E+02  0.47000000000E+01 0. -1.
         -5    1    1    2    0  502 -0.43899829246E+02 -0.25114256217E+02  0.19964795989E+02  0.54576587948E+02  0.47000000000E+01 0. -1.
        -11    1    1    2    0    0 -0.16077744346E+02  0.13179595670E+02 -0.21665728337E+02  0.30026644662E+02  0.00000000000E+00 0.  1.
         11    1    1    2    0    0  0.86544543807E+01 -0.45365725056E+02  0.33331238774E+02  0.56955421767E+02  0.00000000000E+00 0. -1.
<mgrwt>
<rscale>  0 0.11683800E+03</rscale>
<asrwt>0</asrwt>
<pdfrwt beam="1">  1        2 0.25145178E-01 0.12930520E+03</pdfrwt>
<pdfrwt beam="2">  1       -2 0.11428626E-01 0.12930520E+03</pdfrwt>
<totfact> 0.10713596E+04</totfact>
</mgrwt>
</event>
<event>
 6    1  0.4705246E-006  0.1338581E+03  0.7546771E-02  0.1234283E+00
          1   -1    0    0  501    0  0.00000000000E+00  0.00000000000E+00  0.30946235482E+03  0.30946235482E+03  0.00000000000E+00 0. -1.
         -1   -1    0    0    0  501 -0.00000000000E+00 -0.00000000000E+00 -0.56601345310E+02  0.56601345310E+02  0.00000000000E+00 0.  1.
          5    1    1    2  502    0  0.16444286653E+02 -0.82711955687E+01  0.22329549354E+03  0.22410219694E+03  0.47000000000E+01 0. -1.
         -5    1    1    2    0  502  0.31419416917E+02  0.98579855672E+01 -0.32896186849E+01  0.33425607399E+02  0.47000000000E+01 0. -1.
        -11    1    1    2    0    0 -0.30718474343E+02  0.14678830828E+02  0.62169640138E+02  0.70881287343E+02  0.00000000000E+00 0. -1.
         11    1    1    2    0    0 -0.17145229228E+02 -0.16265620827E+02 -0.29314505477E+02  0.37654608450E+02  0.00000000000E+00 0.  1.
<mgrwt>
<rscale>  0 0.12550452E+03</rscale>
<asrwt>0</asrwt>
<pdfrwt beam="1">  1        1 0.47609592E-01 0.13385808E+03</pdfrwt>
<pdfrwt beam="2">  1       -1 0.87078995E-02 0.13385808E+03</pdfrwt>
<totfact> 0.60739863E+03</totfact>
</mgrwt>
</event>
<event>
 6    1  0.4705246E-006  0.1164163E+03  0.7546771E-02  0.1258596E+00
          2   -1    0    0  501    0  0.00000000000E+00  0.00000000000E+00  0.35844425520E+04  0.35844425520E+04  0.00000000000E+00 0. -1.
         -2   -1    0    0    0  501 -0.00000000000E+00 -0.00000000000E+00 -0.10980344305E+02  0.10980344305E+02  0.00000000000E+00 0.  1.
          5    1    1    2  502    0  0.14953584839E+02 -0.55040685078E+02  0.16179507259E+04  0.16189625469E+04  0.47000000000E+01 0. -1.
         -5    1    1    2    0  502  0.12890020878E+02  0.57556832422E+02  0.17321024493E+04  0.17331127852E+04  0.47000000000E+01 0.  1.
        -11    1    1    2    0    0  0.13071390182E+02  0.13319999001E+02  0.33536292459E+01  0.18961288031E+02  0.00000000000E+00 0.  1.
         11    1    1    2    0    0 -0.40914995899E+02 -0.15836146345E+02  0.22005540325E+03  0.22438627614E+03  0.00000000000E+00 0. -1.
<mgrwt>
<rscale>  0 0.11107295E+03</rscale>
<asrwt>0</asrwt>
<pdfrwt beam="1">  1        2 0.55145177E+00 0.11641630E+03</pdfrwt>
<pdfrwt beam="2">  1       -2 0.16892866E-02 0.11641630E+03</pdfrwt>
<totfact> 0.92768779E+02</totfact>
</mgrwt>
</event>
<event>
 6    1  0.4705246E-006  0.1329254E+03  0.7546771E-02  0.1238288E+00
         -1   -1    0    0    0  501 -0.00000000000E+00  0.00000000000E+00  0.18400002400E+02  0.18400002400E+02  0.00000000000E+00 0.  1.
          1   -1    0    0  501    0  0.00000000000E+00 -0.00000000000E+00 -0.87226223701E+03  0.87226223701E+03  0.00000000000E+00 0. -1.
          5    1    1    2  502    0 -0.56755341932E+02 -0.53301147959E+02 -0.51392026245E+03  0.51980602860E+03  0.47000000000E+01 0. -1.
         -5    1    1    2    0  502  0.23922295825E+02  0.40723711500E+02 -0.15149555427E+03  0.15875670027E+03  0.47000000000E+01 0.  1.
        -11    1    1    2    0    0 -0.63930857110E+01  0.44255433146E+02 -0.66442158270E+02  0.80087298015E+02  0.00000000000E+00 0.  1.
         11    1    1    2    0    0  0.39226131818E+02 -0.31677996686E+02 -0.12200425962E+03  0.13201221253E+03  0.00000000000E+00 0. -1.
<mgrwt>
<rscale>  0 0.12296275E+03</rscale>
<asrwt>0</asrwt>
<pdfrwt beam="2">  1        1 0.13419420E+00 0.13292542E+03</pdfrwt>
<pdfrwt beam="1">  1       -1 0.28307694E-02 0.13292542E+03</pdfrwt>
<totfact> 0.79681480E+03</totfact>
</mgrwt>
</event>
<event>
 6    1  0.4705246E-006  0.2131552E+03  0.7546771E-02  0.1142644E+00
         -1   -1    0    0    0  501 -0.00000000000E+00  0.00000000000E+00  0.59047813131E+03  0.59047813131E+03  0.00000000000E+00 0.  1.
          1   -1    0    0  501    0  0.00000000000E+00 -0.00000000000E+00 -0.19479362357E+03  0.19479362357E+03  0.00000000000E+00 0. -1.
          5    1    1    2  502    0 -0.62114930199E+02  0.90229967830E+02 -0.54444181732E+02  0.12241719884E+03  0.47000000000E+01 0.  1.
         -5    1    1    2    0  502  0.62287508143E+02  0.82436870633E+02 -0.57838103072E+02  0.11850277413E+03  0.47000000000E+01 0.  1.
        -11    1    1    2    0    0  0.43797345417E+02 -0.10033987984E+03  0.31987234112E+03  0.33808965315E+03  0.00000000000E+00 0. -1.
         11    1    1    2    0    0 -0.43969923361E+02 -0.72326958625E+02  0.18809445141E+03  0.20626212875E+03  0.00000000000E+00 0.  1.
<mgrwt>
<rscale>  0 0.20864384E+03</rscale>
<asrwt>0</asrwt>
<pdfrwt beam="2">  1        1 0.29968250E-01 0.21315516E+03</pdfrwt>
<pdfrwt beam="1">  1       -1 0.90842789E-01 0.21315516E+03</pdfrwt>
<totfact> 0.19130240E+02</totfact>
</mgrwt>
</event>
<event>
 6    1  0.4705246E-006  0.1345895E+03  0.7546771E-02  0.1233783E+00
          2   -1    0    0  501    0  0.00000000000E+00  0.00000000000E+00  0.13433162459E+04  0.13433162459E+04  0.00000000000E+00 0. -1.
         -2   -1    0    0    0  501 -0.00000000000E+00 -0.00000000000E+00 -0.12611080403E+02  0.12611080403E+02  0.00000000000E+00 0.  1.
          5    1    1    2  502    0  0.79926723845E+01  0.49813147740E+02  0.59932951822E+03  0.60146753354E+03  0.47000000000E+01 0. -1.
         -5    1    1    2    0  502 -0.57854834219E+02 -0.47827344448E+02  0.41609981666E+03  0.42284250513E+03  0.47000000000E+01 0. -1.
        -11    1    1    2    0    0 -0.84948503353E+01  0.25677184226E+02  0.36322757377E+02  0.45286013023E+02  0.00000000000E+00 0.  1.
         11    1    1    2    0    0  0.58357012170E+02 -0.27662987519E+02  0.27895307329E+03  0.28633127465E+03  0.00000000000E+00 0. -1.
<mgrwt>
<rscale>  0 0.12582696E+03</rscale>
<asrwt>0</asrwt>
<pdfrwt beam="1">  1        2 0.20666392E+00 0.13458945E+03</pdfrwt>
<pdfrwt beam="2">  1       -2 0.19401673E-02 0.13458945E+03</pdfrwt>
<totfact> 0.12986715E+04</totfact>
</mgrwt>
</event>
<event>
 6    1  0.4705246E-006  0.2774508E+03  0.7546771E-02  0.1097089E+00
         -1   -1    0    0    0  501 -0.00000000000E+00  0.00000000000E+00  0.50613200846E+02  0.50613200846E+02  0.00000000000E+00 0.  1.
          1   -1    0    0  501    0  0.00000000000E+00 -0.00000000000E+00 -0.38023161013E+03  0.38023161013E+03  0.00000000000E+00 0. -1.
          5    1    1    2  502    0 -0.24680959864E+02 -0.93135196394E+02 -0.10266823881E+03  0.14087644178E+03  0.47000000000E+01 0. -1.
         -5    1    1    2    0  502 -0.10269168881E+02  0.25021524500E+02 -0.13967954323E+03  0.14235166777E+03  0.47000000000E+01 0. -1.
        -11    1    1    2    0    0 -0.15709635203E+02  0.34475385121E+02 -0.77176112382E+02  0.85973816595E+02  0.00000000000E+00 0. -1.
         11    1    1    2    0    0  0.50659763949E+02  0.33638286772E+02 -0.10094514850E+02  0.61642884832E+02  0.00000000000E+00 0.  1.
<mgrwt>
<rscale>  0 0.27745082E+03</rscale>
<asrwt>0</asrwt>
<pdfrwt beam="2">  1        1 0.58497173E-01 0.27745082E+03</pdfrwt>
<pdfrwt beam="1">  1       -1 0.77866459E-02 0.27745082E+03</pdfrwt>
<totfact> 0.57746322E+03</totfact>
</mgrwt>
</event>
<event>
 6    1  0.4705246E-006  0.1556424E+03  0.7546771E-02  0.1202672E+00
          2   -1    0    0  501    0  0.00000000000E+00  0.00000000000E+00  0.32232411252E+03  0.32232411252E+03  0.00000000000E+00 0. -1.
         -2   -1    0    0    0  501 -0.00000000000E+00 -0.00000000000E+00 -0.15650096829E+03  0.15650096829E+03  0.00000000000E+00 0.  1.
          5    1    1    2  502    0  0.62240711348E+02 -0.51836405542E+02  0.12575026359E+03  0.14965339248E+03  0.47000000000E+01 0.  1.
         -5    1    1    2    0  502 -0.61064003854E+02 -0.40891791726E+02  0.14566328306E+03  0.16322019859E+03  0.47000000000E+01 0.  1.
        -11    1    1    2    0    0 -0.40576300496E+02  0.41338205713E+02 -0.26403593221E+02  0.63658724056E+02  0.00000000000E+00 0. -1.
         11    1    1    2    0    0  0.39399593002E+02  0.51389991555E+02 -0.79186809193E+02  0.10229276568E+03  0.00000000000E+00 0.  1.
<mgrwt>
<rscale>  0 0.14822459E+03</rscale>
<asrwt>0</asrwt>
<pdfrwt beam="1">  1        2 0.49588325E-01 0.15564245E+03</pdfrwt>
<pdfrwt beam="2">  1       -2 0.24077072E-01 0.15564245E+03</pdfrwt>
<totfact> 0.15159927E+03</totfact>
</mgrwt>
</event>
<event>
 6    1  0.4705246E-006  0.1476849E+03  0.7546771E-02  0.1212904E+00
          1   -1    0    0  501    0  0.00000000000E+00  0.00000000000E+00  0.27784033217E+03  0.27784033217E+03  0.00000000000E+00 0.  1.
         -1   -1    0    0    0  501 -0.00000000000E+00 -0.00000000000E+00 -0.83123252727E+02  0.83123252727E+02  0.00000000000E+00 0. -1.
          5    1    1    2  502    0 -0.45934778292E+02 -0.10148644606E+03  0.16135095578E+03  0.19612680470E+03  0.47000000000E+01 0.  1.
         -5    1    1    2    0  502  0.74889125355E+01  0.32878736263E+02  0.28490513542E+02  0.44394757248E+02  0.47000000000E+01 0.  1.
        -11    1    1    2    0    0 -0.19696614518E+02  0.30299090440E+02  0.29435242652E+02  0.46609280352E+02  0.00000000000E+00 0.  1.
         11    1    1    2    0    0  0.58142480274E+02  0.38308619361E+02 -0.24559632528E+02  0.73832742599E+02  0.00000000000E+00 0. -1.
<mgrwt>
<rscale>  0 0.14031613E+03</rscale>
<asrwt>0</asrwt>
<pdfrwt beam="1">  1        1 0.42744666E-01 0.14768493E+03</pdfrwt>
<pdfrwt beam="2">  1       -1 0.12788193E-01 0.14768493E+03</pdfrwt>
<totfact> 0.38728029E+03</totfact>
</mgrwt>
</event>
<event>
 6    1  0.4705246E-006  0.1914513E+03  0.7546771E-02  0.1162132E+00
          2   -1    0    0  501    0  0.00000000000E+00  0.00000000000E+00  0.40150127557E+03  0.40150127557E+03  0.00000000000E+00 0. -1.
         -2   -1    0    0    0  501 -0.00000000000E+00 -0.00000000000E+00 -0.81611897720E+02  0.81611897720E+02  0.00000000000E+00 0.  1.
          5    1    1    2  502    0  0.86836899826E+02  0.18406571223E+02  0.13437904285E+03  0.16111879528E+03  0.47000000000E+01 0. -1.
         -5    1    1    2    0  502  0.48215653191E+02 -0.71224710774E+02  0.29983045648E+02  0.91207355317E+02  0.47000000000E+01 0. -1.
        -11    1    1    2    0    0 -0.48888593107E+02  0.66960549950E+02  0.82428258117E+02  0.11691119502E+03  0.00000000000E+00 0. -1.
         11    1    1    2    0    0 -0.86163959911E+02 -0.14142410399E+02  0.73099031235E+02  0.11387582767E+03  0.00000000000E+00 0.  1.
<mgrwt>
<rscale>  0 0.18598659E+03</rscale>
<asrwt>0</asrwt>
<pdfrwt beam="1">  1        2 0.61769426E-01 0.19145127E+03</pdfrwt>
<pdfrwt beam="2">  1       -2 0.12555677E-01 0.19145127E+03</pdfrwt>
<totfact> 0.35870290E+03</totfact>
</mgrwt>
</event>
<event>
 6    1  0.4705246E-006  0.1277011E+03  0.7546771E-02  0.1245921E+00
         -1   -1    0    0    0  501 -0.00000000000E+00  0.00000000000E+00  0.38338255837E+02  0.38338255837E+02  0.00000000000E+00 0.  1.
          1   -1    0    0  501    0  0.00000000000E+00 -0.00000000000E+00 -0.32219592075E+03  0.32219592075E+03  0.00000000000E+00 0. -1.
          5    1    1    2  502    0  0.18739668110E+02  0.61175360230E+02 -0.15928760804E+03  0.17172137880E+03  0.47000000000E+01 0.  1.
         -5    1    1    2    0  502 -0.94493001815E+00 -0.42062965454E+02 -0.16237735441E+02  0.45342474654E+02  0.47000000000E+01 0.  1.
        -11    1    1    2    0    0 -0.36357953716E+02  0.29047047350E+01 -0.57524055217E+01  0.36924629684E+02  0.00000000000E+00 0.  1.
         11    1    1    2    0    0  0.18563215624E+02 -0.22017099512E+02 -0.10257991592E+03  0.10654569346E+03  0.00000000000E+00 0. -1.
<mgrwt>
<rscale>  0 0.11830433E+03</rscale>
<asrwt>0</asrwt>
<pdfrwt beam="2">  1        1 0.49568602E-01 0.12770110E+03</pdfrwt>
<pdfrwt beam="1">  1       -1 0.58981934E-02 0.12770110E+03</pdfrwt>
<totfact> 0.10329366E+04</totfact>
</mgrwt>
</event>
<event>
 6    1  0.4705246E-006  0.3543554E+03  0.7546771E-02  0.1060841E+00
         -2   -1    0    0    0  501 -0.00000000000E+00  0.00000000000E+00  0.53928353438E+02  0.53928353438E+02  0.00000000000E+00 0.  1.
          2   -1    0    0  501    0  0.00000000000E+00 -0.00000000000E+00 -0.58210447423E+03  0.58210447423E+03  0.00000000000E+00 0. -1.
          5    1    1    2  502    0 -0.65459207104E+02  0.15141789121E+02 -0.11772285359E+03  0.13562795372E+03  0.47000000000E+01 0. -1.
         -5    1    1    2    0  502  0.89302483705E+01 -0.12720809742E+02 -0.38904309418E+03  0.38938180166E+03  0.47000000000E+01 0. -1.
        -11    1    1    2    0    0  0.19344284565E+02 -0.45539356605E+02 -0.21840874864E+02  0.54083806820E+02  0.00000000000E+00 0.  1.
         11    1    1    2    0    0  0.37184674169E+02  0.43118377226E+02  0.43070184536E+00  0.56939265465E+02  0.00000000000E+00 0. -1.
<mgrwt>
<rscale>  0 0.35435539E+03</rscale>
<asrwt>0</asrwt>
<pdfrwt beam="2">  1        2 0.89554539E-01 0.35435539E+03</pdfrwt>
<pdfrwt beam="1">  1       -2 0.82966693E-02 0.35435539E+03</pdfrwt>
<totfact> 0.46870228E+03</totfact>
</mgrwt>
</event>
<event>
 6    1  0.4705246E-006  0.1411658E+03  0.7546771E-02  0.1222456E+00
          2   -1    0    0  501    0  0.00000000000E+00  0.00000000000E+00  0.11576921579E+03  0.11576921579E+03  0.00000000000E+00 0. -1.
         -2   -1    0    0    0  501 -0.00000000000E+00 -0.00000000000E+00 -0.14923586148E+03  0.14923586148E+03  0.00000000000E+00 0.  1.
          5    1    1    2  502    0 -0.64682377776E+02 -0.43849417512E+02  0.46754808285E+02  0.91184886404E+02  0.47000000000E+01 0. -1.
         -5    1    1    2    0  502 -0.80620659629E+00  0.40057369099E+02 -0.30974568616E+02  0.50860168002E+02  0.47000000000E+01 0. -1.
        -11    1    1    2    0    0  0.43277181015E+02 -0.42471335226E+02 -0.19768836589E+02  0.63777234281E+02  0.00000000000E+00 0. -1.
         11    1    1    2    0    0  0.22211403356E+02  0.46263383638E+02 -0.29478048767E+02  0.59182788578E+02  0.00000000000E+00 0.  1.
<mgrwt>
<rscale>  0 0.13342787E+03</rscale>
<asrwt>0</asrwt>
<pdfrwt beam="1">  1        2 0.17810649E-01 0.14116579E+03</pdfrwt>
<pdfrwt beam="2">  1       -2 0.22959363E-01 0.14116579E+03</pdfrwt>
<totfact> 0.50211630E+03</totfact>
</mgrwt>
</event>
<event>
 6    1  0.4705246E-006  0.1592515E+03  0.7546771E-02  0.1197240E+00
         -2   -1    0    0    0  501 -0.00000000000E+00  0.00000000000E+00  0.17637913512E+02  0.17637913512E+02  0.00000000000E+00 0.  1.
          2   -1    0    0  501    0  0.00000000000E+00 -0.00000000000E+00 -0.13438435277E+04  0.13438435277E+04  0.00000000000E+00 0. -1.
          5    1    1    2  502    0  0.56339158470E+02 -0.31796820339E+01 -0.32539547926E+03  0.33028551146E+03  0.47000000000E+01 0.  1.
         -5    1    1    2    0  502 -0.29600324855E+02  0.98153117158E+02 -0.59210420470E+03  0.60093235298E+03  0.47000000000E+01 0.  1.
        -11    1    1    2    0    0 -0.59818455175E+02 -0.71558848361E+02 -0.26407305017E+03  0.28005980109E+03  0.00000000000E+00 0. -1.
         11    1    1    2    0    0  0.33079621561E+02 -0.23414586763E+02 -0.14463288001E+03  0.15020377564E+03  0.00000000000E+00 0.  1.
<mgrwt>
<rscale>  0 0.15266205E+03</rscale>
<asrwt>0</asrwt>
<pdfrwt beam="2">  1        2 0.20674521E+00 0.15925150E+03</pdfrwt>
<pdfrwt beam="1">  1       -2 0.27135245E-02 0.15925150E+03</pdfrwt>
<totfact> 0.80125795E+03</totfact>
</mgrwt>
</event>
<event>
 6    1  0.4705246E-006  0.2690984E+03  0.7546771E-02  0.1101797E+00
         -4   -1    0    0    0  501 -0.00000000000E+00  0.00000000000E+00  0.29697148110E+03  0.29697148110E+03  0.00000000000E+00 0.  1.
          4   -1    0    0  501    0  0.00000000000E+00 -0.00000000000E+00 -0.60960370345E+02  0.60960370345E+02  0.00000000000E+00 0. -1.
          5    1    1    2  502    0  0.51754152119E+02  0.73941036238E+02  0.18372499071E+02  0.92224767952E+02  0.47000000000E+01 0. -1.
         -5    1    1    2    0  502 -0.35156192468E+02 -0.10113266985E+02  0.57156248235E+02  0.68023251542E+02  0.47000000000E+01 0. -1.
        -11    1    1    2    0    0  0.23460473129E+02 -0.48483878347E+02  0.14028624862E+03  0.15027079493E+03  0.00000000000E+00 0.  1.
         11    1    1    2    0    0 -0.40058432780E+02 -0.15343890906E+02  0.20196114832E+02  0.47413037017E+02  0.00000000000E+00 0. -1.
<mgrwt>
<rscale>  0 0.26909843E+03</rscale>
<asrwt>0</asrwt>
<pdfrwt beam="2">  1        4 0.93785187E-02 0.26909843E+03</pdfrwt>
<pdfrwt beam="1">  1       -4 0.45687919E-01 0.26909843E+03</pdfrwt>
<totfact> 0.73693143E+02</totfact>
</mgrwt>
</event>
<event>
 6    1  0.4705246E-006  0.1579557E+03  0.7546771E-02  0.1195494E+00
          1   -1    0    0  501    0  0.00000000000E+00  0.00000000000E+00  0.14295601727E+04  0.14295601727E+04  0.00000000000E+00 0. -1.
         -1   -1    0    0    0  501 -0.00000000000E+00 -0.00000000000E+00 -0.64163898054E+02  0.64163898054E+02  0.00000000000E+00 0.  1.
          5    1    1    2  502    0 -0.70477707688E+02 -0.11165813777E+02  0.56708876086E+03  0.57157985914E+03  0.47000000000E+01 0. -1.
         -5    1    1    2    0  502  0.50985971748E+02 -0.47748516139E+02  0.75516404393E+03  0.75840247452E+03  0.47000000000E+01 0.  1.
        -11    1    1    2    0    0  0.49984864753E+02 -0.27020352571E+02 -0.10739689027E+02  0.57826698660E+02  0.00000000000E+00 0.  1.
         11    1    1    2    0    0 -0.30493128814E+02  0.85934682487E+02  0.53883158909E+02  0.10591503847E+03  0.00000000000E+00 0. -1.
<mgrwt>
<rscale>  0 0.15412464E+03</rscale>
<asrwt>0</asrwt>
<pdfrwt beam="1">  1        1 0.21993231E+00 0.15795568E+03</pdfrwt>
<pdfrwt beam="2">  1       -1 0.98713700E-02 0.15795568E+03</pdfrwt>
<totfact> 0.50564983E+02</totfact>
</mgrwt>
</event>
<event>
 6    1  0.4705246E-006  0.2237805E+03  0.7546771E-02  0.1134286E+00
         -2   -1    0    0    0  501 -0.00000000000E+00  0.00000000000E+00  0.47666148761E+03  0.47666148761E+03  0.00000000000E+00 0.  1.
          2   -1    0    0  501    0  0.00000000000E+00 -0.00000000000E+00 -0.10369461854E+03  0.10369461854E+03  0.00000000000E+00 0. -1.
          5    1    1    2  502    0  0.37297688648E+02  0.11551366503E+03  0.62830447091E+01  0.12163918381E+03  0.47000000000E+01 0. -1.
         -5    1    1    2    0  502 -0.81105943661E-01  0.66314262300E+02  0.11515684933E+03  0.13296908630E+03  0.47000000000E+01 0. -1.
        -11    1    1    2    0    0 -0.25984774938E+02 -0.22536382820E+02  0.99455878004E+02  0.10523577694E+03  0.00000000000E+00 0.  1.
         11    1    1    2    0    0 -0.11231807766E+02 -0.15929154451E+03  0.15207109703E+03  0.22051205910E+03  0.00000000000E+00 0. -1.
<mgrwt>
<rscale>  0 0.21945996E+03</rscale>
<asrwt>0</asrwt>
<pdfrwt beam="2">  1        2 0.15953019E-01 0.22378052E+03</pdfrwt>
<pdfrwt beam="1">  1       -2 0.73332535E-01 0.22378052E+03</pdfrwt>
<totfact> 0.62320970E+02</totfact>
</mgrwt>
</event>
<event>
 6    1  0.4705246E-006  0.2763277E+03  0.7546771E-02  0.1099651E+00
         -1   -1    0    0    0  501 -0.00000000000E+00  0.00000000000E+00  0.35976090799E+03  0.35976090799E+03  0.00000000000E+00 0.  1.
          1   -1    0    0  501    0  0.00000000000E+00 -0.00000000000E+00 -0.22653582975E+03  0.22653582975E+03  0.00000000000E+00 0. -1.
          5    1    1    2  502    0  0.53672676582E+02  0.19444956901E+03 -0.72713009526E+02  0.21447765118E+03  0.47000000000E+01 0.  1.
         -5    1    1    2    0  502  0.17748635619E+02  0.41405881501E+02  0.44238200845E+02  0.63313264828E+02  0.47000000000E+01 0.  1.
        -11    1    1    2    0    0 -0.76608724151E+02 -0.19864326034E+03  0.16696739762E+03  0.27056635668E+03  0.00000000000E+00 0.  1.
         11    1    1    2    0    0  0.51874119500E+01 -0.37212190169E+02 -0.52675107101E+01  0.37939465060E+02  0.00000000000E+00 0. -1.
<mgrwt>
<rscale>  0 0.27286461E+03</rscale>
<asrwt>0</asrwt>
<pdfrwt beam="2">  1        1 0.34851666E-01 0.27632766E+03</pdfrwt>
<pdfrwt beam="1">  1       -1 0.55347832E-01 0.27632766E+03</pdfrwt>
<totfact> 0.42664313E+02</totfact>
</mgrwt>
</event>
<event>
 6    1  0.4705246E-006  0.1319241E+03  0.7546771E-02  0.1231896E+00
         -3   -1    0    0    0  501 -0.00000000000E+00  0.00000000000E+00  0.76304941855E+02  0.76304941855E+02  0.00000000000E+00 0.  1.
          3   -1    0    0  501    0  0.00000000000E+00 -0.00000000000E+00 -0.24887065245E+03  0.24887065245E+03  0.00000000000E+00 0. -1.
          5    1    1    2  502    0 -0.33073847457E+02 -0.28248997186E+02 -0.15177596815E+03  0.15795543592E+03  0.47000000000E+01 0. -1.
         -5    1    1    2    0  502 -0.33020685061E+02  0.39592992611E+02 -0.13471043162E+02  0.53493267891E+02  0.47000000000E+01 0.  1.
        -11    1    1    2    0    0 -0.16656411928E+02  0.18780207964E+02  0.19437916690E+01  0.25177581209E+02  0.00000000000E+00 0. -1.
         11    1    1    2    0    0  0.82750944446E+02 -0.30124203389E+02 -0.92624909509E+01  0.88549309286E+02  0.00000000000E+00 0.  1.
<mgrwt>
<rscale>  0 0.12705265E+03</rscale>
<asrwt>0</asrwt>
<pdfrwt beam="2">  1        3 0.38287793E-01 0.13192414E+03</pdfrwt>
<pdfrwt beam="1">  1       -3 0.11739222E-01 0.13192414E+03</pdfrwt>
<totfact> 0.87625908E+02</totfact>
</mgrwt>
</event>
<event>
 6    1  0.4705246E-006  0.1527155E+03  0.7546771E-02  0.1205512E+00
         -1   -1    0    0    0  501 -0.00000000000E+00  0.00000000000E+00  0.29852243376E+03  0.29852243376E+03  0.00000000000E+00 0.  1.
          1   -1    0    0  501    0  0.00000000000E+00 -0.00000000000E+00 -0.79263671657E+02  0.79263671657E+02  0.00000000000E+00 0. -1.
          5    1    1    2  502    0  0.79553275726E+01 -0.51558773182E+02  0.47513479353E+01  0.52595243474E+02  0.47000000000E+01 0. -1.
         -5    1    1    2    0  502 -0.93574155056E+02  0.32559696584E+02  0.35327201337E+02  0.10529177314E+03  0.47000000000E+01 0. -1.
        -11    1    1    2    0    0  0.54173634819E+02 -0.10545653117E+02  0.16576974580E+03  0.17471577528E+03  0.00000000000E+00 0.  1.
         11    1    1    2    0    0  0.31445192664E+02  0.29544729715E+02  0.13410467038E+02  0.45183313533E+02  0.00000000000E+00 0. -1.
<mgrwt>
<rscale>  0 0.14597187E+03</rscale>
<asrwt>0</asrwt>
<pdfrwt beam="2">  1        1 0.12194411E-01 0.15271549E+03</pdfrwt>
<pdfrwt beam="1">  1       -1 0.45926528E-01 0.15271549E+03</pdfrwt>
<totfact> 0.23017139E+03</totfact>
</mgrwt>
</event>
<event>
 6    1  0.4705246E-006  0.1374926E+03  0.7546771E-02  0.1228647E+00
         -1   -1    0    0    0  501 -0.00000000000E+00  0.00000000000E+00  0.18556662446E+03  0.18556662446E+03  0.00000000000E+00 0.  1.
          1   -1    0    0  501    0  0.00000000000E+00 -0.00000000000E+00 -0.94962627181E+02  0.94962627181E+02  0.00000000000E+00 0. -1.
          5    1    1    2  502    0  0.31455315636E+02  0.81186500669E+02  0.12958663849E+02  0.88151583885E+02  0.47000000000E+01 0. -1.
         -5    1    1    2    0  502 -0.39155218464E+02 -0.24443669804E+02 -0.16957533100E+02  0.49399109864E+02  0.47000000000E+01 0. -1.
        -11    1    1    2    0    0 -0.34979433587E+02 -0.41563763437E+02  0.77318511688E+02  0.94494758874E+02  0.00000000000E+00 0.  1.
         11    1    1    2    0    0  0.42679336415E+02 -0.15179067428E+02  0.17284354840E+02  0.48483799016E+02  0.00000000000E+00 0. -1.
<mgrwt>
<rscale>  0 0.12920054E+03</rscale>
<asrwt>0</asrwt>
<pdfrwt beam="2">  1        1 0.14609635E-01 0.13749255E+03</pdfrwt>
<pdfrwt beam="1">  1       -1 0.28548711E-01 0.13749255E+03</pdfrwt>
<totfact> 0.41164098E+03</totfact>
</mgrwt>
</event>
<event>
 6    1  0.4705246E-006  0.4449353E+03  0.7546771E-02  0.1029243E+00
         -2   -1    0    0    0  501 -0.00000000000E+00  0.00000000000E+00  0.16673369691E+03  0.16673369691E+03  0.00000000000E+00 0.  1.
          2   -1    0    0  501    0  0.00000000000E+00 -0.00000000000E+00 -0.29683179035E+03  0.29683179035E+03  0.00000000000E+00 0. -1.
          5    1    1    2  502    0  0.25456021122E+02 -0.46070800934E+02  0.14667956517E+02  0.54843109489E+02  0.47000000000E+01 0.  1.
         -5    1    1    2    0  502  0.21178016903E+02 -0.12250920009E+03 -0.16875022377E+03  0.20965624372E+03  0.47000000000E+01 0.  1.
        -11    1    1    2    0    0 -0.34006087041E+02  0.71350199705E+02  0.54929285322E+02  0.96252227714E+02  0.00000000000E+00 0.  1.
         11    1    1    2    0    0 -0.12627950984E+02  0.97229801322E+02 -0.30945111509E+02  0.10281390634E+03  0.00000000000E+00 0. -1.
<mgrwt>
<rscale>  0 0.44493533E+03</rscale>
<asrwt>0</asrwt>
<pdfrwt beam="2">  1        2 0.45666428E-01 0.44493533E+03</pdfrwt>
<pdfrwt beam="1">  1       -2 0.25651338E-01 0.44493533E+03</pdfrwt>
<totfact> 0.15123483E+03</totfact>
</mgrwt>
</event>
<event>
 6    1  0.4705246E-006  0.1444634E+03  0.7546771E-02  0.1216963E+00
         -3   -1    0    0    0  501 -0.00000000000E+00  0.00000000000E+00  0.33130374217E+02  0.33130374217E+02  0.00000000000E+00 0.  1.
          3   -1    0    0  501    0  0.00000000000E+00 -0.00000000000E+00 -0.75873967495E+03  0.75873967495E+03  0.00000000000E+00 0. -1.
          5    1    1    2  502    0 -0.49296970755E+02  0.87439228169E+02 -0.54538578390E+03  0.55456609455E+03  0.47000000000E+01 0. -1.
         -5    1    1    2    0  502  0.25783751992E+02 -0.18932722590E+02 -0.63925104232E+02  0.71636295287E+02  0.47000000000E+01 0. -1.
        -11    1    1    2    0    0 -0.22045742246E+01 -0.79714296048E+02 -0.51159599120E+02  0.94744570948E+02  0.00000000000E+00 0.  1.
         11    1    1    2    0    0  0.25717792987E+02  0.11207790470E+02 -0.65138813476E+02  0.70923088374E+02  0.00000000000E+00 0. -1.
<mgrwt>
<rscale>  0 0.13733304E+03</rscale>
<asrwt>0</asrwt>
<pdfrwt beam="2">  1        3 0.11672919E+00 0.14446340E+03</pdfrwt>
<pdfrwt beam="1">  1       -3 0.50969804E-02 0.14446340E+03</pdfrwt>
<totfact> 0.32870428E+02</totfact>
</mgrwt>
</event>
<event>
 6    1  0.4705246E-006  0.1285180E+03  0.7546771E-02  0.1244879E+00
          1   -1    0    0  501    0  0.00000000000E+00  0.00000000000E+00  0.20883832673E+04  0.20883832673E+04  0.00000000000E+00 0. -1.
         -1   -1    0    0    0  501 -0.00000000000E+00 -0.00000000000E+00 -0.77453877869E+01  0.77453877869E+01  0.00000000000E+00 0.  1.
          5    1    1    2  502    0  0.51678253322E+02  0.49172291773E+02  0.74271450358E+03  0.74614709003E+03  0.47000000000E+01 0.  1.
         -5    1    1    2    0  502 -0.49089953730E+02 -0.19377959889E+02  0.92178083843E+03  0.92330240603E+03  0.47000000000E+01 0.  1.
        -11    1    1    2    0    0 -0.22120927559E+02 -0.56371675227E+02  0.24374108580E+03  0.25115098668E+03  0.00000000000E+00 0.  1.
         11    1    1    2    0    0  0.19532627967E+02  0.26577343343E+02  0.17240145173E+03  0.17552817237E+03  0.00000000000E+00 0. -1.
<mgrwt>
<rscale>  0 0.11892622E+03</rscale>
<asrwt>0</asrwt>
<pdfrwt beam="1">  1        1 0.32128929E+00 0.12851800E+03</pdfrwt>
<pdfrwt beam="2">  1       -1 0.11915998E-02 0.12851800E+03</pdfrwt>
<totfact> 0.42721278E+03</totfact>
</mgrwt>
</event>
<event>
 6    1  0.4705246E-006  0.3203419E+03  0.7546771E-02  0.1075492E+00
          1   -1    0    0  501    0  0.00000000000E+00  0.00000000000E+00  0.54258776177E+03  0.54258776177E+03  0.00000000000E+00 0. -1.
         -1   -1    0    0    0  501 -0.00000000000E+00 -0.00000000000E+00 -0.47282186985E+02  0.47282186985E+02  0.00000000000E+00 0.  1.
          5    1    1    2  502    0  0.60826178093E+01  0.39761898652E+01 -0.83439239965E+01  0.12021621892E+02  0.47000000000E+01 0. -1.
         -5    1    1    2    0  502 -0.11181414968E+03  0.21289159278E+01  0.33893473144E+03  0.35693946060E+03  0.47000000000E+01 0. -1.
        -11    1    1    2    0    0  0.50306714540E+02  0.47665360295E+01  0.15572295514E+03  0.16371659705E+03  0.00000000000E+00 0. -1.
         11    1    1    2    0    0  0.55424817326E+02 -0.10871641823E+02  0.89918121998E+01  0.57192269217E+02  0.00000000000E+00 0.  1.
<mgrwt>
<rscale>  0 0.32034192E+03</rscale>
<asrwt>0</asrwt>
<pdfrwt beam="1">  1        1 0.83475036E-01 0.32034192E+03</pdfrwt>
<pdfrwt beam="2">  1       -1 0.72741830E-02 0.32034192E+03</pdfrwt>
<totfact> 0.40319138E+03</totfact>
</mgrwt>
</event>
<event>
 6    1  0.4705246E-006  0.1412746E+03  0.7546771E-02  0.1220957E+00
          1   -1    0    0  501    0  0.00000000000E+00  0.00000000000E+00  0.28580451125E+03  0.28580451125E+03  0.00000000000E+00 0. -1.
         -1   -1    0    0    0  501 -0.00000000000E+00 -0.00000000000E+00 -0.63213525446E+02  0.63213525446E+02  0.00000000000E+00 0.  1.
          5    1    1    2  502    0  0.23645513807E+02  0.54757132171E+02  0.52426703525E+02  0.79549375165E+02  0.47000000000E+01 0. -1.
         -5    1    1    2    0  502 -0.78043451222E+02 -0.72645813090E+01  0.11928363834E+03  0.14280837089E+03  0.47000000000E+01 0.  1.
        -11    1    1    2    0    0  0.34706380741E+02  0.12323681382E+02  0.51945891824E+02  0.63677167527E+02  0.00000000000E+00 0. -1.
         11    1    1    2    0    0  0.19691556674E+02 -0.59816232243E+02 -0.10652478847E+01  0.62983123113E+02  0.00000000000E+00 0.  1.
<mgrwt>
<rscale>  0 0.13447903E+03</rscale>
<asrwt>0</asrwt>
<pdfrwt beam="1">  1        1 0.43969924E-01 0.14127465E+03</pdfrwt>
<pdfrwt beam="2">  1       -1 0.97251580E-02 0.14127465E+03</pdfrwt>
<totfact> 0.56848670E+03</totfact>
</mgrwt>
</event>
<event>
 6    1  0.4705246E-006  0.1295353E+03  0.7546771E-02  0.1241895E+00
          3   -1    0    0  501    0  0.00000000000E+00  0.00000000000E+00  0.40543796364E+03  0.40543796364E+03  0.00000000000E+00 0. -1.
         -3   -1    0    0    0  501 -0.00000000000E+00 -0.00000000000E+00 -0.32646963484E+02  0.32646963484E+02  0.00000000000E+00 0.  1.
          5    1    1    2  502    0  0.58654922715E+02 -0.13912094431E+02  0.71955592870E+02  0.93987465523E+02  0.47000000000E+01 0.  1.
         -5    1    1    2    0  502 -0.56249450348E+02 -0.19962225276E+02  0.17369203378E+03  0.18372126633E+03  0.47000000000E+01 0.  1.
        -11    1    1    2    0    0  0.33057230623E+02  0.19753142565E+01  0.11124322860E+02  0.34934695103E+02  0.00000000000E+00 0.  1.
         11    1    1    2    0    0 -0.35462702989E+02  0.31899005450E+02  0.11601905064E+03  0.12544150017E+03  0.00000000000E+00 0. -1.
<mgrwt>
<rscale>  0 0.12073142E+03</rscale>
<asrwt>0</asrwt>
<pdfrwt beam="1">  1        3 0.62375068E-01 0.12953526E+03</pdfrwt>
<pdfrwt beam="2">  1       -3 0.50226101E-02 0.12953526E+03</pdfrwt>
<totfact> 0.13134259E+03</totfact>
</mgrwt>
</event>
<event>
 6    1  0.4705246E-006  0.1942862E+03  0.7546771E-02  0.1159562E+00
          2   -1    0    0  501    0  0.00000000000E+00  0.00000000000E+00  0.71373737706E+02  0.71373737706E+02  0.00000000000E+00 0. -1.
         -2   -1    0    0    0  501 -0.00000000000E+00 -0.00000000000E+00 -0.47470110875E+03  0.47470110875E+03  0.00000000000E+00 0.  1.
          5    1    1    2  502    0  0.33070881023E+02 -0.17223399036E+02 -0.46454705084E+02  0.59753311794E+02  0.47000000000E+01 0. -1.
         -5    1    1    2    0  502 -0.11183435279E+03 -0.10893720920E+03 -0.15050210154E+03  0.21690368964E+03  0.47000000000E+01 0. -1.
        -11    1    1    2    0    0  0.19090403279E+02  0.16512915717E+01  0.22000639727E+01  0.19287574827E+02  0.00000000000E+00 0. -1.
         11    1    1    2    0    0  0.59673068491E+02  0.12450931666E+03 -0.20857062840E+03  0.25013027020E+03  0.00000000000E+00 0.  1.
<mgrwt>
<rscale>  0 0.18878454E+03</rscale>
<asrwt>0</asrwt>
<pdfrwt beam="1">  1        2 0.10980575E-01 0.19428616E+03</pdfrwt>
<pdfrwt beam="2">  1       -2 0.73030941E-01 0.19428616E+03</pdfrwt>
<totfact> 0.98202555E+02</totfact>
</mgrwt>
</event>
<event>
 6    1  0.4705246E-006  0.1555445E+03  0.7546771E-02  0.1200626E+00
         -1   -1    0    0    0  501 -0.00000000000E+00  0.00000000000E+00  0.85682458484E+02  0.85682458484E+02  0.00000000000E+00 0.  1.
          1   -1    0    0  501    0  0.00000000000E+00 -0.00000000000E+00 -0.32241449755E+03  0.32241449755E+03  0.00000000000E+00 0. -1.
          5    1    1    2  502    0 -0.33479490833E+02  0.83688903554E+02 -0.23593483720E+03  0.25261046354E+03  0.47000000000E+01 0. -1.
         -5    1    1    2    0  502 -0.16211560642E+02 -0.55899196335E+01  0.10969235722E+02  0.20892008814E+02  0.47000000000E+01 0. -1.
        -11    1    1    2    0    0 -0.21509885150E+02  0.67844819001E+01  0.32588462384E+01  0.22788690893E+02  0.00000000000E+00 0.  1.
         11    1    1    2    0    0  0.71200936624E+02 -0.84883465820E+02 -0.15025283820E+02  0.11180579278E+03  0.00000000000E+00 0. -1.
<mgrwt>
<rscale>  0 0.14987571E+03</rscale>
<asrwt>0</asrwt>
<pdfrwt beam="2">  1        1 0.49602230E-01 0.15554446E+03</pdfrwt>
<pdfrwt beam="1">  1       -1 0.13181917E-01 0.15554446E+03</pdfrwt>
<totfact> 0.30782443E+03</totfact>
</mgrwt>
</event>
<event>
 6    1  0.4705246E-006  0.1593883E+03  0.7546771E-02  0.1198342E+00
         -1   -1    0    0    0  501 -0.00000000000E+00  0.00000000000E+00  0.46144204467E+03  0.46144204467E+03  0.00000000000E+00 0.  1.
          1   -1    0    0  501    0  0.00000000000E+00 -0.00000000000E+00 -0.47713501080E+02  0.47713501080E+02  0.00000000000E+00 0. -1.
          5    1    1    2  502    0 -0.29460738363E+02 -0.25535073505E+02 -0.86210169994E+01  0.40204315911E+02  0.47000000000E+01 0. -1.
         -5    1    1    2    0  502 -0.68862147262E+02  0.14882460843E+02  0.18245374218E+03  0.19563982469E+03  0.47000000000E+01 0. -1.
        -11    1    1    2    0    0  0.86402115266E+01  0.36169199413E+02  0.79865768758E+02  0.88098838021E+02  0.00000000000E+00 0.  1.
         11    1    1    2    0    0  0.89682674098E+02 -0.25516586751E+02  0.16003004964E+03  0.18521256713E+03  0.00000000000E+00 0. -1.
<mgrwt>
<rscale>  0 0.15174788E+03</rscale>
<asrwt>0</asrwt>
<pdfrwt beam="2">  1        1 0.73405389E-02 0.15938834E+03</pdfrwt>
<pdfrwt beam="1">  1       -1 0.70991081E-01 0.15938834E+03</pdfrwt>
<totfact> 0.19953596E+03</totfact>
</mgrwt>
</event>
<event>
 6    1  0.4705246E-006  0.1413612E+03  0.7546771E-02  0.1221924E+00
         -2   -1    0    0    0  501 -0.00000000000E+00  0.00000000000E+00  0.37383338367E+02  0.37383338367E+02  0.00000000000E+00 0. -1.
          2   -1    0    0  501    0  0.00000000000E+00 -0.00000000000E+00 -0.45493999006E+03  0.45493999006E+03  0.00000000000E+00 0.  1.
          5    1    1    2  502    0 -0.36260037721E+02 -0.66704224830E+02 -0.84285022694E+02  0.11353545260E+03  0.47000000000E+01 0. -1.
         -5    1    1    2    0  502  0.40328471696E+02  0.81822984783E+00 -0.19852780686E+03  0.20263868146E+03  0.47000000000E+01 0. -1.
        -11    1    1    2    0    0  0.36524469416E+02  0.83650994121E+01 -0.74898591420E+02  0.83748497008E+02  0.00000000000E+00 0.  1.
         11    1    1    2    0    0 -0.40592903392E+02  0.57520895570E+02 -0.59845230724E+02  0.92400697364E+02  0.00000000000E+00 0. -1.
<mgrwt>
<rscale>  0 0.13380000E+03</rscale>
<asrwt>0</asrwt>
<pdfrwt beam="2">  1        2 0.69990769E-01 0.14136119E+03</pdfrwt>
<pdfrwt beam="1">  1       -2 0.57512827E-02 0.14136119E+03</pdfrwt>
<totfact> 0.10421794E+04</totfact>
</mgrwt>
</event>
<event>
 6    1  0.4705246E-006  0.2223487E+03  0.7546771E-02  0.1166921E+00
         -2   -1    0    0    0  501 -0.00000000000E+00  0.00000000000E+00  0.61055271209E+02  0.61055271209E+02  0.00000000000E+00 0.  1.
          2   -1    0    0  501    0  0.00000000000E+00 -0.00000000000E+00 -0.16246615389E+04  0.16246615389E+04  0.00000000000E+00 0. -1.
          5    1    1    2  502    0 -0.91448530646E+02  0.84703004946E+02 -0.77305006343E+03  0.78304911939E+03  0.47000000000E+01 0. -1.
         -5    1    1    2    0  502  0.70576999224E+02 -0.63658745313E+02 -0.79918845762E+03  0.80483403846E+03  0.47000000000E+01 0.  1.
        -11    1    1    2    0    0  0.84294728672E+01 -0.57710955836E+02  0.95639261041E+01  0.59102276765E+02  0.00000000000E+00 0.  1.
         11    1    1    2    0    0  0.12442058555E+02  0.36666696202E+02 -0.93167271770E+00  0.38731375466E+02  0.00000000000E+00 0. -1.
<mgrwt>
<rscale>  0 0.18091466E+03</rscale>
<asrwt>0</asrwt>
<pdfrwt beam="2">  1        2 0.24994794E+00 0.22234873E+03</pdfrwt>
<pdfrwt beam="1">  1       -2 0.93931181E-02 0.22234873E+03</pdfrwt>
<totfact> 0.86479378E+02</totfact>
</mgrwt>
</event>
<event>
 6    1  0.4705246E-006  0.3286979E+03  0.7546771E-02  0.1071714E+00
          1   -1    0    0  501    0  0.00000000000E+00  0.00000000000E+00  0.12097694403E+03  0.12097694403E+03  0.00000000000E+00 0. -1.
         -1   -1    0    0    0  501 -0.00000000000E+00 -0.00000000000E+00 -0.22327052218E+03  0.22327052218E+03  0.00000000000E+00 0.  1.
          5    1    1    2  502    0  0.79579641505E+02 -0.10381589590E+03 -0.37673612759E+02  0.13620591280E+03  0.47000000000E+01 0.  1.
         -5    1    1    2    0  502 -0.16999776577E+02  0.40949532870E+01 -0.57149092730E+02  0.59948893617E+02  0.47000000000E+01 0.  1.
        -11    1    1    2    0    0  0.13236354507E+01  0.59109689385E+02  0.26880886529E+02  0.64948359876E+02  0.00000000000E+00 0. -1.
         11    1    1    2    0    0 -0.63903500379E+02  0.40611253231E+02 -0.34351759189E+02  0.83144299919E+02  0.00000000000E+00 0.  1.
<mgrwt>
<rscale>  0 0.32869795E+03</rscale>
<asrwt>0</asrwt>
<pdfrwt beam="1">  1        1 0.18611837E-01 0.32869795E+03</pdfrwt>
<pdfrwt beam="2">  1       -1 0.34349311E-01 0.32869795E+03</pdfrwt>
<totfact> 0.22715744E+03</totfact>
</mgrwt>
</event>
<event>
 6    1  0.4705246E-006  0.1319998E+03  0.7546771E-02  0.1236761E+00
          3   -1    0    0  501    0  0.00000000000E+00  0.00000000000E+00  0.15583878039E+03  0.15583878039E+03  0.00000000000E+00 0. -1.
         -3   -1    0    0    0  501 -0.00000000000E+00 -0.00000000000E+00 -0.94998587442E+02  0.94998587442E+02  0.00000000000E+00 0.  1.
          5    1    1    2  502    0  0.25492907772E+02 -0.66429481598E+02  0.34343184011E+01  0.71390818142E+02  0.47000000000E+01 0. -1.
         -5    1    1    2    0  502 -0.34359205672E+02  0.24923464023E+02  0.63724548446E+02  0.76711421236E+02  0.47000000000E+01 0. -1.
        -11    1    1    2    0    0  0.21598331605E+01  0.20696213156E+02 -0.49851631948E+02  0.54020212200E+02  0.00000000000E+00 0.  1.
         11    1    1    2    0    0  0.67064647394E+01  0.20809804419E+02  0.43532958050E+02  0.48714916256E+02  0.00000000000E+00 0. -1.
<mgrwt>
<rscale>  0 0.12392361E+03</rscale>
<asrwt>0</asrwt>
<pdfrwt beam="1">  1        3 0.23975197E-01 0.13199985E+03</pdfrwt>
<pdfrwt beam="2">  1       -3 0.14615167E-01 0.13199985E+03</pdfrwt>
<totfact> 0.14400453E+03</totfact>
</mgrwt>
</event>
<event>
 6    1  0.4705246E-006  0.1878881E+03  0.7546771E-02  0.1165238E+00
         -1   -1    0    0    0  501 -0.00000000000E+00  0.00000000000E+00  0.57188328837E+02  0.57188328837E+02  0.00000000000E+00 0.  1.
          1   -1    0    0  501    0  0.00000000000E+00 -0.00000000000E+00 -0.63886975786E+03  0.63886975786E+03  0.00000000000E+00 0. -1.
          5    1    1    2  502    0  0.38109104982E+02  0.10315049995E+02 -0.16088351674E+02  0.42890898784E+02  0.47000000000E+01 0.  1.
         -5    1    1    2    0  502  0.88490908830E+02  0.50117521947E+02 -0.41607517517E+03  0.42834921307E+03  0.47000000000E+01 0.  1.
        -11    1    1    2    0    0 -0.28891149551E+02  0.11224973789E+02  0.17017173826E+01  0.31041816973E+02  0.00000000000E+00 0.  1.
         11    1    1    2    0    0 -0.97708864261E+02 -0.71657545731E+02 -0.15121961957E+03  0.19377615787E+03  0.00000000000E+00 0. -1.
<mgrwt>
<rscale>  0 0.18267601E+03</rscale>
<asrwt>0</asrwt>
<pdfrwt beam="2">  1        1 0.98287657E-01 0.18788808E+03</pdfrwt>
<pdfrwt beam="1">  1       -1 0.87982043E-02 0.18788808E+03</pdfrwt>
<totfact> 0.23699140E+03</totfact>
</mgrwt>
</event>
<event>
 6    1  0.4705246E-006  0.1430807E+03  0.7546771E-02  0.1219858E+00
         -3   -1    0    0    0  501 -0.00000000000E+00  0.00000000000E+00  0.11546448163E+03  0.11546448163E+03  0.00000000000E+00 0.  1.
          3   -1    0    0  501    0  0.00000000000E+00 -0.00000000000E+00 -0.14985233636E+03  0.14985233636E+03  0.00000000000E+00 0. -1.
          5    1    1    2  502    0 -0.39676699630E+02  0.34709070603E+02  0.14795676237E+02  0.54954181924E+02  0.47000000000E+01 0. -1.
         -5    1    1    2    0  502 -0.20198762867E+02 -0.70258545512E+02 -0.61223289077E+02  0.95470594238E+02  0.47000000000E+01 0. -1.
        -11    1    1    2    0    0  0.36565803759E+02  0.74432125088E+01  0.49888916054E+02  0.62300588778E+02  0.00000000000E+00 0.  1.
         11    1    1    2    0    0  0.23309658737E+02  0.28106262400E+02 -0.37849157950E+02  0.52591453052E+02  0.00000000000E+00 0. -1.
<mgrwt>
<rscale>  0 0.13525672E+03</rscale>
<asrwt>0</asrwt>
<pdfrwt beam="2">  1        3 0.23054206E-01 0.14308071E+03</pdfrwt>
<pdfrwt beam="1">  1       -3 0.17763766E-01 0.14308071E+03</pdfrwt>
<totfact> 0.11182688E+03</totfact>
</mgrwt>
</event>
<event>
 6    1  0.4705246E-006  0.1739899E+03  0.7546771E-02  0.1179781E+00
         -1   -1    0    0    0  501 -0.00000000000E+00  0.00000000000E+00  0.49107555949E+02  0.49107555949E+02  0.00000000000E+00 0.  1.
          1   -1    0    0  501    0  0.00000000000E+00 -0.00000000000E+00 -0.54083739826E+03  0.54083739826E+03  0.00000000000E+00 0. -1.
          5    1    1    2  502    0 -0.11787261345E+03  0.57851516059E+01 -0.16353098328E+03  0.20172231774E+03  0.47000000000E+01 0.  1.
         -5    1    1    2    0  502  0.66450941124E+01 -0.53484306200E+02 -0.10757531244E+03  0.12041289853E+03  0.47000000000E+01 0.  1.
        -11    1    1    2    0    0  0.32333237519E+01  0.43310448942E+02 -0.71027431602E+02  0.83253500887E+02  0.00000000000E+00 0.  1.
         11    1    1    2    0    0  0.10799419558E+03  0.43887056521E+01 -0.14959611499E+03  0.18455623705E+03  0.00000000000E+00 0. -1.
<mgrwt>
<rscale>  0 0.16815914E+03</rscale>
<asrwt>0</asrwt>
<pdfrwt beam="2">  1        1 0.83205765E-01 0.17398987E+03</pdfrwt>
<pdfrwt beam="1">  1       -1 0.75550076E-02 0.17398987E+03</pdfrwt>
<totfact> 0.37438256E+03</totfact>
</mgrwt>
</event>
<event>
 6    1  0.4705246E-006  0.1260172E+03  0.7546771E-02  0.1243185E+00
         -1   -1    0    0    0  501 -0.00000000000E+00  0.00000000000E+00  0.94299288537E+02  0.94299288537E+02  0.00000000000E+00 0.  1.
          1   -1    0    0  501    0  0.00000000000E+00 -0.00000000000E+00 -0.14297970668E+03  0.14297970668E+03  0.00000000000E+00 0. -1.
          5    1    1    2  502    0 -0.35929470269E+02  0.16424091815E+02 -0.34972644211E+01  0.39937432118E+02  0.47000000000E+01 0. -1.
         -5    1    1    2    0  502  0.63777051359E+02 -0.54792698930E+02 -0.41396323214E+02  0.93837613523E+02  0.47000000000E+01 0.  1.
        -11    1    1    2    0    0 -0.38270151105E+02  0.46547235137E+02 -0.34935820789E+02  0.69654584477E+02  0.00000000000E+00 0. -1.
         11    1    1    2    0    0  0.10422570015E+02 -0.81786280223E+01  0.31148990282E+02  0.33849365099E+02  0.00000000000E+00 0.  1.
<mgrwt>
<rscale>  0 0.11994684E+03</rscale>
<asrwt>0</asrwt>
<pdfrwt beam="2">  1        1 0.21996878E-01 0.12601718E+03</pdfrwt>
<pdfrwt beam="1">  1       -1 0.14507583E-01 0.12601718E+03</pdfrwt>
<totfact> 0.72094723E+03</totfact>
</mgrwt>
</event>
<event>
 6    1  0.4705246E-006  0.3098505E+03  0.7546771E-02  0.1080418E+00
          2   -1    0    0  501    0  0.00000000000E+00  0.00000000000E+00  0.19519448695E+03  0.19519448695E+03  0.00000000000E+00 0.  1.
         -2   -1    0    0    0  501 -0.00000000000E+00 -0.00000000000E+00 -0.12296366321E+03  0.12296366321E+03  0.00000000000E+00 0. -1.
          5    1    1    2  502    0 -0.20595798436E+02  0.15357654234E+02 -0.65743279737E+01  0.26932438528E+02  0.47000000000E+01 0. -1.
         -5    1    1    2    0  502  0.12053221715E+03 -0.41968551441E+02  0.83731537493E+02  0.15271684600E+03  0.47000000000E+01 0. -1.
        -11    1    1    2    0    0 -0.60798203224E+01  0.40010885261E+02 -0.15013858953E+02  0.43165392564E+02  0.00000000000E+00 0. -1.
         11    1    1    2    0    0 -0.93856598397E+02 -0.13399988054E+02  0.10087473172E+02  0.95343473072E+02  0.00000000000E+00 0.  1.
<mgrwt>
<rscale>  0 0.30985047E+03</rscale>
<asrwt>0</asrwt>
<pdfrwt beam="1">  1        2 0.30029921E-01 0.30985047E+03</pdfrwt>
<pdfrwt beam="2">  1       -2 0.18917487E-01 0.30985047E+03</pdfrwt>
<totfact> 0.40486815E+03</totfact>
</mgrwt>
</event>
<event>
 6    1  0.4705246E-006  0.1359383E+03  0.7546771E-02  0.1231589E+00
          2   -1    0    0  501    0  0.00000000000E+00  0.00000000000E+00  0.51032449833E+03  0.51032449833E+03  0.00000000000E+00 0. -1.
         -2   -1    0    0    0  501 -0.00000000000E+00 -0.00000000000E+00 -0.41124374929E+02  0.41124374929E+02  0.00000000000E+00 0.  1.
          5    1    1    2  502    0 -0.58210553615E+01  0.37737922528E+02  0.19777374198E+03  0.20148096312E+03  0.47000000000E+01 0.  1.
         -5    1    1    2    0  502 -0.82224201184E+01 -0.89279130771E+02  0.21110572985E+03  0.22940377189E+03  0.47000000000E+01 0.  1.
        -11    1    1    2    0    0  0.23072455389E+02 -0.70822954283E+01  0.56133141132E+02  0.61101772802E+02  0.00000000000E+00 0. -1.
         11    1    1    2    0    0 -0.90289799092E+01  0.58623503672E+02  0.41875104422E+01  0.59462365448E+02  0.00000000000E+00 0.  1.
<mgrwt>
<rscale>  0 0.12725372E+03</rscale>
<asrwt>0</asrwt>
<pdfrwt beam="1">  1        2 0.78511457E-01 0.13593834E+03</pdfrwt>
<pdfrwt beam="2">  1       -2 0.63268273E-02 0.13593834E+03</pdfrwt>
<totfact> 0.79331458E+03</totfact>
</mgrwt>
</event>
<event>
 6    1  0.4705246E-006  0.2494043E+03  0.7546771E-02  0.1115830E+00
         -3   -1    0    0    0  501 -0.00000000000E+00  0.00000000000E+00  0.10979237928E+03  0.10979237928E+03  0.00000000000E+00 0.  1.
          3   -1    0    0  501    0  0.00000000000E+00 -0.00000000000E+00 -0.53755439568E+03  0.53755439568E+03  0.00000000000E+00 0. -1.
          5    1    1    2  502    0 -0.74363302226E+02  0.41069267188E+02 -0.62411564915E+02  0.10551719699E+03  0.47000000000E+01 0.  1.
         -5    1    1    2    0  502  0.37022116652E+01  0.16285730574E+03 -0.16731770453E+03  0.23356693399E+03  0.47000000000E+01 0.  1.
        -11    1    1    2    0    0  0.87121677615E+01 -0.82584280302E+02 -0.22453189132E+02  0.86024478623E+02  0.00000000000E+00 0.  1.
         11    1    1    2    0    0  0.61948922799E+02 -0.12134229262E+03 -0.17557955783E+03  0.22223816536E+03  0.00000000000E+00 0. -1.
<mgrwt>
<rscale>  0 0.24604576E+03</rscale>
<asrwt>0</asrwt>
<pdfrwt beam="2">  1        3 0.82700675E-01 0.24940431E+03</pdfrwt>
<pdfrwt beam="1">  1       -3 0.16891136E-01 0.24940431E+03</pdfrwt>
<totfact> 0.10435322E+02</totfact>
</mgrwt>
</event>
<event>
 6    1  0.4705246E-006  0.1402651E+03  0.7546771E-02  0.1224119E+00
         -2   -1    0    0    0  501 -0.00000000000E+00  0.00000000000E+00  0.11511452718E+03  0.11511452718E+03  0.00000000000E+00 0.  1.
          2   -1    0    0  501    0  0.00000000000E+00 -0.00000000000E+00 -0.21736088579E+03  0.21736088579E+03  0.00000000000E+00 0. -1.
          5    1    1    2  502    0  0.50103083145E+02  0.81419849590E+02 -0.87525017415E+02  0.12970053786E+03  0.47000000000E+01 0.  1.
         -5    1    1    2    0  502 -0.65328555289E+00 -0.41365710885E+02 -0.67981727444E+02  0.79719220301E+02  0.47000000000E+01 0.  1.
        -11    1    1    2    0    0 -0.60909442614E+01 -0.99855200687E+01 -0.25614714551E+02  0.28158902936E+02  0.00000000000E+00 0. -1.
         11    1    1    2    0    0 -0.43358853330E+02 -0.30068618637E+02  0.78875100800E+02  0.94896751868E+02  0.00000000000E+00 0.  1.
<mgrwt>
<rscale>  0 0.13227472E+03</rscale>
<asrwt>0</asrwt>
<pdfrwt beam="2">  1        2 0.33440136E-01 0.14026506E+03</pdfrwt>
<pdfrwt beam="1">  1       -2 0.17709927E-01 0.14026506E+03</pdfrwt>
<totfact> 0.38780111E+03</totfact>
</mgrwt>
</event>
<event>
 6    1  0.4705246E-006  0.1195403E+03  0.7546771E-02  0.1255399E+00
          4   -1    0    0  501    0  0.00000000000E+00  0.00000000000E+00  0.17059019127E+03  0.17059019127E+03  0.00000000000E+00 0. -1.
         -4   -1    0    0    0  501 -0.00000000000E+00 -0.00000000000E+00 -0.10595609187E+03  0.10595609187E+03  0.00000000000E+00 0.  1.
          5    1    1    2  502    0 -0.33179481602E+02  0.67855775873E+02  0.81607585392E+02  0.11129767433E+03  0.47000000000E+01 0. -1.
         -5    1    1    2    0  502  0.28952116831E+02 -0.32019161060E+02  0.36134343777E+02  0.56490995248E+02  0.47000000000E+01 0.  1.
        -11    1    1    2    0    0  0.24789312843E+02 -0.57663181152E+02 -0.24698655898E+02  0.67450545550E+02  0.00000000000E+00 0.  1.
         11    1    1    2    0    0 -0.20561948072E+02  0.21826566339E+02 -0.28409173879E+02  0.41307068005E+02  0.00000000000E+00 0. -1.
<mgrwt>
<rscale>  0 0.11283995E+03</rscale>
<asrwt>0</asrwt>
<pdfrwt beam="1">  1        4 0.26244645E-01 0.11954027E+03</pdfrwt>
<pdfrwt beam="2">  1       -4 0.16300937E-01 0.11954027E+03</pdfrwt>
<totfact> 0.71746395E+02</totfact>
</mgrwt>
</event>
<event>
 6    1  0.4705246E-006  0.1486212E+03  0.7546771E-02  0.1210961E+00
         -1   -1    0    0    0  501 -0.00000000000E+00  0.00000000000E+00  0.18992121592E+03  0.18992121592E+03  0.00000000000E+00 0.  1.
          1   -1    0    0  501    0  0.00000000000E+00 -0.00000000000E+00 -0.98666947800E+02  0.98666947800E+02  0.00000000000E+00 0. -1.
          5    1    1    2  502    0  0.41393735986E+02 -0.10125451956E+02  0.13870364765E+02  0.45060439133E+02  0.47000000000E+01 0.  1.
         -5    1    1    2    0  502 -0.90736726041E+02 -0.53470881529E+02  0.18265499478E+02  0.10699536016E+03  0.47000000000E+01 0.  1.
        -11    1    1    2    0    0  0.50386973217E+02  0.81932035053E+02  0.27623245254E+02  0.10007371841E+03  0.00000000000E+00 0. -1.
         11    1    1    2    0    0 -0.10439831621E+01 -0.18335701568E+02  0.31495158620E+02  0.36458646016E+02  0.00000000000E+00 0.  1.
<mgrwt>
<rscale>  0 0.14177450E+03</rscale>
<asrwt>0</asrwt>
<pdfrwt beam="2">  1        1 0.15179531E-01 0.14862117E+03</pdfrwt>
<pdfrwt beam="1">  1       -1 0.29218648E-01 0.14862117E+03</pdfrwt>
<totfact> 0.37844916E+03</totfact>
</mgrwt>
</event>
<event>
 6    1  0.4705246E-006  0.3039837E+03  0.7546771E-02  0.1109884E+00
         -2   -1    0    0    0  501 -0.00000000000E+00  0.00000000000E+00  0.51207463577E+02  0.51207463577E+02  0.00000000000E+00 0.  1.
          2   -1    0    0  501    0  0.00000000000E+00 -0.00000000000E+00 -0.10501197989E+04  0.10501197989E+04  0.00000000000E+00 0. -1.
          5    1    1    2  502    0 -0.83427689378E+02  0.81983377323E+02 -0.65709321705E+03  0.66743916532E+03  0.47000000000E+01 0. -1.
         -5    1    1    2    0  502 -0.28541108327E+02 -0.10590506097E+03 -0.10039158421E+03  0.14876503952E+03  0.47000000000E+01 0.  1.
        -11    1    1    2    0    0  0.10972466462E+03 -0.15498979447E+02 -0.15999683644E+03  0.19462453098E+03  0.00000000000E+00 0.  1.
         11    1    1    2    0    0  0.22441330864E+01  0.39420663090E+02 -0.81430697658E+02  0.90498526688E+02  0.00000000000E+00 0. -1.
<mgrwt>
<rscale>  0 0.25548908E+03</rscale>
<asrwt>0</asrwt>
<pdfrwt beam="2">  1        2 0.16155689E+00 0.30398368E+03</pdfrwt>
<pdfrwt beam="1">  1       -2 0.78780716E-02 0.30398368E+03</pdfrwt>
<totfact> 0.23695470E+03</totfact>
</mgrwt>
</event>
<event>
 6    1  0.4705246E-006  0.1328167E+03  0.7546771E-02  0.1236635E+00
         -1   -1    0    0    0  501 -0.00000000000E+00  0.00000000000E+00  0.39173061151E+02  0.39173061151E+02  0.00000000000E+00 0.  1.
          1   -1    0    0  501    0  0.00000000000E+00 -0.00000000000E+00 -0.53077735489E+03  0.53077735489E+03  0.00000000000E+00 0. -1.
          5    1    1    2  502    0  0.30578468501E+02  0.53760654210E+02 -0.22855839264E+03  0.23682541992E+03  0.47000000000E+01 0. -1.
         -5    1    1    2    0  502 -0.65160813226E+02 -0.25142483852E+02 -0.20517787013E+03  0.21679050824E+03  0.47000000000E+01 0. -1.
        -11    1    1    2    0    0  0.45481005418E+01 -0.58238277315E+02 -0.38156648061E+02  0.69773289692E+02  0.00000000000E+00 0. -1.
         11    1    1    2    0    0  0.30034244183E+02  0.29620106957E+02 -0.19711382913E+02  0.46561198182E+02  0.00000000000E+00 0.  1.
<mgrwt>
<rscale>  0 0.12400368E+03</rscale>
<asrwt>0</asrwt>
<pdfrwt beam="2">  1        1 0.81658050E-01 0.13281666E+03</pdfrwt>
<pdfrwt beam="1">  1       -1 0.60266252E-02 0.13281666E+03</pdfrwt>
<totfact> 0.53231315E+03</totfact>
</mgrwt>
</event>
<event>
 6    1  0.4705246E-006  0.3142066E+03  0.7546771E-02  0.1078347E+00
          1   -1    0    0  501    0  0.00000000000E+00  0.00000000000E+00  0.15622962609E+04  0.15622962609E+04  0.00000000000E+00 0. -1.
         -1   -1    0    0    0  501 -0.00000000000E+00 -0.00000000000E+00 -0.15798190112E+02  0.15798190112E+02  0.00000000000E+00 0.  1.
          5    1    1    2  502    0 -0.63703508236E+01  0.70629457205E+02  0.35329700586E+03  0.36037475764E+03  0.47000000000E+01 0.  1.
         -5    1    1    2    0  502 -0.35161783407E+01 -0.13349992746E+02  0.96509505059E+03  0.96520522817E+03  0.47000000000E+01 0.  1.
        -11    1    1    2    0    0  0.50596802215E+02 -0.34024450897E+02  0.14027145472E+03  0.15295025552E+03  0.00000000000E+00 0.  1.
         11    1    1    2    0    0 -0.40710273051E+02 -0.23255013563E+02  0.87834559663E+02  0.99564209729E+02  0.00000000000E+00 0. -1.
<mgrwt>
<rscale>  0 0.31420664E+03</rscale>
<asrwt>0</asrwt>
<pdfrwt beam="1">  1        1 0.24035315E+00 0.31420664E+03</pdfrwt>
<pdfrwt beam="2">  1       -1 0.24304920E-02 0.31420664E+03</pdfrwt>
<totfact> 0.33530858E+03</totfact>
</mgrwt>
</event>
<event>
 6    1  0.4705246E-006  0.1340523E+03  0.7546771E-02  0.1234483E+00
         -3   -1    0    0    0  501 -0.00000000000E+00  0.00000000000E+00  0.26137489291E+03  0.26137489291E+03  0.00000000000E+00 0.  1.
          3   -1    0    0  501    0  0.00000000000E+00 -0.00000000000E+00 -0.69629412260E+02  0.69629412260E+02  0.00000000000E+00 0. -1.
          5    1    1    2  502    0 -0.26067213824E+02 -0.37563870937E+02  0.39836728923E+02  0.60824329076E+02  0.47000000000E+01 0. -1.
         -5    1    1    2    0  502 -0.54229142794E+01  0.74371805460E+02 -0.13130902742E+02  0.75862270289E+02  0.47000000000E+01 0. -1.
        -11    1    1    2    0    0 -0.27733005032E+02 -0.24568390738E+02  0.93912299231E+02  0.10095665079E+03  0.00000000000E+00 0.  1.
         11    1    1    2    0    0  0.59223133135E+02 -0.12239543786E+02  0.71127355238E+02  0.93361055015E+02  0.00000000000E+00 0. -1.
<mgrwt>
<rscale>  0 0.12537598E+03</rscale>
<asrwt>0</asrwt>
<pdfrwt beam="2">  1        3 0.10712217E-01 0.13405232E+03</pdfrwt>
<pdfrwt beam="1">  1       -3 0.40211521E-01 0.13405232E+03</pdfrwt>
<totfact> 0.93105917E+02</totfact>
</mgrwt>
</event>
<event>
 6    1  0.4705246E-006  0.1973151E+03  0.7546771E-02  0.1156124E+00
          1   -1    0    0  501    0  0.00000000000E+00  0.00000000000E+00  0.11137751466E+04  0.11137751466E+04  0.00000000000E+00 0. -1.
         -1   -1    0    0    0  501 -0.00000000000E+00 -0.00000000000E+00 -0.31818031245E+02  0.31818031245E+02  0.00000000000E+00 0.  1.
          5    1    1    2  502    0  0.32406910617E+02  0.80454054126E+02  0.24951378074E+03  0.26420121018E+03  0.47000000000E+01 0.  1.
         -5    1    1    2    0  502  0.10829951586E+03 -0.21168744190E+02  0.31343517269E+03  0.33232604223E+03  0.47000000000E+01 0.  1.
        -11    1    1    2    0    0 -0.49469022163E+02  0.83239553942E+01  0.71287565814E+02  0.87168741111E+02  0.00000000000E+00 0.  1.
         11    1    1    2    0    0 -0.91237404314E+02 -0.67609265331E+02  0.44772059615E+03  0.46189718437E+03  0.00000000000E+00 0. -1.
<mgrwt>
<rscale>  0 0.19261493E+03</rscale>
<asrwt>0</asrwt>
<pdfrwt beam="1">  1        1 0.17134999E+00 0.19731507E+03</pdfrwt>
<pdfrwt beam="2">  1       -1 0.48950826E-02 0.19731507E+03</pdfrwt>
<totfact> 0.23872747E+03</totfact>
</mgrwt>
</event>
<event>
 6    1  0.4705246E-006  0.1349799E+03  0.7546771E-02  0.1232007E+00
         -1   -1    0    0    0  501 -0.00000000000E+00  0.00000000000E+00  0.13704647321E+03  0.13704647321E+03  0.00000000000E+00 0.  1.
          1   -1    0    0  501    0  0.00000000000E+00 -0.00000000000E+00 -0.10609343964E+03  0.10609343964E+03  0.00000000000E+00 0. -1.
          5    1    1    2  502    0 -0.46694796917E+02  0.59340643412E+01 -0.15541864774E+02  0.49792135317E+02  0.47000000000E+01 0. -1.
         -5    1    1    2    0  502  0.71909421213E+02  0.38477238474E+02  0.25390386529E+02  0.85546621604E+02  0.47000000000E+01 0. -1.
        -11    1    1    2    0    0 -0.45623152971E+02 -0.26681127002E+02 -0.21733113201E+02  0.57146153278E+02  0.00000000000E+00 0. -1.
         11    1    1    2    0    0  0.20408528675E+02 -0.17730175813E+02  0.42837625010E+02  0.50655002650E+02  0.00000000000E+00 0.  1.
<mgrwt>
<rscale>  0 0.12698026E+03</rscale>
<asrwt>0</asrwt>
<pdfrwt beam="2">  1        1 0.16322068E-01 0.13497995E+03</pdfrwt>
<pdfrwt beam="1">  1       -1 0.21084073E-01 0.13497995E+03</pdfrwt>
<totfact> 0.58575925E+03</totfact>
</mgrwt>
</event>
<event>
 6    1  0.4705246E-006  0.1291051E+03  0.7546771E-02  0.1244271E+00
          1   -1    0    0  501    0  0.00000000000E+00  0.00000000000E+00  0.54570839418E+03  0.54570839418E+03  0.00000000000E+00 0.  1.
         -1   -1    0    0    0  501 -0.00000000000E+00 -0.00000000000E+00 -0.22824496492E+02  0.22824496492E+02  0.00000000000E+00 0. -1.
          5    1    1    2  502    0  0.37366394606E+02  0.47837006884E+02  0.29235969694E+03  0.29863172817E+03  0.47000000000E+01 0. -1.
         -5    1    1    2    0  502 -0.18218578299E+02 -0.21834035955E+02  0.10634761766E+02  0.30721814385E+02  0.47000000000E+01 0. -1.
        -11    1    1    2    0    0 -0.40255565225E+02 -0.46679429638E+02  0.11851022467E+03  0.13358200865E+03  0.00000000000E+00 0.  1.
         11    1    1    2    0    0  0.21107748918E+02  0.20676458708E+02  0.10137921431E+03  0.10559733947E+03  0.00000000000E+00 0. -1.
<mgrwt>
<rscale>  0 0.11929120E+03</rscale>
<asrwt>0</asrwt>
<pdfrwt beam="1">  1        1 0.83955128E-01 0.12910505E+03</pdfrwt>
<pdfrwt beam="2">  1       -1 0.35114614E-02 0.12910505E+03</pdfrwt>
<totfact> 0.11355681E+04</totfact>
</mgrwt>
</event>
<event>
 6    1  0.4705246E-006  0.1690615E+03  0.7546771E-02  0.1185625E+00
          3   -1    0    0  501    0  0.00000000000E+00  0.00000000000E+00  0.12880608678E+03  0.12880608678E+03  0.00000000000E+00 0. -1.
         -3   -1    0    0    0  501 -0.00000000000E+00 -0.00000000000E+00 -0.34347818988E+03  0.34347818988E+03  0.00000000000E+00 0.  1.
          5    1    1    2  502    0  0.10381127728E+02  0.25907315685E+02  0.96646809319E+01  0.29907405043E+02  0.47000000000E+01 0.  1.
         -5    1    1    2    0  502 -0.17201213099E+02 -0.13953349574E+03  0.35181596891E+02  0.14500107905E+03  0.47000000000E+01 0.  1.
        -11    1    1    2    0    0 -0.68186085199E+01  0.11275972222E+03 -0.26022951358E+03  0.28369111391E+03  0.00000000000E+00 0.  1.
         11    1    1    2    0    0  0.13638693891E+02  0.86645783189E+00  0.71113265049E+00  0.13684678655E+02  0.00000000000E+00 0. -1.
<mgrwt>
<rscale>  0 0.16275112E+03</rscale>
<asrwt>0</asrwt>
<pdfrwt beam="1">  1        3 0.19816321E-01 0.16906150E+03</pdfrwt>
<pdfrwt beam="2">  1       -3 0.52842798E-01 0.16906150E+03</pdfrwt>
<totfact> 0.19547528E+02</totfact>
</mgrwt>
</event>
<event>
 6    1  0.4705246E-006  0.1590478E+03  0.7546771E-02  0.1198562E+00
          2   -1    0    0  501    0  0.00000000000E+00  0.00000000000E+00  0.19438250463E+03  0.19438250463E+03  0.00000000000E+00 0. -1.
         -2   -1    0    0    0  501 -0.00000000000E+00 -0.00000000000E+00 -0.10840364769E+03  0.10840364769E+03  0.00000000000E+00 0.  1.
          5    1    1    2  502    0  0.78992686398E+02  0.42156886359E+02  0.18440255757E+02  0.91537864320E+02  0.47000000000E+01 0. -1.
         -5    1    1    2    0  502 -0.45584315101E+02  0.50337216173E+02  0.32781652218E+02  0.75554561989E+02  0.47000000000E+01 0. -1.
        -11    1    1    2    0    0  0.25018340267E+02 -0.49134465790E+01  0.10987548767E+02  0.27763024599E+02  0.00000000000E+00 0. -1.
         11    1    1    2    0    0 -0.58426711564E+02 -0.87580655953E+02  0.23769400204E+02  0.10793070141E+03  0.00000000000E+00 0.  1.
<mgrwt>
<rscale>  0 0.15156598E+03</rscale>
<asrwt>0</asrwt>
<pdfrwt beam="1">  1        2 0.29905001E-01 0.15904778E+03</pdfrwt>
<pdfrwt beam="2">  1       -2 0.16677484E-01 0.15904778E+03</pdfrwt>
<totfact> 0.48700357E+03</totfact>
</mgrwt>
</event>
<event>
 6    1  0.4705246E-006  0.4414675E+03  0.7546771E-02  0.1030298E+00
          4   -1    0    0  501    0  0.00000000000E+00  0.00000000000E+00  0.15699209624E+03  0.15699209624E+03  0.00000000000E+00 0. -1.
         -4   -1    0    0    0  501 -0.00000000000E+00 -0.00000000000E+00 -0.31035566333E+03  0.31035566333E+03  0.00000000000E+00 0.  1.
          5    1    1    2  502    0 -0.29206486938E+02  0.29599383885E+01  0.11859137357E+02  0.32007956095E+02  0.47000000000E+01 0.  1.
         -5    1    1    2    0  502  0.82592442885E+02  0.16116171252E+03 -0.45807121372E+01  0.18121170527E+03  0.47000000000E+01 0.  1.
        -11    1    1    2    0    0  0.24090000106E+01 -0.13198542392E+03 -0.11648791997E+03  0.17605507918E+03  0.00000000000E+00 0.  1.
         11    1    1    2    0    0 -0.55794955957E+02 -0.32136226989E+02 -0.44154072341E+02  0.78073019025E+02  0.00000000000E+00 0. -1.
<mgrwt>
<rscale>  0 0.44146749E+03</rscale>
<asrwt>0</asrwt>
<pdfrwt beam="1">  1        4 0.24152630E-01 0.44146749E+03</pdfrwt>
<pdfrwt beam="2">  1       -4 0.47747025E-01 0.44146749E+03</pdfrwt>
<totfact> 0.13285593E+02</totfact>
</mgrwt>
</event>
<event>
 6    1  0.4705246E-006  0.1936846E+03  0.7546771E-02  0.1159796E+00
         -1   -1    0    0    0  501 -0.00000000000E+00  0.00000000000E+00  0.23049561792E+03  0.23049561792E+03  0.00000000000E+00 0.  1.
          1   -1    0    0  501    0  0.00000000000E+00 -0.00000000000E+00 -0.17747358208E+03  0.17747358208E+03  0.00000000000E+00 0. -1.
          5    1    1    2  502    0  0.73836992069E+02  0.41325287586E+02 -0.73288249099E+02  0.11203989579E+03  0.47000000000E+01 0.  1.
         -5    1    1    2    0  502 -0.27504871259E+01  0.88385080988E+02  0.15897921711E+02  0.89968447999E+02  0.47000000000E+01 0.  1.
        -11    1    1    2    0    0 -0.88518865322E+02 -0.85588569927E+02  0.60822510523E+02  0.13733306450E+03  0.00000000000E+00 0. -1.
         11    1    1    2    0    0  0.17432360379E+02 -0.44121798648E+02  0.49589852708E+02  0.68627791716E+02  0.00000000000E+00 0.  1.
<mgrwt>
<rscale>  0 0.18852730E+03</rscale>
<asrwt>0</asrwt>
<pdfrwt beam="2">  1        1 0.27303628E-01 0.19368459E+03</pdfrwt>
<pdfrwt beam="1">  1       -1 0.35460864E-01 0.19368459E+03</pdfrwt>
<totfact> 0.12970516E+03</totfact>
</mgrwt>
</event>
<event>
 6    1  0.4705246E-006  0.1224729E+03  0.7546771E-02  0.1249566E+00
         -2   -1    0    0    0  501 -0.00000000000E+00  0.00000000000E+00  0.59947950620E+02  0.59947950620E+02  0.00000000000E+00 0.  1.
          2   -1    0    0  501    0  0.00000000000E+00 -0.00000000000E+00 -0.18736151350E+04  0.18736151350E+04  0.00000000000E+00 0. -1.
          5    1    1    2  502    0  0.53602209912E+02 -0.17165478881E+02 -0.15128219960E+04  0.15138759302E+04  0.47000000000E+01 0. -1.
         -5    1    1    2    0  502 -0.29037070124E+02  0.32685236397E+02 -0.31632900087E+03  0.31937063564E+03  0.47000000000E+01 0.  1.
        -11    1    1    2    0    0 -0.42980291622E+02  0.22882723904E+02 -0.11324954349E+02  0.49991790448E+02  0.00000000000E+00 0. -1.
         11    1    1    2    0    0  0.18415151834E+02 -0.38402481420E+02  0.26808766855E+02  0.50324729275E+02  0.00000000000E+00 0.  1.
<mgrwt>
<rscale>  0 0.11616199E+03</rscale>
<asrwt>0</asrwt>
<pdfrwt beam="2">  1        2 0.28824846E+00 0.12247286E+03</pdfrwt>
<pdfrwt beam="1">  1       -2 0.92227623E-02 0.12247286E+03</pdfrwt>
<totfact> 0.67398752E+02</totfact>
</mgrwt>
</event>
<event>
 6    1  0.4705246E-006  0.1273664E+03  0.7546771E-02  0.1247369E+00
         -1   -1    0    0    0  501 -0.00000000000E+00  0.00000000000E+00  0.28847885167E+03  0.28847885167E+03  0.00000000000E+00 0.  1.
          1   -1    0    0  501    0  0.00000000000E+00 -0.00000000000E+00 -0.48625528626E+02  0.48625528626E+02  0.00000000000E+00 0. -1.
          5    1    1    2  502    0 -0.29697694784E+01  0.30921277448E+02 -0.28759020625E+02  0.42592442958E+02  0.47000000000E+01 0.  1.
         -5    1    1    2    0  502  0.16925776968E+02 -0.11069627018E+02  0.10249754335E+03  0.10457941939E+03  0.47000000000E+01 0.  1.
        -11    1    1    2    0    0  0.19002817353E+02 -0.20598763645E+02  0.15115269678E+03  0.15372883228E+03  0.00000000000E+00 0.  1.
         11    1    1    2    0    0 -0.32958824842E+02  0.74711321515E+00  0.14962103540E+02  0.36203685661E+02  0.00000000000E+00 0. -1.
<mgrwt>
<rscale>  0 0.11744702E+03</rscale>
<asrwt>0</asrwt>
<pdfrwt beam="2">  1        1 0.74808507E-02 0.12736635E+03</pdfrwt>
<pdfrwt beam="1">  1       -1 0.44381361E-01 0.12736635E+03</pdfrwt>
<totfact> 0.46404079E+03</totfact>
</mgrwt>
</event>
<event>
 6    1  0.4705246E-006  0.1299743E+03  0.7546771E-02  0.1240822E+00
         -1   -1    0    0    0  501 -0.00000000000E+00  0.00000000000E+00  0.43987749223E+02  0.43987749223E+02  0.00000000000E+00 0.  1.
          1   -1    0    0  501    0  0.00000000000E+00 -0.00000000000E+00 -0.33768563938E+03  0.33768563938E+03  0.00000000000E+00 0. -1.
          5    1    1    2  502    0  0.12579908159E+02  0.20677396025E+02 -0.23863493229E+03  0.23990525151E+03  0.47000000000E+01 0.  1.
         -5    1    1    2    0  502  0.20386305019E+02 -0.71916477987E+01  0.90624628793E+01  0.23906891555E+02  0.47000000000E+01 0.  1.
        -11    1    1    2    0    0 -0.50988176043E+02 -0.35848347686E+02 -0.20467811877E+02  0.65603578035E+02  0.00000000000E+00 0.  1.
         11    1    1    2    0    0  0.18021962865E+02  0.22362599460E+02 -0.43657608866E+02  0.52257667495E+02  0.00000000000E+00 0. -1.
<mgrwt>
<rscale>  0 0.12138951E+03</rscale>
<asrwt>0</asrwt>
<pdfrwt beam="2">  1        1 0.51951638E-01 0.12997434E+03</pdfrwt>
<pdfrwt beam="1">  1       -1 0.67673459E-02 0.12997434E+03</pdfrwt>
<totfact> 0.79496340E+03</totfact>
</mgrwt>
</event>
<event>
 6    1  0.4705246E-006  0.4009288E+03  0.7546771E-02  0.1043459E+00
          2   -1    0    0  501    0  0.00000000000E+00  0.00000000000E+00  0.81694403708E+02  0.81694403708E+02  0.00000000000E+00 0. -1.
         -2   -1    0    0    0  501 -0.00000000000E+00 -0.00000000000E+00 -0.49190599651E+03  0.49190599651E+03  0.00000000000E+00 0.  1.
          5    1    1    2  502    0 -0.58716084209E+01 -0.31474929600E+02 -0.73521988342E+02  0.80328822651E+02  0.47000000000E+01 0.  1.
         -5    1    1    2    0  502 -0.15162875263E+03  0.27750234244E+01 -0.62401298014E+02  0.16405789031E+03  0.47000000000E+01 0.  1.
        -11    1    1    2    0    0  0.88645274274E+02  0.50224931045E+02 -0.20628224885E+03  0.23007149876E+03  0.00000000000E+00 0.  1.
         11    1    1    2    0    0  0.68855086778E+02 -0.21525024869E+02 -0.68006057593E+02  0.99142188498E+02  0.00000000000E+00 0. -1.
<mgrwt>
<rscale>  0 0.40092876E+03</rscale>
<asrwt>0</asrwt>
<pdfrwt beam="1">  1        2 0.12568370E-01 0.40092876E+03</pdfrwt>
<pdfrwt beam="2">  1       -2 0.75677844E-01 0.40092876E+03</pdfrwt>
<totfact> 0.78242557E+02</totfact>
</mgrwt>
</event>
<event>
 6    1  0.4705246E-006  0.3014841E+03  0.7546771E-02  0.1128210E+00
         -1   -1    0    0    0  501 -0.00000000000E+00  0.00000000000E+00  0.68138315843E+02  0.68138315843E+02  0.00000000000E+00 0.  1.
          1   -1    0    0  501    0  0.00000000000E+00 -0.00000000000E+00 -0.68257256489E+03  0.68257256489E+03  0.00000000000E+00 0. -1.
          5    1    1    2  502    0 -0.14085047372E+03  0.14531553907E+02 -0.37095913161E+03  0.39709292279E+03  0.47000000000E+01 0. -1.
         -5    1    1    2    0  502  0.14465124429E+03  0.25173019034E+02 -0.19479882063E+03  0.24398019157E+03  0.47000000000E+01 0.  1.
        -11    1    1    2    0    0  0.32337818900E+02  0.49781252614E+01  0.23265683873E+01  0.32801359466E+02  0.00000000000E+00 0.  1.
         11    1    1    2    0    0 -0.36138589467E+02 -0.44682698203E+02 -0.51002865204E+02  0.76836406907E+02  0.00000000000E+00 0. -1.
<mgrwt>
<rscale>  0 0.22778242E+03</rscale>
<asrwt>0</asrwt>
<pdfrwt beam="2">  1        1 0.10501116E+00 0.30148412E+03</pdfrwt>
<pdfrwt beam="1">  1       -1 0.10482818E-01 0.30148412E+03</pdfrwt>
<totfact> 0.16571062E+03</totfact>
</mgrwt>
</event>
<event>
 6    1  0.4705246E-006  0.1190464E+03  0.7546771E-02  0.1255577E+00
          2   -1    0    0  501    0  0.00000000000E+00  0.00000000000E+00  0.14080575821E+04  0.14080575821E+04  0.00000000000E+00 0. -1.
         -2   -1    0    0    0  501 -0.00000000000E+00 -0.00000000000E+00 -0.96692682064E+01  0.96692682064E+01  0.00000000000E+00 0.  1.
          5    1    1    2  502    0  0.36885389543E+02  0.21560630729E+02  0.73390996139E+03  0.73516754158E+03  0.47000000000E+01 0. -1.
         -5    1    1    2    0  502 -0.58172025922E+02 -0.24074657456E+01  0.30518095335E+03  0.31072058957E+03  0.47000000000E+01 0.  1.
        -11    1    1    2    0    0  0.42813529338E+02  0.16923356946E+02  0.25961524647E+03  0.26366545944E+03  0.00000000000E+00 0. -1.
         11    1    1    2    0    0 -0.21526892960E+02 -0.36076521930E+02  0.99682152672E+02  0.10817325971E+03  0.00000000000E+00 0.  1.
<mgrwt>
<rscale>  0 0.11274051E+03</rscale>
<asrwt>0</asrwt>
<pdfrwt beam="1">  1        2 0.21662408E+00 0.11904644E+03</pdfrwt>
<pdfrwt beam="2">  1       -2 0.14875808E-02 0.11904644E+03</pdfrwt>
<totfact> 0.17485065E+04</totfact>
</mgrwt>
</event>
<event>
 6    1  0.4705246E-006  0.1347679E+03  0.7546771E-02  0.1233519E+00
          2   -1    0    0  501    0  0.00000000000E+00  0.00000000000E+00  0.21385027080E+03  0.21385027080E+03  0.00000000000E+00 0. -1.
         -2   -1    0    0    0  501 -0.00000000000E+00 -0.00000000000E+00 -0.12899798874E+03  0.12899798874E+03  0.00000000000E+00 0.  1.
          5    1    1    2  502    0 -0.32602568376E+02 -0.25578598833E+02  0.90169185588E+02  0.99346686973E+02  0.47000000000E+01 0. -1.
         -5    1    1    2    0  502  0.40089782357E+02  0.75399116671E+02  0.74343791615E+02  0.11331948992E+03  0.47000000000E+01 0. -1.
        -11    1    1    2    0    0  0.36968466933E+02 -0.11126843158E+01 -0.27038429280E+02  0.45814651278E+02  0.00000000000E+00 0.  1.
         11    1    1    2    0    0 -0.44455680914E+02 -0.48707833522E+02 -0.52622265855E+02  0.84367431368E+02  0.00000000000E+00 0. -1.
<mgrwt>
<rscale>  0 0.12599722E+03</rscale>
<asrwt>0</asrwt>
<pdfrwt beam="1">  1        2 0.32900042E-01 0.13476789E+03</pdfrwt>
<pdfrwt beam="2">  1       -2 0.19845844E-01 0.13476789E+03</pdfrwt>
<totfact> 0.32533306E+03</totfact>
</mgrwt>
</event>
<event>
 6    1  0.4705246E-006  0.3712622E+03  0.7546771E-02  0.1054211E+00
         -2   -1    0    0    0  501 -0.00000000000E+00  0.00000000000E+00  0.36311922182E+02  0.36311922182E+02  0.00000000000E+00 0.  1.
          2   -1    0    0  501    0  0.00000000000E+00 -0.00000000000E+00 -0.94896947009E+03  0.94896947009E+03  0.00000000000E+00 0. -1.
          5    1    1    2  502    0  0.75206636105E+02 -0.52460116782E+02 -0.79292349366E+03  0.79822168522E+03  0.47000000000E+01 0. -1.
         -5    1    1    2    0  502  0.33959928290E+01  0.26617075591E+01  0.29110082643E+01  0.70129468513E+01  0.47000000000E+01 0. -1.
        -11    1    1    2    0    0 -0.51921165278E+02 -0.13431231980E+02 -0.88283282190E+02  0.10329638576E+03  0.00000000000E+00 0. -1.
         11    1    1    2    0    0 -0.26681463656E+02  0.63229641203E+02 -0.34361780325E+02  0.76750374439E+02  0.00000000000E+00 0.  1.
<mgrwt>
<rscale>  0 0.37126220E+03</rscale>
<asrwt>0</asrwt>
<pdfrwt beam="2">  1        2 0.14599528E+00 0.37126220E+03</pdfrwt>
<pdfrwt beam="1">  1       -2 0.55864503E-02 0.37126220E+03</pdfrwt>
<totfact> 0.46895629E+03</totfact>
</mgrwt>
</event>
<event>
 6    1  0.4705246E-006  0.1609848E+03  0.7546771E-02  0.1194844E+00
         -2   -1    0    0    0  501 -0.00000000000E+00  0.00000000000E+00  0.13491709669E+03  0.13491709669E+03  0.00000000000E+00 0.  1.
          2   -1    0    0  501    0  0.00000000000E+00 -0.00000000000E+00 -0.17108323668E+03  0.17108323668E+03  0.00000000000E+00 0. -1.
          5    1    1    2  502    0  0.24636142462E+02 -0.17215456699E+02 -0.93399196879E+01  0.31821935274E+02  0.47000000000E+01 0.  1.
         -5    1    1    2    0  502 -0.86961870512E+02  0.97275569707E+02 -0.39494639534E+02  0.13640681778E+03  0.47000000000E+01 0.  1.
        -11    1    1    2    0    0  0.29801981271E+02  0.14695445973E+02  0.17340605732E+02  0.37480806117E+02  0.00000000000E+00 0.  1.
         11    1    1    2    0    0  0.32523746779E+02 -0.94755558981E+02 -0.46721865011E+01  0.10029077420E+03  0.00000000000E+00 0. -1.
<mgrwt>
<rscale>  0 0.15467409E+03</rscale>
<asrwt>0</asrwt>
<pdfrwt beam="2">  1        2 0.26320498E-01 0.16098478E+03</pdfrwt>
<pdfrwt beam="1">  1       -2 0.20756476E-01 0.16098478E+03</pdfrwt>
<totfact> 0.38784032E+03</totfact>
</mgrwt>
</event>
<event>
 6    1  0.6552470E-006  0.3746969E+03  0.7546771E-02  0.1053920E+00
          1   -1    0    0  501    0  0.00000000000E+00  0.00000000000E+00  0.16366963401E+04  0.16366963401E+04  0.00000000000E+00 0. -1.
         -1   -1    0    0    0  501 -0.00000000000E+00 -0.00000000000E+00 -0.16028363418E+03  0.16028363418E+03  0.00000000000E+00 0.  1.
          5    1    1    2  502    0 -0.27916615900E+03 -0.32358408925E+02  0.12359804315E+04  0.12675371900E+04  0.47000000000E+01 0.  1.
         -5    1    1    2    0  502 -0.70848390891E+02 -0.15203530133E+02  0.13003293384E+03  0.14893386352E+03  0.47000000000E+01 0.  1.
        -11    1    1    2    0    0  0.16581333015E+03 -0.11391517878E+02  0.21288135446E+02  0.16756196420E+03  0.00000000000E+00 0.  1.
         11    1    1    2    0    0  0.18420121974E+03  0.58953456936E+02  0.89111205169E+02  0.21294695660E+03  0.00000000000E+00 0. -1.
<mgrwt>
<rscale>  0 0.37202967E+03</rscale>
<asrwt>0</asrwt>
<pdfrwt beam="1">  1        1 0.25179942E+00 0.37469685E+03</pdfrwt>
<pdfrwt beam="2">  1       -1 0.24659022E-01 0.37469685E+03</pdfrwt>
<totfact> 0.81635488E+01</totfact>
</mgrwt>
</event>
<event>
 6    1  0.4705246E-006  0.1282502E+03  0.7546771E-02  0.1244145E+00
         -1   -1    0    0    0  501 -0.00000000000E+00  0.00000000000E+00  0.31744065479E+02  0.31744065479E+02  0.00000000000E+00 0.  1.
          1   -1    0    0  501    0  0.00000000000E+00 -0.00000000000E+00 -0.40190481733E+03  0.40190481733E+03  0.00000000000E+00 0. -1.
          5    1    1    2  502    0  0.52031037229E+02  0.40425632357E+02 -0.15795438020E+03  0.17121079642E+03  0.47000000000E+01 0.  1.
         -5    1    1    2    0  502 -0.56661282448E+02 -0.12107051970E+02 -0.77142763100E+02  0.96592844118E+02  0.47000000000E+01 0.  1.
        -11    1    1    2    0    0  0.28107032881E+02  0.64310829310E+01 -0.50973287816E+01  0.29280486433E+02  0.00000000000E+00 0.  1.
         11    1    1    2    0    0 -0.23476787662E+02 -0.34749663318E+02 -0.12996627978E+03  0.13656475584E+03  0.00000000000E+00 0. -1.
<mgrwt>
<rscale>  0 0.11936705E+03</rscale>
<asrwt>0</asrwt>
<pdfrwt beam="2">  1        1 0.61831509E-01 0.12825024E+03</pdfrwt>
<pdfrwt beam="1">  1       -1 0.48837025E-02 0.12825024E+03</pdfrwt>
<totfact> 0.10371198E+04</totfact>
</mgrwt>
</event>
<event>
 6    1  0.4705246E-006  0.1712457E+03  0.7546771E-02  0.1184489E+00
         -1   -1    0    0    0  501 -0.00000000000E+00  0.00000000000E+00  0.49088426709E+03  0.49088426709E+03  0.00000000000E+00 0.  1.
          1   -1    0    0  501    0  0.00000000000E+00 -0.00000000000E+00 -0.55408866800E+02  0.55408866800E+02  0.00000000000E+00 0. -1.
          5    1    1    2  502    0 -0.54391032925E+02  0.23128047468E+02  0.75747352238E+02  0.96192735762E+02  0.47000000000E+01 0. -1.
         -5    1    1    2    0  502 -0.29609017343E+02 -0.10464393440E+03  0.77648348324E+02  0.13371014513E+03  0.47000000000E+01 0. -1.
        -11    1    1    2    0    0  0.61629948091E+02  0.83928256354E+02  0.15116837412E+03  0.18355947279E+03  0.00000000000E+00 0. -1.
         11    1    1    2    0    0  0.22370102176E+02 -0.24123694235E+01  0.13091132560E+03  0.13283078020E+03  0.00000000000E+00 0.  1.
<mgrwt>
<rscale>  0 0.16378478E+03</rscale>
<asrwt>0</asrwt>
<pdfrwt beam="2">  1        1 0.85244414E-02 0.17124571E+03</pdfrwt>
<pdfrwt beam="1">  1       -1 0.75520654E-01 0.17124571E+03</pdfrwt>
<totfact> 0.14441883E+03</totfact>
</mgrwt>
</event>
<event>
 6    1  0.4705246E-006  0.1389618E+03  0.7546771E-02  0.1224583E+00
         -1   -1    0    0    0  501 -0.00000000000E+00  0.00000000000E+00  0.11023475269E+03  0.11023475269E+03  0.00000000000E+00 0.  1.
          1   -1    0    0  501    0  0.00000000000E+00 -0.00000000000E+00 -0.16344961247E+03  0.16344961247E+03  0.00000000000E+00 0. -1.
          5    1    1    2  502    0 -0.71647221229E+02  0.16276156077E+02 -0.18367185958E+02  0.75879385122E+02  0.47000000000E+01 0. -1.
         -5    1    1    2    0  502  0.35146225315E+02  0.47186781879E+02 -0.57687916744E+02  0.82533843218E+02  0.47000000000E+01 0.  1.
        -11    1    1    2    0    0  0.46766192607E+02 -0.62945129299E+02  0.45307442169E+02  0.90564509546E+02  0.00000000000E+00 0.  1.
         11    1    1    2    0    0 -0.10265196693E+02 -0.51780865784E+00 -0.22467199254E+02  0.24706627274E+02  0.00000000000E+00 0. -1.
<mgrwt>
<rscale>  0 0.13195545E+03</rscale>
<asrwt>0</asrwt>
<pdfrwt beam="2">  1        1 0.25146094E-01 0.13896177E+03</pdfrwt>
<pdfrwt beam="1">  1       -1 0.16959193E-01 0.13896177E+03</pdfrwt>
<totfact> 0.47979190E+03</totfact>
</mgrwt>
</event>
<event>
 6    1  0.4705246E-006  0.1440823E+03  0.7546771E-02  0.1215316E+00
          1   -1    0    0  501    0  0.00000000000E+00  0.00000000000E+00  0.62890256102E+02  0.62890256102E+02  0.00000000000E+00 0. -1.
         -1   -1    0    0    0  501 -0.00000000000E+00 -0.00000000000E+00 -0.53116468690E+03  0.53116468690E+03  0.00000000000E+00 0.  1.
          5    1    1    2  502    0  0.42593676675E+02  0.36623939360E+01 -0.60649662364E+02  0.74351233796E+02  0.47000000000E+01 0.  1.
         -5    1    1    2    0  502 -0.29528088711E+02  0.66790168459E+02  0.19049835592E+02  0.75616273789E+02  0.47000000000E+01 0.  1.
        -11    1    1    2    0    0  0.33551014291E+02 -0.67653647985E+02 -0.28921629102E+03  0.29891261204E+03  0.00000000000E+00 0.  1.
         11    1    1    2    0    0 -0.46616602256E+02 -0.27989144095E+01 -0.13745831300E+03  0.14517482337E+03  0.00000000000E+00 0. -1.
<mgrwt>
<rscale>  0 0.13853327E+03</rscale>
<asrwt>0</asrwt>
<pdfrwt beam="1">  1        1 0.96754243E-02 0.14408230E+03</pdfrwt>
<pdfrwt beam="2">  1       -1 0.81717641E-01 0.14408230E+03</pdfrwt>
<totfact> 0.10325693E+03</totfact>
</mgrwt>
</event>
<event>
 6    1  0.4705246E-006  0.1518535E+03  0.7546771E-02  0.1206369E+00
          1   -1    0    0  501    0  0.00000000000E+00  0.00000000000E+00  0.13724201246E+04  0.13724201246E+04  0.00000000000E+00 0. -1.
         -1   -1    0    0    0  501 -0.00000000000E+00 -0.00000000000E+00 -0.14350600317E+02  0.14350600317E+02  0.00000000000E+00 0.  1.
          5    1    1    2  502    0  0.57389467481E+02 -0.13535533208E+02  0.77896594986E+03  0.78120855261E+03  0.47000000000E+01 0. -1.
         -5    1    1    2    0  502  0.22452554412E+02 -0.18884753254E+02  0.31272341840E+02  0.43136996526E+02  0.47000000000E+01 0. -1.
        -11    1    1    2    0    0 -0.71563254146E+02 -0.19423614448E+02  0.34798316115E+03  0.35579608849E+03  0.00000000000E+00 0.  1.
         11    1    1    2    0    0 -0.82787677472E+01  0.51843900910E+02  0.19984807146E+03  0.20662908731E+03  0.00000000000E+00 0. -1.
<mgrwt>
<rscale>  0 0.14530085E+03</rscale>
<asrwt>0</asrwt>
<pdfrwt beam="1">  1        1 0.21114145E+00 0.15185353E+03</pdfrwt>
<pdfrwt beam="2">  1       -1 0.22077858E-02 0.15185353E+03</pdfrwt>
<totfact> 0.50894920E+03</totfact>
</mgrwt>
</event>
<event>
 6    1  0.4705246E-006  0.3917710E+03  0.7546771E-02  0.1046667E+00
          2   -1    0    0  501    0  0.00000000000E+00  0.00000000000E+00  0.11826516178E+04  0.11826516178E+04  0.00000000000E+00 0. -1.
         -2   -1    0    0    0  501 -0.00000000000E+00 -0.00000000000E+00 -0.32445005481E+02  0.32445005481E+02  0.00000000000E+00 0.  1.
          5    1    1    2  502    0 -0.11825091666E+03 -0.99968154695E+02  0.50082600687E+03  0.52423820006E+03  0.47000000000E+01 0. -1.
         -5    1    1    2    0  502  0.29763923275E+02 -0.31124188171E+02  0.22126829029E+03  0.22546918305E+03  0.47000000000E+01 0. -1.
        -11    1    1    2    0    0  0.31520307807E+01  0.64464056091E+02  0.92840361392E+02  0.11307025484E+03  0.00000000000E+00 0.  1.
         11    1    1    2    0    0  0.85334962603E+02  0.66628286775E+02  0.33527195372E+03  0.35231898529E+03  0.00000000000E+00 0. -1.
<mgrwt>
<rscale>  0 0.39177105E+03</rscale>
<asrwt>0</asrwt>
<pdfrwt beam="1">  1        2 0.18194637E+00 0.39177105E+03</pdfrwt>
<pdfrwt beam="2">  1       -2 0.49915402E-02 0.39177105E+03</pdfrwt>
<totfact> 0.40279422E+03</totfact>
</mgrwt>
</event>
<event>
 6    1  0.4705246E-006  0.1772452E+03  0.7546771E-02  0.1176702E+00
          1   -1    0    0  501    0  0.00000000000E+00  0.00000000000E+00  0.20003735335E+03  0.20003735335E+03  0.00000000000E+00 0. -1.
         -1   -1    0    0    0  501 -0.00000000000E+00 -0.00000000000E+00 -0.14150042209E+03  0.14150042209E+03  0.00000000000E+00 0.  1.
          5    1    1    2  502    0  0.28117178476E+02  0.82481412580E+02 -0.15836593588E+02  0.88694119552E+02  0.47000000000E+01 0. -1.
         -5    1    1    2    0  502 -0.44956540510E+02  0.42043960777E+02  0.77256895513E+02  0.98891370083E+02  0.47000000000E+01 0. -1.
        -11    1    1    2    0    0  0.40441780857E+02 -0.10173730931E+03  0.23353120816E+02  0.11194367332E+03  0.00000000000E+00 0. -1.
         11    1    1    2    0    0 -0.23602418823E+02 -0.22788064051E+02 -0.26236491489E+02  0.42008612487E+02  0.00000000000E+00 0.  1.
<mgrwt>
<rscale>  0 0.17110329E+03</rscale>
<asrwt>0</asrwt>
<pdfrwt beam="1">  1        1 0.30774977E-01 0.17724520E+03</pdfrwt>
<pdfrwt beam="2">  1       -1 0.21769296E-01 0.17724520E+03</pdfrwt>
<totfact> 0.25239244E+03</totfact>
</mgrwt>
</event>
<event>
 6    1  0.4705246E-006  0.1513344E+03  0.7546771E-02  0.1207714E+00
          2   -1    0    0  501    0  0.00000000000E+00  0.00000000000E+00  0.23200341270E+03  0.23200341270E+03  0.00000000000E+00 0.  1.
         -2   -1    0    0    0  501 -0.00000000000E+00 -0.00000000000E+00 -0.82473476384E+02  0.82473476384E+02  0.00000000000E+00 0. -1.
          5    1    1    2  502    0 -0.28517485283E+02 -0.23406720921E+02  0.11438917489E+03  0.12028339405E+03  0.47000000000E+01 0. -1.
         -5    1    1    2    0  502 -0.47660306495E+02 -0.14975932307E+02 -0.24388274368E+02  0.55791229511E+02  0.47000000000E+01 0. -1.
        -11    1    1    2    0    0  0.27452494469E+02 -0.11328883653E+02 -0.17588108228E+02  0.34515570522E+02  0.00000000000E+00 0. -1.
         11    1    1    2    0    0  0.48725297309E+02  0.49711536881E+02  0.77117144020E+02  0.10388669500E+03  0.00000000000E+00 0.  1.
<mgrwt>
<rscale>  0 0.14425598E+03</rscale>
<asrwt>0</asrwt>
<pdfrwt beam="1">  1        2 0.35692832E-01 0.15133443E+03</pdfrwt>
<pdfrwt beam="2">  1       -2 0.12688227E-01 0.15133443E+03</pdfrwt>
<totfact> 0.62688073E+03</totfact>
</mgrwt>
</event>
<event>
 6    1  0.4705246E-006  0.1415570E+03  0.7546771E-02  0.1223286E+00
          1   -1    0    0  501    0  0.00000000000E+00  0.00000000000E+00  0.99890573957E+02  0.99890573957E+02  0.00000000000E+00 0. -1.
         -1   -1    0    0    0  501 -0.00000000000E+00 -0.00000000000E+00 -0.21688759911E+03  0.21688759911E+03  0.00000000000E+00 0.  1.
          5    1    1    2  502    0 -0.48240902721E+02 -0.22343557650E+02  0.44906256211E+02  0.69750133410E+02  0.47000000000E+01 0. -1.
         -5    1    1    2    0  502  0.51403305923E+02 -0.44018342046E+02 -0.26840713440E+02  0.72954973746E+02  0.47000000000E+01 0. -1.
        -11    1    1    2    0    0  0.26838751531E+02  0.38246793929E+02 -0.18122663647E+02  0.50115534192E+02  0.00000000000E+00 0. -1.
         11    1    1    2    0    0 -0.30001154734E+02  0.28115105767E+02 -0.11693990428E+03  0.12395753172E+03  0.00000000000E+00 0.  1.
<mgrwt>
<rscale>  0 0.13285100E+03</rscale>
<asrwt>0</asrwt>
<pdfrwt beam="1">  1        1 0.15367781E-01 0.14155700E+03</pdfrwt>
<pdfrwt beam="2">  1       -1 0.33367322E-01 0.14155700E+03</pdfrwt>
<totfact> 0.29677653E+03</totfact>
</mgrwt>
</event>
<event>
 6    1  0.4705246E-006  0.1286981E+03  0.7546771E-02  0.1244434E+00
         -2   -1    0    0    0  501 -0.00000000000E+00  0.00000000000E+00  0.87852906600E+01  0.87852906600E+01  0.00000000000E+00 0.  1.
          2   -1    0    0  501    0  0.00000000000E+00 -0.00000000000E+00 -0.21717005552E+04  0.21717005552E+04  0.00000000000E+00 0. -1.
          5    1    1    2  502    0  0.34065342638E+02  0.30101813880E+02 -0.36083232118E+03  0.36371502688E+03  0.47000000000E+01 0. -1.
         -5    1    1    2    0  502 -0.33458415976E+02 -0.60736709833E+02 -0.14648236306E+04  0.14664715382E+04  0.47000000000E+01 0. -1.
        -11    1    1    2    0    0 -0.67558814665E+01  0.61943722678E+02 -0.23900796291E+03  0.24699690898E+03  0.00000000000E+00 0.  1.
         11    1    1    2    0    0  0.61489548046E+01 -0.31308826726E+02 -0.98251349824E+02  0.10330237179E+03  0.00000000000E+00 0. -1.
<mgrwt>
<rscale>  0 0.11919347E+03</rscale>
<asrwt>0</asrwt>
<pdfrwt beam="2">  1        2 0.33410844E+00 0.12869813E+03</pdfrwt>
<pdfrwt beam="1">  1       -2 0.13515805E-02 0.12869813E+03</pdfrwt>
<totfact> 0.81776433E+03</totfact>
</mgrwt>
</event>
<event>
 6    1  0.4705246E-006  0.2498685E+03  0.7546771E-02  0.1113388E+00
          1   -1    0    0  501    0  0.00000000000E+00  0.00000000000E+00  0.42884134563E+03  0.42884134563E+03  0.00000000000E+00 0. -1.
         -1   -1    0    0    0  501 -0.00000000000E+00 -0.00000000000E+00 -0.36397068114E+02  0.36397068114E+02  0.00000000000E+00 0.  1.
          5    1    1    2  502    0  0.46319392950E+02  0.74229500186E+01  0.34404286031E+02  0.58363783698E+02  0.47000000000E+01 0.  1.
         -5    1    1    2    0  502 -0.13300840378E+02 -0.47719954682E+01  0.29712000527E+03  0.29749297778E+03  0.47000000000E+01 0.  1.
        -11    1    1    2    0    0 -0.34846880800E+01  0.33963298456E+02  0.22974648877E+01  0.34218811171E+02  0.00000000000E+00 0. -1.
         11    1    1    2    0    0 -0.29533864492E+02 -0.36614253007E+02  0.58622521329E+02  0.75162841098E+02  0.00000000000E+00 0.  1.
<mgrwt>
<rscale>  0 0.24986851E+03</rscale>
<asrwt>0</asrwt>
<pdfrwt beam="1">  1        1 0.65975588E-01 0.24986851E+03</pdfrwt>
<pdfrwt beam="2">  1       -1 0.55995492E-02 0.24986851E+03</pdfrwt>
<totfact> 0.81201334E+03</totfact>
</mgrwt>
</event>
<event>
 6    1  0.4705246E-006  0.1757207E+03  0.7546771E-02  0.1173776E+00
         -2   -1    0    0    0  501 -0.00000000000E+00  0.00000000000E+00  0.36212598633E+02  0.36212598633E+02  0.00000000000E+00 0.  1.
          2   -1    0    0  501    0  0.00000000000E+00 -0.00000000000E+00 -0.84780252063E+03  0.84780252063E+03  0.00000000000E+00 0. -1.
          5    1    1    2  502    0  0.70082881103E+02 -0.44928268843E+02 -0.32813933037E+03  0.33856708302E+03  0.47000000000E+01 0. -1.
         -5    1    1    2    0  502 -0.41553641037E+02 -0.64438861572E+02 -0.15062651670E+03  0.16908432659E+03  0.47000000000E+01 0.  1.
        -11    1    1    2    0    0 -0.59774131554E+02  0.84636440818E+02 -0.11445966283E+03  0.15439329108E+03  0.00000000000E+00 0.  1.
         11    1    1    2    0    0  0.31244891487E+02  0.24730689597E+02 -0.21836441210E+03  0.22197041858E+03  0.00000000000E+00 0. -1.
<mgrwt>
<rscale>  0 0.17396423E+03</rscale>
<asrwt>0</asrwt>
<pdfrwt beam="2">  1        2 0.13043115E+00 0.17572074E+03</pdfrwt>
<pdfrwt beam="1">  1       -2 0.55711694E-02 0.17572074E+03</pdfrwt>
<totfact> 0.53597791E+03</totfact>
</mgrwt>
</event>
<event>
 6    1  0.4705246E-006  0.1578157E+03  0.7546771E-02  0.1199359E+00
         -1   -1    0    0    0  501 -0.00000000000E+00  0.00000000000E+00  0.42576407808E+02  0.42576407808E+02  0.00000000000E+00 0.  1.
          1   -1    0    0  501    0  0.00000000000E+00 -0.00000000000E+00 -0.49351253725E+03  0.49351253725E+03  0.00000000000E+00 0. -1.
          5    1    1    2  502    0  0.28150679928E+02 -0.68634380776E+02 -0.17507972453E+03  0.19020551765E+03  0.47000000000E+01 0. -1.
         -5    1    1    2    0  502  0.63596233491E+02  0.39301906215E+02 -0.78765795309E+02  0.10869802784E+03  0.47000000000E+01 0. -1.
        -11    1    1    2    0    0 -0.59600389133E+02 -0.25082565837E+02 -0.12890175599E+03  0.14421166454E+03  0.00000000000E+00 0. -1.
         11    1    1    2    0    0 -0.32146524286E+02  0.54415040399E+02 -0.68188853612E+02  0.92973735013E+02  0.00000000000E+00 0.  1.
<mgrwt>
<rscale>  0 0.15091044E+03</rscale>
<asrwt>0</asrwt>
<pdfrwt beam="2">  1        1 0.75925013E-01 0.15781566E+03</pdfrwt>
<pdfrwt beam="1">  1       -1 0.65502160E-02 0.15781566E+03</pdfrwt>
<totfact> 0.52174738E+03</totfact>
</mgrwt>
</event>
<event>
 6    1  0.4705246E-006  0.1321580E+03  0.7546771E-02  0.1241013E+00
          2   -1    0    0  501    0  0.00000000000E+00  0.00000000000E+00  0.16952964671E+04  0.16952964671E+04  0.00000000000E+00 0. -1.
         -2   -1    0    0    0  501 -0.00000000000E+00 -0.00000000000E+00 -0.93507611395E+01  0.93507611395E+01  0.00000000000E+00 0.  1.
          5    1    1    2  502    0 -0.49236085490E+02 -0.13563419801E+02  0.86217379937E+03  0.86369781104E+03  0.47000000000E+01 0. -1.
         -5    1    1    2    0  502  0.65960956116E+02  0.18958445581E+02  0.46867185041E+03  0.47369363913E+03  0.47000000000E+01 0.  1.
        -11    1    1    2    0    0  0.14314088608E+02  0.35171108003E+02  0.97357052612E+02  0.10450021849E+03  0.00000000000E+00 0.  1.
         11    1    1    2    0    0 -0.31038959234E+02 -0.40566133783E+02  0.25774300354E+03  0.26275555955E+03  0.00000000000E+00 0. -1.
<mgrwt>
<rscale>  0 0.12127232E+03</rscale>
<asrwt>0</asrwt>
<pdfrwt beam="1">  1        2 0.26081460E+00 0.13215804E+03</pdfrwt>
<pdfrwt beam="2">  1       -2 0.14385800E-02 0.13215804E+03</pdfrwt>
<totfact> 0.13110471E+04</totfact>
</mgrwt>
</event>
<event>
 6    1  0.4705246E-006  0.1533033E+03  0.7546771E-02  0.1204671E+00
          1   -1    0    0  501    0  0.00000000000E+00  0.00000000000E+00  0.64140192888E+03  0.64140192888E+03  0.00000000000E+00 0. -1.
         -1   -1    0    0    0  501 -0.00000000000E+00 -0.00000000000E+00 -0.38292091601E+02  0.38292091601E+02  0.00000000000E+00 0.  1.
          5    1    1    2  502    0  0.70723844251E+02 -0.73930241859E+02  0.40504461474E+03  0.41779273897E+03  0.47000000000E+01 0. -1.
         -5    1    1    2    0  502  0.10924925634E+02  0.39147605243E+02  0.66825941589E+02  0.78356145041E+02  0.47000000000E+01 0. -1.
        -11    1    1    2    0    0 -0.62993188894E+02  0.61622481288E+02  0.12020577969E+03  0.14904664209E+03  0.00000000000E+00 0. -1.
         11    1    1    2    0    0 -0.18655580991E+02 -0.26839844672E+02  0.11033501250E+02  0.34498494373E+02  0.00000000000E+00 0.  1.
<mgrwt>
<rscale>  0 0.14663377E+03</rscale>
<asrwt>0</asrwt>
<pdfrwt beam="1">  1        1 0.98677212E-01 0.15330327E+03</pdfrwt>
<pdfrwt beam="2">  1       -1 0.58910915E-02 0.15330327E+03</pdfrwt>
<totfact> 0.42901148E+03</totfact>
</mgrwt>
</event>
<event>
 6    1  0.4739754E-006  0.1566908E+03  0.7546771E-02  0.1200057E+00
         -1   -1    0    0    0  501 -0.00000000000E+00  0.00000000000E+00  0.11771762487E+03  0.11771762487E+03  0.00000000000E+00 0.  1.
          1   -1    0    0  501    0  0.00000000000E+00 -0.00000000000E+00 -0.18271186033E+03  0.18271186033E+03  0.00000000000E+00 0. -1.
          5    1    1    2  502    0 -0.20640818276E+01 -0.52596784885E+02 -0.63908410446E+02  0.82928023851E+02  0.47000000000E+01 0.  1.
         -5    1    1    2    0  502 -0.83420592400E+02  0.12356999947E+02  0.46602965756E+01  0.84590182931E+02  0.47000000000E+01 0.  1.
        -11    1    1    2    0    0  0.38065033721E+01  0.12032556193E+02  0.35123544683E+02  0.37322048008E+02  0.00000000000E+00 0.  1.
         11    1    1    2    0    0  0.81678170855E+02  0.28207228745E+02 -0.40869666274E+02  0.95589230404E+02  0.00000000000E+00 0. -1.
<mgrwt>
<rscale>  0 0.15033896E+03</rscale>
<asrwt>0</asrwt>
<pdfrwt beam="2">  1        1 0.28109517E-01 0.15669081E+03</pdfrwt>
<pdfrwt beam="1">  1       -1 0.18110404E-01 0.15669081E+03</pdfrwt>
<totfact> 0.37836444E+03</totfact>
</mgrwt>
</event>
<event>
 6    1  0.4705246E-006  0.1331581E+03  0.7546771E-02  0.1235093E+00
          4   -1    0    0  501    0  0.00000000000E+00  0.00000000000E+00  0.19632303423E+03  0.19632303423E+03  0.00000000000E+00 0. -1.
         -4   -1    0    0    0  501 -0.00000000000E+00 -0.00000000000E+00 -0.71937266367E+02  0.71937266367E+02  0.00000000000E+00 0.  1.
          5    1    1    2  502    0  0.63701638285E+02 -0.31429730576E+02  0.86639245927E+01  0.71713877832E+02  0.47000000000E+01 0. -1.
         -5    1    1    2    0  502 -0.40439906001E+02 -0.82104056424E+01  0.74460385938E+02  0.85259813700E+02  0.47000000000E+01 0. -1.
        -11    1    1    2    0    0  0.40059890834E+01  0.65448374804E+02  0.29854755590E+02  0.72047513103E+02  0.00000000000E+00 0. -1.
         11    1    1    2    0    0 -0.27267721368E+02 -0.25808238586E+02  0.11406701747E+02  0.39239095966E+02  0.00000000000E+00 0.  1.
<mgrwt>
<rscale>  0 0.12498514E+03</rscale>
<asrwt>0</asrwt>
<pdfrwt beam="1">  1        4 0.30203544E-01 0.13315813E+03</pdfrwt>
<pdfrwt beam="2">  1       -4 0.11067272E-01 0.13315813E+03</pdfrwt>
<totfact> 0.11013404E+03</totfact>
</mgrwt>
</event>
<event>
 6    1  0.4705246E-006  0.1606374E+03  0.7546771E-02  0.1209205E+00
         -2   -1    0    0    0  501 -0.00000000000E+00  0.00000000000E+00  0.54109834693E+02  0.54109834693E+02  0.00000000000E+00 0.  1.
          2   -1    0    0  501    0  0.00000000000E+00 -0.00000000000E+00 -0.41592152150E+03  0.41592152150E+03  0.00000000000E+00 0. -1.
          5    1    1    2  502    0  0.38778513294E+02 -0.66096661153E+01 -0.25652110728E+03  0.25956238029E+03  0.47000000000E+01 0. -1.
         -5    1    1    2    0  502 -0.65390290969E+02  0.40000623474E+02 -0.68157492955E+02  0.10268141934E+03  0.47000000000E+01 0.  1.
        -11    1    1    2    0    0 -0.32076847444E+02  0.27555594362E+01 -0.99982494414E+01  0.33711752278E+02  0.00000000000E+00 0. -1.
         11    1    1    2    0    0  0.58688625120E+02 -0.36146516795E+02 -0.27134837127E+02  0.74075804287E+02  0.00000000000E+00 0.  1.
<mgrwt>
<rscale>  0 0.14310960E+03</rscale>
<asrwt>0</asrwt>
<pdfrwt beam="2">  1        2 0.63987927E-01 0.16063741E+03</pdfrwt>
<pdfrwt beam="1">  1       -2 0.83245898E-02 0.16063741E+03</pdfrwt>
<totfact> 0.65658678E+03</totfact>
</mgrwt>
</event>
<event>
 6    1  0.4705246E-006  0.1622781E+03  0.7546771E-02  0.1201542E+00
          2   -1    0    0  501    0  0.00000000000E+00  0.00000000000E+00  0.13769908494E+04  0.13769908494E+04  0.00000000000E+00 0. -1.
         -2   -1    0    0    0  501 -0.00000000000E+00 -0.00000000000E+00 -0.15717005382E+02  0.15717005382E+02  0.00000000000E+00 0.  1.
          5    1    1    2  502    0  0.97015633339E+01  0.29613458877E+02  0.36571589379E+03  0.36707122231E+03  0.47000000000E+01 0. -1.
         -5    1    1    2    0  502  0.57459773702E+02 -0.10834426975E+03  0.64162706484E+03  0.65325912678E+03  0.47000000000E+01 0. -1.
        -11    1    1    2    0    0 -0.13127144524E+02  0.38798059250E+02  0.74860491881E+02  0.85332904378E+02  0.00000000000E+00 0.  1.
         11    1    1    2    0    0 -0.54034192512E+02  0.39932751622E+02  0.27907039348E+03  0.28704460129E+03  0.00000000000E+00 0. -1.
<mgrwt>
<rscale>  0 0.14913332E+03</rscale>
<asrwt>0</asrwt>
<pdfrwt beam="1">  1        2 0.21184465E+00 0.16227811E+03</pdfrwt>
<pdfrwt beam="2">  1       -2 0.24180019E-02 0.16227811E+03</pdfrwt>
<totfact> 0.91166183E+03</totfact>
</mgrwt>
</event>
<event>
 6    1  0.4705246E-006  0.1323939E+03  0.7546771E-02  0.1236684E+00
         -1   -1    0    0    0  501 -0.00000000000E+00  0.00000000000E+00  0.19615293811E+03  0.19615293811E+03  0.00000000000E+00 0.  1.
          1   -1    0    0  501    0  0.00000000000E+00 -0.00000000000E+00 -0.81039187721E+02  0.81039187721E+02  0.00000000000E+00 0. -1.
          5    1    1    2  502    0  0.32916981143E+02  0.72067688365E+02 -0.22431533897E+02  0.82477530678E+02  0.47000000000E+01 0.  1.
         -5    1    1    2    0  502 -0.13139461127E+02 -0.33219582705E+02  0.35463357567E+02  0.50556165239E+02  0.47000000000E+01 0.  1.
        -11    1    1    2    0    0  0.14662560786E+02 -0.14900136066E+02 -0.10946341399E+02  0.23597184867E+02  0.00000000000E+00 0. -1.
         11    1    1    2    0    0 -0.34440080802E+02 -0.23947969593E+02  0.11302826812E+03  0.12056124505E+03  0.00000000000E+00 0.  1.
<mgrwt>
<rscale>  0 0.12397261E+03</rscale>
<asrwt>0</asrwt>
<pdfrwt beam="2">  1        1 0.12467567E-01 0.13239387E+03</pdfrwt>
<pdfrwt beam="1">  1       -1 0.30177375E-01 0.13239387E+03</pdfrwt>
<totfact> 0.46012523E+03</totfact>
</mgrwt>
</event>
<event>
 6    1  0.4705246E-006  0.1557233E+03  0.7546771E-02  0.1207645E+00
          2   -1    0    0  501    0  0.00000000000E+00  0.00000000000E+00  0.34033172038E+03  0.34033172038E+03  0.00000000000E+00 0. -1.
         -2   -1    0    0    0  501 -0.00000000000E+00 -0.00000000000E+00 -0.86633806592E+02  0.86633806592E+02  0.00000000000E+00 0.  1.
          5    1    1    2  502    0  0.56764579378E+02  0.73627745150E+02  0.17909528032E+03  0.20184269063E+03  0.47000000000E+01 0. -1.
         -5    1    1    2    0  502 -0.61418506978E+02 -0.13863653882E+01  0.90185849369E+02  0.10922331452E+03  0.47000000000E+01 0.  1.
        -11    1    1    2    0    0 -0.82795342303E+01 -0.91308558671E+02 -0.14603422254E+02  0.92838911644E+02  0.00000000000E+00 0.  1.
         11    1    1    2    0    0  0.12933461830E+02  0.19067178909E+02 -0.97979364112E+00  0.23060610184E+02  0.00000000000E+00 0. -1.
<mgrwt>
<rscale>  0 0.14430957E+03</rscale>
<asrwt>0</asrwt>
<pdfrwt beam="1">  1        2 0.52358726E-01 0.15572326E+03</pdfrwt>
<pdfrwt beam="2">  1       -2 0.13328278E-01 0.15572326E+03</pdfrwt>
<totfact> 0.38541813E+03</totfact>
</mgrwt>
</event>
<event>
 6    1  0.4705246E-006  0.1580074E+03  0.7546771E-02  0.1198647E+00
         -1   -1    0    0    0  501 -0.00000000000E+00  0.00000000000E+00  0.10205100478E+03  0.10205100478E+03  0.00000000000E+00 0.  1.
          1   -1    0    0  501    0  0.00000000000E+00 -0.00000000000E+00 -0.34369966745E+03  0.34369966745E+03  0.00000000000E+00 0. -1.
          5    1    1    2  502    0  0.36156257030E+02 -0.53908609713E+02 -0.32341410335E+02  0.72673722528E+02  0.47000000000E+01 0. -1.
         -5    1    1    2    0  502  0.35511424538E+02 -0.10891431142E+02 -0.23426560112E+03  0.23723858542E+03  0.47000000000E+01 0. -1.
        -11    1    1    2    0    0  0.82771717353E+01  0.20502930812E+02 -0.23602792307E+02  0.32341514320E+02  0.00000000000E+00 0. -1.
         11    1    1    2    0    0 -0.79944853303E+02  0.44297110044E+02  0.48561141087E+02  0.10349684996E+03  0.00000000000E+00 0.  1.
<mgrwt>
<rscale>  0 0.15149538E+03</rscale>
<asrwt>0</asrwt>
<pdfrwt beam="2">  1        1 0.52876872E-01 0.15800741E+03</pdfrwt>
<pdfrwt beam="1">  1       -1 0.15700155E-01 0.15800741E+03</pdfrwt>
<totfact> 0.21618189E+03</totfact>
</mgrwt>
</event>
<event>
 6    1  0.4705246E-006  0.1270926E+03  0.7546771E-02  0.1246515E+00
         -2   -1    0    0    0  501 -0.00000000000E+00  0.00000000000E+00  0.21215544503E+03  0.21215544503E+03  0.00000000000E+00 0.  1.
          2   -1    0    0  501    0  0.00000000000E+00 -0.00000000000E+00 -0.58007208807E+02  0.58007208807E+02  0.00000000000E+00 0. -1.
          5    1    1    2  502    0 -0.35372370968E+02  0.44599635302E+02  0.41920390126E+01  0.57271243117E+02  0.47000000000E+01 0. -1.
         -5    1    1    2    0  502  0.47489760416E+02 -0.25078919881E+02  0.75387805423E+02  0.92680314918E+02  0.47000000000E+01 0. -1.
        -11    1    1    2    0    0  0.30897864682E+02 -0.36643131269E+02  0.40058672265E+02  0.62466745831E+02  0.00000000000E+00 0.  1.
         11    1    1    2    0    0 -0.43015254129E+02  0.17122415848E+02  0.34509719527E+02  0.57744349976E+02  0.00000000000E+00 0. -1.
<mgrwt>
<rscale>  0 0.11795176E+03</rscale>
<asrwt>0</asrwt>
<pdfrwt beam="2">  1        2 0.89241861E-02 0.12709256E+03</pdfrwt>
<pdfrwt beam="1">  1       -2 0.32639299E-01 0.12709256E+03</pdfrwt>
<totfact> 0.60999011E+03</totfact>
</mgrwt>
</event>
<event>
 6    1  0.4705246E-006  0.1314605E+03  0.7546771E-02  0.1238246E+00
         -2   -1    0    0    0  501 -0.00000000000E+00  0.00000000000E+00  0.15982870191E+02  0.15982870191E+02  0.00000000000E+00 0.  1.
          2   -1    0    0  501    0  0.00000000000E+00 -0.00000000000E+00 -0.87122418797E+03  0.87122418797E+03  0.00000000000E+00 0. -1.
          5    1    1    2  502    0 -0.63673397445E+02  0.47616537953E+02 -0.26182192341E+03  0.27366849619E+03  0.47000000000E+01 0.  1.
         -5    1    1    2    0  502  0.42770250025E+02 -0.12687358412E+02 -0.29956251653E+03  0.30290271484E+03  0.47000000000E+01 0.  1.
        -11    1    1    2    0    0  0.55266948296E+02 -0.36489052376E+02 -0.19941252530E+03  0.21012196877E+03  0.00000000000E+00 0.  1.
         11    1    1    2    0    0 -0.34363800875E+02  0.15598728343E+01 -0.94444352552E+02  0.10051387836E+03  0.00000000000E+00 0. -1.
<mgrwt>
<rscale>  0 0.12298895E+03</rscale>
<asrwt>0</asrwt>
<pdfrwt beam="2">  1        2 0.13403448E+00 0.13146053E+03</pdfrwt>
<pdfrwt beam="1">  1       -2 0.24589033E-02 0.13146053E+03</pdfrwt>
<totfact> 0.17181124E+04</totfact>
</mgrwt>
</event>
<event>
 6    1  0.4705246E-006  0.1256717E+03  0.7546771E-02  0.1248864E+00
         -4   -1    0    0    0  501 -0.00000000000E+00  0.00000000000E+00  0.13395815389E+03  0.13395815389E+03  0.00000000000E+00 0.  1.
          4   -1    0    0  501    0  0.00000000000E+00 -0.00000000000E+00 -0.89276394807E+02  0.89276394807E+02  0.00000000000E+00 0. -1.
          5    1    1    2  502    0 -0.55113847783E+02  0.85459397262E+01  0.23809876561E+01  0.56020785477E+02  0.47000000000E+01 0. -1.
         -5    1    1    2    0  502  0.66921229019E+02 -0.13961177315E+02  0.22221209013E+02  0.72036362314E+02  0.47000000000E+01 0. -1.
        -11    1    1    2    0    0  0.33403740184E+02 -0.17908293750E+02 -0.53940329276E+01  0.38283317967E+02  0.00000000000E+00 0. -1.
         11    1    1    2    0    0 -0.45211121420E+02  0.23323531339E+02  0.25473595345E+02  0.56894082943E+02  0.00000000000E+00 0.  1.
<mgrwt>
<rscale>  0 0.11657081E+03</rscale>
<asrwt>0</asrwt>
<pdfrwt beam="2">  1        4 0.13734830E-01 0.12567166E+03</pdfrwt>
<pdfrwt beam="1">  1       -4 0.20608947E-01 0.12567166E+03</pdfrwt>
<totfact> 0.15202668E+03</totfact>
</mgrwt>
</event>
<event>
 6    1  0.4705246E-006  0.1432159E+03  0.7546771E-02  0.1221022E+00
         -1   -1    0    0    0  501 -0.00000000000E+00  0.00000000000E+00  0.34630142344E+03  0.34630142344E+03  0.00000000000E+00 0.  1.
          1   -1    0    0  501    0  0.00000000000E+00 -0.00000000000E+00 -0.55915315991E+02  0.55915315991E+02  0.00000000000E+00 0. -1.
          5    1    1    2  502    0 -0.85506354970E+01 -0.35276352694E+02  0.15321260997E+02  0.39678274475E+02  0.47000000000E+01 0. -1.
         -5    1    1    2    0  502  0.20965782466E+02  0.10404976939E+03  0.64144875879E+02  0.12410710554E+03  0.47000000000E+01 0. -1.
        -11    1    1    2    0    0 -0.41429518654E+02 -0.55433167768E+02  0.90958521168E+02  0.11429214180E+03  0.00000000000E+00 0. -1.
         11    1    1    2    0    0  0.29014371686E+02 -0.13340248927E+02  0.11996144940E+03  0.12413921761E+03  0.00000000000E+00 0.  1.
<mgrwt>
<rscale>  0 0.13443293E+03</rscale>
<asrwt>0</asrwt>
<pdfrwt beam="2">  1        1 0.86023566E-02 0.14321586E+03</pdfrwt>
<pdfrwt beam="1">  1       -1 0.53277141E-01 0.14321586E+03</pdfrwt>
<totfact> 0.27806484E+03</totfact>
</mgrwt>
</event>
<event>
 6    1  0.4705246E-006  0.1577828E+03  0.7546771E-02  0.1200194E+00
         -2   -1    0    0    0  501 -0.00000000000E+00  0.00000000000E+00  0.19018029759E+03  0.19018029759E+03  0.00000000000E+00 0. -1.
          2   -1    0    0  501    0  0.00000000000E+00 -0.00000000000E+00 -0.16379966563E+03  0.16379966563E+03  0.00000000000E+00 0.  1.
          5    1    1    2  502    0 -0.79716124644E+01  0.10463065539E+03 -0.71638222191E+02  0.12714261887E+03  0.47000000000E+01 0. -1.
         -5    1    1    2    0  502  0.47877854050E+02 -0.17009521028E+02 -0.16720187168E+02  0.53696064781E+02  0.47000000000E+01 0. -1.
        -11    1    1    2    0    0 -0.47604792285E+02 -0.50710569406E+02  0.21872319506E+02  0.72912114622E+02  0.00000000000E+00 0.  1.
         11    1    1    2    0    0  0.76985506997E+01 -0.36910564958E+02  0.92866721812E+02  0.10022916496E+03  0.00000000000E+00 0. -1.
<mgrwt>
<rscale>  0 0.15022769E+03</rscale>
<asrwt>0</asrwt>
<pdfrwt beam="2">  1        2 0.25199949E-01 0.15778283E+03</pdfrwt>
<pdfrwt beam="1">  1       -2 0.29258507E-01 0.15778283E+03</pdfrwt>
<totfact> 0.22296381E+03</totfact>
</mgrwt>
</event>
<event>
 6    1  0.4705246E-006  0.1297027E+03  0.7546771E-02  0.1240310E+00
          4   -1    0    0  501    0  0.00000000000E+00  0.00000000000E+00  0.94368953172E+02  0.94368953172E+02  0.00000000000E+00 0. -1.
         -4   -1    0    0    0  501 -0.00000000000E+00 -0.00000000000E+00 -0.15536548853E+03  0.15536548853E+03  0.00000000000E+00 0.  1.
          5    1    1    2  502    0  0.68177767119E+02 -0.24671137480E+02 -0.26342621182E+02  0.77284517496E+02  0.47000000000E+01 0.  1.
         -5    1    1    2    0  502 -0.33707871827E+02  0.25517952608E+02  0.30758338427E+02  0.52493351114E+02  0.47000000000E+01 0.  1.
        -11    1    1    2    0    0  0.25025878782E+02  0.20556380170E+02 -0.40836658113E+02  0.52119977171E+02  0.00000000000E+00 0.  1.
         11    1    1    2    0    0 -0.59495774074E+02 -0.21403195298E+02 -0.24575594493E+02  0.67836595922E+02  0.00000000000E+00 0. -1.
<mgrwt>
<rscale>  0 0.12170547E+03</rscale>
<asrwt>0</asrwt>
<pdfrwt beam="1">  1        4 0.14518301E-01 0.12970272E+03</pdfrwt>
<pdfrwt beam="2">  1       -4 0.23902383E-01 0.12970272E+03</pdfrwt>
<totfact> 0.10620594E+03</totfact>
</mgrwt>
</event>
<event>
 6    1  0.4705246E-006  0.1738662E+03  0.7546771E-02  0.1184125E+00
         -2   -1    0    0    0  501 -0.00000000000E+00  0.00000000000E+00  0.48155056595E+02  0.48155056595E+02  0.00000000000E+00 0.  1.
          2   -1    0    0  501    0  0.00000000000E+00 -0.00000000000E+00 -0.53598249383E+03  0.53598249383E+03  0.00000000000E+00 0. -1.
          5    1    1    2  502    0  0.60017644055E+02 -0.47569385586E+01 -0.21192903563E+03  0.22036504306E+03  0.47000000000E+01 0. -1.
         -5    1    1    2    0  502  0.39737295865E+02 -0.17376740880E+02  0.11353786596E+02  0.45077735928E+02  0.47000000000E+01 0.  1.
        -11    1    1    2    0    0 -0.10947641803E+03  0.31756011471E+02 -0.28177903203E+03  0.30396209182E+03  0.00000000000E+00 0.  1.
         11    1    1    2    0    0  0.97214781068E+01 -0.96223320322E+01 -0.54731561762E+01  0.14732679622E+02  0.00000000000E+00 0. -1.
<mgrwt>
<rscale>  0 0.16411769E+03</rscale>
<asrwt>0</asrwt>
<pdfrwt beam="2">  1        2 0.82458844E-01 0.17386615E+03</pdfrwt>
<pdfrwt beam="1">  1       -2 0.74084703E-02 0.17386615E+03</pdfrwt>
<totfact> 0.59791921E+03</totfact>
</mgrwt>
</event>
<event>
 6    1  0.4705246E-006  0.2399513E+03  0.7546771E-02  0.1122435E+00
          1   -1    0    0  501    0  0.00000000000E+00  0.00000000000E+00  0.29497419993E+03  0.29497419993E+03  0.00000000000E+00 0. -1.
         -1   -1    0    0    0  501 -0.00000000000E+00 -0.00000000000E+00 -0.18714989093E+03  0.18714989093E+03  0.00000000000E+00 0.  1.
          5    1    1    2  502    0  0.59173762671E+02 -0.12309482546E+03  0.10377938202E+03  0.17159871904E+03  0.47000000000E+01 0.  1.
         -5    1    1    2    0  502  0.79270941115E+02 -0.27853553651E+02 -0.12601780464E+02  0.85091700107E+02  0.47000000000E+01 0.  1.
        -11    1    1    2    0    0 -0.37980908474E+02  0.42176314433E+02 -0.37218091131E+02  0.67871770384E+02  0.00000000000E+00 0.  1.
         11    1    1    2    0    0 -0.10046379531E+03  0.10877206468E+03  0.53864798579E+02  0.15756190133E+03  0.00000000000E+00 0. -1.
<mgrwt>
<rscale>  0 0.23607509E+03</rscale>
<asrwt>0</asrwt>
<pdfrwt beam="1">  1        1 0.45380646E-01 0.23995128E+03</pdfrwt>
<pdfrwt beam="2">  1       -1 0.28792291E-01 0.23995128E+03</pdfrwt>
<totfact> 0.98184385E+02</totfact>
</mgrwt>
</event>
<event>
 6    1  0.4705246E-006  0.3736028E+03  0.7546771E-02  0.1053324E+00
         -1   -1    0    0    0  501 -0.00000000000E+00  0.00000000000E+00  0.22694635065E+02  0.22694635065E+02  0.00000000000E+00 0.  1.
          1   -1    0    0  501    0  0.00000000000E+00 -0.00000000000E+00 -0.15375774991E+04  0.15375774991E+04  0.00000000000E+00 0. -1.
          5    1    1    2  502    0 -0.60745681317E+01 -0.41517242547E+02 -0.55174183875E+03  0.55335497507E+03  0.47000000000E+01 0.  1.
         -5    1    1    2    0  502  0.10313067326E+03 -0.64871166264E+02 -0.44146656400E+03  0.45799456449E+03  0.47000000000E+01 0.  1.
        -11    1    1    2    0    0 -0.48077286858E+02  0.58651530612E+02 -0.12357198478E+03  0.14498780286E+03  0.00000000000E+00 0.  1.
         11    1    1    2    0    0 -0.48978818272E+02  0.47736878199E+02 -0.39810247654E+03  0.40393479177E+03  0.00000000000E+00 0. -1.
<mgrwt>
<rscale>  0 0.37360278E+03</rscale>
<asrwt>0</asrwt>
<pdfrwt beam="2">  1        1 0.23655039E+00 0.37360278E+03</pdfrwt>
<pdfrwt beam="1">  1       -1 0.34914822E-02 0.37360278E+03</pdfrwt>
<totfact> 0.20317612E+03</totfact>
</mgrwt>
</event>
<event>
 6    1  0.4705246E-006  0.1610334E+03  0.7546771E-02  0.1208395E+00
         -1   -1    0    0    0  501 -0.00000000000E+00  0.00000000000E+00  0.15492760860E+03  0.15492760860E+03  0.00000000000E+00 0.  1.
          1   -1    0    0  501    0  0.00000000000E+00 -0.00000000000E+00 -0.12533667522E+03  0.12533667522E+03  0.00000000000E+00 0. -1.
          5    1    1    2  502    0  0.78149346017E+01  0.74919198447E+02 -0.56023369782E+02  0.93992911757E+02  0.47000000000E+01 0. -1.
         -5    1    1    2    0  502 -0.43978453676E+02 -0.44969557030E+02  0.28776706414E+02  0.69329317603E+02  0.47000000000E+01 0.  1.
        -11    1    1    2    0    0  0.53567929461E+02 -0.29534769231E+02  0.71560335180E+02  0.94141952558E+02  0.00000000000E+00 0.  1.
         11    1    1    2    0    0 -0.17404410387E+02 -0.41487218551E+00 -0.14722738433E+02  0.22800101903E+02  0.00000000000E+00 0. -1.
<mgrwt>
<rscale>  0 0.14373094E+03</rscale>
<asrwt>0</asrwt>
<pdfrwt beam="2">  1        1 0.19282566E-01 0.16103344E+03</pdfrwt>
<pdfrwt beam="1">  1       -1 0.23835017E-01 0.16103344E+03</pdfrwt>
<totfact> 0.39149333E+03</totfact>
</mgrwt>
</event>
<event>
 6    1  0.4705246E-006  0.2004610E+03  0.7546771E-02  0.1153614E+00
          1   -1    0    0  501    0  0.00000000000E+00  0.00000000000E+00  0.17354742600E+04  0.17354742600E+04  0.00000000000E+00 0. -1.
         -1   -1    0    0    0  501 -0.00000000000E+00 -0.00000000000E+00 -0.24129662088E+02  0.24129662088E+02  0.00000000000E+00 0.  1.
          5    1    1    2  502    0 -0.29147077424E+02 -0.86286370791E+02  0.48121495277E+03  0.48978036983E+03  0.47000000000E+01 0.  1.
         -5    1    1    2    0  502 -0.10728519456E+03  0.91933462668E+01  0.72900274946E+03  0.73692722117E+03  0.47000000000E+01 0.  1.
        -11    1    1    2    0    0  0.81420669992E+02  0.66380998852E+02  0.42833229023E+03  0.44102643159E+03  0.00000000000E+00 0. -1.
         11    1    1    2    0    0  0.55011601997E+02  0.10712025672E+02  0.72794605455E+02  0.91869899486E+02  0.00000000000E+00 0.  1.
<mgrwt>
<rscale>  0 0.19547443E+03</rscale>
<asrwt>0</asrwt>
<pdfrwt beam="1">  1        1 0.26699594E+00 0.20046104E+03</pdfrwt>
<pdfrwt beam="2">  1       -1 0.37122571E-02 0.20046104E+03</pdfrwt>
<totfact> 0.13828727E+03</totfact>
</mgrwt>
</event>
<event>
 6    1  0.4705246E-006  0.4001889E+03  0.7546771E-02  0.1043714E+00
         -2   -1    0    0    0  501 -0.00000000000E+00  0.00000000000E+00  0.41055577215E+02  0.41055577215E+02  0.00000000000E+00 0.  1.
          2   -1    0    0  501    0  0.00000000000E+00 -0.00000000000E+00 -0.97520968193E+03  0.97520968193E+03  0.00000000000E+00 0. -1.
          5    1    1    2  502    0 -0.29025900388E+02  0.32343196026E+02 -0.46231615368E+03  0.46437797232E+03  0.47000000000E+01 0.  1.
         -5    1    1    2    0  502  0.26079818814E+02  0.10551901367E+03 -0.26707316146E+03  0.28838270192E+03  0.47000000000E+01 0.  1.
        -11    1    1    2    0    0  0.44482281089E+02 -0.77981043950E+02 -0.87003579735E+02  0.12501735653E+03  0.00000000000E+00 0.  1.
         11    1    1    2    0    0 -0.41536199515E+02 -0.59881165743E+02 -0.11776120985E+03  0.13848722838E+03  0.00000000000E+00 0. -1.
<mgrwt>
<rscale>  0 0.40018894E+03</rscale>
<asrwt>0</asrwt>
<pdfrwt beam="2">  1        2 0.15003225E+00 0.40018894E+03</pdfrwt>
<pdfrwt beam="1">  1       -2 0.63162429E-02 0.40018894E+03</pdfrwt>
<totfact> 0.37349999E+03</totfact>
</mgrwt>
</event>
<event>
 6    1  0.4705246E-006  0.1258330E+03  0.7546771E-02  0.1248916E+00
         -2   -1    0    0    0  501 -0.00000000000E+00  0.00000000000E+00  0.82710535065E+02  0.82710535065E+02  0.00000000000E+00 0.  1.
          2   -1    0    0  501    0  0.00000000000E+00 -0.00000000000E+00 -0.14422315200E+03  0.14422315200E+03  0.00000000000E+00 0. -1.
          5    1    1    2  502    0  0.16415256390E+02  0.24347894355E+02 -0.73355938780E+02  0.79154686256E+02  0.47000000000E+01 0. -1.
         -5    1    1    2    0  502 -0.27974060430E+02 -0.15579972216E+02  0.39585531733E+02  0.51131085591E+02  0.47000000000E+01 0. -1.
        -11    1    1    2    0    0  0.35440721974E+02  0.30203672542E+02 -0.17941549897E+02  0.49901962103E+02  0.00000000000E+00 0. -1.
         11    1    1    2    0    0 -0.23881917934E+02 -0.38971594681E+02 -0.98006599883E+01  0.46745953112E+02  0.00000000000E+00 0.  1.
<mgrwt>
<rscale>  0 0.11654027E+03</rscale>
<asrwt>0</asrwt>
<pdfrwt beam="2">  1        2 0.22188177E-01 0.12583299E+03</pdfrwt>
<pdfrwt beam="1">  1       -2 0.12724698E-01 0.12583299E+03</pdfrwt>
<totfact> 0.10344721E+04</totfact>
</mgrwt>
</event>
<event>
 6    1  0.4705246E-006  0.1520720E+03  0.7546771E-02  0.1205888E+00
         -2   -1    0    0    0  501 -0.00000000000E+00  0.00000000000E+00  0.35551904491E+03  0.35551904491E+03  0.00000000000E+00 0.  1.
          2   -1    0    0  501    0  0.00000000000E+00 -0.00000000000E+00 -0.12179343348E+03  0.12179343348E+03  0.00000000000E+00 0. -1.
          5    1    1    2  502    0 -0.45154155882E+02  0.49102987258E+01  0.24684474602E+02  0.51907823238E+02  0.47000000000E+01 0. -1.
         -5    1    1    2    0  502 -0.52543085481E+01 -0.75330357137E+02 -0.79484220836E+02  0.10973651091E+03  0.47000000000E+01 0. -1.
        -11    1    1    2    0    0  0.23834185246E+02  0.20839403035E+02  0.12613294513E+02  0.34079969244E+02  0.00000000000E+00 0. -1.
         11    1    1    2    0    0  0.26574279184E+02  0.49580655376E+02  0.27591206315E+03  0.28158817499E+03  0.00000000000E+00 0.  1.
<mgrwt>
<rscale>  0 0.14567689E+03</rscale>
<asrwt>0</asrwt>
<pdfrwt beam="2">  1        2 0.18737451E-01 0.15207195E+03</pdfrwt>
<pdfrwt beam="1">  1       -2 0.54695237E-01 0.15207195E+03</pdfrwt>
<totfact> 0.94604757E+02</totfact>
</mgrwt>
</event>
<event>
 6    1  0.4705246E-006  0.2888246E+03  0.7546771E-02  0.1092633E+00
         -2   -1    0    0    0  501 -0.00000000000E+00  0.00000000000E+00  0.74020334326E+02  0.74020334326E+02  0.00000000000E+00 0.  1.
          2   -1    0    0  501    0  0.00000000000E+00 -0.00000000000E+00 -0.13907480593E+04  0.13907480593E+04  0.00000000000E+00 0. -1.
          5    1    1    2  502    0 -0.86428683216E+01 -0.57292690015E+02 -0.85378682130E+02  0.10328969389E+03  0.47000000000E+01 0.  1.
         -5    1    1    2    0  502 -0.97050777882E+02 -0.18066480821E+03 -0.93087393375E+03  0.95320878979E+03  0.47000000000E+01 0.  1.
        -11    1    1    2    0    0 -0.44848994339E+01  0.31087110476E+02 -0.82178008385E+02  0.87975836585E+02  0.00000000000E+00 0. -1.
         11    1    1    2    0    0  0.11017854564E+03  0.20687038775E+03 -0.21829710071E+03  0.32029407335E+03  0.00000000000E+00 0.  1.
<mgrwt>
<rscale>  0 0.28566804E+03</rscale>
<asrwt>0</asrwt>
<pdfrwt beam="2">  1        2 0.21396121E+00 0.28882463E+03</pdfrwt>
<pdfrwt beam="1">  1       -2 0.11387745E-01 0.28882463E+03</pdfrwt>
<totfact> 0.84241802E+02</totfact>
</mgrwt>
</event>
<event>
 6    1  0.4705246E-006  0.1266821E+03  0.7546771E-02  0.1238950E+00
         -1   -1    0    0    0  501 -0.00000000000E+00  0.00000000000E+00  0.54975608926E+02  0.54975608926E+02  0.00000000000E+00 0.  1.
          1   -1    0    0  501    0  0.00000000000E+00 -0.00000000000E+00 -0.28187182740E+03  0.28187182740E+03  0.00000000000E+00 0. -1.
          5    1    1    2  502    0 -0.75702992260E+02  0.36518247012E+01 -0.15534142687E+03  0.17290843752E+03  0.47000000000E+01 0. -1.
         -5    1    1    2    0  502  0.36106667415E+02  0.18071560699E+01 -0.15108611241E+02  0.39462860749E+02  0.47000000000E+01 0.  1.
        -11    1    1    2    0    0 -0.13093686091E+02  0.68458162702E+01 -0.67629572818E+02  0.69224771111E+02  0.00000000000E+00 0. -1.
         11    1    1    2    0    0  0.52690010936E+02 -0.12304797041E+02  0.11183392461E+02  0.55251366948E+02  0.00000000000E+00 0.  1.
<mgrwt>
<rscale>  0 0.12254920E+03</rscale>
<asrwt>0</asrwt>
<pdfrwt beam="2">  1        1 0.43364896E-01 0.12668209E+03</pdfrwt>
<pdfrwt beam="1">  1       -1 0.84577861E-02 0.12668209E+03</pdfrwt>
<totfact> 0.70980187E+03</totfact>
</mgrwt>
</event>
<event>
 6    1  0.4705246E-006  0.1296010E+03  0.7546771E-02  0.1241770E+00
          1   -1    0    0  501    0  0.00000000000E+00  0.00000000000E+00  0.66811351049E+02  0.66811351049E+02  0.00000000000E+00 0. -1.
         -1   -1    0    0    0  501 -0.00000000000E+00 -0.00000000000E+00 -0.19592845970E+03  0.19592845970E+03  0.00000000000E+00 0.  1.
          5    1    1    2  502    0 -0.62444414571E+02 -0.90630926578E+01  0.11530517846E+02  0.64315530018E+02  0.47000000000E+01 0.  1.
         -5    1    1    2    0  502  0.28908931301E+02  0.15738445098E+02 -0.70751945182E+02  0.78175141255E+02  0.47000000000E+01 0.  1.
        -11    1    1    2    0    0  0.42910323017E+02  0.77033261982E+01 -0.86185768027E+02  0.96584800390E+02  0.00000000000E+00 0.  1.
         11    1    1    2    0    0 -0.93748397471E+01 -0.14378678639E+02  0.16290086708E+02  0.23664339091E+02  0.00000000000E+00 0. -1.
<mgrwt>
<rscale>  0 0.12080793E+03</rscale>
<asrwt>0</asrwt>
<pdfrwt beam="1">  1        1 0.10278670E-01 0.12960098E+03</pdfrwt>
<pdfrwt beam="2">  1       -1 0.30142840E-01 0.12960098E+03</pdfrwt>
<totfact> 0.59339778E+03</totfact>
</mgrwt>
</event>
<event>
 6    1  0.4705246E-006  0.1256784E+03  0.7546771E-02  0.1267687E+00
         -3   -1    0    0    0  501 -0.00000000000E+00  0.00000000000E+00  0.10876218799E+03  0.10876218799E+03  0.00000000000E+00 0.  1.
          3   -1    0    0  501    0  0.00000000000E+00 -0.00000000000E+00 -0.85437200515E+02  0.85437200515E+02  0.00000000000E+00 0. -1.
          5    1    1    2  502    0  0.83165016661E+01 -0.34973645056E+02 -0.46154780435E+02  0.58691343531E+02  0.47000000000E+01 0.  1.
         -5    1    1    2    0  502 -0.10511451204E+02  0.47798797924E+02  0.45499268312E+02  0.66988723725E+02  0.47000000000E+01 0.  1.
        -11    1    1    2    0    0  0.12562542870E+02  0.94773735303E+01 -0.15446199341E+02  0.22050468623E+02  0.00000000000E+00 0. -1.
         11    1    1    2    0    0 -0.10367593332E+02 -0.22302526398E+02  0.39426698942E+02  0.46468852630E+02  0.00000000000E+00 0.  1.
<mgrwt>
<rscale>  0 0.10624422E+03</rscale>
<asrwt>0</asrwt>
<pdfrwt beam="2">  1        3 0.13144185E-01 0.12567836E+03</pdfrwt>
<pdfrwt beam="1">  1       -3 0.16732644E-01 0.12567836E+03</pdfrwt>
<totfact> 0.32170520E+03</totfact>
</mgrwt>
</event>
<event>
 6    1  0.4705246E-006  0.1315957E+03  0.7546771E-02  0.1238203E+00
          1   -1    0    0  501    0  0.00000000000E+00  0.00000000000E+00  0.10246431208E+03  0.10246431208E+03  0.00000000000E+00 0. -1.
         -1   -1    0    0    0  501 -0.00000000000E+00 -0.00000000000E+00 -0.13890065427E+03  0.13890065427E+03  0.00000000000E+00 0.  1.
          5    1    1    2  502    0 -0.53310989164E+02 -0.61049409529E+02  0.23424612291E+01  0.81219881150E+02  0.47000000000E+01 0. -1.
         -5    1    1    2    0  502  0.14289940567E+02  0.48036787369E+02  0.48980989722E+01  0.50574862488E+02  0.47000000000E+01 0. -1.
        -11    1    1    2    0    0  0.11416847170E+02  0.41056694172E+02 -0.54094870187E+02  0.68864007407E+02  0.00000000000E+00 0.  1.
         11    1    1    2    0    0  0.27604201426E+02 -0.28044072012E+02  0.10417967794E+02  0.40706215304E+02  0.00000000000E+00 0. -1.
<mgrwt>
<rscale>  0 0.12301569E+03</rscale>
<asrwt>0</asrwt>
<pdfrwt beam="1">  1        1 0.15763740E-01 0.13159570E+03</pdfrwt>
<pdfrwt beam="2">  1       -1 0.21369331E-01 0.13159570E+03</pdfrwt>
<totfact> 0.59844826E+03</totfact>
</mgrwt>
</event>
<event>
 6    1  0.4705246E-006  0.1288981E+03  0.7546771E-02  0.1240240E+00
         -2   -1    0    0    0  501 -0.00000000000E+00  0.00000000000E+00  0.48637593333E+02  0.48637593333E+02  0.00000000000E+00 0.  1.
          2   -1    0    0  501    0  0.00000000000E+00 -0.00000000000E+00 -0.41029282238E+03  0.41029282238E+03  0.00000000000E+00 0. -1.
          5    1    1    2  502    0  0.94334967166E+01  0.51921156262E+02 -0.18904438621E+03  0.19632795849E+03  0.47000000000E+01 0. -1.
         -5    1    1    2    0  502 -0.40267719919E+02 -0.58148437638E+02 -0.13655781708E+03  0.15385986310E+03  0.47000000000E+01 0. -1.
        -11    1    1    2    0    0 -0.29100519522E+02  0.87054665628E+01 -0.38094604348E+02  0.48721907444E+02  0.00000000000E+00 0. -1.
         11    1    1    2    0    0  0.59934742724E+02 -0.24781851864E+01  0.20415785843E+01  0.60020686686E+02  0.00000000000E+00 0.  1.
<mgrwt>
<rscale>  0 0.12174841E+03</rscale>
<asrwt>0</asrwt>
<pdfrwt beam="2">  1        2 0.63121972E-01 0.12889808E+03</pdfrwt>
<pdfrwt beam="1">  1       -2 0.74827067E-02 0.12889808E+03</pdfrwt>
<totfact> 0.77499473E+03</totfact>
</mgrwt>
</event>
<event>
 6    1  0.4705246E-006  0.3518812E+03  0.7546771E-02  0.1061846E+00
         -1   -1    0    0    0  501 -0.00000000000E+00  0.00000000000E+00  0.12636447970E+03  0.12636447970E+03  0.00000000000E+00 0.  1.
          1   -1    0    0  501    0  0.00000000000E+00 -0.00000000000E+00 -0.24496670797E+03  0.24496670797E+03  0.00000000000E+00 0. -1.
          5    1    1    2  502    0  0.51261915435E+02  0.95183511628E+01 -0.21672407837E+03  0.22295694456E+03  0.47000000000E+01 0.  1.
         -5    1    1    2    0  502 -0.75049100641E+01  0.39497696906E+01  0.15520958788E+02  0.18300669861E+02  0.47000000000E+01 0.  1.
        -11    1    1    2    0    0 -0.70215373558E+02 -0.10759352128E+02  0.45257973905E+02  0.84227350333E+02  0.00000000000E+00 0. -1.
         11    1    1    2    0    0  0.26458368187E+02 -0.27087687251E+01  0.37342917411E+02  0.45846222918E+02  0.00000000000E+00 0.  1.
<mgrwt>
<rscale>  0 0.35188118E+03</rscale>
<asrwt>0</asrwt>
<pdfrwt beam="2">  1        1 0.37687185E-01 0.35188118E+03</pdfrwt>
<pdfrwt beam="1">  1       -1 0.19440689E-01 0.35188118E+03</pdfrwt>
<totfact> 0.24017195E+03</totfact>
</mgrwt>
</event>
<event>
 6    1  0.4705246E-006  0.1336969E+03  0.7546771E-02  0.1234061E+00
          2   -1    0    0  501    0  0.00000000000E+00  0.00000000000E+00  0.32784002607E+03  0.32784002607E+03  0.00000000000E+00 0. -1.
         -2   -1    0    0    0  501 -0.00000000000E+00 -0.00000000000E+00 -0.57496968645E+02  0.57496968645E+02  0.00000000000E+00 0.  1.
          5    1    1    2  502    0  0.27290631598E+02 -0.52264063948E+02  0.95427173664E+02  0.11227086188E+03  0.47000000000E+01 0.  1.
         -5    1    1    2    0  502  0.15816905595E+02  0.72111260542E+02  0.14784228798E+03  0.16531678837E+03  0.47000000000E+01 0.  1.
        -11    1    1    2    0    0 -0.23816504142E+02 -0.28700331146E+02 -0.29354165130E+02  0.47461583285E+02  0.00000000000E+00 0.  1.
         11    1    1    2    0    0 -0.19291033051E+02  0.88531345524E+01  0.56427760906E+02  0.60287761183E+02  0.00000000000E+00 0. -1.
<mgrwt>
<rscale>  0 0.12564768E+03</rscale>
<asrwt>0</asrwt>
<pdfrwt beam="1">  1        2 0.50436926E-01 0.13369694E+03</pdfrwt>
<pdfrwt beam="2">  1       -2 0.88456877E-02 0.13369694E+03</pdfrwt>
<totfact> 0.76154080E+03</totfact>
</mgrwt>
</event>
<event>
 6    1  0.4705246E-006  0.1483519E+03  0.7546771E-02  0.1211876E+00
          2   -1    0    0  501    0  0.00000000000E+00  0.00000000000E+00  0.29107640259E+03  0.29107640259E+03  0.00000000000E+00 0. -1.
         -2   -1    0    0    0  501 -0.00000000000E+00 -0.00000000000E+00 -0.74337111196E+02  0.74337111196E+02  0.00000000000E+00 0.  1.
          5    1    1    2  502    0 -0.50696859490E+01 -0.33925971824E+02  0.89224836521E+02  0.95707025511E+02  0.47000000000E+01 0. -1.
         -5    1    1    2    0  502 -0.49676218820E+02  0.92116948287E+02  0.10093793559E+03  0.14547788739E+03  0.47000000000E+01 0. -1.
        -11    1    1    2    0    0 -0.11954298225E+02 -0.36883673795E+02 -0.16369836830E+02  0.42086603528E+02  0.00000000000E+00 0.  1.
         11    1    1    2    0    0  0.66700202993E+02 -0.21307302668E+02  0.42946356111E+02  0.82141997356E+02  0.00000000000E+00 0. -1.
<mgrwt>
<rscale>  0 0.14108538E+03</rscale>
<asrwt>0</asrwt>
<pdfrwt beam="1">  1        2 0.44780984E-01 0.14835189E+03</pdfrwt>
<pdfrwt beam="2">  1       -2 0.11436479E-01 0.14835189E+03</pdfrwt>
<totfact> 0.58045029E+03</totfact>
</mgrwt>
</event>
<event>
 6    1  0.4705246E-006  0.1872804E+03  0.7546771E-02  0.1165780E+00
          1   -1    0    0  501    0  0.00000000000E+00  0.00000000000E+00  0.34360320344E+02  0.34360320344E+02  0.00000000000E+00 0. -1.
         -1   -1    0    0    0  501 -0.00000000000E+00 -0.00000000000E+00 -0.92311957571E+03  0.92311957571E+03  0.00000000000E+00 0.  1.
          5    1    1    2  502    0  0.39789512895E+02 -0.14165680075E+03 -0.31883370057E+03  0.35117926071E+03  0.47000000000E+01 0. -1.
         -5    1    1    2    0  502 -0.39069438118E+02  0.22006985578E+01 -0.10655833557E+03  0.11361352450E+03  0.47000000000E+01 0. -1.
        -11    1    1    2    0    0  0.11067622063E+02 -0.16952545284E+00 -0.30009869842E+01  0.11468518644E+02  0.00000000000E+00 0. -1.
         11    1    1    2    0    0 -0.11787696840E+02  0.13962562764E+03 -0.46036623225E+03  0.48121859220E+03  0.00000000000E+00 0.  1.
<mgrwt>
<rscale>  0 0.18210626E+03</rscale>
<asrwt>0</asrwt>
<pdfrwt beam="1">  1        1 0.52862041E-02 0.18728040E+03</pdfrwt>
<pdfrwt beam="2">  1       -1 0.14201837E+00 0.18728040E+03</pdfrwt>
<totfact> 0.66827456E+02</totfact>
</mgrwt>
</event>
<event>
 6    1  0.4705246E-006  0.2759054E+03  0.7546771E-02  0.1097947E+00
          3   -1    0    0  501    0  0.00000000000E+00  0.00000000000E+00  0.99307463827E+03  0.99307463827E+03  0.00000000000E+00 0. -1.
         -3   -1    0    0    0  501 -0.00000000000E+00 -0.00000000000E+00 -0.19163663294E+02  0.19163663294E+02  0.00000000000E+00 0.  1.
          5    1    1    2  502    0 -0.34273257600E+02  0.55425695417E+02  0.61757672092E+03  0.62102315587E+03  0.47000000000E+01 0. -1.
         -5    1    1    2    0  502 -0.15896718997E+02  0.84647526167E+01  0.51677718667E+01  0.19317183485E+02  0.47000000000E+01 0. -1.
        -11    1    1    2    0    0  0.48131336442E+02 -0.67996406368E+01  0.25855246926E+03  0.26308219252E+03  0.00000000000E+00 0. -1.
         11    1    1    2    0    0  0.20386401545E+01 -0.57090807397E+02  0.92614012926E+02  0.10881576969E+03  0.00000000000E+00 0.  1.
<mgrwt>
<rscale>  0 0.27590540E+03</rscale>
<asrwt>0</asrwt>
<pdfrwt beam="1">  1        3 0.15278067E+00 0.27590540E+03</pdfrwt>
<pdfrwt beam="2">  1       -3 0.29482567E-02 0.27590540E+03</pdfrwt>
<totfact> 0.43510556E+02</totfact>
</mgrwt>
</event>
<event>
 6    1  0.4705246E-006  0.5999689E+03  0.7546771E-02  0.9905471E-01
         -2   -1    0    0    0  501 -0.00000000000E+00  0.00000000000E+00  0.74305669789E+02  0.74305669789E+02  0.00000000000E+00 0.  1.
          2   -1    0    0  501    0  0.00000000000E+00 -0.00000000000E+00 -0.12110874910E+04  0.12110874910E+04  0.00000000000E+00 0. -1.
          5    1    1    2  502    0 -0.56574705917E+02 -0.99347108225E+02 -0.11066382955E+04  0.11125380678E+04  0.47000000000E+01 0. -1.
         -5    1    1    2    0  502  0.79492918747E+01 -0.13053631536E+02 -0.12755144241E+02  0.20454149755E+02  0.47000000000E+01 0. -1.
        -11    1    1    2    0    0  0.72011362884E+02  0.67678824088E+02  0.59525790812E+00  0.98825168587E+02  0.00000000000E+00 0.  1.
         11    1    1    2    0    0 -0.23385948842E+02  0.44721915673E+02 -0.17983639411E+02  0.53575774667E+02  0.00000000000E+00 0. -1.
<mgrwt>
<rscale>  0 0.59996889E+03</rscale>
<asrwt>0</asrwt>
<pdfrwt beam="2">  1        2 0.18632114E+00 0.59996889E+03</pdfrwt>
<pdfrwt beam="1">  1       -2 0.11431642E-01 0.59996889E+03</pdfrwt>
<totfact> 0.10408360E+03</totfact>
</mgrwt>
</event>
<event>
 6    1  0.4705246E-006  0.1318357E+03  0.7546771E-02  0.1238178E+00
         -1   -1    0    0    0  501 -0.00000000000E+00  0.00000000000E+00  0.57848207649E+02  0.57848207649E+02  0.00000000000E+00 0. -1.
          1   -1    0    0  501    0  0.00000000000E+00 -0.00000000000E+00 -0.23823658484E+03  0.23823658484E+03  0.00000000000E+00 0.  1.
          5    1    1    2  502    0  0.61397362105E+01 -0.43734922185E+02 -0.10530259086E+02  0.45644453504E+02  0.47000000000E+01 0.  1.
         -5    1    1    2    0  502 -0.45871153568E+02  0.57043459315E+02 -0.11496367248E+03  0.13637028624E+03  0.47000000000E+01 0.  1.
        -11    1    1    2    0    0  0.40498547273E+02  0.32429228487E+02 -0.16781118590E+02  0.54528828455E+02  0.00000000000E+00 0. -1.
         11    1    1    2    0    0 -0.76712991587E+00 -0.45737765617E+02 -0.38113327039E+02  0.59541224290E+02  0.00000000000E+00 0.  1.
<mgrwt>
<rscale>  0 0.12303167E+03</rscale>
<asrwt>0</asrwt>
<pdfrwt beam="2">  1        1 0.36651783E-01 0.13183565E+03</pdfrwt>
<pdfrwt beam="1">  1       -1 0.88997241E-02 0.13183565E+03</pdfrwt>
<totfact> 0.81109374E+03</totfact>
</mgrwt>
</event>
<event>
 6    1  0.4705246E-006  0.1301238E+03  0.7546771E-02  0.1243337E+00
          3   -1    0    0  501    0  0.00000000000E+00  0.00000000000E+00  0.23290896607E+03  0.23290896607E+03  0.00000000000E+00 0. -1.
         -3   -1    0    0    0  501 -0.00000000000E+00 -0.00000000000E+00 -0.57520336027E+02  0.57520336027E+02  0.00000000000E+00 0.  1.
          5    1    1    2  502    0  0.56532877556E+02  0.13551681657E+01  0.13718996358E+03  0.14846204509E+03  0.47000000000E+01 0. -1.
         -5    1    1    2    0  502 -0.30753642737E+02 -0.26740522246E+02  0.55627539156E+00  0.41027326429E+02  0.47000000000E+01 0. -1.
        -11    1    1    2    0    0  0.85524863544E+01 -0.21723567999E+02 -0.10249784302E+02  0.25497382369E+02  0.00000000000E+00 0.  1.
         11    1    1    2    0    0 -0.34331721173E+02  0.47108922079E+02  0.47892175373E+02  0.75442548208E+02  0.00000000000E+00 0. -1.
<mgrwt>
<rscale>  0 0.11985449E+03</rscale>
<asrwt>0</asrwt>
<pdfrwt beam="1">  1        3 0.35832148E-01 0.13012377E+03</pdfrwt>
<pdfrwt beam="2">  1       -3 0.88492826E-02 0.13012377E+03</pdfrwt>
<totfact> 0.15826396E+03</totfact>
</mgrwt>
</event>
<event>
 6    1  0.4705246E-006  0.1311757E+03  0.7546771E-02  0.1239622E+00
         -2   -1    0    0    0  501 -0.00000000000E+00  0.00000000000E+00  0.67227447023E+02  0.67227447023E+02  0.00000000000E+00 0.  1.
          2   -1    0    0  501    0  0.00000000000E+00 -0.00000000000E+00 -0.20519280732E+03  0.20519280732E+03  0.00000000000E+00 0. -1.
          5    1    1    2  502    0  0.27773784889E+02  0.75439939730E+02 -0.42046350081E+02  0.90843564377E+02  0.47000000000E+01 0.  1.
         -5    1    1    2    0  502 -0.35860535055E+01 -0.43764487170E+02 -0.64403370652E+02  0.78090167552E+02  0.47000000000E+01 0.  1.
        -11    1    1    2    0    0 -0.46061917894E+02  0.13353476763E+02 -0.99583716749E+01  0.48981473928E+02  0.00000000000E+00 0.  1.
         11    1    1    2    0    0  0.21874186510E+02 -0.45028929323E+02 -0.21557267886E+02  0.54505048483E+02  0.00000000000E+00 0. -1.
<mgrwt>
<rscale>  0 0.12213137E+03</rscale>
<asrwt>0</asrwt>
<pdfrwt beam="2">  1        2 0.31568124E-01 0.13117569E+03</pdfrwt>
<pdfrwt beam="1">  1       -2 0.10342684E-01 0.13117569E+03</pdfrwt>
<totfact> 0.98054197E+03</totfact>
</mgrwt>
</event>
<event>
 6    1  0.4705246E-006  0.1779660E+03  0.7546771E-02  0.1180251E+00
          2   -1    0    0  501    0  0.00000000000E+00  0.00000000000E+00  0.61217232231E+03  0.61217232231E+03  0.00000000000E+00 0. -1.
         -2   -1    0    0    0  501 -0.00000000000E+00 -0.00000000000E+00 -0.55638499328E+02  0.55638499328E+02  0.00000000000E+00 0.  1.
          5    1    1    2  502    0 -0.42580214611E+02 -0.39262283362E+02  0.25440479757E+03  0.26095687881E+03  0.47000000000E+01 0.  1.
         -5    1    1    2    0  502 -0.78862251391E+02  0.75293596668E+02  0.21642390810E+03  0.24238353573E+03  0.47000000000E+01 0.  1.
        -11    1    1    2    0    0  0.10771955512E+03 -0.66388994877E+01  0.64952315198E+02  0.12596182275E+03  0.00000000000E+00 0.  1.
         11    1    1    2    0    0  0.13722910884E+02 -0.29392413819E+02  0.20752802114E+02  0.38508584352E+02  0.00000000000E+00 0. -1.
<mgrwt>
<rscale>  0 0.16771630E+03</rscale>
<asrwt>0</asrwt>
<pdfrwt beam="1">  1        2 0.94180352E-01 0.17796602E+03</pdfrwt>
<pdfrwt beam="2">  1       -2 0.85597696E-02 0.17796602E+03</pdfrwt>
<totfact> 0.41111177E+03</totfact>
</mgrwt>
</event>
<event>
 6    1  0.4705246E-006  0.1809992E+03  0.7546771E-02  0.1172147E+00
          2   -1    0    0  501    0  0.00000000000E+00  0.00000000000E+00  0.57921290761E+03  0.57921290761E+03  0.00000000000E+00 0. -1.
         -2   -1    0    0    0  501 -0.00000000000E+00 -0.00000000000E+00 -0.83009978986E+02  0.83009978986E+02  0.00000000000E+00 0.  1.
          5    1    1    2  502    0  0.42681826441E+02 -0.22596209413E+02  0.36860369254E+03  0.37178367251E+03  0.47000000000E+01 0. -1.
         -5    1    1    2    0  502  0.67934994932E+02 -0.47403182568E+02  0.96316612194E+02  0.12712672826E+03  0.47000000000E+01 0. -1.
        -11    1    1    2    0    0 -0.10163921565E+02 -0.97091106706E+00 -0.25778280944E+02  0.27726661146E+02  0.00000000000E+00 0.  1.
         11    1    1    2    0    0 -0.10045289981E+03  0.70970303048E+02  0.57060904836E+02  0.13558582468E+03  0.00000000000E+00 0. -1.
<mgrwt>
<rscale>  0 0.17558319E+03</rscale>
<asrwt>0</asrwt>
<pdfrwt beam="1">  1        2 0.89109675E-01 0.18099917E+03</pdfrwt>
<pdfrwt beam="2">  1       -2 0.12770766E-01 0.18099917E+03</pdfrwt>
<totfact> 0.23218093E+03</totfact>
</mgrwt>
</event>
<event>
 6    1  0.7117754E-006  0.1490771E+03  0.7546771E-02  0.1210382E+00
         -1   -1    0    0    0  501 -0.00000000000E+00  0.00000000000E+00  0.30508432165E+03  0.30508432165E+03  0.00000000000E+00 0.  1.
          1   -1    0    0  501    0  0.00000000000E+00 -0.00000000000E+00 -0.67310288218E+02  0.67310288218E+02  0.00000000000E+00 0. -1.
          5    1    1    2  502    0  0.17156248937E+02  0.50107414748E+02  0.92246348791E+02  0.10647332415E+03  0.47000000000E+01 0. -1.
         -5    1    1    2    0  502 -0.49190734873E+02  0.24541736229E+02 -0.20642052781E+02  0.58908484597E+02  0.47000000000E+01 0. -1.
        -11    1    1    2    0    0  0.38483870272E+02 -0.39562185826E+02  0.23563072797E+02  0.60011609027E+02  0.00000000000E+00 0. -1.
         11    1    1    2    0    0 -0.64493843356E+01 -0.35086965151E+02  0.14260666463E+03  0.14700119210E+03  0.00000000000E+00 0.  1.
<mgrwt>
<rscale>  0 0.14221259E+03</rscale>
<asrwt>0</asrwt>
<pdfrwt beam="2">  1        1 0.10355429E-01 0.14907705E+03</pdfrwt>
<pdfrwt beam="1">  1       -1 0.46936049E-01 0.14907705E+03</pdfrwt>
<totfact> 0.27435944E+03</totfact>
</mgrwt>
</event>
<event>
 6    1  0.4705246E-006  0.1499964E+03  0.7546771E-02  0.1219457E+00
         -3   -1    0    0    0  501 -0.00000000000E+00  0.00000000000E+00  0.36184327930E+02  0.36184327930E+02  0.00000000000E+00 0.  1.
          3   -1    0    0  501    0  0.00000000000E+00 -0.00000000000E+00 -0.57032388744E+03  0.57032388744E+03  0.00000000000E+00 0. -1.
          5    1    1    2  502    0 -0.11855386084E+02 -0.52393065954E+01 -0.43260970518E+03  0.43282935151E+03  0.47000000000E+01 0. -1.
         -5    1    1    2    0  502  0.36843866637E+02 -0.15619354163E+02 -0.22045207767E+02  0.45929466780E+02  0.47000000000E+01 0.  1.
        -11    1    1    2    0    0 -0.38649778717E+02  0.52555738783E+02 -0.56277624351E+02  0.86157310059E+02  0.00000000000E+00 0.  1.
         11    1    1    2    0    0  0.13661298164E+02 -0.31697078025E+02 -0.23207022214E+02  0.41592087022E+02  0.00000000000E+00 0. -1.
<mgrwt>
<rscale>  0 0.13554141E+03</rscale>
<asrwt>0</asrwt>
<pdfrwt beam="2">  1        3 0.87742134E-01 0.14999639E+03</pdfrwt>
<pdfrwt beam="1">  1       -3 0.55668198E-02 0.14999639E+03</pdfrwt>
<totfact> 0.54989446E+02</totfact>
</mgrwt>
</event>
<event>
 6    1  0.4705246E-006  0.1706994E+03  0.7546771E-02  0.1183439E+00
          1   -1    0    0  501    0  0.00000000000E+00  0.00000000000E+00  0.40852720574E+03  0.40852720574E+03  0.00000000000E+00 0. -1.
         -1   -1    0    0    0  501 -0.00000000000E+00 -0.00000000000E+00 -0.63910174020E+02  0.63910174020E+02  0.00000000000E+00 0.  1.
          5    1    1    2  502    0  0.33791925099E+02 -0.90601031428E+01 -0.22792296738E+01  0.35373218100E+02  0.47000000000E+01 0.  1.
         -5    1    1    2    0  502  0.15649802710E+02 -0.96164226996E+02  0.22503727169E+03  0.24526789135E+03  0.47000000000E+01 0.  1.
        -11    1    1    2    0    0 -0.27191900008E+00  0.16294874370E+02 -0.14448056063E+02  0.21779421357E+02  0.00000000000E+00 0.  1.
         11    1    1    2    0    0 -0.49169808809E+02  0.88929455769E+02  0.13630704576E+03  0.17001684895E+03  0.00000000000E+00 0. -1.
<mgrwt>
<rscale>  0 0.16474763E+03</rscale>
<asrwt>0</asrwt>
<pdfrwt beam="1">  1        1 0.62850338E-01 0.17069941E+03</pdfrwt>
<pdfrwt beam="2">  1       -1 0.98323347E-02 0.17069941E+03</pdfrwt>
<totfact> 0.36084060E+03</totfact>
</mgrwt>
</event>
<event>
 6    1  0.4705246E-006  0.1318186E+03  0.7546771E-02  0.1237653E+00
         -2   -1    0    0    0  501 -0.00000000000E+00  0.00000000000E+00  0.60855103143E+02  0.60855103143E+02  0.00000000000E+00 0.  1.
          2   -1    0    0  501    0  0.00000000000E+00 -0.00000000000E+00 -0.25028310329E+03  0.25028310329E+03  0.00000000000E+00 0. -1.
          5    1    1    2  502    0  0.30623718699E+02  0.42489024218E+02 -0.93350442495E+02  0.10714254262E+03  0.47000000000E+01 0. -1.
         -5    1    1    2    0  502 -0.32211149953E+01 -0.74096381422E+02 -0.63554732474E+02  0.97785189786E+02  0.47000000000E+01 0. -1.
        -11    1    1    2    0    0 -0.49227547472E+02  0.10459639973E+02  0.12533023238E+02  0.51863591950E+02  0.00000000000E+00 0.  1.
         11    1    1    2    0    0  0.21824943768E+02  0.21147717231E+02 -0.45055848418E+02  0.54346882074E+02  0.00000000000E+00 0. -1.
<mgrwt>
<rscale>  0 0.12336144E+03</rscale>
<asrwt>0</asrwt>
<pdfrwt beam="2">  1        2 0.38505092E-01 0.13181859E+03</pdfrwt>
<pdfrwt beam="1">  1       -2 0.93623236E-02 0.13181859E+03</pdfrwt>
<totfact> 0.92701710E+03</totfact>
</mgrwt>
</event>
<event>
 6    1  0.4705246E-006  0.1692270E+03  0.7546771E-02  0.1185352E+00
         -2   -1    0    0    0  501 -0.00000000000E+00  0.00000000000E+00  0.75438005539E+02  0.75438005539E+02  0.00000000000E+00 0.  1.
          2   -1    0    0  501    0  0.00000000000E+00 -0.00000000000E+00 -0.62258431691E+03  0.62258431691E+03  0.00000000000E+00 0. -1.
          5    1    1    2  502    0 -0.59889265235E+02  0.14227770796E+02 -0.77711075742E+02  0.99248450089E+02  0.47000000000E+01 0.  1.
         -5    1    1    2    0  502 -0.49729168945E+02 -0.45801880376E+02 -0.44614899091E+03  0.45126689950E+03  0.47000000000E+01 0.  1.
        -11    1    1    2    0    0  0.92455765155E+02  0.41601230902E+02  0.16796782047E+02  0.10276605865E+03  0.00000000000E+00 0.  1.
         11    1    1    2    0    0  0.17162669025E+02 -0.10027121322E+02 -0.40083026764E+02  0.44740914213E+02  0.00000000000E+00 0. -1.
<mgrwt>
<rscale>  0 0.16299915E+03</rscale>
<asrwt>0</asrwt>
<pdfrwt beam="2">  1        2 0.95782203E-01 0.16922701E+03</pdfrwt>
<pdfrwt beam="1">  1       -2 0.11605847E-01 0.16922701E+03</pdfrwt>
<totfact> 0.24878432E+03</totfact>
</mgrwt>
</event>
<event>
 6    1  0.4705246E-006  0.3172731E+03  0.7546771E-02  0.1076911E+00
          1   -1    0    0  501    0  0.00000000000E+00  0.00000000000E+00  0.10380801988E+03  0.10380801988E+03  0.00000000000E+00 0. -1.
         -1   -1    0    0    0  501 -0.00000000000E+00 -0.00000000000E+00 -0.24242396547E+03  0.24242396547E+03  0.00000000000E+00 0.  1.
          5    1    1    2  502    0  0.60709674941E+02  0.11018849104E+03 -0.93295550676E+01  0.12623905413E+03  0.47000000000E+01 0.  1.
         -5    1    1    2    0  502  0.15723021811E+02 -0.28592330904E+02 -0.33168703005E+02  0.46765239874E+02  0.47000000000E+01 0.  1.
        -11    1    1    2    0    0 -0.42478541994E+02 -0.99025909242E+01 -0.81680803309E+02  0.92597200099E+02  0.00000000000E+00 0.  1.
         11    1    1    2    0    0 -0.33954154759E+02 -0.71693569216E+02 -0.14436884207E+02  0.80630491242E+02  0.00000000000E+00 0. -1.
<mgrwt>
<rscale>  0 0.31727308E+03</rscale>
<asrwt>0</asrwt>
<pdfrwt beam="1">  1        1 0.15970465E-01 0.31727308E+03</pdfrwt>
<pdfrwt beam="2">  1       -1 0.37295994E-01 0.31727308E+03</pdfrwt>
<totfact> 0.24008935E+03</totfact>
</mgrwt>
</event>
<event>
 6    1  0.4705246E-006  0.2506340E+03  0.7546771E-02  0.1115441E+00
          1   -1    0    0  501    0  0.00000000000E+00  0.00000000000E+00  0.28891436575E+03  0.28891436575E+03  0.00000000000E+00 0. -1.
         -1   -1    0    0    0  501 -0.00000000000E+00 -0.00000000000E+00 -0.20421838944E+03  0.20421838944E+03  0.00000000000E+00 0.  1.
          5    1    1    2  502    0 -0.15720711025E+03 -0.29481486914E+01 -0.24070214504E+02  0.15913589262E+03  0.47000000000E+01 0. -1.
         -5    1    1    2    0  502 -0.54846075513E+02 -0.44223343695E+02  0.62752301880E+02  0.94465536139E+02  0.47000000000E+01 0. -1.
        -11    1    1    2    0    0  0.16731268283E+03  0.29467265816E+02 -0.42616700547E+01  0.16994121166E+03  0.00000000000E+00 0.  1.
         11    1    1    2    0    0  0.44740502930E+02  0.17704226571E+02  0.50275558988E+02  0.69590114761E+02  0.00000000000E+00 0. -1.
<mgrwt>
<rscale>  0 0.24664897E+03</rscale>
<asrwt>0</asrwt>
<pdfrwt beam="1">  1        1 0.44448364E-01 0.25063396E+03</pdfrwt>
<pdfrwt beam="2">  1       -1 0.31418214E-01 0.25063396E+03</pdfrwt>
<totfact> 0.86876580E+02</totfact>
</mgrwt>
</event>
<event>
 6    1  0.4705246E-006  0.1252706E+03  0.7546771E-02  0.1248385E+00
         -1   -1    0    0    0  501 -0.00000000000E+00  0.00000000000E+00  0.36588514273E+03  0.36588514273E+03  0.00000000000E+00 0.  1.
          1   -1    0    0  501    0  0.00000000000E+00 -0.00000000000E+00 -0.33168162146E+02  0.33168162146E+02  0.00000000000E+00 0. -1.
          5    1    1    2  502    0 -0.50625957040E+02 -0.29601758053E+02  0.91005701554E+02  0.10836687373E+03  0.47000000000E+01 0. -1.
         -5    1    1    2    0  502  0.61079839504E+02  0.25211865636E+02  0.89535670810E+02  0.11137823535E+03  0.47000000000E+01 0. -1.
        -11    1    1    2    0    0 -0.26997039351E+02  0.28162651548E+02  0.14403303761E+03  0.14922295735E+03  0.00000000000E+00 0.  1.
         11    1    1    2    0    0  0.16543156887E+02 -0.23772759130E+02  0.81425706068E+01  0.30085238449E+02  0.00000000000E+00 0. -1.
<mgrwt>
<rscale>  0 0.11685064E+03</rscale>
<asrwt>0</asrwt>
<pdfrwt beam="2">  1        1 0.51027944E-02 0.12527061E+03</pdfrwt>
<pdfrwt beam="1">  1       -1 0.56290019E-01 0.12527061E+03</pdfrwt>
<totfact> 0.50432750E+03</totfact>
</mgrwt>
</event>
<event>
 6    1  0.4705246E-006  0.1536088E+03  0.7546771E-02  0.1210600E+00
         -1   -1    0    0    0  501 -0.00000000000E+00  0.00000000000E+00  0.27062417521E+02  0.27062417521E+02  0.00000000000E+00 0.  1.
          1   -1    0    0  501    0  0.00000000000E+00 -0.00000000000E+00 -0.66407915222E+03  0.66407915222E+03  0.00000000000E+00 0. -1.
          5    1    1    2  502    0 -0.13335124260E+02  0.22050860302E+02 -0.37476046622E+03  0.37567481021E+03  0.47000000000E+01 0. -1.
         -5    1    1    2    0  502  0.32576245828E+02  0.39571647636E+02 -0.35843376379E+02  0.62721325872E+02  0.47000000000E+01 0.  1.
        -11    1    1    2    0    0 -0.55092584320E+02 -0.47758831615E+02 -0.16347748445E+03  0.17899996303E+03  0.00000000000E+00 0. -1.
         11    1    1    2    0    0  0.35851462751E+02 -0.13863676323E+02 -0.62935407650E+02  0.73745470632E+02  0.00000000000E+00 0.  1.
<mgrwt>
<rscale>  0 0.14204747E+03</rscale>
<asrwt>0</asrwt>
<pdfrwt beam="2">  1        1 0.10216602E+00 0.15360878E+03</pdfrwt>
<pdfrwt beam="1">  1       -1 0.41634491E-02 0.15360878E+03</pdfrwt>
<totfact> 0.68390062E+03</totfact>
</mgrwt>
</event>
<event>
 6    1  0.4705246E-006  0.3348826E+03  0.7546771E-02  0.1068997E+00
         -2   -1    0    0    0  501 -0.00000000000E+00  0.00000000000E+00  0.31135614041E+02  0.31135614041E+02  0.00000000000E+00 0.  1.
          2   -1    0    0  501    0  0.00000000000E+00 -0.00000000000E+00 -0.90046667406E+03  0.90046667406E+03  0.00000000000E+00 0. -1.
          5    1    1    2  502    0 -0.46355587973E+02 -0.10162007273E+03 -0.35421816117E+03  0.37144054089E+03  0.47000000000E+01 0.  1.
         -5    1    1    2    0  502 -0.30814247079E+02  0.28221691239E+02 -0.30692143594E+03  0.30978837861E+03  0.47000000000E+01 0.  1.
        -11    1    1    2    0    0  0.32262572380E+02  0.53635881657E+02 -0.18651072708E+03  0.19673315097E+03  0.00000000000E+00 0. -1.
         11    1    1    2    0    0  0.44907262673E+02  0.19762499832E+02 -0.21680735828E+02  0.53640217621E+02  0.00000000000E+00 0.  1.
<mgrwt>
<rscale>  0 0.33488256E+03</rscale>
<asrwt>0</asrwt>
<pdfrwt beam="2">  1        2 0.13853332E+00 0.33488256E+03</pdfrwt>
<pdfrwt beam="1">  1       -2 0.47900949E-02 0.33488256E+03</pdfrwt>
<totfact> 0.63688164E+03</totfact>
</mgrwt>
</event>
<event>
 6    1  0.4705246E-006  0.1842157E+03  0.7546771E-02  0.1168741E+00
         -1   -1    0    0    0  501 -0.00000000000E+00  0.00000000000E+00  0.70031818116E+02  0.70031818116E+02  0.00000000000E+00 0.  1.
          1   -1    0    0  501    0  0.00000000000E+00 -0.00000000000E+00 -0.44599737720E+03  0.44599737720E+03  0.00000000000E+00 0. -1.
          5    1    1    2  502    0 -0.93002118583E+02  0.26277305264E+02 -0.11733491839E+03  0.15208373978E+03  0.47000000000E+01 0.  1.
         -5    1    1    2    0  502  0.16559181014E+02  0.85374324736E+02 -0.12380394173E+03  0.15136871469E+03  0.47000000000E+01 0.  1.
        -11    1    1    2    0    0  0.59962837209E+02 -0.12333997786E+02 -0.69238644337E+02  0.92421097252E+02  0.00000000000E+00 0. -1.
         11    1    1    2    0    0  0.16480100360E+02 -0.99317632215E+02 -0.65588054633E+02  0.12015564359E+03  0.00000000000E+00 0.  1.
<mgrwt>
<rscale>  0 0.17903458E+03</rscale>
<asrwt>0</asrwt>
<pdfrwt beam="2">  1        1 0.68614984E-01 0.18421575E+03</pdfrwt>
<pdfrwt beam="1">  1       -1 0.10774125E-01 0.18421575E+03</pdfrwt>
<totfact> 0.28089231E+03</totfact>
</mgrwt>
</event>
<event>
 6    1  0.4705246E-006  0.1601417E+03  0.7546771E-02  0.1210397E+00
          2   -1    0    0  501    0  0.00000000000E+00  0.00000000000E+00  0.11902045987E+03  0.11902045987E+03  0.00000000000E+00 0. -1.
         -2   -1    0    0    0  501 -0.00000000000E+00 -0.00000000000E+00 -0.14559217946E+03  0.14559217946E+03  0.00000000000E+00 0.  1.
          5    1    1    2  502    0  0.22707174077E+02 -0.91950079790E+02 -0.12356640513E+02  0.95630588688E+02  0.47000000000E+01 0. -1.
         -5    1    1    2    0  502  0.42521741535E+01  0.63783226026E+02 -0.25075403999E+02  0.68827660086E+02  0.47000000000E+01 0.  1.
        -11    1    1    2    0    0  0.52042386022E+01 -0.30772476613E+02  0.10753554872E+02  0.33010125094E+02  0.00000000000E+00 0. -1.
         11    1    1    2    0    0 -0.32163586833E+02  0.58939330377E+02  0.10677004919E+00  0.67144265452E+02  0.00000000000E+00 0.  1.
<mgrwt>
<rscale>  0 0.14220134E+03</rscale>
<asrwt>0</asrwt>
<pdfrwt beam="1">  1        2 0.18310840E-01 0.16014168E+03</pdfrwt>
<pdfrwt beam="2">  1       -2 0.22398797E-01 0.16014168E+03</pdfrwt>
<totfact> 0.51167523E+03</totfact>
</mgrwt>
</event>
<event>
 6    1  0.4705246E-006  0.1250933E+03  0.7546771E-02  0.1256173E+00
         -1   -1    0    0    0  501 -0.00000000000E+00  0.00000000000E+00  0.21350318296E+03  0.21350318296E+03  0.00000000000E+00 0.  1.
          1   -1    0    0  501    0  0.00000000000E+00 -0.00000000000E+00 -0.52319902402E+02  0.52319902402E+02  0.00000000000E+00 0. -1.
          5    1    1    2  502    0  0.16883363406E+02 -0.58146996885E+02  0.56394592724E+02  0.82876783813E+02  0.47000000000E+01 0. -1.
         -5    1    1    2    0  502 -0.12323824195E+02  0.57277215483E+02  0.13079273362E+02  0.60213897466E+02  0.47000000000E+01 0. -1.
        -11    1    1    2    0    0 -0.83166305360E+01 -0.38808593012E+02  0.59329861805E+02  0.71381410302E+02  0.00000000000E+00 0.  1.
         11    1    1    2    0    0  0.37570913249E+01  0.39678374414E+02  0.32379552668E+02  0.51350993781E+02  0.00000000000E+00 0. -1.
<mgrwt>
<rscale>  0 0.11240861E+03</rscale>
<asrwt>0</asrwt>
<pdfrwt beam="2">  1        1 0.80492159E-02 0.12509327E+03</pdfrwt>
<pdfrwt beam="1">  1       -1 0.32846643E-01 0.12509327E+03</pdfrwt>
<totfact> 0.70864435E+03</totfact>
</mgrwt>
</event>
<event>
 6    1  0.4705246E-006  0.3308729E+03  0.7546771E-02  0.1071108E+00
         -1   -1    0    0    0  501 -0.00000000000E+00  0.00000000000E+00  0.16490803234E+03  0.16490803234E+03  0.00000000000E+00 0.  1.
          1   -1    0    0  501    0  0.00000000000E+00 -0.00000000000E+00 -0.78937322393E+03  0.78937322393E+03  0.00000000000E+00 0. -1.
          5    1    1    2  502    0  0.21737415954E+03  0.18252860854E+03 -0.40098720651E+03  0.49130545280E+03  0.47000000000E+01 0. -1.
         -5    1    1    2    0  502  0.40170572135E+02 -0.10608012041E+02 -0.10759622068E+03  0.11543500981E+03  0.47000000000E+01 0.  1.
        -11    1    1    2    0    0 -0.24109292566E+03 -0.12890220840E+03 -0.69302810189E+02  0.28203627006E+03  0.00000000000E+00 0.  1.
         11    1    1    2    0    0 -0.16451806015E+02 -0.43018388105E+02 -0.46578954204E+02  0.65504523592E+02  0.00000000000E+00 0. -1.
<mgrwt>
<rscale>  0 0.33006480E+03</rscale>
<asrwt>0</asrwt>
<pdfrwt beam="2">  1        1 0.12144203E+00 0.33087292E+03</pdfrwt>
<pdfrwt beam="1">  1       -1 0.25370467E-01 0.33087292E+03</pdfrwt>
<totfact> 0.32003789E+02</totfact>
</mgrwt>
</event>
<event>
 6    1  0.4705246E-006  0.2718200E+03  0.7546771E-02  0.1101872E+00
          1   -1    0    0  501    0  0.00000000000E+00  0.00000000000E+00  0.57011153651E+03  0.57011153651E+03  0.00000000000E+00 0. -1.
         -1   -1    0    0    0  501 -0.00000000000E+00 -0.00000000000E+00 -0.39786773639E+03  0.39786773639E+03  0.00000000000E+00 0.  1.
          5    1    1    2  502    0 -0.60373603847E+02 -0.19384028696E+03  0.38990997674E+03  0.43962587372E+03  0.47000000000E+01 0. -1.
         -5    1    1    2    0  502  0.44460640019E+02 -0.50332857864E+02  0.98078617058E+02  0.11896070871E+03  0.47000000000E+01 0.  1.
        -11    1    1    2    0    0 -0.89104550986E+01  0.19303934347E+02 -0.79497766993E+02  0.82291755651E+02  0.00000000000E+00 0. -1.
         11    1    1    2    0    0  0.24823418926E+02  0.22486921048E+03 -0.23624702667E+03  0.32710093482E+03  0.00000000000E+00 0.  1.
<mgrwt>
<rscale>  0 0.26896814E+03</rscale>
<asrwt>0</asrwt>
<pdfrwt beam="1">  1        1 0.87709468E-01 0.27181998E+03</pdfrwt>
<pdfrwt beam="2">  1       -1 0.61210420E-01 0.27181998E+03</pdfrwt>
<totfact> 0.10689960E+02</totfact>
</mgrwt>
</event>
<event>
 6    1  0.4705246E-006  0.1502715E+03  0.7546771E-02  0.1207092E+00
         -2   -1    0    0    0  501 -0.00000000000E+00  0.00000000000E+00  0.54033998940E+02  0.54033998940E+02  0.00000000000E+00 0.  1.
          2   -1    0    0  501    0  0.00000000000E+00 -0.00000000000E+00 -0.37621069089E+03  0.37621069089E+03  0.00000000000E+00 0. -1.
          5    1    1    2  502    0  0.30144086112E+02 -0.17272325620E+02 -0.32002407838E+02  0.47468339631E+02  0.47000000000E+01 0.  1.
         -5    1    1    2    0  502 -0.59914845794E+02  0.95180951610E+02 -0.18281840297E+03  0.21469480841E+03  0.47000000000E+01 0.  1.
        -11    1    1    2    0    0  0.39505285894E+01 -0.84133640690E+02 -0.35369015900E+02  0.91351209393E+02  0.00000000000E+00 0.  1.
         11    1    1    2    0    0  0.25820231092E+02  0.62250146992E+01 -0.71986865243E+02  0.76730332394E+02  0.00000000000E+00 0. -1.
<mgrwt>
<rscale>  0 0.14473779E+03</rscale>
<asrwt>0</asrwt>
<pdfrwt beam="2">  1        2 0.57878570E-01 0.15027154E+03</pdfrwt>
<pdfrwt beam="1">  1       -2 0.83129226E-02 0.15027154E+03</pdfrwt>
<totfact> 0.72988740E+03</totfact>
</mgrwt>
</event>
<event>
 6    1  0.4705246E-006  0.1201570E+03  0.7546771E-02  0.1256525E+00
         -1   -1    0    0    0  501 -0.00000000000E+00  0.00000000000E+00  0.14716194694E+02  0.14716194694E+02  0.00000000000E+00 0.  1.
          1   -1    0    0  501    0  0.00000000000E+00 -0.00000000000E+00 -0.83434022626E+03  0.83434022626E+03  0.00000000000E+00 0. -1.
          5    1    1    2  502    0  0.44144268584E+02 -0.26617347017E+02 -0.36901104143E+03  0.37262372215E+03  0.47000000000E+01 0. -1.
         -5    1    1    2    0  502 -0.58456321025E+02  0.18904919229E+02 -0.21696006933E+03  0.22554001668E+03  0.47000000000E+01 0.  1.
        -11    1    1    2    0    0 -0.18179634413E+02 -0.14024876912E+02 -0.12170749622E+02  0.25986985707E+02  0.00000000000E+00 0.  1.
         11    1    1    2    0    0  0.32491686854E+02  0.21737304699E+02 -0.22148217119E+03  0.22490569642E+03  0.00000000000E+00 0. -1.
<mgrwt>
<rscale>  0 0.11221352E+03</rscale>
<asrwt>0</asrwt>
<pdfrwt beam="2">  1        1 0.12836004E+00 0.12015705E+03</pdfrwt>
<pdfrwt beam="1">  1       -1 0.22640298E-02 0.12015705E+03</pdfrwt>
<totfact> 0.11719285E+04</totfact>
</mgrwt>
</event>
<event>
 6    1  0.4705246E-006  0.2964663E+03  0.7546771E-02  0.1087021E+00
          2   -1    0    0  501    0  0.00000000000E+00  0.00000000000E+00  0.13165111329E+03  0.13165111329E+03  0.00000000000E+00 0.  1.
         -2   -1    0    0    0  501 -0.00000000000E+00 -0.00000000000E+00 -0.16690379967E+03  0.16690379967E+03  0.00000000000E+00 0. -1.
          5    1    1    2  502    0 -0.66710609689E+01 -0.42887500596E+01 -0.38302629793E+02  0.39396419642E+02  0.47000000000E+01 0.  1.
         -5    1    1    2    0  502 -0.54315021552E+02  0.11913906131E+02  0.96709700163E+02  0.11165535738E+03  0.47000000000E+01 0.  1.
        -11    1    1    2    0    0  0.23162830801E+02 -0.43901837666E+02 -0.78622428917E+02  0.92980505538E+02  0.00000000000E+00 0. -1.
         11    1    1    2    0    0  0.37823251720E+02  0.36276681595E+02 -0.15037327836E+02  0.54522630409E+02  0.00000000000E+00 0.  1.
<mgrwt>
<rscale>  0 0.29646633E+03</rscale>
<asrwt>0</asrwt>
<pdfrwt beam="1">  1        2 0.20254017E-01 0.29646633E+03</pdfrwt>
<pdfrwt beam="2">  1       -2 0.25677508E-01 0.29646633E+03</pdfrwt>
<totfact> 0.37006987E+03</totfact>
</mgrwt>
</event>
<event>
 6    1  0.4705246E-006  0.1318704E+03  0.7546771E-02  0.1240279E+00
         -1   -1    0    0    0  501 -0.00000000000E+00  0.00000000000E+00  0.80246575800E+02  0.80246575800E+02  0.00000000000E+00 0.  1.
          1   -1    0    0  501    0  0.00000000000E+00 -0.00000000000E+00 -0.17667426283E+03  0.17667426283E+03  0.00000000000E+00 0. -1.
          5    1    1    2  502    0  0.46752849949E+02  0.55648607697E+01 -0.88377737439E+02  0.10024724998E+03  0.47000000000E+01 0.  1.
         -5    1    1    2    0  502 -0.48361987266E+02  0.36410150870E+02 -0.41759817228E+01  0.60861397634E+02  0.47000000000E+01 0.  1.
        -11    1    1    2    0    0  0.41499696204E+02 -0.14917264892E+02 -0.14559419948E+02  0.46440567246E+02  0.00000000000E+00 0. -1.
         11    1    1    2    0    0 -0.39890558888E+02 -0.27057746748E+02  0.10685452080E+02  0.49371623769E+02  0.00000000000E+00 0.  1.
<mgrwt>
<rscale>  0 0.12172419E+03</rscale>
<asrwt>0</asrwt>
<pdfrwt beam="2">  1        1 0.27180655E-01 0.13187041E+03</pdfrwt>
<pdfrwt beam="1">  1       -1 0.12345627E-01 0.13187041E+03</pdfrwt>
<totfact> 0.71256009E+03</totfact>
</mgrwt>
</event>
<event>
 6    1  0.4705246E-006  0.3139531E+03  0.7546771E-02  0.1078466E+00
          2   -1    0    0  501    0  0.00000000000E+00  0.00000000000E+00  0.44757375015E+03  0.44757375015E+03  0.00000000000E+00 0. -1.
         -2   -1    0    0    0  501 -0.00000000000E+00 -0.00000000000E+00 -0.55056051965E+02  0.55056051965E+02  0.00000000000E+00 0.  1.
          5    1    1    2  502    0  0.97335892767E+01 -0.60773569982E+01  0.18775814161E+03  0.18816717771E+03  0.47000000000E+01 0.  1.
         -5    1    1    2    0  502  0.94000718040E+02 -0.23921504507E+02  0.77172098363E+02  0.12404030045E+03  0.47000000000E+01 0.  1.
        -11    1    1    2    0    0 -0.28344931339E+02 -0.28032114865E+02  0.65951542779E+02  0.77063873451E+02  0.00000000000E+00 0. -1.
         11    1    1    2    0    0 -0.75389375978E+02  0.58030976370E+02  0.61635915437E+02  0.11335845050E+03  0.00000000000E+00 0.  1.
<mgrwt>
<rscale>  0 0.31395314E+03</rscale>
<asrwt>0</asrwt>
<pdfrwt beam="1">  1        2 0.68857498E-01 0.31395314E+03</pdfrwt>
<pdfrwt beam="2">  1       -2 0.84701621E-02 0.31395314E+03</pdfrwt>
<totfact> 0.60918136E+03</totfact>
</mgrwt>
</event>
<event>
 6    1  0.4705246E-006  0.1608937E+03  0.7546771E-02  0.1193623E+00
         -1   -1    0    0    0  501 -0.00000000000E+00  0.00000000000E+00  0.39351830821E+03  0.39351830821E+03  0.00000000000E+00 0.  1.
          1   -1    0    0  501    0  0.00000000000E+00 -0.00000000000E+00 -0.58935165708E+02  0.58935165708E+02  0.00000000000E+00 0. -1.
          5    1    1    2  502    0  0.10048685350E+03  0.38845577101E+02  0.11888397824E+03  0.16050569108E+03  0.47000000000E+01 0. -1.
         -5    1    1    2    0  502 -0.27777695742E+02  0.41888557716E+02  0.30106029406E+02  0.58776820727E+02  0.47000000000E+01 0.  1.
        -11    1    1    2    0    0 -0.63753990254E+02 -0.27181721060E+02  0.15741885999E+03  0.17200033347E+03  0.00000000000E+00 0.  1.
         11    1    1    2    0    0 -0.89551675031E+01 -0.53552413757E+02  0.28174274868E+02  0.61170628643E+02  0.00000000000E+00 0. -1.
<mgrwt>
<rscale>  0 0.15571345E+03</rscale>
<asrwt>0</asrwt>
<pdfrwt beam="2">  1        1 0.90669488E-02 0.16089375E+03</pdfrwt>
<pdfrwt beam="1">  1       -1 0.60541277E-01 0.16089375E+03</pdfrwt>
<totfact> 0.20487033E+03</totfact>
</mgrwt>
</event>
<event>
 6    1  0.4705246E-006  0.3905951E+03  0.7546771E-02  0.1047086E+00
         -2   -1    0    0    0  501 -0.00000000000E+00  0.00000000000E+00  0.32786908936E+02  0.32786908936E+02  0.00000000000E+00 0.  1.
          2   -1    0    0  501    0  0.00000000000E+00 -0.00000000000E+00 -0.11633034786E+04  0.11633034786E+04  0.00000000000E+00 0. -1.
          5    1    1    2  502    0 -0.16032092847E+03  0.35165738413E+02 -0.71108111775E+03  0.72979303592E+03  0.47000000000E+01 0. -1.
         -5    1    1    2    0  502  0.21085310199E+02  0.17385243142E+02 -0.75118713153E+02  0.80073391655E+02  0.47000000000E+01 0. -1.
        -11    1    1    2    0    0  0.86186216448E+02 -0.74834307275E+02 -0.26207392144E+03  0.28585132105E+03  0.00000000000E+00 0. -1.
         11    1    1    2    0    0  0.53049401827E+02  0.22283325720E+02 -0.82242817341E+02  0.10037263892E+03  0.00000000000E+00 0.  1.
<mgrwt>
<rscale>  0 0.39059506E+03</rscale>
<asrwt>0</asrwt>
<pdfrwt beam="2">  1        2 0.17896978E+00 0.39059506E+03</pdfrwt>
<pdfrwt beam="1">  1       -2 0.50441394E-02 0.39059506E+03</pdfrwt>
<totfact> 0.40676517E+03</totfact>
</mgrwt>
</event>
<event>
 6    1  0.4705246E-006  0.4558144E+03  0.7546771E-02  0.1026002E+00
         -3   -1    0    0    0  501 -0.00000000000E+00  0.00000000000E+00  0.25178833291E+03  0.25178833291E+03  0.00000000000E+00 0.  1.
          3   -1    0    0  501    0  0.00000000000E+00 -0.00000000000E+00 -0.20629109380E+03  0.20629109380E+03  0.00000000000E+00 0. -1.
          5    1    1    2  502    0  0.11531612706E+03  0.45273045819E+02 -0.55112101848E+02  0.13567200009E+03  0.47000000000E+01 0.  1.
         -5    1    1    2    0  502 -0.88748264059E+01  0.43725874087E+01 -0.85227199762E+02  0.85928153964E+02  0.47000000000E+01 0.  1.
        -11    1    1    2    0    0 -0.39913375470E+02 -0.48874262387E+02  0.36270425125E+02  0.72782654554E+02  0.00000000000E+00 0. -1.
         11    1    1    2    0    0 -0.66527925188E+02 -0.77137084079E+00  0.14956611559E+03  0.16369661810E+03  0.00000000000E+00 0.  1.
<mgrwt>
<rscale>  0 0.45581439E+03</rscale>
<asrwt>0</asrwt>
<pdfrwt beam="2">  1        3 0.31737091E-01 0.45581439E+03</pdfrwt>
<pdfrwt beam="1">  1       -3 0.38736667E-01 0.45581439E+03</pdfrwt>
<totfact> 0.16691300E+02</totfact>
</mgrwt>
</event>
<event>
 6    1  0.6063993E-006  0.2594989E+03  0.7546771E-02  0.1109708E+00
          1   -1    0    0  501    0  0.00000000000E+00  0.00000000000E+00  0.56394371389E+03  0.56394371389E+03  0.00000000000E+00 0. -1.
         -1   -1    0    0    0  501 -0.00000000000E+00 -0.00000000000E+00 -0.12591285556E+03  0.12591285556E+03  0.00000000000E+00 0.  1.
          5    1    1    2  502    0 -0.20832210924E+02  0.17272876370E+01  0.80044808734E+01  0.22871953319E+02  0.47000000000E+01 0.  1.
         -5    1    1    2    0  502  0.40052692623E+02 -0.22832381684E+03  0.32796856945E+03  0.40164842346E+03  0.47000000000E+01 0.  1.
        -11    1    1    2    0    0 -0.54215358998E+02  0.10215212928E+03  0.49006656020E+02  0.12560260746E+03  0.00000000000E+00 0.  1.
         11    1    1    2    0    0  0.34994877299E+02  0.12444439992E+03  0.53051151987E+02  0.13973358521E+03  0.00000000000E+00 0. -1.
<mgrwt>
<rscale>  0 0.25577565E+03</rscale>
<asrwt>0</asrwt>
<pdfrwt beam="1">  1        1 0.86760570E-01 0.25949886E+03</pdfrwt>
<pdfrwt beam="2">  1       -1 0.19371209E-01 0.25949886E+03</pdfrwt>
<totfact> 0.81705835E+02</totfact>
</mgrwt>
</event>
<event>
 6    1  0.4705246E-006  0.2271202E+03  0.7546771E-02  0.1131845E+00
         -2   -1    0    0    0  501 -0.00000000000E+00  0.00000000000E+00  0.11120307939E+03  0.11120307939E+03  0.00000000000E+00 0.  1.
          2   -1    0    0  501    0  0.00000000000E+00 -0.00000000000E+00 -0.44857995881E+03  0.44857995881E+03  0.00000000000E+00 0. -1.
          5    1    1    2  502    0 -0.12737045170E+03 -0.19164965994E+01 -0.22911594435E+03  0.26218907468E+03  0.47000000000E+01 0.  1.
         -5    1    1    2    0  502 -0.62177526644E+02 -0.35529362084E+01 -0.29534041706E+01  0.62525840830E+02  0.47000000000E+01 0.  1.
        -11    1    1    2    0    0  0.15021081620E+03  0.36323781653E+02 -0.10157926383E+03  0.18493526775E+03  0.00000000000E+00 0. -1.
         11    1    1    2    0    0  0.39337162147E+02 -0.30854348845E+02 -0.37282670629E+01  0.50132854933E+02  0.00000000000E+00 0.  1.
<mgrwt>
<rscale>  0 0.22275605E+03</rscale>
<asrwt>0</asrwt>
<pdfrwt beam="2">  1        2 0.69012302E-01 0.22712022E+03</pdfrwt>
<pdfrwt beam="1">  1       -2 0.17108166E-01 0.22712022E+03</pdfrwt>
<totfact> 0.19198423E+03</totfact>
</mgrwt>
</event>
<event>
 6    1  0.4705246E-006  0.1380438E+03  0.7546771E-02  0.1229230E+00
          2   -1    0    0  501    0  0.00000000000E+00  0.00000000000E+00  0.81387044692E+03  0.81387044692E+03  0.00000000000E+00 0. -1.
         -2   -1    0    0    0  501 -0.00000000000E+00 -0.00000000000E+00 -0.22465214863E+02  0.22465214863E+02  0.00000000000E+00 0.  1.
          5    1    1    2  502    0 -0.18334783005E+02 -0.37887688934E+02  0.41057490562E+03  0.41275353950E+03  0.47000000000E+01 0. -1.
         -5    1    1    2    0  502 -0.31958346085E+02  0.67910559808E+02  0.21202427676E+03  0.22496569506E+03  0.47000000000E+01 0. -1.
        -11    1    1    2    0    0  0.55599226666E+02  0.12835756431E+02  0.66852543906E+02  0.87893647528E+02  0.00000000000E+00 0.  1.
         11    1    1    2    0    0 -0.53060975765E+01 -0.42858627305E+02  0.10195350577E+03  0.11072277970E+03  0.00000000000E+00 0. -1.
<mgrwt>
<rscale>  0 0.12881138E+03</rscale>
<asrwt>0</asrwt>
<pdfrwt beam="1">  1        2 0.12521082E+00 0.13804376E+03</pdfrwt>
<pdfrwt beam="2">  1       -2 0.34561875E-02 0.13804376E+03</pdfrwt>
<totfact> 0.11401143E+04</totfact>
</mgrwt>
</event>
<event>
 6    1  0.4705246E-006  0.1697196E+03  0.7546771E-02  0.1185065E+00
          2   -1    0    0  501    0  0.00000000000E+00  0.00000000000E+00  0.80484968666E+03  0.80484968666E+03  0.00000000000E+00 0. -1.
         -2   -1    0    0    0  501 -0.00000000000E+00 -0.00000000000E+00 -0.38496495912E+02  0.38496495912E+02  0.00000000000E+00 0.  1.
          5    1    1    2  502    0  0.24003378318E+02 -0.16821394240E+02  0.18496631832E+03  0.18733326023E+03  0.47000000000E+01 0. -1.
         -5    1    1    2    0  502 -0.13226739806E+03 -0.21396117307E+02  0.40971973561E+03  0.43109721661E+03  0.47000000000E+01 0. -1.
        -11    1    1    2    0    0  0.73056955215E+01 -0.25051810905E+02  0.33730808382E+02  0.42646615936E+02  0.00000000000E+00 0.  1.
         11    1    1    2    0    0  0.10095832422E+03  0.63269322452E+02  0.13793632844E+03  0.18226908980E+03  0.00000000000E+00 0. -1.
<mgrwt>
<rscale>  0 0.16325981E+03</rscale>
<asrwt>0</asrwt>
<pdfrwt beam="1">  1        2 0.12382302E+00 0.16971963E+03</pdfrwt>
<pdfrwt beam="2">  1       -2 0.59225384E-02 0.16971963E+03</pdfrwt>
<totfact> 0.52105883E+03</totfact>
</mgrwt>
</event>
<event>
 6    1  0.4705246E-006  0.1472123E+03  0.7546771E-02  0.1213494E+00
          1   -1    0    0  501    0  0.00000000000E+00  0.00000000000E+00  0.65386273795E+03  0.65386273795E+03  0.00000000000E+00 0. -1.
         -1   -1    0    0    0  501 -0.00000000000E+00 -0.00000000000E+00 -0.34547279921E+02  0.34547279921E+02  0.00000000000E+00 0.  1.
          5    1    1    2  502    0  0.50150099587E+02  0.15132105735E+02  0.24904380769E+03  0.25453667960E+03  0.47000000000E+01 0.  1.
         -5    1    1    2    0  502 -0.20913993600E+02 -0.87163309730E+02  0.24255233732E+03  0.25862823518E+03  0.47000000000E+01 0.  1.
        -11    1    1    2    0    0 -0.38970897158E+02  0.62741228258E+02  0.13918408033E+03  0.15756713099E+03  0.00000000000E+00 0. -1.
         11    1    1    2    0    0  0.97347911707E+01  0.92899757360E+01 -0.11464767314E+02  0.17677972109E+02  0.00000000000E+00 0.  1.
<mgrwt>
<rscale>  0 0.13987760E+03</rscale>
<asrwt>0</asrwt>
<pdfrwt beam="1">  1        1 0.10059426E+00 0.14721230E+03</pdfrwt>
<pdfrwt beam="2">  1       -1 0.53149666E-02 0.14721230E+03</pdfrwt>
<totfact> 0.48593592E+03</totfact>
</mgrwt>
</event>
<event>
 6    1  0.4705246E-006  0.1272642E+03  0.7546771E-02  0.1245688E+00
          2   -1    0    0  501    0  0.00000000000E+00  0.00000000000E+00  0.22070773578E+04  0.22070773578E+04  0.00000000000E+00 0. -1.
         -2   -1    0    0    0  501 -0.00000000000E+00 -0.00000000000E+00 -0.98439116999E+01  0.98439116999E+01  0.00000000000E+00 0.  1.
          5    1    1    2  502    0 -0.44865855909E+02 -0.16782014006E+02  0.15508986993E+04  0.15516453998E+04  0.47000000000E+01 0.  1.
         -5    1    1    2    0  502  0.49504117483E+02 -0.66867892701E+01  0.35907932519E+03  0.36256781790E+03  0.47000000000E+01 0.  1.
        -11    1    1    2    0    0 -0.64656663961E+01 -0.30213695609E+02  0.45112639795E+02  0.54679269505E+02  0.00000000000E+00 0.  1.
         11    1    1    2    0    0  0.18274048219E+01  0.53682498884E+02  0.24214278182E+03  0.24802878236E+03  0.00000000000E+00 0. -1.
<mgrwt>
<rscale>  0 0.11844269E+03</rscale>
<asrwt>0</asrwt>
<pdfrwt beam="1">  1        2 0.33954997E+00 0.12726425E+03</pdfrwt>
<pdfrwt beam="2">  1       -2 0.15144497E-02 0.12726425E+03</pdfrwt>
<totfact> 0.66559160E+03</totfact>
</mgrwt>
</event>
<event>
 6    1  0.4705246E-006  0.4325805E+03  0.7546771E-02  0.1033048E+00
         -2   -1    0    0    0  501 -0.00000000000E+00  0.00000000000E+00  0.24467947794E+03  0.24467947794E+03  0.00000000000E+00 0.  1.
          2   -1    0    0  501    0  0.00000000000E+00 -0.00000000000E+00 -0.19119492221E+03  0.19119492221E+03  0.00000000000E+00 0. -1.
          5    1    1    2  502    0  0.28763130101E+02 -0.99872352456E+01 -0.19542526150E+01  0.30870238488E+02  0.47000000000E+01 0.  1.
         -5    1    1    2    0  502 -0.12072465418E+03 -0.12400709205E+03 -0.62012204669E+02  0.18390161645E+03  0.47000000000E+01 0.  1.
        -11    1    1    2    0    0  0.16768279419E+02  0.10418557518E+03  0.55594234804E+02  0.11927501085E+03  0.00000000000E+00 0.  1.
         11    1    1    2    0    0  0.75193244661E+02  0.29808752116E+02  0.61856778204E+02  0.10182753437E+03  0.00000000000E+00 0. -1.
<mgrwt>
<rscale>  0 0.43258051E+03</rscale>
<asrwt>0</asrwt>
<pdfrwt beam="2">  1        2 0.29414604E-01 0.43258051E+03</pdfrwt>
<pdfrwt beam="1">  1       -2 0.37642996E-01 0.43258051E+03</pdfrwt>
<totfact> 0.12086506E+03</totfact>
</mgrwt>
</event>
<event>
 6    1  0.4705246E-006  0.2443568E+03  0.7546771E-02  0.1116924E+00
         -1   -1    0    0    0  501 -0.00000000000E+00  0.00000000000E+00  0.21032714974E+02  0.21032714974E+02  0.00000000000E+00 0.  1.
          1   -1    0    0  501    0  0.00000000000E+00 -0.00000000000E+00 -0.70973071110E+03  0.70973071110E+03  0.00000000000E+00 0. -1.
          5    1    1    2  502    0 -0.16535918054E+02 -0.11913368151E+01 -0.28075452010E+03  0.28128285839E+03  0.47000000000E+01 0. -1.
         -5    1    1    2    0  502  0.70457624139E+02  0.20564600822E+02 -0.10459981835E+03  0.12786864981E+03  0.47000000000E+01 0. -1.
        -11    1    1    2    0    0 -0.39260459044E+02 -0.55158322325E+02 -0.17814295631E+03  0.19057475449E+03  0.00000000000E+00 0. -1.
         11    1    1    2    0    0 -0.14661247041E+02  0.35785058318E+02 -0.12520070137E+03  0.13103716338E+03  0.00000000000E+00 0.  1.
<mgrwt>
<rscale>  0 0.24435682E+03</rscale>
<asrwt>0</asrwt>
<pdfrwt beam="2">  1        1 0.10918932E+00 0.24435682E+03</pdfrwt>
<pdfrwt beam="1">  1       -1 0.32358029E-02 0.24435682E+03</pdfrwt>
<totfact> 0.92363800E+03</totfact>
</mgrwt>
</event>
<event>
 6    1  0.4705246E-006  0.4886018E+03  0.7546771E-02  0.1016798E+00
         -1   -1    0    0    0  501 -0.00000000000E+00  0.00000000000E+00  0.12173437245E+03  0.12173437245E+03  0.00000000000E+00 0.  1.
          1   -1    0    0  501    0  0.00000000000E+00 -0.00000000000E+00 -0.49027181741E+03  0.49027181741E+03  0.00000000000E+00 0. -1.
          5    1    1    2  502    0  0.32853021050E+02  0.10741394690E+03 -0.42305739104E+03  0.43774047459E+03  0.47000000000E+01 0. -1.
         -5    1    1    2    0  502 -0.19897357048E+02 -0.67052023229E+00 -0.51087191250E+01  0.21084198490E+02  0.47000000000E+01 0. -1.
        -11    1    1    2    0    0 -0.42351178281E+02 -0.28118722492E+02  0.10942081175E+01  0.50847636600E+02  0.00000000000E+00 0. -1.
         11    1    1    2    0    0  0.29395514279E+02 -0.78624704178E+02  0.58534457080E+02  0.10233388018E+03  0.00000000000E+00 0.  1.
<mgrwt>
<rscale>  0 0.48860181E+03</rscale>
<asrwt>0</asrwt>
<pdfrwt beam="2">  1        1 0.75426432E-01 0.48860181E+03</pdfrwt>
<pdfrwt beam="1">  1       -1 0.18728365E-01 0.48860181E+03</pdfrwt>
<totfact> 0.10427282E+03</totfact>
</mgrwt>
</event>
<event>
 6    1  0.4705246E-006  0.1848817E+03  0.7546771E-02  0.1168357E+00
         -2   -1    0    0    0  501 -0.00000000000E+00  0.00000000000E+00  0.13045378618E+03  0.13045378618E+03  0.00000000000E+00 0.  1.
          2   -1    0    0  501    0  0.00000000000E+00 -0.00000000000E+00 -0.24200128156E+03  0.24200128156E+03  0.00000000000E+00 0. -1.
          5    1    1    2  502    0  0.28635990896E+02 -0.99018424696E+02 -0.12328066092E+03  0.16076342793E+03  0.47000000000E+01 0.  1.
         -5    1    1    2    0  502  0.25444326850E+02 -0.26008568195E+02  0.29004706838E+02  0.46767749648E+02  0.47000000000E+01 0.  1.
        -11    1    1    2    0    0 -0.16168790433E+02 -0.24863040618E+01  0.20885894936E+02  0.26529834135E+02  0.00000000000E+00 0.  1.
         11    1    1    2    0    0 -0.37911527313E+02  0.12751329695E+03 -0.38157436227E+02  0.13839405602E+03  0.00000000000E+00 0. -1.
<mgrwt>
<rscale>  0 0.17942900E+03</rscale>
<asrwt>0</asrwt>
<pdfrwt beam="2">  1        2 0.37230966E-01 0.18488168E+03</pdfrwt>
<pdfrwt beam="1">  1       -2 0.20069814E-01 0.18488168E+03</pdfrwt>
<totfact> 0.28344322E+03</totfact>
</mgrwt>
</event>
<event>
 6    1  0.4705246E-006  0.1473807E+03  0.7546771E-02  0.1212922E+00
          1   -1    0    0  501    0  0.00000000000E+00  0.00000000000E+00  0.59868222952E+03  0.59868222952E+03  0.00000000000E+00 0. -1.
         -1   -1    0    0    0  501 -0.00000000000E+00 -0.00000000000E+00 -0.32508919828E+02  0.32508919828E+02  0.00000000000E+00 0.  1.
          5    1    1    2  502    0 -0.34511584926E+02 -0.92353260752E+02  0.34274919396E+03  0.35667811010E+03  0.47000000000E+01 0. -1.
         -5    1    1    2    0  502  0.35387307939E+02  0.14222488898E+02  0.51785543984E+02  0.64485450447E+02  0.47000000000E+01 0. -1.
        -11    1    1    2    0    0 -0.36179913911E+02  0.59965008133E+02  0.14821783416E+03  0.16393082302E+03  0.00000000000E+00 0. -1.
         11    1    1    2    0    0  0.35304190898E+02  0.18165763722E+02  0.23420737584E+02  0.46096765782E+02  0.00000000000E+00 0.  1.
<mgrwt>
<rscale>  0 0.14030298E+03</rscale>
<asrwt>0</asrwt>
<pdfrwt beam="1">  1        1 0.92104950E-01 0.14738075E+03</pdfrwt>
<pdfrwt beam="2">  1       -1 0.50013727E-02 0.14738075E+03</pdfrwt>
<totfact> 0.60078912E+03</totfact>
</mgrwt>
</event>
<event>
 6    1  0.4705246E-006  0.1262225E+03  0.7546771E-02  0.1244682E+00
         -3   -1    0    0    0  501 -0.00000000000E+00  0.00000000000E+00  0.40861723047E+02  0.40861723047E+02  0.00000000000E+00 0.  1.
          3   -1    0    0  501    0  0.00000000000E+00 -0.00000000000E+00 -0.37357039881E+03  0.37357039881E+03  0.00000000000E+00 0. -1.
          5    1    1    2  502    0  0.25287700631E+02 -0.43149575110E+02 -0.54900428007E+02  0.74414384569E+02  0.47000000000E+01 0. -1.
         -5    1    1    2    0  502 -0.42746392105E+02  0.44726789318E+02 -0.21082905013E+03  0.21976969331E+03  0.47000000000E+01 0. -1.
        -11    1    1    2    0    0  0.23234118934E+02 -0.45820192523E+02 -0.19121205319E+02  0.54817285762E+02  0.00000000000E+00 0.  1.
         11    1    1    2    0    0 -0.57754274602E+01  0.44242978316E+02 -0.47857992307E+02  0.65430758212E+02  0.00000000000E+00 0. -1.
<mgrwt>
<rscale>  0 0.11904409E+03</rscale>
<asrwt>0</asrwt>
<pdfrwt beam="2">  1        3 0.57472369E-01 0.12622249E+03</pdfrwt>
<pdfrwt beam="1">  1       -3 0.62864189E-02 0.12622249E+03</pdfrwt>
<totfact> 0.10828712E+03</totfact>
</mgrwt>
</event>
<event>
 6    1  0.4705246E-006  0.1328320E+03  0.7546771E-02  0.1236818E+00
          2   -1    0    0  501    0  0.00000000000E+00  0.00000000000E+00  0.29672230859E+03  0.29672230859E+03  0.00000000000E+00 0. -1.
         -2   -1    0    0    0  501 -0.00000000000E+00 -0.00000000000E+00 -0.52882295572E+02  0.52882295572E+02  0.00000000000E+00 0.  1.
          5    1    1    2  502    0  0.24833506310E+02 -0.61326015484E+02  0.67484717599E+02  0.94624839869E+02  0.47000000000E+01 0.  1.
         -5    1    1    2    0  502 -0.53530647394E+02  0.26838985955E+02  0.13218623753E+03  0.14519350113E+03  0.47000000000E+01 0.  1.
        -11    1    1    2    0    0 -0.23641084212E+02  0.40780447116E+02  0.27121235480E+02  0.54382967404E+02  0.00000000000E+00 0.  1.
         11    1    1    2    0    0  0.52338225296E+02 -0.62934175871E+01  0.17047822406E+02  0.55403295758E+02  0.00000000000E+00 0. -1.
<mgrwt>
<rscale>  0 0.12388783E+03</rscale>
<asrwt>0</asrwt>
<pdfrwt beam="1">  1        2 0.45649585E-01 0.13283202E+03</pdfrwt>
<pdfrwt beam="2">  1       -2 0.81357380E-02 0.13283202E+03</pdfrwt>
<totfact> 0.96313208E+03</totfact>
</mgrwt>
</event>
<event>
 6    1  0.4705246E-006  0.1535296E+03  0.7546771E-02  0.1204440E+00
          1   -1    0    0  501    0  0.00000000000E+00  0.00000000000E+00  0.16344822900E+03  0.16344822900E+03  0.00000000000E+00 0. -1.
         -1   -1    0    0    0  501 -0.00000000000E+00 -0.00000000000E+00 -0.12303073505E+03  0.12303073505E+03  0.00000000000E+00 0.  1.
          5    1    1    2  502    0 -0.56909460333E+02 -0.24571852205E+02 -0.35136489173E+02  0.71408161071E+02  0.47000000000E+01 0. -1.
         -5    1    1    2    0  502 -0.21160369202E+02  0.67600093896E+02  0.41548862813E+02  0.82255285062E+02  0.47000000000E+01 0. -1.
        -11    1    1    2    0    0  0.56389905006E+02 -0.43781125159E+01  0.59169621014E+02  0.81853731172E+02  0.00000000000E+00 0. -1.
         11    1    1    2    0    0  0.21679924529E+02 -0.38650129175E+02 -0.25164500709E+02  0.50961786750E+02  0.00000000000E+00 0.  1.
<mgrwt>
<rscale>  0 0.14681676E+03</rscale>
<asrwt>0</asrwt>
<pdfrwt beam="1">  1        1 0.25145881E-01 0.15352959E+03</pdfrwt>
<pdfrwt beam="2">  1       -1 0.18927805E-01 0.15352959E+03</pdfrwt>
<totfact> 0.40508720E+03</totfact>
</mgrwt>
</event>
<event>
 6    1  0.4730009E-006  0.3066970E+03  0.7546771E-02  0.1081940E+00
         -1   -1    0    0    0  501 -0.00000000000E+00  0.00000000000E+00  0.15548836621E+02  0.15548836621E+02  0.00000000000E+00 0.  1.
          1   -1    0    0  501    0  0.00000000000E+00 -0.00000000000E+00 -0.15123803658E+04  0.15123803658E+04  0.00000000000E+00 0. -1.
          5    1    1    2  502    0  0.10180616834E+02  0.75300118187E+01 -0.42566776012E+03  0.42588200014E+03  0.47000000000E+01 0.  1.
         -5    1    1    2    0  502 -0.38546540026E+02 -0.11000084472E+03 -0.43987828912E+03  0.45508353170E+03  0.47000000000E+01 0.  1.
        -11    1    1    2    0    0 -0.20361750783E+02  0.88564686935E+02 -0.40052103065E+03  0.41070110867E+03  0.00000000000E+00 0.  1.
         11    1    1    2    0    0  0.48727673975E+02  0.13906145970E+02 -0.23076444933E+03  0.23626256195E+03  0.00000000000E+00 0. -1.
<mgrwt>
<rscale>  0 0.30669695E+03</rscale>
<asrwt>0</asrwt>
<pdfrwt beam="2">  1        1 0.23267392E+00 0.30669695E+03</pdfrwt>
<pdfrwt beam="1">  1       -1 0.23921285E-02 0.30669695E+03</pdfrwt>
<totfact> 0.37045076E+03</totfact>
</mgrwt>
</event>
<event>
 6    1  0.4705246E-006  0.1663380E+03  0.7546771E-02  0.1188750E+00
          1   -1    0    0  501    0  0.00000000000E+00  0.00000000000E+00  0.27884596854E+03  0.27884596854E+03  0.00000000000E+00 0. -1.
         -1   -1    0    0    0  501 -0.00000000000E+00 -0.00000000000E+00 -0.92754040679E+02  0.92754040679E+02  0.00000000000E+00 0.  1.
          5    1    1    2  502    0 -0.11313927921E+03  0.40473243938E+02  0.69251528273E+02  0.13876759039E+03  0.47000000000E+01 0.  1.
         -5    1    1    2    0  502  0.45682494687E+01 -0.24513542530E+02  0.82776865962E+02  0.86578763037E+02  0.47000000000E+01 0.  1.
        -11    1    1    2    0    0  0.77932384857E+02 -0.10732096530E+02  0.65262557434E+02  0.10221465603E+03  0.00000000000E+00 0. -1.
         11    1    1    2    0    0  0.30638644884E+02 -0.52276048777E+01 -0.31199023807E+02  0.44038999757E+02  0.00000000000E+00 0.  1.
<mgrwt>
<rscale>  0 0.15995310E+03</rscale>
<asrwt>0</asrwt>
<pdfrwt beam="1">  1        1 0.42899379E-01 0.16633805E+03</pdfrwt>
<pdfrwt beam="2">  1       -1 0.14269853E-01 0.16633805E+03</pdfrwt>
<totfact> 0.32670979E+03</totfact>
</mgrwt>
</event>
<event>
 6    1  0.4705246E-006  0.1472540E+03  0.7546771E-02  0.1213556E+00
         -1   -1    0    0    0  501 -0.00000000000E+00  0.00000000000E+00  0.16247836535E+02  0.16247836535E+02  0.00000000000E+00 0.  1.
          1   -1    0    0  501    0  0.00000000000E+00 -0.00000000000E+00 -0.11369441181E+04  0.11369441181E+04  0.00000000000E+00 0. -1.
          5    1    1    2  502    0  0.61628924512E+02  0.68660441111E+01 -0.24595952501E+03  0.25369951683E+03  0.47000000000E+01 0. -1.
         -5    1    1    2    0  502 -0.44949049950E+02  0.69141218400E+02 -0.47790566693E+03  0.48499158926E+03  0.47000000000E+01 0. -1.
        -11    1    1    2    0    0 -0.48453210368E+02 -0.56183823894E+02 -0.32646941221E+03  0.33479338819E+03  0.00000000000E+00 0. -1.
         11    1    1    2    0    0  0.31773335807E+02 -0.19823438618E+02 -0.70361677387E+02  0.79707460326E+02  0.00000000000E+00 0.  1.
<mgrwt>
<rscale>  0 0.13983115E+03</rscale>
<asrwt>0</asrwt>
<pdfrwt beam="2">  1        1 0.17491453E+00 0.14725398E+03</pdfrwt>
<pdfrwt beam="1">  1       -1 0.24996665E-02 0.14725398E+03</pdfrwt>
<totfact> 0.61332242E+03</totfact>
</mgrwt>
</event>
<event>
 6    1  0.4705246E-006  0.1303409E+03  0.7546771E-02  0.1240468E+00
         -2   -1    0    0    0  501 -0.00000000000E+00  0.00000000000E+00  0.19787063532E+02  0.19787063532E+02  0.00000000000E+00 0.  1.
          2   -1    0    0  501    0  0.00000000000E+00 -0.00000000000E+00 -0.69180842649E+03  0.69180842649E+03  0.00000000000E+00 0. -1.
          5    1    1    2  502    0  0.18493054846E+02 -0.16539779823E+01 -0.44744883545E+03  0.44785854806E+03  0.47000000000E+01 0. -1.
         -5    1    1    2    0  502  0.16165545847E+02  0.14462082393E+02 -0.46787329771E+01  0.22681649895E+02  0.47000000000E+01 0. -1.
        -11    1    1    2    0    0  0.23254454875E+02 -0.28815760663E+02 -0.10604856415E+03  0.11232727048E+03  0.00000000000E+00 0. -1.
         11    1    1    2    0    0 -0.57913055568E+02  0.16007656252E+02 -0.11384523038E+03  0.12872802160E+03  0.00000000000E+00 0.  1.
<mgrwt>
<rscale>  0 0.12160750E+03</rscale>
<asrwt>0</asrwt>
<pdfrwt beam="2">  1        2 0.10643206E+00 0.13034086E+03</pdfrwt>
<pdfrwt beam="1">  1       -2 0.30441638E-02 0.13034086E+03</pdfrwt>
<totfact> 0.16679253E+04</totfact>
</mgrwt>
</event>
<event>
 6    1  0.4705246E-006  0.3903668E+03  0.7546771E-02  0.1047167E+00
         -4   -1    0    0    0  501 -0.00000000000E+00  0.00000000000E+00  0.13529180891E+03  0.13529180891E+03  0.00000000000E+00 0.  1.
          4   -1    0    0  501    0  0.00000000000E+00 -0.00000000000E+00 -0.28158812584E+03  0.28158812584E+03  0.00000000000E+00 0. -1.
          5    1    1    2  502    0  0.37371627338E+02 -0.26505481227E+02 -0.14067401895E+02  0.48157666690E+02  0.47000000000E+01 0. -1.
         -5    1    1    2    0  502  0.80807345978E+02  0.12677728906E+03 -0.11159754781E+03  0.18729231394E+03  0.47000000000E+01 0. -1.
        -11    1    1    2    0    0 -0.93419655029E+02 -0.25055535011E+02 -0.30999258306E+02  0.10156754302E+03  0.00000000000E+00 0. -1.
         11    1    1    2    0    0 -0.24759318287E+02 -0.75216272818E+02  0.10367891085E+02  0.79862411084E+02  0.00000000000E+00 0.  1.
<mgrwt>
<rscale>  0 0.39036684E+03</rscale>
<asrwt>0</asrwt>
<pdfrwt beam="2">  1        4 0.43321250E-01 0.39036684E+03</pdfrwt>
<pdfrwt beam="1">  1       -4 0.20814125E-01 0.39036684E+03</pdfrwt>
<totfact> 0.21113087E+02</totfact>
</mgrwt>
</event>
<event>
 6    1  0.4705246E-006  0.1346486E+03  0.7546771E-02  0.1232426E+00
          2   -1    0    0  501    0  0.00000000000E+00  0.00000000000E+00  0.18831245775E+03  0.18831245775E+03  0.00000000000E+00 0.  1.
         -2   -1    0    0    0  501 -0.00000000000E+00 -0.00000000000E+00 -0.80586584792E+02  0.80586584792E+02  0.00000000000E+00 0. -1.
          5    1    1    2  502    0  0.47297630152E+02  0.20839988829E+02  0.11354235781E+03  0.12484121102E+03  0.47000000000E+01 0. -1.
         -5    1    1    2    0  502  0.22551932364E+01 -0.27730047028E+02 -0.23850276158E+02  0.36945460852E+02  0.47000000000E+01 0. -1.
        -11    1    1    2    0    0 -0.54186100220E+02 -0.29297009419E+02 -0.82482456909E+01  0.62148867849E+02  0.00000000000E+00 0. -1.
         11    1    1    2    0    0  0.46332768321E+01  0.36187067618E+02  0.26282036998E+02  0.44963502819E+02  0.00000000000E+00 0.  1.
<mgrwt>
<rscale>  0 0.12670692E+03</rscale>
<asrwt>0</asrwt>
<pdfrwt beam="1">  1        2 0.28971147E-01 0.13464865E+03</pdfrwt>
<pdfrwt beam="2">  1       -2 0.12397936E-01 0.13464865E+03</pdfrwt>
<totfact> 0.80851151E+03</totfact>
</mgrwt>
</event>
<event>
 6    1  0.4705246E-006  0.1826326E+03  0.7546771E-02  0.1170033E+00
          2   -1    0    0  501    0  0.00000000000E+00  0.00000000000E+00  0.79772303755E+02  0.79772303755E+02  0.00000000000E+00 0. -1.
         -2   -1    0    0    0  501 -0.00000000000E+00 -0.00000000000E+00 -0.39111246927E+03  0.39111246927E+03  0.00000000000E+00 0.  1.
          5    1    1    2  502    0  0.68329733696E+02 -0.57960401657E+02 -0.80620581351E+02  0.12062391473E+03  0.47000000000E+01 0. -1.
         -5    1    1    2    0  502  0.64788893893E+02  0.61187674162E+02 -0.36990400750E+02  0.96601821871E+02  0.47000000000E+01 0. -1.
        -11    1    1    2    0    0 -0.89062519320E+02 -0.23976787832E+02 -0.56781044572E+02  0.10831022909E+03  0.00000000000E+00 0. -1.
         11    1    1    2    0    0 -0.44056108270E+02  0.20749515328E+02 -0.13694813885E+03  0.14534880734E+03  0.00000000000E+00 0.  1.
<mgrwt>
<rscale>  0 0.17771527E+03</rscale>
<asrwt>0</asrwt>
<pdfrwt beam="1">  1        2 0.12272662E-01 0.18263263E+03</pdfrwt>
<pdfrwt beam="2">  1       -2 0.60171149E-01 0.18263263E+03</pdfrwt>
<totfact> 0.12881096E+03</totfact>
</mgrwt>
</event>
<event>
 6    1  0.4705246E-006  0.1422753E+03  0.7546771E-02  0.1210435E+00
          2   -1    0    0  501    0  0.00000000000E+00  0.00000000000E+00  0.35858894138E+03  0.35858894138E+03  0.00000000000E+00 0.  1.
         -2   -1    0    0    0  501 -0.00000000000E+00 -0.00000000000E+00 -0.56525753966E+02  0.56525753966E+02  0.00000000000E+00 0. -1.
          5    1    1    2  502    0 -0.88454953042E+02 -0.16519020378E+02  0.69231924697E+02  0.11363232880E+03  0.47000000000E+01 0. -1.
         -5    1    1    2    0  502  0.26271162609E+02  0.40931295102E+02  0.68086499748E+02  0.83805765622E+02  0.47000000000E+01 0. -1.
        -11    1    1    2    0    0  0.67674453455E+02 -0.54801350976E+02  0.53447684244E+02  0.10217472618E+03  0.00000000000E+00 0. -1.
         11    1    1    2    0    0 -0.54906630215E+01  0.30389076251E+02  0.11129707873E+03  0.11550187474E+03  0.00000000000E+00 0.  1.
<mgrwt>
<rscale>  0 0.14217243E+03</rscale>
<asrwt>0</asrwt>
<pdfrwt beam="1">  1        2 0.55167528E-01 0.14227532E+03</pdfrwt>
<pdfrwt beam="2">  1       -2 0.86962701E-02 0.14227532E+03</pdfrwt>
<totfact> 0.71379654E+03</totfact>
</mgrwt>
</event>
<event>
 6    1  0.4705246E-006  0.1490960E+03  0.7546771E-02  0.1218515E+00
         -3   -1    0    0    0  501 -0.00000000000E+00  0.00000000000E+00  0.10386722360E+03  0.10386722360E+03  0.00000000000E+00 0.  1.
          3   -1    0    0  501    0  0.00000000000E+00 -0.00000000000E+00 -0.17829676111E+03  0.17829676111E+03  0.00000000000E+00 0. -1.
          5    1    1    2  502    0  0.36421725902E+02 -0.65717170079E+02 -0.21093852411E+02  0.78181386343E+02  0.47000000000E+01 0.  1.
         -5    1    1    2    0  502 -0.64424440015E+02 -0.10881106650E+02 -0.73197176183E+02  0.98228425389E+02  0.47000000000E+01 0.  1.
        -11    1    1    2    0    0  0.17745564287E+02  0.34603750097E+02  0.41955307313E+02  0.57206401603E+02  0.00000000000E+00 0.  1.
         11    1    1    2    0    0  0.10257149826E+02  0.41994526632E+02 -0.22093816225E+02  0.48547771370E+02  0.00000000000E+00 0. -1.
<mgrwt>
<rscale>  0 0.13621487E+03</rscale>
<asrwt>0</asrwt>
<pdfrwt beam="2">  1        3 0.27430271E-01 0.14909602E+03</pdfrwt>
<pdfrwt beam="1">  1       -3 0.15979573E-01 0.14909602E+03</pdfrwt>
<totfact> 0.98690157E+02</totfact>
</mgrwt>
</event>
<event>
 6    1  0.4705246E-006  0.1297474E+03  0.7546771E-02  0.1243359E+00
          2   -1    0    0  501    0  0.00000000000E+00  0.00000000000E+00  0.53416468534E+03  0.53416468534E+03  0.00000000000E+00 0. -1.
         -2   -1    0    0    0  501 -0.00000000000E+00 -0.00000000000E+00 -0.23546526938E+02  0.23546526938E+02  0.00000000000E+00 0.  1.
          5    1    1    2  502    0  0.13845813808E+02  0.46303089724E+02  0.42689685029E+02  0.64654326119E+02  0.47000000000E+01 0.  1.
         -5    1    1    2    0  502  0.20865197764E+02 -0.43971968140E+02  0.26178891534E+03  0.26631638451E+03  0.47000000000E+01 0.  1.
        -11    1    1    2    0    0  0.13232855163E+02 -0.96313410415E+01  0.15027107679E+01  0.16435611509E+02  0.00000000000E+00 0.  1.
         11    1    1    2    0    0 -0.47943866735E+02  0.73002194575E+01  0.20463684726E+03  0.21030489015E+03  0.00000000000E+00 0. -1.
<mgrwt>
<rscale>  0 0.11984113E+03</rscale>
<asrwt>0</asrwt>
<pdfrwt beam="1">  1        2 0.82179173E-01 0.12974742E+03</pdfrwt>
<pdfrwt beam="2">  1       -2 0.36225430E-02 0.12974742E+03</pdfrwt>
<totfact> 0.17332550E+04</totfact>
</mgrwt>
</event>
<event>
 6    1  0.4705246E-006  0.1328261E+03  0.7546771E-02  0.1235689E+00
          2   -1    0    0  501    0  0.00000000000E+00  0.00000000000E+00  0.11787135573E+03  0.11787135573E+03  0.00000000000E+00 0. -1.
         -2   -1    0    0    0  501 -0.00000000000E+00 -0.00000000000E+00 -0.11877897784E+03  0.11877897784E+03  0.00000000000E+00 0.  1.
          5    1    1    2  502    0 -0.13768063942E+02 -0.38985603199E+02  0.20196076732E+02  0.46253738842E+02  0.47000000000E+01 0. -1.
         -5    1    1    2    0  502  0.31863803908E+02  0.80120714126E+02 -0.10175633966E+02  0.86949780668E+02  0.47000000000E+01 0. -1.
        -11    1    1    2    0    0  0.21821000780E+02  0.44568015495E+01 -0.32263307135E+02  0.39203828159E+02  0.00000000000E+00 0.  1.
         11    1    1    2    0    0 -0.39916740745E+02 -0.45591912477E+02  0.21335242255E+02  0.64242985898E+02  0.00000000000E+00 0. -1.
<mgrwt>
<rscale>  0 0.12460417E+03</rscale>
<asrwt>0</asrwt>
<pdfrwt beam="1">  1        2 0.18134055E-01 0.13282608E+03</pdfrwt>
<pdfrwt beam="2">  1       -2 0.18273689E-01 0.13282608E+03</pdfrwt>
<totfact> 0.72178418E+03</totfact>
</mgrwt>
</event>
<event>
 6    1  0.4705246E-006  0.2496572E+03  0.7546771E-02  0.1113522E+00
          4   -1    0    0  501    0  0.00000000000E+00  0.00000000000E+00  0.36002613282E+02  0.36002613282E+02  0.00000000000E+00 0. -1.
         -4   -1    0    0    0  501 -0.00000000000E+00 -0.00000000000E+00 -0.43280702809E+03  0.43280702809E+03  0.00000000000E+00 0.  1.
          5    1    1    2  502    0  0.29323076339E+00 -0.24239383777E+02  0.70676834764E+01  0.25684155815E+02  0.47000000000E+01 0. -1.
         -5    1    1    2    0  502  0.56952581620E+02  0.14629763485E+01 -0.23187290795E+03  0.23881556125E+03  0.47000000000E+01 0. -1.
        -11    1    1    2    0    0 -0.47614261051E+02 -0.17297362345E+02 -0.35854203618E+02  0.62063197763E+02  0.00000000000E+00 0. -1.
         11    1    1    2    0    0 -0.96315513331E+01  0.40073769774E+02 -0.13614498671E+03  0.14224672654E+03  0.00000000000E+00 0.  1.
<mgrwt>
<rscale>  0 0.24965724E+03</rscale>
<asrwt>0</asrwt>
<pdfrwt beam="1">  1        4 0.55388631E-02 0.24965724E+03</pdfrwt>
<pdfrwt beam="2">  1       -4 0.66585702E-01 0.24965724E+03</pdfrwt>
<totfact> 0.79466934E+02</totfact>
</mgrwt>
</event>
<event>
 6    1  0.4705246E-006  0.2340732E+03  0.7546771E-02  0.1126708E+00
         -2   -1    0    0    0  501 -0.00000000000E+00  0.00000000000E+00  0.74964407021E+02  0.74964407021E+02  0.00000000000E+00 0.  1.
          2   -1    0    0  501    0  0.00000000000E+00 -0.00000000000E+00 -0.69120485009E+03  0.69120485009E+03  0.00000000000E+00 0. -1.
          5    1    1    2  502    0  0.14408987771E+03  0.34311866025E+02 -0.33879283651E+03  0.36978625323E+03  0.47000000000E+01 0. -1.
         -5    1    1    2    0  502  0.37396037764E+02  0.44586500819E+02 -0.26611327748E+02  0.64161300332E+02  0.47000000000E+01 0. -1.
        -11    1    1    2    0    0 -0.15387205730E+03 -0.23363409086E+02 -0.18534587488E+03  0.24202386708E+03  0.00000000000E+00 0.  1.
         11    1    1    2    0    0 -0.27613858175E+02 -0.55534957758E+02 -0.65490403926E+02  0.90197836465E+02  0.00000000000E+00 0. -1.
<mgrwt>
<rscale>  0 0.22990378E+03</rscale>
<asrwt>0</asrwt>
<pdfrwt beam="2">  1        2 0.10633921E+00 0.23407323E+03</pdfrwt>
<pdfrwt beam="1">  1       -2 0.11532986E-01 0.23407323E+03</pdfrwt>
<totfact> 0.22369713E+03</totfact>
</mgrwt>
</event>
<event>
 6    1  0.4705246E-006  0.2577210E+03  0.7546771E-02  0.1108520E+00
         -1   -1    0    0    0  501 -0.00000000000E+00  0.00000000000E+00  0.29952613536E+03  0.29952613536E+03  0.00000000000E+00 0.  1.
          1   -1    0    0  501    0  0.00000000000E+00 -0.00000000000E+00 -0.55437675624E+02  0.55437675624E+02  0.00000000000E+00 0. -1.
          5    1    1    2  502    0 -0.91000902766E+02  0.31443920501E+02  0.58977276008E+02  0.11300572342E+03  0.47000000000E+01 0. -1.
         -5    1    1    2    0  502  0.22674609402E+02 -0.15817755371E+02  0.87636210320E+02  0.92013774272E+02  0.47000000000E+01 0. -1.
        -11    1    1    2    0    0  0.26506874339E+02 -0.29343442039E+01  0.10253774635E+03  0.10594911132E+03  0.00000000000E+00 0.  1.
         11    1    1    2    0    0  0.41819419025E+02 -0.12691820926E+02 -0.50627729472E+01  0.43995201965E+02  0.00000000000E+00 0. -1.
<mgrwt>
<rscale>  0 0.25772103E+03</rscale>
<asrwt>0</asrwt>
<pdfrwt beam="2">  1        1 0.85288733E-02 0.25772103E+03</pdfrwt>
<pdfrwt beam="1">  1       -1 0.46080943E-01 0.25772103E+03</pdfrwt>
<totfact> 0.37776523E+03</totfact>
</mgrwt>
</event>
<event>
 6    1  0.4705246E-006  0.1838711E+03  0.7546771E-02  0.1211511E+00
          1   -1    0    0  501    0  0.00000000000E+00  0.00000000000E+00  0.16588218945E+04  0.16588218945E+04  0.00000000000E+00 0. -1.
         -1   -1    0    0    0  501 -0.00000000000E+00 -0.00000000000E+00 -0.28106249214E+02  0.28106249214E+02  0.00000000000E+00 0.  1.
          5    1    1    2  502    0 -0.74699056262E+02  0.60340534584E+02  0.13090368969E+04  0.13125626143E+04  0.47000000000E+01 0. -1.
         -5    1    1    2    0  502  0.28671873785E+02 -0.58018667428E+02  0.29944129397E+03  0.30639096046E+03  0.47000000000E+01 0.  1.
        -11    1    1    2    0    0  0.28207991753E+02 -0.16026462185E+02  0.30004732869E+02  0.44190748844E+02  0.00000000000E+00 0. -1.
         11    1    1    2    0    0  0.17819190724E+02  0.13704595028E+02 -0.77672784463E+01  0.23783820076E+02  0.00000000000E+00 0.  1.
<mgrwt>
<rscale>  0 0.14136008E+03</rscale>
<asrwt>0</asrwt>
<pdfrwt beam="1">  1        1 0.25520329E+00 0.18387111E+03</pdfrwt>
<pdfrwt beam="2">  1       -1 0.43240397E-02 0.18387111E+03</pdfrwt>
<totfact> 0.12377374E+03</totfact>
</mgrwt>
</event>
<event>
 6    1  0.4705246E-006  0.1350102E+03  0.7546771E-02  0.1233100E+00
          1   -1    0    0  501    0  0.00000000000E+00  0.00000000000E+00  0.32697025065E+03  0.32697025065E+03  0.00000000000E+00 0. -1.
         -1   -1    0    0    0  501 -0.00000000000E+00 -0.00000000000E+00 -0.43429396844E+02  0.43429396844E+02  0.00000000000E+00 0.  1.
          5    1    1    2  502    0 -0.15167014236E+02  0.68337511905E+02  0.51245178669E+02  0.86880447691E+02  0.47000000000E+01 0.  1.
         -5    1    1    2    0  502 -0.30669978420E+02 -0.45936979282E+02  0.11194523928E+03  0.12491869452E+03  0.47000000000E+01 0.  1.
        -11    1    1    2    0    0  0.59156405384E+02 -0.41302026993E+02  0.11348924785E+03  0.13448102881E+03  0.00000000000E+00 0. -1.
         11    1    1    2    0    0 -0.13319412729E+02  0.18901494370E+02  0.68611880077E+01  0.24119476481E+02  0.00000000000E+00 0.  1.
<mgrwt>
<rscale>  0 0.12626850E+03</rscale>
<asrwt>0</asrwt>
<pdfrwt beam="1">  1        1 0.50303114E-01 0.13501024E+03</pdfrwt>
<pdfrwt beam="2">  1       -1 0.66814459E-02 0.13501024E+03</pdfrwt>
<totfact> 0.84566754E+03</totfact>
</mgrwt>
</event>
<event>
 6    1  0.4705246E-006  0.1255181E+03  0.7546771E-02  0.1249621E+00
         -2   -1    0    0    0  501 -0.00000000000E+00  0.00000000000E+00  0.30697973872E+02  0.30697973872E+02  0.00000000000E+00 0. -1.
          2   -1    0    0  501    0  0.00000000000E+00 -0.00000000000E+00 -0.46648698000E+03  0.46648698000E+03  0.00000000000E+00 0.  1.
          5    1    1    2  502    0 -0.18619578546E+01 -0.54368326603E+02 -0.23510837335E+03  0.24136573709E+03  0.47000000000E+01 0. -1.
         -5    1    1    2    0  502 -0.71169696180E+01  0.61002061179E+02 -0.11326830801E+03  0.12893293732E+03  0.47000000000E+01 0. -1.
        -11    1    1    2    0    0 -0.29400660553E+02  0.24119887161E+02 -0.58686793732E+02  0.69930733988E+02  0.00000000000E+00 0.  1.
         11    1    1    2    0    0  0.38379588025E+02 -0.30753621738E+02 -0.28725531032E+02  0.56955545472E+02  0.00000000000E+00 0. -1.
<mgrwt>
<rscale>  0 0.11613043E+03</rscale>
<asrwt>0</asrwt>
<pdfrwt beam="2">  1        2 0.71767228E-01 0.12551811E+03</pdfrwt>
<pdfrwt beam="1">  1       -2 0.47227652E-02 0.12551811E+03</pdfrwt>
<totfact> 0.13519938E+04</totfact>
</mgrwt>
</event>
<event>
 6    1  0.4705246E-006  0.1297650E+03  0.7546771E-02  0.1242021E+00
          2   -1    0    0  501    0  0.00000000000E+00  0.00000000000E+00  0.77905252798E+03  0.77905252798E+03  0.00000000000E+00 0. -1.
         -2   -1    0    0    0  501 -0.00000000000E+00 -0.00000000000E+00 -0.21028792962E+02  0.21028792962E+02  0.00000000000E+00 0.  1.
          5    1    1    2  502    0  0.33335659871E+02 -0.32307148173E+02  0.11725974648E+03  0.12620204510E+03  0.47000000000E+01 0.  1.
         -5    1    1    2    0  502 -0.21371535307E+02  0.65038646851E+02  0.48887503929E+03  0.49366756238E+03  0.47000000000E+01 0.  1.
        -11    1    1    2    0    0 -0.46660707355E+02 -0.15586590048E+02  0.45532288516E+02  0.67032474948E+02  0.00000000000E+00 0.  1.
         11    1    1    2    0    0  0.34696582792E+02 -0.17144908630E+02  0.10635666073E+03  0.11317923852E+03  0.00000000000E+00 0. -1.
<mgrwt>
<rscale>  0 0.12065458E+03</rscale>
<asrwt>0</asrwt>
<pdfrwt beam="1">  1        2 0.11985421E+00 0.12976499E+03</pdfrwt>
<pdfrwt beam="2">  1       -2 0.32351995E-02 0.12976499E+03</pdfrwt>
<totfact> 0.13214915E+04</totfact>
</mgrwt>
</event>
<event>
 6    1  0.4705246E-006  0.1417704E+03  0.7546771E-02  0.1226153E+00
         -2   -1    0    0    0  501 -0.00000000000E+00  0.00000000000E+00  0.20565889960E+02  0.20565889960E+02  0.00000000000E+00 0.  1.
          2   -1    0    0  501    0  0.00000000000E+00 -0.00000000000E+00 -0.73105223374E+03  0.73105223374E+03  0.00000000000E+00 0. -1.
          5    1    1    2  502    0  0.47538393345E+01  0.68300589730E+02 -0.41157974011E+03  0.41726195850E+03  0.47000000000E+01 0.  1.
         -5    1    1    2    0  502  0.30153126338E+02 -0.11245789730E+02 -0.22937279698E+02  0.39798085564E+02  0.47000000000E+01 0.  1.
        -11    1    1    2    0    0  0.20186605280E+02 -0.29944195268E+02 -0.60000550771E+02  0.70030136055E+02  0.00000000000E+00 0.  1.
         11    1    1    2    0    0 -0.55093570953E+02 -0.27110604731E+02 -0.21596877320E+03  0.22452794358E+03  0.00000000000E+00 0. -1.
<mgrwt>
<rscale>  0 0.13088202E+03</rscale>
<asrwt>0</asrwt>
<pdfrwt beam="2">  1        2 0.11246955E+00 0.14177039E+03</pdfrwt>
<pdfrwt beam="1">  1       -2 0.31639838E-02 0.14177039E+03</pdfrwt>
<totfact> 0.14846111E+04</totfact>
</mgrwt>
</event>
<event>
 6    1  0.4705246E-006  0.3177003E+03  0.7546771E-02  0.1076713E+00
         -1   -1    0    0    0  501 -0.00000000000E+00  0.00000000000E+00  0.29639431188E+02  0.29639431188E+02  0.00000000000E+00 0.  1.
          1   -1    0    0  501    0  0.00000000000E+00 -0.00000000000E+00 -0.85134474744E+03  0.85134474744E+03  0.00000000000E+00 0. -1.
          5    1    1    2  502    0 -0.10882600095E+03  0.21541989832E+02 -0.47232350322E+03  0.48519968827E+03  0.47000000000E+01 0. -1.
         -5    1    1    2    0  502  0.91400231365E+01  0.30482788779E+02 -0.28113527935E+02  0.42722369874E+02  0.47000000000E+01 0. -1.
        -11    1    1    2    0    0  0.37896922562E+02 -0.58224992563E+02 -0.24527004519E+03  0.25491904905E+03  0.00000000000E+00 0.  1.
         11    1    1    2    0    0  0.61789055248E+02  0.62002139517E+01 -0.75998239901E+02  0.98143071429E+02  0.00000000000E+00 0. -1.
<mgrwt>
<rscale>  0 0.31770032E+03</rscale>
<asrwt>0</asrwt>
<pdfrwt beam="2">  1        1 0.13097614E+00 0.31770032E+03</pdfrwt>
<pdfrwt beam="1">  1       -1 0.45599117E-02 0.31770032E+03</pdfrwt>
<totfact> 0.42317939E+03</totfact>
</mgrwt>
</event>
<event>
 6    1  0.4705246E-006  0.1338337E+03  0.7546771E-02  0.1243632E+00
         -2   -1    0    0    0  501 -0.00000000000E+00  0.00000000000E+00  0.14847528232E+02  0.14847528232E+02  0.00000000000E+00 0.  1.
          2   -1    0    0  501    0  0.00000000000E+00 -0.00000000000E+00 -0.89970530818E+03  0.89970530818E+03  0.00000000000E+00 0. -1.
          5    1    1    2  502    0 -0.39300767624E+02 -0.49338389491E+02 -0.31694895514E+03  0.32319894365E+03  0.47000000000E+01 0. -1.
         -5    1    1    2    0  502 -0.37151834430E+01  0.70326165386E+02 -0.35392307444E+03  0.36089223426E+03  0.47000000000E+01 0. -1.
        -11    1    1    2    0    0  0.39769073934E+02  0.12036829206E+02 -0.17198908630E+03  0.17693702356E+03  0.00000000000E+00 0. -1.
         11    1    1    2    0    0  0.32468771329E+01 -0.33024605101E+02 -0.41996664064E+02  0.53524634942E+02  0.00000000000E+00 0.  1.
<mgrwt>
<rscale>  0 0.11967621E+03</rscale>
<asrwt>0</asrwt>
<pdfrwt beam="2">  1        2 0.13841619E+00 0.13383370E+03</pdfrwt>
<pdfrwt beam="1">  1       -2 0.22842354E-02 0.13383370E+03</pdfrwt>
<totfact> 0.18372635E+04</totfact>
</mgrwt>
</event>
<event>
 6    1  0.4705246E-006  0.1280919E+03  0.7546771E-02  0.1247452E+00
          2   -1    0    0  501    0  0.00000000000E+00  0.00000000000E+00  0.10090255430E+04  0.10090255430E+04  0.00000000000E+00 0. -1.
         -2   -1    0    0    0  501 -0.00000000000E+00 -0.00000000000E+00 -0.11970552327E+02  0.11970552327E+02  0.00000000000E+00 0.  1.
          5    1    1    2  502    0  0.57950404703E+02 -0.36623282830E+02  0.27253348244E+03  0.28106245445E+03  0.47000000000E+01 0. -1.
         -5    1    1    2    0  502 -0.54626367184E+02  0.88519187254E+01  0.36628488723E+03  0.37047146323E+03  0.47000000000E+01 0. -1.
        -11    1    1    2    0    0  0.36788260361E+02 -0.33899644868E+01  0.19630077260E+03  0.19974699317E+03  0.00000000000E+00 0.  1.
         11    1    1    2    0    0 -0.40112297880E+02  0.31161328591E+02  0.16193584838E+03  0.16971518444E+03  0.00000000000E+00 0. -1.
<mgrwt>
<rscale>  0 0.11739814E+03</rscale>
<asrwt>0</asrwt>
<pdfrwt beam="1">  1        2 0.15523463E+00 0.12809191E+03</pdfrwt>
<pdfrwt beam="2">  1       -2 0.18416242E-02 0.12809191E+03</pdfrwt>
<totfact> 0.21465456E+04</totfact>
</mgrwt>
</event>
<event>
 6    1  0.4705246E-006  0.1630136E+03  0.7546771E-02  0.1192716E+00
         -2   -1    0    0    0  501 -0.00000000000E+00  0.00000000000E+00  0.87269449567E+02  0.87269449567E+02  0.00000000000E+00 0.  1.
          2   -1    0    0  501    0  0.00000000000E+00 -0.00000000000E+00 -0.26826655728E+03  0.26826655728E+03  0.00000000000E+00 0. -1.
          5    1    1    2  502    0  0.24534003687E+02  0.20389727270E+02 -0.42353626412E+02  0.53231362798E+02  0.47000000000E+01 0. -1.
         -5    1    1    2    0  502 -0.27388014384E+02 -0.12497943392E+03 -0.85751584466E+02  0.15409538109E+03  0.47000000000E+01 0. -1.
        -11    1    1    2    0    0 -0.37393316757E+01  0.21767054859E+02  0.25669756688E+02  0.33863308861E+02  0.00000000000E+00 0.  1.
         11    1    1    2    0    0  0.65933423723E+01  0.82822651794E+02 -0.78561653522E+02  0.11434595409E+03  0.00000000000E+00 0. -1.
<mgrwt>
<rscale>  0 0.15649166E+03</rscale>
<asrwt>0</asrwt>
<pdfrwt beam="2">  1        2 0.41271777E-01 0.16301360E+03</pdfrwt>
<pdfrwt beam="1">  1       -2 0.13426069E-01 0.16301360E+03</pdfrwt>
<totfact> 0.49193826E+03</totfact>
</mgrwt>
</event>
<event>
 6    1  0.4705246E-006  0.1452779E+03  0.7546771E-02  0.1216126E+00
         -1   -1    0    0    0  501 -0.00000000000E+00  0.00000000000E+00  0.22327073753E+03  0.22327073753E+03  0.00000000000E+00 0.  1.
          1   -1    0    0  501    0  0.00000000000E+00 -0.00000000000E+00 -0.78140642980E+02  0.78140642980E+02  0.00000000000E+00 0. -1.
          5    1    1    2  502    0  0.36989402771E+02  0.69489526091E+02  0.69967696910E+02  0.10542570258E+03  0.47000000000E+01 0. -1.
         -5    1    1    2    0  502  0.34916904815E+02 -0.51898094242E+02  0.21794439375E+02  0.66405496877E+02  0.47000000000E+01 0. -1.
        -11    1    1    2    0    0 -0.64793242356E+01  0.27046981415E+02 -0.84941574503E+01  0.29080432545E+02  0.00000000000E+00 0. -1.
         11    1    1    2    0    0 -0.65426983351E+02 -0.44638413264E+02  0.61862115718E+02  0.10049974851E+03  0.00000000000E+00 0.  1.
<mgrwt>
<rscale>  0 0.13794113E+03</rscale>
<asrwt>0</asrwt>
<pdfrwt beam="2">  1        1 0.12021637E-01 0.14527791E+03</pdfrwt>
<pdfrwt beam="1">  1       -1 0.34349344E-01 0.14527791E+03</pdfrwt>
<totfact> 0.38956812E+03</totfact>
</mgrwt>
</event>
<event>
 6    1  0.4705246E-006  0.1484859E+03  0.7546771E-02  0.1211766E+00
          2   -1    0    0  501    0  0.00000000000E+00  0.00000000000E+00  0.38687237346E+02  0.38687237346E+02  0.00000000000E+00 0. -1.
         -2   -1    0    0    0  501 -0.00000000000E+00 -0.00000000000E+00 -0.47083738246E+03  0.47083738246E+03  0.00000000000E+00 0.  1.
          5    1    1    2  502    0 -0.18368876680E+02 -0.22230694535E+02 -0.14877607057E+03  0.15161803516E+03  0.47000000000E+01 0. -1.
         -5    1    1    2    0  502  0.90034039766E+02 -0.13641011004E+02 -0.81022788373E+02  0.12197945620E+03  0.47000000000E+01 0. -1.
        -11    1    1    2    0    0  0.41448378748E+01 -0.19267457342E+02 -0.10342548907E+02  0.22257199090E+02  0.00000000000E+00 0. -1.
         11    1    1    2    0    0 -0.75810000961E+02  0.55139162882E+02 -0.19200873726E+03  0.21366992936E+03  0.00000000000E+00 0.  1.
<mgrwt>
<rscale>  0 0.14116795E+03</rscale>
<asrwt>0</asrwt>
<pdfrwt beam="1">  1        2 0.59518833E-02 0.14848593E+03</pdfrwt>
<pdfrwt beam="2">  1       -2 0.72436513E-01 0.14848593E+03</pdfrwt>
<totfact> 0.21377320E+03</totfact>
</mgrwt>
</event>
<event>
 6    1  0.4705246E-006  0.1260624E+03  0.7546771E-02  0.1249259E+00
         -2   -1    0    0    0  501 -0.00000000000E+00  0.00000000000E+00  0.23374339878E+02  0.23374339878E+02  0.00000000000E+00 0.  1.
          2   -1    0    0  501    0  0.00000000000E+00 -0.00000000000E+00 -0.50724417379E+03  0.50724417379E+03  0.00000000000E+00 0. -1.
          5    1    1    2  502    0  0.42089480721E+02  0.36542206325E+02 -0.17411972224E+03  0.18288418440E+03  0.47000000000E+01 0.  1.
         -5    1    1    2    0  502 -0.57790139022E+02 -0.32065022721E+02 -0.11917591840E+03  0.13635562099E+03  0.47000000000E+01 0.  1.
        -11    1    1    2    0    0  0.94635675628E+01 -0.44213645662E+02 -0.62525597361E+02  0.77161233136E+02  0.00000000000E+00 0.  1.
         11    1    1    2    0    0  0.62370907381E+01  0.39736462058E+02 -0.12804859591E+03  0.13421747514E+03  0.00000000000E+00 0. -1.
<mgrwt>
<rscale>  0 0.11634044E+03</rscale>
<asrwt>0</asrwt>
<pdfrwt beam="2">  1        2 0.78037557E-01 0.12606237E+03</pdfrwt>
<pdfrwt beam="1">  1       -2 0.35960527E-02 0.12606237E+03</pdfrwt>
<totfact> 0.18504282E+04</totfact>
</mgrwt>
</event>
<event>
 6    1  0.4705246E-006  0.1335314E+03  0.7546771E-02  0.1235773E+00
         -3   -1    0    0    0  501 -0.00000000000E+00  0.00000000000E+00  0.29072824022E+03  0.29072824022E+03  0.00000000000E+00 0.  1.
          3   -1    0    0  501    0  0.00000000000E+00 -0.00000000000E+00 -0.48156911642E+02  0.48156911642E+02  0.00000000000E+00 0. -1.
          5    1    1    2  502    0 -0.32895439909E+02  0.68440548539E+02  0.98725811483E+02  0.12463985921E+03  0.47000000000E+01 0. -1.
         -5    1    1    2    0  502 -0.94165307017E+01 -0.48083070574E+02  0.17041563531E+02  0.52087979553E+02  0.47000000000E+01 0. -1.
        -11    1    1    2    0    0 -0.12443576553E+02 -0.40413853846E+02  0.45654859219E+02  0.62229320665E+02  0.00000000000E+00 0.  1.
         11    1    1    2    0    0  0.54755547164E+02  0.20056375881E+02  0.81149094347E+02  0.99927992435E+02  0.00000000000E+00 0. -1.
<mgrwt>
<rscale>  0 0.12455077E+03</rscale>
<asrwt>0</asrwt>
<pdfrwt beam="2">  1        3 0.74087558E-02 0.13353143E+03</pdfrwt>
<pdfrwt beam="1">  1       -3 0.44727421E-01 0.13353143E+03</pdfrwt>
<totfact> 0.13844011E+03</totfact>
</mgrwt>
</event>
<event>
 6    1  0.4705246E-006  0.2112435E+03  0.7546771E-02  0.1172707E+00
         -2   -1    0    0    0  501 -0.00000000000E+00  0.00000000000E+00  0.13526039547E+03  0.13526039547E+03  0.00000000000E+00 0.  1.
          2   -1    0    0  501    0  0.00000000000E+00 -0.00000000000E+00 -0.19583001622E+03  0.19583001622E+03  0.00000000000E+00 0. -1.
          5    1    1    2  502    0 -0.16314409963E+02  0.48800869603E+02 -0.11013139221E+03  0.12164990093E+03  0.47000000000E+01 0. -1.
         -5    1    1    2    0  502  0.19215375825E+01 -0.10379184679E+03  0.23712156001E+02  0.10658703537E+03  0.47000000000E+01 0.  1.
        -11    1    1    2    0    0  0.32676626840E+02 -0.63380450401E+01  0.19415698237E+02  0.38534427394E+02  0.00000000000E+00 0. -1.
         11    1    1    2    0    0 -0.18283754459E+02  0.61329022230E+02  0.64339172234E+01  0.64319048000E+02  0.00000000000E+00 0.  1.
<mgrwt>
<rscale>  0 0.17502504E+03</rscale>
<asrwt>0</asrwt>
<pdfrwt beam="2">  1        2 0.30127695E-01 0.21124350E+03</pdfrwt>
<pdfrwt beam="1">  1       -2 0.20809292E-01 0.21124350E+03</pdfrwt>
<totfact> 0.33719688E+03</totfact>
</mgrwt>
</event>
<event>
 6    1  0.4705246E-006  0.1811880E+03  0.7546771E-02  0.1170043E+00
          1   -1    0    0  501    0  0.00000000000E+00  0.00000000000E+00  0.58834671311E+03  0.58834671311E+03  0.00000000000E+00 0. -1.
         -1   -1    0    0    0  501 -0.00000000000E+00 -0.00000000000E+00 -0.54597332476E+02  0.54597332476E+02  0.00000000000E+00 0.  1.
          5    1    1    2  502    0 -0.64371269934E+02  0.26952617379E+02  0.10526528293E+03  0.12638423069E+03  0.47000000000E+01 0. -1.
         -5    1    1    2    0  502  0.38023789851E+02  0.10153932298E+03  0.24532273139E+03  0.26825617466E+03  0.47000000000E+01 0. -1.
        -11    1    1    2    0    0  0.62202854679E+02 -0.11080081551E+03  0.14795591732E+03  0.19503068814E+03  0.00000000000E+00 0. -1.
         11    1    1    2    0    0 -0.35855374596E+02 -0.17691124854E+02  0.35205448987E+02  0.53272952090E+02  0.00000000000E+00 0.  1.
<mgrwt>
<rscale>  0 0.17770439E+03</rscale>
<asrwt>0</asrwt>
<pdfrwt beam="1">  1        1 0.90514875E-01 0.18118801E+03</pdfrwt>
<pdfrwt beam="2">  1       -1 0.83995900E-02 0.18118801E+03</pdfrwt>
<totfact> 0.28482442E+03</totfact>
</mgrwt>
</event>
<event>
 6    1  0.4705246E-006  0.1349272E+03  0.7546771E-02  0.1232124E+00
         -1   -1    0    0    0  501 -0.00000000000E+00  0.00000000000E+00  0.18734464407E+03  0.18734464407E+03  0.00000000000E+00 0.  1.
          1   -1    0    0  501    0  0.00000000000E+00 -0.00000000000E+00 -0.80186899546E+02  0.80186899546E+02  0.00000000000E+00 0. -1.
          5    1    1    2  502    0 -0.19014182825E+02  0.25304997731E+02 -0.28145502557E+02  0.42616210212E+02  0.47000000000E+01 0. -1.
         -5    1    1    2    0  502  0.69768045770E+02 -0.23459898501E+02  0.62349123120E+02  0.96578725411E+02  0.47000000000E+01 0. -1.
        -11    1    1    2    0    0 -0.86055575597E+01 -0.41927163291E+02  0.12830002593E+02  0.44682788734E+02  0.00000000000E+00 0. -1.
         11    1    1    2    0    0 -0.42148305386E+02  0.40082064061E+02  0.60124121369E+02  0.83653819260E+02  0.00000000000E+00 0.  1.
<mgrwt>
<rscale>  0 0.12690364E+03</rscale>
<asrwt>0</asrwt>
<pdfrwt beam="2">  1        1 0.12336446E-01 0.13492717E+03</pdfrwt>
<pdfrwt beam="1">  1       -1 0.28822253E-01 0.13492717E+03</pdfrwt>
<totfact> 0.50446944E+03</totfact>
</mgrwt>
</event>
<event>
 6    1  0.4705246E-006  0.1720235E+03  0.7546771E-02  0.1181653E+00
          2   -1    0    0  501    0  0.00000000000E+00  0.00000000000E+00  0.50943181564E+03  0.50943181564E+03  0.00000000000E+00 0. -1.
         -2   -1    0    0    0  501 -0.00000000000E+00 -0.00000000000E+00 -0.51862035042E+02  0.51862035042E+02  0.00000000000E+00 0.  1.
          5    1    1    2  502    0 -0.25748430588E+02  0.22502009917E+02  0.11104873834E+03  0.11628944240E+03  0.47000000000E+01 0.  1.
         -5    1    1    2    0  502  0.11714622605E+03  0.52417950481E+02  0.16698598169E+03  0.21065917472E+03  0.47000000000E+01 0.  1.
        -11    1    1    2    0    0  0.26461398997E+01 -0.29392867712E+02  0.96417859225E+02  0.10083325992E+03  0.00000000000E+00 0. -1.
         11    1    1    2    0    0 -0.94043935360E+02 -0.45527092686E+02  0.83117201339E+02  0.13351197364E+03  0.00000000000E+00 0.  1.
<mgrwt>
<rscale>  0 0.16640174E+03</rscale>
<asrwt>0</asrwt>
<pdfrwt beam="1">  1        2 0.78374122E-01 0.17202352E+03</pdfrwt>
<pdfrwt beam="2">  1       -2 0.79787750E-02 0.17202352E+03</pdfrwt>
<totfact> 0.56384012E+03</totfact>
</mgrwt>
</event>
<event>
 6    1  0.4705246E-006  0.2727467E+03  0.7546771E-02  0.1099718E+00
          1   -1    0    0  501    0  0.00000000000E+00  0.00000000000E+00  0.84427286655E+03  0.84427286655E+03  0.00000000000E+00 0. -1.
         -1   -1    0    0    0  501 -0.00000000000E+00 -0.00000000000E+00 -0.22028050917E+02  0.22028050917E+02  0.00000000000E+00 0.  1.
          5    1    1    2  502    0 -0.36659527291E+02  0.13402076681E+02  0.98024080125E+02  0.10561414150E+03  0.47000000000E+01 0.  1.
         -5    1    1    2    0  502  0.87729296749E+02  0.16545937200E+02  0.52725722700E+03  0.53478263900E+03  0.47000000000E+01 0.  1.
        -11    1    1    2    0    0 -0.39521878357E+02  0.19532265430E+02  0.35398547956E+02  0.56538000133E+02  0.00000000000E+00 0.  1.
         11    1    1    2    0    0 -0.11547891101E+02 -0.49480279311E+02  0.16156496055E+03  0.16936613684E+03  0.00000000000E+00 0. -1.
<mgrwt>
<rscale>  0 0.27274666E+03</rscale>
<asrwt>0</asrwt>
<pdfrwt beam="1">  1        1 0.12988811E+00 0.27274666E+03</pdfrwt>
<pdfrwt beam="2">  1       -1 0.33889316E-02 0.27274666E+03</pdfrwt>
<totfact> 0.66527717E+03</totfact>
</mgrwt>
</event>
<event>
 6    1  0.6585995E-006  0.1875471E+03  0.7546771E-02  0.1165817E+00
         -1   -1    0    0    0  501 -0.00000000000E+00  0.00000000000E+00  0.43945121946E+02  0.43945121946E+02  0.00000000000E+00 0.  1.
          1   -1    0    0  501    0  0.00000000000E+00 -0.00000000000E+00 -0.74262266127E+03  0.74262266127E+03  0.00000000000E+00 0. -1.
          5    1    1    2  502    0 -0.17998035024E+02  0.43341638741E+02 -0.44661353836E+02  0.64955010892E+02  0.47000000000E+01 0.  1.
         -5    1    1    2    0  502 -0.11880879416E+03 -0.14500277920E+02 -0.40246562141E+03  0.41991243617E+03  0.47000000000E+01 0.  1.
        -11    1    1    2    0    0  0.29353888460E+02 -0.30621993549E+02 -0.14215450849E+03  0.14834844637E+03  0.00000000000E+00 0. -1.
         11    1    1    2    0    0  0.10745294073E+03  0.17806327278E+01 -0.10939605559E+03  0.15335188979E+03  0.00000000000E+00 0.  1.
<mgrwt>
<rscale>  0 0.18206716E+03</rscale>
<asrwt>0</asrwt>
<pdfrwt beam="2">  1        1 0.11424963E+00 0.18754709E+03</pdfrwt>
<pdfrwt beam="1">  1       -1 0.67607885E-02 0.18754709E+03</pdfrwt>
<totfact> 0.28466630E+03</totfact>
</mgrwt>
</event>
<event>
 6    1  0.4705246E-006  0.2017243E+03  0.7546771E-02  0.1153252E+00
         -2   -1    0    0    0  501 -0.00000000000E+00  0.00000000000E+00  0.37454260238E+02  0.37454260238E+02  0.00000000000E+00 0. -1.
          2   -1    0    0  501    0  0.00000000000E+00 -0.00000000000E+00 -0.98218205528E+03  0.98218205528E+03  0.00000000000E+00 0.  1.
          5    1    1    2  502    0 -0.90183706745E+02  0.14177390471E+03 -0.50131409944E+03  0.52874460500E+03  0.47000000000E+01 0.  1.
         -5    1    1    2    0  502 -0.16977367923E+02 -0.25415111346E+02 -0.56258171857E+02  0.64196813060E+02  0.47000000000E+01 0.  1.
        -11    1    1    2    0    0  0.11223394899E+03 -0.69856912960E+02 -0.29821036668E+03  0.32619912690E+03  0.00000000000E+00 0. -1.
         11    1    1    2    0    0 -0.50728743235E+01 -0.46501880405E+02 -0.88945157070E+02  0.10049577056E+03  0.00000000000E+00 0.  1.
<mgrwt>
<rscale>  0 0.19589143E+03</rscale>
<asrwt>0</asrwt>
<pdfrwt beam="2">  1        2 0.15110492E+00 0.20172429E+03</pdfrwt>
<pdfrwt beam="1">  1       -2 0.57621943E-02 0.20172429E+03</pdfrwt>
<totfact> 0.42026246E+03</totfact>
</mgrwt>
</event>
<event>
 6    1  0.4705246E-006  0.1442438E+03  0.7546771E-02  0.1217929E+00
         -2   -1    0    0    0  501 -0.00000000000E+00  0.00000000000E+00  0.36053233303E+03  0.36053233303E+03  0.00000000000E+00 0.  1.
          2   -1    0    0  501    0  0.00000000000E+00 -0.00000000000E+00 -0.67702173477E+02  0.67702173477E+02  0.00000000000E+00 0. -1.
          5    1    1    2  502    0  0.55768910806E+02  0.23645042974E+02  0.16647388674E+01  0.60779279571E+02  0.47000000000E+01 0. -1.
         -5    1    1    2    0  502 -0.64352653707E+02  0.47813095927E+02  0.37837956866E+02  0.88775881640E+02  0.47000000000E+01 0. -1.
        -11    1    1    2    0    0 -0.36624036496E+02 -0.72236053491E+01  0.73140676183E+02  0.82116131400E+02  0.00000000000E+00 0. -1.
         11    1    1    2    0    0  0.45207779397E+02 -0.64234533552E+02  0.18018678764E+03  0.19656321390E+03  0.00000000000E+00 0.  1.
<mgrwt>
<rscale>  0 0.13663560E+03</rscale>
<asrwt>0</asrwt>
<pdfrwt beam="2">  1        2 0.10415719E-01 0.14424383E+03</pdfrwt>
<pdfrwt beam="1">  1       -2 0.55466512E-01 0.14424383E+03</pdfrwt>
<totfact> 0.18390526E+03</totfact>
</mgrwt>
</event>
<event>
 6    1  0.4705246E-006  0.1321421E+03  0.7546771E-02  0.1237323E+00
          4   -1    0    0  501    0  0.00000000000E+00  0.00000000000E+00  0.73931593915E+02  0.73931593915E+02  0.00000000000E+00 0. -1.
         -4   -1    0    0    0  501 -0.00000000000E+00 -0.00000000000E+00 -0.19151624745E+03  0.19151624745E+03  0.00000000000E+00 0.  1.
          5    1    1    2  502    0 -0.85714283684E+00 -0.37393879764E+02  0.18552879656E+02  0.42015905097E+02  0.47000000000E+01 0.  1.
         -5    1    1    2    0  502  0.27798519443E+02  0.70709809018E+02 -0.58585209654E+02  0.96057022465E+02  0.47000000000E+01 0.  1.
        -11    1    1    2    0    0  0.19710519542E+02  0.17036030332E+02 -0.33083644738E+01  0.26261686648E+02  0.00000000000E+00 0. -1.
         11    1    1    2    0    0 -0.46651896148E+02 -0.50351959587E+02 -0.74243959062E+02  0.10111322715E+03  0.00000000000E+00 0.  1.
<mgrwt>
<rscale>  0 0.12356892E+03</rscale>
<asrwt>0</asrwt>
<pdfrwt beam="1">  1        4 0.11374091E-01 0.13214214E+03</pdfrwt>
<pdfrwt beam="2">  1       -4 0.29464038E-01 0.13214214E+03</pdfrwt>
<totfact> 0.10998850E+03</totfact>
</mgrwt>
</event>
<event>
 6    1  0.4705246E-006  0.1367811E+03  0.7546771E-02  0.1229773E+00
          2   -1    0    0  501    0  0.00000000000E+00  0.00000000000E+00  0.53793388777E+03  0.53793388777E+03  0.00000000000E+00 0. -1.
         -2   -1    0    0    0  501 -0.00000000000E+00 -0.00000000000E+00 -0.27680452387E+02  0.27680452387E+02  0.00000000000E+00 0.  1.
          5    1    1    2  502    0 -0.34537805382E+02 -0.49320494123E+02  0.22735987691E+03  0.23524449998E+03  0.47000000000E+01 0.  1.
         -5    1    1    2    0  502  0.62407804790E+02  0.12854748355E+01  0.83338981866E+02  0.10422985389E+03  0.47000000000E+01 0.  1.
        -11    1    1    2    0    0 -0.27587949619E+02  0.97748551979E+01  0.73677180324E+01  0.30181551109E+02  0.00000000000E+00 0.  1.
         11    1    1    2    0    0 -0.28204978949E+00  0.38260164089E+02  0.19218685858E+03  0.19595843518E+03  0.00000000000E+00 0. -1.
<mgrwt>
<rscale>  0 0.12845090E+03</rscale>
<asrwt>0</asrwt>
<pdfrwt beam="1">  1        2 0.82759052E-01 0.13678105E+03</pdfrwt>
<pdfrwt beam="2">  1       -2 0.42585315E-02 0.13678105E+03</pdfrwt>
<totfact> 0.13583932E+04</totfact>
</mgrwt>
</event>
<event>
 6    1  0.4705246E-006  0.1251241E+03  0.7546771E-02  0.1250493E+00
          1   -1    0    0  501    0  0.00000000000E+00  0.00000000000E+00  0.17326934602E+03  0.17326934602E+03  0.00000000000E+00 0. -1.
         -1   -1    0    0    0  501 -0.00000000000E+00 -0.00000000000E+00 -0.69434037018E+02  0.69434037018E+02  0.00000000000E+00 0.  1.
          5    1    1    2  502    0 -0.27807439347E+02  0.55603785866E+02  0.22107420138E+02  0.66150303936E+02  0.47000000000E+01 0. -1.
         -5    1    1    2    0  502  0.22720167312E+02 -0.53892445172E+02  0.57496482250E+02  0.82149480342E+02  0.47000000000E+01 0. -1.
        -11    1    1    2    0    0 -0.25772264162E+02 -0.16052746940E+01  0.48632218574E+02  0.55062502580E+02  0.00000000000E+00 0. -1.
         11    1    1    2    0    0  0.30859536197E+02 -0.10606599982E+00 -0.24400811960E+02  0.39341096180E+02  0.00000000000E+00 0.  1.
<mgrwt>
<rscale>  0 0.11562534E+03</rscale>
<asrwt>0</asrwt>
<pdfrwt beam="1">  1        1 0.26656822E-01 0.12512412E+03</pdfrwt>
<pdfrwt beam="2">  1       -1 0.10682160E-01 0.12512412E+03</pdfrwt>
<totfact> 0.90826390E+03</totfact>
</mgrwt>
</event>
<event>
 6    1  0.4705246E-006  0.2439222E+03  0.7546771E-02  0.1119891E+00
          1   -1    0    0  501    0  0.00000000000E+00  0.00000000000E+00  0.60067591072E+03  0.60067591072E+03  0.00000000000E+00 0. -1.
         -1   -1    0    0    0  501 -0.00000000000E+00 -0.00000000000E+00 -0.10397842991E+03  0.10397842991E+03  0.00000000000E+00 0.  1.
          5    1    1    2  502    0 -0.14353900499E+03  0.52574484953E+02  0.25290487376E+03  0.29555115901E+03  0.47000000000E+01 0. -1.
         -5    1    1    2    0  502 -0.10599496204E+02  0.89251035202E+02  0.11882391972E+03  0.14906143198E+03  0.47000000000E+01 0. -1.
        -11    1    1    2    0    0  0.58846185789E+02 -0.52719534329E+02 -0.53886402408E+00  0.79009576991E+02  0.00000000000E+00 0.  1.
         11    1    1    2    0    0  0.95292315407E+02 -0.89105985826E+02  0.12550755135E+03  0.18103217264E+03  0.00000000000E+00 0. -1.
<mgrwt>
<rscale>  0 0.23985220E+03</rscale>
<asrwt>0</asrwt>
<pdfrwt beam="1">  1        1 0.92411677E-01 0.24392224E+03</pdfrwt>
<pdfrwt beam="2">  1       -1 0.15996682E-01 0.24392224E+03</pdfrwt>
<totfact> 0.10195256E+03</totfact>
</mgrwt>
</event>
<event>
 6    1  0.4705246E-006  0.1281804E+03  0.7546771E-02  0.1245033E+00
          1   -1    0    0  501    0  0.00000000000E+00  0.00000000000E+00  0.77104453161E+03  0.77104453161E+03  0.00000000000E+00 0. -1.
         -1   -1    0    0    0  501 -0.00000000000E+00 -0.00000000000E+00 -0.16306336473E+02  0.16306336473E+02  0.00000000000E+00 0.  1.
          5    1    1    2  502    0  0.52948224957E+02  0.27157110623E+02  0.11193194053E+03  0.12685374450E+03  0.47000000000E+01 0.  1.
         -5    1    1    2    0  502 -0.24654517692E+02 -0.29028259243E+02  0.36469150594E+03  0.36670488077E+03  0.47000000000E+01 0.  1.
        -11    1    1    2    0    0 -0.60256510712E+02  0.10683801913E+02  0.16825383629E+03  0.17903727024E+03  0.00000000000E+00 0. -1.
         11    1    1    2    0    0  0.31962803447E+02 -0.88126532933E+01  0.10986091237E+03  0.11475497257E+03  0.00000000000E+00 0.  1.
<mgrwt>
<rscale>  0 0.11883419E+03</rscale>
<asrwt>0</asrwt>
<pdfrwt beam="1">  1        1 0.11862221E+00 0.12818037E+03</pdfrwt>
<pdfrwt beam="2">  1       -1 0.25086678E-02 0.12818037E+03</pdfrwt>
<totfact> 0.11428179E+04</totfact>
</mgrwt>
</event>
<event>
 6    1  0.4705246E-006  0.2700962E+03  0.7546771E-02  0.1101225E+00
          2   -1    0    0  501    0  0.00000000000E+00  0.00000000000E+00  0.52816178018E+03  0.52816178018E+03  0.00000000000E+00 0. -1.
         -2   -1    0    0    0  501 -0.00000000000E+00 -0.00000000000E+00 -0.34531066534E+02  0.34531066534E+02  0.00000000000E+00 0.  1.
          5    1    1    2  502    0 -0.66050163288E+02 -0.79020714826E+02  0.25621174397E+03  0.27617647472E+03  0.47000000000E+01 0. -1.
         -5    1    1    2    0  502  0.77240985752E+01  0.39351597089E+02  0.94040855542E+02  0.10234247605E+03  0.47000000000E+01 0. -1.
        -11    1    1    2    0    0  0.18900920785E+02  0.37627377393E+02  0.76193131070E+01  0.42791567723E+02  0.00000000000E+00 0.  1.
         11    1    1    2    0    0  0.39425143928E+02  0.20417403451E+01  0.13575880103E+03  0.14138232822E+03  0.00000000000E+00 0. -1.
<mgrwt>
<rscale>  0 0.27009620E+03</rscale>
<asrwt>0</asrwt>
<pdfrwt beam="1">  1        2 0.81255653E-01 0.27009620E+03</pdfrwt>
<pdfrwt beam="2">  1       -2 0.53124721E-02 0.27009620E+03</pdfrwt>
<totfact> 0.10370358E+04</totfact>
</mgrwt>
</event>
<event>
 6    1  0.4705246E-006  0.1335452E+03  0.7546771E-02  0.1234534E+00
         -3   -1    0    0    0  501 -0.00000000000E+00  0.00000000000E+00  0.15725207210E+03  0.15725207210E+03  0.00000000000E+00 0.  1.
          3   -1    0    0  501    0  0.00000000000E+00 -0.00000000000E+00 -0.89617841556E+02  0.89617841556E+02  0.00000000000E+00 0. -1.
          5    1    1    2  502    0 -0.19988216332E+02 -0.35613725366E+02  0.40745825531E+02  0.57880726713E+02  0.47000000000E+01 0. -1.
         -5    1    1    2    0  502  0.66425580085E+02  0.42785347094E+02 -0.81927206046E+01  0.79574834505E+02  0.47000000000E+01 0. -1.
        -11    1    1    2    0    0 -0.59852001680E+02  0.74233536173E+01 -0.90967326926E+01  0.60992776865E+02  0.00000000000E+00 0. -1.
         11    1    1    2    0    0  0.13414637927E+02 -0.14594975345E+02  0.44177858305E+02  0.48421575568E+02  0.00000000000E+00 0.  1.
<mgrwt>
<rscale>  0 0.12534324E+03</rscale>
<asrwt>0</asrwt>
<pdfrwt beam="2">  1        3 0.13787360E-01 0.13354522E+03</pdfrwt>
<pdfrwt beam="1">  1       -3 0.24192626E-01 0.13354522E+03</pdfrwt>
<totfact> 0.15675149E+03</totfact>
</mgrwt>
</event>
<event>
 6    1  0.4705246E-006  0.1273885E+03  0.7546771E-02  0.1248471E+00
         -1   -1    0    0    0  501 -0.00000000000E+00  0.00000000000E+00  0.16503197768E+03  0.16503197768E+03  0.00000000000E+00 0.  1.
          1   -1    0    0  501    0  0.00000000000E+00 -0.00000000000E+00 -0.71636372596E+02  0.71636372596E+02  0.00000000000E+00 0. -1.
          5    1    1    2  502    0  0.11013306786E+02  0.57847868785E+02 -0.10159263815E+02  0.59941383789E+02  0.47000000000E+01 0.  1.
         -5    1    1    2    0  502 -0.22417717127E+02 -0.36056891173E+02  0.67215756507E+02  0.79641078377E+02  0.47000000000E+01 0.  1.
        -11    1    1    2    0    0  0.31791952307E+02 -0.40601260490E+02  0.44561298145E+02  0.68153502311E+02  0.00000000000E+00 0.  1.
         11    1    1    2    0    0 -0.20387541966E+02  0.18810282878E+02 -0.82221857543E+01  0.28932385797E+02  0.00000000000E+00 0. -1.
<mgrwt>
<rscale>  0 0.11679994E+03</rscale>
<asrwt>0</asrwt>
<pdfrwt beam="2">  1        1 0.11020980E-01 0.12738846E+03</pdfrwt>
<pdfrwt beam="1">  1       -1 0.25389535E-01 0.12738846E+03</pdfrwt>
<totfact> 0.71876768E+03</totfact>
</mgrwt>
</event>
<event>
 6    1  0.4705246E-006  0.2902065E+03  0.7546771E-02  0.1090241E+00
          2   -1    0    0  501    0  0.00000000000E+00  0.00000000000E+00  0.33969254983E+03  0.33969254983E+03  0.00000000000E+00 0. -1.
         -2   -1    0    0    0  501 -0.00000000000E+00 -0.00000000000E+00 -0.61982383103E+02  0.61982383103E+02  0.00000000000E+00 0.  1.
          5    1    1    2  502    0 -0.23882426935E+02  0.25785445114E+02  0.41378277151E+02  0.54493222661E+02  0.47000000000E+01 0. -1.
         -5    1    1    2    0  502  0.99785626401E+01 -0.12191286771E+03  0.11164298526E+03  0.16567608513E+03  0.47000000000E+01 0. -1.
        -11    1    1    2    0    0  0.24016303741E+02  0.52913441555E+02  0.12420023082E+03  0.13712152449E+03  0.00000000000E+00 0. -1.
         11    1    1    2    0    0 -0.10112439446E+02  0.43213981041E+02  0.48867349625E+00  0.44384100652E+02  0.00000000000E+00 0.  1.
<mgrwt>
<rscale>  0 0.29020650E+03</rscale>
<asrwt>0</asrwt>
<pdfrwt beam="1">  1        2 0.52260391E-01 0.29020650E+03</pdfrwt>
<pdfrwt beam="2">  1       -2 0.95357514E-02 0.29020650E+03</pdfrwt>
<totfact> 0.68076832E+03</totfact>
</mgrwt>
</event>
<event>
 6    1  0.4705246E-006  0.1437933E+03  0.7546771E-02  0.1220163E+00
         -1   -1    0    0    0  501 -0.00000000000E+00  0.00000000000E+00  0.25165021135E+03  0.25165021135E+03  0.00000000000E+00 0.  1.
          1   -1    0    0  501    0  0.00000000000E+00 -0.00000000000E+00 -0.72776855778E+02  0.72776855778E+02  0.00000000000E+00 0. -1.
          5    1    1    2  502    0 -0.48441030022E+02 -0.71665505937E+01 -0.28628556946E+02  0.56917283050E+02  0.47000000000E+01 0. -1.
         -5    1    1    2    0  502 -0.26545102112E+01  0.56584453071E+02  0.75126999167E+02  0.94207233043E+02  0.47000000000E+01 0. -1.
        -11    1    1    2    0    0  0.49582492351E+02 -0.40474125056E+01  0.22853290337E+02  0.54745574935E+02  0.00000000000E+00 0. -1.
         11    1    1    2    0    0  0.15130478818E+01 -0.45370489972E+02  0.10952162301E+03  0.11855697610E+03  0.00000000000E+00 0.  1.
<mgrwt>
<rscale>  0 0.13504049E+03</rscale>
<asrwt>0</asrwt>
<pdfrwt beam="2">  1        1 0.11196439E-01 0.14379330E+03</pdfrwt>
<pdfrwt beam="1">  1       -1 0.38715417E-01 0.14379330E+03</pdfrwt>
<totfact> 0.34765089E+03</totfact>
</mgrwt>
</event>
<event>
 6    1  0.4705246E-006  0.1283718E+03  0.7546771E-02  0.1242719E+00
          2   -1    0    0  501    0  0.00000000000E+00  0.00000000000E+00  0.35534085323E+03  0.35534085323E+03  0.00000000000E+00 0. -1.
         -2   -1    0    0    0  501 -0.00000000000E+00 -0.00000000000E+00 -0.37012398339E+02  0.37012398339E+02  0.00000000000E+00 0.  1.
          5    1    1    2  502    0  0.60826428954E+02 -0.27191845603E+02  0.77553102400E+02  0.10235147590E+03  0.47000000000E+01 0.  1.
         -5    1    1    2    0  502 -0.56317935687E+02 -0.16744689780E+01  0.12895295738E+03  0.14080294366E+03  0.47000000000E+01 0.  1.
        -11    1    1    2    0    0 -0.47937608435E+02  0.67060313828E+01  0.69138203798E+02  0.84398319792E+02  0.00000000000E+00 0.  1.
         11    1    1    2    0    0  0.43429115167E+02  0.22160283198E+02  0.42684191310E+02  0.64800512216E+02  0.00000000000E+00 0. -1.
<mgrwt>
<rscale>  0 0.12022961E+03</rscale>
<asrwt>0</asrwt>
<pdfrwt beam="1">  1        2 0.54667821E-01 0.12837180E+03</pdfrwt>
<pdfrwt beam="2">  1       -2 0.56942154E-02 0.12837180E+03</pdfrwt>
<totfact> 0.13682396E+04</totfact>
</mgrwt>
</event>
<event>
 6    1  0.4705246E-006  0.1341428E+03  0.7546771E-02  0.1234443E+00
          2   -1    0    0  501    0  0.00000000000E+00  0.00000000000E+00  0.55964688367E+03  0.55964688367E+03  0.00000000000E+00 0.  1.
         -2   -1    0    0    0  501 -0.00000000000E+00 -0.00000000000E+00 -0.30718876138E+02  0.30718876138E+02  0.00000000000E+00 0. -1.
          5    1    1    2  502    0 -0.29447775923E+02  0.65451684890E+02  0.36463727229E+03  0.37166318745E+03  0.47000000000E+01 0. -1.
         -5    1    1    2    0  502 -0.11794411054E+02 -0.39507535830E+02  0.55037796304E+02  0.68928967361E+02  0.47000000000E+01 0. -1.
        -11    1    1    2    0    0  0.68414199435E+02 -0.27731778583E+02  0.68150011694E+02  0.10046879278E+03  0.00000000000E+00 0.  1.
         11    1    1    2    0    0 -0.27172012458E+02  0.17876295238E+01  0.41102927245E+02  0.49304812223E+02  0.00000000000E+00 0. -1.
<mgrwt>
<rscale>  0 0.12540160E+03</rscale>
<asrwt>0</asrwt>
<pdfrwt beam="1">  1        2 0.86099513E-01 0.13414277E+03</pdfrwt>
<pdfrwt beam="2">  1       -2 0.47259813E-02 0.13414277E+03</pdfrwt>
<totfact> 0.11109240E+04</totfact>
</mgrwt>
</event>
<event>
 6    1  0.4705246E-006  0.2754287E+03  0.7546771E-02  0.1098212E+00
         -2   -1    0    0    0  501 -0.00000000000E+00  0.00000000000E+00  0.14599695126E+02  0.14599695126E+02  0.00000000000E+00 0.  1.
          2   -1    0    0  501    0  0.00000000000E+00 -0.00000000000E+00 -0.12990161100E+04  0.12990161100E+04  0.00000000000E+00 0. -1.
          5    1    1    2  502    0 -0.92371797313E+00 -0.75976440557E+01 -0.10492467324E+04  0.10492851723E+04  0.47000000000E+01 0. -1.
         -5    1    1    2    0  502 -0.19549685192E+01 -0.20448247961E+02 -0.25519786675E+02  0.33095351011E+02  0.47000000000E+01 0. -1.
        -11    1    1    2    0    0  0.41879284149E+02  0.36500442058E+02 -0.14479416943E+03  0.15508548679E+03  0.00000000000E+00 0. -1.
         11    1    1    2    0    0 -0.39000597657E+02 -0.84545500411E+01 -0.64855726411E+02  0.76149795025E+02  0.00000000000E+00 0.  1.
<mgrwt>
<rscale>  0 0.27542868E+03</rscale>
<asrwt>0</asrwt>
<pdfrwt beam="2">  1        2 0.19984863E+00 0.27542868E+03</pdfrwt>
<pdfrwt beam="1">  1       -2 0.22461070E-02 0.27542868E+03</pdfrwt>
<totfact> 0.11433962E+04</totfact>
</mgrwt>
</event>
<event>
 6    1  0.4705246E-006  0.1260859E+03  0.7546771E-02  0.1247843E+00
          2   -1    0    0  501    0  0.00000000000E+00  0.00000000000E+00  0.90615691862E+03  0.90615691862E+03  0.00000000000E+00 0. -1.
         -2   -1    0    0    0  501 -0.00000000000E+00 -0.00000000000E+00 -0.25732963114E+02  0.25732963114E+02  0.00000000000E+00 0.  1.
          5    1    1    2  502    0 -0.52332028632E+01  0.46079964654E+02  0.15477254304E+03  0.16163965985E+03  0.47000000000E+01 0. -1.
         -5    1    1    2    0  502  0.36259774717E+01 -0.62504448624E+02  0.63996961685E+03  0.64304210928E+03  0.47000000000E+01 0. -1.
        -11    1    1    2    0    0  0.15164191618E+02 -0.14450588315E+02  0.90725871110E+02  0.93112597960E+02  0.00000000000E+00 0. -1.
         11    1    1    2    0    0 -0.13556966227E+02  0.30875072285E+02 -0.50440754983E+01  0.34095514654E+02  0.00000000000E+00 0.  1.
<mgrwt>
<rscale>  0 0.11716817E+03</rscale>
<asrwt>0</asrwt>
<pdfrwt beam="1">  1        2 0.13940873E+00 0.12608588E+03</pdfrwt>
<pdfrwt beam="2">  1       -2 0.39589181E-02 0.12608588E+03</pdfrwt>
<totfact> 0.80852056E+03</totfact>
</mgrwt>
</event>
<event>
 6    1  0.4705246E-006  0.1577415E+03  0.7546771E-02  0.1215896E+00
          1   -1    0    0  501    0  0.00000000000E+00  0.00000000000E+00  0.14254891667E+03  0.14254891667E+03  0.00000000000E+00 0. -1.
         -1   -1    0    0    0  501 -0.00000000000E+00 -0.00000000000E+00 -0.12603532827E+03  0.12603532827E+03  0.00000000000E+00 0.  1.
          5    1    1    2  502    0 -0.10585771931E+02  0.66316821369E+02  0.59050089515E+02  0.89548771268E+02  0.47000000000E+01 0. -1.
         -5    1    1    2    0  502 -0.62611894834E+01 -0.77609656594E+02 -0.24443233565E+01  0.78041822166E+02  0.47000000000E+01 0.  1.
        -11    1    1    2    0    0  0.48210988695E+02 -0.93955197066E+01 -0.40120274150E+02  0.63420908377E+02  0.00000000000E+00 0.  1.
         11    1    1    2    0    0 -0.31364027280E+02  0.20688354931E+02  0.28096386811E-01  0.37572743131E+02  0.00000000000E+00 0. -1.
<mgrwt>
<rscale>  0 0.13810947E+03</rscale>
<asrwt>0</asrwt>
<pdfrwt beam="1">  1        1 0.21930603E-01 0.15774154E+03</pdfrwt>
<pdfrwt beam="2">  1       -1 0.19390050E-01 0.15774154E+03</pdfrwt>
<totfact> 0.46400180E+03</totfact>
</mgrwt>
</event>
<event>
 6    1  0.4705246E-006  0.3600456E+03  0.7546771E-02  0.1058566E+00
          1   -1    0    0  501    0  0.00000000000E+00  0.00000000000E+00  0.10125368816E+04  0.10125368816E+04  0.00000000000E+00 0. -1.
         -1   -1    0    0    0  501 -0.00000000000E+00 -0.00000000000E+00 -0.32006945429E+02  0.32006945429E+02  0.00000000000E+00 0.  1.
          5    1    1    2  502    0  0.46909417685E+02  0.11499363710E+03  0.73742550276E+03  0.74782517487E+03  0.47000000000E+01 0.  1.
         -5    1    1    2    0  502  0.14951886949E+02 -0.16605972142E+02  0.26716653221E+02  0.35145224334E+02  0.47000000000E+01 0.  1.
        -11    1    1    2    0    0 -0.20365663407E+02 -0.57967147433E+02  0.34028722093E+02  0.70234637856E+02  0.00000000000E+00 0.  1.
         11    1    1    2    0    0 -0.41495641227E+02 -0.40420517529E+02  0.18235905810E+03  0.19133878998E+03  0.00000000000E+00 0. -1.
<mgrwt>
<rscale>  0 0.36004562E+03</rscale>
<asrwt>0</asrwt>
<pdfrwt beam="1">  1        1 0.15577488E+00 0.36004562E+03</pdfrwt>
<pdfrwt beam="2">  1       -1 0.49241462E-02 0.36004562E+03</pdfrwt>
<totfact> 0.28250642E+03</totfact>
</mgrwt>
</event>
<event>
 6    1  0.4705246E-006  0.1610135E+03  0.7546771E-02  0.1195191E+00
         -1   -1    0    0    0  501 -0.00000000000E+00  0.00000000000E+00  0.37969841442E+02  0.37969841442E+02  0.00000000000E+00 0.  1.
          1   -1    0    0  501    0  0.00000000000E+00 -0.00000000000E+00 -0.12271254226E+04  0.12271254226E+04  0.00000000000E+00 0. -1.
          5    1    1    2  502    0  0.35815793639E+02  0.85016111935E+02 -0.71801253418E+03  0.72392996871E+03  0.47000000000E+01 0. -1.
         -5    1    1    2    0  502  0.54061127804E+02 -0.37876219755E+02 -0.35838074838E+03  0.36443938367E+03  0.47000000000E+01 0. -1.
        -11    1    1    2    0    0 -0.54494778790E+02 -0.58872892600E+02 -0.29455719540E+02  0.85459568289E+02  0.00000000000E+00 0.  1.
         11    1    1    2    0    0 -0.35382142653E+02  0.11733000419E+02 -0.83306579078E+02  0.91266343387E+02  0.00000000000E+00 0. -1.
<mgrwt>
<rscale>  0 0.15438042E+03</rscale>
<asrwt>0</asrwt>
<pdfrwt beam="2">  1        1 0.18878847E+00 0.16101350E+03</pdfrwt>
<pdfrwt beam="1">  1       -1 0.58415157E-02 0.16101350E+03</pdfrwt>
<totfact> 0.15263482E+03</totfact>
</mgrwt>
</event>
<event>
 6    1  0.4705246E-006  0.1326485E+03  0.7546771E-02  0.1235148E+00
          2   -1    0    0  501    0  0.00000000000E+00  0.00000000000E+00  0.13920647881E+03  0.13920647881E+03  0.00000000000E+00 0.  1.
         -2   -1    0    0    0  501 -0.00000000000E+00 -0.00000000000E+00 -0.12733460631E+03  0.12733460631E+03  0.00000000000E+00 0. -1.
          5    1    1    2  502    0  0.82569352553E+02 -0.44776677740E+00  0.21256072356E+02  0.85392090314E+02  0.47000000000E+01 0. -1.
         -5    1    1    2    0  502 -0.40862660571E+02 -0.14761907341E+02  0.45572521975E+02  0.63139652330E+02  0.47000000000E+01 0. -1.
        -11    1    1    2    0    0 -0.50733874155E+02  0.23477472349E+02  0.56418687674E+01  0.56186727773E+02  0.00000000000E+00 0.  1.
         11    1    1    2    0    0  0.90271821720E+01 -0.82677982308E+01 -0.60598590597E+02  0.61822614696E+02  0.00000000000E+00 0. -1.
<mgrwt>
<rscale>  0 0.12494955E+03</rscale>
<asrwt>0</asrwt>
<pdfrwt beam="1">  1        2 0.21416381E-01 0.13264847E+03</pdfrwt>
<pdfrwt beam="2">  1       -2 0.19589940E-01 0.13264847E+03</pdfrwt>
<totfact> 0.53194515E+03</totfact>
</mgrwt>
</event>
<event>
 6    1  0.4705246E-006  0.1395914E+03  0.7546771E-02  0.1225107E+00
          2   -1    0    0  501    0  0.00000000000E+00  0.00000000000E+00  0.26887622980E+03  0.26887622980E+03  0.00000000000E+00 0. -1.
         -2   -1    0    0    0  501 -0.00000000000E+00 -0.00000000000E+00 -0.59468439117E+02  0.59468439117E+02  0.00000000000E+00 0.  1.
          5    1    1    2  502    0  0.80016503382E+02 -0.15938821453E+02  0.14828384455E+03  0.16931295106E+03  0.47000000000E+01 0.  1.
         -5    1    1    2    0  502 -0.18202913236E+02  0.22233580973E+02 -0.63084086596E+01  0.29792015591E+02  0.47000000000E+01 0.  1.
        -11    1    1    2    0    0 -0.39082055197E+02 -0.95795136408E+01 -0.15548863538E+02  0.43138628599E+02  0.00000000000E+00 0.  1.
         11    1    1    2    0    0 -0.22731534948E+02  0.32847541214E+01  0.82981218330E+02  0.86101073665E+02  0.00000000000E+00 0. -1.
<mgrwt>
<rscale>  0 0.13159575E+03</rscale>
<asrwt>0</asrwt>
<pdfrwt beam="1">  1        2 0.41365573E-01 0.13959142E+03</pdfrwt>
<pdfrwt beam="2">  1       -2 0.91489908E-02 0.13959142E+03</pdfrwt>
<totfact> 0.89421013E+03</totfact>
</mgrwt>
</event>
<event>
 6    1  0.4705246E-006  0.1573368E+03  0.7546771E-02  0.1199697E+00
          1   -1    0    0  501    0  0.00000000000E+00  0.00000000000E+00  0.52230829753E+02  0.52230829753E+02  0.00000000000E+00 0. -1.
         -1   -1    0    0    0  501 -0.00000000000E+00 -0.00000000000E+00 -0.40162933437E+03  0.40162933437E+03  0.00000000000E+00 0.  1.
          5    1    1    2  502    0  0.39616044273E+02 -0.60314347490E+02 -0.29127040375E+02  0.77959771409E+02  0.47000000000E+01 0.  1.
         -5    1    1    2    0  502 -0.42167141024E+02 -0.35159780877E+02 -0.15352385297E+03  0.16311327783E+03  0.47000000000E+01 0.  1.
        -11    1    1    2    0    0 -0.69235475620E+01  0.46243362563E+02 -0.15416217610E+03  0.16109736383E+03  0.00000000000E+00 0.  1.
         11    1    1    2    0    0  0.94746443129E+01  0.49230765805E+02 -0.12585435180E+02  0.51689751066E+02  0.00000000000E+00 0. -1.
<mgrwt>
<rscale>  0 0.15063313E+03</rscale>
<asrwt>0</asrwt>
<pdfrwt beam="1">  1        1 0.80355122E-02 0.15733679E+03</pdfrwt>
<pdfrwt beam="2">  1       -1 0.61789129E-01 0.15733679E+03</pdfrwt>
<totfact> 0.23147979E+03</totfact>
</mgrwt>
</event>
<event>
 6    1  0.4705246E-006  0.1301253E+03  0.7546771E-02  0.1240858E+00
          2   -1    0    0  501    0  0.00000000000E+00  0.00000000000E+00  0.69104260185E+02  0.69104260185E+02  0.00000000000E+00 0.  1.
         -2   -1    0    0    0  501 -0.00000000000E+00 -0.00000000000E+00 -0.25976651447E+03  0.25976651447E+03  0.00000000000E+00 0. -1.
          5    1    1    2  502    0  0.18012438714E+02 -0.56942032646E+02  0.68324503202E+01  0.60296064612E+02  0.47000000000E+01 0.  1.
         -5    1    1    2    0  502 -0.50924939498E+02  0.42006654960E+02 -0.26577571132E+02  0.71318761985E+02  0.47000000000E+01 0.  1.
        -11    1    1    2    0    0  0.14541443549E+02 -0.27792555430E+02 -0.15420137802E+02  0.34952258406E+02  0.00000000000E+00 0.  1.
         11    1    1    2    0    0  0.18371057235E+02  0.42727933115E+02 -0.15549699567E+03  0.16230368965E+03  0.00000000000E+00 0. -1.
<mgrwt>
<rscale>  0 0.12136748E+03</rscale>
<asrwt>0</asrwt>
<pdfrwt beam="1">  1        2 0.10631425E-01 0.13012530E+03</pdfrwt>
<pdfrwt beam="2">  1       -2 0.39964079E-01 0.13012530E+03</pdfrwt>
<totfact> 0.33850394E+03</totfact>
</mgrwt>
</event>
<event>
 6    1  0.4705246E-006  0.1609290E+03  0.7546771E-02  0.1196717E+00
          1   -1    0    0  501    0  0.00000000000E+00  0.00000000000E+00  0.18747201291E+03  0.18747201291E+03  0.00000000000E+00 0. -1.
         -1   -1    0    0    0  501 -0.00000000000E+00 -0.00000000000E+00 -0.11794989181E+03  0.11794989181E+03  0.00000000000E+00 0.  1.
          5    1    1    2  502    0 -0.30902001590E+02  0.85966435186E+02  0.91868633825E+02  0.12964219052E+03  0.47000000000E+01 0.  1.
         -5    1    1    2    0  502 -0.33429265565E+02 -0.76366936821E+01 -0.26971747277E+02  0.43879380554E+02  0.47000000000E+01 0.  1.
        -11    1    1    2    0    0  0.29513629587E+02 -0.11786684570E+02  0.38152568812E+02  0.49654796057E+02  0.00000000000E+00 0. -1.
         11    1    1    2    0    0  0.34817637569E+02 -0.66543056934E+02 -0.33527334255E+02  0.82245537595E+02  0.00000000000E+00 0.  1.
<mgrwt>
<rscale>  0 0.15309829E+03</rscale>
<asrwt>0</asrwt>
<pdfrwt beam="1">  1        1 0.28841848E-01 0.16092896E+03</pdfrwt>
<pdfrwt beam="2">  1       -1 0.18146137E-01 0.16092896E+03</pdfrwt>
<totfact> 0.36571441E+03</totfact>
</mgrwt>
</event>
<event>
 6    1  0.4705246E-006  0.1262094E+03  0.7546771E-02  0.1248895E+00
          1   -1    0    0  501    0  0.00000000000E+00  0.00000000000E+00  0.67342656824E+02  0.67342656824E+02  0.00000000000E+00 0. -1.
         -1   -1    0    0    0  501 -0.00000000000E+00 -0.00000000000E+00 -0.22867103437E+03  0.22867103437E+03  0.00000000000E+00 0.  1.
          5    1    1    2  502    0  0.10595647713E+01  0.57229515456E+02 -0.50363007936E+02  0.76386272884E+02  0.47000000000E+01 0.  1.
         -5    1    1    2    0  502  0.55704331903E+01 -0.41227745948E+02  0.29931920049E+02  0.51466169468E+02  0.47000000000E+01 0.  1.
        -11    1    1    2    0    0 -0.12686180544E+02  0.35597330450E+02 -0.42361187311E+02  0.56767766403E+02  0.00000000000E+00 0. -1.
         11    1    1    2    0    0  0.60561825823E+01 -0.51599099958E+02 -0.98536102350E+02  0.11139348244E+03  0.00000000000E+00 0.  1.
<mgrwt>
<rscale>  0 0.11655275E+03</rscale>
<asrwt>0</asrwt>
<pdfrwt beam="1">  1        1 0.10360409E-01 0.12620942E+03</pdfrwt>
<pdfrwt beam="2">  1       -1 0.35180158E-01 0.12620942E+03</pdfrwt>
<totfact> 0.45100112E+03</totfact>
</mgrwt>
</event>
<event>
 6    1  0.4705246E-006  0.2568566E+03  0.7546771E-02  0.1109047E+00
          2   -1    0    0  501    0  0.00000000000E+00  0.00000000000E+00  0.42336056960E+03  0.42336056960E+03  0.00000000000E+00 0. -1.
         -2   -1    0    0    0  501 -0.00000000000E+00 -0.00000000000E+00 -0.38959303716E+02  0.38959303716E+02  0.00000000000E+00 0.  1.
          5    1    1    2  502    0  0.23676867464E+02  0.44772630563E+02  0.22358659655E+02  0.55562416812E+02  0.47000000000E+01 0. -1.
         -5    1    1    2    0  502  0.21021901939E+01  0.88796226702E+01  0.24768829445E+03  0.24790088364E+03  0.47000000000E+01 0. -1.
        -11    1    1    2    0    0  0.23070341776E+02 -0.55987475095E+02  0.53641184575E+02  0.80896320805E+02  0.00000000000E+00 0.  1.
         11    1    1    2    0    0 -0.48849399434E+02  0.23352218613E+01  0.60713127206E+02  0.77960252060E+02  0.00000000000E+00 0. -1.
<mgrwt>
<rscale>  0 0.25685664E+03</rscale>
<asrwt>0</asrwt>
<pdfrwt beam="1">  1        2 0.65132392E-01 0.25685664E+03</pdfrwt>
<pdfrwt beam="2">  1       -2 0.59937393E-02 0.25685664E+03</pdfrwt>
<totfact> 0.10997289E+04</totfact>
</mgrwt>
</event>
<event>
 6    1  0.4705246E-006  0.1349444E+03  0.7546771E-02  0.1230666E+00
         -2   -1    0    0    0  501 -0.00000000000E+00  0.00000000000E+00  0.21900210156E+02  0.21900210156E+02  0.00000000000E+00 0.  1.
          2   -1    0    0  501    0  0.00000000000E+00 -0.00000000000E+00 -0.72723039474E+03  0.72723039474E+03  0.00000000000E+00 0. -1.
          5    1    1    2  502    0 -0.41369322395E+02 -0.11836127763E+02 -0.17806694493E+03  0.18325239871E+03  0.47000000000E+01 0.  1.
         -5    1    1    2    0  502  0.77692218429E+02  0.47361387824E+02 -0.30686406307E+03  0.32010439714E+03  0.47000000000E+01 0.  1.
        -11    1    1    2    0    0 -0.25602332951E+02  0.20133093496E+02 -0.15863076574E+03  0.16193992943E+03  0.00000000000E+00 0. -1.
         11    1    1    2    0    0 -0.10720563083E+02 -0.55658353556E+02 -0.61768410839E+02  0.83833879613E+02  0.00000000000E+00 0.  1.
<mgrwt>
<rscale>  0 0.12785992E+03</rscale>
<asrwt>0</asrwt>
<pdfrwt beam="2">  1        2 0.11188160E+00 0.13494436E+03</pdfrwt>
<pdfrwt beam="1">  1       -2 0.33692632E-02 0.13494436E+03</pdfrwt>
<totfact> 0.13570085E+04</totfact>
</mgrwt>
</event>
<event>
 6    1  0.4705246E-006  0.1763570E+03  0.7546771E-02  0.1179504E+00
          1   -1    0    0  501    0  0.00000000000E+00  0.00000000000E+00  0.33102602289E+03  0.33102602289E+03  0.00000000000E+00 0. -1.
         -1   -1    0    0    0  501 -0.00000000000E+00 -0.00000000000E+00 -0.80062108407E+02  0.80062108407E+02  0.00000000000E+00 0.  1.
          5    1    1    2  502    0  0.31927095662E+02  0.87308707546E+02  0.12649196418E+03  0.15704921793E+03  0.47000000000E+01 0. -1.
         -5    1    1    2    0  502  0.48624440429E+02 -0.58013066861E+01 -0.15198472909E+02  0.51488590435E+02  0.47000000000E+01 0.  1.
        -11    1    1    2    0    0  0.63869021972E+01  0.13046645182E+02  0.31252573984E+02  0.34463471253E+02  0.00000000000E+00 0.  1.
         11    1    1    2    0    0 -0.86938438288E+02 -0.94554046042E+02  0.10841784923E+03  0.16808685167E+03  0.00000000000E+00 0. -1.
<mgrwt>
<rscale>  0 0.16842119E+03</rscale>
<asrwt>0</asrwt>
<pdfrwt beam="1">  1        1 0.50927080E-01 0.17635696E+03</pdfrwt>
<pdfrwt beam="2">  1       -1 0.12317248E-01 0.17635696E+03</pdfrwt>
<totfact> 0.33273354E+03</totfact>
</mgrwt>
</event>
<event>
 6    1  0.4705246E-006  0.3476240E+03  0.7546771E-02  0.1063594E+00
          2   -1    0    0  501    0  0.00000000000E+00  0.00000000000E+00  0.11805709349E+03  0.11805709349E+03  0.00000000000E+00 0. -1.
         -2   -1    0    0    0  501 -0.00000000000E+00 -0.00000000000E+00 -0.25589828738E+03  0.25589828738E+03  0.00000000000E+00 0.  1.
          5    1    1    2  502    0 -0.85867542554E+01 -0.19514954158E+01  0.99130816436E+02  0.99632070391E+02  0.47000000000E+01 0. -1.
         -5    1    1    2    0  502 -0.46076622827E+01 -0.32839035244E+02 -0.28444619725E+02  0.43941087592E+02  0.47000000000E+01 0.  1.
        -11    1    1    2    0    0 -0.24385874386E+02  0.35753866635E+02 -0.17412953325E+03  0.17942715568E+03  0.00000000000E+00 0.  1.
         11    1    1    2    0    0  0.37580290924E+02 -0.96333597473E+00 -0.34397857359E+02  0.50955067197E+02  0.00000000000E+00 0. -1.
<mgrwt>
<rscale>  0 0.34762398E+03</rscale>
<asrwt>0</asrwt>
<pdfrwt beam="1">  1        2 0.18162630E-01 0.34762398E+03</pdfrwt>
<pdfrwt beam="2">  1       -2 0.39368967E-01 0.34762398E+03</pdfrwt>
<totfact> 0.19174401E+03</totfact>
</mgrwt>
</event>
<event>
 6    1  0.4705246E-006  0.1529188E+03  0.7546771E-02  0.1205076E+00
         -1   -1    0    0    0  501 -0.00000000000E+00  0.00000000000E+00  0.14919716786E+03  0.14919716786E+03  0.00000000000E+00 0.  1.
          1   -1    0    0  501    0  0.00000000000E+00 -0.00000000000E+00 -0.13337962170E+03  0.13337962170E+03  0.00000000000E+00 0. -1.
          5    1    1    2  502    0  0.83012684930E+01  0.28228508729E+02  0.23697387501E+02  0.38071195648E+02  0.47000000000E+01 0.  1.
         -5    1    1    2    0  502 -0.20021549382E+01 -0.11609658712E+03 -0.29644518044E+01  0.11624673819E+03  0.47000000000E+01 0.  1.
        -11    1    1    2    0    0 -0.28205664164E+02  0.24874965729E+00 -0.22701975202E+02  0.36207748417E+02  0.00000000000E+00 0. -1.
         11    1    1    2    0    0  0.21906550609E+02  0.87619328730E+02  0.17786585675E+02  0.92051107308E+02  0.00000000000E+00 0.  1.
<mgrwt>
<rscale>  0 0.14631464E+03</rscale>
<asrwt>0</asrwt>
<pdfrwt beam="2">  1        1 0.20519942E-01 0.15291883E+03</pdfrwt>
<pdfrwt beam="1">  1       -1 0.22953410E-01 0.15291883E+03</pdfrwt>
<totfact> 0.38354936E+03</totfact>
</mgrwt>
</event>
<event>
 6    1  0.4705246E-006  0.1781987E+03  0.7546771E-02  0.1175291E+00
         -2   -1    0    0    0  501 -0.00000000000E+00  0.00000000000E+00  0.19480933490E+02  0.19480933490E+02  0.00000000000E+00 0.  1.
          2   -1    0    0  501    0  0.00000000000E+00 -0.00000000000E+00 -0.14615581877E+04  0.14615581877E+04  0.00000000000E+00 0. -1.
          5    1    1    2  502    0  0.55958285650E+02 -0.96906819260E+02 -0.38760279005E+03  0.40346037502E+03  0.47000000000E+01 0. -1.
         -5    1    1    2    0  502  0.54876002964E+02  0.34899105999E+02 -0.28308423956E+03  0.29049629944E+03  0.47000000000E+01 0. -1.
        -11    1    1    2    0    0 -0.98417565582E+02  0.85117507192E+02 -0.63606699566E+03  0.64923973247E+03  0.00000000000E+00 0. -1.
         11    1    1    2    0    0 -0.12416723032E+02 -0.23109793931E+02 -0.13532322890E+03  0.13784271423E+03  0.00000000000E+00 0.  1.
<mgrwt>
<rscale>  0 0.17247507E+03</rscale>
<asrwt>0</asrwt>
<pdfrwt beam="2">  1        2 0.22485507E+00 0.17819869E+03</pdfrwt>
<pdfrwt beam="1">  1       -2 0.29970671E-02 0.17819869E+03</pdfrwt>
<totfact> 0.60093581E+03</totfact>
</mgrwt>
</event>
<event>
 6    1  0.4705246E-006  0.1127080E+03  0.7546771E-02  0.1265344E+00
         -2   -1    0    0    0  501 -0.00000000000E+00  0.00000000000E+00  0.75067967757E+01  0.75067967757E+01  0.00000000000E+00 0.  1.
          2   -1    0    0  501    0  0.00000000000E+00 -0.00000000000E+00 -0.18488339465E+04  0.18488339465E+04  0.00000000000E+00 0. -1.
          5    1    1    2  502    0  0.19471773746E+02 -0.57660262499E+02 -0.10320430807E+04  0.10338466358E+04  0.47000000000E+01 0. -1.
         -5    1    1    2    0  502 -0.94153505392E+01  0.44844000004E+02 -0.40543591278E+03  0.40804411837E+03  0.47000000000E+01 0.  1.
        -11    1    1    2    0    0  0.31818389823E+02 -0.19777393156E+02 -0.21710908984E+03  0.22031775258E+03  0.00000000000E+00 0.  1.
         11    1    1    2    0    0 -0.41874813030E+02  0.32593655652E+02 -0.18673906642E+03  0.19413223659E+03  0.00000000000E+00 0. -1.
<mgrwt>
<rscale>  0 0.10746142E+03</rscale>
<asrwt>0</asrwt>
<pdfrwt beam="2">  1        2 0.28443606E+00 0.11270799E+03</pdfrwt>
<pdfrwt beam="1">  1       -2 0.11548916E-02 0.11270799E+03</pdfrwt>
<totfact> 0.14892769E+04</totfact>
</mgrwt>
</event>
<event>
 6    1  0.4705246E-006  0.1362621E+03  0.7546771E-02  0.1229857E+00
         -1   -1    0    0    0  501 -0.00000000000E+00  0.00000000000E+00  0.12185131992E+02  0.12185131992E+02  0.00000000000E+00 0.  1.
          1   -1    0    0  501    0  0.00000000000E+00 -0.00000000000E+00 -0.12789261332E+04  0.12789261332E+04  0.00000000000E+00 0. -1.
          5    1    1    2  502    0  0.33845229825E+02 -0.29302516418E+02 -0.84129954869E+03  0.84250291257E+03  0.47000000000E+01 0.  1.
         -5    1    1    2    0  502  0.11549173561E+02 -0.36626314627E+00 -0.31447497631E+01  0.12864564109E+02  0.47000000000E+01 0.  1.
        -11    1    1    2    0    0 -0.11077605046E+02 -0.25555217799E+02 -0.45271333824E+02  0.53153326863E+02  0.00000000000E+00 0.  1.
         11    1    1    2    0    0 -0.34316798341E+02  0.55223997364E+02 -0.37702536888E+03  0.38259046161E+03  0.00000000000E+00 0. -1.
<mgrwt>
<rscale>  0 0.12839502E+03</rscale>
<asrwt>0</asrwt>
<pdfrwt beam="2">  1        1 0.19675796E+00 0.13626205E+03</pdfrwt>
<pdfrwt beam="1">  1       -1 0.18746348E-02 0.13626205E+03</pdfrwt>
<totfact> 0.74115986E+03</totfact>
</mgrwt>
</event>
<event>
 6    1  0.4705246E-006  0.1605975E+03  0.7546771E-02  0.1198000E+00
          2   -1    0    0  501    0  0.00000000000E+00  0.00000000000E+00  0.19253460396E+04  0.19253460396E+04  0.00000000000E+00 0. -1.
         -2   -1    0    0    0  501 -0.00000000000E+00 -0.00000000000E+00 -0.15951950565E+02  0.15951950565E+02  0.00000000000E+00 0.  1.
          5    1    1    2  502    0 -0.23066843330E+02 -0.15867287936E+02  0.42875172515E+03  0.42969056530E+03  0.47000000000E+01 0.  1.
         -5    1    1    2    0  502  0.10891020555E+03  0.68752530163E+02  0.11417760896E+04  0.11490270110E+04  0.47000000000E+01 0.  1.
        -11    1    1    2    0    0 -0.72442054808E+00 -0.40800112578E+02  0.14230004733E+03  0.14803539253E+03  0.00000000000E+00 0.  1.
         11    1    1    2    0    0 -0.85118941672E+02 -0.12085129649E+02  0.19656622692E+03  0.21454502128E+03  0.00000000000E+00 0. -1.
<mgrwt>
<rscale>  0 0.15203004E+03</rscale>
<asrwt>0</asrwt>
<pdfrwt beam="1">  1        2 0.29620690E+00 0.16059754E+03</pdfrwt>
<pdfrwt beam="2">  1       -2 0.24541478E-02 0.16059754E+03</pdfrwt>
<totfact> 0.46253539E+03</totfact>
</mgrwt>
</event>
<event>
 6    1  0.4705246E-006  0.2144741E+03  0.7546771E-02  0.1164472E+00
         -2   -1    0    0    0  501 -0.00000000000E+00  0.00000000000E+00  0.18902716310E+02  0.18902716310E+02  0.00000000000E+00 0.  1.
          2   -1    0    0  501    0  0.00000000000E+00 -0.00000000000E+00 -0.15534364367E+04  0.15534364367E+04  0.00000000000E+00 0. -1.
          5    1    1    2  502    0  0.58818544070E+02  0.32375746728E+02 -0.59538327606E+03  0.59917538794E+03  0.47000000000E+01 0. -1.
         -5    1    1    2    0  502 -0.10964300285E+03 -0.80488677979E+02 -0.59410735654E+03  0.60949623170E+03  0.47000000000E+01 0.  1.
        -11    1    1    2    0    0  0.26517919559E+01  0.54053789128E+02 -0.98463167134E+02  0.11235586056E+03  0.00000000000E+00 0.  1.
         11    1    1    2    0    0  0.48172666828E+02 -0.59408578762E+01 -0.24657992060E+03  0.25131167276E+03  0.00000000000E+00 0. -1.
<mgrwt>
<rscale>  0 0.18348481E+03</rscale>
<asrwt>0</asrwt>
<pdfrwt beam="2">  1        2 0.23899016E+00 0.21447405E+03</pdfrwt>
<pdfrwt beam="1">  1       -2 0.29081110E-02 0.21447405E+03</pdfrwt>
<totfact> 0.56416968E+03</totfact>
</mgrwt>
</event>
<event>
 6    1  0.4705246E-006  0.2707592E+03  0.7546771E-02  0.1100846E+00
          1   -1    0    0  501    0  0.00000000000E+00  0.00000000000E+00  0.43146833822E+03  0.43146833822E+03  0.00000000000E+00 0. -1.
         -1   -1    0    0    0  501 -0.00000000000E+00 -0.00000000000E+00 -0.42477352163E+02  0.42477352163E+02  0.00000000000E+00 0.  1.
          5    1    1    2  502    0  0.23644799794E+02  0.27029289830E+02  0.49458869807E+02  0.61301948326E+02  0.47000000000E+01 0. -1.
         -5    1    1    2    0  502 -0.98456040350E+02 -0.51705036743E+02  0.17752143392E+03  0.20953031334E+03  0.47000000000E+01 0. -1.
        -11    1    1    2    0    0  0.35233197193E+02  0.57372148326E+02  0.11626405930E+03  0.13435130470E+03  0.00000000000E+00 0. -1.
         11    1    1    2    0    0  0.39578043363E+02 -0.32696401413E+02  0.45746623026E+02  0.68762124022E+02  0.00000000000E+00 0.  1.
<mgrwt>
<rscale>  0 0.27075917E+03</rscale>
<asrwt>0</asrwt>
<pdfrwt beam="1">  1        1 0.66379741E-01 0.27075917E+03</pdfrwt>
<pdfrwt beam="2">  1       -1 0.65349776E-02 0.27075917E+03</pdfrwt>
<totfact> 0.64014169E+03</totfact>
</mgrwt>
</event>
<event>
 6    1  0.4705246E-006  0.1358882E+03  0.7546771E-02  0.1233951E+00
         -3   -1    0    0    0  501 -0.00000000000E+00  0.00000000000E+00  0.12098762858E+03  0.12098762858E+03  0.00000000000E+00 0. -1.
          3   -1    0    0  501    0  0.00000000000E+00 -0.00000000000E+00 -0.12450250128E+03  0.12450250128E+03  0.00000000000E+00 0.  1.
          5    1    1    2  502    0  0.52638005483E+02 -0.29358465796E+02 -0.42798423496E+01  0.60605991335E+02  0.47000000000E+01 0.  1.
         -5    1    1    2    0  502 -0.70127168915E+02 -0.21007381346E+02 -0.32065306501E+02  0.80058752002E+02  0.47000000000E+01 0.  1.
        -11    1    1    2    0    0 -0.99064415264E+01  0.58738211903E+02 -0.21569667434E+01  0.59606775007E+02  0.00000000000E+00 0.  1.
         11    1    1    2    0    0  0.27395604958E+02 -0.83723647606E+01  0.34987242887E+02  0.45218611517E+02  0.00000000000E+00 0. -1.
<mgrwt>
<rscale>  0 0.12571828E+03</rscale>
<asrwt>0</asrwt>
<pdfrwt beam="2">  1        3 0.19154231E-01 0.13588819E+03</pdfrwt>
<pdfrwt beam="1">  1       -3 0.18613481E-01 0.13588819E+03</pdfrwt>
<totfact> 0.14196478E+03</totfact>
</mgrwt>
</event>
<event>
 6    1  0.4705246E-006  0.1277771E+03  0.7546771E-02  0.1245313E+00
          1   -1    0    0  501    0  0.00000000000E+00  0.00000000000E+00  0.49262828180E+03  0.49262828180E+03  0.00000000000E+00 0. -1.
         -1   -1    0    0    0  501 -0.00000000000E+00 -0.00000000000E+00 -0.25791355220E+02  0.25791355220E+02  0.00000000000E+00 0.  1.
          5    1    1    2  502    0 -0.17127048745E+01 -0.64464052574E+02  0.14174964347E+03  0.15579986796E+03  0.47000000000E+01 0. -1.
         -5    1    1    2    0  502  0.26902168872E+02  0.56433666084E+02  0.16407244872E+03  0.17564265936E+03  0.47000000000E+01 0. -1.
        -11    1    1    2    0    0  0.82486499888E+01 -0.23703726468E+02  0.67761850044E+01  0.25996606670E+02  0.00000000000E+00 0.  1.
         11    1    1    2    0    0 -0.33438113987E+02  0.31734112958E+02  0.15423864938E+03  0.16098050303E+03  0.00000000000E+00 0. -1.
<mgrwt>
<rscale>  0 0.11866670E+03</rscale>
<asrwt>0</asrwt>
<pdfrwt beam="1">  1        1 0.75788959E-01 0.12777714E+03</pdfrwt>
<pdfrwt beam="2">  1       -1 0.39679012E-02 0.12777714E+03</pdfrwt>
<totfact> 0.10852011E+04</totfact>
</mgrwt>
</event>
<event>
 6    1  0.4705246E-006  0.1484264E+03  0.7546771E-02  0.1212163E+00
         -4   -1    0    0    0  501 -0.00000000000E+00  0.00000000000E+00  0.18744038192E+02  0.18744038192E+02  0.00000000000E+00 0.  1.
          4   -1    0    0  501    0  0.00000000000E+00 -0.00000000000E+00 -0.10979809620E+04  0.10979809620E+04  0.00000000000E+00 0. -1.
          5    1    1    2  502    0  0.59693187250E+02 -0.48867509939E+01 -0.20748407591E+03  0.21600668669E+03  0.47000000000E+01 0. -1.
         -5    1    1    2    0  502 -0.22531123697E+02  0.75759853991E+02 -0.57551894280E+03  0.58094005761E+03  0.47000000000E+01 0. -1.
        -11    1    1    2    0    0 -0.67233340887E+02 -0.48126481975E+02 -0.19947053664E+03  0.21592817181E+03  0.00000000000E+00 0. -1.
         11    1    1    2    0    0  0.30071277333E+02 -0.22746621021E+02 -0.96763368436E+02  0.10385008406E+03  0.00000000000E+00 0.  1.
<mgrwt>
<rscale>  0 0.14086977E+03</rscale>
<asrwt>0</asrwt>
<pdfrwt beam="2">  1        4 0.16892014E+00 0.14842637E+03</pdfrwt>
<pdfrwt beam="1">  1       -4 0.28836984E-02 0.14842637E+03</pdfrwt>
<totfact> 0.22742593E+02</totfact>
</mgrwt>
</event>
<event>
 6    1  0.4705246E-006  0.1491877E+03  0.7546771E-02  0.1212877E+00
         -1   -1    0    0    0  501 -0.00000000000E+00  0.00000000000E+00  0.24682216341E+02  0.24682216341E+02  0.00000000000E+00 0.  1.
          1   -1    0    0  501    0  0.00000000000E+00 -0.00000000000E+00 -0.73445150935E+03  0.73445150935E+03  0.00000000000E+00 0. -1.
          5    1    1    2  502    0  0.18367340924E+02 -0.59167133089E+02 -0.18460579198E+03  0.19478063889E+03  0.47000000000E+01 0.  1.
         -5    1    1    2    0  502 -0.82926833665E+02  0.94499319346E+01 -0.15378649849E+03  0.17503867594E+03  0.47000000000E+01 0.  1.
        -11    1    1    2    0    0  0.44980965049E+02  0.73142999149E+02 -0.28775929879E+03  0.30029751844E+03  0.00000000000E+00 0.  1.
         11    1    1    2    0    0  0.19578527692E+02 -0.23425797995E+02 -0.83617703739E+02  0.89016892424E+02  0.00000000000E+00 0. -1.
<mgrwt>
<rscale>  0 0.14033658E+03</rscale>
<asrwt>0</asrwt>
<pdfrwt beam="2">  1        1 0.11299253E+00 0.14918775E+03</pdfrwt>
<pdfrwt beam="1">  1       -1 0.37972643E-02 0.14918775E+03</pdfrwt>
<totfact> 0.67675932E+03</totfact>
</mgrwt>
</event>
<event>
 6    1  0.4705246E-006  0.1919473E+03  0.7546771E-02  0.1161246E+00
         -1   -1    0    0    0  501 -0.00000000000E+00  0.00000000000E+00  0.70490776547E+03  0.70490776547E+03  0.00000000000E+00 0.  1.
          1   -1    0    0  501    0  0.00000000000E+00 -0.00000000000E+00 -0.47193529080E+02  0.47193529080E+02  0.00000000000E+00 0. -1.
          5    1    1    2  502    0  0.63786439306E+02  0.15022033748E+02  0.44162958025E+02  0.79163300833E+02  0.47000000000E+01 0. -1.
         -5    1    1    2    0  502  0.77580809966E+02 -0.50143928213E+02  0.31210691789E+03  0.32552421385E+03  0.47000000000E+01 0. -1.
        -11    1    1    2    0    0 -0.10190385289E+03  0.67016258617E+02  0.21242927566E+03  0.24495258993E+03  0.00000000000E+00 0.  1.
         11    1    1    2    0    0 -0.39463396382E+02 -0.31894364152E+02  0.89015084814E+02  0.10246118994E+03  0.00000000000E+00 0. -1.
<mgrwt>
<rscale>  0 0.18694499E+03</rscale>
<asrwt>0</asrwt>
<pdfrwt beam="2">  1        1 0.72605434E-02 0.19194728E+03</pdfrwt>
<pdfrwt beam="1">  1       -1 0.10844734E+00 0.19194728E+03</pdfrwt>
<totfact> 0.82809382E+02</totfact>
</mgrwt>
</event>
<event>
 6    1  0.5872796E-006  0.1276974E+03  0.7546771E-02  0.1245758E+00
          1   -1    0    0  501    0  0.00000000000E+00  0.00000000000E+00  0.23633421580E+03  0.23633421580E+03  0.00000000000E+00 0. -1.
         -1   -1    0    0    0  501 -0.00000000000E+00 -0.00000000000E+00 -0.60862662066E+02  0.60862662066E+02  0.00000000000E+00 0.  1.
          5    1    1    2  502    0  0.37626529878E+02 -0.45139804184E+02  0.29492001740E+02  0.65918327035E+02  0.47000000000E+01 0. -1.
         -5    1    1    2    0  502 -0.11679948621E+02  0.48013936185E+02  0.12514120892E+03  0.13462604294E+03  0.47000000000E+01 0. -1.
        -11    1    1    2    0    0 -0.23701610644E+02  0.32866980604E+02  0.39224798637E+02  0.56396716122E+02  0.00000000000E+00 0.  1.
         11    1    1    2    0    0 -0.22449706123E+01 -0.35741112605E+02 -0.18386455559E+02  0.40255791774E+02  0.00000000000E+00 0. -1.
<mgrwt>
<rscale>  0 0.11840110E+03</rscale>
<asrwt>0</asrwt>
<pdfrwt beam="1">  1        1 0.36359110E-01 0.12769736E+03</pdfrwt>
<pdfrwt beam="2">  1       -1 0.93634866E-02 0.12769736E+03</pdfrwt>
<totfact> 0.75664470E+03</totfact>
</mgrwt>
</event>
<event>
 6    1  0.4705246E-006  0.1291298E+03  0.7546771E-02  0.1245103E+00
         -1   -1    0    0    0  501 -0.00000000000E+00  0.00000000000E+00  0.67940143356E+02  0.67940143356E+02  0.00000000000E+00 0.  1.
          1   -1    0    0  501    0  0.00000000000E+00 -0.00000000000E+00 -0.18074094631E+03  0.18074094631E+03  0.00000000000E+00 0. -1.
          5    1    1    2  502    0 -0.57828503216E+02 -0.30852126728E+02 -0.65975585026E+01  0.66042465778E+02  0.47000000000E+01 0.  1.
         -5    1    1    2    0  502  0.52512186226E+02 -0.10746568572E+01 -0.57846150007E+02  0.78274846919E+02  0.47000000000E+01 0.  1.
        -11    1    1    2    0    0 -0.16976619424E+02  0.15964501953E+02 -0.67179339496E+02  0.71106501705E+02  0.00000000000E+00 0. -1.
         11    1    1    2    0    0  0.22292936413E+02  0.15962281632E+02  0.18822245054E+02  0.33257275260E+02  0.00000000000E+00 0.  1.
<mgrwt>
<rscale>  0 0.11879196E+03</rscale>
<asrwt>0</asrwt>
<pdfrwt beam="2">  1        1 0.27806299E-01 0.12912976E+03</pdfrwt>
<pdfrwt beam="1">  1       -1 0.10452330E-01 0.12912976E+03</pdfrwt>
<totfact> 0.89303573E+03</totfact>
</mgrwt>
</event>
<event>
 6    1  0.4705246E-006  0.2346584E+03  0.7546771E-02  0.1141818E+00
         -1   -1    0    0    0  501 -0.00000000000E+00  0.00000000000E+00  0.19898881324E+03  0.19898881324E+03  0.00000000000E+00 0.  1.
          1   -1    0    0  501    0  0.00000000000E+00 -0.00000000000E+00 -0.20235778131E+03  0.20235778131E+03  0.00000000000E+00 0. -1.
          5    1    1    2  502    0  0.13094017157E+03 -0.55961819641E+02 -0.21320136477E+02  0.14406141748E+03  0.47000000000E+01 0. -1.
         -5    1    1    2    0  502 -0.16406077703E+02  0.88792042827E+02 -0.37295418601E+02  0.97807077983E+02  0.47000000000E+01 0.  1.
        -11    1    1    2    0    0 -0.81701595408E+02  0.21113346238E+02  0.44568339427E+02  0.95431970329E+02  0.00000000000E+00 0.  1.
         11    1    1    2    0    0 -0.32832498455E+02 -0.53943569425E+02  0.10678247576E+02  0.64046128754E+02  0.00000000000E+00 0. -1.
<mgrwt>
<rscale>  0 0.20968254E+03</rscale>
<asrwt>0</asrwt>
<pdfrwt beam="2">  1        1 0.31131966E-01 0.23465844E+03</pdfrwt>
<pdfrwt beam="1">  1       -1 0.30613664E-01 0.23465844E+03</pdfrwt>
<totfact> 0.14208424E+03</totfact>
</mgrwt>
</event>
<event>
 6    1  0.4705246E-006  0.1362648E+03  0.7546771E-02  0.1230714E+00
         -2   -1    0    0    0  501 -0.00000000000E+00  0.00000000000E+00  0.23246115150E+02  0.23246115150E+02  0.00000000000E+00 0. -1.
          2   -1    0    0  501    0  0.00000000000E+00 -0.00000000000E+00 -0.92173869285E+03  0.92173869285E+03  0.00000000000E+00 0.  1.
          5    1    1    2  502    0  0.17058640799E+02 -0.54199801828E+02 -0.24299869783E+03  0.24959782229E+03  0.47000000000E+01 0. -1.
         -5    1    1    2    0  502  0.35662441988E+02  0.66938453994E+02 -0.51012749237E+03  0.51575644917E+03  0.47000000000E+01 0. -1.
        -11    1    1    2    0    0  0.32987465046E+01  0.16700468924E+02  0.39339124217E+01  0.17471778894E+02  0.00000000000E+00 0. -1.
         11    1    1    2    0    0 -0.56019829291E+02 -0.29439121089E+02 -0.14930029992E+03  0.16215875764E+03  0.00000000000E+00 0.  1.
<mgrwt>
<rscale>  0 0.12782851E+03</rscale>
<asrwt>0</asrwt>
<pdfrwt beam="2">  1        2 0.14180596E+00 0.13626482E+03</pdfrwt>
<pdfrwt beam="1">  1       -2 0.35763252E-02 0.13626482E+03</pdfrwt>
<totfact> 0.92293796E+03</totfact>
</mgrwt>
</event>
<event>
 6    1  0.4705246E-006  0.1448759E+03  0.7546771E-02  0.1215879E+00
          1   -1    0    0  501    0  0.00000000000E+00  0.00000000000E+00  0.84572070295E+02  0.84572070295E+02  0.00000000000E+00 0. -1.
         -1   -1    0    0    0  501 -0.00000000000E+00 -0.00000000000E+00 -0.20719994974E+03  0.20719994974E+03  0.00000000000E+00 0.  1.
          5    1    1    2  502    0  0.16536313703E+02  0.37621656065E+02 -0.10576025725E+03  0.11356126403E+03  0.47000000000E+01 0. -1.
         -5    1    1    2    0  502  0.28910728319E+02  0.19803047293E+02  0.33172578372E+02  0.48481964172E+02  0.47000000000E+01 0. -1.
        -11    1    1    2    0    0 -0.62057368704E+02 -0.41249707318E+02 -0.67627084373E+02  0.10062841500E+03  0.00000000000E+00 0.  1.
         11    1    1    2    0    0  0.16610326681E+02 -0.16174996040E+02  0.17586883808E+02  0.29100376826E+02  0.00000000000E+00 0. -1.
<mgrwt>
<rscale>  0 0.13812143E+03</rscale>
<asrwt>0</asrwt>
<pdfrwt beam="1">  1        1 0.13011088E-01 0.14487594E+03</pdfrwt>
<pdfrwt beam="2">  1       -1 0.31876915E-01 0.14487594E+03</pdfrwt>
<totfact> 0.39882610E+03</totfact>
</mgrwt>
</event>
<event>
 6    1  0.4705246E-006  0.1319837E+03  0.7546771E-02  0.1238410E+00
         -2   -1    0    0    0  501 -0.00000000000E+00  0.00000000000E+00  0.19992283035E+03  0.19992283035E+03  0.00000000000E+00 0.  1.
          2   -1    0    0  501    0  0.00000000000E+00 -0.00000000000E+00 -0.73351422570E+02  0.73351422570E+02  0.00000000000E+00 0. -1.
          5    1    1    2  502    0 -0.26040450069E+02  0.15124798325E+02 -0.35896183116E+02  0.47090238123E+02  0.47000000000E+01 0. -1.
         -5    1    1    2    0  502  0.55585891394E+02  0.15317428666E+02  0.66982081677E+02  0.88504825907E+02  0.47000000000E+01 0. -1.
        -11    1    1    2    0    0 -0.52724652123E+02 -0.49569471846E+01  0.23625159069E+02  0.57988002276E+02  0.00000000000E+00 0.  1.
         11    1    1    2    0    0  0.23179210798E+02 -0.25485279807E+02  0.71860350148E+02  0.79691186611E+02  0.00000000000E+00 0. -1.
<mgrwt>
<rscale>  0 0.12288643E+03</rscale>
<asrwt>0</asrwt>
<pdfrwt beam="2">  1        2 0.11284834E-01 0.13198367E+03</pdfrwt>
<pdfrwt beam="1">  1       -2 0.30757358E-01 0.13198367E+03</pdfrwt>
<totfact> 0.51109937E+03</totfact>
</mgrwt>
</event>
<event>
 6    1  0.4705246E-006  0.2622427E+03  0.7546771E-02  0.1105803E+00
         -3   -1    0    0    0  501 -0.00000000000E+00  0.00000000000E+00  0.17705817675E+03  0.17705817675E+03  0.00000000000E+00 0.  1.
          3   -1    0    0  501    0  0.00000000000E+00 -0.00000000000E+00 -0.97102574650E+02  0.97102574650E+02  0.00000000000E+00 0. -1.
          5    1    1    2  502    0  0.13521328929E+02  0.14689399646E+02  0.52256155554E+02  0.56137336873E+02  0.47000000000E+01 0. -1.
         -5    1    1    2    0  502  0.10595813391E+02 -0.80265658220E+02 -0.34563569035E+02  0.88156550836E+02  0.47000000000E+01 0. -1.
        -11    1    1    2    0    0 -0.24400979278E+02  0.36044636314E+02 -0.15876656693E+02  0.46332405770E+02  0.00000000000E+00 0. -1.
         11    1    1    2    0    0  0.28383695671E+00  0.29531622260E+02  0.78139672274E+02  0.83534457919E+02  0.00000000000E+00 0.  1.
<mgrwt>
<rscale>  0 0.26224267E+03</rscale>
<asrwt>0</asrwt>
<pdfrwt beam="2">  1        3 0.14938858E-01 0.26224267E+03</pdfrwt>
<pdfrwt beam="1">  1       -3 0.27239719E-01 0.26224267E+03</pdfrwt>
<totfact> 0.12145154E+03</totfact>
</mgrwt>
</event>
<event>
 6    1  0.4705246E-006  0.1271305E+03  0.7546771E-02  0.1247272E+00
         -2   -1    0    0    0  501 -0.00000000000E+00  0.00000000000E+00  0.51342471260E+03  0.51342471260E+03  0.00000000000E+00 0.  1.
          2   -1    0    0  501    0  0.00000000000E+00 -0.00000000000E+00 -0.24034443966E+03  0.24034443966E+03  0.00000000000E+00 0. -1.
          5    1    1    2  502    0 -0.44000366705E+02 -0.30742127581E+00 -0.15420677154E+02  0.46861648092E+02  0.47000000000E+01 0.  1.
         -5    1    1    2    0  502  0.28858864317E+02 -0.17094154884E+02 -0.20346707280E+03  0.20626677846E+03  0.47000000000E+01 0.  1.
        -11    1    1    2    0    0 -0.31233434347E+02  0.31079637113E+02  0.25698245613E+03  0.26073253349E+03  0.00000000000E+00 0.  1.
         11    1    1    2    0    0  0.46374936735E+02 -0.13678060953E+02  0.23498556677E+03  0.23990819223E+03  0.00000000000E+00 0. -1.
<mgrwt>
<rscale>  0 0.11750431E+03</rscale>
<asrwt>0</asrwt>
<pdfrwt beam="2">  1        2 0.36976068E-01 0.12713046E+03</pdfrwt>
<pdfrwt beam="1">  1       -2 0.78988417E-01 0.12713046E+03</pdfrwt>
<totfact> 0.20685547E+02</totfact>
</mgrwt>
</event>
<event>
 6    1  0.4705246E-006  0.1829963E+03  0.7546771E-02  0.1170662E+00
          2   -1    0    0  501    0  0.00000000000E+00  0.00000000000E+00  0.16970218647E+04  0.16970218647E+04  0.00000000000E+00 0. -1.
         -2   -1    0    0    0  501 -0.00000000000E+00 -0.00000000000E+00 -0.26561682028E+02  0.26561682028E+02  0.00000000000E+00 0.  1.
          5    1    1    2  502    0 -0.48724240113E+02 -0.20749841750E+02  0.46308723744E+03  0.46612925995E+03  0.47000000000E+01 0.  1.
         -5    1    1    2    0  502 -0.36520762799E+02  0.12367210888E+03  0.91408733344E+03  0.92315020435E+03  0.47000000000E+01 0.  1.
        -11    1    1    2    0    0  0.64506715281E+02 -0.15540697177E+02  0.16373445084E+03  0.17666805025E+03  0.00000000000E+00 0.  1.
         11    1    1    2    0    0  0.20738287631E+02 -0.87381569949E+02  0.12955116099E+03  0.15763603222E+03  0.00000000000E+00 0. -1.
<mgrwt>
<rscale>  0 0.17707758E+03</rscale>
<asrwt>0</asrwt>
<pdfrwt beam="1">  1        2 0.26108020E+00 0.18299626E+03</pdfrwt>
<pdfrwt beam="2">  1       -2 0.40864140E-02 0.18299626E+03</pdfrwt>
<totfact> 0.28528941E+03</totfact>
</mgrwt>
</event>
<event>
 6    1  0.4705246E-006  0.1313600E+03  0.7546771E-02  0.1238357E+00
          2   -1    0    0  501    0  0.00000000000E+00  0.00000000000E+00  0.39946521039E+03  0.39946521039E+03  0.00000000000E+00 0. -1.
         -2   -1    0    0    0  501 -0.00000000000E+00 -0.00000000000E+00 -0.34229821104E+02  0.34229821104E+02  0.00000000000E+00 0.  1.
          5    1    1    2  502    0  0.54770291315E+02 -0.85852106973E+01  0.81065986351E+02  0.98322300606E+02  0.47000000000E+01 0.  1.
         -5    1    1    2    0  502 -0.68078694527E+02 -0.29553575953E+02  0.15187721235E+03  0.16910618005E+03  0.47000000000E+01 0.  1.
        -11    1    1    2    0    0 -0.10386097809E+01 -0.28138667738E+02  0.64505640196E+02  0.70383527543E+02  0.00000000000E+00 0. -1.
         11    1    1    2    0    0  0.14347012994E+02  0.66277454388E+02  0.67786550388E+02  0.95883023291E+02  0.00000000000E+00 0.  1.
<mgrwt>
<rscale>  0 0.12291930E+03</rscale>
<asrwt>0</asrwt>
<pdfrwt beam="1">  1        2 0.61456183E-01 0.13136003E+03</pdfrwt>
<pdfrwt beam="2">  1       -2 0.52661266E-02 0.13136003E+03</pdfrwt>
<totfact> 0.13616551E+04</totfact>
</mgrwt>
</event>
<event>
 6    1  0.4705246E-006  0.2567686E+03  0.7546771E-02  0.1111772E+00
          1   -1    0    0  501    0  0.00000000000E+00  0.00000000000E+00  0.58772237309E+03  0.58772237309E+03  0.00000000000E+00 0. -1.
         -1   -1    0    0    0  501 -0.00000000000E+00 -0.00000000000E+00 -0.11831126124E+03  0.11831126124E+03  0.00000000000E+00 0.  1.
          5    1    1    2  502    0 -0.18387896882E+03  0.12962459226E+03  0.34085328130E+03  0.40843244174E+03  0.47000000000E+01 0. -1.
         -5    1    1    2    0  502  0.17744970688E+02  0.21059566593E+02  0.19609537054E+02  0.34132290771E+02  0.47000000000E+01 0. -1.
        -11    1    1    2    0    0  0.13416853388E+03 -0.88500351308E+02  0.10781769968E+03  0.19354111715E+03  0.00000000000E+00 0. -1.
         11    1    1    2    0    0  0.31965464253E+02 -0.62183807547E+02  0.11305938243E+01  0.69927784666E+02  0.00000000000E+00 0.  1.
<mgrwt>
<rscale>  0 0.25244014E+03</rscale>
<asrwt>0</asrwt>
<pdfrwt beam="1">  1        1 0.90418825E-01 0.25676857E+03</pdfrwt>
<pdfrwt beam="2">  1       -1 0.18201733E-01 0.25676857E+03</pdfrwt>
<totfact> 0.85390352E+02</totfact>
</mgrwt>
</event>
<event>
 6    1  0.4705246E-006  0.1574541E+03  0.7546771E-02  0.1200580E+00
         -2   -1    0    0    0  501 -0.00000000000E+00  0.00000000000E+00  0.34037325880E+02  0.34037325880E+02  0.00000000000E+00 0.  1.
          2   -1    0    0  501    0  0.00000000000E+00 -0.00000000000E+00 -0.84702537580E+03  0.84702537580E+03  0.00000000000E+00 0. -1.
          5    1    1    2  502    0 -0.81127359456E+02  0.84197012388E+01 -0.55150950875E+03  0.55752790788E+03  0.47000000000E+01 0. -1.
         -5    1    1    2    0  502  0.87749815242E+01  0.54292457228E+02 -0.11836418137E+03  0.13060184013E+03  0.47000000000E+01 0. -1.
        -11    1    1    2    0    0  0.63696559011E+02 -0.31957734234E+02 -0.14432533468E+03  0.16096071147E+03  0.00000000000E+00 0. -1.
         11    1    1    2    0    0  0.86558189211E+01 -0.30754424233E+02  0.12109748841E+01  0.31972242200E+02  0.00000000000E+00 0.  1.
<mgrwt>
<rscale>  0 0.14991305E+03</rscale>
<asrwt>0</asrwt>
<pdfrwt beam="2">  1        2 0.13031160E+00 0.15745409E+03</pdfrwt>
<pdfrwt beam="1">  1       -2 0.52365116E-02 0.15745409E+03</pdfrwt>
<totfact> 0.58682129E+03</totfact>
</mgrwt>
</event>
<event>
 6    1  0.4705246E-006  0.1305634E+03  0.7546771E-02  0.1239913E+00
          2   -1    0    0  501    0  0.00000000000E+00  0.00000000000E+00  0.12550242858E+04  0.12550242858E+04  0.00000000000E+00 0. -1.
         -2   -1    0    0    0  501 -0.00000000000E+00 -0.00000000000E+00 -0.11883509075E+02  0.11883509075E+02  0.00000000000E+00 0.  1.
          5    1    1    2  502    0 -0.17699171803E+02  0.21832536134E+02  0.87172633535E+03  0.87219195941E+03  0.47000000000E+01 0. -1.
         -5    1    1    2    0  502 -0.19768283758E+02 -0.17673654005E+02  0.36437592292E+02  0.45309284045E+02  0.47000000000E+01 0. -1.
        -11    1    1    2    0    0  0.62035008534E+02 -0.23248231782E+02  0.25824758917E+03  0.26660952698E+03  0.00000000000E+00 0. -1.
         11    1    1    2    0    0 -0.24567552973E+02  0.19089349654E+02  0.76729259927E+02  0.82797024453E+02  0.00000000000E+00 0.  1.
<mgrwt>
<rscale>  0 0.12195112E+03</rscale>
<asrwt>0</asrwt>
<pdfrwt beam="1">  1        2 0.19308055E+00 0.13056344E+03</pdfrwt>
<pdfrwt beam="2">  1       -2 0.18282332E-02 0.13056344E+03</pdfrwt>
<totfact> 0.15765179E+04</totfact>
</mgrwt>
</event>
<event>
 6    1  0.4705246E-006  0.1419139E+03  0.7546771E-02  0.1222349E+00
         -1   -1    0    0    0  501 -0.00000000000E+00  0.00000000000E+00  0.12121311897E+03  0.12121311897E+03  0.00000000000E+00 0.  1.
          1   -1    0    0  501    0  0.00000000000E+00 -0.00000000000E+00 -0.15283761639E+03  0.15283761639E+03  0.00000000000E+00 0. -1.
          5    1    1    2  502    0  0.73877621561E+02 -0.47263220584E+02 -0.49665869249E+02  0.10089848143E+03  0.47000000000E+01 0.  1.
         -5    1    1    2    0  502 -0.50750304490E+02 -0.15820392204E+02 -0.17985886026E+02  0.56315719932E+02  0.47000000000E+01 0.  1.
        -11    1    1    2    0    0  0.67836620174E+01  0.29800304452E+02 -0.26155178129E+02  0.40226478329E+02  0.00000000000E+00 0. -1.
         11    1    1    2    0    0 -0.29910979089E+02  0.33283308337E+02  0.62182435986E+02  0.76610055665E+02  0.00000000000E+00 0.  1.
<mgrwt>
<rscale>  0 0.13350249E+03</rscale>
<asrwt>0</asrwt>
<pdfrwt beam="2">  1        1 0.23513479E-01 0.14191387E+03</pdfrwt>
<pdfrwt beam="1">  1       -1 0.18648172E-01 0.14191387E+03</pdfrwt>
<totfact> 0.44948331E+03</totfact>
</mgrwt>
</event>
<event>
 6    1  0.4705246E-006  0.1303933E+03  0.7546771E-02  0.1240265E+00
         -2   -1    0    0    0  501 -0.00000000000E+00  0.00000000000E+00  0.16576223279E+02  0.16576223279E+02  0.00000000000E+00 0.  1.
          2   -1    0    0  501    0  0.00000000000E+00 -0.00000000000E+00 -0.10359596870E+04  0.10359596870E+04  0.00000000000E+00 0. -1.
          5    1    1    2  502    0  0.22785160284E+02  0.12408014138E+01 -0.28688256931E+02  0.36956855969E+02  0.47000000000E+01 0. -1.
         -5    1    1    2    0  502 -0.51656195761E+02 -0.24538053378E+02 -0.78686997249E+03  0.78895939201E+03  0.47000000000E+01 0. -1.
        -11    1    1    2    0    0 -0.20331326603E+01 -0.99659412337E+01  0.60867748418E+01  0.11853372561E+02  0.00000000000E+00 0.  1.
         11    1    1    2    0    0  0.30904168137E+02  0.33263193198E+02 -0.20991200917E+03  0.21476628978E+03  0.00000000000E+00 0. -1.
<mgrwt>
<rscale>  0 0.12173342E+03</rscale>
<asrwt>0</asrwt>
<pdfrwt beam="2">  1        2 0.15937839E+00 0.13039334E+03</pdfrwt>
<pdfrwt beam="1">  1       -2 0.25501885E-02 0.13039334E+03</pdfrwt>
<totfact> 0.12910484E+04</totfact>
</mgrwt>
</event>
<event>
 6    1  0.4705246E-006  0.2252488E+03  0.7546771E-02  0.1130029E+00
         -2   -1    0    0    0  501 -0.00000000000E+00  0.00000000000E+00  0.91183080172E+01  0.91183080172E+01  0.00000000000E+00 0. -1.
          2   -1    0    0  501    0  0.00000000000E+00 -0.00000000000E+00 -0.13910750322E+04  0.13910750322E+04  0.00000000000E+00 0.  1.
          5    1    1    2  502    0 -0.55374381164E+01  0.41746357690E+01 -0.81383181081E+03  0.81387492718E+03  0.47000000000E+01 0. -1.
         -5    1    1    2    0  502 -0.15475493598E+02 -0.41877982872E+02 -0.10183045688E+03  0.11128696374E+03  0.47000000000E+01 0. -1.
        -11    1    1    2    0    0 -0.26221242114E+02  0.34388647470E+02 -0.23333954611E+03  0.23731303460E+03  0.00000000000E+00 0. -1.
         11    1    1    2    0    0  0.47234173829E+02  0.33146996324E+01 -0.23295491036E+03  0.23771841467E+03  0.00000000000E+00 0.  1.
<mgrwt>
<rscale>  0 0.22524876E+03</rscale>
<asrwt>0</asrwt>
<pdfrwt beam="2">  1        2 0.21401159E+00 0.22524876E+03</pdfrwt>
<pdfrwt beam="1">  1       -2 0.14028163E-02 0.22524876E+03</pdfrwt>
<totfact> 0.20147942E+04</totfact>
</mgrwt>
</event>
<event>
 6    1  0.4705246E-006  0.4788131E+03  0.7546771E-02  0.1069316E+00
          1   -1    0    0  501    0  0.00000000000E+00  0.00000000000E+00  0.14991226606E+04  0.14991226606E+04  0.00000000000E+00 0. -1.
         -1   -1    0    0    0  501 -0.00000000000E+00 -0.00000000000E+00 -0.60138277557E+02  0.60138277557E+02  0.00000000000E+00 0.  1.
          5    1    1    2  502    0 -0.42063850459E+02 -0.23966456879E+03  0.39316580020E+03  0.46239583638E+03  0.47000000000E+01 0. -1.
         -5    1    1    2    0  502  0.51506814681E+02  0.17501010670E+03  0.85951863294E+03  0.87867847349E+03  0.47000000000E+01 0.  1.
        -11    1    1    2    0    0 -0.47394047820E+02  0.31275590490E+02  0.62369095727E+02  0.84346087231E+02  0.00000000000E+00 0. -1.
         11    1    1    2    0    0  0.37951083599E+02  0.33378871594E+02  0.12393085416E+03  0.13384054105E+03  0.00000000000E+00 0.  1.
<mgrwt>
<rscale>  0 0.33414788E+03</rscale>
<asrwt>0</asrwt>
<pdfrwt beam="1">  1        1 0.23063423E+00 0.47881313E+03</pdfrwt>
<pdfrwt beam="2">  1       -1 0.92520438E-02 0.47881313E+03</pdfrwt>
<totfact> 0.48396546E+02</totfact>
</mgrwt>
</event>
<event>
 6    1  0.4705246E-006  0.1435412E+03  0.7546771E-02  0.1226588E+00
          3   -1    0    0  501    0  0.00000000000E+00  0.00000000000E+00  0.13423788160E+03  0.13423788160E+03  0.00000000000E+00 0.  1.
         -3   -1    0    0    0  501 -0.00000000000E+00 -0.00000000000E+00 -0.13302306204E+03  0.13302306204E+03  0.00000000000E+00 0. -1.
          5    1    1    2  502    0  0.68379821731E+02 -0.39244866055E+02 -0.16118745223E+02  0.80609326254E+02  0.47000000000E+01 0.  1.
         -5    1    1    2    0  502 -0.44524334778E+01  0.93768073015E+01  0.72850567864E+02  0.73736313423E+02  0.47000000000E+01 0.  1.
        -11    1    1    2    0    0  0.48581422693E+01  0.19898329591E+02  0.46299710536E+01  0.20999564252E+02  0.00000000000E+00 0.  1.
         11    1    1    2    0    0 -0.68785530522E+02  0.99697291625E+01 -0.60146974134E+02  0.91915739709E+02  0.00000000000E+00 0. -1.
<mgrwt>
<rscale>  0 0.13058641E+03</rscale>
<asrwt>0</asrwt>
<pdfrwt beam="1">  1        3 0.20651982E-01 0.14354120E+03</pdfrwt>
<pdfrwt beam="2">  1       -3 0.20465086E-01 0.14354120E+03</pdfrwt>
<totfact> 0.10616889E+03</totfact>
</mgrwt>
</event>
<event>
 6    1  0.4705246E-006  0.1390273E+03  0.7546771E-02  0.1225953E+00
         -1   -1    0    0    0  501 -0.00000000000E+00  0.00000000000E+00  0.33047017186E+02  0.33047017186E+02  0.00000000000E+00 0.  1.
          1   -1    0    0  501    0  0.00000000000E+00 -0.00000000000E+00 -0.46811252045E+03  0.46811252045E+03  0.00000000000E+00 0. -1.
          5    1    1    2  502    0  0.33116135614E+02 -0.69838160513E+02 -0.17893915326E+03  0.19497527451E+03  0.47000000000E+01 0.  1.
         -5    1    1    2    0  502  0.24725338086E+02  0.50987219697E+02 -0.70299472057E+02  0.90416506720E+02  0.47000000000E+01 0.  1.
        -11    1    1    2    0    0 -0.16696899827E+02 -0.32314148270E+02 -0.10791839793E+03  0.11388314737E+03  0.00000000000E+00 0. -1.
         11    1    1    2    0    0 -0.41144573872E+02  0.51165089086E+02 -0.77908480019E+02  0.10188460904E+03  0.00000000000E+00 0.  1.
<mgrwt>
<rscale>  0 0.13101816E+03</rscale>
<asrwt>0</asrwt>
<pdfrwt beam="2">  1        1 0.72017308E-01 0.13902725E+03</pdfrwt>
<pdfrwt beam="1">  1       -1 0.50841567E-02 0.13902725E+03</pdfrwt>
<totfact> 0.80932059E+03</totfact>
</mgrwt>
</event>
<event>
 6    1  0.4705246E-006  0.1500176E+03  0.7546771E-02  0.1202283E+00
          2   -1    0    0  501    0  0.00000000000E+00  0.00000000000E+00  0.10581929150E+03  0.10581929150E+03  0.00000000000E+00 0. -1.
         -2   -1    0    0    0  501 -0.00000000000E+00 -0.00000000000E+00 -0.21680050482E+03  0.21680050482E+03  0.00000000000E+00 0.  1.
          5    1    1    2  502    0  0.23834216382E+02  0.64709874964E+02 -0.42984385624E+02  0.81395240622E+02  0.47000000000E+01 0. -1.
         -5    1    1    2    0  502  0.62863723325E+02 -0.16290018706E+02  0.24899383144E+02  0.69708548261E+02  0.47000000000E+01 0.  1.
        -11    1    1    2    0    0 -0.89434474991E+02 -0.63854884006E+02 -0.10478521161E+03  0.15184173372E+03  0.00000000000E+00 0.  1.
         11    1    1    2    0    0  0.27365352838E+01  0.15435027748E+02  0.11889000769E+02  0.19674273715E+02  0.00000000000E+00 0. -1.
<mgrwt>
<rscale>  0 0.14853657E+03</rscale>
<asrwt>0</asrwt>
<pdfrwt beam="1">  1        2 0.16279891E-01 0.15001762E+03</pdfrwt>
<pdfrwt beam="2">  1       -2 0.33353924E-01 0.15001762E+03</pdfrwt>
<totfact> 0.28776471E+03</totfact>
</mgrwt>
</event>
<event>
 6    1  0.4705246E-006  0.1494616E+03  0.7546771E-02  0.1210341E+00
          1   -1    0    0  501    0  0.00000000000E+00  0.00000000000E+00  0.10424505994E+03  0.10424505994E+03  0.00000000000E+00 0. -1.
         -1   -1    0    0    0  501 -0.00000000000E+00 -0.00000000000E+00 -0.18519968019E+03  0.18519968019E+03  0.00000000000E+00 0.  1.
          5    1    1    2  502    0  0.89316008518E+02  0.25805937870E+02 -0.25360835833E+02  0.96480867539E+02  0.47000000000E+01 0. -1.
         -5    1    1    2    0  502 -0.11425979881E+02 -0.51251404467E+02  0.10373007690E+02  0.53730333748E+02  0.47000000000E+01 0. -1.
        -11    1    1    2    0    0 -0.84160929838E+02 -0.17000448900E+01 -0.21701636560E+02  0.86930508414E+02  0.00000000000E+00 0. -1.
         11    1    1    2    0    0  0.62709012005E+01  0.27145511487E+02 -0.44265155555E+02  0.52303030429E+02  0.00000000000E+00 0.  1.
<mgrwt>
<rscale>  0 0.14224363E+03</rscale>
<asrwt>0</asrwt>
<pdfrwt beam="1">  1        1 0.16037702E-01 0.14946160E+03</pdfrwt>
<pdfrwt beam="2">  1       -1 0.28492258E-01 0.14946160E+03</pdfrwt>
<totfact> 0.36773705E+03</totfact>
</mgrwt>
</event>
<event>
 6    1  0.4705246E-006  0.1302482E+03  0.7546771E-02  0.1242241E+00
         -1   -1    0    0    0  501 -0.00000000000E+00  0.00000000000E+00  0.23525363827E+02  0.23525363827E+02  0.00000000000E+00 0.  1.
          1   -1    0    0  501    0  0.00000000000E+00 -0.00000000000E+00 -0.63640331676E+03  0.63640331676E+03  0.00000000000E+00 0. -1.
          5    1    1    2  502    0  0.42174219095E+02  0.31153444295E+02 -0.31797164108E+03  0.32229994784E+03  0.47000000000E+01 0. -1.
         -5    1    1    2    0  502 -0.21822807487E+02 -0.61569015335E+02 -0.15476319157E+03  0.16804973681E+03  0.47000000000E+01 0. -1.
        -11    1    1    2    0    0  0.10404110558E+02 -0.21017505222E+02 -0.85124777596E+01  0.24948813997E+02  0.00000000000E+00 0.  1.
         11    1    1    2    0    0 -0.30755522166E+02  0.51433076261E+02 -0.13163064252E+03  0.14463018194E+03  0.00000000000E+00 0. -1.
<mgrwt>
<rscale>  0 0.12052022E+03</rscale>
<asrwt>0</asrwt>
<pdfrwt beam="2">  1        1 0.97908204E-01 0.13024819E+03</pdfrwt>
<pdfrwt beam="1">  1       -1 0.36192867E-02 0.13024819E+03</pdfrwt>
<totfact> 0.88296694E+03</totfact>
</mgrwt>
</event>
<event>
 6    1  0.4705246E-006  0.1361296E+03  0.7546771E-02  0.1229218E+00
         -2   -1    0    0    0  501 -0.00000000000E+00  0.00000000000E+00  0.29215393217E+02  0.29215393217E+02  0.00000000000E+00 0.  1.
          2   -1    0    0  501    0  0.00000000000E+00 -0.00000000000E+00 -0.10237581981E+04  0.10237581981E+04  0.00000000000E+00 0. -1.
          5    1    1    2  502    0  0.36687082257E+02  0.18858142725E+02 -0.75794814109E+03  0.75908434718E+03  0.47000000000E+01 0.  1.
         -5    1    1    2    0  502 -0.36626508251E+02  0.35040447687E+02 -0.13688702107E+03  0.14604615920E+03  0.47000000000E+01 0.  1.
        -11    1    1    2    0    0  0.47143501013E+02 -0.24286254092E+02 -0.42266824422E+02  0.67814572713E+02  0.00000000000E+00 0.  1.
         11    1    1    2    0    0 -0.47204075019E+02 -0.29612336320E+02 -0.57440818293E+02  0.80028512212E+02  0.00000000000E+00 0. -1.
<mgrwt>
<rscale>  0 0.12881919E+03</rscale>
<asrwt>0</asrwt>
<pdfrwt beam="2">  1        2 0.15750125E+00 0.13612959E+03</pdfrwt>
<pdfrwt beam="1">  1       -2 0.44946762E-02 0.13612959E+03</pdfrwt>
<totfact> 0.56989303E+03</totfact>
</mgrwt>
</event>
<event>
 6    1  0.4705246E-006  0.1549439E+03  0.7546771E-02  0.1203388E+00
         -1   -1    0    0    0  501 -0.00000000000E+00  0.00000000000E+00  0.44191299638E+02  0.44191299638E+02  0.00000000000E+00 0.  1.
          1   -1    0    0  501    0  0.00000000000E+00 -0.00000000000E+00 -0.51211622570E+03  0.51211622570E+03  0.00000000000E+00 0. -1.
          5    1    1    2  502    0  0.36959023524E+01  0.18795249190E+02  0.20882595556E+01  0.19833605680E+02  0.47000000000E+01 0. -1.
         -5    1    1    2    0  502 -0.85235901540E+02  0.22837045849E+02 -0.35067689646E+03  0.36163941334E+03  0.47000000000E+01 0. -1.
        -11    1    1    2    0    0  0.54705896846E+02 -0.39241961747E+02 -0.17594228554E+02  0.69586087618E+02  0.00000000000E+00 0.  1.
         11    1    1    2    0    0  0.26834102341E+02 -0.23903332921E+01 -0.10174206061E+03  0.10524841870E+03  0.00000000000E+00 0. -1.
<mgrwt>
<rscale>  0 0.14765249E+03</rscale>
<asrwt>0</asrwt>
<pdfrwt beam="2">  1        1 0.78787114E-01 0.15494395E+03</pdfrwt>
<pdfrwt beam="1">  1       -1 0.67986613E-02 0.15494395E+03</pdfrwt>
<totfact> 0.46957089E+03</totfact>
</mgrwt>
</event>
<event>
 6    1  0.4705246E-006  0.1581499E+03  0.7546771E-02  0.1198011E+00
          3   -1    0    0  501    0  0.00000000000E+00  0.00000000000E+00  0.40763578877E+03  0.40763578877E+03  0.00000000000E+00 0. -1.
         -3   -1    0    0    0  501 -0.00000000000E+00 -0.00000000000E+00 -0.61518740161E+02  0.61518740161E+02  0.00000000000E+00 0.  1.
          5    1    1    2  502    0 -0.75268313616E+01  0.69666600308E+02  0.27913975712E+03  0.28783881321E+03  0.47000000000E+01 0.  1.
         -5    1    1    2    0  502 -0.13005751868E+01  0.26828829814E+02 -0.58716610357E+01  0.27893440238E+02  0.47000000000E+01 0.  1.
        -11    1    1    2    0    0 -0.25466877417E+02 -0.29458154422E+02 -0.11255662920E+02  0.40534363880E+02  0.00000000000E+00 0.  1.
         11    1    1    2    0    0  0.34294283966E+02 -0.67037275699E+02  0.84104615454E+02  0.11288791161E+03  0.00000000000E+00 0. -1.
<mgrwt>
<rscale>  0 0.15202127E+03</rscale>
<asrwt>0</asrwt>
<pdfrwt beam="1">  1        3 0.62713196E-01 0.15814994E+03</pdfrwt>
<pdfrwt beam="2">  1       -3 0.94644218E-02 0.15814994E+03</pdfrwt>
<totfact> 0.48140515E+02</totfact>
</mgrwt>
</event>
<event>
 6    1  0.4705246E-006  0.1423380E+03  0.7546771E-02  0.1220948E+00
         -1   -1    0    0    0  501 -0.00000000000E+00  0.00000000000E+00  0.10997827399E+02  0.10997827399E+02  0.00000000000E+00 0.  1.
          1   -1    0    0  501    0  0.00000000000E+00 -0.00000000000E+00 -0.20340974455E+04  0.20340974455E+04  0.00000000000E+00 0. -1.
          5    1    1    2  502    0  0.53151547331E+01  0.10172007714E+03 -0.10264518022E+04  0.10315040558E+04  0.47000000000E+01 0.  1.
         -5    1    1    2    0  502 -0.14502332373E+02 -0.34261506640E+02 -0.59646745455E+03  0.59764511444E+03  0.47000000000E+01 0.  1.
        -11    1    1    2    0    0 -0.13849872108E+02 -0.78811517959E+02 -0.35564614865E+03  0.36453704526E+03  0.00000000000E+00 0.  1.
         11    1    1    2    0    0  0.23037049747E+02  0.11352947456E+02 -0.44534212669E+02  0.51409057325E+02  0.00000000000E+00 0. -1.
<mgrwt>
<rscale>  0 0.13448524E+03</rscale>
<asrwt>0</asrwt>
<pdfrwt beam="2">  1        1 0.31293798E+00 0.14233800E+03</pdfrwt>
<pdfrwt beam="1">  1       -1 0.16919739E-02 0.14233800E+03</pdfrwt>
<totfact> 0.28023703E+03</totfact>
</mgrwt>
</event>
<event>
 6    1  0.4705246E-006  0.1445543E+03  0.7546771E-02  0.1218083E+00
         -2   -1    0    0    0  501 -0.00000000000E+00  0.00000000000E+00  0.34261780510E+02  0.34261780510E+02  0.00000000000E+00 0.  1.
          2   -1    0    0  501    0  0.00000000000E+00 -0.00000000000E+00 -0.70149540647E+03  0.70149540647E+03  0.00000000000E+00 0. -1.
          5    1    1    2  502    0  0.81914119378E+02  0.56726123840E+02 -0.41202032687E+03  0.42392288901E+03  0.47000000000E+01 0.  1.
         -5    1    1    2    0  502 -0.43662646182E+02  0.49774116425E+01 -0.14850391270E+03  0.15494096742E+03  0.47000000000E+01 0.  1.
        -11    1    1    2    0    0  0.21773465515E+02 -0.28668145586E+02 -0.82358973378E+01  0.36929343033E+02  0.00000000000E+00 0. -1.
         11    1    1    2    0    0 -0.60024938711E+02 -0.33035389896E+02 -0.98473489057E+02  0.11996398751E+03  0.00000000000E+00 0.  1.
<mgrwt>
<rscale>  0 0.13652512E+03</rscale>
<asrwt>0</asrwt>
<pdfrwt beam="2">  1        2 0.10792237E+00 0.14455428E+03</pdfrwt>
<pdfrwt beam="1">  1       -2 0.52710434E-02 0.14455428E+03</pdfrwt>
<totfact> 0.73006148E+03</totfact>
</mgrwt>
</event>
<event>
 6    1  0.4705246E-006  0.1912067E+03  0.7546771E-02  0.1161745E+00
          2   -1    0    0  501    0  0.00000000000E+00  0.00000000000E+00  0.18559001585E+04  0.18559001585E+04  0.00000000000E+00 0. -1.
         -2   -1    0    0    0  501 -0.00000000000E+00 -0.00000000000E+00 -0.34383815755E+02  0.34383815755E+02  0.00000000000E+00 0.  1.
          5    1    1    2  502    0  0.43584125972E+02  0.10563949290E+03  0.15114189666E+04  0.15157403013E+04  0.47000000000E+01 0. -1.
         -5    1    1    2    0  502 -0.43334658092E+01  0.33623612905E+02  0.78526228697E+02  0.85660871254E+02  0.47000000000E+01 0. -1.
        -11    1    1    2    0    0  0.21704851781E+02 -0.70662268164E+01  0.12992356031E+02  0.26264680989E+02  0.00000000000E+00 0.  1.
         11    1    1    2    0    0 -0.60955511943E+02 -0.13219687899E+03  0.21857879145E+03  0.26261812070E+03  0.00000000000E+00 0. -1.
<mgrwt>
<rscale>  0 0.18640409E+03</rscale>
<asrwt>0</asrwt>
<pdfrwt beam="1">  1        2 0.28552302E+00 0.19120667E+03</pdfrwt>
<pdfrwt beam="2">  1       -2 0.52898193E-02 0.19120667E+03</pdfrwt>
<totfact> 0.15986211E+03</totfact>
</mgrwt>
</event>
<event>
 6    1  0.4705246E-006  0.2099652E+03  0.7546771E-02  0.1144757E+00
          2   -1    0    0  501    0  0.00000000000E+00  0.00000000000E+00  0.12197546189E+03  0.12197546189E+03  0.00000000000E+00 0. -1.
         -2   -1    0    0    0  501 -0.00000000000E+00 -0.00000000000E+00 -0.34013635619E+03  0.34013635619E+03  0.00000000000E+00 0.  1.
          5    1    1    2  502    0 -0.43450344548E+02  0.52081247486E+02 -0.33897287123E+02  0.75970420924E+02  0.47000000000E+01 0. -1.
         -5    1    1    2    0  502 -0.12751060278E+03 -0.61518904979E+02 -0.52306219690E+02  0.15100185466E+03  0.47000000000E+01 0.  1.
        -11    1    1    2    0    0  0.12766759605E+03 -0.13988460671E+01 -0.14034354993E+03  0.18972950182E+03  0.00000000000E+00 0.  1.
         11    1    1    2    0    0  0.43293351274E+02  0.10836503560E+02  0.83861624459E+01  0.45410040679E+02  0.00000000000E+00 0. -1.
<mgrwt>
<rscale>  0 0.20601963E+03</rscale>
<asrwt>0</asrwt>
<pdfrwt beam="1">  1        2 0.18765456E-01 0.20996516E+03</pdfrwt>
<pdfrwt beam="2">  1       -2 0.52328670E-01 0.20996516E+03</pdfrwt>
<totfact> 0.10413481E+03</totfact>
</mgrwt>
</event>
<event>
 6    1  0.4705246E-006  0.1450914E+03  0.7546771E-02  0.1215838E+00
         -1   -1    0    0    0  501 -0.00000000000E+00  0.00000000000E+00  0.87140080138E+02  0.87140080138E+02  0.00000000000E+00 0.  1.
          1   -1    0    0  501    0  0.00000000000E+00 -0.00000000000E+00 -0.26238512183E+03  0.26238512183E+03  0.00000000000E+00 0. -1.
          5    1    1    2  502    0  0.22103581610E+02  0.14640675596E+02  0.27689955860E+01  0.27067970712E+02  0.47000000000E+01 0.  1.
         -5    1    1    2    0  502 -0.90064750138E+02  0.13787468241E+02 -0.18150575069E+03  0.20314571379E+03  0.47000000000E+01 0.  1.
        -11    1    1    2    0    0  0.44019544456E+01  0.25442601461E+02  0.22047199247E+02  0.33952645945E+02  0.00000000000E+00 0.  1.
         11    1    1    2    0    0  0.63559214082E+02 -0.53870745298E+02 -0.18555485844E+02  0.85358871528E+02  0.00000000000E+00 0. -1.
<mgrwt>
<rscale>  0 0.13815141E+03</rscale>
<asrwt>0</asrwt>
<pdfrwt beam="2">  1        1 0.40366942E-01 0.14509140E+03</pdfrwt>
<pdfrwt beam="1">  1       -1 0.13406166E-01 0.14509140E+03</pdfrwt>
<totfact> 0.38596789E+03</totfact>
</mgrwt>
</event>
<event>
 6    1  0.4705246E-006  0.1635530E+03  0.7546771E-02  0.1191828E+00
          1   -1    0    0  501    0  0.00000000000E+00  0.00000000000E+00  0.10074081106E+03  0.10074081106E+03  0.00000000000E+00 0. -1.
         -1   -1    0    0    0  501 -0.00000000000E+00 -0.00000000000E+00 -0.29348833059E+03  0.29348833059E+03  0.00000000000E+00 0.  1.
          5    1    1    2  502    0  0.38158124081E+02  0.43473121016E+02 -0.43657213797E+02  0.72622289972E+02  0.47000000000E+01 0.  1.
         -5    1    1    2    0  502 -0.59706572379E+02  0.59777229831E+02  0.34050820165E+02  0.91212610671E+02  0.47000000000E+01 0.  1.
        -11    1    1    2    0    0 -0.16826688345E+02 -0.90637554478E+02 -0.15766225547E+03  0.18263540326E+03  0.00000000000E+00 0.  1.
         11    1    1    2    0    0  0.38375136643E+02 -0.12612796369E+02 -0.25478870432E+02  0.47758837749E+02  0.00000000000E+00 0. -1.
<mgrwt>
<rscale>  0 0.15725766E+03</rscale>
<asrwt>0</asrwt>
<pdfrwt beam="1">  1        1 0.15498586E-01 0.16355302E+03</pdfrwt>
<pdfrwt beam="2">  1       -1 0.45152051E-01 0.16355302E+03</pdfrwt>
<totfact> 0.17393722E+03</totfact>
</mgrwt>
</event>
<event>
 6    1  0.4705246E-006  0.1431838E+03  0.7546771E-02  0.1228193E+00
         -1   -1    0    0    0  501 -0.00000000000E+00  0.00000000000E+00  0.13610705651E+03  0.13610705651E+03  0.00000000000E+00 0.  1.
          1   -1    0    0  501    0  0.00000000000E+00 -0.00000000000E+00 -0.11273686655E+03  0.11273686655E+03  0.00000000000E+00 0. -1.
          5    1    1    2  502    0 -0.21217131887E+02  0.46732335335E+02 -0.51533895938E+02  0.72882853141E+02  0.47000000000E+01 0. -1.
         -5    1    1    2    0  502  0.62417801543E+02  0.92661004132E+01  0.33221136304E+02  0.71467310455E+02  0.47000000000E+01 0.  1.
        -11    1    1    2    0    0 -0.36901654531E+02 -0.58417569836E+00  0.35227757212E+01  0.37074024831E+02  0.00000000000E+00 0. -1.
         11    1    1    2    0    0 -0.42990151249E+01 -0.55414260049E+02  0.38160173879E+02  0.67419734636E+02  0.00000000000E+00 0.  1.
<mgrwt>
<rscale>  0 0.12950442E+03</rscale>
<asrwt>0</asrwt>
<pdfrwt beam="2">  1        1 0.17344133E-01 0.14318384E+03</pdfrwt>
<pdfrwt beam="1">  1       -1 0.20939547E-01 0.14318384E+03</pdfrwt>
<totfact> 0.54990034E+03</totfact>
</mgrwt>
</event>
<event>
 6    1  0.4705246E-006  0.1303822E+03  0.7546771E-02  0.1239534E+00
          2   -1    0    0  501    0  0.00000000000E+00  0.00000000000E+00  0.39201504982E+03  0.39201504982E+03  0.00000000000E+00 0. -1.
         -2   -1    0    0    0  501 -0.00000000000E+00 -0.00000000000E+00 -0.34027593693E+02  0.34027593693E+02  0.00000000000E+00 0.  1.
          5    1    1    2  502    0  0.60832624695E+02 -0.39006409077E+02  0.65825745554E+02  0.97863307497E+02  0.47000000000E+01 0.  1.
         -5    1    1    2    0  502 -0.39132043887E+02  0.89296781855E+01  0.14058279786E+03  0.14627600304E+03  0.47000000000E+01 0.  1.
        -11    1    1    2    0    0 -0.31409276571E+02 -0.14185798350E+02  0.12434877389E+03  0.12903641772E+03  0.00000000000E+00 0. -1.
         11    1    1    2    0    0  0.97086957626E+01  0.44262529242E+02  0.27230138814E+02  0.52866915250E+02  0.00000000000E+00 0.  1.
<mgrwt>
<rscale>  0 0.12218612E+03</rscale>
<asrwt>0</asrwt>
<pdfrwt beam="1">  1        2 0.60310005E-01 0.13038219E+03</pdfrwt>
<pdfrwt beam="2">  1       -2 0.52350147E-02 0.13038219E+03</pdfrwt>
<totfact> 0.14008418E+04</totfact>
</mgrwt>
</event>
<event>
 6    1  0.4705246E-006  0.2408619E+03  0.7546771E-02  0.1119220E+00
         -1   -1    0    0    0  501 -0.00000000000E+00  0.00000000000E+00  0.32648369895E+02  0.32648369895E+02  0.00000000000E+00 0.  1.
          1   -1    0    0  501    0  0.00000000000E+00 -0.00000000000E+00 -0.44423714854E+03  0.44423714854E+03  0.00000000000E+00 0. -1.
          5    1    1    2  502    0 -0.16142664698E+01  0.11302392418E+01  0.13432804921E+02  0.14367099395E+02  0.47000000000E+01 0. -1.
         -5    1    1    2    0  502  0.46939299413E+02  0.24963925896E+02 -0.27589759191E+03  0.28101257382E+03  0.47000000000E+01 0. -1.
        -11    1    1    2    0    0  0.28917040990E+01 -0.13788145715E+02  0.83360798987E+01  0.16369640892E+02  0.00000000000E+00 0.  1.
         11    1    1    2    0    0 -0.48216737042E+02 -0.12306019423E+02 -0.15746007156E+03  0.16513620433E+03  0.00000000000E+00 0. -1.
<mgrwt>
<rscale>  0 0.24086194E+03</rscale>
<asrwt>0</asrwt>
<pdfrwt beam="2">  1        1 0.68344173E-01 0.24086194E+03</pdfrwt>
<pdfrwt beam="1">  1       -1 0.50228264E-02 0.24086194E+03</pdfrwt>
<totfact> 0.91158399E+03</totfact>
</mgrwt>
</event>
<event>
 6    1  0.4705246E-006  0.1251321E+03  0.7546771E-02  0.1250233E+00
         -1   -1    0    0    0  501 -0.00000000000E+00  0.00000000000E+00  0.41042615190E+02  0.41042615190E+02  0.00000000000E+00 0.  1.
          1   -1    0    0  501    0  0.00000000000E+00 -0.00000000000E+00 -0.33234713439E+03  0.33234713439E+03  0.00000000000E+00 0. -1.
          5    1    1    2  502    0 -0.49815680402E+02 -0.40374145501E+02 -0.15816372807E+03  0.17073233002E+03  0.47000000000E+01 0. -1.
         -5    1    1    2    0  502  0.23254716454E+02  0.51336400030E+02 -0.75555376711E+02  0.94376441739E+02  0.47000000000E+01 0.  1.
        -11    1    1    2    0    0  0.53362270348E+02  0.13162168584E+02 -0.41112843758E+02  0.68637019898E+02  0.00000000000E+00 0.  1.
         11    1    1    2    0    0 -0.26801306400E+02 -0.24124423113E+02 -0.16472570664E+02  0.39643957921E+02  0.00000000000E+00 0. -1.
<mgrwt>
<rscale>  0 0.11577574E+03</rscale>
<asrwt>0</asrwt>
<pdfrwt beam="2">  1        1 0.51130326E-01 0.12513209E+03</pdfrwt>
<pdfrwt beam="1">  1       -1 0.63142488E-02 0.12513209E+03</pdfrwt>
<totfact> 0.89672533E+03</totfact>
</mgrwt>
</event>
<event>
 6    1  0.4705246E-006  0.2284986E+03  0.7546771E-02  0.1130727E+00
         -1   -1    0    0    0  501 -0.00000000000E+00  0.00000000000E+00  0.41778822554E+02  0.41778822554E+02  0.00000000000E+00 0.  1.
          1   -1    0    0  501    0  0.00000000000E+00 -0.00000000000E+00 -0.12683646970E+04  0.12683646970E+04  0.00000000000E+00 0. -1.
          5    1    1    2  502    0 -0.17101275089E+02  0.17282310809E+02 -0.27221610301E+02  0.36799972065E+02  0.47000000000E+01 0.  1.
         -5    1    1    2    0  502  0.11290328717E+03  0.14826140298E+03 -0.79680421294E+03  0.81832001053E+03  0.47000000000E+01 0.  1.
        -11    1    1    2    0    0 -0.78299791025E+02 -0.13539503768E+03 -0.22467328241E+03  0.27375309556E+03  0.00000000000E+00 0.  1.
         11    1    1    2    0    0 -0.17502221059E+02 -0.30148676111E+02 -0.17788676879E+03  0.18127044139E+03  0.00000000000E+00 0. -1.
<mgrwt>
<rscale>  0 0.22428716E+03</rscale>
<asrwt>0</asrwt>
<pdfrwt beam="2">  1        1 0.19513304E+00 0.22849864E+03</pdfrwt>
<pdfrwt beam="1">  1       -1 0.64275108E-02 0.22849864E+03</pdfrwt>
<totfact> 0.12374003E+03</totfact>
</mgrwt>
</event>
<event>
 6    1  0.4705246E-006  0.1932709E+03  0.7546771E-02  0.1168383E+00
          2   -1    0    0  501    0  0.00000000000E+00  0.00000000000E+00  0.12898131095E+03  0.12898131095E+03  0.00000000000E+00 0. -1.
         -2   -1    0    0    0  501 -0.00000000000E+00 -0.00000000000E+00 -0.23210091259E+03  0.23210091259E+03  0.00000000000E+00 0.  1.
          5    1    1    2  502    0 -0.88199068157E+02  0.62967291225E+02 -0.11314591128E+02  0.10905991638E+03  0.47000000000E+01 0. -1.
         -5    1    1    2    0  502  0.83097199430E+02 -0.16132393952E+02 -0.63477094341E+01  0.85016363735E+02  0.47000000000E+01 0.  1.
        -11    1    1    2    0    0  0.50481249897E+01  0.20966378263E+02 -0.95997730396E+02  0.98390227282E+02  0.00000000000E+00 0.  1.
         11    1    1    2    0    0  0.53743736945E-01 -0.67801275536E+02  0.10540429317E+02  0.68615716151E+02  0.00000000000E+00 0. -1.
<mgrwt>
<rscale>  0 0.17940177E+03</rscale>
<asrwt>0</asrwt>
<pdfrwt beam="1">  1        2 0.19843279E-01 0.19327091E+03</pdfrwt>
<pdfrwt beam="2">  1       -2 0.35707832E-01 0.19327091E+03</pdfrwt>
<totfact> 0.20421843E+03</totfact>
</mgrwt>
</event>
<event>
 6    1  0.4705246E-006  0.3525166E+03  0.7546771E-02  0.1061587E+00
         -2   -1    0    0    0  501 -0.00000000000E+00  0.00000000000E+00  0.17380677791E+03  0.17380677791E+03  0.00000000000E+00 0.  1.
          2   -1    0    0  501    0  0.00000000000E+00 -0.00000000000E+00 -0.17874441871E+03  0.17874441871E+03  0.00000000000E+00 0. -1.
          5    1    1    2  502    0  0.27983439637E+02  0.31893369403E+01 -0.71183463607E+02  0.76696937717E+02  0.47000000000E+01 0.  1.
         -5    1    1    2    0  502  0.67889859621E+02  0.85245491383E+02  0.20393354665E+02  0.11096758876E+03  0.47000000000E+01 0.  1.
        -11    1    1    2    0    0 -0.63697380884E+02 -0.50174698041E+02 -0.18725921244E+02  0.83219689866E+02  0.00000000000E+00 0. -1.
         11    1    1    2    0    0 -0.32175918375E+02 -0.38260130282E+02  0.64578389389E+02  0.81666980283E+02  0.00000000000E+00 0.  1.
<mgrwt>
<rscale>  0 0.35251662E+03</rscale>
<asrwt>0</asrwt>
<pdfrwt beam="2">  1        2 0.27499141E-01 0.35251662E+03</pdfrwt>
<pdfrwt beam="1">  1       -2 0.26739504E-01 0.35251662E+03</pdfrwt>
<totfact> 0.24461677E+03</totfact>
</mgrwt>
</event>
<event>
 6    1  0.4705246E-006  0.2717552E+03  0.7546771E-02  0.1100279E+00
         -1   -1    0    0    0  501 -0.00000000000E+00  0.00000000000E+00  0.45804706587E+02  0.45804706587E+02  0.00000000000E+00 0.  1.
          1   -1    0    0  501    0  0.00000000000E+00 -0.00000000000E+00 -0.40307481340E+03  0.40307481340E+03  0.00000000000E+00 0. -1.
          5    1    1    2  502    0  0.98892453713E+01  0.22592593443E+02 -0.12862340813E+03  0.13105072900E+03  0.47000000000E+01 0.  1.
         -5    1    1    2    0  502  0.43524944643E+01 -0.99806869462E+02 -0.10257496381E+03  0.14326223718E+03  0.47000000000E+01 0.  1.
        -11    1    1    2    0    0 -0.24386157793E+02  0.45291259653E+02 -0.82755906750E+01  0.52100559440E+02  0.00000000000E+00 0.  1.
         11    1    1    2    0    0  0.10144417958E+02  0.31923016366E+02 -0.11779614419E+03  0.12246599437E+03  0.00000000000E+00 0. -1.
<mgrwt>
<rscale>  0 0.27175521E+03</rscale>
<asrwt>0</asrwt>
<pdfrwt beam="2">  1        1 0.62011509E-01 0.27175521E+03</pdfrwt>
<pdfrwt beam="1">  1       -1 0.70468781E-02 0.27175521E+03</pdfrwt>
<totfact> 0.62343595E+03</totfact>
</mgrwt>
</event>
<event>
 6    1  0.4705246E-006  0.1778624E+03  0.7546771E-02  0.1175416E+00
          1   -1    0    0  501    0  0.00000000000E+00  0.00000000000E+00  0.48383766554E+03  0.48383766554E+03  0.00000000000E+00 0. -1.
         -1   -1    0    0    0  501 -0.00000000000E+00 -0.00000000000E+00 -0.82350548703E+02  0.82350548703E+02  0.00000000000E+00 0.  1.
          5    1    1    2  502    0 -0.11419863380E+02  0.47258990699E+02  0.14532443923E+03  0.15331375711E+03  0.47000000000E+01 0.  1.
         -5    1    1    2    0  502  0.12440516901E+03  0.94784291919E+01  0.21839331703E+03  0.25156354589E+03  0.47000000000E+01 0.  1.
        -11    1    1    2    0    0 -0.12817462832E+03 -0.52524000259E+02  0.42433034764E+02  0.14487259364E+03  0.00000000000E+00 0. -1.
         11    1    1    2    0    0  0.15189322693E+02 -0.42134196321E+01 -0.46636741876E+01  0.16438317608E+02  0.00000000000E+00 0.  1.
<mgrwt>
<rscale>  0 0.17235275E+03</rscale>
<asrwt>0</asrwt>
<pdfrwt beam="1">  1        1 0.74436562E-01 0.17786237E+03</pdfrwt>
<pdfrwt beam="2">  1       -1 0.12669315E-01 0.17786237E+03</pdfrwt>
<totfact> 0.19631475E+03</totfact>
</mgrwt>
</event>
<event>
 6    1  0.4705246E-006  0.4330167E+03  0.7546771E-02  0.1032911E+00
          1   -1    0    0  501    0  0.00000000000E+00  0.00000000000E+00  0.90518041429E+03  0.90518041429E+03  0.00000000000E+00 0. -1.
         -1   -1    0    0    0  501 -0.00000000000E+00 -0.00000000000E+00 -0.51786202105E+02  0.51786202105E+02  0.00000000000E+00 0.  1.
          5    1    1    2  502    0  0.69479658174E+02  0.19455931732E+02  0.55295107570E+03  0.55765844233E+03  0.47000000000E+01 0. -1.
         -5    1    1    2    0  502 -0.31600486802E+02 -0.32917129030E+02  0.29548380196E+03  0.29902323551E+03  0.47000000000E+01 0.  1.
        -11    1    1    2    0    0 -0.24879148355E+02 -0.13569172104E+02  0.43211723515E+02  0.51675405210E+02  0.00000000000E+00 0. -1.
         11    1    1    2    0    0 -0.13000023016E+02  0.27030369402E+02 -0.38252388997E+02  0.48609533349E+02  0.00000000000E+00 0.  1.
<mgrwt>
<rscale>  0 0.43301665E+03</rscale>
<asrwt>0</asrwt>
<pdfrwt beam="1">  1        1 0.13925851E+00 0.43301665E+03</pdfrwt>
<pdfrwt beam="2">  1       -1 0.79671087E-02 0.43301665E+03</pdfrwt>
<totfact> 0.16399027E+03</totfact>
</mgrwt>
</event>
<event>
 6    1  0.4705246E-006  0.2218703E+03  0.7546771E-02  0.1132496E+00
          2   -1    0    0  501    0  0.00000000000E+00  0.00000000000E+00  0.30341526110E+03  0.30341526110E+03  0.00000000000E+00 0. -1.
         -2   -1    0    0    0  501 -0.00000000000E+00 -0.00000000000E+00 -0.40560288622E+02  0.40560288622E+02  0.00000000000E+00 0.  1.
          5    1    1    2  502    0 -0.20695473581E+01  0.94857507643E+00  0.15352757869E+03  0.15361637360E+03  0.47000000000E+01 0.  1.
         -5    1    1    2    0  502 -0.11339174696E+02 -0.20222609780E+02 -0.19864028519E+02  0.30890135288E+02  0.47000000000E+01 0.  1.
        -11    1    1    2    0    0 -0.37765901306E+02  0.18776704899E+02  0.54129589774E+02  0.68620991230E+02  0.00000000000E+00 0. -1.
         11    1    1    2    0    0  0.51174623360E+02  0.49732980474E+00  0.75061832536E+02  0.90848049603E+02  0.00000000000E+00 0.  1.
<mgrwt>
<rscale>  0 0.22187033E+03</rscale>
<asrwt>0</asrwt>
<pdfrwt beam="1">  1        2 0.46679269E-01 0.22187033E+03</pdfrwt>
<pdfrwt beam="2">  1       -2 0.62400446E-02 0.22187033E+03</pdfrwt>
<totfact> 0.14692836E+04</totfact>
</mgrwt>
</event>
<event>
 6    1  0.4705246E-006  0.4446033E+03  0.7546771E-02  0.1029344E+00
          2   -1    0    0  501    0  0.00000000000E+00  0.00000000000E+00  0.84660440868E+03  0.84660440868E+03  0.00000000000E+00 0. -1.
         -2   -1    0    0    0  501 -0.00000000000E+00 -0.00000000000E+00 -0.58372045198E+02  0.58372045198E+02  0.00000000000E+00 0.  1.
          5    1    1    2  502    0 -0.70885823648E+02 -0.86449802977E+02  0.28432999801E+03  0.30555524247E+03  0.47000000000E+01 0. -1.
         -5    1    1    2    0  502 -0.58992222158E+01 -0.10637684554E+02  0.42722358592E+03  0.42742255851E+03  0.47000000000E+01 0. -1.
        -11    1    1    2    0    0  0.57807788658E+02  0.37889265217E+02  0.84694557361E+02  0.10931836486E+03  0.00000000000E+00 0. -1.
         11    1    1    2    0    0  0.18977257206E+02  0.59198222313E+02 -0.80157778097E+01  0.62680288050E+02  0.00000000000E+00 0.  1.
<mgrwt>
<rscale>  0 0.44460333E+03</rscale>
<asrwt>0</asrwt>
<pdfrwt beam="1">  1        2 0.13024682E+00 0.44460333E+03</pdfrwt>
<pdfrwt beam="2">  1       -2 0.89803152E-02 0.44460333E+03</pdfrwt>
<totfact> 0.26064204E+03</totfact>
</mgrwt>
</event>
<event>
 6    1  0.4705246E-006  0.2220816E+03  0.7546771E-02  0.1153660E+00
          2   -1    0    0  501    0  0.00000000000E+00  0.00000000000E+00  0.24169344523E+04  0.24169344523E+04  0.00000000000E+00 0. -1.
         -2   -1    0    0    0  501 -0.00000000000E+00 -0.00000000000E+00 -0.22513346651E+02  0.22513346651E+02  0.00000000000E+00 0.  1.
          5    1    1    2  502    0  0.10766378303E+03 -0.27381964182E+02  0.11388136575E+04  0.11442289538E+04  0.47000000000E+01 0. -1.
         -5    1    1    2    0  502 -0.43234128186E+02  0.10160841592E+03  0.10083358411E+04  0.10143750384E+04  0.47000000000E+01 0.  1.
        -11    1    1    2    0    0 -0.82851868393E+02 -0.78574760540E+02  0.20966279444E+03  0.23874026150E+03  0.00000000000E+00 0.  1.
         11    1    1    2    0    0  0.18422213547E+02  0.43483087987E+01  0.37608812611E+02  0.42103545306E+02  0.00000000000E+00 0. -1.
<mgrwt>
<rscale>  0 0.19542178E+03</rscale>
<asrwt>0</asrwt>
<pdfrwt beam="1">  1        2 0.37183586E+00 0.22208157E+03</pdfrwt>
<pdfrwt beam="2">  1       -2 0.34635937E-02 0.22208157E+03</pdfrwt>
<totfact> 0.15286458E+03</totfact>
</mgrwt>
</event>
<event>
 6    1  0.4705246E-006  0.1392002E+03  0.7546771E-02  0.1226756E+00
         -1   -1    0    0    0  501 -0.00000000000E+00  0.00000000000E+00  0.93755198553E+01  0.93755198553E+01  0.00000000000E+00 0.  1.
          1   -1    0    0  501    0  0.00000000000E+00 -0.00000000000E+00 -0.17977049921E+04  0.17977049921E+04  0.00000000000E+00 0. -1.
          5    1    1    2  502    0  0.45041429088E+02  0.47768428748E+00 -0.13600448250E+03  0.14334666991E+03  0.47000000000E+01 0.  1.
         -5    1    1    2    0  502  0.13527436140E+02  0.16862089382E+02 -0.11423595468E+04  0.11425737375E+04  0.47000000000E+01 0.  1.
        -11    1    1    2    0    0 -0.37274467391E+02 -0.52423416286E+02 -0.35892049715E+03  0.36463889503E+03  0.00000000000E+00 0. -1.
         11    1    1    2    0    0 -0.21294397837E+02  0.35083642616E+02 -0.15104494585E+03  0.15652120951E+03  0.00000000000E+00 0.  1.
<mgrwt>
<rscale>  0 0.13047289E+03</rscale>
<asrwt>0</asrwt>
<pdfrwt beam="2">  1        1 0.27656979E+00 0.13920023E+03</pdfrwt>
<pdfrwt beam="1">  1       -1 0.14423887E-02 0.13920023E+03</pdfrwt>
<totfact> 0.49818955E+03</totfact>
</mgrwt>
</event>
<event>
 6    1  0.4705246E-006  0.1254393E+03  0.7546771E-02  0.1243580E+00
          1   -1    0    0  501    0  0.00000000000E+00  0.00000000000E+00  0.26149892914E+03  0.26149892914E+03  0.00000000000E+00 0. -1.
         -1   -1    0    0    0  501 -0.00000000000E+00 -0.00000000000E+00 -0.71973211071E+02  0.71973211071E+02  0.00000000000E+00 0.  1.
          5    1    1    2  502    0  0.21987011889E+02 -0.35650172404E+02  0.49195302387E+02  0.64781411386E+02  0.47000000000E+01 0. -1.
         -5    1    1    2    0  502 -0.74586387612E+02  0.33196203498E+02  0.14287553695E+03  0.16462267827E+03  0.47000000000E+01 0.  1.
        -11    1    1    2    0    0  0.58794109796E+02  0.14766748286E+02 -0.34157739782E+02  0.69581286196E+02  0.00000000000E+00 0.  1.
         11    1    1    2    0    0 -0.61947340727E+01 -0.12312779379E+02  0.31612618520E+02  0.34486764359E+02  0.00000000000E+00 0. -1.
<mgrwt>
<rscale>  0 0.11970773E+03</rscale>
<asrwt>0</asrwt>
<pdfrwt beam="1">  1        1 0.40230604E-01 0.12543934E+03</pdfrwt>
<pdfrwt beam="2">  1       -1 0.11072802E-01 0.12543934E+03</pdfrwt>
<totfact> 0.51652595E+03</totfact>
</mgrwt>
</event>
<event>
 6    1  0.4705246E-006  0.2630057E+03  0.7546771E-02  0.1149151E+00
         -1   -1    0    0    0  501 -0.00000000000E+00  0.00000000000E+00  0.60912108077E+03  0.60912108077E+03  0.00000000000E+00 0.  1.
          1   -1    0    0  501    0  0.00000000000E+00 -0.00000000000E+00 -0.87449709671E+02  0.87449709671E+02  0.00000000000E+00 0. -1.
          5    1    1    2  502    0  0.94717398149E+02 -0.61793264504E+02  0.20610848699E+02  0.11505081544E+03  0.47000000000E+01 0. -1.
         -5    1    1    2    0  502 -0.12799783223E+03  0.59973120353E+02  0.10660104746E+03  0.17710475301E+03  0.47000000000E+01 0.  1.
        -11    1    1    2    0    0  0.27508407039E+02  0.41056095011E+02  0.22848620453E+03  0.23376967522E+03  0.00000000000E+00 0.  1.
         11    1    1    2    0    0  0.57720270457E+01 -0.39235950860E+02  0.16597327042E+03  0.17064554676E+03  0.00000000000E+00 0. -1.
<mgrwt>
<rscale>  0 0.20069796E+03</rscale>
<asrwt>0</asrwt>
<pdfrwt beam="2">  1        1 0.13453802E-01 0.26300572E+03</pdfrwt>
<pdfrwt beam="1">  1       -1 0.93710933E-01 0.26300572E+03</pdfrwt>
<totfact> 0.50180389E+02</totfact>
</mgrwt>
</event>
<event>
 6    1  0.5169042E-006  0.1962712E+03  0.7546771E-02  0.1157620E+00
          1   -1    0    0  501    0  0.00000000000E+00  0.00000000000E+00  0.12637913270E+03  0.12637913270E+03  0.00000000000E+00 0.  1.
         -1   -1    0    0    0  501 -0.00000000000E+00 -0.00000000000E+00 -0.33235547917E+03  0.33235547917E+03  0.00000000000E+00 0. -1.
          5    1    1    2  502    0  0.64736945632E+02  0.91270133634E+02 -0.64417048717E+02  0.12920044732E+03  0.47000000000E+01 0. -1.
         -5    1    1    2    0  502  0.99786267895E+01  0.40316243312E+02  0.52886120004E+02  0.67409229016E+02  0.47000000000E+01 0. -1.
        -11    1    1    2    0    0 -0.10857692379E+02 -0.32660431122E+02 -0.11510931506E+03  0.12014469467E+03  0.00000000000E+00 0. -1.
         11    1    1    2    0    0 -0.63857880042E+02 -0.98925945824E+02 -0.79336102700E+02  0.14198024085E+03  0.00000000000E+00 0.  1.
<mgrwt>
<rscale>  0 0.19093614E+03</rscale>
<asrwt>0</asrwt>
<pdfrwt beam="1">  1        1 0.19442944E-01 0.19627125E+03</pdfrwt>
<pdfrwt beam="2">  1       -1 0.51131612E-01 0.19627125E+03</pdfrwt>
<totfact> 0.10389315E+03</totfact>
</mgrwt>
</event>
<event>
 6    1  0.4705246E-006  0.1617598E+03  0.7546771E-02  0.1194396E+00
          4   -1    0    0  501    0  0.00000000000E+00  0.00000000000E+00  0.76821765435E+03  0.76821765435E+03  0.00000000000E+00 0. -1.
         -4   -1    0    0    0  501 -0.00000000000E+00 -0.00000000000E+00 -0.37553094027E+02  0.37553094027E+02  0.00000000000E+00 0.  1.
          5    1    1    2  502    0  0.50011357420E+02  0.32042075391E+01  0.15081660317E+03  0.15899415275E+03  0.47000000000E+01 0. -1.
         -5    1    1    2    0  502 -0.34488729309E+02 -0.10467800937E+03  0.43049165412E+03  0.44440084649E+03  0.47000000000E+01 0. -1.
        -11    1    1    2    0    0 -0.34917745295E+01  0.36511711203E+02  0.12768014060E+03  0.13284395300E+03  0.00000000000E+00 0. -1.
         11    1    1    2    0    0 -0.12030853581E+02  0.64962090625E+02  0.21676162428E+02  0.69531796136E+02  0.00000000000E+00 0.  1.
<mgrwt>
<rscale>  0 0.15505431E+03</rscale>
<asrwt>0</asrwt>
<pdfrwt beam="1">  1        4 0.11818732E+00 0.16175981E+03</pdfrwt>
<pdfrwt beam="2">  1       -4 0.57773997E-02 0.16175981E+03</pdfrwt>
<totfact> 0.18728851E+02</totfact>
</mgrwt>
</event>
<event>
 6    1  0.4705246E-006  0.1383887E+03  0.7546771E-02  0.1226638E+00
          1   -1    0    0  501    0  0.00000000000E+00  0.00000000000E+00  0.10982673073E+03  0.10982673073E+03  0.00000000000E+00 0. -1.
         -1   -1    0    0    0  501 -0.00000000000E+00 -0.00000000000E+00 -0.15073500098E+03  0.15073500098E+03  0.00000000000E+00 0.  1.
          5    1    1    2  502    0  0.20117118889E+02 -0.30887766997E+02  0.59270336095E+02  0.69955810075E+02  0.47000000000E+01 0.  1.
         -5    1    1    2    0  502 -0.43987460869E+02 -0.23488590569E+02 -0.47375658497E+02  0.68943118719E+02  0.47000000000E+01 0.  1.
        -11    1    1    2    0    0  0.32231586874E+02 -0.84636342855E+01  0.75119275162E+01  0.34160464762E+02  0.00000000000E+00 0. -1.
         11    1    1    2    0    0 -0.83612448946E+01  0.62839991851E+02 -0.60314875361E+02  0.87502338150E+02  0.00000000000E+00 0.  1.
<mgrwt>
<rscale>  0 0.13055244E+03</rscale>
<asrwt>0</asrwt>
<pdfrwt beam="1">  1        1 0.16896420E-01 0.13838869E+03</pdfrwt>
<pdfrwt beam="2">  1       -1 0.23190000E-01 0.13838869E+03</pdfrwt>
<totfact> 0.48087490E+03</totfact>
</mgrwt>
</event>
<event>
 6    1  0.4705246E-006  0.1524879E+03  0.7546771E-02  0.1209092E+00
         -3   -1    0    0    0  501 -0.00000000000E+00  0.00000000000E+00  0.17539713279E+02  0.17539713279E+02  0.00000000000E+00 0.  1.
          3   -1    0    0  501    0  0.00000000000E+00 -0.00000000000E+00 -0.10887555302E+04  0.10887555302E+04  0.00000000000E+00 0. -1.
          5    1    1    2  502    0 -0.34330599004E+02  0.25212304738E+02 -0.12172836900E+03  0.12905090530E+03  0.47000000000E+01 0. -1.
         -5    1    1    2    0  502 -0.66720722935E+01 -0.10232732613E+03 -0.58541113190E+03  0.59434306723E+03  0.47000000000E+01 0. -1.
        -11    1    1    2    0    0  0.69356999057E+01  0.83307864537E+02 -0.24338653899E+03  0.25734279005E+03  0.00000000000E+00 0.  1.
         11    1    1    2    0    0  0.34066971392E+02 -0.61928431484E+01 -0.12068977703E+03  0.12555848089E+03  0.00000000000E+00 0. -1.
<mgrwt>
<rscale>  0 0.14319629E+03</rscale>
<asrwt>0</asrwt>
<pdfrwt beam="2">  1        3 0.16750091E+00 0.15248792E+03</pdfrwt>
<pdfrwt beam="1">  1       -3 0.26984165E-02 0.15248792E+03</pdfrwt>
<totfact> 0.36907196E+02</totfact>
</mgrwt>
</event>
<event>
 6    1  0.4705246E-006  0.1405605E+03  0.7546771E-02  0.1218617E+00
         -2   -1    0    0    0  501 -0.00000000000E+00  0.00000000000E+00  0.53770279238E+02  0.53770279238E+02  0.00000000000E+00 0.  1.
          2   -1    0    0  501    0  0.00000000000E+00 -0.00000000000E+00 -0.36665529635E+03  0.36665529635E+03  0.00000000000E+00 0. -1.
          5    1    1    2  502    0  0.24378681935E+01  0.53843629407E+02 -0.20204376444E+03  0.20916226327E+03  0.47000000000E+01 0. -1.
         -5    1    1    2    0  502 -0.54801625283E+02  0.11282688963E+02 -0.34226662953E+02  0.65757673778E+02  0.47000000000E+01 0.  1.
        -11    1    1    2    0    0  0.20086037631E+01 -0.52530170621E+02  0.47367038699E+00  0.52570692198E+02  0.00000000000E+00 0.  1.
         11    1    1    2    0    0  0.50355153326E+02 -0.12596147749E+02 -0.77088260105E+02  0.92934946337E+02  0.00000000000E+00 0. -1.
<mgrwt>
<rscale>  0 0.13614176E+03</rscale>
<asrwt>0</asrwt>
<pdfrwt beam="2">  1        2 0.56408506E-01 0.14056051E+03</pdfrwt>
<pdfrwt beam="1">  1       -2 0.82723509E-02 0.14056051E+03</pdfrwt>
<totfact> 0.75272508E+03</totfact>
</mgrwt>
</event>
<event>
 6    1  0.4705246E-006  0.1399251E+03  0.7546771E-02  0.1224668E+00
         -1   -1    0    0    0  501 -0.00000000000E+00  0.00000000000E+00  0.17228280090E+02  0.17228280090E+02  0.00000000000E+00 0.  1.
          1   -1    0    0  501    0  0.00000000000E+00 -0.00000000000E+00 -0.10228844415E+04  0.10228844415E+04  0.00000000000E+00 0. -1.
          5    1    1    2  502    0 -0.36371017539E+02  0.40286668474E+02 -0.10906646304E+03  0.12191574933E+03  0.47000000000E+01 0.  1.
         -5    1    1    2    0  502  0.15063247531E+02  0.18866690559E+02 -0.61820077709E+03  0.61868986110E+03  0.47000000000E+01 0.  1.
        -11    1    1    2    0    0  0.56020112955E+02 -0.48162115116E+02 -0.17819266768E+03  0.19290015346E+03  0.00000000000E+00 0.  1.
         11    1    1    2    0    0 -0.34712342948E+02 -0.10991243916E+02 -0.10019625358E+03  0.10660695769E+03  0.00000000000E+00 0. -1.
<mgrwt>
<rscale>  0 0.13189703E+03</rscale>
<asrwt>0</asrwt>
<pdfrwt beam="2">  1        1 0.15736689E+00 0.13992509E+03</pdfrwt>
<pdfrwt beam="1">  1       -1 0.26505037E-02 0.13992509E+03</pdfrwt>
<totfact> 0.67749112E+03</totfact>
</mgrwt>
</event>
<event>
 6    1  0.4705246E-006  0.1258583E+03  0.7546771E-02  0.1253996E+00
         -2   -1    0    0    0  501 -0.00000000000E+00  0.00000000000E+00  0.13848682416E+03  0.13848682416E+03  0.00000000000E+00 0.  1.
          2   -1    0    0  501    0  0.00000000000E+00 -0.00000000000E+00 -0.13629424917E+03  0.13629424917E+03  0.00000000000E+00 0. -1.
          5    1    1    2  502    0 -0.44860830540E+02 -0.80102944021E+01  0.97705085838E+00  0.45822522427E+02  0.47000000000E+01 0. -1.
         -5    1    1    2    0  502  0.60991346968E+02  0.50113742481E+01 -0.87608949680E+02  0.10696951127E+03  0.47000000000E+01 0. -1.
        -11    1    1    2    0    0 -0.34161421449E+02 -0.19103381845E+02  0.84518959961E+02  0.93141808584E+02  0.00000000000E+00 0.  1.
         11    1    1    2    0    0  0.18030905022E+02  0.22102301999E+02  0.43055138551E+01  0.28847231048E+02  0.00000000000E+00 0. -1.
<mgrwt>
<rscale>  0 0.11362740E+03</rscale>
<asrwt>0</asrwt>
<pdfrwt beam="2">  1        2 0.20968346E-01 0.12585833E+03</pdfrwt>
<pdfrwt beam="1">  1       -2 0.21305665E-01 0.12585833E+03</pdfrwt>
<totfact> 0.47079952E+03</totfact>
</mgrwt>
</event>
<event>
 6    1  0.4705246E-006  0.1405254E+03  0.7546771E-02  0.1223352E+00
         -2   -1    0    0    0  501 -0.00000000000E+00  0.00000000000E+00  0.13927118376E+03  0.13927118376E+03  0.00000000000E+00 0.  1.
          2   -1    0    0  501    0  0.00000000000E+00 -0.00000000000E+00 -0.13355771444E+03  0.13355771444E+03  0.00000000000E+00 0. -1.
          5    1    1    2  502    0 -0.21057417761E+02  0.49281805219E+02 -0.82223905066E+02  0.98259715716E+02  0.47000000000E+01 0.  1.
         -5    1    1    2    0  502 -0.33282438662E+02 -0.15060251886E+02  0.34183215229E+02  0.50250513565E+02  0.47000000000E+01 0.  1.
        -11    1    1    2    0    0  0.79148789462E+02 -0.17871967168E+02  0.47274330475E+02  0.93908468232E+02  0.00000000000E+00 0. -1.
         11    1    1    2    0    0 -0.24808933040E+02 -0.16349586165E+02  0.64798286766E+01  0.30410200690E+02  0.00000000000E+00 0.  1.
<mgrwt>
<rscale>  0 0.13280489E+03</rscale>
<asrwt>0</asrwt>
<pdfrwt beam="2">  1        2 0.20547341E-01 0.14052537E+03</pdfrwt>
<pdfrwt beam="1">  1       -2 0.21426336E-01 0.14052537E+03</pdfrwt>
<totfact> 0.48038758E+03</totfact>
</mgrwt>
</event>
<event>
 6    1  0.4705246E-006  0.1408689E+03  0.7546771E-02  0.1222693E+00
         -1   -1    0    0    0  501 -0.00000000000E+00  0.00000000000E+00  0.33197857422E+03  0.33197857422E+03  0.00000000000E+00 0.  1.
          1   -1    0    0  501    0  0.00000000000E+00 -0.00000000000E+00 -0.48477734890E+02  0.48477734890E+02  0.00000000000E+00 0. -1.
          5    1    1    2  502    0  0.10214298154E+03 -0.91187491415E+01  0.11222171523E+03  0.15209254956E+03  0.47000000000E+01 0.  1.
         -5    1    1    2    0  502 -0.37742125019E+02  0.64228947465E+00  0.48147026266E+02  0.61360465081E+02  0.47000000000E+01 0.  1.
        -11    1    1    2    0    0 -0.76824701740E+02 -0.21813315591E+02  0.82485466954E+02  0.11481161872E+03  0.00000000000E+00 0.  1.
         11    1    1    2    0    0  0.12423845223E+02  0.30289775258E+02  0.40646630883E+02  0.52191675749E+02  0.00000000000E+00 0. -1.
<mgrwt>
<rscale>  0 0.13326280E+03</rscale>
<asrwt>0</asrwt>
<pdfrwt beam="2">  1        1 0.74581133E-02 0.14086893E+03</pdfrwt>
<pdfrwt beam="1">  1       -1 0.51073625E-01 0.14086893E+03</pdfrwt>
<totfact> 0.36374447E+03</totfact>
</mgrwt>
</event>
<event>
 6    1  0.4705246E-006  0.3145594E+03  0.7546771E-02  0.1079598E+00
          2   -1    0    0  501    0  0.00000000000E+00  0.00000000000E+00  0.44212262270E+03  0.44212262270E+03  0.00000000000E+00 0. -1.
         -2   -1    0    0    0  501 -0.00000000000E+00 -0.00000000000E+00 -0.29823933273E+03  0.29823933273E+03  0.00000000000E+00 0.  1.
          5    1    1    2  502    0  0.20290969935E+03  0.97108018386E+02  0.22745559356E+03  0.31993819773E+03  0.47000000000E+01 0. -1.
         -5    1    1    2    0  502  0.78028131159E+02 -0.30795128077E+02  0.40455864442E+02  0.93249644145E+02  0.47000000000E+01 0. -1.
        -11    1    1    2    0    0 -0.20825493334E+03 -0.86764625994E+02 -0.10736936692E+03  0.24985275371E+03  0.00000000000E+00 0.  1.
         11    1    1    2    0    0 -0.72682897170E+02  0.20451735684E+02 -0.16658801115E+02  0.77321359844E+02  0.00000000000E+00 0. -1.
<mgrwt>
<rscale>  0 0.31156558E+03</rscale>
<asrwt>0</asrwt>
<pdfrwt beam="1">  1        2 0.68018865E-01 0.31455944E+03</pdfrwt>
<pdfrwt beam="2">  1       -2 0.45882974E-01 0.31455944E+03</pdfrwt>
<totfact> 0.32731554E+02</totfact>
</mgrwt>
</event>
<event>
 6    1  0.4705246E-006  0.2006388E+03  0.7546771E-02  0.1153363E+00
          2   -1    0    0  501    0  0.00000000000E+00  0.00000000000E+00  0.73920174596E+03  0.73920174596E+03  0.00000000000E+00 0. -1.
         -2   -1    0    0    0  501 -0.00000000000E+00 -0.00000000000E+00 -0.58864506580E+02  0.58864506580E+02  0.00000000000E+00 0.  1.
          5    1    1    2  502    0 -0.62013659642E+02  0.57714269024E+02  0.43277899738E+03  0.44101743889E+03  0.47000000000E+01 0. -1.
         -5    1    1    2    0  502 -0.69714223552E+02  0.27607480345E+02  0.80645436389E+02  0.11021806724E+03  0.47000000000E+01 0. -1.
        -11    1    1    2    0    0  0.53309583883E+02  0.14079569073E+02  0.54278623677E+02  0.77371280120E+02  0.00000000000E+00 0.  1.
         11    1    1    2    0    0  0.78418299311E+02 -0.99401318442E+02  0.11263418193E+03  0.16945946629E+03  0.00000000000E+00 0. -1.
<mgrwt>
<rscale>  0 0.19576415E+03</rscale>
<asrwt>0</asrwt>
<pdfrwt beam="1">  1        2 0.11372334E+00 0.20063881E+03</pdfrwt>
<pdfrwt beam="2">  1       -2 0.90560784E-02 0.20063881E+03</pdfrwt>
<totfact> 0.30187733E+03</totfact>
</mgrwt>
</event>
<event>
 6    1  0.4705246E-006  0.1251239E+03  0.7546771E-02  0.1240566E+00
         -1   -1    0    0    0  501 -0.00000000000E+00  0.00000000000E+00  0.42312329682E+02  0.42312329682E+02  0.00000000000E+00 0.  1.
          1   -1    0    0  501    0  0.00000000000E+00 -0.00000000000E+00 -0.36299967859E+03  0.36299967859E+03  0.00000000000E+00 0. -1.
          5    1    1    2  502    0  0.48078835346E+02  0.55766842438E+01 -0.21084657276E+03  0.21638170223E+03  0.47000000000E+01 0. -1.
         -5    1    1    2    0  502 -0.80728328607E+01 -0.39760016340E+02 -0.18415586601E+02  0.44802381182E+02  0.47000000000E+01 0.  1.
        -11    1    1    2    0    0 -0.26360309524E+02  0.62140937864E+02 -0.90633382746E+02  0.11300784108E+03  0.00000000000E+00 0.  1.
         11    1    1    2    0    0 -0.13645692961E+02 -0.27957605769E+02 -0.79180680260E+00  0.31120083784E+02  0.00000000000E+00 0. -1.
<mgrwt>
<rscale>  0 0.12154733E+03</rscale>
<asrwt>0</asrwt>
<pdfrwt beam="2">  1        1 0.55846106E-01 0.12512389E+03</pdfrwt>
<pdfrwt beam="1">  1       -1 0.65095890E-02 0.12512389E+03</pdfrwt>
<totfact> 0.76787853E+03</totfact>
</mgrwt>
</event>
<event>
 6    1  0.4705246E-006  0.1388646E+03  0.7546771E-02  0.1226020E+00
          2   -1    0    0  501    0  0.00000000000E+00  0.00000000000E+00  0.13912517156E+04  0.13912517156E+04  0.00000000000E+00 0. -1.
         -2   -1    0    0    0  501 -0.00000000000E+00 -0.00000000000E+00 -0.18096067891E+02  0.18096067891E+02  0.00000000000E+00 0.  1.
          5    1    1    2  502    0 -0.29676134400E+02 -0.90863854039E+02  0.73752855929E+03  0.74371189226E+03  0.47000000000E+01 0.  1.
         -5    1    1    2    0  502  0.28431142368E+02  0.30420451539E+02  0.43392534332E+03  0.43594383504E+03  0.47000000000E+01 0.  1.
        -11    1    1    2    0    0 -0.19607759140E+02  0.76359677449E+02  0.17653705854E+03  0.19334062583E+03  0.00000000000E+00 0. -1.
         11    1    1    2    0    0  0.20852751172E+02 -0.15916274948E+02  0.25164686546E+02  0.36351430352E+02  0.00000000000E+00 0.  1.
<mgrwt>
<rscale>  0 0.13097215E+03</rscale>
<asrwt>0</asrwt>
<pdfrwt beam="1">  1        2 0.21403864E+00 0.13886464E+03</pdfrwt>
<pdfrwt beam="2">  1       -2 0.27840115E-02 0.13886464E+03</pdfrwt>
<totfact> 0.72428395E+03</totfact>
</mgrwt>
</event>
<event>
 6    1  0.4705246E-006  0.1640761E+03  0.7546771E-02  0.1191092E+00
          2   -1    0    0  501    0  0.00000000000E+00  0.00000000000E+00  0.18627807128E+03  0.18627807128E+03  0.00000000000E+00 0. -1.
         -2   -1    0    0    0  501 -0.00000000000E+00 -0.00000000000E+00 -0.13637394848E+03  0.13637394848E+03  0.00000000000E+00 0.  1.
          5    1    1    2  502    0 -0.64473498899E+02  0.46224727715E+02 -0.68171946340E+01  0.79762909020E+02  0.47000000000E+01 0.  1.
         -5    1    1    2    0  502  0.26416800724E+02  0.53003217125E+02  0.80628803461E+02  0.10015129721E+03  0.47000000000E+01 0.  1.
        -11    1    1    2    0    0  0.68540853337E+02 -0.71109674956E+02 -0.22210808806E+02  0.10123119320E+03  0.00000000000E+00 0.  1.
         11    1    1    2    0    0 -0.30484155162E+02 -0.28118269883E+02 -0.16966772164E+01  0.41506620324E+02  0.00000000000E+00 0. -1.
<mgrwt>
<rscale>  0 0.15789706E+03</rscale>
<asrwt>0</asrwt>
<pdfrwt beam="1">  1        2 0.28658165E-01 0.16407610E+03</pdfrwt>
<pdfrwt beam="2">  1       -2 0.20980607E-01 0.16407610E+03</pdfrwt>
<totfact> 0.34714834E+03</totfact>
</mgrwt>
</event>
<event>
 6    1  0.4705246E-006  0.1461409E+03  0.7546771E-02  0.1222215E+00
         -2   -1    0    0    0  501 -0.00000000000E+00  0.00000000000E+00  0.17361502168E+02  0.17361502168E+02  0.00000000000E+00 0.  1.
          2   -1    0    0  501    0  0.00000000000E+00 -0.00000000000E+00 -0.23713123439E+04  0.23713123439E+04  0.00000000000E+00 0. -1.
          5    1    1    2  502    0 -0.30859171518E+02  0.55962446032E+02 -0.94574862352E+03  0.94791699675E+03  0.47000000000E+01 0. -1.
         -5    1    1    2    0  502  0.72203177999E+02 -0.38677124324E+02 -0.12487232377E+04  0.12514156117E+04  0.47000000000E+01 0.  1.
        -11    1    1    2    0    0  0.12739099571E+02  0.21000899781E+02 -0.11332649792E+02  0.27050903881E+02  0.00000000000E+00 0. -1.
         11    1    1    2    0    0 -0.54083106052E+02 -0.38286221489E+02 -0.14814633071E+03  0.16229033372E+03  0.00000000000E+00 0.  1.
<mgrwt>
<rscale>  0 0.13359630E+03</rscale>
<asrwt>0</asrwt>
<pdfrwt beam="2">  1        2 0.36481714E+00 0.14614094E+03</pdfrwt>
<pdfrwt beam="1">  1       -2 0.26710014E-02 0.14614094E+03</pdfrwt>
<totfact> 0.23970830E+03</totfact>
</mgrwt>
</event>
<event>
 6    1  0.4705246E-006  0.1335812E+03  0.7546771E-02  0.1234906E+00
         -2   -1    0    0    0  501 -0.00000000000E+00  0.00000000000E+00  0.51990260939E+02  0.51990260939E+02  0.00000000000E+00 0.  1.
          2   -1    0    0  501    0  0.00000000000E+00 -0.00000000000E+00 -0.27468831344E+03  0.27468831344E+03  0.00000000000E+00 0. -1.
          5    1    1    2  502    0  0.31606356201E+02 -0.48338365561E+02 -0.22288213339E+02  0.62083925386E+02  0.47000000000E+01 0. -1.
         -5    1    1    2    0  502 -0.53824764924E+02  0.67879030108E+01 -0.12735176320E+03  0.13850538812E+03  0.47000000000E+01 0. -1.
        -11    1    1    2    0    0  0.55076541695E+02  0.10723654407E+02 -0.29376837444E+02  0.63335778097E+02  0.00000000000E+00 0. -1.
         11    1    1    2    0    0 -0.32858132972E+02  0.30826808144E+02 -0.43681238516E+02  0.62753482780E+02  0.00000000000E+00 0.  1.
<mgrwt>
<rscale>  0 0.12510433E+03</rscale>
<asrwt>0</asrwt>
<pdfrwt beam="2">  1        2 0.42259740E-01 0.13358125E+03</pdfrwt>
<pdfrwt beam="1">  1       -2 0.79985018E-02 0.13358125E+03</pdfrwt>
<totfact> 0.10734192E+04</totfact>
</mgrwt>
</event>
<event>
 6    1  0.4705246E-006  0.1616081E+03  0.7546771E-02  0.1195981E+00
         -4   -1    0    0    0  501 -0.00000000000E+00  0.00000000000E+00  0.88503995176E+02  0.88503995176E+02  0.00000000000E+00 0.  1.
          4   -1    0    0  501    0  0.00000000000E+00 -0.00000000000E+00 -0.25589325499E+03  0.25589325499E+03  0.00000000000E+00 0. -1.
          5    1    1    2  502    0  0.17739582774E+02  0.39119446595E+02 -0.24477014042E+02  0.49661233526E+02  0.47000000000E+01 0. -1.
         -5    1    1    2    0  502  0.51469295925E+02 -0.10533101611E+03 -0.10418397736E+03  0.15690794281E+03  0.47000000000E+01 0.  1.
        -11    1    1    2    0    0  0.54374160115E+01 -0.17688123992E+02  0.14392859449E+01  0.18560893493E+02  0.00000000000E+00 0.  1.
         11    1    1    2    0    0 -0.74646294710E+02  0.83899693504E+02 -0.40167554357E+02  0.11926718034E+03  0.00000000000E+00 0. -1.
<mgrwt>
<rscale>  0 0.15371521E+03</rscale>
<asrwt>0</asrwt>
<pdfrwt beam="2">  1        4 0.39368192E-01 0.16160809E+03</pdfrwt>
<pdfrwt beam="1">  1       -4 0.13616000E-01 0.16160809E+03</pdfrwt>
<totfact> 0.48067017E+02</totfact>
</mgrwt>
</event>
<event>
 6    1  0.4705246E-006  0.1289192E+03  0.7546771E-02  0.1257284E+00
          2   -1    0    0  501    0  0.00000000000E+00  0.00000000000E+00  0.26445006313E+03  0.26445006313E+03  0.00000000000E+00 0.  1.
         -2   -1    0    0    0  501 -0.00000000000E+00 -0.00000000000E+00 -0.49596268243E+02  0.49596268243E+02  0.00000000000E+00 0. -1.
          5    1    1    2  502    0  0.19869890367E+02 -0.36342461769E+00 -0.97337823050E+01  0.22622580282E+02  0.47000000000E+01 0.  1.
         -5    1    1    2    0  502 -0.40752652260E+02 -0.23371507522E+02  0.21231324733E+03  0.21749945062E+03  0.47000000000E+01 0.  1.
        -11    1    1    2    0    0 -0.78801083824E+01 -0.13991674366E+02  0.20222386593E+02  0.25822625335E+02  0.00000000000E+00 0.  1.
         11    1    1    2    0    0  0.28762870275E+02  0.37726606506E+02 -0.79480567281E+01  0.48101675134E+02  0.00000000000E+00 0. -1.
<mgrwt>
<rscale>  0 0.11179368E+03</rscale>
<asrwt>0</asrwt>
<pdfrwt beam="1">  1        2 0.40684624E-01 0.12891916E+03</pdfrwt>
<pdfrwt beam="2">  1       -2 0.76301953E-02 0.12891916E+03</pdfrwt>
<totfact> 0.11982548E+04</totfact>
</mgrwt>
</event>
<event>
 6    1  0.4705246E-006  0.1447860E+03  0.7546771E-02  0.1217369E+00
          2   -1    0    0  501    0  0.00000000000E+00  0.00000000000E+00  0.22203632073E+03  0.22203632073E+03  0.00000000000E+00 0.  1.
         -2   -1    0    0    0  501 -0.00000000000E+00 -0.00000000000E+00 -0.80995498818E+02  0.80995498818E+02  0.00000000000E+00 0. -1.
          5    1    1    2  502    0  0.16130624588E+02 -0.51702195002E+02  0.13899928595E+03  0.14925215413E+03  0.47000000000E+01 0.  1.
         -5    1    1    2    0  502 -0.49045612127E+01 -0.20507479307E+02 -0.26437310840E+02  0.34141365419E+02  0.47000000000E+01 0.  1.
        -11    1    1    2    0    0  0.10933623338E+02  0.87995647745E+02  0.25512695048E+02  0.92269581933E+02  0.00000000000E+00 0.  1.
         11    1    1    2    0    0 -0.22159686713E+02 -0.15785973436E+02  0.29661517576E+01  0.27368718070E+02  0.00000000000E+00 0. -1.
<mgrwt>
<rscale>  0 0.13703951E+03</rscale>
<asrwt>0</asrwt>
<pdfrwt beam="1">  1        2 0.34159434E-01 0.14478600E+03</pdfrwt>
<pdfrwt beam="2">  1       -2 0.12460846E-01 0.14478600E+03</pdfrwt>
<totfact> 0.67460766E+03</totfact>
</mgrwt>
</event>
<event>
 6    1  0.4705246E-006  0.1254891E+03  0.7546771E-02  0.1250743E+00
          1   -1    0    0  501    0  0.00000000000E+00  0.00000000000E+00  0.80023528096E+03  0.80023528096E+03  0.00000000000E+00 0. -1.
         -1   -1    0    0    0  501 -0.00000000000E+00 -0.00000000000E+00 -0.16005547862E+02  0.16005547862E+02  0.00000000000E+00 0.  1.
          5    1    1    2  502    0  0.32007577211E+02 -0.33565305986E+02  0.44219870348E+03  0.44464918545E+03  0.47000000000E+01 0. -1.
         -5    1    1    2    0  502 -0.42989546332E+02  0.34366093914E+02  0.13180682737E+03  0.14291346769E+03  0.47000000000E+01 0. -1.
        -11    1    1    2    0    0  0.37745784455E+02  0.21874336439E+02  0.16904635760E+03  0.17458494167E+03  0.00000000000E+00 0.  1.
         11    1    1    2    0    0 -0.26763815334E+02 -0.22675124368E+02  0.41177844646E+02  0.54093234013E+02  0.00000000000E+00 0. -1.
<mgrwt>
<rscale>  0 0.11548134E+03</rscale>
<asrwt>0</asrwt>
<pdfrwt beam="1">  1        1 0.12311309E+00 0.12548913E+03</pdfrwt>
<pdfrwt beam="2">  1       -1 0.24623926E-02 0.12548913E+03</pdfrwt>
<totfact> 0.11091266E+04</totfact>
</mgrwt>
</event>
<event>
 6    1  0.4705246E-006  0.1260477E+03  0.7546771E-02  0.1248367E+00
         -1   -1    0    0    0  501 -0.00000000000E+00  0.00000000000E+00  0.27125214664E+02  0.27125214664E+02  0.00000000000E+00 0.  1.
          1   -1    0    0  501    0  0.00000000000E+00 -0.00000000000E+00 -0.10301862022E+04  0.10301862022E+04  0.00000000000E+00 0. -1.
          5    1    1    2  502    0  0.33014691233E+02  0.21291114810E+02 -0.89355485461E+03  0.89443034922E+03  0.47000000000E+01 0. -1.
         -5    1    1    2    0  502 -0.23271178694E+02 -0.82146569160E+01 -0.37620075078E+02  0.45237024603E+02  0.47000000000E+01 0. -1.
        -11    1    1    2    0    0  0.24207622347E+02 -0.39634490625E+02 -0.53322492340E+02  0.70712021723E+02  0.00000000000E+00 0. -1.
         11    1    1    2    0    0 -0.33951134886E+02  0.26558032731E+02 -0.18563565540E+02  0.46932021352E+02  0.00000000000E+00 0.  1.
<mgrwt>
<rscale>  0 0.11686093E+03</rscale>
<asrwt>0</asrwt>
<pdfrwt beam="2">  1        1 0.15849018E+00 0.12604770E+03</pdfrwt>
<pdfrwt beam="1">  1       -1 0.41731100E-02 0.12604770E+03</pdfrwt>
<totfact> 0.34366916E+03</totfact>
</mgrwt>
</event>
<event>
 6    1  0.4705246E-006  0.3373500E+03  0.7546771E-02  0.1110079E+00
         -2   -1    0    0    0  501 -0.00000000000E+00  0.00000000000E+00  0.46585886991E+03  0.46585886991E+03  0.00000000000E+00 0.  1.
          2   -1    0    0  501    0  0.00000000000E+00 -0.00000000000E+00 -0.12928622469E+03  0.12928622469E+03  0.00000000000E+00 0. -1.
          5    1    1    2  502    0  0.19863034140E+01  0.35088643064E+02 -0.10396440860E+03  0.10984464725E+03  0.47000000000E+01 0. -1.
         -5    1    1    2    0  502 -0.50594643055E+02 -0.75370735901E+02  0.23516299269E+03  0.25211959239E+03  0.47000000000E+01 0.  1.
        -11    1    1    2    0    0  0.68481793994E+02  0.49205289699E+01  0.14516019737E+03  0.16057848740E+03  0.00000000000E+00 0.  1.
         11    1    1    2    0    0 -0.19873454353E+02  0.35361563867E+02  0.60213863764E+02  0.72602367568E+02  0.00000000000E+00 0. -1.
<mgrwt>
<rscale>  0 0.25517165E+03</rscale>
<asrwt>0</asrwt>
<pdfrwt beam="2">  1        2 0.19890189E-01 0.33735003E+03</pdfrwt>
<pdfrwt beam="1">  1       -2 0.71670595E-01 0.33735003E+03</pdfrwt>
<totfact> 0.50840520E+02</totfact>
</mgrwt>
</event>
<event>
 6    1  0.9183626E-006  0.3599835E+03  0.7546771E-02  0.1059614E+00
         -1   -1    0    0    0  501 -0.00000000000E+00  0.00000000000E+00  0.81561247759E+03  0.81561247759E+03  0.00000000000E+00 0. -1.
          1   -1    0    0  501    0  0.00000000000E+00 -0.00000000000E+00 -0.17831183047E+03  0.17831183047E+03  0.00000000000E+00 0.  1.
          5    1    1    2  502    0  0.62480136490E+01 -0.14365525622E+02  0.21756013874E+02  0.27218011328E+02  0.47000000000E+01 0.  1.
         -5    1    1    2    0  502 -0.32413481912E+03 -0.99262384678E+02  0.11896207447E+03  0.35929161852E+03  0.47000000000E+01 0.  1.
        -11    1    1    2    0    0  0.14266392569E+03  0.52813099758E+02  0.30457725342E+03  0.34045487587E+03  0.00000000000E+00 0. -1.
         11    1    1    2    0    0  0.17522287978E+03  0.60814810541E+02  0.19200530536E+03  0.26695980234E+03  0.00000000000E+00 0.  1.
<mgrwt>
<rscale>  0 0.35740954E+03</rscale>
<asrwt>0</asrwt>
<pdfrwt beam="2">  1        1 0.27432590E-01 0.35998349E+03</pdfrwt>
<pdfrwt beam="1">  1       -1 0.12547884E+00 0.35998349E+03</pdfrwt>
<totfact> 0.10040158E+02</totfact>
</mgrwt>
</event>
<event>
 6    1  0.4705246E-006  0.1556049E+03  0.7546771E-02  0.1206311E+00
          1   -1    0    0  501    0  0.00000000000E+00  0.00000000000E+00  0.19015422505E+03  0.19015422505E+03  0.00000000000E+00 0. -1.
         -1   -1    0    0    0  501 -0.00000000000E+00 -0.00000000000E+00 -0.10947152019E+03  0.10947152019E+03  0.00000000000E+00 0.  1.
          5    1    1    2  502    0  0.49254333932E+02 -0.52187512783E+02  0.14302626524E+02  0.73322445588E+02  0.47000000000E+01 0.  1.
         -5    1    1    2    0  502  0.43044824807E+02  0.60355924583E+02  0.77474964630E+02  0.10733198367E+03  0.47000000000E+01 0.  1.
        -11    1    1    2    0    0 -0.71732544609E+02 -0.38220032063E+02 -0.14165434217E+01  0.81291668713E+02  0.00000000000E+00 0. -1.
         11    1    1    2    0    0 -0.20566614131E+02  0.30051620263E+02 -0.96783428771E+01  0.37679647266E+02  0.00000000000E+00 0.  1.
<mgrwt>
<rscale>  0 0.14534628E+03</rscale>
<asrwt>0</asrwt>
<pdfrwt beam="1">  1        1 0.29254496E-01 0.15560494E+03</pdfrwt>
<pdfrwt beam="2">  1       -1 0.16841772E-01 0.15560494E+03</pdfrwt>
<totfact> 0.40388540E+03</totfact>
</mgrwt>
</event>
<event>
 6    1  0.4705246E-006  0.3526079E+03  0.7546771E-02  0.1100407E+00
          2   -1    0    0  501    0  0.00000000000E+00  0.00000000000E+00  0.21847810719E+04  0.21847810719E+04  0.00000000000E+00 0. -1.
         -2   -1    0    0    0  501 -0.00000000000E+00 -0.00000000000E+00 -0.25999680862E+02  0.25999680862E+02  0.00000000000E+00 0.  1.
          5    1    1    2  502    0 -0.88773620534E+02  0.16626024909E+03  0.11783986652E+04  0.11933854073E+04  0.47000000000E+01 0. -1.
         -5    1    1    2    0  502  0.11504329596E+03 -0.85858371249E+02  0.43510609639E+03  0.45819867413E+03  0.47000000000E+01 0.  1.
        -11    1    1    2    0    0  0.32391316094E+02 -0.28077406943E+02  0.24935651830E+03  0.25301425129E+03  0.00000000000E+00 0. -1.
         11    1    1    2    0    0 -0.58660991518E+02 -0.52324470897E+02  0.29592011118E+03  0.30618242011E+03  0.00000000000E+00 0.  1.
<mgrwt>
<rscale>  0 0.27153045E+03</rscale>
<asrwt>0</asrwt>
<pdfrwt beam="1">  1        2 0.33612002E+00 0.35260794E+03</pdfrwt>
<pdfrwt beam="2">  1       -2 0.39999526E-02 0.35260794E+03</pdfrwt>
<totfact> 0.16184350E+03</totfact>
</mgrwt>
</event>
<event>
 6    1  0.4705246E-006  0.1307949E+03  0.7546771E-02  0.1243896E+00
          2   -1    0    0  501    0  0.00000000000E+00  0.00000000000E+00  0.12173325339E+04  0.12173325339E+04  0.00000000000E+00 0. -1.
         -2   -1    0    0    0  501 -0.00000000000E+00 -0.00000000000E+00 -0.10945760738E+02  0.10945760738E+02  0.00000000000E+00 0.  1.
          5    1    1    2  502    0 -0.35882571330E+02 -0.14852031201E+02  0.55355019325E+03  0.55493066972E+03  0.47000000000E+01 0. -1.
         -5    1    1    2    0  502  0.44807774122E+02  0.57828363130E+02  0.31534250541E+03  0.32375120373E+03  0.47000000000E+01 0.  1.
        -11    1    1    2    0    0 -0.30673751362E+02  0.11252069548E+02  0.11371188124E+03  0.11831263680E+03  0.00000000000E+00 0. -1.
         11    1    1    2    0    0  0.21748548570E+02 -0.54228401477E+02  0.22378219326E+03  0.23128378437E+03  0.00000000000E+00 0.  1.
<mgrwt>
<rscale>  0 0.11951671E+03</rscale>
<asrwt>0</asrwt>
<pdfrwt beam="1">  1        2 0.18728182E+00 0.13079493E+03</pdfrwt>
<pdfrwt beam="2">  1       -2 0.16839642E-02 0.13079493E+03</pdfrwt>
<totfact> 0.18619466E+04</totfact>
</mgrwt>
</event>
<event>
 6    1  0.4705246E-006  0.2647070E+03  0.7546771E-02  0.1106569E+00
         -1   -1    0    0    0  501 -0.00000000000E+00  0.00000000000E+00  0.15221735071E+03  0.15221735071E+03  0.00000000000E+00 0. -1.
          1   -1    0    0  501    0  0.00000000000E+00 -0.00000000000E+00 -0.48766485399E+03  0.48766485399E+03  0.00000000000E+00 0.  1.
          5    1    1    2  502    0  0.66216893270E+02 -0.15991824470E+03 -0.20361423908E+03  0.26728144399E+03  0.47000000000E+01 0.  1.
         -5    1    1    2    0  502 -0.51868607147E+02 -0.72972421994E+02 -0.73333421854E+02  0.11582403697E+03  0.47000000000E+01 0.  1.
        -11    1    1    2    0    0 -0.35860520662E+02  0.74753374574E+02 -0.50294654574E+02  0.96972141521E+02  0.00000000000E+00 0.  1.
         11    1    1    2    0    0  0.21512234539E+02  0.15813729212E+03 -0.82051877666E+01  0.15980458222E+03  0.00000000000E+00 0. -1.
<mgrwt>
<rscale>  0 0.26095736E+03</rscale>
<asrwt>0</asrwt>
<pdfrwt beam="2">  1        1 0.75025362E-01 0.26470701E+03</pdfrwt>
<pdfrwt beam="1">  1       -1 0.23418054E-01 0.26470701E+03</pdfrwt>
<totfact> 0.72783810E+02</totfact>
</mgrwt>
</event>
<event>
 6    1  0.4705246E-006  0.2308464E+03  0.7546771E-02  0.1126045E+00
          4   -1    0    0  501    0  0.00000000000E+00  0.00000000000E+00  0.63257566586E+03  0.63257566586E+03  0.00000000000E+00 0. -1.
         -4   -1    0    0    0  501 -0.00000000000E+00 -0.00000000000E+00 -0.21060750026E+02  0.21060750026E+02  0.00000000000E+00 0.  1.
          5    1    1    2  502    0 -0.64998835500E+01  0.20866974767E+01  0.34113084570E+03  0.34123151478E+03  0.47000000000E+01 0. -1.
         -5    1    1    2    0  502  0.33223724072E+02 -0.27722713323E+02  0.31975484274E+02  0.54008205578E+02  0.47000000000E+01 0. -1.
        -11    1    1    2    0    0 -0.60481934863E+02  0.26116045920E+02  0.15929602190E+03  0.17238136469E+03  0.00000000000E+00 0.  1.
         11    1    1    2    0    0  0.33758094341E+02 -0.48003007423E+00  0.79112563966E+02  0.86015330841E+02  0.00000000000E+00 0. -1.
<mgrwt>
<rscale>  0 0.23084642E+03</rscale>
<asrwt>0</asrwt>
<pdfrwt beam="1">  1        4 0.97319319E-01 0.23084642E+03</pdfrwt>
<pdfrwt beam="2">  1       -4 0.32401159E-02 0.23084642E+03</pdfrwt>
<totfact> 0.79526109E+02</totfact>
</mgrwt>
</event>
<event>
 6    1  0.4705246E-006  0.1829291E+03  0.7546771E-02  0.1170317E+00
          2   -1    0    0  501    0  0.00000000000E+00  0.00000000000E+00  0.95895229906E+03  0.95895229906E+03  0.00000000000E+00 0. -1.
         -2   -1    0    0    0  501 -0.00000000000E+00 -0.00000000000E+00 -0.33952623691E+02  0.33952623691E+02  0.00000000000E+00 0.  1.
          5    1    1    2  502    0 -0.14425479537E+03  0.10805837701E+02  0.45862463519E+03  0.48092084393E+03  0.47000000000E+01 0.  1.
         -5    1    1    2    0  502  0.17295093996E+02  0.30648066402E+02  0.17584243297E+03  0.17939084559E+03  0.47000000000E+01 0.  1.
        -11    1    1    2    0    0  0.93057309263E+01 -0.82147095494E+01 -0.45227226885E+01  0.13211097667E+02  0.00000000000E+00 0.  1.
         11    1    1    2    0    0  0.11765397045E+03 -0.33239194553E+02  0.29505532990E+03  0.31938213556E+03  0.00000000000E+00 0. -1.
<mgrwt>
<rscale>  0 0.17742654E+03</rscale>
<asrwt>0</asrwt>
<pdfrwt beam="1">  1        2 0.14753110E+00 0.18292913E+03</pdfrwt>
<pdfrwt beam="2">  1       -2 0.52234813E-02 0.18292913E+03</pdfrwt>
<totfact> 0.50281138E+03</totfact>
</mgrwt>
</event>
<event>
 6    1  0.4705246E-006  0.1825834E+03  0.7546771E-02  0.1174342E+00
          4   -1    0    0  501    0  0.00000000000E+00  0.00000000000E+00  0.28227032366E+02  0.28227032366E+02  0.00000000000E+00 0. -1.
         -4   -1    0    0    0  501 -0.00000000000E+00 -0.00000000000E+00 -0.11207492611E+04  0.11207492611E+04  0.00000000000E+00 0.  1.
          5    1    1    2  502    0 -0.68407356673E+02 -0.40481981729E+01 -0.10125614259E+03  0.12235542803E+03  0.47000000000E+01 0. -1.
         -5    1    1    2    0  502  0.25715059149E+02 -0.10511473679E+03 -0.28471323511E+03  0.30462122120E+03  0.47000000000E+01 0.  1.
        -11    1    1    2    0    0  0.34711757124E+02  0.12436974757E+03 -0.65663490281E+03  0.66921008344E+03  0.00000000000E+00 0.  1.
         11    1    1    2    0    0  0.79805404004E+01 -0.15206812606E+02 -0.49917948256E+02  0.52789560832E+02  0.00000000000E+00 0. -1.
<mgrwt>
<rscale>  0 0.17340547E+03</rscale>
<asrwt>0</asrwt>
<pdfrwt beam="1">  1        4 0.43426211E-02 0.18258340E+03</pdfrwt>
<pdfrwt beam="2">  1       -4 0.17242294E+00 0.18258340E+03</pdfrwt>
<totfact> 0.11593098E+02</totfact>
</mgrwt>
</event>
<event>
 6    1  0.4705246E-006  0.1364896E+03  0.7546771E-02  0.1230016E+00
          1   -1    0    0  501    0  0.00000000000E+00  0.00000000000E+00  0.49235713517E+03  0.49235713517E+03  0.00000000000E+00 0. -1.
         -1   -1    0    0    0  501 -0.00000000000E+00 -0.00000000000E+00 -0.42586424713E+02  0.42586424713E+02  0.00000000000E+00 0.  1.
          5    1    1    2  502    0  0.43445479882E+02 -0.80432751812E+02  0.28347873100E+03  0.29789128590E+03  0.47000000000E+01 0. -1.
         -5    1    1    2    0  502 -0.35098424815E+02  0.26264138457E+02  0.10563103153E+03  0.11446269792E+03  0.47000000000E+01 0. -1.
        -11    1    1    2    0    0 -0.29658054682E+02  0.58585906635E+02  0.86800167531E+01  0.66236329567E+02  0.00000000000E+00 0.  1.
         11    1    1    2    0    0  0.21310999615E+02 -0.44172932795E+01  0.51980931171E+02  0.56353246489E+02  0.00000000000E+00 0. -1.
<mgrwt>
<rscale>  0 0.12828966E+03</rscale>
<asrwt>0</asrwt>
<pdfrwt beam="1">  1        1 0.75747247E-01 0.13648956E+03</pdfrwt>
<pdfrwt beam="2">  1       -1 0.65517580E-02 0.13648956E+03</pdfrwt>
<totfact> 0.51925398E+03</totfact>
</mgrwt>
</event>
<event>
 6    1  0.4705246E-006  0.2785695E+03  0.7546771E-02  0.1096473E+00
         -1   -1    0    0    0  501 -0.00000000000E+00  0.00000000000E+00  0.40714168700E+02  0.40714168700E+02  0.00000000000E+00 0.  1.
          1   -1    0    0  501    0  0.00000000000E+00 -0.00000000000E+00 -0.47649836452E+03  0.47649836452E+03  0.00000000000E+00 0. -1.
          5    1    1    2  502    0 -0.13610761439E+02 -0.22408401803E+01 -0.25331577466E+03  0.25373459733E+03  0.47000000000E+01 0. -1.
         -5    1    1    2    0  502 -0.46633980756E+02  0.42480777637E+02 -0.60036884926E+02  0.87211594306E+02  0.47000000000E+01 0.  1.
        -11    1    1    2    0    0 -0.21306009339E+02  0.15699154722E+02 -0.37563303375E+02  0.45950095249E+02  0.00000000000E+00 0.  1.
         11    1    1    2    0    0  0.81550751534E+02 -0.55939092179E+02 -0.84868232857E+02  0.13031624633E+03  0.00000000000E+00 0. -1.
<mgrwt>
<rscale>  0 0.27856945E+03</rscale>
<asrwt>0</asrwt>
<pdfrwt beam="2">  1        1 0.73307434E-01 0.27856945E+03</pdfrwt>
<pdfrwt beam="1">  1       -1 0.62637188E-02 0.27856945E+03</pdfrwt>
<totfact> 0.60010649E+03</totfact>
</mgrwt>
</event>
<event>
 6    1  0.4705246E-006  0.2889796E+03  0.7546771E-02  0.1090883E+00
          2   -1    0    0  501    0  0.00000000000E+00  0.00000000000E+00  0.10664307365E+03  0.10664307365E+03  0.00000000000E+00 0. -1.
         -2   -1    0    0    0  501 -0.00000000000E+00 -0.00000000000E+00 -0.19576800706E+03  0.19576800706E+03  0.00000000000E+00 0.  1.
          5    1    1    2  502    0 -0.57380284688E+01  0.59974563196E+01  0.62890092250E+02  0.63609340165E+02  0.47000000000E+01 0.  1.
         -5    1    1    2    0  502 -0.64863475666E+02  0.13369155814E+02 -0.48107924747E+02  0.81990653285E+02  0.47000000000E+01 0.  1.
        -11    1    1    2    0    0  0.93065852515E+02 -0.16557753811E+02 -0.87936618679E+02  0.12910561963E+03  0.00000000000E+00 0.  1.
         11    1    1    2    0    0 -0.22464348381E+02 -0.28088583233E+01 -0.15970482237E+02  0.27705467622E+02  0.00000000000E+00 0. -1.
<mgrwt>
<rscale>  0 0.28897960E+03</rscale>
<asrwt>0</asrwt>
<pdfrwt beam="1">  1        2 0.16406627E-01 0.28897960E+03</pdfrwt>
<pdfrwt beam="2">  1       -2 0.30118155E-01 0.28897960E+03</pdfrwt>
<totfact> 0.35454406E+03</totfact>
</mgrwt>
</event>
<event>
 6    1  0.4705246E-006  0.1251512E+03  0.7546771E-02  0.1250646E+00
          2   -1    0    0  501    0  0.00000000000E+00  0.00000000000E+00  0.92687324524E+03  0.92687324524E+03  0.00000000000E+00 0.  1.
         -2   -1    0    0    0  501 -0.00000000000E+00 -0.00000000000E+00 -0.13885683892E+02  0.13885683892E+02  0.00000000000E+00 0. -1.
          5    1    1    2  502    0  0.74652276950E+01 -0.62953400429E+02  0.41988741800E+03  0.42467210180E+03  0.47000000000E+01 0.  1.
         -5    1    1    2    0  502 -0.37283284417E+01  0.58174312506E+02  0.24421543210E+03  0.25112032643E+03  0.47000000000E+01 0.  1.
        -11    1    1    2    0    0  0.11983292858E+02  0.45528695924E+02  0.13665904157E+03  0.14454118826E+03  0.00000000000E+00 0.  1.
         11    1    1    2    0    0 -0.15720192112E+02 -0.40749608000E+02  0.11222566968E+03  0.12042531265E+03  0.00000000000E+00 0. -1.
<mgrwt>
<rscale>  0 0.11553740E+03</rscale>
<asrwt>0</asrwt>
<pdfrwt beam="1">  1        2 0.14259584E+00 0.12515115E+03</pdfrwt>
<pdfrwt beam="2">  1       -2 0.21362598E-02 0.12515115E+03</pdfrwt>
<totfact> 0.19377947E+04</totfact>
</mgrwt>
</event>
<event>
 6    1  0.4705246E-006  0.1582745E+03  0.7546771E-02  0.1198409E+00
          1   -1    0    0  501    0  0.00000000000E+00  0.00000000000E+00  0.24177176364E+04  0.24177176364E+04  0.00000000000E+00 0. -1.
         -1   -1    0    0    0  501 -0.00000000000E+00 -0.00000000000E+00 -0.10475940860E+02  0.10475940860E+02  0.00000000000E+00 0.  1.
          5    1    1    2  502    0 -0.29675883928E+01  0.59069315941E+02  0.10337059885E+04  0.10354072394E+04  0.47000000000E+01 0.  1.
         -5    1    1    2    0  502 -0.86408201603E+02 -0.21168094918E+02  0.73900062349E+03  0.74435104424E+03  0.47000000000E+01 0.  1.
        -11    1    1    2    0    0 -0.38311100154E+01 -0.39756489624E+02  0.16872842762E+03  0.17339128628E+03  0.00000000000E+00 0.  1.
         11    1    1    2    0    0  0.93206900011E+02  0.18552686006E+01  0.46580665589E+03  0.47504400733E+03  0.00000000000E+00 0. -1.
<mgrwt>
<rscale>  0 0.15169210E+03</rscale>
<asrwt>0</asrwt>
<pdfrwt beam="1">  1        1 0.37195612E+00 0.15827450E+03</pdfrwt>
<pdfrwt beam="2">  1       -1 0.16116851E-02 0.15827450E+03</pdfrwt>
<totfact> 0.17025879E+03</totfact>
</mgrwt>
</event>
<event>
 6    1  0.4705246E-006  0.2372127E+03  0.7546771E-02  0.1124444E+00
          2   -1    0    0  501    0  0.00000000000E+00  0.00000000000E+00  0.53159335324E+03  0.53159335324E+03  0.00000000000E+00 0. -1.
         -2   -1    0    0    0  501 -0.00000000000E+00 -0.00000000000E+00 -0.10184947736E+03  0.10184947736E+03  0.00000000000E+00 0.  1.
          5    1    1    2  502    0  0.83473481522E+02  0.10692913468E+03  0.26377269029E+03  0.29664757559E+03  0.47000000000E+01 0. -1.
         -5    1    1    2    0  502  0.42315255934E+02  0.50620507065E+02  0.12195620038E+02  0.67259495749E+02  0.47000000000E+01 0. -1.
        -11    1    1    2    0    0 -0.31845477347E+02 -0.10596129702E+03  0.54050190106E+02  0.12313957099E+03  0.00000000000E+00 0. -1.
         11    1    1    2    0    0 -0.93943260108E+02 -0.51588344719E+02  0.99725375447E+02  0.14639618827E+03  0.00000000000E+00 0.  1.
<mgrwt>
<rscale>  0 0.23314752E+03</rscale>
<asrwt>0</asrwt>
<pdfrwt beam="1">  1        2 0.81783591E-01 0.23721266E+03</pdfrwt>
<pdfrwt beam="2">  1       -2 0.15669151E-01 0.23721266E+03</pdfrwt>
<totfact> 0.18411291E+03</totfact>
</mgrwt>
</event>
<event>
 6    1  0.4705246E-006  0.1309003E+03  0.7546771E-02  0.1239817E+00
          1   -1    0    0  501    0  0.00000000000E+00  0.00000000000E+00  0.53653821865E+03  0.53653821865E+03  0.00000000000E+00 0. -1.
         -1   -1    0    0    0  501 -0.00000000000E+00 -0.00000000000E+00 -0.24858534610E+02  0.24858534610E+02  0.00000000000E+00 0.  1.
          5    1    1    2  502    0 -0.21314807248E+02  0.42779735164E+02  0.74168286056E+02  0.88359783868E+02  0.47000000000E+01 0. -1.
         -5    1    1    2    0  502  0.11926266401E+01 -0.76034641865E+02  0.24620100846E+03  0.25772022755E+03  0.47000000000E+01 0. -1.
        -11    1    1    2    0    0 -0.14874173962E+02  0.25130175324E+02  0.10595101948E+02  0.31064818496E+02  0.00000000000E+00 0.  1.
         11    1    1    2    0    0  0.34996354570E+02  0.81247313773E+01  0.18071528758E+03  0.18425192335E+03  0.00000000000E+00 0. -1.
<mgrwt>
<rscale>  0 0.12201011E+03</rscale>
<asrwt>0</asrwt>
<pdfrwt beam="1">  1        1 0.82544332E-01 0.13090030E+03</pdfrwt>
<pdfrwt beam="2">  1       -1 0.38243904E-02 0.13090030E+03</pdfrwt>
<totfact> 0.10260539E+04</totfact>
</mgrwt>
</event>
<event>
 6    1  0.4705246E-006  0.1291666E+03  0.7546771E-02  0.1242749E+00
         -1   -1    0    0    0  501 -0.00000000000E+00  0.00000000000E+00  0.10348704314E+03  0.10348704314E+03  0.00000000000E+00 0.  1.
          1   -1    0    0  501    0  0.00000000000E+00 -0.00000000000E+00 -0.12521442120E+03  0.12521442120E+03  0.00000000000E+00 0. -1.
          5    1    1    2  502    0  0.39994483218E+02  0.26672125592E+02  0.22542272744E+02  0.53302955190E+02  0.47000000000E+01 0.  1.
         -5    1    1    2    0  502 -0.25835793724E+02 -0.55888872320E+02 -0.48324275430E+02  0.78411605534E+02  0.47000000000E+01 0.  1.
        -11    1    1    2    0    0  0.12853521744E+02  0.44584886207E+02 -0.26474716403E+02  0.53422239825E+02  0.00000000000E+00 0. -1.
         11    1    1    2    0    0 -0.27012211238E+02 -0.15368139478E+02  0.30529341032E+02  0.43564663787E+02  0.00000000000E+00 0.  1.
<mgrwt>
<rscale>  0 0.12021150E+03</rscale>
<asrwt>0</asrwt>
<pdfrwt beam="2">  1        1 0.19263757E-01 0.12916661E+03</pdfrwt>
<pdfrwt beam="1">  1       -1 0.15921084E-01 0.12916661E+03</pdfrwt>
<totfact> 0.73866498E+03</totfact>
</mgrwt>
</event>
<event>
 6    1  0.4705246E-006  0.1738233E+03  0.7546771E-02  0.1180879E+00
          2   -1    0    0  501    0  0.00000000000E+00  0.00000000000E+00  0.61019717783E+03  0.61019717783E+03  0.00000000000E+00 0. -1.
         -2   -1    0    0    0  501 -0.00000000000E+00 -0.00000000000E+00 -0.44306290162E+02  0.44306290162E+02  0.00000000000E+00 0.  1.
          5    1    1    2  502    0 -0.54316963056E+02  0.35891981362E+02  0.29823342342E+03  0.30529302587E+03  0.47000000000E+01 0. -1.
         -5    1    1    2    0  502 -0.63683292911E+02 -0.37811171021E+02  0.70512302332E+02  0.10236855587E+03  0.47000000000E+01 0.  1.
        -11    1    1    2    0    0  0.70254474687E+02 -0.14189172285E+02  0.40571245938E+02  0.82359272827E+02  0.00000000000E+00 0.  1.
         11    1    1    2    0    0  0.47745781280E+02  0.16108361944E+02  0.15657391598E+03  0.16448261342E+03  0.00000000000E+00 0. -1.
<mgrwt>
<rscale>  0 0.16712574E+03</rscale>
<asrwt>0</asrwt>
<pdfrwt beam="1">  1        2 0.93876483E-01 0.17382334E+03</pdfrwt>
<pdfrwt beam="2">  1       -2 0.68163527E-02 0.17382334E+03</pdfrwt>
<totfact> 0.58665094E+03</totfact>
</mgrwt>
</event>
<event>
 6    1  0.4705246E-006  0.1297330E+03  0.7546771E-02  0.1242781E+00
         -4   -1    0    0    0  501 -0.00000000000E+00  0.00000000000E+00  0.31476884156E+02  0.31476884156E+02  0.00000000000E+00 0.  1.
          4   -1    0    0  501    0  0.00000000000E+00 -0.00000000000E+00 -0.40894195109E+03  0.40894195109E+03  0.00000000000E+00 0. -1.
          5    1    1    2  502    0 -0.49615428684E+02 -0.42425812917E+02 -0.67252430889E+02  0.93843592353E+02  0.47000000000E+01 0. -1.
         -5    1    1    2    0  502  0.14857459329E+02  0.43153829103E+02 -0.17552789591E+03  0.18142527196E+03  0.47000000000E+01 0. -1.
        -11    1    1    2    0    0  0.35154503435E+02  0.15414140299E+02 -0.14223597334E+03  0.14732449540E+03  0.00000000000E+00 0. -1.
         11    1    1    2    0    0 -0.39653407916E+00 -0.16142156486E+02  0.75512331989E+01  0.17825475537E+02  0.00000000000E+00 0.  1.
<mgrwt>
<rscale>  0 0.12019149E+03</rscale>
<asrwt>0</asrwt>
<pdfrwt beam="2">  1        4 0.62914145E-01 0.12973304E+03</pdfrwt>
<pdfrwt beam="1">  1       -4 0.48425977E-02 0.12973304E+03</pdfrwt>
<totfact> 0.98789880E+02</totfact>
</mgrwt>
</event>
<event>
 6    1  0.4705246E-006  0.1293489E+03  0.7546771E-02  0.1243082E+00
         -1   -1    0    0    0  501 -0.00000000000E+00  0.00000000000E+00  0.14514024350E+03  0.14514024350E+03  0.00000000000E+00 0.  1.
          1   -1    0    0  501    0  0.00000000000E+00 -0.00000000000E+00 -0.88499299960E+02  0.88499299960E+02  0.00000000000E+00 0. -1.
          5    1    1    2  502    0  0.18013914486E+02  0.37836232705E+02 -0.24413087260E+02  0.48725459977E+02  0.47000000000E+01 0. -1.
         -5    1    1    2    0  502 -0.62784436784E+01 -0.68989683320E+02  0.43731457662E+02  0.82058062668E+02  0.47000000000E+01 0. -1.
        -11    1    1    2    0    0 -0.10484495918E+01 -0.22646380629E+02  0.42080728062E+02  0.47799011249E+02  0.00000000000E+00 0.  1.
         11    1    1    2    0    0 -0.10687021215E+02  0.53799831245E+02 -0.47581549209E+01  0.55057009569E+02  0.00000000000E+00 0. -1.
<mgrwt>
<rscale>  0 0.12000935E+03</rscale>
<asrwt>0</asrwt>
<pdfrwt beam="2">  1        1 0.13615277E-01 0.12934887E+03</pdfrwt>
<pdfrwt beam="1">  1       -1 0.22329268E-01 0.12934887E+03</pdfrwt>
<totfact> 0.67296988E+03</totfact>
</mgrwt>
</event>
<event>
 6    1  0.4705246E-006  0.2346717E+03  0.7546771E-02  0.1123394E+00
         -2   -1    0    0    0  501 -0.00000000000E+00  0.00000000000E+00  0.33927485272E+02  0.33927485272E+02  0.00000000000E+00 0. -1.
          2   -1    0    0  501    0  0.00000000000E+00 -0.00000000000E+00 -0.40579785181E+03  0.40579785181E+03  0.00000000000E+00 0.  1.
          5    1    1    2  502    0  0.11471557578E+02 -0.33931492491E+02 -0.15986427084E+03  0.16389514302E+03  0.47000000000E+01 0. -1.
         -5    1    1    2    0  502  0.58295780748E+01  0.72631911734E+02 -0.69861759388E+02  0.10105510382E+03  0.47000000000E+01 0. -1.
        -11    1    1    2    0    0  0.20123466520E+02 -0.29169444766E+02 -0.12931188899E+03  0.13407973391E+03  0.00000000000E+00 0.  1.
         11    1    1    2    0    0 -0.37424602173E+02 -0.95309744776E+01 -0.12832447322E+02  0.40695356327E+02  0.00000000000E+00 0. -1.
<mgrwt>
<rscale>  0 0.23467169E+03</rscale>
<asrwt>0</asrwt>
<pdfrwt beam="2">  1        2 0.62430439E-01 0.23467169E+03</pdfrwt>
<pdfrwt beam="1">  1       -2 0.52196131E-02 0.23467169E+03</pdfrwt>
<totfact> 0.14157472E+04</totfact>
</mgrwt>
</event>
<event>
 6    1  0.4705246E-006  0.1344354E+03  0.7546771E-02  0.1231498E+00
          1   -1    0    0  501    0  0.00000000000E+00  0.00000000000E+00  0.86274929244E+03  0.86274929244E+03  0.00000000000E+00 0. -1.
         -1   -1    0    0    0  501 -0.00000000000E+00 -0.00000000000E+00 -0.17197131163E+02  0.17197131163E+02  0.00000000000E+00 0.  1.
          5    1    1    2  502    0  0.25849920551E+02  0.53527803300E+02  0.37385002820E+03  0.37857545840E+03  0.47000000000E+01 0. -1.
         -5    1    1    2    0  502  0.23598890988E+02 -0.54945677978E+02  0.13486034588E+03  0.14759857071E+03  0.47000000000E+01 0. -1.
        -11    1    1    2    0    0  0.72782093510E+01 -0.38165777767E+02  0.11372819698E+03  0.12018195252E+03  0.00000000000E+00 0. -1.
         11    1    1    2    0    0 -0.56727020890E+02  0.39583652444E+02  0.22311359022E+03  0.23359044197E+03  0.00000000000E+00 0.  1.
<mgrwt>
<rscale>  0 0.12731326E+03</rscale>
<asrwt>0</asrwt>
<pdfrwt beam="1">  1        1 0.13273063E+00 0.13443535E+03</pdfrwt>
<pdfrwt beam="2">  1       -1 0.26457132E-02 0.13443535E+03</pdfrwt>
<totfact> 0.89476449E+03</totfact>
</mgrwt>
</event>
<event>
 6    1  0.4705246E-006  0.1458254E+03  0.7546771E-02  0.1215623E+00
         -2   -1    0    0    0  501 -0.00000000000E+00  0.00000000000E+00  0.44330357925E+02  0.44330357925E+02  0.00000000000E+00 0.  1.
          2   -1    0    0  501    0  0.00000000000E+00 -0.00000000000E+00 -0.43436294188E+03  0.43436294188E+03  0.00000000000E+00 0. -1.
          5    1    1    2  502    0  0.33509100460E+02 -0.33525277875E+02 -0.16102804017E+03  0.16792535184E+03  0.47000000000E+01 0. -1.
         -5    1    1    2    0  502  0.20013679845E+02  0.86224688117E+02 -0.12646678334E+03  0.15443827735E+03  0.47000000000E+01 0. -1.
        -11    1    1    2    0    0 -0.55889700166E+02  0.47050549944E+01 -0.29404770383E+02  0.63328008404E+02  0.00000000000E+00 0.  1.
         11    1    1    2    0    0  0.23669198615E+01 -0.57404465236E+02 -0.73132990057E+02  0.93001662207E+02  0.00000000000E+00 0. -1.
<mgrwt>
<rscale>  0 0.13830857E+03</rscale>
<asrwt>0</asrwt>
<pdfrwt beam="2">  1        2 0.66825067E-01 0.14582536E+03</pdfrwt>
<pdfrwt beam="1">  1       -2 0.68200552E-02 0.14582536E+03</pdfrwt>
<totfact> 0.84707831E+03</totfact>
</mgrwt>
</event>
<event>
 6    1  0.4705246E-006  0.3171576E+03  0.7546771E-02  0.1076965E+00
          1   -1    0    0  501    0  0.00000000000E+00  0.00000000000E+00  0.18180290189E+03  0.18180290189E+03  0.00000000000E+00 0. -1.
         -1   -1    0    0    0  501 -0.00000000000E+00 -0.00000000000E+00 -0.13832143546E+03  0.13832143546E+03  0.00000000000E+00 0.  1.
          5    1    1    2  502    0  0.11708270287E+03  0.19135241881E+02 -0.23445808153E+02  0.12102195137E+03  0.47000000000E+01 0.  1.
         -5    1    1    2    0  502 -0.24460055745E+02  0.21969131010E+02  0.22112085299E+02  0.39899515795E+02  0.47000000000E+01 0.  1.
        -11    1    1    2    0    0 -0.20725549314E+02 -0.35126503658E+02 -0.33457995459E+02  0.52752792473E+02  0.00000000000E+00 0.  1.
         11    1    1    2    0    0 -0.71897097811E+02 -0.59778692331E+01  0.78273184743E+02  0.10645007771E+03  0.00000000000E+00 0. -1.
<mgrwt>
<rscale>  0 0.31715762E+03</rscale>
<asrwt>0</asrwt>
<pdfrwt beam="1">  1        1 0.27969677E-01 0.31715762E+03</pdfrwt>
<pdfrwt beam="2">  1       -1 0.21280221E-01 0.31715762E+03</pdfrwt>
<totfact> 0.30169850E+03</totfact>
</mgrwt>
</event>
<event>
 6    1  0.4705246E-006  0.2181449E+03  0.7546771E-02  0.1138435E+00
         -2   -1    0    0    0  501 -0.00000000000E+00  0.00000000000E+00  0.36155315799E+03  0.36155315799E+03  0.00000000000E+00 0.  1.
          2   -1    0    0  501    0  0.00000000000E+00 -0.00000000000E+00 -0.29555664396E+03  0.29555664396E+03  0.00000000000E+00 0. -1.
          5    1    1    2  502    0 -0.86086492199E+02 -0.51669179190E+02 -0.90334583911E+02  0.13514072394E+03  0.47000000000E+01 0.  1.
         -5    1    1    2    0  502  0.21516146298E+02 -0.11504108221E+03 -0.12778037287E+03  0.17334159581E+03  0.47000000000E+01 0.  1.
        -11    1    1    2    0    0 -0.86482645302E+00  0.19991452316E+02 -0.23971163510E+01  0.20153219527E+02  0.00000000000E+00 0.  1.
         11    1    1    2    0    0  0.65435172354E+02  0.14671880908E+03  0.28650858716E+03  0.32847426267E+03  0.00000000000E+00 0. -1.
<mgrwt>
<rscale>  0 0.21400324E+03</rscale>
<asrwt>0</asrwt>
<pdfrwt beam="2">  1        2 0.45470253E-01 0.21814492E+03</pdfrwt>
<pdfrwt beam="1">  1       -2 0.55623563E-01 0.21814492E+03</pdfrwt>
<totfact> 0.34616411E+02</totfact>
</mgrwt>
</event>
<event>
 6    1  0.4705246E-006  0.1609275E+03  0.7546771E-02  0.1195164E+00
          1   -1    0    0  501    0  0.00000000000E+00  0.00000000000E+00  0.24940059387E+03  0.24940059387E+03  0.00000000000E+00 0. -1.
         -1   -1    0    0    0  501 -0.00000000000E+00 -0.00000000000E+00 -0.93909776482E+02  0.93909776482E+02  0.00000000000E+00 0.  1.
          5    1    1    2  502    0 -0.24968171717E+02 -0.33563775197E+02  0.13622743666E+03  0.14258310245E+03  0.47000000000E+01 0.  1.
         -5    1    1    2    0  502 -0.33772308838E+02 -0.49037720541E+02 -0.11744693903E+02  0.60871132032E+02  0.47000000000E+01 0.  1.
        -11    1    1    2    0    0  0.15093673672E+02  0.27865449299E+02 -0.32457562207E+02  0.45362931938E+02  0.00000000000E+00 0.  1.
         11    1    1    2    0    0  0.43646806882E+02  0.54736046438E+02  0.63465636836E+02  0.94493203934E+02  0.00000000000E+00 0. -1.
<mgrwt>
<rscale>  0 0.15440336E+03</rscale>
<asrwt>0</asrwt>
<pdfrwt beam="1">  1        1 0.38369322E-01 0.16092754E+03</pdfrwt>
<pdfrwt beam="2">  1       -1 0.14447658E-01 0.16092754E+03</pdfrwt>
<totfact> 0.36756084E+03</totfact>
</mgrwt>
</event>
<event>
 6    1  0.4705246E-006  0.3601039E+03  0.7546771E-02  0.1059599E+00
          2   -1    0    0  501    0  0.00000000000E+00  0.00000000000E+00  0.12887969955E+04  0.12887969955E+04  0.00000000000E+00 0. -1.
         -2   -1    0    0    0  501 -0.00000000000E+00 -0.00000000000E+00 -0.10375441070E+03  0.10375441070E+03  0.00000000000E+00 0.  1.
          5    1    1    2  502    0  0.53089632067E+02 -0.41712999420E+02  0.25058699070E+03  0.25956581682E+03  0.47000000000E+01 0. -1.
         -5    1    1    2    0  502  0.28054755368E+03 -0.10589064111E+02  0.51833320784E+03  0.58950018024E+03  0.47000000000E+01 0. -1.
        -11    1    1    2    0    0 -0.32037795001E+03  0.64369089377E+02  0.41052072274E+03  0.52470246265E+03  0.00000000000E+00 0. -1.
         11    1    1    2    0    0 -0.13259235739E+02 -0.12067025846E+02  0.56016635585E+01  0.18782946515E+02  0.00000000000E+00 0.  1.
<mgrwt>
<rscale>  0 0.35744809E+03</rscale>
<asrwt>0</asrwt>
<pdfrwt beam="1">  1        2 0.19827645E+00 0.36010387E+03</pdfrwt>
<pdfrwt beam="2">  1       -2 0.15962218E-01 0.36010387E+03</pdfrwt>
<totfact> 0.54685935E+02</totfact>
</mgrwt>
</event>
<event>
 6    1  0.4705246E-006  0.1335828E+03  0.7546771E-02  0.1235475E+00
         -1   -1    0    0    0  501 -0.00000000000E+00  0.00000000000E+00  0.15316121865E+03  0.15316121865E+03  0.00000000000E+00 0.  1.
          1   -1    0    0  501    0  0.00000000000E+00 -0.00000000000E+00 -0.10614861586E+03  0.10614861586E+03  0.00000000000E+00 0. -1.
          5    1    1    2  502    0 -0.20144572787E+02 -0.51671914378E+02 -0.52020254279E+02  0.76183905147E+02  0.47000000000E+01 0.  1.
         -5    1    1    2    0  502  0.49744518140E+02  0.15066412025E+02  0.28485777851E+02  0.59456230927E+02  0.47000000000E+01 0.  1.
        -11    1    1    2    0    0 -0.87832543003E+01 -0.54716362913E+01 -0.19525176992E+02  0.22097893483E+02  0.00000000000E+00 0. -1.
         11    1    1    2    0    0 -0.20816691053E+02  0.42077138645E+02  0.90072256213E+02  0.10157180496E+03  0.00000000000E+00 0.  1.
<mgrwt>
<rscale>  0 0.12474087E+03</rscale>
<asrwt>0</asrwt>
<pdfrwt beam="2">  1        1 0.16330556E-01 0.13358284E+03</pdfrwt>
<pdfrwt beam="1">  1       -1 0.23563264E-01 0.13358284E+03</pdfrwt>
<totfact> 0.48844193E+03</totfact>
</mgrwt>
</event>
<event>
 6    1  0.4705246E-006  0.1279368E+03  0.7546771E-02  0.1246663E+00
         -1   -1    0    0    0  501 -0.00000000000E+00  0.00000000000E+00  0.13774711659E+02  0.13774711659E+02  0.00000000000E+00 0.  1.
          1   -1    0    0  501    0  0.00000000000E+00 -0.00000000000E+00 -0.16989876079E+04  0.16989876079E+04  0.00000000000E+00 0. -1.
          5    1    1    2  502    0 -0.23835586084E+02 -0.62723388229E+02 -0.52939587399E+03  0.53365198397E+03  0.47000000000E+01 0. -1.
         -5    1    1    2    0  502  0.11524866509E+01  0.47623163304E+02 -0.97488752998E+03  0.97606202673E+03  0.47000000000E+01 0. -1.
        -11    1    1    2    0    0 -0.14089822189E+02 -0.28118524154E+02 -0.95015716715E+02  0.10008576778E+03  0.00000000000E+00 0. -1.
         11    1    1    2    0    0  0.36772921622E+02  0.43218749079E+02 -0.85913775591E+02  0.10296254112E+03  0.00000000000E+00 0.  1.
<mgrwt>
<rscale>  0 0.11786374E+03</rscale>
<asrwt>0</asrwt>
<pdfrwt beam="2">  1        1 0.26138250E+00 0.12793684E+03</pdfrwt>
<pdfrwt beam="1">  1       -1 0.21191881E-02 0.12793684E+03</pdfrwt>
<totfact> 0.33050365E+03</totfact>
</mgrwt>
</event>
<event>
 6    1  0.4705246E-006  0.3024072E+03  0.7546771E-02  0.1085218E+00
          1   -1    0    0  501    0  0.00000000000E+00  0.00000000000E+00  0.10837480646E+04  0.10837480646E+04  0.00000000000E+00 0. -1.
         -1   -1    0    0    0  501 -0.00000000000E+00 -0.00000000000E+00 -0.90895518810E+02  0.90895518810E+02  0.00000000000E+00 0.  1.
          5    1    1    2  502    0  0.10077941191E+03  0.34418575441E+02  0.36181261290E+03  0.37718905744E+03  0.47000000000E+01 0. -1.
         -5    1    1    2    0  502  0.17819882238E+03 -0.44661466090E+02  0.32740969482E+03  0.37545794054E+03  0.47000000000E+01 0.  1.
        -11    1    1    2    0    0 -0.13120125523E+03 -0.23627885317E+02  0.93286645100E+02  0.16270969391E+03  0.00000000000E+00 0. -1.
         11    1    1    2    0    0 -0.14777697906E+03  0.33870775966E+02  0.21034359294E+03  0.25928689149E+03  0.00000000000E+00 0.  1.
<mgrwt>
<rscale>  0 0.30004527E+03</rscale>
<asrwt>0</asrwt>
<pdfrwt beam="1">  1        1 0.16673046E+00 0.30240720E+03</pdfrwt>
<pdfrwt beam="2">  1       -1 0.13983927E-01 0.30240720E+03</pdfrwt>
<totfact> 0.49908248E+02</totfact>
</mgrwt>
</event>
<event>
 6    1  0.4705246E-006  0.2748837E+03  0.7546771E-02  0.1098517E+00
          1   -1    0    0  501    0  0.00000000000E+00  0.00000000000E+00  0.14066237701E+03  0.14066237701E+03  0.00000000000E+00 0. -1.
         -1   -1    0    0    0  501 -0.00000000000E+00 -0.00000000000E+00 -0.13429505291E+03  0.13429505291E+03  0.00000000000E+00 0.  1.
          5    1    1    2  502    0  0.44849503186E+02  0.91922635774E+02  0.39210002255E+02  0.10963924106E+03  0.47000000000E+01 0. -1.
         -5    1    1    2    0  502 -0.30837213571E+02 -0.25051190410E+02  0.12619112381E+02  0.41950302491E+02  0.47000000000E+01 0. -1.
        -11    1    1    2    0    0  0.23950889044E+02 -0.46310492643E+02 -0.58409943740E+02  0.78294497524E+02  0.00000000000E+00 0. -1.
         11    1    1    2    0    0 -0.37963178660E+02 -0.20560952722E+02  0.12948153200E+02  0.45073388846E+02  0.00000000000E+00 0.  1.
<mgrwt>
<rscale>  0 0.27488369E+03</rscale>
<asrwt>0</asrwt>
<pdfrwt beam="1">  1        1 0.21640366E-01 0.27488369E+03</pdfrwt>
<pdfrwt beam="2">  1       -1 0.20660777E-01 0.27488369E+03</pdfrwt>
<totfact> 0.43781954E+03</totfact>
</mgrwt>
</event>
<event>
 6    1  0.4705246E-006  0.1613768E+03  0.7546771E-02  0.1194779E+00
          1   -1    0    0  501    0  0.00000000000E+00  0.00000000000E+00  0.40064361803E+02  0.40064361803E+02  0.00000000000E+00 0. -1.
         -1   -1    0    0    0  501 -0.00000000000E+00 -0.00000000000E+00 -0.55438744209E+03  0.55438744209E+03  0.00000000000E+00 0.  1.
          5    1    1    2  502    0 -0.93204353469E+01 -0.56713878605E+02 -0.12083590421E+03  0.13389077745E+03  0.47000000000E+01 0.  1.
         -5    1    1    2    0  502 -0.92135983031E+02  0.45682384470E+02 -0.17128692017E+03  0.19984298497E+03  0.47000000000E+01 0.  1.
        -11    1    1    2    0    0 -0.24989360445E+01 -0.15540794688E+02 -0.85502193948E+02  0.86938979467E+02  0.00000000000E+00 0.  1.
         11    1    1    2    0    0  0.10395535442E+03  0.26572288823E+02 -0.13669806196E+03  0.17377906200E+03  0.00000000000E+00 0. -1.
<mgrwt>
<rscale>  0 0.15472937E+03</rscale>
<asrwt>0</asrwt>
<pdfrwt beam="1">  1        1 0.61637482E-02 0.16137683E+03</pdfrwt>
<pdfrwt beam="2">  1       -1 0.85290372E-01 0.16137683E+03</pdfrwt>
<totfact> 0.17407356E+03</totfact>
</mgrwt>
</event>
<event>
 6    1  0.4705246E-006  0.1305710E+03  0.7546771E-02  0.1240074E+00
          2   -1    0    0  501    0  0.00000000000E+00  0.00000000000E+00  0.64044903888E+03  0.64044903888E+03  0.00000000000E+00 0. -1.
         -2   -1    0    0    0  501 -0.00000000000E+00 -0.00000000000E+00 -0.22175865917E+02  0.22175865917E+02  0.00000000000E+00 0.  1.
          5    1    1    2  502    0 -0.63007977313E+02 -0.11333312156E+02  0.22755832293E+03  0.23643884940E+03  0.47000000000E+01 0. -1.
         -5    1    1    2    0  502  0.60538030959E+02 -0.26326387537E+02  0.20912498909E+03  0.21934740239E+03  0.47000000000E+01 0. -1.
        -11    1    1    2    0    0  0.38623735459E+02 -0.19869947204E+01  0.41022808095E+02  0.56379179427E+02  0.00000000000E+00 0.  1.
         11    1    1    2    0    0 -0.36153789106E+02  0.39646694413E+02  0.14056705285E+03  0.15045947359E+03  0.00000000000E+00 0. -1.
<mgrwt>
<rscale>  0 0.12185099E+03</rscale>
<asrwt>0</asrwt>
<pdfrwt beam="1">  1        2 0.98530607E-01 0.13057102E+03</pdfrwt>
<pdfrwt beam="2">  1       -2 0.34116722E-02 0.13057102E+03</pdfrwt>
<totfact> 0.15434471E+04</totfact>
</mgrwt>
</event>
<event>
 6    1  0.4705246E-006  0.1414714E+03  0.7546771E-02  0.1221959E+00
          2   -1    0    0  501    0  0.00000000000E+00  0.00000000000E+00  0.11748725390E+04  0.11748725390E+04  0.00000000000E+00 0. -1.
         -2   -1    0    0    0  501 -0.00000000000E+00 -0.00000000000E+00 -0.20979323147E+02  0.20979323147E+02  0.00000000000E+00 0.  1.
          5    1    1    2  502    0  0.68893278662E+01 -0.44423811366E+02  0.10501383953E+03  0.11432818702E+03  0.47000000000E+01 0.  1.
         -5    1    1    2    0  502 -0.38213735200E+02 -0.13953916570E+02  0.86275006362E+03  0.86372146183E+03  0.47000000000E+01 0.  1.
        -11    1    1    2    0    0  0.27067921679E+02  0.37734186932E+02  0.19066760980E+03  0.19624137859E+03  0.00000000000E+00 0. -1.
         11    1    1    2    0    0  0.42564856548E+01  0.20643541004E+02 -0.45382970404E+01  0.21560834755E+02  0.00000000000E+00 0.  1.
<mgrwt>
<rscale>  0 0.13377527E+03</rscale>
<asrwt>0</asrwt>
<pdfrwt beam="1">  1        2 0.18074957E+00 0.14147135E+03</pdfrwt>
<pdfrwt beam="2">  1       -2 0.32275891E-02 0.14147135E+03</pdfrwt>
<totfact> 0.76424345E+03</totfact>
</mgrwt>
</event>
<event>
 6    1  0.4705246E-006  0.1688555E+03  0.7546771E-02  0.1185740E+00
         -1   -1    0    0    0  501 -0.00000000000E+00  0.00000000000E+00  0.88707610675E+02  0.88707610675E+02  0.00000000000E+00 0.  1.
          1   -1    0    0  501    0  0.00000000000E+00 -0.00000000000E+00 -0.28678433588E+03  0.28678433588E+03  0.00000000000E+00 0. -1.
          5    1    1    2  502    0  0.13436563203E+02 -0.13392640627E+03 -0.12343087276E+03  0.18268577907E+03  0.47000000000E+01 0. -1.
         -5    1    1    2    0  502 -0.24254539987E+02  0.20924032637E+02 -0.15098049876E+02  0.35723087238E+02  0.47000000000E+01 0. -1.
        -11    1    1    2    0    0 -0.33449723346E+02  0.21720445937E+02 -0.88330663728E+00  0.39892881498E+02  0.00000000000E+00 0. -1.
         11    1    1    2    0    0  0.44267700129E+02  0.91281927693E+02 -0.58664495933E+02  0.11719019874E+03  0.00000000000E+00 0.  1.
<mgrwt>
<rscale>  0 0.16264721E+03</rscale>
<asrwt>0</asrwt>
<pdfrwt beam="2">  1        1 0.44120666E-01 0.16885547E+03</pdfrwt>
<pdfrwt beam="1">  1       -1 0.13647325E-01 0.16885547E+03</pdfrwt>
<totfact> 0.33855393E+03</totfact>
</mgrwt>
</event>
<event>
 6    1  0.4705246E-006  0.1878061E+03  0.7546771E-02  0.1166620E+00
          2   -1    0    0  501    0  0.00000000000E+00  0.00000000000E+00  0.40278525302E+03  0.40278525302E+03  0.00000000000E+00 0. -1.
         -2   -1    0    0    0  501 -0.00000000000E+00 -0.00000000000E+00 -0.76930593384E+02  0.76930593384E+02  0.00000000000E+00 0.  1.
          5    1    1    2  502    0 -0.31743152771E+02 -0.40010726594E+02  0.10306402647E+03  0.11512067383E+03  0.47000000000E+01 0.  1.
         -5    1    1    2    0  502 -0.10559939486E+03  0.67985826339E+02  0.92747356574E+02  0.15619688514E+03  0.47000000000E+01 0.  1.
        -11    1    1    2    0    0  0.50925327087E+02 -0.85125858180E+01  0.70863187502E+00  0.51636762247E+02  0.00000000000E+00 0.  1.
         11    1    1    2    0    0  0.86417220540E+02 -0.19462513928E+02  0.12933464471E+03  0.15676152518E+03  0.00000000000E+00 0. -1.
<mgrwt>
<rscale>  0 0.18122830E+03</rscale>
<asrwt>0</asrwt>
<pdfrwt beam="1">  1        2 0.61966961E-01 0.18780607E+03</pdfrwt>
<pdfrwt beam="2">  1       -2 0.11835476E-01 0.18780607E+03</pdfrwt>
<totfact> 0.39285063E+03</totfact>
</mgrwt>
</event>
<event>
 6    1  0.4705246E-006  0.1504985E+03  0.7546771E-02  0.1208255E+00
          1   -1    0    0  501    0  0.00000000000E+00  0.00000000000E+00  0.20728777780E+03  0.20728777780E+03  0.00000000000E+00 0. -1.
         -1   -1    0    0    0  501 -0.00000000000E+00 -0.00000000000E+00 -0.10443944147E+03  0.10443944147E+03  0.00000000000E+00 0.  1.
          5    1    1    2  502    0 -0.68517345901E+01 -0.31800078641E+02  0.34371020332E+02  0.47556790337E+02  0.47000000000E+01 0.  1.
         -5    1    1    2    0  502  0.28310989258E+02  0.11282042317E+03  0.74903014203E+02  0.13842872366E+03  0.47000000000E+01 0.  1.
        -11    1    1    2    0    0 -0.34293039354E+02 -0.56185411848E+02 -0.43803233775E+02  0.79066657586E+02  0.00000000000E+00 0.  1.
         11    1    1    2    0    0  0.12833784686E+02 -0.24834932685E+02  0.37377535576E+02  0.46675047687E+02  0.00000000000E+00 0. -1.
<mgrwt>
<rscale>  0 0.14383911E+03</rscale>
<asrwt>0</asrwt>
<pdfrwt beam="1">  1        1 0.31890427E-01 0.15049849E+03</pdfrwt>
<pdfrwt beam="2">  1       -1 0.16067606E-01 0.15049849E+03</pdfrwt>
<totfact> 0.39003869E+03</totfact>
</mgrwt>
</event>
<event>
 6    1  0.4705246E-006  0.1631980E+03  0.7546771E-02  0.1192350E+00
          4   -1    0    0  501    0  0.00000000000E+00  0.00000000000E+00  0.29503416274E+03  0.29503416274E+03  0.00000000000E+00 0. -1.
         -4   -1    0    0    0  501 -0.00000000000E+00 -0.00000000000E+00 -0.94902583177E+02  0.94902583177E+02  0.00000000000E+00 0.  1.
          5    1    1    2  502    0  0.86496332485E+02  0.28625045015E+02  0.16280197935E+03  0.18662149720E+03  0.47000000000E+01 0.  1.
         -5    1    1    2    0  502  0.14918657348E+02 -0.55607736724E+02  0.27207214330E+02  0.63852245318E+02  0.47000000000E+01 0.  1.
        -11    1    1    2    0    0 -0.18421107788E+02  0.49173474463E+02  0.10513390758E+02  0.53552770126E+02  0.00000000000E+00 0.  1.
         11    1    1    2    0    0 -0.82993882045E+02 -0.22190782754E+02 -0.39100488113E+00  0.85910233272E+02  0.00000000000E+00 0. -1.
<mgrwt>
<rscale>  0 0.15680656E+03</rscale>
<asrwt>0</asrwt>
<pdfrwt beam="1">  1        4 0.45389871E-01 0.16319805E+03</pdfrwt>
<pdfrwt beam="2">  1       -4 0.14600398E-01 0.16319805E+03</pdfrwt>
<totfact> 0.32110120E+02</totfact>
</mgrwt>
</event>
<event>
 6    1  0.4705246E-006  0.3830977E+03  0.7546771E-02  0.1049795E+00
         -1   -1    0    0    0  501 -0.00000000000E+00  0.00000000000E+00  0.58144309719E+02  0.58144309719E+02  0.00000000000E+00 0.  1.
          1   -1    0    0  501    0  0.00000000000E+00 -0.00000000000E+00 -0.63103284968E+03  0.63103284968E+03  0.00000000000E+00 0. -1.
          5    1    1    2  502    0  0.10503172584E+03 -0.20963798330E+01 -0.51822199211E+03  0.52878368105E+03  0.47000000000E+01 0. -1.
         -5    1    1    2    0  502 -0.26591255833E+02  0.68903625553E+01 -0.40285413206E+02  0.48985472338E+02  0.47000000000E+01 0.  1.
        -11    1    1    2    0    0 -0.25485160879E+02 -0.34413210167E+02 -0.25328652342E+02  0.49752417916E+02  0.00000000000E+00 0. -1.
         11    1    1    2    0    0 -0.52955309132E+02  0.29619227445E+02  0.10947517694E+02  0.61655588095E+02  0.00000000000E+00 0.  1.
<mgrwt>
<rscale>  0 0.38309774E+03</rscale>
<asrwt>0</asrwt>
<pdfrwt beam="2">  1        1 0.97081983E-01 0.38309774E+03</pdfrwt>
<pdfrwt beam="1">  1       -1 0.89452778E-02 0.38309774E+03</pdfrwt>
<totfact> 0.23821540E+03</totfact>
</mgrwt>
</event>
<event>
 6    1  0.4705246E-006  0.1413671E+03  0.7546771E-02  0.1221987E+00
          2   -1    0    0  501    0  0.00000000000E+00  0.00000000000E+00  0.17191957624E+03  0.17191957624E+03  0.00000000000E+00 0. -1.
         -2   -1    0    0    0  501 -0.00000000000E+00 -0.00000000000E+00 -0.96974055670E+02  0.96974055670E+02  0.00000000000E+00 0.  1.
          5    1    1    2  502    0  0.66211614067E+02 -0.75595584561E+02  0.50225101570E+02  0.11244252341E+03  0.47000000000E+01 0.  1.
         -5    1    1    2    0  502 -0.11544160758E+02  0.38453213220E+02  0.13434723670E+02  0.42596937151E+02  0.47000000000E+01 0.  1.
        -11    1    1    2    0    0 -0.28585787613E+02 -0.11038865269E+02 -0.31794625250E+02  0.44157694626E+02  0.00000000000E+00 0.  1.
         11    1    1    2    0    0 -0.26081665696E+02  0.48181236611E+02  0.43080320579E+02  0.69696476726E+02  0.00000000000E+00 0. -1.
<mgrwt>
<rscale>  0 0.13375576E+03</rscale>
<asrwt>0</asrwt>
<pdfrwt beam="1">  1        2 0.26449166E-01 0.14136711E+03</pdfrwt>
<pdfrwt beam="2">  1       -2 0.14919085E-01 0.14136711E+03</pdfrwt>
<totfact> 0.66417862E+03</totfact>
</mgrwt>
</event>
<event>
 6    1  0.4705246E-006  0.1517706E+03  0.7546771E-02  0.1208075E+00
         -2   -1    0    0    0  501 -0.00000000000E+00  0.00000000000E+00  0.11879765275E+02  0.11879765275E+02  0.00000000000E+00 0.  1.
          2   -1    0    0  501    0  0.00000000000E+00 -0.00000000000E+00 -0.21220146073E+04  0.21220146073E+04  0.00000000000E+00 0. -1.
          5    1    1    2  502    0  0.45667466853E+02 -0.74113524304E+02 -0.78284986221E+03  0.78768923363E+03  0.47000000000E+01 0.  1.
         -5    1    1    2    0  502 -0.59027674834E+02 -0.10913734051E+02 -0.88824336438E+03  0.89028183197E+03  0.47000000000E+01 0.  1.
        -11    1    1    2    0    0  0.15258637713E+02  0.33147202043E+01 -0.86720107764E+01  0.17861051643E+02  0.00000000000E+00 0.  1.
         11    1    1    2    0    0 -0.18984297317E+01  0.81712538150E+02 -0.43036960468E+03  0.43806225535E+03  0.00000000000E+00 0. -1.
<mgrwt>
<rscale>  0 0.14397714E+03</rscale>
<asrwt>0</asrwt>
<pdfrwt beam="2">  1        2 0.32646333E+00 0.15177063E+03</pdfrwt>
<pdfrwt beam="1">  1       -2 0.18276588E-02 0.15177063E+03</pdfrwt>
<totfact> 0.56268905E+03</totfact>
</mgrwt>
</event>
<event>
 6    1  0.4705246E-006  0.3168815E+03  0.7546771E-02  0.1077094E+00
          3   -1    0    0  501    0  0.00000000000E+00  0.00000000000E+00  0.36014112057E+02  0.36014112057E+02  0.00000000000E+00 0. -1.
         -3   -1    0    0    0  501 -0.00000000000E+00 -0.00000000000E+00 -0.69704524247E+03  0.69704524247E+03  0.00000000000E+00 0.  1.
          5    1    1    2  502    0 -0.11534821090E+02 -0.25720977878E+02 -0.15738081907E+03  0.15995447169E+03  0.47000000000E+01 0.  1.
         -5    1    1    2    0  502 -0.90963341773E+02  0.65711764366E+02 -0.12650948887E+03  0.16917182478E+03  0.47000000000E+01 0.  1.
        -11    1    1    2    0    0  0.39906014288E+02  0.29243113449E+02 -0.16284164114E+03  0.17019121526E+03  0.00000000000E+00 0. -1.
         11    1    1    2    0    0  0.62592148574E+02 -0.69233899938E+02 -0.21429918133E+03  0.23374184281E+03  0.00000000000E+00 0.  1.
<mgrwt>
<rscale>  0 0.31688146E+03</rscale>
<asrwt>0</asrwt>
<pdfrwt beam="1">  1        3 0.55406330E-02 0.31688146E+03</pdfrwt>
<pdfrwt beam="2">  1       -3 0.10723772E+00 0.31688146E+03</pdfrwt>
<totfact> 0.38201948E+02</totfact>
</mgrwt>
</event>
<event>
 6    1  0.4705246E-006  0.1640494E+03  0.7546771E-02  0.1191071E+00
          2   -1    0    0  501    0  0.00000000000E+00  0.00000000000E+00  0.82965243817E+03  0.82965243817E+03  0.00000000000E+00 0. -1.
         -2   -1    0    0    0  501 -0.00000000000E+00 -0.00000000000E+00 -0.29642768793E+02  0.29642768793E+02  0.00000000000E+00 0.  1.
          5    1    1    2  502    0  0.21791986250E+02 -0.56836847323E+02  0.21368807652E+03  0.22223861484E+03  0.47000000000E+01 0. -1.
         -5    1    1    2    0  502 -0.10174970796E+03 -0.13116586978E+02  0.31553051467E+03  0.33182321138E+03  0.47000000000E+01 0. -1.
        -11    1    1    2    0    0 -0.19285050685E+01 -0.12095369614E+02  0.18671210443E+01  0.12389642403E+02  0.00000000000E+00 0.  1.
         11    1    1    2    0    0  0.81886226777E+02  0.82048803914E+02  0.26892395714E+03  0.29284373834E+03  0.00000000000E+00 0. -1.
<mgrwt>
<rscale>  0 0.15791469E+03</rscale>
<asrwt>0</asrwt>
<pdfrwt beam="1">  1        2 0.12763882E+00 0.16404935E+03</pdfrwt>
<pdfrwt beam="2">  1       -2 0.45604266E-02 0.16404935E+03</pdfrwt>
<totfact> 0.74339900E+03</totfact>
</mgrwt>
</event>
<event>
 6    1  0.4705246E-006  0.1404328E+03  0.7546771E-02  0.1223315E+00
         -1   -1    0    0    0  501 -0.00000000000E+00  0.00000000000E+00  0.12698437469E+03  0.12698437469E+03  0.00000000000E+00 0.  1.
          1   -1    0    0  501    0  0.00000000000E+00 -0.00000000000E+00 -0.15145819757E+03  0.15145819757E+03  0.00000000000E+00 0. -1.
          5    1    1    2  502    0  0.77585112342E+01  0.31873194790E+02 -0.81938740611E+02  0.88386323917E+02  0.47000000000E+01 0. -1.
         -5    1    1    2    0  502  0.55973539102E+02 -0.37742388918E+02  0.11627906684E+02  0.68664570301E+02  0.47000000000E+01 0. -1.
        -11    1    1    2    0    0 -0.53270342159E+02  0.45057575101E+02  0.39970979150E+02  0.80408914941E+02  0.00000000000E+00 0. -1.
         11    1    1    2    0    0 -0.10461708176E+02 -0.39188380972E+02  0.58660319045E+01  0.40982763102E+02  0.00000000000E+00 0.  1.
<mgrwt>
<rscale>  0 0.13283053E+03</rscale>
<asrwt>0</asrwt>
<pdfrwt beam="2">  1        1 0.23301261E-01 0.14043280E+03</pdfrwt>
<pdfrwt beam="1">  1       -1 0.19536058E-01 0.14043280E+03</pdfrwt>
<totfact> 0.42178707E+03</totfact>
</mgrwt>
</event>
<event>
 6    1  0.4705246E-006  0.1507337E+03  0.7546771E-02  0.1208839E+00
          1   -1    0    0  501    0  0.00000000000E+00  0.00000000000E+00  0.13010368823E+03  0.13010368823E+03  0.00000000000E+00 0. -1.
         -1   -1    0    0    0  501 -0.00000000000E+00 -0.00000000000E+00 -0.17830352607E+03  0.17830352607E+03  0.00000000000E+00 0.  1.
          5    1    1    2  502    0 -0.63785479054E+02 -0.50187628032E+02 -0.14082378481E+02  0.82509325105E+02  0.47000000000E+01 0.  1.
         -5    1    1    2    0  502 -0.20259680162E+02  0.44421234578E+02  0.54970032127E+02  0.73671535573E+02  0.47000000000E+01 0.  1.
        -11    1    1    2    0    0  0.42732491329E+02 -0.16839189873E+02 -0.94255194953E+02  0.10485068386E+03  0.00000000000E+00 0.  1.
         11    1    1    2    0    0  0.41312667887E+02  0.22605583327E+02  0.51677034710E+01  0.47375669754E+02  0.00000000000E+00 0. -1.
<mgrwt>
<rscale>  0 0.14338963E+03</rscale>
<asrwt>0</asrwt>
<pdfrwt beam="1">  1        1 0.20015952E-01 0.15073374E+03</pdfrwt>
<pdfrwt beam="2">  1       -1 0.27431312E-01 0.15073374E+03</pdfrwt>
<totfact> 0.29491224E+03</totfact>
</mgrwt>
</event>
<event>
 6    1  0.4705246E-006  0.1265667E+03  0.7546771E-02  0.1247431E+00
          1   -1    0    0  501    0  0.00000000000E+00  0.00000000000E+00  0.36814680592E+03  0.36814680592E+03  0.00000000000E+00 0. -1.
         -1   -1    0    0    0  501 -0.00000000000E+00 -0.00000000000E+00 -0.33382149139E+02  0.33382149139E+02  0.00000000000E+00 0.  1.
          5    1    1    2  502    0 -0.51046143986E+02 -0.32123563079E+02  0.10272659612E+03  0.11921608814E+03  0.47000000000E+01 0.  1.
         -5    1    1    2    0  502  0.63725315082E+02  0.16803406951E+02  0.11173482718E+03  0.12980767263E+03  0.47000000000E+01 0.  1.
        -11    1    1    2    0    0 -0.13054543199E+02 -0.35130835519E+02  0.78488401821E+02  0.86977157477E+02  0.00000000000E+00 0.  1.
         11    1    1    2    0    0  0.37537210357E+00  0.50450991648E+02  0.41814831662E+02  0.65528036819E+02  0.00000000000E+00 0. -1.
<mgrwt>
<rscale>  0 0.11741055E+03</rscale>
<asrwt>0</asrwt>
<pdfrwt beam="1">  1        1 0.56637967E-01 0.12656671E+03</pdfrwt>
<pdfrwt beam="2">  1       -1 0.51357155E-02 0.12656671E+03</pdfrwt>
<totfact> 0.10736467E+04</totfact>
</mgrwt>
</event>
<event>
 6    1  0.4705246E-006  0.4297809E+03  0.7546771E-02  0.1033929E+00
          2   -1    0    0  501    0  0.00000000000E+00  0.00000000000E+00  0.10180790593E+04  0.10180790593E+04  0.00000000000E+00 0. -1.
         -2   -1    0    0    0  501 -0.00000000000E+00 -0.00000000000E+00 -0.45357869303E+02  0.45357869303E+02  0.00000000000E+00 0.  1.
          5    1    1    2  502    0  0.27444924966E+01  0.23121466937E+02  0.31360581545E+03  0.31450410483E+03  0.47000000000E+01 0.  1.
         -5    1    1    2    0  502  0.12871292126E+03 -0.61728536427E+02  0.50200619597E+03  0.52192886402E+03  0.47000000000E+01 0.  1.
        -11    1    1    2    0    0 -0.40348603353E+02 -0.29517415795E+02  0.44396963180E+02  0.66860885182E+02  0.00000000000E+00 0.  1.
         11    1    1    2    0    0 -0.91108810404E+02  0.68124485284E+02  0.11271221537E+03  0.16014307453E+03  0.00000000000E+00 0. -1.
<mgrwt>
<rscale>  0 0.42978086E+03</rscale>
<asrwt>0</asrwt>
<pdfrwt beam="1">  1        2 0.15662753E+00 0.42978086E+03</pdfrwt>
<pdfrwt beam="2">  1       -2 0.69781345E-02 0.42978086E+03</pdfrwt>
<totfact> 0.30066089E+03</totfact>
</mgrwt>
</event>
<event>
 6    1  0.4705246E-006  0.1309344E+03  0.7546771E-02  0.1239439E+00
          1   -1    0    0  501    0  0.00000000000E+00  0.00000000000E+00  0.26695063983E+03  0.26695063983E+03  0.00000000000E+00 0. -1.
         -1   -1    0    0    0  501 -0.00000000000E+00 -0.00000000000E+00 -0.49732948349E+02  0.49732948349E+02  0.00000000000E+00 0.  1.
          5    1    1    2  502    0 -0.59355229762E+01  0.68884546247E+02  0.11799372431E+03  0.13683902996E+03  0.47000000000E+01 0. -1.
         -5    1    1    2    0  502  0.25805382335E+02 -0.35342575519E+02  0.77361188204E+01  0.44687279355E+02  0.47000000000E+01 0. -1.
        -11    1    1    2    0    0  0.21709851324E+02  0.11205365846E+02  0.63363190814E+02  0.67910027378E+02  0.00000000000E+00 0. -1.
         11    1    1    2    0    0 -0.41579710682E+02 -0.44747336575E+02  0.28124657541E+02  0.67247251489E+02  0.00000000000E+00 0.  1.
<mgrwt>
<rscale>  0 0.12224489E+03</rscale>
<asrwt>0</asrwt>
<pdfrwt beam="1">  1        1 0.41069328E-01 0.13093436E+03</pdfrwt>
<pdfrwt beam="2">  1       -1 0.76512230E-02 0.13093436E+03</pdfrwt>
<totfact> 0.88491338E+03</totfact>
</mgrwt>
</event>
<event>
 6    1  0.4705246E-006  0.1539166E+03  0.7546771E-02  0.1204271E+00
         -2   -1    0    0    0  501 -0.00000000000E+00  0.00000000000E+00  0.24388321518E+02  0.24388321518E+02  0.00000000000E+00 0. -1.
          2   -1    0    0  501    0  0.00000000000E+00 -0.00000000000E+00 -0.82872101282E+03  0.82872101282E+03  0.00000000000E+00 0.  1.
          5    1    1    2  502    0  0.79230349676E+01 -0.36713511526E+02 -0.15563497243E+02  0.40926383399E+02  0.47000000000E+01 0. -1.
         -5    1    1    2    0  502 -0.25016409854E+02 -0.51460059008E+02 -0.36659439600E+03  0.37106266265E+03  0.47000000000E+01 0. -1.
        -11    1    1    2    0    0 -0.37430401478E+02  0.29245472107E+02 -0.16565724572E+03  0.17233297901E+03  0.00000000000E+00 0.  1.
         11    1    1    2    0    0  0.54523776364E+02  0.58928098427E+02 -0.25651755234E+03  0.26878730928E+03  0.00000000000E+00 0. -1.
<mgrwt>
<rscale>  0 0.14695089E+03</rscale>
<asrwt>0</asrwt>
<pdfrwt beam="2">  1        2 0.12749553E+00 0.15391660E+03</pdfrwt>
<pdfrwt beam="1">  1       -2 0.37520497E-02 0.15391660E+03</pdfrwt>
<totfact> 0.99311424E+03</totfact>
</mgrwt>
</event>
<event>
 6    1  0.4705246E-006  0.1390386E+03  0.7546771E-02  0.1223654E+00
         -2   -1    0    0    0  501 -0.00000000000E+00  0.00000000000E+00  0.97417637023E+02  0.97417637023E+02  0.00000000000E+00 0.  1.
          2   -1    0    0  501    0  0.00000000000E+00 -0.00000000000E+00 -0.17878732194E+03  0.17878732194E+03  0.00000000000E+00 0. -1.
          5    1    1    2  502    0 -0.13045712935E+02  0.89237313285E+02 -0.48562771505E+02  0.10253741505E+03  0.47000000000E+01 0.  1.
         -5    1    1    2    0  502 -0.24704561921E+02 -0.41465614596E+02 -0.33007370908E+02  0.58662501718E+02  0.47000000000E+01 0.  1.
        -11    1    1    2    0    0  0.54243057626E+02 -0.68077799980E+02  0.87482661971E+01  0.87483874584E+02  0.00000000000E+00 0.  1.
         11    1    1    2    0    0 -0.16492782770E+02  0.20306101291E+02 -0.85478086999E+01  0.27521167612E+02  0.00000000000E+00 0. -1.
<mgrwt>
<rscale>  0 0.13259603E+03</rscale>
<asrwt>0</asrwt>
<pdfrwt beam="2">  1        2 0.27505742E-01 0.13903857E+03</pdfrwt>
<pdfrwt beam="1">  1       -2 0.14987329E-01 0.13903857E+03</pdfrwt>
<totfact> 0.63085498E+03</totfact>
</mgrwt>
</event>
<event>
 6    1  0.4705246E-006  0.1752324E+03  0.7546771E-02  0.1178494E+00
          2   -1    0    0  501    0  0.00000000000E+00  0.00000000000E+00  0.11553338380E+04  0.11553338380E+04  0.00000000000E+00 0. -1.
         -2   -1    0    0    0  501 -0.00000000000E+00 -0.00000000000E+00 -0.28537859378E+02  0.28537859378E+02  0.00000000000E+00 0.  1.
          5    1    1    2  502    0  0.56018713357E+02  0.34630250442E+02  0.23255662822E+03  0.24174785587E+03  0.47000000000E+01 0. -1.
         -5    1    1    2    0  502 -0.54989128590E+02  0.88167795713E+02  0.61494028391E+03  0.62367540214E+03  0.47000000000E+01 0. -1.
        -11    1    1    2    0    0  0.25831093043E+02 -0.39151589028E+02  0.34113522856E+02  0.57998489057E+02  0.00000000000E+00 0.  1.
         11    1    1    2    0    0 -0.26860677811E+02 -0.83646457126E+02  0.24518554360E+03  0.26044995026E+03  0.00000000000E+00 0. -1.
<mgrwt>
<rscale>  0 0.16938157E+03</rscale>
<asrwt>0</asrwt>
<pdfrwt beam="1">  1        2 0.17774363E+00 0.17523242E+03</pdfrwt>
<pdfrwt beam="2">  1       -2 0.43904408E-02 0.17523242E+03</pdfrwt>
<totfact> 0.49970124E+03</totfact>
</mgrwt>
</event>
<event>
 6    1  0.4705246E-006  0.1271057E+03  0.7546771E-02  0.1245958E+00
          4   -1    0    0  501    0  0.00000000000E+00  0.00000000000E+00  0.18313052461E+03  0.18313052461E+03  0.00000000000E+00 0. -1.
         -4   -1    0    0    0  501 -0.00000000000E+00 -0.00000000000E+00 -0.70120347258E+02  0.70120347258E+02  0.00000000000E+00 0.  1.
          5    1    1    2  502    0 -0.22864299248E+02 -0.24462443307E+02 -0.32632060128E+02  0.46990729520E+02  0.47000000000E+01 0. -1.
         -5    1    1    2    0  502  0.43696466069E+02  0.14596536049E+02  0.72855530230E+02  0.86327621864E+02  0.47000000000E+01 0. -1.
        -11    1    1    2    0    0 -0.32024305344E+01  0.38571379757E+02 -0.11095876280E+01  0.38719995899E+02  0.00000000000E+00 0.  1.
         11    1    1    2    0    0 -0.17629736287E+02 -0.28705472499E+02  0.73896294876E+02  0.81212524584E+02  0.00000000000E+00 0. -1.
<mgrwt>
<rscale>  0 0.11828230E+03</rscale>
<asrwt>0</asrwt>
<pdfrwt beam="1">  1        4 0.28173927E-01 0.12710569E+03</pdfrwt>
<pdfrwt beam="2">  1       -4 0.10787746E-01 0.12710569E+03</pdfrwt>
<totfact> 0.12976181E+03</totfact>
</mgrwt>
</event>
<event>
 6    1  0.4705246E-006  0.1269870E+03  0.7546771E-02  0.1247347E+00
         -2   -1    0    0    0  501 -0.00000000000E+00  0.00000000000E+00  0.90544328186E+02  0.90544328186E+02  0.00000000000E+00 0.  1.
          2   -1    0    0  501    0  0.00000000000E+00 -0.00000000000E+00 -0.13603445321E+03  0.13603445321E+03  0.00000000000E+00 0. -1.
          5    1    1    2  502    0 -0.38733269403E+01  0.40624181741E+02 -0.55242770120E+02  0.68841705776E+02  0.47000000000E+01 0. -1.
         -5    1    1    2    0  502  0.98503854102E+01 -0.62206287826E+02  0.13971912705E+02  0.64683511674E+02  0.47000000000E+01 0. -1.
        -11    1    1    2    0    0 -0.43934704112E+02 -0.80303395370E+01 -0.46973411198E+01  0.44908903261E+02  0.00000000000E+00 0.  1.
         11    1    1    2    0    0  0.37957645642E+02  0.29612445622E+02  0.47807350828E+00  0.48144660688E+02  0.00000000000E+00 0. -1.
<mgrwt>
<rscale>  0 0.11746027E+03</rscale>
<asrwt>0</asrwt>
<pdfrwt beam="2">  1        2 0.20928377E-01 0.12698701E+03</pdfrwt>
<pdfrwt beam="1">  1       -2 0.13929897E-01 0.12698701E+03</pdfrwt>
<totfact> 0.95530510E+03</totfact>
</mgrwt>
</event>
<event>
 6    1  0.4705246E-006  0.1532152E+03  0.7546771E-02  0.1205391E+00
          1   -1    0    0  501    0  0.00000000000E+00  0.00000000000E+00  0.85603556853E+03  0.85603556853E+03  0.00000000000E+00 0. -1.
         -1   -1    0    0    0  501 -0.00000000000E+00 -0.00000000000E+00 -0.23324411285E+02  0.23324411285E+02  0.00000000000E+00 0.  1.
          5    1    1    2  502    0  0.41378781780E+02 -0.48716522618E+02  0.31207794113E+03  0.31859101447E+03  0.47000000000E+01 0. -1.
         -5    1    1    2    0  502  0.45010611659E+02  0.68108579239E+02  0.20495188371E+03  0.22066286132E+03  0.47000000000E+01 0. -1.
        -11    1    1    2    0    0 -0.12984525039E+02 -0.43841850710E+02  0.81184217968E+02  0.93175012806E+02  0.00000000000E+00 0.  1.
         11    1    1    2    0    0 -0.73404868401E+02  0.24449794089E+02  0.23449711443E+03  0.24693109122E+03  0.00000000000E+00 0. -1.
<mgrwt>
<rscale>  0 0.14606650E+03</rscale>
<asrwt>0</asrwt>
<pdfrwt beam="1">  1        1 0.13169776E+00 0.15321522E+03</pdfrwt>
<pdfrwt beam="2">  1       -1 0.35883716E-02 0.15321522E+03</pdfrwt>
<totfact> 0.58445206E+03</totfact>
</mgrwt>
</event>
<event>
 6    1  0.4705246E-006  0.1282908E+03  0.7546771E-02  0.1244053E+00
         -2   -1    0    0    0  501 -0.00000000000E+00  0.00000000000E+00  0.28964553219E+02  0.28964553219E+02  0.00000000000E+00 0.  1.
          2   -1    0    0  501    0  0.00000000000E+00 -0.00000000000E+00 -0.45333539479E+03  0.45333539479E+03  0.00000000000E+00 0. -1.
          5    1    1    2  502    0 -0.84861809396E+01  0.55835002611E+02 -0.94434478289E+02  0.11013411585E+03  0.47000000000E+01 0.  1.
         -5    1    1    2    0  502 -0.18874924116E+02 -0.65056693958E+02 -0.19414549028E+03  0.20567741146E+03  0.47000000000E+01 0.  1.
        -11    1    1    2    0    0  0.37602019422E+02 -0.32804990193E+02 -0.51289727893E+02  0.71559174350E+02  0.00000000000E+00 0. -1.
         11    1    1    2    0    0 -0.10240914367E+02  0.42026681540E+02 -0.84501145104E+02  0.94929246348E+02  0.00000000000E+00 0.  1.
<mgrwt>
<rscale>  0 0.11942234E+03</rscale>
<asrwt>0</asrwt>
<pdfrwt beam="2">  1        2 0.69743906E-01 0.12829077E+03</pdfrwt>
<pdfrwt beam="1">  1       -2 0.44560852E-02 0.12829077E+03</pdfrwt>
<totfact> 0.15235981E+04</totfact>
</mgrwt>
</event>
<event>
 6    1  0.4705246E-006  0.1511678E+03  0.7546771E-02  0.1206974E+00
          1   -1    0    0  501    0  0.00000000000E+00  0.00000000000E+00  0.75671620657E+03  0.75671620657E+03  0.00000000000E+00 0. -1.
         -1   -1    0    0    0  501 -0.00000000000E+00 -0.00000000000E+00 -0.25904878331E+02  0.25904878331E+02  0.00000000000E+00 0.  1.
          5    1    1    2  502    0  0.99337039555E+01  0.28333570639E+02  0.17851461063E+02  0.35245345246E+02  0.47000000000E+01 0. -1.
         -5    1    1    2    0  502 -0.79861470183E+02  0.19999540902E+02  0.41856885134E+03  0.42661435673E+03  0.47000000000E+01 0. -1.
        -11    1    1    2    0    0  0.37814860359E+02 -0.45764928442E+02  0.27865381292E+03  0.28490759870E+03  0.00000000000E+00 0. -1.
         11    1    1    2    0    0  0.32112905869E+02 -0.25681830988E+01  0.15737202911E+02  0.35853784225E+02  0.00000000000E+00 0.  1.
<mgrwt>
<rscale>  0 0.14482941E+03</rscale>
<asrwt>0</asrwt>
<pdfrwt beam="1">  1        1 0.11641786E+00 0.15116777E+03</pdfrwt>
<pdfrwt beam="2">  1       -1 0.39853665E-02 0.15116777E+03</pdfrwt>
<totfact> 0.60366313E+03</totfact>
</mgrwt>
</event>
<event>
 6    1  0.4705246E-006  0.1960858E+03  0.7546771E-02  0.1157562E+00
         -2   -1    0    0    0  501 -0.00000000000E+00  0.00000000000E+00  0.11273041432E+03  0.11273041432E+03  0.00000000000E+00 0.  1.
          2   -1    0    0  501    0  0.00000000000E+00 -0.00000000000E+00 -0.34680626633E+03  0.34680626633E+03  0.00000000000E+00 0. -1.
          5    1    1    2  502    0  0.71725820764E+02  0.15786797715E+02 -0.18610119101E+02  0.75909438671E+02  0.47000000000E+01 0. -1.
         -5    1    1    2    0  502  0.73057896669E+02 -0.58931436455E+02 -0.18074850304E+03  0.20372157917E+03  0.47000000000E+01 0. -1.
        -11    1    1    2    0    0 -0.57413746185E+02 -0.26430367399E+02 -0.90475188502E+00  0.63211716856E+02  0.00000000000E+00 0.  1.
         11    1    1    2    0    0 -0.87369971247E+02  0.69575006139E+02 -0.33812477991E+02  0.11669394596E+03  0.00000000000E+00 0. -1.
<mgrwt>
<rscale>  0 0.19100100E+03</rscale>
<asrwt>0</asrwt>
<pdfrwt beam="2">  1        2 0.53354810E-01 0.19608581E+03</pdfrwt>
<pdfrwt beam="1">  1       -2 0.17343141E-01 0.19608581E+03</pdfrwt>
<totfact> 0.24711880E+03</totfact>
</mgrwt>
</event>
<event>
 6    1  0.4705246E-006  0.3531337E+03  0.7546771E-02  0.1061336E+00
         -3   -1    0    0    0  501 -0.00000000000E+00  0.00000000000E+00  0.23507442943E+03  0.23507442943E+03  0.00000000000E+00 0.  1.
          3   -1    0    0  501    0  0.00000000000E+00 -0.00000000000E+00 -0.13262120837E+03  0.13262120837E+03  0.00000000000E+00 0. -1.
          5    1    1    2  502    0 -0.19074555535E+02 -0.15814854718E+02 -0.70239972384E+02  0.74630369281E+02  0.47000000000E+01 0. -1.
         -5    1    1    2    0  502  0.53170417370E+02  0.69447263586E+02 -0.72330957765E+00  0.87593543595E+02  0.47000000000E+01 0.  1.
        -11    1    1    2    0    0 -0.56856700500E+02 -0.15642549564E+02  0.61945163382E+02  0.85525300439E+02  0.00000000000E+00 0. -1.
         11    1    1    2    0    0  0.22760838666E+02 -0.37989859303E+02  0.11147133964E+03  0.11994642449E+03  0.00000000000E+00 0.  1.
<mgrwt>
<rscale>  0 0.35313371E+03</rscale>
<asrwt>0</asrwt>
<pdfrwt beam="2">  1        3 0.20403263E-01 0.35313371E+03</pdfrwt>
<pdfrwt beam="1">  1       -3 0.36165297E-01 0.35313371E+03</pdfrwt>
<totfact> 0.42344305E+02</totfact>
</mgrwt>
</event>
<event>
 6    1  0.4705246E-006  0.2613264E+03  0.7546771E-02  0.1108502E+00
          1   -1    0    0  501    0  0.00000000000E+00  0.00000000000E+00  0.18635350991E+03  0.18635350991E+03  0.00000000000E+00 0. -1.
         -1   -1    0    0    0  501 -0.00000000000E+00 -0.00000000000E+00 -0.39226866677E+03  0.39226866677E+03  0.00000000000E+00 0.  1.
          5    1    1    2  502    0  0.33764932495E+02 -0.22216748310E+03  0.18340610549E+02  0.22551480928E+03  0.47000000000E+01 0. -1.
         -5    1    1    2    0  502  0.24701379639E+02  0.25026237536E+00 -0.25641221274E+02  0.35913549194E+02  0.47000000000E+01 0. -1.
        -11    1    1    2    0    0  0.14056078049E+02  0.11320169020E+03 -0.70005220911E+02  0.13383918316E+03  0.00000000000E+00 0. -1.
         11    1    1    2    0    0 -0.72522390182E+02  0.10871553052E+03 -0.12860932523E+03  0.18335463504E+03  0.00000000000E+00 0.  1.
<mgrwt>
<rscale>  0 0.25775056E+03</rscale>
<asrwt>0</asrwt>
<pdfrwt beam="1">  1        1 0.28669771E-01 0.26132640E+03</pdfrwt>
<pdfrwt beam="2">  1       -1 0.60349025E-01 0.26132640E+03</pdfrwt>
<totfact> 0.46316869E+02</totfact>
</mgrwt>
</event>
<event>
 6    1  0.4705246E-006  0.1312767E+03  0.7546771E-02  0.1238866E+00
         -2   -1    0    0    0  501 -0.00000000000E+00  0.00000000000E+00  0.10406771730E+03  0.10406771730E+03  0.00000000000E+00 0.  1.
          2   -1    0    0  501    0  0.00000000000E+00 -0.00000000000E+00 -0.16718972335E+03  0.16718972335E+03  0.00000000000E+00 0. -1.
          5    1    1    2  502    0 -0.68613954076E+01  0.38255702336E+02  0.14788223324E+02  0.41849242015E+02  0.47000000000E+01 0.  1.
         -5    1    1    2    0  502  0.41092829853E+02 -0.17452945088E+02 -0.11454966087E+03  0.12303227529E+03  0.47000000000E+01 0.  1.
        -11    1    1    2    0    0 -0.11075592262E+02 -0.21421476095E+02 -0.28445336029E+02  0.37291896222E+02  0.00000000000E+00 0. -1.
         11    1    1    2    0    0 -0.23155842183E+02  0.61871884727E+00  0.65084767521E+02  0.69084027123E+02  0.00000000000E+00 0.  1.
<mgrwt>
<rscale>  0 0.12260158E+03</rscale>
<asrwt>0</asrwt>
<pdfrwt beam="2">  1        2 0.25721495E-01 0.13127669E+03</pdfrwt>
<pdfrwt beam="1">  1       -2 0.16010418E-01 0.13127669E+03</pdfrwt>
<totfact> 0.60698188E+03</totfact>
</mgrwt>
</event>
<event>
 6    1  0.4705246E-006  0.4162526E+03  0.7546771E-02  0.1038293E+00
         -1   -1    0    0    0  501 -0.00000000000E+00  0.00000000000E+00  0.81031493173E+02  0.81031493173E+02  0.00000000000E+00 0.  1.
          1   -1    0    0  501    0  0.00000000000E+00 -0.00000000000E+00 -0.53456448618E+03  0.53456448618E+03  0.00000000000E+00 0. -1.
          5    1    1    2  502    0 -0.13211173759E+01 -0.78762751414E+01 -0.28864036537E+03  0.28878907802E+03  0.47000000000E+01 0.  1.
         -5    1    1    2    0  502  0.93666332955E+02 -0.35221889999E+02 -0.16928152980E+03  0.19670355817E+03  0.47000000000E+01 0.  1.
        -11    1    1    2    0    0 -0.87345886775E+01  0.44096006264E+02 -0.77318077286E+01  0.45612845324E+02  0.00000000000E+00 0. -1.
         11    1    1    2    0    0 -0.83610626902E+02 -0.99784112440E+00  0.12120709890E+02  0.84490497845E+02  0.00000000000E+00 0.  1.
<mgrwt>
<rscale>  0 0.41625261E+03</rscale>
<asrwt>0</asrwt>
<pdfrwt beam="2">  1        1 0.82240692E-01 0.41625261E+03</pdfrwt>
<pdfrwt beam="1">  1       -1 0.12466383E-01 0.41625261E+03</pdfrwt>
<totfact> 0.17863976E+03</totfact>
</mgrwt>
</event>
<event>
 6    1  0.4705246E-006  0.1259574E+03  0.7546771E-02  0.1249648E+00
          1   -1    0    0  501    0  0.00000000000E+00  0.00000000000E+00  0.19216120567E+03  0.19216120567E+03  0.00000000000E+00 0. -1.
         -1   -1    0    0    0  501 -0.00000000000E+00 -0.00000000000E+00 -0.61948523764E+02  0.61948523764E+02  0.00000000000E+00 0.  1.
          5    1    1    2  502    0 -0.38300745385E+02 -0.22553700572E+02 -0.36031576221E+01  0.44840709755E+02  0.47000000000E+01 0. -1.
         -5    1    1    2    0  502  0.44980086255E+02  0.36592667007E+02  0.92703227174E+02  0.10944500796E+03  0.47000000000E+01 0. -1.
        -11    1    1    2    0    0 -0.27144077064E+02 -0.43444620968E+02  0.96171708936E+01  0.52122221621E+02  0.00000000000E+00 0.  1.
         11    1    1    2    0    0  0.20464736194E+02  0.29405654533E+02  0.31495441460E+02  0.47701790100E+02  0.00000000000E+00 0. -1.
<mgrwt>
<rscale>  0 0.11611437E+03</rscale>
<asrwt>0</asrwt>
<pdfrwt beam="1">  1        1 0.29563262E-01 0.12595737E+03</pdfrwt>
<pdfrwt beam="2">  1       -1 0.95305422E-02 0.12595737E+03</pdfrwt>
<totfact> 0.95062546E+03</totfact>
</mgrwt>
</event>
<event>
 6    1  0.4705246E-006  0.2974352E+03  0.7546771E-02  0.1086530E+00
          2   -1    0    0  501    0  0.00000000000E+00  0.00000000000E+00  0.47343851530E+03  0.47343851530E+03  0.00000000000E+00 0. -1.
         -2   -1    0    0    0  501 -0.00000000000E+00 -0.00000000000E+00 -0.46715529216E+02  0.46715529216E+02  0.00000000000E+00 0.  1.
          5    1    1    2  502    0 -0.50126309821E+02  0.10185644917E+03  0.26525728767E+03  0.28856697981E+03  0.47000000000E+01 0. -1.
         -5    1    1    2    0  502  0.20273486046E+01 -0.35195992162E+02  0.68331690701E+02  0.77033615784E+02  0.47000000000E+01 0. -1.
        -11    1    1    2    0    0  0.64346623269E+02 -0.28056972840E+02  0.87676769085E+02  0.11231606069E+03  0.00000000000E+00 0.  1.
         11    1    1    2    0    0 -0.16247662053E+02 -0.38603484165E+02  0.54572386295E+01  0.42237388239E+02  0.00000000000E+00 0. -1.
<mgrwt>
<rscale>  0 0.29743524E+03</rscale>
<asrwt>0</asrwt>
<pdfrwt beam="1">  1        2 0.72836691E-01 0.29743524E+03</pdfrwt>
<pdfrwt beam="2">  1       -2 0.71870048E-02 0.29743524E+03</pdfrwt>
<totfact> 0.73887439E+03</totfact>
</mgrwt>
</event>
<event>
 6    1  0.4705246E-006  0.1562650E+03  0.7546771E-02  0.1202526E+00
         -2   -1    0    0    0  501 -0.00000000000E+00  0.00000000000E+00  0.69172807660E+02  0.69172807660E+02  0.00000000000E+00 0. -1.
          2   -1    0    0  501    0  0.00000000000E+00 -0.00000000000E+00 -0.37922427031E+03  0.37922427031E+03  0.00000000000E+00 0.  1.
          5    1    1    2  502    0 -0.45160284835E+02 -0.22711696461E+02 -0.66222505810E+02  0.83443290673E+02  0.47000000000E+01 0. -1.
         -5    1    1    2    0  502  0.23845058619E+02  0.10016354222E+03 -0.20951568362E+03  0.23349568238E+03  0.47000000000E+01 0.  1.
        -11    1    1    2    0    0  0.54489358389E+02 -0.15880352004E+02 -0.11664402627E+02  0.57942506384E+02  0.00000000000E+00 0. -1.
         11    1    1    2    0    0 -0.33174132174E+02 -0.61571493753E+02 -0.22648870599E+02  0.73515598534E+02  0.00000000000E+00 0.  1.
<mgrwt>
<rscale>  0 0.14834145E+03</rscale>
<asrwt>0</asrwt>
<pdfrwt beam="2">  1        2 0.58342194E-01 0.15626504E+03</pdfrwt>
<pdfrwt beam="1">  1       -2 0.10641971E-01 0.15626504E+03</pdfrwt>
<totfact> 0.49239309E+03</totfact>
</mgrwt>
</event>
<event>
 6    1  0.4705246E-006  0.1407284E+03  0.7546771E-02  0.1223162E+00
          2   -1    0    0  501    0  0.00000000000E+00  0.00000000000E+00  0.59832528685E+02  0.59832528685E+02  0.00000000000E+00 0.  1.
         -2   -1    0    0    0  501 -0.00000000000E+00 -0.00000000000E+00 -0.28783001772E+03  0.28783001772E+03  0.00000000000E+00 0. -1.
          5    1    1    2  502    0  0.27736357369E+02  0.93177001577E+02 -0.60059886461E+02  0.11437018451E+03  0.47000000000E+01 0. -1.
         -5    1    1    2    0  502 -0.31826455328E+02 -0.28648362149E+02 -0.19443734999E+02  0.47263101287E+02  0.47000000000E+01 0. -1.
        -11    1    1    2    0    0 -0.20255780432E+01  0.23476447489E+02 -0.36828345400E+02  0.43721545924E+02  0.00000000000E+00 0.  1.
         11    1    1    2    0    0  0.61156760017E+01 -0.88005086916E+02 -0.11166552218E+03  0.14230771468E+03  0.00000000000E+00 0. -1.
<mgrwt>
<rscale>  0 0.13293667E+03</rscale>
<asrwt>0</asrwt>
<pdfrwt beam="1">  1        2 0.92050044E-02 0.14072844E+03</pdfrwt>
<pdfrwt beam="2">  1       -2 0.44281541E-01 0.14072844E+03</pdfrwt>
<totfact> 0.33371324E+03</totfact>
</mgrwt>
</event>
<event>
 6    1  0.4705246E-006  0.2784646E+03  0.7546771E-02  0.1096530E+00
         -1   -1    0    0    0  501 -0.00000000000E+00  0.00000000000E+00  0.17896847640E+03  0.17896847640E+03  0.00000000000E+00 0.  1.
          1   -1    0    0  501    0  0.00000000000E+00 -0.00000000000E+00 -0.10831871994E+03  0.10831871994E+03  0.00000000000E+00 0. -1.
          5    1    1    2  502    0 -0.19316296436E+02  0.30595990370E+02 -0.14237332321E+02  0.39166638435E+02  0.47000000000E+01 0.  1.
         -5    1    1    2    0  502  0.19766335028E+02 -0.10425954204E+03  0.38903839518E+01  0.10629198086E+03  0.47000000000E+01 0.  1.
        -11    1    1    2    0    0 -0.23764647315E+02  0.38338317012E+02  0.88038841179E+02  0.98921294823E+02  0.00000000000E+00 0.  1.
         11    1    1    2    0    0  0.23314608723E+02  0.35325234658E+02 -0.70421363432E+01  0.42907282224E+02  0.00000000000E+00 0. -1.
<mgrwt>
<rscale>  0 0.27846462E+03</rscale>
<asrwt>0</asrwt>
<pdfrwt beam="2">  1        1 0.16664418E-01 0.27846462E+03</pdfrwt>
<pdfrwt beam="1">  1       -1 0.27533612E-01 0.27846462E+03</pdfrwt>
<totfact> 0.38169818E+03</totfact>
</mgrwt>
</event>
<event>
 6    1  0.4705246E-006  0.1392353E+03  0.7546771E-02  0.1225718E+00
         -1   -1    0    0    0  501 -0.00000000000E+00  0.00000000000E+00  0.23245200792E+03  0.23245200792E+03  0.00000000000E+00 0.  1.
          1   -1    0    0  501    0  0.00000000000E+00 -0.00000000000E+00 -0.18036273647E+03  0.18036273647E+03  0.00000000000E+00 0. -1.
          5    1    1    2  502    0 -0.48455298502E+02 -0.59891496725E+02 -0.14891477179E+03  0.16772777525E+03  0.47000000000E+01 0.  1.
         -5    1    1    2    0  502  0.23157254175E+02  0.40762877229E+01  0.12633574374E+02  0.27102984042E+02  0.47000000000E+01 0.  1.
        -11    1    1    2    0    0  0.21451528395E+02 -0.74525479359E+01  0.40473898584E+01  0.23067074064E+02  0.00000000000E+00 0. -1.
         11    1    1    2    0    0  0.38465159316E+01  0.63267756938E+02  0.18432307901E+03  0.19491691104E+03  0.00000000000E+00 0.  1.
<mgrwt>
<rscale>  0 0.13117809E+03</rscale>
<asrwt>0</asrwt>
<pdfrwt beam="2">  1        1 0.27748113E-01 0.13923527E+03</pdfrwt>
<pdfrwt beam="1">  1       -1 0.35761847E-01 0.13923527E+03</pdfrwt>
<totfact> 0.12431258E+03</totfact>
</mgrwt>
</event>
<event>
 6    1  0.4705246E-006  0.2418855E+03  0.7546771E-02  0.1120618E+00
          4   -1    0    0  501    0  0.00000000000E+00  0.00000000000E+00  0.13864755130E+03  0.13864755130E+03  0.00000000000E+00 0.  1.
         -4   -1    0    0    0  501 -0.00000000000E+00 -0.00000000000E+00 -0.40247749200E+03  0.40247749200E+03  0.00000000000E+00 0. -1.
          5    1    1    2  502    0  0.32604905743E+02 -0.13398217248E+03 -0.11382607925E+03  0.17886522507E+03  0.47000000000E+01 0.  1.
         -5    1    1    2    0  502 -0.54454494324E+02 -0.71945892903E+02 -0.46379005275E+01  0.90471562267E+02  0.47000000000E+01 0.  1.
        -11    1    1    2    0    0  0.33830400430E+02  0.48694114866E+02 -0.30454190089E+01  0.59370762104E+02  0.00000000000E+00 0.  1.
         11    1    1    2    0    0 -0.11980811849E+02  0.15723395052E+03 -0.14232054191E+03  0.21241749386E+03  0.00000000000E+00 0. -1.
<mgrwt>
<rscale>  0 0.23876596E+03</rscale>
<asrwt>0</asrwt>
<pdfrwt beam="1">  1        4 0.21330393E-01 0.24188549E+03</pdfrwt>
<pdfrwt beam="2">  1       -4 0.61919614E-01 0.24188549E+03</pdfrwt>
<totfact> 0.90662554E+01</totfact>
</mgrwt>
</event>
<event>
 6    1  0.4705246E-006  0.1422946E+03  0.7546771E-02  0.1220527E+00
         -2   -1    0    0    0  501 -0.00000000000E+00  0.00000000000E+00  0.61206141931E+02  0.61206141931E+02  0.00000000000E+00 0.  1.
          2   -1    0    0  501    0  0.00000000000E+00 -0.00000000000E+00 -0.27354825179E+03  0.27354825179E+03  0.00000000000E+00 0. -1.
          5    1    1    2  502    0  0.17178819376E+02  0.13424439559E+02 -0.13265796812E+03  0.13451971573E+03  0.47000000000E+01 0. -1.
         -5    1    1    2    0  502  0.41679263808E+02 -0.47532497989E+02 -0.52038884961E+01  0.63605580353E+02  0.47000000000E+01 0. -1.
        -11    1    1    2    0    0 -0.71394453139E+02  0.21405983536E+01 -0.73190307346E+02  0.10226715597E+03  0.00000000000E+00 0. -1.
         11    1    1    2    0    0  0.12536369956E+02  0.31967460077E+02 -0.12899458982E+01  0.34361941677E+02  0.00000000000E+00 0.  1.
<mgrwt>
<rscale>  0 0.13478259E+03</rscale>
<asrwt>0</asrwt>
<pdfrwt beam="2">  1        2 0.42084348E-01 0.14229456E+03</pdfrwt>
<pdfrwt beam="1">  1       -2 0.94163292E-02 0.14229456E+03</pdfrwt>
<totfact> 0.84047400E+03</totfact>
</mgrwt>
</event>
<event>
 6    1  0.4705246E-006  0.1399111E+03  0.7546771E-02  0.1225447E+00
         -2   -1    0    0    0  501 -0.00000000000E+00  0.00000000000E+00  0.41825750006E+02  0.41825750006E+02  0.00000000000E+00 0.  1.
          2   -1    0    0  501    0  0.00000000000E+00 -0.00000000000E+00 -0.54604936220E+03  0.54604936220E+03  0.00000000000E+00 0. -1.
          5    1    1    2  502    0 -0.59766046375E+02 -0.23972394985E+02 -0.35656234501E+03  0.36236094147E+03  0.47000000000E+01 0.  1.
         -5    1    1    2    0  502  0.40083770262E+02 -0.35688138783E+02 -0.83182685639E+02  0.99105000269E+02  0.47000000000E+01 0.  1.
        -11    1    1    2    0    0  0.85264304344E+01  0.54058677550E+02  0.57973054710E+01  0.55033166228E+02  0.00000000000E+00 0.  1.
         11    1    1    2    0    0  0.11155845678E+02  0.56018562175E+01 -0.70275887011E+02  0.71376004239E+02  0.00000000000E+00 0. -1.
<mgrwt>
<rscale>  0 0.13136347E+03</rscale>
<asrwt>0</asrwt>
<pdfrwt beam="2">  1        2 0.84007596E-01 0.13991113E+03</pdfrwt>
<pdfrwt beam="1">  1       -2 0.64347306E-02 0.13991113E+03</pdfrwt>
<totfact> 0.71849413E+03</totfact>
</mgrwt>
</event>
<event>
 6    1  0.4705246E-006  0.1351129E+03  0.7546771E-02  0.1234522E+00
          2   -1    0    0  501    0  0.00000000000E+00  0.00000000000E+00  0.42231392244E+03  0.42231392244E+03  0.00000000000E+00 0. -1.
         -2   -1    0    0    0  501 -0.00000000000E+00 -0.00000000000E+00 -0.40761142374E+02  0.40761142374E+02  0.00000000000E+00 0.  1.
          5    1    1    2  502    0 -0.15432642705E+02 -0.36363295828E+02  0.53813400335E+02  0.66921056477E+02  0.47000000000E+01 0.  1.
         -5    1    1    2    0  502  0.54024704660E+02  0.70140942167E+02  0.26151242323E+03  0.27613268185E+03  0.47000000000E+01 0.  1.
        -11    1    1    2    0    0  0.23346313869E+02 -0.28855493126E+02  0.32439930301E+02  0.49295425070E+02  0.00000000000E+00 0. -1.
         11    1    1    2    0    0 -0.61938375824E+02 -0.49221532122E+01  0.33787026198E+02  0.70725901418E+02  0.00000000000E+00 0.  1.
<mgrwt>
<rscale>  0 0.12535054E+03</rscale>
<asrwt>0</asrwt>
<pdfrwt beam="1">  1        2 0.64971369E-01 0.13511289E+03</pdfrwt>
<pdfrwt beam="2">  1       -2 0.62709453E-02 0.13511289E+03</pdfrwt>
<totfact> 0.98733708E+03</totfact>
</mgrwt>
</event>
<event>
 6    1  0.4705246E-006  0.1272266E+03  0.7546771E-02  0.1246123E+00
          2   -1    0    0  501    0  0.00000000000E+00  0.00000000000E+00  0.50959722499E+03  0.50959722499E+03  0.00000000000E+00 0.  1.
         -2   -1    0    0    0  501 -0.00000000000E+00 -0.00000000000E+00 -0.54893323193E+02  0.54893323193E+02  0.00000000000E+00 0. -1.
          5    1    1    2  502    0  0.39876780739E+02  0.38788572536E+02  0.20964516985E+03  0.21695137300E+03  0.47000000000E+01 0. -1.
         -5    1    1    2    0  502 -0.34812483042E+02 -0.61997437572E+02  0.24251987375E+03  0.25277177533E+03  0.47000000000E+01 0. -1.
        -11    1    1    2    0    0 -0.44021142067E+02 -0.31840443595E+01 -0.11597327778E+02  0.45634385051E+02  0.00000000000E+00 0. -1.
         11    1    1    2    0    0  0.38956844370E+02  0.26392909396E+02  0.14136185968E+02  0.49133014800E+02  0.00000000000E+00 0.  1.
<mgrwt>
<rscale>  0 0.11818415E+03</rscale>
<asrwt>0</asrwt>
<pdfrwt beam="1">  1        2 0.78399570E-01 0.12722661E+03</pdfrwt>
<pdfrwt beam="2">  1       -2 0.84451270E-02 0.12722661E+03</pdfrwt>
<totfact> 0.50824528E+03</totfact>
</mgrwt>
</event>
<event>
 6    1  0.4705246E-006  0.3025659E+03  0.7546771E-02  0.1083965E+00
         -2   -1    0    0    0  501 -0.00000000000E+00  0.00000000000E+00  0.29716923266E+02  0.29716923266E+02  0.00000000000E+00 0.  1.
          2   -1    0    0  501    0  0.00000000000E+00 -0.00000000000E+00 -0.77015120495E+03  0.77015120495E+03  0.00000000000E+00 0. -1.
          5    1    1    2  502    0  0.29128770910E+02 -0.28992639941E+02 -0.98010389322E+02  0.10638225830E+03  0.47000000000E+01 0.  1.
         -5    1    1    2    0  502  0.36685741433E+01  0.95692952603E+02 -0.49507272400E+03  0.50427144641E+03  0.47000000000E+01 0.  1.
        -11    1    1    2    0    0 -0.43684538674E+02 -0.25606775323E+02 -0.19129634888E+02  0.54129370886E+02  0.00000000000E+00 0.  1.
         11    1    1    2    0    0  0.10887193621E+02 -0.41093537339E+02 -0.12822153347E+03  0.13508505262E+03  0.00000000000E+00 0. -1.
<mgrwt>
<rscale>  0 0.30256586E+03</rscale>
<asrwt>0</asrwt>
<pdfrwt beam="2">  1        2 0.11848478E+00 0.30256586E+03</pdfrwt>
<pdfrwt beam="1">  1       -2 0.45718350E-02 0.30256586E+03</pdfrwt>
<totfact> 0.83613881E+03</totfact>
</mgrwt>
</event>
<event>
 6    1  0.4705246E-006  0.1419753E+03  0.7546771E-02  0.1220733E+00
          1   -1    0    0  501    0  0.00000000000E+00  0.00000000000E+00  0.80396998278E+02  0.80396998278E+02  0.00000000000E+00 0. -1.
         -1   -1    0    0    0  501 -0.00000000000E+00 -0.00000000000E+00 -0.20792637236E+03  0.20792637236E+03  0.00000000000E+00 0.  1.
          5    1    1    2  502    0  0.35670410107E+02  0.87477594997E+02 -0.39734018729E+01  0.94670933797E+02  0.47000000000E+01 0.  1.
         -5    1    1    2    0  502 -0.15167629600E+02 -0.23354639576E+02 -0.49598519951E+02  0.57075383123E+02  0.47000000000E+01 0.  1.
        -11    1    1    2    0    0 -0.55656007641E+02 -0.47624518546E+02 -0.33660410226E+02  0.80614571697E+02  0.00000000000E+00 0.  1.
         11    1    1    2    0    0  0.35153227134E+02 -0.16498436875E+02 -0.40297042030E+02  0.55962482019E+02  0.00000000000E+00 0. -1.
<mgrwt>
<rscale>  0 0.13463682E+03</rscale>
<asrwt>0</asrwt>
<pdfrwt beam="1">  1        1 0.12368769E-01 0.14197533E+03</pdfrwt>
<pdfrwt beam="2">  1       -1 0.31988672E-01 0.14197533E+03</pdfrwt>
<totfact> 0.42315183E+03</totfact>
</mgrwt>
</event>
<event>
 6    1  0.4705246E-006  0.1259761E+03  0.7546771E-02  0.1249364E+00
          2   -1    0    0  501    0  0.00000000000E+00  0.00000000000E+00  0.11447621746E+03  0.11447621746E+03  0.00000000000E+00 0. -1.
         -2   -1    0    0    0  501 -0.00000000000E+00 -0.00000000000E+00 -0.10493535629E+03  0.10493535629E+03  0.00000000000E+00 0.  1.
          5    1    1    2  502    0 -0.36436826063E+02  0.12939798747E+02  0.50977227313E+02  0.64154878144E+02  0.47000000000E+01 0.  1.
         -5    1    1    2    0  502  0.52787023997E+02 -0.13956823743E+02 -0.31664575339E+02  0.63292955081E+02  0.47000000000E+01 0.  1.
        -11    1    1    2    0    0 -0.27404783261E+02 -0.30484990518E+02 -0.31873280171E+02  0.51925550371E+02  0.00000000000E+00 0. -1.
         11    1    1    2    0    0  0.11054585326E+02  0.31502015514E+02  0.22101489374E+02  0.40038190153E+02  0.00000000000E+00 0.  1.
<mgrwt>
<rscale>  0 0.11627967E+03</rscale>
<asrwt>0</asrwt>
<pdfrwt beam="1">  1        2 0.17611726E-01 0.12597608E+03</pdfrwt>
<pdfrwt beam="2">  1       -2 0.16143901E-01 0.12597608E+03</pdfrwt>
<totfact> 0.91269945E+03</totfact>
</mgrwt>
</event>
<event>
 6    1  0.4705246E-006  0.1757150E+03  0.7546771E-02  0.1177881E+00
          2   -1    0    0  501    0  0.00000000000E+00  0.00000000000E+00  0.14378648687E+04  0.14378648687E+04  0.00000000000E+00 0.  1.
         -2   -1    0    0    0  501 -0.00000000000E+00 -0.00000000000E+00 -0.19096459769E+02  0.19096459769E+02  0.00000000000E+00 0. -1.
          5    1    1    2  502    0 -0.46137081952E+02 -0.73349612664E+02  0.58238309223E+03  0.58881317251E+03  0.47000000000E+01 0.  1.
         -5    1    1    2    0  502 -0.57248822391E+02  0.58127531233E+01  0.96600536943E+02  0.11253874667E+03  0.47000000000E+01 0.  1.
        -11    1    1    2    0    0  0.87473566049E+02  0.90066095677E+02  0.57671690315E+03  0.59022530675E+03  0.00000000000E+00 0.  1.
         11    1    1    2    0    0  0.15912338294E+02 -0.22529236136E+02  0.16306787659E+03  0.16538410252E+03  0.00000000000E+00 0. -1.
<mgrwt>
<rscale>  0 0.16996821E+03</rscale>
<asrwt>0</asrwt>
<pdfrwt beam="1">  1        2 0.22120989E+00 0.17571496E+03</pdfrwt>
<pdfrwt beam="2">  1       -2 0.29379180E-02 0.17571496E+03</pdfrwt>
<totfact> 0.63685415E+03</totfact>
</mgrwt>
</event>
<event>
 6    1  0.4705246E-006  0.1351324E+03  0.7546771E-02  0.1227932E+00
         -2   -1    0    0    0  501 -0.00000000000E+00  0.00000000000E+00  0.20532669882E+02  0.20532669882E+02  0.00000000000E+00 0.  1.
          2   -1    0    0  501    0  0.00000000000E+00 -0.00000000000E+00 -0.83032758761E+03  0.83032758761E+03  0.00000000000E+00 0. -1.
          5    1    1    2  502    0  0.41245529471E+02 -0.46412930133E+02 -0.18228946915E+03  0.19263149885E+03  0.47000000000E+01 0. -1.
         -5    1    1    2    0  502  0.28003850631E+02  0.59693478935E+02 -0.37700074193E+03  0.38275210841E+03  0.47000000000E+01 0.  1.
        -11    1    1    2    0    0 -0.41521888707E+02 -0.33863456817E+02 -0.22811094220E+03  0.23431901950E+03  0.00000000000E+00 0. -1.
         11    1    1    2    0    0 -0.27727491394E+02  0.20582908015E+02 -0.22393764449E+02  0.41157630733E+02  0.00000000000E+00 0.  1.
<mgrwt>
<rscale>  0 0.12967981E+03</rscale>
<asrwt>0</asrwt>
<pdfrwt beam="2">  1        2 0.12774266E+00 0.13513236E+03</pdfrwt>
<pdfrwt beam="1">  1       -2 0.31588733E-02 0.13513236E+03</pdfrwt>
<totfact> 0.12678017E+04</totfact>
</mgrwt>
</event>
<event>
 6    1  0.4705246E-006  0.1979963E+03  0.7546771E-02  0.1184762E+00
          2   -1    0    0  501    0  0.00000000000E+00  0.00000000000E+00  0.12622424944E+04  0.12622424944E+04  0.00000000000E+00 0. -1.
         -2   -1    0    0    0  501 -0.00000000000E+00 -0.00000000000E+00 -0.33370248946E+02  0.33370248946E+02  0.00000000000E+00 0.  1.
          5    1    1    2  502    0 -0.55576371312E+02 -0.36379307381E+02  0.90619149946E+03  0.90863486107E+03  0.47000000000E+01 0. -1.
         -5    1    1    2    0  502  0.69023028267E+02  0.53719188121E+02  0.26297805791E+03  0.27718130987E+03  0.47000000000E+01 0.  1.
        -11    1    1    2    0    0 -0.17840438151E+02 -0.51267896122E+02  0.51029521265E+02  0.74502955960E+02  0.00000000000E+00 0.  1.
         11    1    1    2    0    0  0.43937811963E+01  0.33928015382E+02  0.86731668584E+01  0.35293616481E+02  0.00000000000E+00 0. -1.
<mgrwt>
<rscale>  0 0.16353544E+03</rscale>
<asrwt>0</asrwt>
<pdfrwt beam="1">  1        2 0.19419112E+00 0.19799631E+03</pdfrwt>
<pdfrwt beam="2">  1       -2 0.51338854E-02 0.19799631E+03</pdfrwt>
<totfact> 0.34471753E+03</totfact>
</mgrwt>
</event>
<event>
 6    1  0.4705246E-006  0.1444186E+03  0.7546771E-02  0.1217957E+00
         -1   -1    0    0    0  501 -0.00000000000E+00  0.00000000000E+00  0.14865164283E+03  0.14865164283E+03  0.00000000000E+00 0.  1.
          1   -1    0    0  501    0  0.00000000000E+00 -0.00000000000E+00 -0.13939895882E+03  0.13939895882E+03  0.00000000000E+00 0. -1.
          5    1    1    2  502    0  0.80744461119E+02 -0.50778285813E+02 -0.34690473233E+01  0.95562684144E+02  0.47000000000E+01 0. -1.
         -5    1    1    2    0  502 -0.14084670547E+02  0.22660042206E+02 -0.52963381843E+02  0.59490043482E+02  0.47000000000E+01 0. -1.
        -11    1    1    2    0    0 -0.74475744652E+02  0.49250304381E+02  0.65027262236E+02  0.11045711320E+03  0.00000000000E+00 0.  1.
         11    1    1    2    0    0  0.78159540797E+01 -0.21132060774E+02  0.65785093803E+00  0.22540760826E+02  0.00000000000E+00 0. -1.
<mgrwt>
<rscale>  0 0.13661538E+03</rscale>
<asrwt>0</asrwt>
<pdfrwt beam="2">  1        1 0.21445994E-01 0.14441859E+03</pdfrwt>
<pdfrwt beam="1">  1       -1 0.22869484E-01 0.14441859E+03</pdfrwt>
<totfact> 0.36369315E+03</totfact>
</mgrwt>
</event>
<event>
 6    1  0.4705246E-006  0.2469591E+03  0.7546771E-02  0.1115242E+00
          2   -1    0    0  501    0  0.00000000000E+00  0.00000000000E+00  0.64877764529E+03  0.64877764529E+03  0.00000000000E+00 0. -1.
         -2   -1    0    0    0  501 -0.00000000000E+00 -0.00000000000E+00 -0.23501432767E+02  0.23501432767E+02  0.00000000000E+00 0.  1.
          5    1    1    2  502    0 -0.18072425678E+01  0.35663786470E+02  0.42460005971E+02  0.55678666454E+02  0.47000000000E+01 0.  1.
         -5    1    1    2    0  502 -0.37897130810E+02 -0.77432785025E+02  0.34018586065E+03  0.35097085136E+03  0.47000000000E+01 0.  1.
        -11    1    1    2    0    0  0.48483479128E+02 -0.65816186236E+01  0.65181974278E+02  0.81502485991E+02  0.00000000000E+00 0.  1.
         11    1    1    2    0    0 -0.87791057499E+01  0.48350617178E+02  0.17744837162E+03  0.18412707425E+03  0.00000000000E+00 0. -1.
<mgrwt>
<rscale>  0 0.24695914E+03</rscale>
<asrwt>0</asrwt>
<pdfrwt beam="1">  1        2 0.99811932E-01 0.24695914E+03</pdfrwt>
<pdfrwt beam="2">  1       -2 0.36156055E-02 0.24695914E+03</pdfrwt>
<totfact> 0.14561462E+04</totfact>
</mgrwt>
</event>
<event>
 6    1  0.4705246E-006  0.1609359E+03  0.7546771E-02  0.1195588E+00
         -2   -1    0    0    0  501 -0.00000000000E+00  0.00000000000E+00  0.15626115355E+02  0.15626115355E+02  0.00000000000E+00 0.  1.
          2   -1    0    0  501    0  0.00000000000E+00 -0.00000000000E+00 -0.16136628411E+04  0.16136628411E+04  0.00000000000E+00 0. -1.
          5    1    1    2  502    0  0.79234932398E+02  0.85603850032E+02 -0.64273122216E+03  0.65324704944E+03  0.47000000000E+01 0. -1.
         -5    1    1    2    0  502  0.22964302854E+01 -0.25354354221E+02 -0.51092164714E+03  0.51157710698E+03  0.47000000000E+01 0. -1.
        -11    1    1    2    0    0 -0.14602593645E+02  0.96227748363E+01 -0.11572373652E+02  0.20970297295E+02  0.00000000000E+00 0.  1.
         11    1    1    2    0    0 -0.66928769038E+02 -0.69872270648E+02 -0.43281148282E+03  0.44349450277E+03  0.00000000000E+00 0. -1.
<mgrwt>
<rscale>  0 0.15404557E+03</rscale>
<asrwt>0</asrwt>
<pdfrwt beam="2">  1        2 0.24825574E+00 0.16093593E+03</pdfrwt>
<pdfrwt beam="1">  1       -2 0.24040186E-02 0.16093593E+03</pdfrwt>
<totfact> 0.69019330E+03</totfact>
</mgrwt>
</event>
<event>
 6    1  0.4705246E-006  0.1420141E+03  0.7546771E-02  0.1221365E+00
          1   -1    0    0  501    0  0.00000000000E+00  0.00000000000E+00  0.12010851653E+03  0.12010851653E+03  0.00000000000E+00 0. -1.
         -1   -1    0    0    0  501 -0.00000000000E+00 -0.00000000000E+00 -0.16494287229E+03  0.16494287229E+03  0.00000000000E+00 0.  1.
          5    1    1    2  502    0  0.24246896584E+01 -0.42883766804E+02  0.25756532040E+02  0.50302937469E+02  0.47000000000E+01 0. -1.
         -5    1    1    2    0  502 -0.63629326027E+02  0.71138565012E+02  0.95542410849E+01  0.96035202324E+02  0.47000000000E+01 0. -1.
        -11    1    1    2    0    0 -0.16702347129E+02 -0.29727350055E+02 -0.15446974843E+02  0.37433845283E+02  0.00000000000E+00 0.  1.
         11    1    1    2    0    0  0.77906983498E+02  0.14725518468E+01 -0.64698154043E+02  0.10127940375E+03  0.00000000000E+00 0. -1.
<mgrwt>
<rscale>  0 0.13419200E+03</rscale>
<asrwt>0</asrwt>
<pdfrwt beam="1">  1        1 0.18478233E-01 0.14201409E+03</pdfrwt>
<pdfrwt beam="2">  1       -1 0.25375826E-01 0.14201409E+03</pdfrwt>
<totfact> 0.37045062E+03</totfact>
</mgrwt>
</event>
<event>
 6    1  0.4705246E-006  0.1538675E+03  0.7546771E-02  0.1204256E+00
         -1   -1    0    0    0  501 -0.00000000000E+00  0.00000000000E+00  0.19063798376E+03  0.19063798376E+03  0.00000000000E+00 0.  1.
          1   -1    0    0  501    0  0.00000000000E+00 -0.00000000000E+00 -0.10577636259E+03  0.10577636259E+03  0.00000000000E+00 0. -1.
          5    1    1    2  502    0 -0.37403669440E+02  0.12551464033E+02 -0.15325553652E+02  0.42585635274E+02  0.47000000000E+01 0.  1.
         -5    1    1    2    0  502  0.26638741691E+02 -0.10161535250E+03  0.43715671702E+02  0.11387911299E+03  0.47000000000E+01 0.  1.
        -11    1    1    2    0    0 -0.36457324158E+02  0.18954959169E+02  0.60749349626E+01  0.41537113485E+02  0.00000000000E+00 0.  1.
         11    1    1    2    0    0  0.47222251907E+02  0.70108929302E+02  0.50396568153E+02  0.98412484597E+02  0.00000000000E+00 0. -1.
<mgrwt>
<rscale>  0 0.14696209E+03</rscale>
<asrwt>0</asrwt>
<pdfrwt beam="2">  1        1 0.16273287E-01 0.15386754E+03</pdfrwt>
<pdfrwt beam="1">  1       -1 0.29328921E-01 0.15386754E+03</pdfrwt>
<totfact> 0.34430966E+03</totfact>
</mgrwt>
</event>
<event>
 6    1  0.4705246E-006  0.1139486E+03  0.7546771E-02  0.1263072E+00
         -1   -1    0    0    0  501 -0.00000000000E+00  0.00000000000E+00  0.26664127483E+03  0.26664127483E+03  0.00000000000E+00 0.  1.
          1   -1    0    0  501    0  0.00000000000E+00 -0.00000000000E+00 -0.45241546434E+02  0.45241546434E+02  0.00000000000E+00 0. -1.
          5    1    1    2  502    0 -0.59056524986E+02  0.13216832021E+01  0.41708602193E+02  0.72464594712E+02  0.47000000000E+01 0. -1.
         -5    1    1    2    0  502  0.48605239118E+02 -0.23930594532E+02  0.28826207586E+02  0.61548215800E+02  0.47000000000E+01 0.  1.
        -11    1    1    2    0    0  0.35732372425E+02  0.45795541617E+02  0.11098238313E+03  0.12526421451E+03  0.00000000000E+00 0.  1.
         11    1    1    2    0    0 -0.25281086557E+02 -0.23186630287E+02  0.39882535482E+02  0.52605796240E+02  0.00000000000E+00 0. -1.
<mgrwt>
<rscale>  0 0.10865959E+03</rscale>
<asrwt>0</asrwt>
<pdfrwt beam="2">  1        1 0.69602381E-02 0.11394856E+03</pdfrwt>
<pdfrwt beam="1">  1       -1 0.41021734E-01 0.11394856E+03</pdfrwt>
<totfact> 0.58287705E+03</totfact>
</mgrwt>
</event>
<event>
 6    1  0.4705246E-006  0.1830790E+03  0.7546771E-02  0.1171956E+00
          2   -1    0    0  501    0  0.00000000000E+00  0.00000000000E+00  0.32731579172E+03  0.32731579172E+03  0.00000000000E+00 0.  1.
         -2   -1    0    0    0  501 -0.00000000000E+00 -0.00000000000E+00 -0.99457863864E+02  0.99457863864E+02  0.00000000000E+00 0. -1.
          5    1    1    2  502    0  0.10258840385E+02  0.31092442903E+02  0.15540326578E+03  0.15888438824E+03  0.47000000000E+01 0.  1.
         -5    1    1    2    0  502  0.19234139357E+02  0.99386274205E+02  0.40174528666E+02  0.10901223037E+03  0.47000000000E+01 0.  1.
        -11    1    1    2    0    0  0.26590305788E+02 -0.53703195526E+02  0.19064123964E+02  0.62884961590E+02  0.00000000000E+00 0.  1.
         11    1    1    2    0    0 -0.56083285531E+02 -0.76775521582E+02  0.13216009446E+02  0.95992075380E+02  0.00000000000E+00 0. -1.
<mgrwt>
<rscale>  0 0.17577440E+03</rscale>
<asrwt>0</asrwt>
<pdfrwt beam="1">  1        2 0.50356275E-01 0.18307901E+03</pdfrwt>
<pdfrwt beam="2">  1       -2 0.15301210E-01 0.18307901E+03</pdfrwt>
<totfact> 0.32296281E+03</totfact>
</mgrwt>
</event>
<event>
 6    1  0.4705246E-006  0.1674647E+03  0.7546771E-02  0.1187358E+00
         -2   -1    0    0    0  501 -0.00000000000E+00  0.00000000000E+00  0.54404379602E+02  0.54404379602E+02  0.00000000000E+00 0.  1.
          2   -1    0    0  501    0  0.00000000000E+00 -0.00000000000E+00 -0.51808027634E+03  0.51808027634E+03  0.00000000000E+00 0. -1.
          5    1    1    2  502    0  0.31315870393E+02 -0.21846840958E+02 -0.10013431042E+02  0.39753326899E+02  0.47000000000E+01 0. -1.
         -5    1    1    2    0  502  0.67826888739E+02 -0.29063694416E+02 -0.34419703268E+03  0.35204953128E+03  0.47000000000E+01 0. -1.
        -11    1    1    2    0    0 -0.79332253499E+02  0.77163059605E+02 -0.80413643288E+02  0.13679948187E+03  0.00000000000E+00 0.  1.
         11    1    1    2    0    0 -0.19810505633E+02 -0.26252524231E+02 -0.29051789735E+02  0.43882315900E+02  0.00000000000E+00 0. -1.
<mgrwt>
<rscale>  0 0.16119154E+03</rscale>
<asrwt>0</asrwt>
<pdfrwt beam="2">  1        2 0.79704655E-01 0.16746470E+03</pdfrwt>
<pdfrwt beam="1">  1       -2 0.83699049E-02 0.16746470E+03</pdfrwt>
<totfact> 0.51303671E+03</totfact>
</mgrwt>
</event>
<event>
 6    1  0.4705246E-006  0.1411214E+03  0.7546771E-02  0.1221969E+00
          3   -1    0    0  501    0  0.00000000000E+00  0.00000000000E+00  0.24880563393E+03  0.24880563393E+03  0.00000000000E+00 0. -1.
         -3   -1    0    0    0  501 -0.00000000000E+00 -0.00000000000E+00 -0.65865212589E+02  0.65865212589E+02  0.00000000000E+00 0.  1.
          5    1    1    2  502    0  0.38076688199E+02  0.49219440110E+02 -0.37409861282E+01  0.62517777041E+02  0.47000000000E+01 0.  1.
         -5    1    1    2    0  502 -0.93734101205E+01  0.96580456877E+01  0.11855611992E+03  0.11941014293E+03  0.47000000000E+01 0.  1.
        -11    1    1    2    0    0 -0.15397347052E+02 -0.81190578450E+02  0.32836423580E+02  0.88922545167E+02  0.00000000000E+00 0.  1.
         11    1    1    2    0    0 -0.13305931026E+02  0.22313092653E+02  0.35288863965E+02  0.43820381378E+02  0.00000000000E+00 0. -1.
<mgrwt>
<rscale>  0 0.13376807E+03</rscale>
<asrwt>0</asrwt>
<pdfrwt beam="1">  1        3 0.38277789E-01 0.14112141E+03</pdfrwt>
<pdfrwt beam="2">  1       -3 0.10133110E-01 0.14112141E+03</pdfrwt>
<totfact> 0.11316590E+03</totfact>
</mgrwt>
</event>
<event>
 6    1  0.4705246E-006  0.1405607E+03  0.7546771E-02  0.1223806E+00
          2   -1    0    0  501    0  0.00000000000E+00  0.00000000000E+00  0.17220001161E+03  0.17220001161E+03  0.00000000000E+00 0. -1.
         -2   -1    0    0    0  501 -0.00000000000E+00 -0.00000000000E+00 -0.93247538212E+02  0.93247538212E+02  0.00000000000E+00 0.  1.
          5    1    1    2  502    0  0.56584453218E+02 -0.35527918823E+02  0.83118651823E+02  0.10674658609E+03  0.47000000000E+01 0.  1.
         -5    1    1    2    0  502  0.75975431493E+01  0.39098729457E+02 -0.22884995061E+02  0.46176252620E+02  0.47000000000E+01 0.  1.
        -11    1    1    2    0    0  0.20552583007E+02  0.58018827311E+01  0.16933558020E+02  0.27254649121E+02  0.00000000000E+00 0. -1.
         11    1    1    2    0    0 -0.84734579374E+02 -0.93726933648E+01  0.17852586133E+01  0.85270061985E+02  0.00000000000E+00 0.  1.
<mgrwt>
<rscale>  0 0.13249099E+03</rscale>
<asrwt>0</asrwt>
<pdfrwt beam="1">  1        2 0.26492309E-01 0.14056067E+03</pdfrwt>
<pdfrwt beam="2">  1       -2 0.14345775E-01 0.14056067E+03</pdfrwt>
<totfact> 0.70647108E+03</totfact>
</mgrwt>
</event>
<event>
 6    1  0.4705246E-006  0.1723805E+03  0.7546771E-02  0.1181656E+00
         -1   -1    0    0    0  501 -0.00000000000E+00  0.00000000000E+00  0.14015408482E+03  0.14015408482E+03  0.00000000000E+00 0.  1.
          1   -1    0    0  501    0  0.00000000000E+00 -0.00000000000E+00 -0.18551545624E+03  0.18551545624E+03  0.00000000000E+00 0. -1.
          5    1    1    2  502    0  0.51745263451E+02 -0.36451722297E+02  0.28636341653E+02  0.69630671484E+02  0.47000000000E+01 0.  1.
         -5    1    1    2    0  502 -0.44553129126E+02 -0.82018811235E+02 -0.44404880862E+02  0.10346956149E+03  0.47000000000E+01 0.  1.
        -11    1    1    2    0    0  0.33112613446E+02  0.45500814986E+02 -0.39309345570E+02  0.68643965378E+02  0.00000000000E+00 0. -1.
         11    1    1    2    0    0 -0.40304747772E+02  0.72969718545E+02  0.97165133567E+01  0.83925342712E+02  0.00000000000E+00 0.  1.
<mgrwt>
<rscale>  0 0.16639917E+03</rscale>
<asrwt>0</asrwt>
<pdfrwt beam="2">  1        1 0.28540839E-01 0.17238052E+03</pdfrwt>
<pdfrwt beam="1">  1       -1 0.21562167E-01 0.17238052E+03</pdfrwt>
<totfact> 0.28144673E+03</totfact>
</mgrwt>
</event>
<event>
 6    1  0.4705246E-006  0.1476058E+03  0.7546771E-02  0.1210232E+00
          2   -1    0    0  501    0  0.00000000000E+00  0.00000000000E+00  0.69695882919E+03  0.69695882919E+03  0.00000000000E+00 0. -1.
         -2   -1    0    0    0  501 -0.00000000000E+00 -0.00000000000E+00 -0.63186258703E+02  0.63186258703E+02  0.00000000000E+00 0.  1.
          5    1    1    2  502    0 -0.51068852154E+02 -0.10583963905E+02  0.53179073689E+03  0.53436272867E+03  0.47000000000E+01 0. -1.
         -5    1    1    2    0  502 -0.13782934971E+02 -0.49496171052E+02  0.81637305441E+02  0.96574219567E+02  0.47000000000E+01 0.  1.
        -11    1    1    2    0    0  0.54274667766E+02  0.80991642043E+02 -0.10139892027E+01  0.97500840079E+02  0.00000000000E+00 0.  1.
         11    1    1    2    0    0  0.10577119359E+02 -0.20911507086E+02  0.21358517357E+02  0.31707299574E+02  0.00000000000E+00 0. -1.
<mgrwt>
<rscale>  0 0.14232696E+03</rscale>
<asrwt>0</asrwt>
<pdfrwt beam="1">  1        2 0.10722443E+00 0.14760579E+03</pdfrwt>
<pdfrwt beam="2">  1       -2 0.97209634E-02 0.14760579E+03</pdfrwt>
<totfact> 0.28747976E+03</totfact>
</mgrwt>
</event>
<event>
 6    1  0.4705246E-006  0.3006823E+03  0.7546771E-02  0.1085690E+00
          1   -1    0    0  501    0  0.00000000000E+00  0.00000000000E+00  0.16116057619E+04  0.16116057619E+04  0.00000000000E+00 0. -1.
         -1   -1    0    0    0  501 -0.00000000000E+00 -0.00000000000E+00 -0.54971661057E+02  0.54971661057E+02  0.00000000000E+00 0.  1.
          5    1    1    2  502    0  0.38338932946E+02 -0.34898606833E+02  0.18631297459E+03  0.19344870390E+03  0.47000000000E+01 0. -1.
         -5    1    1    2    0  502 -0.27310191885E+02 -0.24469112415E+03  0.62142186285E+03  0.66843609601E+03  0.47000000000E+01 0.  1.
        -11    1    1    2    0    0 -0.37023119027E+02  0.24791594333E+03  0.67731374225E+03  0.72220975605E+03  0.00000000000E+00 0. -1.
         11    1    1    2    0    0  0.25994377966E+02  0.31673787656E+02  0.71585521186E+02  0.82482867032E+02  0.00000000000E+00 0.  1.
<mgrwt>
<rscale>  0 0.29910304E+03</rscale>
<asrwt>0</asrwt>
<pdfrwt beam="1">  1        1 0.24793931E+00 0.30068229E+03</pdfrwt>
<pdfrwt beam="2">  1       -1 0.84571798E-02 0.30068229E+03</pdfrwt>
<totfact> 0.47632443E+02</totfact>
</mgrwt>
</event>
<event>
 6    1  0.4705246E-006  0.1575488E+03  0.7546771E-02  0.1199669E+00
         -1   -1    0    0    0  501 -0.00000000000E+00  0.00000000000E+00  0.52791641201E+02  0.52791641201E+02  0.00000000000E+00 0.  1.
          1   -1    0    0  501    0  0.00000000000E+00 -0.00000000000E+00 -0.40294432013E+03  0.40294432013E+03  0.00000000000E+00 0. -1.
          5    1    1    2  502    0 -0.53244500241E+02  0.16546423821E+02 -0.20268332372E+02  0.59511816006E+02  0.47000000000E+01 0. -1.
         -5    1    1    2    0  502  0.38804601548E+02  0.78273254133E+02 -0.14102038873E+03  0.16595583585E+03  0.47000000000E+01 0. -1.
        -11    1    1    2    0    0 -0.14724684934E+02 -0.70161293914E+02 -0.53041935397E+02  0.89178867568E+02  0.00000000000E+00 0.  1.
         11    1    1    2    0    0  0.29164583627E+02 -0.24658384040E+02 -0.13582202243E+03  0.14108944191E+03  0.00000000000E+00 0. -1.
<mgrwt>
<rscale>  0 0.15065580E+03</rscale>
<asrwt>0</asrwt>
<pdfrwt beam="2">  1        1 0.61991431E-01 0.15754876E+03</pdfrwt>
<pdfrwt beam="1">  1       -1 0.81217914E-02 0.15754876E+03</pdfrwt>
<totfact> 0.48960173E+03</totfact>
</mgrwt>
</event>
<event>
 6    1  0.4705246E-006  0.1262674E+03  0.7546771E-02  0.1250059E+00
         -2   -1    0    0    0  501 -0.00000000000E+00  0.00000000000E+00  0.12289727082E+02  0.12289727082E+02  0.00000000000E+00 0.  1.
          2   -1    0    0  501    0  0.00000000000E+00 -0.00000000000E+00 -0.10440119488E+04  0.10440119488E+04  0.00000000000E+00 0. -1.
          5    1    1    2  502    0  0.40041061425E+02 -0.21170115139E+02 -0.13939042407E+03  0.14663983326E+03  0.47000000000E+01 0.  1.
         -5    1    1    2    0  502 -0.55712562652E+02  0.29675602412E+02 -0.61451346126E+03  0.61776485420E+03  0.47000000000E+01 0.  1.
        -11    1    1    2    0    0  0.35135387452E+02  0.24517456054E+02 -0.83677904672E+02  0.94008472134E+02  0.00000000000E+00 0.  1.
         11    1    1    2    0    0 -0.19463886226E+02 -0.33022943327E+02 -0.19414043173E+03  0.19788851630E+03  0.00000000000E+00 0. -1.
<mgrwt>
<rscale>  0 0.11587662E+03</rscale>
<asrwt>0</asrwt>
<pdfrwt beam="2">  1        2 0.16061735E+00 0.12626741E+03</pdfrwt>
<pdfrwt beam="1">  1       -2 0.18907258E-02 0.12626741E+03</pdfrwt>
<totfact> 0.19685940E+04</totfact>
</mgrwt>
</event>
<event>
 6    1  0.4705246E-006  0.1263104E+03  0.7546771E-02  0.1247788E+00
         -1   -1    0    0    0  501 -0.00000000000E+00  0.00000000000E+00  0.48441725897E+02  0.48441725897E+02  0.00000000000E+00 0.  1.
          1   -1    0    0  501    0  0.00000000000E+00 -0.00000000000E+00 -0.27205844715E+03  0.27205844715E+03  0.00000000000E+00 0. -1.
          5    1    1    2  502    0 -0.31772674591E+02  0.32710183489E+02 -0.78061038243E+01  0.46502518335E+02  0.47000000000E+01 0. -1.
         -5    1    1    2    0  502  0.15699205607E+02 -0.24308133583E+02 -0.16477849813E+03  0.16736604751E+03  0.47000000000E+01 0. -1.
        -11    1    1    2    0    0  0.54013604050E+02 -0.22656644752E+01 -0.37876000102E+02  0.66009045151E+02  0.00000000000E+00 0. -1.
         11    1    1    2    0    0 -0.37940135066E+02 -0.61363854312E+01 -0.13156119197E+02  0.40622562047E+02  0.00000000000E+00 0.  1.
<mgrwt>
<rscale>  0 0.11720056E+03</rscale>
<asrwt>0</asrwt>
<pdfrwt beam="2">  1        1 0.41855147E-01 0.12631041E+03</pdfrwt>
<pdfrwt beam="1">  1       -1 0.74525730E-02 0.12631041E+03</pdfrwt>
<totfact> 0.89686901E+03</totfact>
</mgrwt>
</event>
<event>
 6    1  0.4705246E-006  0.1341541E+03  0.7546771E-02  0.1233631E+00
          4   -1    0    0  501    0  0.00000000000E+00  0.00000000000E+00  0.23749334283E+03  0.23749334283E+03  0.00000000000E+00 0. -1.
         -4   -1    0    0    0  501 -0.00000000000E+00 -0.00000000000E+00 -0.60106990473E+02  0.60106990473E+02  0.00000000000E+00 0.  1.
          5    1    1    2  502    0  0.29289428624E+02 -0.74736326489E+02  0.63813303864E+02  0.10265289512E+03  0.47000000000E+01 0.  1.
         -5    1    1    2    0  502  0.13049109649E+02  0.50740125060E+02  0.25037367426E+02  0.58256324304E+02  0.47000000000E+01 0.  1.
        -11    1    1    2    0    0  0.17991145954E+02 -0.41491597855E+00 -0.84595328835E+01  0.19885099562E+02  0.00000000000E+00 0.  1.
         11    1    1    2    0    0 -0.60329684227E+02  0.24411117407E+02  0.96995213955E+02  0.11680601432E+03  0.00000000000E+00 0. -1.
<mgrwt>
<rscale>  0 0.12592479E+03</rscale>
<asrwt>0</asrwt>
<pdfrwt beam="1">  1        4 0.36537437E-01 0.13415415E+03</pdfrwt>
<pdfrwt beam="2">  1       -4 0.92472294E-02 0.13415415E+03</pdfrwt>
<totfact> 0.10369709E+03</totfact>
</mgrwt>
</event>
<event>
 6    1  0.4705246E-006  0.3808499E+03  0.7546771E-02  0.1070507E+00
         -2   -1    0    0    0  501 -0.00000000000E+00  0.00000000000E+00  0.38920399574E+02  0.38920399574E+02  0.00000000000E+00 0.  1.
          2   -1    0    0  501    0  0.00000000000E+00 -0.00000000000E+00 -0.23516521734E+04  0.23516521734E+04  0.00000000000E+00 0. -1.
          5    1    1    2  502    0 -0.19694281415E+02  0.79445983063E+02 -0.13819979327E+04  0.13844276452E+04  0.47000000000E+01 0. -1.
         -5    1    1    2    0  502 -0.14390438038E+03  0.32738944221E+02 -0.24083630064E+03  0.28249694312E+03  0.47000000000E+01 0.  1.
        -11    1    1    2    0    0  0.13991258425E+03 -0.65592801569E+02 -0.39491178235E+03  0.42406752138E+03  0.00000000000E+00 0. -1.
         11    1    1    2    0    0  0.23686077548E+02 -0.46592125716E+02 -0.29498575811E+03  0.29958046321E+03  0.00000000000E+00 0.  1.
<mgrwt>
<rscale>  0 0.33142788E+03</rscale>
<asrwt>0</asrwt>
<pdfrwt beam="2">  1        2 0.36179267E+00 0.38084988E+03</pdfrwt>
<pdfrwt beam="1">  1       -2 0.59877533E-02 0.38084988E+03</pdfrwt>
<totfact> 0.70569974E+02</totfact>
</mgrwt>
</event>
<event>
 6    1  0.4705246E-006  0.1403887E+03  0.7546771E-02  0.1225573E+00
         -1   -1    0    0    0  501 -0.00000000000E+00  0.00000000000E+00  0.36032684463E+02  0.36032684463E+02  0.00000000000E+00 0.  1.
          1   -1    0    0  501    0  0.00000000000E+00 -0.00000000000E+00 -0.43622198729E+03  0.43622198729E+03  0.00000000000E+00 0. -1.
          5    1    1    2  502    0  0.74775500762E+01 -0.39892060124E+02 -0.59012988022E+02  0.71776827538E+02  0.47000000000E+01 0. -1.
         -5    1    1    2    0  502 -0.58091516386E+02  0.78938024415E+02 -0.20334284321E+03  0.22577917942E+03  0.47000000000E+01 0. -1.
        -11    1    1    2    0    0  0.13486937182E+02 -0.29507472116E+02 -0.85202511240E+00  0.32454804452E+02  0.00000000000E+00 0. -1.
         11    1    1    2    0    0  0.37127029128E+02 -0.95384921750E+01 -0.13698144648E+03  0.14224386034E+03  0.00000000000E+00 0.  1.
<mgrwt>
<rscale>  0 0.13127683E+03</rscale>
<asrwt>0</asrwt>
<pdfrwt beam="2">  1        1 0.67111075E-01 0.14038873E+03</pdfrwt>
<pdfrwt beam="1">  1       -1 0.55434899E-02 0.14038873E+03</pdfrwt>
<totfact> 0.77976067E+03</totfact>
</mgrwt>
</event>
<event>
 6    1  0.4705246E-006  0.1268040E+03  0.7546771E-02  0.1246829E+00
          2   -1    0    0  501    0  0.00000000000E+00  0.00000000000E+00  0.92570725869E+03  0.92570725869E+03  0.00000000000E+00 0. -1.
         -2   -1    0    0    0  501 -0.00000000000E+00 -0.00000000000E+00 -0.20587933092E+02  0.20587933092E+02  0.00000000000E+00 0.  1.
          5    1    1    2  502    0 -0.18495905229E+02 -0.55209429834E+02  0.35865719468E+03  0.36338306641E+03  0.47000000000E+01 0. -1.
         -5    1    1    2    0  502  0.39764336672E+02  0.55441486913E+02  0.41786242917E+03  0.42342184716E+03  0.47000000000E+01 0. -1.
        -11    1    1    2    0    0  0.42744180974E+01 -0.11475652975E+02 -0.11403124846E+02  0.16732976948E+02  0.00000000000E+00 0.  1.
         11    1    1    2    0    0 -0.25542849541E+02  0.11243595896E+02  0.14000282659E+03  0.14275730126E+03  0.00000000000E+00 0. -1.
<mgrwt>
<rscale>  0 0.11776572E+03</rscale>
<asrwt>0</asrwt>
<pdfrwt beam="1">  1        2 0.14241647E+00 0.12680397E+03</pdfrwt>
<pdfrwt beam="2">  1       -2 0.31673750E-02 0.12680397E+03</pdfrwt>
<totfact> 0.10931002E+04</totfact>
</mgrwt>
</event>
<event>
 6    1  0.4705246E-006  0.1646791E+03  0.7546771E-02  0.1190698E+00
          1   -1    0    0  501    0  0.00000000000E+00  0.00000000000E+00  0.12996245928E+03  0.12996245928E+03  0.00000000000E+00 0. -1.
         -1   -1    0    0    0  501 -0.00000000000E+00 -0.00000000000E+00 -0.18530164111E+03  0.18530164111E+03  0.00000000000E+00 0.  1.
          5    1    1    2  502    0  0.64723717623E+02 -0.88972449365E+02  0.12322310077E+02  0.11081148720E+03  0.47000000000E+01 0.  1.
         -5    1    1    2    0  502 -0.49120785037E+02 -0.17099124087E+02 -0.13215773547E+02  0.53870012416E+02  0.47000000000E+01 0.  1.
        -11    1    1    2    0    0  0.19400779344E+02  0.35739071461E+02 -0.59263168079E+02  0.71873462132E+02  0.00000000000E+00 0.  1.
         11    1    1    2    0    0 -0.35003711930E+02  0.70332501991E+02  0.48174497138E+01  0.78709138649E+02  0.00000000000E+00 0. -1.
<mgrwt>
<rscale>  0 0.15824019E+03</rscale>
<asrwt>0</asrwt>
<pdfrwt beam="1">  1        1 0.19994224E-01 0.16467908E+03</pdfrwt>
<pdfrwt beam="2">  1       -1 0.28507945E-01 0.16467908E+03</pdfrwt>
<totfact> 0.27803670E+03</totfact>
</mgrwt>
</event>
<event>
 6    1  0.4705246E-006  0.1270514E+03  0.7546771E-02  0.1247495E+00
          1   -1    0    0  501    0  0.00000000000E+00  0.00000000000E+00  0.98878605585E+03  0.98878605585E+03  0.00000000000E+00 0. -1.
         -1   -1    0    0    0  501 -0.00000000000E+00 -0.00000000000E+00 -0.13696148889E+02  0.13696148889E+02  0.00000000000E+00 0.  1.
          5    1    1    2  502    0 -0.40992856606E+02  0.13317014335E+02  0.69379063055E+03  0.69514407585E+03  0.47000000000E+01 0. -1.
         -5    1    1    2    0  502  0.24110484250E+02  0.22122703797E+01  0.26246655216E+02  0.36016475411E+02  0.47000000000E+01 0. -1.
        -11    1    1    2    0    0  0.76362600551E+01 -0.50461720570E+02  0.10193093246E+03  0.11399391520E+03  0.00000000000E+00 0.  1.
         11    1    1    2    0    0  0.92461123001E+01  0.34932435856E+02  0.15312168874E+03  0.15732773827E+03  0.00000000000E+00 0. -1.
<mgrwt>
<rscale>  0 0.11737258E+03</rscale>
<asrwt>0</asrwt>
<pdfrwt beam="1">  1        1 0.15212088E+00 0.12705140E+03</pdfrwt>
<pdfrwt beam="2">  1       -1 0.21071006E-02 0.12705140E+03</pdfrwt>
<totfact> 0.99484352E+03</totfact>
</mgrwt>
</event>
<event>
 6    1  0.4705246E-006  0.1289431E+03  0.7546771E-02  0.1242926E+00
          2   -1    0    0  501    0  0.00000000000E+00  0.00000000000E+00  0.22660519668E+03  0.22660519668E+03  0.00000000000E+00 0. -1.
         -2   -1    0    0    0  501 -0.00000000000E+00 -0.00000000000E+00 -0.57399095616E+02  0.57399095616E+02  0.00000000000E+00 0.  1.
          5    1    1    2  502    0  0.14863452439E+02  0.57288219002E+02  0.84015144406E+02  0.10287612330E+03  0.47000000000E+01 0.  1.
         -5    1    1    2    0  502 -0.43861252292E+02 -0.44612169841E+02  0.31317526310E+02  0.70120842869E+02  0.47000000000E+01 0.  1.
        -11    1    1    2    0    0  0.60542294511E+02 -0.14937739320E+01  0.47433412934E+02  0.76925479834E+02  0.00000000000E+00 0. -1.
         11    1    1    2    0    0 -0.31544494658E+02 -0.11182275230E+02  0.64400174098E+01  0.34081846293E+02  0.00000000000E+00 0.  1.
<mgrwt>
<rscale>  0 0.12010375E+03</rscale>
<asrwt>0</asrwt>
<pdfrwt beam="1">  1        2 0.34862338E-01 0.12894311E+03</pdfrwt>
<pdfrwt beam="2">  1       -2 0.88306302E-02 0.12894311E+03</pdfrwt>
<totfact> 0.11270304E+04</totfact>
</mgrwt>
</event>
<event>
 6    1  0.4705246E-006  0.2062705E+03  0.7546771E-02  0.1148398E+00
         -3   -1    0    0    0  501 -0.00000000000E+00  0.00000000000E+00  0.40749784994E+03  0.40749784994E+03  0.00000000000E+00 0.  1.
          3   -1    0    0  501    0  0.00000000000E+00 -0.00000000000E+00 -0.95491594143E+02  0.95491594143E+02  0.00000000000E+00 0. -1.
          5    1    1    2  502    0 -0.35245585498E+02  0.27488830452E+02 -0.10087991231E+02  0.46062399675E+02  0.47000000000E+01 0. -1.
         -5    1    1    2    0  502 -0.12883780927E+03 -0.27162133997E+02  0.16918693474E+03  0.21443710385E+03  0.47000000000E+01 0. -1.
        -11    1    1    2    0    0  0.14541389508E+03 -0.34330869053E+02  0.12124300062E+03  0.19241537010E+03  0.00000000000E+00 0. -1.
         11    1    1    2    0    0  0.18669499694E+02  0.34004172599E+02  0.31664311677E+02  0.50074570461E+02  0.00000000000E+00 0.  1.
<mgrwt>
<rscale>  0 0.20159744E+03</rscale>
<asrwt>0</asrwt>
<pdfrwt beam="2">  1        3 0.14691015E-01 0.20627050E+03</pdfrwt>
<pdfrwt beam="1">  1       -3 0.62691976E-01 0.20627050E+03</pdfrwt>
<totfact> 0.23676807E+02</totfact>
</mgrwt>
</event>
<event>
 6    1  0.4705246E-006  0.2922965E+03  0.7546771E-02  0.1089156E+00
         -3   -1    0    0    0  501 -0.00000000000E+00  0.00000000000E+00  0.34392605389E+02  0.34392605389E+02  0.00000000000E+00 0.  1.
          3   -1    0    0  501    0  0.00000000000E+00 -0.00000000000E+00 -0.62104388888E+03  0.62104388888E+03  0.00000000000E+00 0. -1.
          5    1    1    2  502    0 -0.46348936794E+02  0.26645509548E+02 -0.12486333579E+03  0.13590860806E+03  0.47000000000E+01 0. -1.
         -5    1    1    2    0  502  0.83742642190E+02  0.50352316060E+02 -0.23082158103E+03  0.25069678523E+03  0.47000000000E+01 0. -1.
        -11    1    1    2    0    0 -0.57373830274E+02 -0.53078750885E+01 -0.13937628515E+03  0.15081670598E+03  0.00000000000E+00 0. -1.
         11    1    1    2    0    0  0.19980124877E+02 -0.71689950519E+02 -0.91590081515E+02  0.11801439500E+03  0.00000000000E+00 0.  1.
<mgrwt>
<rscale>  0 0.29229654E+03</rscale>
<asrwt>0</asrwt>
<pdfrwt beam="2">  1        3 0.95545206E-01 0.29229654E+03</pdfrwt>
<pdfrwt beam="1">  1       -3 0.52911705E-02 0.29229654E+03</pdfrwt>
<totfact> 0.53450306E+02</totfact>
</mgrwt>
</event>
<event>
 6    1  0.4705246E-006  0.1522114E+03  0.7546771E-02  0.1211974E+00
         -2   -1    0    0    0  501 -0.00000000000E+00  0.00000000000E+00  0.55303150681E+03  0.55303150681E+03  0.00000000000E+00 0.  1.
          2   -1    0    0  501    0  0.00000000000E+00 -0.00000000000E+00 -0.32985071355E+02  0.32985071355E+02  0.00000000000E+00 0. -1.
          5    1    1    2  502    0 -0.18974728565E+02  0.12225834760E+02 -0.45667078265E+01  0.23504386400E+02  0.47000000000E+01 0.  1.
         -5    1    1    2    0  502 -0.24914534617E+02 -0.87168295391E+02  0.24266014108E+03  0.25908508222E+03  0.47000000000E+01 0.  1.
        -11    1    1    2    0    0  0.54522382401E+02  0.44786420588E+02  0.12771716529E+03  0.14591157583E+03  0.00000000000E+00 0. -1.
         11    1    1    2    0    0 -0.10633119220E+02  0.30156040043E+02  0.15423583690E+03  0.15751553371E+03  0.00000000000E+00 0.  1.
<mgrwt>
<rscale>  0 0.14101153E+03</rscale>
<asrwt>0</asrwt>
<pdfrwt beam="2">  1        2 0.50746268E-02 0.15221145E+03</pdfrwt>
<pdfrwt beam="1">  1       -2 0.85081763E-01 0.15221145E+03</pdfrwt>
<totfact> 0.18539739E+03</totfact>
</mgrwt>
</event>
<event>
 6    1  0.4705246E-006  0.1723173E+03  0.7546771E-02  0.1182920E+00
          2   -1    0    0  501    0  0.00000000000E+00  0.00000000000E+00  0.79758154699E+03  0.79758154699E+03  0.00000000000E+00 0. -1.
         -2   -1    0    0    0  501 -0.00000000000E+00 -0.00000000000E+00 -0.74336934301E+02  0.74336934301E+02  0.00000000000E+00 0.  1.
          5    1    1    2  502    0  0.58814986206E+02 -0.59800092314E+02  0.63352929628E+03  0.63907488833E+03  0.47000000000E+01 0.  1.
         -5    1    1    2    0  502 -0.89075484938E+01 -0.47798721332E+02  0.70726235672E+02  0.85955526835E+02  0.47000000000E+01 0.  1.
        -11    1    1    2    0    0 -0.46270425364E+02  0.74214133240E+02  0.50370826250E+02  0.10092526925E+03  0.00000000000E+00 0.  1.
         11    1    1    2    0    0 -0.36370123480E+01  0.33384680406E+02 -0.31381745520E+02  0.45962796874E+02  0.00000000000E+00 0. -1.
<mgrwt>
<rscale>  0 0.16522599E+03</rscale>
<asrwt>0</asrwt>
<pdfrwt beam="1">  1        2 0.12270485E+00 0.17231729E+03</pdfrwt>
<pdfrwt beam="2">  1       -2 0.11436452E-01 0.17231729E+03</pdfrwt>
<totfact> 0.18915188E+03</totfact>
</mgrwt>
</event>
<event>
 6    1  0.4705246E-006  0.1835007E+03  0.7546771E-02  0.1169832E+00
         -2   -1    0    0    0  501 -0.00000000000E+00  0.00000000000E+00  0.25369371635E+03  0.25369371635E+03  0.00000000000E+00 0. -1.
          2   -1    0    0  501    0  0.00000000000E+00 -0.00000000000E+00 -0.18515442683E+03  0.18515442683E+03  0.00000000000E+00 0.  1.
          5    1    1    2  502    0  0.30792551388E+02 -0.39851799256E+02 -0.10258206477E+03  0.11437446016E+03  0.47000000000E+01 0. -1.
         -5    1    1    2    0  502  0.91255394792E+02 -0.16285718874E+02  0.59649703966E+01  0.93007755535E+02  0.47000000000E+01 0. -1.
        -11    1    1    2    0    0 -0.16246044173E+01  0.40733695668E+02  0.41062982243E+02  0.57862265881E+02  0.00000000000E+00 0.  1.
         11    1    1    2    0    0 -0.12042334176E+03  0.15403822462E+02  0.12409340165E+03  0.17360366160E+03  0.00000000000E+00 0. -1.
<mgrwt>
<rscale>  0 0.17791907E+03</rscale>
<asrwt>0</asrwt>
<pdfrwt beam="2">  1        2 0.28485296E-01 0.18350074E+03</pdfrwt>
<pdfrwt beam="1">  1       -2 0.39029802E-01 0.18350074E+03</pdfrwt>
<totfact> 0.11505674E+03</totfact>
</mgrwt>
</event>
<event>
 6    1  0.4705246E-006  0.2621652E+03  0.7546771E-02  0.1105849E+00
         -2   -1    0    0    0  501 -0.00000000000E+00  0.00000000000E+00  0.81970375680E+01  0.81970375680E+01  0.00000000000E+00 0.  1.
          2   -1    0    0  501    0  0.00000000000E+00 -0.00000000000E+00 -0.20962014085E+04  0.20962014085E+04  0.00000000000E+00 0. -1.
          5    1    1    2  502    0  0.52766029539E+01  0.25433361756E+01 -0.33149591334E+01  0.82091443946E+01  0.47000000000E+01 0.  1.
         -5    1    1    2    0  502 -0.26803734751E+02  0.35969666737E+02 -0.15803995875E+04  0.15810430744E+04  0.47000000000E+01 0.  1.
        -11    1    1    2    0    0 -0.11496419717E+02 -0.62771411711E+02 -0.32885822262E+03  0.33499275870E+03  0.00000000000E+00 0. -1.
         11    1    1    2    0    0  0.33023551514E+02  0.24258408798E+02 -0.17543160171E+03  0.18015346855E+03  0.00000000000E+00 0.  1.
<mgrwt>
<rscale>  0 0.26216515E+03</rscale>
<asrwt>0</asrwt>
<pdfrwt beam="2">  1        2 0.32249247E+00 0.26216515E+03</pdfrwt>
<pdfrwt beam="1">  1       -2 0.12610829E-02 0.26216515E+03</pdfrwt>
<totfact> 0.10043644E+04</totfact>
</mgrwt>
</event>
<event>
 6    1  0.4705246E-006  0.2323401E+03  0.7546771E-02  0.1127947E+00
         -1   -1    0    0    0  501 -0.00000000000E+00  0.00000000000E+00  0.58907671973E+03  0.58907671973E+03  0.00000000000E+00 0.  1.
          1   -1    0    0  501    0  0.00000000000E+00 -0.00000000000E+00 -0.85712296494E+02  0.85712296494E+02  0.00000000000E+00 0. -1.
          5    1    1    2  502    0  0.22110524587E+02 -0.14071161609E+01 -0.28843198886E+01  0.22831219297E+02  0.47000000000E+01 0.  1.
         -5    1    1    2    0  502  0.11325993924E+02  0.19438019047E+03  0.24089401136E+03  0.30978048889E+03  0.47000000000E+01 0.  1.
        -11    1    1    2    0    0 -0.45232010928E+02 -0.97700737049E+02  0.82441037296E+02  0.13560196703E+03  0.00000000000E+00 0.  1.
         11    1    1    2    0    0  0.11795492417E+02 -0.95272337261E+02  0.18291369447E+03  0.20657534101E+03  0.00000000000E+00 0. -1.
<mgrwt>
<rscale>  0 0.22815260E+03</rscale>
<asrwt>0</asrwt>
<pdfrwt beam="2">  1        1 0.13186508E-01 0.23234013E+03</pdfrwt>
<pdfrwt beam="1">  1       -1 0.90627185E-01 0.23234013E+03</pdfrwt>
<totfact> 0.55406971E+02</totfact>
</mgrwt>
</event>
<event>
 6    1  0.4705246E-006  0.1419820E+03  0.7546771E-02  0.1221039E+00
         -2   -1    0    0    0  501 -0.00000000000E+00  0.00000000000E+00  0.12621908945E+02  0.12621908945E+02  0.00000000000E+00 0.  1.
          2   -1    0    0  501    0  0.00000000000E+00 -0.00000000000E+00 -0.13415287414E+04  0.13415287414E+04  0.00000000000E+00 0. -1.
          5    1    1    2  502    0  0.35339354015E+02 -0.59525488166E+02 -0.46265557422E+03  0.46782948180E+03  0.47000000000E+01 0.  1.
         -5    1    1    2    0  502 -0.71695368812E+02  0.28492890251E+01 -0.39234164165E+03  0.39887641962E+03  0.47000000000E+01 0.  1.
        -11    1    1    2    0    0  0.67504445293E+02  0.36388947259E+02 -0.30501512280E+03  0.31450791843E+03  0.00000000000E+00 0.  1.
         11    1    1    2    0    0 -0.31148430496E+02  0.20287251882E+02 -0.16889449375E+03  0.17293683047E+03  0.00000000000E+00 0. -1.
<mgrwt>
<rscale>  0 0.13442132E+03</rscale>
<asrwt>0</asrwt>
<pdfrwt beam="2">  1        2 0.20638890E+00 0.14198197E+03</pdfrwt>
<pdfrwt beam="1">  1       -2 0.19418334E-02 0.14198197E+03</pdfrwt>
<totfact> 0.13035686E+04</totfact>
</mgrwt>
</event>
<event>
 6    1  0.4705246E-006  0.2051439E+03  0.7546771E-02  0.1149363E+00
         -2   -1    0    0    0  501 -0.00000000000E+00  0.00000000000E+00  0.50412914056E+02  0.50412914056E+02  0.00000000000E+00 0.  1.
          2   -1    0    0  501    0  0.00000000000E+00 -0.00000000000E+00 -0.83360419237E+03  0.83360419237E+03  0.00000000000E+00 0. -1.
          5    1    1    2  502    0 -0.10830664572E+03  0.35079264289E+02 -0.22648406745E+03  0.25353107718E+03  0.47000000000E+01 0.  1.
         -5    1    1    2    0  502 -0.42100901428E+01  0.82365302129E+02 -0.31061830147E+03  0.32141497641E+03  0.47000000000E+01 0.  1.
        -11    1    1    2    0    0  0.21380733122E+02 -0.84237722466E+02 -0.88606470620E+02  0.12411380371E+03  0.00000000000E+00 0.  1.
         11    1    1    2    0    0  0.91136002740E+02 -0.33206843953E+02 -0.15748243878E+03  0.18495724913E+03  0.00000000000E+00 0. -1.
<mgrwt>
<rscale>  0 0.20044645E+03</rscale>
<asrwt>0</asrwt>
<pdfrwt beam="2">  1        2 0.12824681E+00 0.20514388E+03</pdfrwt>
<pdfrwt beam="1">  1       -2 0.77558325E-02 0.20514388E+03</pdfrwt>
<totfact> 0.33099166E+03</totfact>
</mgrwt>
</event>
<event>
 6    1  0.4705246E-006  0.1815081E+03  0.7546771E-02  0.1171975E+00
         -2   -1    0    0    0  501 -0.00000000000E+00  0.00000000000E+00  0.38638175013E+02  0.38638175013E+02  0.00000000000E+00 0.  1.
          2   -1    0    0  501    0  0.00000000000E+00 -0.00000000000E+00 -0.92099035505E+03  0.92099035505E+03  0.00000000000E+00 0. -1.
          5    1    1    2  502    0 -0.74874722729E+02 -0.94942102850E+02 -0.44934903050E+03  0.46535671072E+03  0.47000000000E+01 0.  1.
         -5    1    1    2    0  502  0.49657563845E+02 -0.34227337312E+02 -0.21976124347E+03  0.22793525045E+03  0.47000000000E+01 0.  1.
        -11    1    1    2    0    0 -0.25479375954E+02  0.94816267076E+02 -0.12562860623E+03  0.15944237142E+03  0.00000000000E+00 0. -1.
         11    1    1    2    0    0  0.50696534838E+02  0.34353173087E+02 -0.87613299845E+02  0.10689419748E+03  0.00000000000E+00 0.  1.
<mgrwt>
<rscale>  0 0.17575626E+03</rscale>
<asrwt>0</asrwt>
<pdfrwt beam="2">  1        2 0.14169081E+00 0.18150808E+03</pdfrwt>
<pdfrwt beam="1">  1       -2 0.59443350E-02 0.18150808E+03</pdfrwt>
<totfact> 0.43611242E+03</totfact>
</mgrwt>
</event>
<event>
 6    1  0.4705246E-006  0.2406847E+03  0.7546771E-02  0.1122139E+00
         -1   -1    0    0    0  501 -0.00000000000E+00  0.00000000000E+00  0.11409817013E+03  0.11409817013E+03  0.00000000000E+00 0.  1.
          1   -1    0    0  501    0  0.00000000000E+00 -0.00000000000E+00 -0.47514772786E+03  0.47514772786E+03  0.00000000000E+00 0. -1.
          5    1    1    2  502    0 -0.37655770810E+02  0.17548685037E+02 -0.22109395177E+02  0.47295124240E+02  0.47000000000E+01 0. -1.
         -5    1    1    2    0  502 -0.10155702201E+03 -0.16900241368E+03 -0.17926194306E+03  0.26651937787E+03  0.47000000000E+01 0. -1.
        -11    1    1    2    0    0  0.17519630831E+02  0.66676203276E+02 -0.84806377935E+02  0.10929215565E+03  0.00000000000E+00 0. -1.
         11    1    1    2    0    0  0.12169316199E+03  0.84777525370E+02 -0.74871841562E+02  0.16613924023E+03  0.00000000000E+00 0.  1.
<mgrwt>
<rscale>  0 0.23651180E+03</rscale>
<asrwt>0</asrwt>
<pdfrwt beam="2">  1        1 0.73099650E-01 0.24068470E+03</pdfrwt>
<pdfrwt beam="1">  1       -1 0.17553565E-01 0.24068470E+03</pdfrwt>
<totfact> 0.12056564E+03</totfact>
</mgrwt>
</event>
<event>
 6    1  0.4705246E-006  0.1177471E+03  0.7546771E-02  0.1258736E+00
         -1   -1    0    0    0  501 -0.00000000000E+00  0.00000000000E+00  0.13644232190E+03  0.13644232190E+03  0.00000000000E+00 0.  1.
          1   -1    0    0  501    0  0.00000000000E+00 -0.00000000000E+00 -0.89719730362E+02  0.89719730362E+02  0.00000000000E+00 0. -1.
          5    1    1    2  502    0  0.42937416115E+02  0.72928992856E+01 -0.43031143607E+02  0.61405027504E+02  0.47000000000E+01 0. -1.
         -5    1    1    2    0  502 -0.40163671339E+02 -0.19419464739E+02  0.34587160342E+02  0.56644485757E+02  0.47000000000E+01 0.  1.
        -11    1    1    2    0    0  0.25805143774E+02 -0.31210816196E+02  0.18291984033E+02  0.44436664734E+02  0.00000000000E+00 0.  1.
         11    1    1    2    0    0 -0.28578888551E+02  0.43337381649E+02  0.36874590768E+02  0.63675874264E+02  0.00000000000E+00 0. -1.
<mgrwt>
<rscale>  0 0.11099622E+03</rscale>
<asrwt>0</asrwt>
<pdfrwt beam="2">  1        1 0.13803035E-01 0.11774713E+03</pdfrwt>
<pdfrwt beam="1">  1       -1 0.20991127E-01 0.11774713E+03</pdfrwt>
<totfact> 0.72526037E+03</totfact>
</mgrwt>
</event>
<event>
 6    1  0.4705246E-006  0.1265842E+03  0.7546771E-02  0.1247476E+00
          2   -1    0    0  501    0  0.00000000000E+00  0.00000000000E+00  0.24197556592E+03  0.24197556592E+03  0.00000000000E+00 0. -1.
         -2   -1    0    0    0  501 -0.00000000000E+00 -0.00000000000E+00 -0.51173887075E+02  0.51173887075E+02  0.00000000000E+00 0.  1.
          5    1    1    2  502    0  0.12995547079E+02  0.15749606276E+02  0.11871336239E+03  0.12054827561E+03  0.47000000000E+01 0.  1.
         -5    1    1    2    0  502  0.66620332595E+01 -0.12267660025E+02 -0.30411891769E+02  0.33791290751E+02  0.47000000000E+01 0.  1.
        -11    1    1    2    0    0  0.25733687211E+02 -0.26332929302E+02  0.19963841823E+02  0.41883180436E+02  0.00000000000E+00 0.  1.
         11    1    1    2    0    0 -0.45391267550E+02  0.22850983051E+02  0.82536366395E+02  0.96926706195E+02  0.00000000000E+00 0. -1.
<mgrwt>
<rscale>  0 0.11738410E+03</rscale>
<asrwt>0</asrwt>
<pdfrwt beam="1">  1        2 0.37227009E-01 0.12658417E+03</pdfrwt>
<pdfrwt beam="2">  1       -2 0.78729059E-02 0.12658417E+03</pdfrwt>
<totfact> 0.12529906E+04</totfact>
</mgrwt>
</event>
<event>
 6    1  0.4705246E-006  0.1549588E+03  0.7546771E-02  0.1203811E+00
         -1   -1    0    0    0  501 -0.00000000000E+00  0.00000000000E+00  0.40509623537E+03  0.40509623537E+03  0.00000000000E+00 0.  1.
          1   -1    0    0  501    0  0.00000000000E+00 -0.00000000000E+00 -0.49094634137E+02  0.49094634137E+02  0.00000000000E+00 0. -1.
          5    1    1    2  502    0 -0.33527874141E+01 -0.33327432644E+02 -0.84463952896E+01  0.34862451770E+02  0.47000000000E+01 0. -1.
         -5    1    1    2    0  502  0.52481766149E+01 -0.58256597677E+02  0.21801183475E+03  0.22577117757E+03  0.47000000000E+01 0. -1.
        -11    1    1    2    0    0 -0.37170257651E+02  0.66588914052E+02  0.12206302633E+03  0.14392739116E+03  0.00000000000E+00 0.  1.
         11    1    1    2    0    0  0.35274868450E+02  0.24995116268E+02  0.24373135443E+02  0.49629849010E+02  0.00000000000E+00 0. -1.
<mgrwt>
<rscale>  0 0.14731528E+03</rscale>
<asrwt>0</asrwt>
<pdfrwt beam="2">  1        1 0.75530209E-02 0.15495875E+03</pdfrwt>
<pdfrwt beam="1">  1       -1 0.62322496E-01 0.15495875E+03</pdfrwt>
<totfact> 0.24733524E+03</totfact>
</mgrwt>
</event>
<event>
 6    1  0.4705246E-006  0.3541092E+03  0.7546771E-02  0.1060941E+00
          3   -1    0    0  501    0  0.00000000000E+00  0.00000000000E+00  0.74974190108E+02  0.74974190108E+02  0.00000000000E+00 0. -1.
         -3   -1    0    0    0  501 -0.00000000000E+00 -0.00000000000E+00 -0.41812161918E+03  0.41812161918E+03  0.00000000000E+00 0.  1.
          5    1    1    2  502    0 -0.86116510414E+02  0.84483921313E+02 -0.51769897066E+01  0.12084071147E+03  0.47000000000E+01 0.  1.
         -5    1    1    2    0  502  0.15910978913E+02 -0.12090825034E+02 -0.41681515179E+02  0.46462737840E+02  0.47000000000E+01 0.  1.
        -11    1    1    2    0    0  0.58610363340E+02 -0.23531160402E+02 -0.71225823863E+02  0.95194580653E+02  0.00000000000E+00 0. -1.
         11    1    1    2    0    0  0.11595168161E+02 -0.48861935877E+02 -0.22506310032E+03  0.23059777932E+03  0.00000000000E+00 0.  1.
<mgrwt>
<rscale>  0 0.35410919E+03</rscale>
<asrwt>0</asrwt>
<pdfrwt beam="1">  1        3 0.11534491E-01 0.35410919E+03</pdfrwt>
<pdfrwt beam="2">  1       -3 0.64326404E-01 0.35410919E+03</pdfrwt>
<totfact> 0.35785877E+02</totfact>
</mgrwt>
</event>
<event>
 6    1  0.4705246E-006  0.1384485E+03  0.7546771E-02  0.1226083E+00
         -2   -1    0    0    0  501 -0.00000000000E+00  0.00000000000E+00  0.16103842476E+03  0.16103842476E+03  0.00000000000E+00 0.  1.
          2   -1    0    0  501    0  0.00000000000E+00 -0.00000000000E+00 -0.10058912089E+03  0.10058912089E+03  0.00000000000E+00 0. -1.
          5    1    1    2  502    0 -0.84082892897E+02  0.32464441709E+01  0.36199480214E+01  0.84354408903E+02  0.47000000000E+01 0. -1.
         -5    1    1    2    0  502  0.36821089003E+02 -0.39448243542E+02  0.32683130908E+01  0.54265351601E+02  0.47000000000E+01 0. -1.
        -11    1    1    2    0    0  0.21952161118E+02  0.63292532111E+02  0.13340054910E+02  0.68306654609E+02  0.00000000000E+00 0. -1.
         11    1    1    2    0    0  0.25309642775E+02 -0.27090732740E+02  0.40220987847E+02  0.54701130530E+02  0.00000000000E+00 0.  1.
<mgrwt>
<rscale>  0 0.13092933E+03</rscale>
<asrwt>0</asrwt>
<pdfrwt beam="2">  1        2 0.15475249E-01 0.13844851E+03</pdfrwt>
<pdfrwt beam="1">  1       -2 0.24775142E-01 0.13844851E+03</pdfrwt>
<totfact> 0.51707807E+03</totfact>
</mgrwt>
</event>
<event>
 6    1  0.4705246E-006  0.1419200E+03  0.7546771E-02  0.1220223E+00
          1   -1    0    0  501    0  0.00000000000E+00  0.00000000000E+00  0.17886818339E+03  0.17886818339E+03  0.00000000000E+00 0. -1.
         -1   -1    0    0    0  501 -0.00000000000E+00 -0.00000000000E+00 -0.11229720448E+03  0.11229720448E+03  0.00000000000E+00 0.  1.
          5    1    1    2  502    0 -0.38691695134E+02 -0.37446126293E+00  0.59909405141E+01  0.39435629344E+02  0.47000000000E+01 0. -1.
         -5    1    1    2    0  502  0.80309752945E+02  0.53166221329E+02  0.89967471302E+02  0.13188077722E+03  0.47000000000E+01 0. -1.
        -11    1    1    2    0    0 -0.29389784736E+02 -0.42627088428E+02  0.28993116133E+02  0.59341628709E+02  0.00000000000E+00 0. -1.
         11    1    1    2    0    0 -0.12228273076E+02 -0.10164671638E+02 -0.58380549038E+02  0.60507352593E+02  0.00000000000E+00 0.  1.
<mgrwt>
<rscale>  0 0.13499731E+03</rscale>
<asrwt>0</asrwt>
<pdfrwt beam="1">  1        1 0.27518182E-01 0.14192003E+03</pdfrwt>
<pdfrwt beam="2">  1       -1 0.17276493E-01 0.14192003E+03</pdfrwt>
<totfact> 0.41663483E+03</totfact>
</mgrwt>
</event>
<event>
 6    1  0.4705246E-006  0.1305996E+03  0.7546771E-02  0.1240154E+00
          1   -1    0    0  501    0  0.00000000000E+00  0.00000000000E+00  0.13077427595E+03  0.13077427595E+03  0.00000000000E+00 0. -1.
         -1   -1    0    0    0  501 -0.00000000000E+00 -0.00000000000E+00 -0.14223675687E+03  0.14223675687E+03  0.00000000000E+00 0.  1.
          5    1    1    2  502    0  0.69154865075E+02 -0.86980633846E+01 -0.37425816863E+00  0.69859013300E+02  0.47000000000E+01 0.  1.
         -5    1    1    2    0  502 -0.32357815608E+02  0.17477933955E+02  0.67427099702E+02  0.76948100564E+02  0.47000000000E+01 0.  1.
        -11    1    1    2    0    0 -0.66075782674E+02 -0.75457896190E+01 -0.39301523808E+02  0.77249969388E+02  0.00000000000E+00 0.  1.
         11    1    1    2    0    0  0.29278733207E+02 -0.12340809514E+01 -0.39213798648E+02  0.48953949569E+02  0.00000000000E+00 0. -1.
<mgrwt>
<rscale>  0 0.12180158E+03</rscale>
<asrwt>0</asrwt>
<pdfrwt beam="1">  1        1 0.20119119E-01 0.13059956E+03</pdfrwt>
<pdfrwt beam="2">  1       -1 0.21882578E-01 0.13059956E+03</pdfrwt>
<totfact> 0.42132612E+03</totfact>
</mgrwt>
</event>
<event>
 6    1  0.4705246E-006  0.3585216E+03  0.7546771E-02  0.1059171E+00
         -1   -1    0    0    0  501 -0.00000000000E+00  0.00000000000E+00  0.57608009227E+03  0.57608009227E+03  0.00000000000E+00 0.  1.
          1   -1    0    0  501    0  0.00000000000E+00 -0.00000000000E+00 -0.55781196604E+02  0.55781196604E+02  0.00000000000E+00 0. -1.
          5    1    1    2  502    0 -0.10145703425E+02  0.22398996155E+02  0.11164173797E+03  0.11441423855E+03  0.47000000000E+01 0.  1.
         -5    1    1    2    0  502  0.60524625690E+02  0.88419011240E+02  0.32978149564E+02  0.11220873501E+03  0.47000000000E+01 0.  1.
        -11    1    1    2    0    0 -0.59047639815E+02 -0.51648382423E+02  0.12542086405E+03  0.14793435136E+03  0.00000000000E+00 0.  1.
         11    1    1    2    0    0  0.86687175510E+01 -0.59169624973E+02  0.25025814409E+03  0.25730396395E+03  0.00000000000E+00 0. -1.
<mgrwt>
<rscale>  0 0.35852161E+03</rscale>
<asrwt>0</asrwt>
<pdfrwt beam="2">  1        1 0.85817230E-02 0.35852161E+03</pdfrwt>
<pdfrwt beam="1">  1       -1 0.88627702E-01 0.35852161E+03</pdfrwt>
<totfact> 0.10406467E+03</totfact>
</mgrwt>
</event>
<event>
 6    1  0.4773892E-006  0.4274820E+03  0.7546771E-02  0.1034658E+00
          1   -1    0    0  501    0  0.00000000000E+00  0.00000000000E+00  0.70352605856E+02  0.70352605856E+02  0.00000000000E+00 0. -1.
         -1   -1    0    0    0  501 -0.00000000000E+00 -0.00000000000E+00 -0.64937480957E+03  0.64937480957E+03  0.00000000000E+00 0.  1.
          5    1    1    2  502    0 -0.31778315781E+02 -0.17223160040E+02 -0.80094192660E+02  0.87998115284E+02  0.47000000000E+01 0.  1.
         -5    1    1    2    0  502  0.53549661847E+02 -0.14774059290E+03 -0.92776711705E+02  0.18254987623E+03  0.47000000000E+01 0.  1.
        -11    1    1    2    0    0  0.93432991461E+01  0.47458053050E+02 -0.23081568441E+03  0.23582926919E+03  0.00000000000E+00 0.  1.
         11    1    1    2    0    0 -0.31114645212E+02  0.11750569989E+03 -0.17533561494E+03  0.21335015472E+03  0.00000000000E+00 0. -1.
<mgrwt>
<rscale>  0 0.42748198E+03</rscale>
<asrwt>0</asrwt>
<pdfrwt beam="1">  1        1 0.10823478E-01 0.42748198E+03</pdfrwt>
<pdfrwt beam="2">  1       -1 0.99903814E-01 0.42748198E+03</pdfrwt>
<totfact> 0.58269812E+02</totfact>
</mgrwt>
</event>
<event>
 6    1  0.4705246E-006  0.2113258E+03  0.7546771E-02  0.1144489E+00
          2   -1    0    0  501    0  0.00000000000E+00  0.00000000000E+00  0.85081874067E+03  0.85081874067E+03  0.00000000000E+00 0. -1.
         -2   -1    0    0    0  501 -0.00000000000E+00 -0.00000000000E+00 -0.47993365310E+02  0.47993365310E+02  0.00000000000E+00 0.  1.
          5    1    1    2  502    0 -0.34717522856E+01 -0.22914940130E+01 -0.77069330593E+01  0.99393574201E+01  0.47000000000E+01 0. -1.
         -5    1    1    2    0  502  0.15308134751E+03 -0.79259363029E+02  0.40168259687E+03  0.43713492678E+03  0.47000000000E+01 0. -1.
        -11    1    1    2    0    0 -0.93777876768E+02  0.13792804640E+01  0.21858536384E+03  0.23785658257E+03  0.00000000000E+00 0.  1.
         11    1    1    2    0    0 -0.55831718458E+02  0.80171576578E+02  0.19026434770E+03  0.21388123920E+03  0.00000000000E+00 0. -1.
<mgrwt>
<rscale>  0 0.20635067E+03</rscale>
<asrwt>0</asrwt>
<pdfrwt beam="1">  1        2 0.13089518E+00 0.21132580E+03</pdfrwt>
<pdfrwt beam="2">  1       -2 0.73835953E-02 0.21132580E+03</pdfrwt>
<totfact> 0.34822410E+03</totfact>
</mgrwt>
</event>
<event>
 6    1  0.4705246E-006  0.1474213E+03  0.7546771E-02  0.1213420E+00
          1   -1    0    0  501    0  0.00000000000E+00  0.00000000000E+00  0.16294207505E+03  0.16294207505E+03  0.00000000000E+00 0. -1.
         -1   -1    0    0    0  501 -0.00000000000E+00 -0.00000000000E+00 -0.10947883854E+03  0.10947883854E+03  0.00000000000E+00 0.  1.
          5    1    1    2  502    0  0.94784927301E+01 -0.51007985534E+02  0.46407538222E+02  0.69766797378E+02  0.47000000000E+01 0.  1.
         -5    1    1    2    0  502 -0.78260638904E+02  0.13895530701E+02 -0.14844665715E+02  0.80995478117E+02  0.47000000000E+01 0.  1.
        -11    1    1    2    0    0  0.57433526290E+01 -0.10051217999E+02  0.39351061504E+02  0.41018521721E+02  0.00000000000E+00 0. -1.
         11    1    1    2    0    0  0.63038793545E+02  0.47163672832E+02 -0.17450697498E+02  0.80640116380E+02  0.00000000000E+00 0.  1.
<mgrwt>
<rscale>  0 0.13993220E+03</rscale>
<asrwt>0</asrwt>
<pdfrwt beam="1">  1        1 0.25068012E-01 0.14742133E+03</pdfrwt>
<pdfrwt beam="2">  1       -1 0.16842898E-01 0.14742133E+03</pdfrwt>
<totfact> 0.48864807E+03</totfact>
</mgrwt>
</event>
<event>
 6    1  0.4705246E-006  0.1325309E+03  0.7546771E-02  0.1238156E+00
          1   -1    0    0  501    0  0.00000000000E+00  0.00000000000E+00  0.82288884501E+02  0.82288884501E+02  0.00000000000E+00 0. -1.
         -1   -1    0    0    0  501 -0.00000000000E+00 -0.00000000000E+00 -0.16854816647E+03  0.16854816647E+03  0.00000000000E+00 0.  1.
          5    1    1    2  502    0 -0.66517516455E+02  0.73883307438E+01  0.30210563732E+02  0.73579450851E+02  0.47000000000E+01 0. -1.
         -5    1    1    2    0  502  0.25075946925E+02  0.75239439569E+01 -0.55217488372E+02  0.61290079695E+02  0.47000000000E+01 0. -1.
        -11    1    1    2    0    0  0.22188330558E+02 -0.37303577707E+02 -0.72391214582E+02  0.84405964667E+02  0.00000000000E+00 0.  1.
         11    1    1    2    0    0  0.19253238973E+02  0.22391303006E+02  0.11138857249E+02  0.31561555761E+02  0.00000000000E+00 0. -1.
<mgrwt>
<rscale>  0 0.12304541E+03</rscale>
<asrwt>0</asrwt>
<pdfrwt beam="1">  1        1 0.12659828E-01 0.13253092E+03</pdfrwt>
<pdfrwt beam="2">  1       -1 0.25930487E-01 0.13253092E+03</pdfrwt>
<totfact> 0.58053099E+03</totfact>
</mgrwt>
</event>
<event>
 6    1  0.4705246E-006  0.1710710E+03  0.7546771E-02  0.1183160E+00
          1   -1    0    0  501    0  0.00000000000E+00  0.00000000000E+00  0.18912203448E+03  0.18912203448E+03  0.00000000000E+00 0. -1.
         -1   -1    0    0    0  501 -0.00000000000E+00 -0.00000000000E+00 -0.14936356278E+03  0.14936356278E+03  0.00000000000E+00 0.  1.
          5    1    1    2  502    0 -0.53923346834E+02  0.43615709998E+02  0.37854965480E+02  0.79152674648E+02  0.47000000000E+01 0. -1.
         -5    1    1    2    0  502  0.70673745380E+02  0.71965729480E+02  0.36342662908E+02  0.10731599905E+03  0.47000000000E+01 0. -1.
        -11    1    1    2    0    0  0.34640996907E+02 -0.36663667363E+02  0.33290763548E+01  0.50550033834E+02  0.00000000000E+00 0. -1.
         11    1    1    2    0    0 -0.51391395453E+02 -0.78917772115E+02 -0.37768233042E+02  0.10146688972E+03  0.00000000000E+00 0.  1.
<mgrwt>
<rscale>  0 0.16500419E+03</rscale>
<asrwt>0</asrwt>
<pdfrwt beam="1">  1        1 0.29095698E-01 0.17107097E+03</pdfrwt>
<pdfrwt beam="2">  1       -1 0.22979010E-01 0.17107097E+03</pdfrwt>
<totfact> 0.24755329E+03</totfact>
</mgrwt>
</event>
<event>
 6    1  0.4705246E-006  0.1186568E+03  0.7546771E-02  0.1300814E+00
          4   -1    0    0  501    0  0.00000000000E+00  0.00000000000E+00  0.46345265014E+02  0.46345265014E+02  0.00000000000E+00 0. -1.
         -4   -1    0    0    0  501 -0.00000000000E+00 -0.00000000000E+00 -0.16483993431E+03  0.16483993431E+03  0.00000000000E+00 0.  1.
          5    1    1    2  502    0 -0.82780495480E+01  0.76132541193E+02 -0.33745570979E+02  0.83818515219E+02  0.47000000000E+01 0. -1.
         -5    1    1    2    0  502 -0.16627962724E+01 -0.41243548185E+02 -0.10803032852E+02  0.42925408293E+02  0.47000000000E+01 0.  1.
        -11    1    1    2    0    0  0.15382067744E+02 -0.25149454634E+02 -0.56595736283E+02  0.63813638368E+02  0.00000000000E+00 0. -1.
         11    1    1    2    0    0 -0.54412219234E+01 -0.97395383746E+01 -0.17350329183E+02  0.20627637444E+02  0.00000000000E+00 0.  1.
<mgrwt>
<rscale>  0 0.90846566E+02</rscale>
<asrwt>0</asrwt>
<pdfrwt beam="1">  1        4 0.71300408E-02 0.11865683E+03</pdfrwt>
<pdfrwt beam="2">  1       -4 0.25359990E-01 0.11865683E+03</pdfrwt>
<totfact> 0.30935226E+03</totfact>
</mgrwt>
</event>
<event>
 6    1  0.7009599E-006  0.3321404E+03  0.7546771E-02  0.1071534E+00
          3   -1    0    0  501    0  0.00000000000E+00  0.00000000000E+00  0.14364300902E+04  0.14364300902E+04  0.00000000000E+00 0. -1.
         -3   -1    0    0    0  501 -0.00000000000E+00 -0.00000000000E+00 -0.75978467156E+02  0.75978467156E+02  0.00000000000E+00 0.  1.
          5    1    1    2  502    0  0.43655778895E+02 -0.26876206993E+02  0.15376595526E+03  0.16215491522E+03  0.47000000000E+01 0. -1.
         -5    1    1    2    0  502  0.24370828473E+03  0.13694844170E+03  0.65897136756E+03  0.71583095560E+03  0.47000000000E+01 0. -1.
        -11    1    1    2    0    0 -0.13563365244E+03 -0.43911406042E+02  0.34099704320E+03  0.36959935434E+03  0.00000000000E+00 0. -1.
         11    1    1    2    0    0 -0.15173041119E+03 -0.66160828666E+02  0.20671725704E+03  0.26482333221E+03  0.00000000000E+00 0.  1.
<mgrwt>
<rscale>  0 0.32910340E+03</rscale>
<asrwt>0</asrwt>
<pdfrwt beam="1">  1        3 0.22098922E+00 0.33214038E+03</pdfrwt>
<pdfrwt beam="2">  1       -3 0.11688996E-01 0.33214038E+03</pdfrwt>
<totfact> 0.17086071E+01</totfact>
</mgrwt>
</event>
<event>
 6    1  0.4705246E-006  0.1432183E+03  0.7546771E-02  0.1219915E+00
         -2   -1    0    0    0  501 -0.00000000000E+00  0.00000000000E+00  0.54255246160E+02  0.54255246160E+02  0.00000000000E+00 0.  1.
          2   -1    0    0  501    0  0.00000000000E+00 -0.00000000000E+00 -0.33421520531E+03  0.33421520531E+03  0.00000000000E+00 0. -1.
          5    1    1    2  502    0 -0.96671077724E+02  0.27804445717E+02 -0.18815041827E+03  0.21340350129E+03  0.47000000000E+01 0.  1.
         -5    1    1    2    0  502  0.34604703225E+02  0.43385584227E+01 -0.24120582981E+02  0.42663814853E+02  0.47000000000E+01 0.  1.
        -11    1    1    2    0    0 -0.95383854271E+01 -0.33034991157E+02 -0.46291180264E+02  0.57664242019E+02  0.00000000000E+00 0. -1.
         11    1    1    2    0    0  0.71604759926E+02  0.89198701673E+00 -0.21397777640E+02  0.74738893307E+02  0.00000000000E+00 0.  1.
<mgrwt>
<rscale>  0 0.13521586E+03</rscale>
<asrwt>0</asrwt>
<pdfrwt beam="2">  1        2 0.51417723E-01 0.14321834E+03</pdfrwt>
<pdfrwt beam="1">  1       -2 0.83469610E-02 0.14321834E+03</pdfrwt>
<totfact> 0.82023551E+03</totfact>
</mgrwt>
</event>
<event>
 6    1  0.4705246E-006  0.1681916E+03  0.7546771E-02  0.1186405E+00
         -3   -1    0    0    0  501 -0.00000000000E+00  0.00000000000E+00  0.94656667845E+02  0.94656667845E+02  0.00000000000E+00 0.  1.
          3   -1    0    0  501    0  0.00000000000E+00 -0.00000000000E+00 -0.31123988087E+03  0.31123988087E+03  0.00000000000E+00 0. -1.
          5    1    1    2  502    0 -0.75586452233E+02  0.69911632326E+02 -0.17848722467E+03  0.20610853322E+03  0.47000000000E+01 0. -1.
         -5    1    1    2    0  502  0.35280137645E+02  0.35124790636E+02 -0.19495350739E+02  0.53671200190E+02  0.47000000000E+01 0. -1.
        -11    1    1    2    0    0 -0.23434923614E+02 -0.56710159720E+02 -0.24131300602E+02  0.65936010866E+02  0.00000000000E+00 0.  1.
         11    1    1    2    0    0  0.63741238202E+02 -0.48326263242E+02  0.55306629915E+01  0.80180804433E+02  0.00000000000E+00 0. -1.
<mgrwt>
<rscale>  0 0.16204712E+03</rscale>
<asrwt>0</asrwt>
<pdfrwt beam="2">  1        3 0.47883059E-01 0.16819159E+03</pdfrwt>
<pdfrwt beam="1">  1       -3 0.14562564E-01 0.16819159E+03</pdfrwt>
<totfact> 0.40706619E+02</totfact>
</mgrwt>
</event>
<event>
 6    1  0.4705246E-006  0.1280788E+03  0.7546771E-02  0.1245010E+00
          2   -1    0    0  501    0  0.00000000000E+00  0.00000000000E+00  0.28608850875E+03  0.28608850875E+03  0.00000000000E+00 0. -1.
         -2   -1    0    0    0  501 -0.00000000000E+00 -0.00000000000E+00 -0.51587254384E+02  0.51587254384E+02  0.00000000000E+00 0.  1.
          5    1    1    2  502    0 -0.36374049327E+02  0.66792393692E+02  0.12869868481E+03  0.14956515902E+03  0.47000000000E+01 0.  1.
         -5    1    1    2    0  502  0.14946771389E+02 -0.48911561809E+02  0.69571116621E+02  0.86475297753E+02  0.47000000000E+01 0.  1.
        -11    1    1    2    0    0  0.24560946222E+01  0.21917678327E+02 -0.20278826769E+02  0.29960771672E+02  0.00000000000E+00 0.  1.
         11    1    1    2    0    0  0.18971183316E+02 -0.39798510211E+02  0.56510279703E+02  0.71674534693E+02  0.00000000000E+00 0. -1.
<mgrwt>
<rscale>  0 0.11884772E+03</rscale>
<asrwt>0</asrwt>
<pdfrwt beam="1">  1        2 0.44013616E-01 0.12807882E+03</pdfrwt>
<pdfrwt beam="2">  1       -2 0.79365008E-02 0.12807882E+03</pdfrwt>
<totfact> 0.10371736E+04</totfact>
</mgrwt>
</event>
<event>
 6    1  0.4705246E-006  0.1617009E+03  0.7546771E-02  0.1193992E+00
         -1   -1    0    0    0  501 -0.00000000000E+00  0.00000000000E+00  0.54185959655E+03  0.54185959655E+03  0.00000000000E+00 0.  1.
          1   -1    0    0  501    0  0.00000000000E+00 -0.00000000000E+00 -0.42784826173E+02  0.42784826173E+02  0.00000000000E+00 0. -1.
          5    1    1    2  502    0  0.11739704297E+02  0.50918463040E+02  0.13949326781E+02  0.54287975216E+02  0.47000000000E+01 0.  1.
         -5    1    1    2    0  502  0.74476208578E+02  0.46611445121E+01  0.20271654623E+03  0.21606600850E+03  0.47000000000E+01 0.  1.
        -11    1    1    2    0    0 -0.69594660132E+02 -0.81378818041E+02  0.21306860979E+03  0.23846207502E+03  0.00000000000E+00 0. -1.
         11    1    1    2    0    0 -0.16621252743E+02  0.25799210488E+02  0.69340287578E+02  0.75828363994E+02  0.00000000000E+00 0.  1.
<mgrwt>
<rscale>  0 0.15539826E+03</rscale>
<asrwt>0</asrwt>
<pdfrwt beam="2">  1        1 0.65822814E-02 0.16170088E+03</pdfrwt>
<pdfrwt beam="1">  1       -1 0.83363010E-01 0.16170088E+03</pdfrwt>
<totfact> 0.16697454E+03</totfact>
</mgrwt>
</event>
<event>
 6    1  0.4705246E-006  0.1365817E+03  0.7546771E-02  0.1231039E+00
         -2   -1    0    0    0  501 -0.00000000000E+00  0.00000000000E+00  0.44930298535E+02  0.44930298535E+02  0.00000000000E+00 0.  1.
          2   -1    0    0  501    0  0.00000000000E+00 -0.00000000000E+00 -0.32233693567E+03  0.32233693567E+03  0.00000000000E+00 0. -1.
          5    1    1    2  502    0  0.93705579750E+02 -0.17000810754E+02 -0.10868172942E+03  0.14458067489E+03  0.47000000000E+01 0.  1.
         -5    1    1    2    0  502 -0.38826859929E+02  0.12893232470E+02 -0.50694620157E+02  0.65313053889E+02  0.47000000000E+01 0.  1.
        -11    1    1    2    0    0 -0.58897328878E+02  0.34290690102E+02 -0.55757088087E+02  0.88054526565E+02  0.00000000000E+00 0.  1.
         11    1    1    2    0    0  0.40186090575E+01 -0.30183111817E+02 -0.62273199469E+02  0.69318978858E+02  0.00000000000E+00 0. -1.
<mgrwt>
<rscale>  0 0.12761429E+03</rscale>
<asrwt>0</asrwt>
<pdfrwt beam="2">  1        2 0.49590296E-01 0.13658168E+03</pdfrwt>
<pdfrwt beam="1">  1       -2 0.69123538E-02 0.13658168E+03</pdfrwt>
<totfact> 0.11357506E+04</totfact>
</mgrwt>
</event>
<event>
 6    1  0.4705246E-006  0.2014438E+03  0.7546771E-02  0.1152693E+00
         -2   -1    0    0    0  501 -0.00000000000E+00  0.00000000000E+00  0.35048608967E+03  0.35048608967E+03  0.00000000000E+00 0. -1.
          2   -1    0    0  501    0  0.00000000000E+00 -0.00000000000E+00 -0.10731477653E+03  0.10731477653E+03  0.00000000000E+00 0.  1.
          5    1    1    2  502    0 -0.33943007292E+01  0.91060676576E+02  0.11061425758E+02  0.91913074346E+02  0.47000000000E+01 0. -1.
         -5    1    1    2    0  502  0.31412626881E+02  0.64513584538E+02  0.14876556945E+03  0.16523329074E+03  0.47000000000E+01 0. -1.
        -11    1    1    2    0    0 -0.39258541204E+02 -0.22903055972E+02  0.40240196727E+02  0.60704665908E+02  0.00000000000E+00 0. -1.
         11    1    1    2    0    0  0.11240215052E+02 -0.13267120514E+03  0.43104121214E+02  0.13994983521E+03  0.00000000000E+00 0.  1.
<mgrwt>
<rscale>  0 0.19653816E+03</rscale>
<asrwt>0</asrwt>
<pdfrwt beam="2">  1        2 0.16509966E-01 0.20144375E+03</pdfrwt>
<pdfrwt beam="1">  1       -2 0.53920936E-01 0.20144375E+03</pdfrwt>
<totfact> 0.11362608E+03</totfact>
</mgrwt>
</event>
<event>
 6    1  0.4705246E-006  0.2468826E+03  0.7546771E-02  0.1117892E+00
         -2   -1    0    0    0  501 -0.00000000000E+00  0.00000000000E+00  0.13227955361E+03  0.13227955361E+03  0.00000000000E+00 0.  1.
          2   -1    0    0  501    0  0.00000000000E+00 -0.00000000000E+00 -0.67218757882E+03  0.67218757882E+03  0.00000000000E+00 0. -1.
          5    1    1    2  502    0 -0.11133951521E+02 -0.10215072672E+02 -0.15935443039E+02  0.22457536174E+02  0.47000000000E+01 0. -1.
         -5    1    1    2    0  502  0.18541020296E+03  0.13249802126E+03 -0.50003088142E+03  0.54953220231E+03  0.47000000000E+01 0. -1.
        -11    1    1    2    0    0 -0.12583929501E+03 -0.11713056242E+03 -0.47517101534E+02  0.17836191230E+03  0.00000000000E+00 0. -1.
         11    1    1    2    0    0 -0.48436956428E+02 -0.51523861703E+01  0.23575400794E+02  0.54115481646E+02  0.00000000000E+00 0.  1.
<mgrwt>
<rscale>  0 0.24287577E+03</rscale>
<asrwt>0</asrwt>
<pdfrwt beam="2">  1        2 0.10341347E+00 0.24688259E+03</pdfrwt>
<pdfrwt beam="1">  1       -2 0.20350701E-01 0.24688259E+03</pdfrwt>
<totfact> 0.90125170E+02</totfact>
</mgrwt>
</event>
<event>
 6    1  0.4705246E-006  0.1264936E+03  0.7546771E-02  0.1282450E+00
         -4   -1    0    0    0  501 -0.00000000000E+00  0.00000000000E+00  0.21475397386E+03  0.21475397386E+03  0.00000000000E+00 0.  1.
          4   -1    0    0  501    0  0.00000000000E+00 -0.00000000000E+00 -0.45874344342E+02  0.45874344342E+02  0.00000000000E+00 0. -1.
          5    1    1    2  502    0  0.22130970499E+02  0.54471550572E+02 -0.16739652681E+02  0.61312605954E+02  0.47000000000E+01 0. -1.
         -5    1    1    2    0  502  0.77320110011E+01 -0.23153627279E+02  0.73021476423E+02  0.77136894345E+02  0.47000000000E+01 0.  1.
        -11    1    1    2    0    0 -0.13162465093E+02 -0.25716318560E+02  0.57766499878E+02  0.64587522292E+02  0.00000000000E+00 0.  1.
         11    1    1    2    0    0 -0.16700516407E+02 -0.56016047328E+01  0.54831305895E+02  0.57591295610E+02  0.00000000000E+00 0. -1.
<mgrwt>
<rscale>  0 0.98982767E+02</rscale>
<asrwt>0</asrwt>
<pdfrwt beam="2">  1        4 0.70575916E-02 0.12649356E+03</pdfrwt>
<pdfrwt beam="1">  1       -4 0.33039072E-01 0.12649356E+03</pdfrwt>
<totfact> 0.19439973E+03</totfact>
</mgrwt>
</event>
<event>
 6    1  0.4705246E-006  0.1647257E+03  0.7546771E-02  0.1195830E+00
          2   -1    0    0  501    0  0.00000000000E+00  0.00000000000E+00  0.76409819935E+03  0.76409819935E+03  0.00000000000E+00 0. -1.
         -2   -1    0    0    0  501 -0.00000000000E+00 -0.00000000000E+00 -0.36195088475E+02  0.36195088475E+02  0.00000000000E+00 0.  1.
          5    1    1    2  502    0 -0.26416879694E+02 -0.98922020593E+02  0.49321470831E+03  0.50375217735E+03  0.47000000000E+01 0. -1.
         -5    1    1    2    0  502 -0.33516519555E+02  0.37703919637E+02  0.10280696427E+03  0.11461371882E+03  0.47000000000E+01 0.  1.
        -11    1    1    2    0    0  0.72293846682E+02  0.10454096468E+02  0.78712750966E+02  0.10738428919E+03  0.00000000000E+00 0.  1.
         11    1    1    2    0    0 -0.12360447433E+02  0.50764004488E+02  0.53168687325E+02  0.74543102459E+02  0.00000000000E+00 0. -1.
<mgrwt>
<rscale>  0 0.15384211E+03</rscale>
<asrwt>0</asrwt>
<pdfrwt beam="1">  1        2 0.11755356E+00 0.16472567E+03</pdfrwt>
<pdfrwt beam="2">  1       -2 0.55684758E-02 0.16472567E+03</pdfrwt>
<totfact> 0.60974112E+03</totfact>
</mgrwt>
</event>
<event>
 6    1  0.4705246E-006  0.1251589E+03  0.7546771E-02  0.1250382E+00
          2   -1    0    0  501    0  0.00000000000E+00  0.00000000000E+00  0.16035592133E+03  0.16035592133E+03  0.00000000000E+00 0. -1.
         -2   -1    0    0    0  501 -0.00000000000E+00 -0.00000000000E+00 -0.21205169622E+03  0.21205169622E+03  0.00000000000E+00 0.  1.
          5    1    1    2  502    0 -0.40686703323E+02 -0.28490363819E+02  0.60216817905E+01  0.50253948197E+02  0.47000000000E+01 0.  1.
         -5    1    1    2    0  502  0.34386657416E+02  0.28311942315E+02  0.11683979114E+03  0.12513047223E+03  0.47000000000E+01 0.  1.
        -11    1    1    2    0    0  0.22861966240E+02 -0.40992592311E+02 -0.86376725496E+02  0.98305650052E+02  0.00000000000E+00 0.  1.
         11    1    1    2    0    0 -0.16561920333E+02  0.41171013815E+02 -0.88180522327E+02  0.98717547080E+02  0.00000000000E+00 0. -1.
<mgrwt>
<rscale>  0 0.11568939E+03</rscale>
<asrwt>0</asrwt>
<pdfrwt beam="1">  1        2 0.24670142E-01 0.12515891E+03</pdfrwt>
<pdfrwt beam="2">  1       -2 0.32623338E-01 0.12515891E+03</pdfrwt>
<totfact> 0.18565037E+03</totfact>
</mgrwt>
</event>
<event>
 6    1  0.4705246E-006  0.3975966E+03  0.7546771E-02  0.1044615E+00
         -2   -1    0    0    0  501 -0.00000000000E+00  0.00000000000E+00  0.60274530924E+03  0.60274530924E+03  0.00000000000E+00 0.  1.
          2   -1    0    0  501    0  0.00000000000E+00 -0.00000000000E+00 -0.65567934599E+02  0.65567934599E+02  0.00000000000E+00 0. -1.
          5    1    1    2  502    0  0.13713428219E+03 -0.82470420200E+02  0.16433793120E+03  0.22942586425E+03  0.47000000000E+01 0.  1.
         -5    1    1    2    0  502  0.23491226187E+01 -0.63909494850E+01  0.13182509240E+03  0.13208447145E+03  0.47000000000E+01 0.  1.
        -11    1    1    2    0    0 -0.15119106874E+03  0.75759695197E+02  0.19830596459E+03  0.26062142329E+03  0.00000000000E+00 0. -1.
         11    1    1    2    0    0  0.11707663937E+02  0.13101674487E+02  0.42708386451E+02  0.46181484845E+02  0.00000000000E+00 0.  1.
<mgrwt>
<rscale>  0 0.39759660E+03</rscale>
<asrwt>0</asrwt>
<pdfrwt beam="2">  1        2 0.10087375E-01 0.39759660E+03</pdfrwt>
<pdfrwt beam="1">  1       -2 0.92730044E-01 0.39759660E+03</pdfrwt>
<totfact> 0.65125187E+02</totfact>
</mgrwt>
</event>
<event>
 6    1  0.4705246E-006  0.1828211E+03  0.7546771E-02  0.1170603E+00
         -2   -1    0    0    0  501 -0.00000000000E+00  0.00000000000E+00  0.68494280759E+02  0.68494280759E+02  0.00000000000E+00 0. -1.
          2   -1    0    0  501    0  0.00000000000E+00 -0.00000000000E+00 -0.93185610392E+03  0.93185610392E+03  0.00000000000E+00 0.  1.
          5    1    1    2  502    0  0.57144511551E+02  0.23817362556E+02 -0.15191426781E+03  0.16411214679E+03  0.47000000000E+01 0. -1.
         -5    1    1    2    0  502 -0.15172408520E+02  0.10281900096E+03 -0.65845663932E+03  0.66662522064E+03  0.47000000000E+01 0. -1.
        -11    1    1    2    0    0 -0.59870993693E+02 -0.52947837348E+02 -0.54479403793E+01  0.80110482585E+02  0.00000000000E+00 0. -1.
         11    1    1    2    0    0  0.17898890661E+02 -0.73688526172E+02 -0.47542975654E+02  0.89502534659E+02  0.00000000000E+00 0.  1.
<mgrwt>
<rscale>  0 0.17713689E+03</rscale>
<asrwt>0</asrwt>
<pdfrwt beam="2">  1        2 0.14336247E+00 0.18282113E+03</pdfrwt>
<pdfrwt beam="1">  1       -2 0.10537582E-01 0.18282113E+03</pdfrwt>
<totfact> 0.17623676E+03</totfact>
</mgrwt>
</event>
<event>
 6    1  0.4705246E-006  0.2096329E+03  0.7546771E-02  0.1145932E+00
         -3   -1    0    0    0  501 -0.00000000000E+00  0.00000000000E+00  0.40833153851E+03  0.40833153851E+03  0.00000000000E+00 0.  1.
          3   -1    0    0  501    0  0.00000000000E+00 -0.00000000000E+00 -0.99117117384E+02  0.99117117384E+02  0.00000000000E+00 0. -1.
          5    1    1    2  502    0  0.70135669772E+02  0.21105824857E+02  0.12350535677E+03  0.14366673647E+03  0.47000000000E+01 0. -1.
         -5    1    1    2    0  502  0.83748813112E+02 -0.89300919694E+02  0.67229721574E+02  0.13975136285E+03  0.47000000000E+01 0. -1.
        -11    1    1    2    0    0 -0.48674295418E+02  0.64476056433E+02  0.28896002144E+02  0.85798180794E+02  0.00000000000E+00 0. -1.
         11    1    1    2    0    0 -0.10521018747E+03  0.37190384035E+01  0.89583340637E+02  0.13823237578E+03  0.00000000000E+00 0.  1.
<mgrwt>
<rscale>  0 0.20457926E+03</rscale>
<asrwt>0</asrwt>
<pdfrwt beam="2">  1        3 0.15248788E-01 0.20963289E+03</pdfrwt>
<pdfrwt beam="1">  1       -3 0.62820236E-01 0.20963289E+03</pdfrwt>
<totfact> 0.22144567E+02</totfact>
</mgrwt>
</event>
<event>
 6    1  0.4705246E-006  0.1399054E+03  0.7546771E-02  0.1228023E+00
          1   -1    0    0  501    0  0.00000000000E+00  0.00000000000E+00  0.38413486473E+03  0.38413486473E+03  0.00000000000E+00 0. -1.
         -1   -1    0    0    0  501 -0.00000000000E+00 -0.00000000000E+00 -0.41361238209E+02  0.41361238209E+02  0.00000000000E+00 0.  1.
          5    1    1    2  502    0  0.50707564504E+01 -0.71294220937E+02  0.70078752229E+02  0.10020828321E+03  0.47000000000E+01 0.  1.
         -5    1    1    2    0  502  0.39202059433E+02  0.26695685845E+02  0.18151928156E+03  0.18767205621E+03  0.47000000000E+01 0.  1.
        -11    1    1    2    0    0 -0.13434419487E+02 -0.21651950775E+02  0.43338340275E+02  0.50274271125E+02  0.00000000000E+00 0.  1.
         11    1    1    2    0    0 -0.30838396396E+02  0.66250485868E+02  0.47837252462E+02  0.87341492391E+02  0.00000000000E+00 0. -1.
<mgrwt>
<rscale>  0 0.12961866E+03</rscale>
<asrwt>0</asrwt>
<pdfrwt beam="1">  1        1 0.59097669E-01 0.13990539E+03</pdfrwt>
<pdfrwt beam="2">  1       -1 0.63632677E-02 0.13990539E+03</pdfrwt>
<totfact> 0.74560208E+03</totfact>
</mgrwt>
</event>
<event>
 6    1  0.4705246E-006  0.2715086E+03  0.7546771E-02  0.1100419E+00
          2   -1    0    0  501    0  0.00000000000E+00  0.00000000000E+00  0.14515166290E+04  0.14515166290E+04  0.00000000000E+00 0. -1.
         -2   -1    0    0    0  501 -0.00000000000E+00 -0.00000000000E+00 -0.12696538207E+02  0.12696538207E+02  0.00000000000E+00 0.  1.
          5    1    1    2  502    0 -0.25038115550E+01  0.80505812397E+01  0.66097577416E+03  0.66104625024E+03  0.47000000000E+01 0.  1.
         -5    1    1    2    0  502 -0.73843680551E+02 -0.21400662367E+02  0.24597844832E+03  0.25775640544E+03  0.47000000000E+01 0.  1.
        -11    1    1    2    0    0  0.56727596610E+02 -0.35849063496E+02  0.32643915715E+03  0.33326520805E+03  0.00000000000E+00 0.  1.
         11    1    1    2    0    0  0.19619895496E+02  0.49199144623E+02  0.20542671115E+03  0.21214530347E+03  0.00000000000E+00 0. -1.
<mgrwt>
<rscale>  0 0.27150865E+03</rscale>
<asrwt>0</asrwt>
<pdfrwt beam="1">  1        2 0.22331012E+00 0.27150865E+03</pdfrwt>
<pdfrwt beam="2">  1       -2 0.19533147E-02 0.27150865E+03</pdfrwt>
<totfact> 0.11592546E+04</totfact>
</mgrwt>
</event>
<event>
 6    1  0.4705246E-006  0.1261052E+03  0.7546771E-02  0.1250574E+00
         -2   -1    0    0    0  501 -0.00000000000E+00  0.00000000000E+00  0.12352179211E+03  0.12352179211E+03  0.00000000000E+00 0.  1.
          2   -1    0    0  501    0  0.00000000000E+00 -0.00000000000E+00 -0.95015504996E+02  0.95015504996E+02  0.00000000000E+00 0. -1.
          5    1    1    2  502    0  0.43331532762E+02 -0.33567094077E+02  0.17289746861E+01  0.55040447761E+02  0.47000000000E+01 0. -1.
         -5    1    1    2    0  502 -0.53498481242E+02  0.46581673664E+02  0.19664080783E+01  0.71118890439E+02  0.47000000000E+01 0. -1.
        -11    1    1    2    0    0  0.46391698360E+02 -0.16345057701E+02  0.15736465396E+01  0.49212061036E+02  0.00000000000E+00 0. -1.
         11    1    1    2    0    0 -0.36224749880E+02  0.33304781140E+01  0.23237257807E+02  0.43165897868E+02  0.00000000000E+00 0.  1.
<mgrwt>
<rscale>  0 0.11557860E+03</rscale>
<asrwt>0</asrwt>
<pdfrwt beam="2">  1        2 0.14617770E-01 0.12610521E+03</pdfrwt>
<pdfrwt beam="1">  1       -2 0.19003353E-01 0.12610521E+03</pdfrwt>
<totfact> 0.86402082E+03</totfact>
</mgrwt>
</event>
<event>
 6    1  0.4705246E-006  0.3342911E+03  0.7546771E-02  0.1069254E+00
         -1   -1    0    0    0  501 -0.00000000000E+00  0.00000000000E+00  0.59117629917E+02  0.59117629917E+02  0.00000000000E+00 0.  1.
          1   -1    0    0  501    0  0.00000000000E+00 -0.00000000000E+00 -0.47257714840E+03  0.47257714840E+03  0.00000000000E+00 0. -1.
          5    1    1    2  502    0  0.31589802821E+02 -0.14433104973E+03 -0.23516966487E+03  0.27777010068E+03  0.47000000000E+01 0.  1.
         -5    1    1    2    0  502  0.62819243030E+01  0.26342624282E+02 -0.32214502170E+02  0.42346907526E+02  0.47000000000E+01 0.  1.
        -11    1    1    2    0    0  0.13172362057E+02  0.86893441374E+02 -0.11336784686E+03  0.14344423996E+03  0.00000000000E+00 0. -1.
         11    1    1    2    0    0 -0.51044089181E+02  0.31094984070E+02 -0.32707504582E+02  0.68133530149E+02  0.00000000000E+00 0.  1.
<mgrwt>
<rscale>  0 0.33429114E+03</rscale>
<asrwt>0</asrwt>
<pdfrwt beam="2">  1        1 0.72704176E-01 0.33429114E+03</pdfrwt>
<pdfrwt beam="1">  1       -1 0.90950200E-02 0.33429114E+03</pdfrwt>
<totfact> 0.34457328E+03</totfact>
</mgrwt>
</event>
<event>
 6    1  0.4705246E-006  0.1315706E+03  0.7546771E-02  0.1239452E+00
         -1   -1    0    0    0  501 -0.00000000000E+00  0.00000000000E+00  0.27423401341E+03  0.27423401341E+03  0.00000000000E+00 0.  1.
          1   -1    0    0  501    0  0.00000000000E+00 -0.00000000000E+00 -0.62097579007E+02  0.62097579007E+02  0.00000000000E+00 0. -1.
          5    1    1    2  502    0 -0.35711878319E+02  0.56901594017E+01 -0.17168871262E+02  0.40306033141E+02  0.47000000000E+01 0. -1.
         -5    1    1    2    0  502  0.76289356451E+02 -0.20272009706E+02  0.55924464848E+02  0.96853786987E+02  0.47000000000E+01 0.  1.
        -11    1    1    2    0    0 -0.54388256862E+02 -0.53060005127E+01  0.16456992612E+03  0.17340558442E+03  0.00000000000E+00 0. -1.
         11    1    1    2    0    0  0.13810778731E+02  0.19887850817E+02  0.88109146940E+01  0.25766187864E+02  0.00000000000E+00 0.  1.
<mgrwt>
<rscale>  0 0.12223651E+03</rscale>
<asrwt>0</asrwt>
<pdfrwt beam="2">  1        1 0.95534739E-02 0.13157059E+03</pdfrwt>
<pdfrwt beam="1">  1       -1 0.42189847E-01 0.13157059E+03</pdfrwt>
<totfact> 0.36698932E+03</totfact>
</mgrwt>
</event>
<event>
 6    1  0.4705246E-006  0.1406930E+03  0.7546771E-02  0.1223822E+00
         -2   -1    0    0    0  501 -0.00000000000E+00  0.00000000000E+00  0.12168148471E+03  0.12168148471E+03  0.00000000000E+00 0.  1.
          2   -1    0    0  501    0  0.00000000000E+00 -0.00000000000E+00 -0.19100514574E+03  0.19100514574E+03  0.00000000000E+00 0. -1.
          5    1    1    2  502    0 -0.10006067473E+02 -0.50912146876E+02 -0.38728738410E+02  0.64916663998E+02  0.47000000000E+01 0.  1.
         -5    1    1    2    0  502  0.74417771265E+02  0.46807163868E+02 -0.86859896013E+02  0.12367557077E+03  0.47000000000E+01 0.  1.
        -11    1    1    2    0    0 -0.70362367920E+02  0.28661721699E+02  0.62141543897E+02  0.98152578101E+02  0.00000000000E+00 0.  1.
         11    1    1    2    0    0  0.59506641280E+01 -0.24556738691E+02 -0.58765704960E+01  0.25941817583E+02  0.00000000000E+00 0. -1.
<mgrwt>
<rscale>  0 0.13247960E+03</rscale>
<asrwt>0</asrwt>
<pdfrwt beam="2">  1        2 0.29385407E-01 0.14069302E+03</pdfrwt>
<pdfrwt beam="1">  1       -2 0.18720228E-01 0.14069302E+03</pdfrwt>
<totfact> 0.40647769E+03</totfact>
</mgrwt>
</event>
<event>
 6    1  0.4705246E-006  0.1503495E+03  0.7546771E-02  0.1209550E+00
         -1   -1    0    0    0  501 -0.00000000000E+00  0.00000000000E+00  0.52514774212E+02  0.52514774212E+02  0.00000000000E+00 0.  1.
          1   -1    0    0  501    0  0.00000000000E+00 -0.00000000000E+00 -0.49460328989E+03  0.49460328989E+03  0.00000000000E+00 0. -1.
          5    1    1    2  502    0 -0.16968735295E+02 -0.33153151388E+02 -0.61888159481E+02  0.72383034672E+02  0.47000000000E+01 0.  1.
         -5    1    1    2    0  502 -0.23802804971E+02  0.10618402864E+03 -0.32040509155E+03  0.33841266843E+03  0.47000000000E+01 0.  1.
        -11    1    1    2    0    0  0.98836554101E+01 -0.27561612859E+02  0.22798445892E+02  0.37109274889E+02  0.00000000000E+00 0.  1.
         11    1    1    2    0    0  0.30887884856E+02 -0.45469264392E+02 -0.82593710545E+02  0.99213086117E+02  0.00000000000E+00 0. -1.
<mgrwt>
<rscale>  0 0.14284598E+03</rscale>
<asrwt>0</asrwt>
<pdfrwt beam="2">  1        1 0.76092811E-01 0.15034953E+03</pdfrwt>
<pdfrwt beam="1">  1       -1 0.80791964E-02 0.15034953E+03</pdfrwt>
<totfact> 0.37837626E+03</totfact>
</mgrwt>
</event>
<event>
 6    1  0.4705246E-006  0.1338703E+03  0.7546771E-02  0.1235030E+00
          2   -1    0    0  501    0  0.00000000000E+00  0.00000000000E+00  0.59690598918E+03  0.59690598918E+03  0.00000000000E+00 0. -1.
         -2   -1    0    0    0  501 -0.00000000000E+00 -0.00000000000E+00 -0.26287894237E+02  0.26287894237E+02  0.00000000000E+00 0.  1.
          5    1    1    2  502    0  0.41283402722E+02  0.24295598856E+02  0.13916388921E+03  0.14725241433E+03  0.47000000000E+01 0. -1.
         -5    1    1    2    0  502 -0.85169973687E+02 -0.50926550898E+01  0.28515793979E+03  0.29768607656E+03  0.47000000000E+01 0. -1.
        -11    1    1    2    0    0  0.20812628167E+02  0.29628806603E+02  0.21102776917E+02  0.41908935390E+02  0.00000000000E+00 0.  1.
         11    1    1    2    0    0  0.23073942797E+02 -0.48831750370E+02  0.12519348902E+03  0.13634645714E+03  0.00000000000E+00 0. -1.
<mgrwt>
<rscale>  0 0.12502530E+03</rscale>
<asrwt>0</asrwt>
<pdfrwt beam="1">  1        2 0.91831681E-01 0.13387026E+03</pdfrwt>
<pdfrwt beam="2">  1       -2 0.40442919E-02 0.13387026E+03</pdfrwt>
<totfact> 0.13030367E+04</totfact>
</mgrwt>
</event>
<event>
 6    1  0.4705246E-006  0.1271486E+03  0.7546771E-02  0.1246813E+00
          2   -1    0    0  501    0  0.00000000000E+00  0.00000000000E+00  0.86067522822E+03  0.86067522822E+03  0.00000000000E+00 0.  1.
         -2   -1    0    0    0  501 -0.00000000000E+00 -0.00000000000E+00 -0.14154903955E+02  0.14154903955E+02  0.00000000000E+00 0. -1.
          5    1    1    2  502    0 -0.32015178624E+01 -0.51868061181E+02  0.19649474869E+03  0.20330475093E+03  0.47000000000E+01 0. -1.
         -5    1    1    2    0  502  0.99603380559E+01  0.74146926384E+02  0.28954271810E+03  0.29908870027E+03  0.47000000000E+01 0. -1.
        -11    1    1    2    0    0 -0.24291543969E+02 -0.51672319974E+02  0.18361196822E+03  0.19228484765E+03  0.00000000000E+00 0.  1.
         11    1    1    2    0    0  0.17532723776E+02  0.29393454770E+02  0.17687088925E+03  0.18015183332E+03  0.00000000000E+00 0. -1.
<mgrwt>
<rscale>  0 0.11777525E+03</rscale>
<asrwt>0</asrwt>
<pdfrwt beam="1">  1        2 0.13241153E+00 0.12714858E+03</pdfrwt>
<pdfrwt beam="2">  1       -2 0.21776782E-02 0.12714858E+03</pdfrwt>
<totfact> 0.20773587E+04</totfact>
</mgrwt>
</event>
<event>
 6    1  0.4705246E-006  0.2471259E+03  0.7546771E-02  0.1115941E+00
         -1   -1    0    0    0  501 -0.00000000000E+00  0.00000000000E+00  0.22674765112E+03  0.22674765112E+03  0.00000000000E+00 0.  1.
          1   -1    0    0  501    0  0.00000000000E+00 -0.00000000000E+00 -0.26888557487E+03  0.26888557487E+03  0.00000000000E+00 0. -1.
          5    1    1    2  502    0  0.98328164164E+02  0.12930614987E+03 -0.63077963367E+02  0.17432563703E+03  0.47000000000E+01 0.  1.
         -5    1    1    2    0  502 -0.29521784904E+02  0.72465370911E+02  0.82102650528E+01  0.78817918124E+02  0.47000000000E+01 0.  1.
        -11    1    1    2    0    0 -0.27589443246E+02 -0.17711470341E+03 -0.25562481774E+02  0.18106417651E+03  0.00000000000E+00 0. -1.
         11    1    1    2    0    0 -0.41216936014E+02 -0.24656817375E+02  0.38292256338E+02  0.61425494324E+02  0.00000000000E+00 0.  1.
<mgrwt>
<rscale>  0 0.24587374E+03</rscale>
<asrwt>0</asrwt>
<pdfrwt beam="2">  1        1 0.41367011E-01 0.24712587E+03</pdfrwt>
<pdfrwt beam="1">  1       -1 0.34884254E-01 0.24712587E+03</pdfrwt>
<totfact> 0.79367848E+02</totfact>
</mgrwt>
</event>
<event>
 6    1  0.4705246E-006  0.3764797E+03  0.7546771E-02  0.1052243E+00
         -4   -1    0    0    0  501 -0.00000000000E+00  0.00000000000E+00  0.40823131894E+03  0.40823131894E+03  0.00000000000E+00 0.  1.
          4   -1    0    0  501    0  0.00000000000E+00 -0.00000000000E+00 -0.86799434885E+02  0.86799434885E+02  0.00000000000E+00 0. -1.
          5    1    1    2  502    0  0.10047608116E+02 -0.19610335589E+02 -0.31677482752E+02  0.38872517340E+02  0.47000000000E+01 0.  1.
         -5    1    1    2    0  502 -0.10277034871E+03 -0.58213944168E+02  0.76572074453E+02  0.14084026575E+03  0.47000000000E+01 0.  1.
        -11    1    1    2    0    0  0.80501334395E+02  0.22810830405E+02  0.10210630458E+03  0.13200945518E+03  0.00000000000E+00 0. -1.
         11    1    1    2    0    0  0.12221406200E+02  0.55013449352E+02  0.17443098778E+03  0.18330851556E+03  0.00000000000E+00 0.  1.
<mgrwt>
<rscale>  0 0.37647974E+03</rscale>
<asrwt>0</asrwt>
<pdfrwt beam="2">  1        4 0.13353759E-01 0.37647974E+03</pdfrwt>
<pdfrwt beam="1">  1       -4 0.62804817E-01 0.37647974E+03</pdfrwt>
<totfact> 0.21482550E+02</totfact>
</mgrwt>
</event>
<event>
 6    1  0.4705246E-006  0.2905976E+03  0.7546771E-02  0.1090038E+00
          1   -1    0    0  501    0  0.00000000000E+00  0.00000000000E+00  0.71343683160E+03  0.71343683160E+03  0.00000000000E+00 0. -1.
         -1   -1    0    0    0  501 -0.00000000000E+00 -0.00000000000E+00 -0.29591603218E+02  0.29591603218E+02  0.00000000000E+00 0.  1.
          5    1    1    2  502    0  0.16516257374E+02  0.48814539899E+02  0.15704090459E+03  0.16534685294E+03  0.47000000000E+01 0. -1.
         -5    1    1    2    0  502  0.61601732760E+02 -0.60597917747E+02  0.29338934995E+03  0.30588606013E+03  0.47000000000E+01 0.  1.
        -11    1    1    2    0    0 -0.60237619257E+02 -0.44839242767E+02  0.16448840793E+03  0.18081914945E+03  0.00000000000E+00 0.  1.
         11    1    1    2    0    0 -0.17880370877E+02  0.56622620615E+02  0.68926565908E+02  0.90976372295E+02  0.00000000000E+00 0. -1.
<mgrwt>
<rscale>  0 0.29059759E+03</rscale>
<asrwt>0</asrwt>
<pdfrwt beam="1">  1        1 0.10975950E+00 0.29059759E+03</pdfrwt>
<pdfrwt beam="2">  1       -1 0.45525549E-02 0.29059759E+03</pdfrwt>
<totfact> 0.55498489E+03</totfact>
</mgrwt>
</event>
<event>
 6    1  0.4705246E-006  0.4546677E+03  0.7546771E-02  0.1026339E+00
         -2   -1    0    0    0  501 -0.00000000000E+00  0.00000000000E+00  0.39887179697E+02  0.39887179697E+02  0.00000000000E+00 0.  1.
          2   -1    0    0  501    0  0.00000000000E+00 -0.00000000000E+00 -0.12956711631E+04  0.12956711631E+04  0.00000000000E+00 0. -1.
          5    1    1    2  502    0  0.10413535349E+03  0.13738397081E+03 -0.52873845067E+03  0.55615192754E+03  0.47000000000E+01 0.  1.
         -5    1    1    2    0  502  0.13330970221E+01  0.12582426428E+02 -0.34697519163E+03  0.34723762500E+03  0.47000000000E+01 0.  1.
        -11    1    1    2    0    0 -0.28285283593E+02 -0.26730428970E+02 -0.19810047167E+02  0.43669337866E+02  0.00000000000E+00 0.  1.
         11    1    1    2    0    0 -0.77183166922E+02 -0.12323596827E+03 -0.36026029391E+03  0.38849945238E+03  0.00000000000E+00 0. -1.
<mgrwt>
<rscale>  0 0.45466765E+03</rscale>
<asrwt>0</asrwt>
<pdfrwt beam="2">  1        2 0.19933401E+00 0.45466765E+03</pdfrwt>
<pdfrwt beam="1">  1       -2 0.61364896E-02 0.45466765E+03</pdfrwt>
<totfact> 0.25212109E+03</totfact>
</mgrwt>
</event>
<event>
 6    1  0.4705246E-006  0.1294406E+03  0.7546771E-02  0.1242059E+00
          3   -1    0    0  501    0  0.00000000000E+00  0.00000000000E+00  0.99989132423E+02  0.99989132423E+02  0.00000000000E+00 0. -1.
         -3   -1    0    0    0  501 -0.00000000000E+00 -0.00000000000E+00 -0.20158430470E+03  0.20158430470E+03  0.00000000000E+00 0.  1.
          5    1    1    2  502    0 -0.61755334795E+02  0.40794050094E+02  0.43435806622E+02  0.85945536216E+02  0.47000000000E+01 0.  1.
         -5    1    1    2    0  502  0.28331393540E+02 -0.37487894961E+02 -0.88272853952E+01  0.48041868156E+02  0.47000000000E+01 0.  1.
        -11    1    1    2    0    0 -0.27175151775E+02 -0.10877949121E+02 -0.17526320045E+02  0.34117305658E+02  0.00000000000E+00 0. -1.
         11    1    1    2    0    0  0.60599093030E+02  0.75717939879E+01 -0.11867737346E+03  0.13346872709E+03  0.00000000000E+00 0.  1.
<mgrwt>
<rscale>  0 0.12063137E+03</rscale>
<asrwt>0</asrwt>
<pdfrwt beam="1">  1        3 0.15382944E-01 0.12944062E+03</pdfrwt>
<pdfrwt beam="2">  1       -3 0.31012970E-01 0.12944062E+03</pdfrwt>
<totfact> 0.82209405E+02</totfact>
</mgrwt>
</event>
<event>
 6    1  0.4705246E-006  0.1507674E+03  0.7546771E-02  0.1209352E+00
         -3   -1    0    0    0  501 -0.00000000000E+00  0.00000000000E+00  0.25895555781E+02  0.25895555781E+02  0.00000000000E+00 0.  1.
          3   -1    0    0  501    0  0.00000000000E+00 -0.00000000000E+00 -0.76501763326E+03  0.76501763326E+03  0.00000000000E+00 0. -1.
          5    1    1    2  502    0 -0.18717973771E+02 -0.81710699085E+02 -0.35013424079E+03  0.36005982483E+03  0.47000000000E+01 0. -1.
         -5    1    1    2    0  502 -0.49384430982E+02  0.37629391460E+02 -0.15319930450E+03  0.16536901168E+03  0.47000000000E+01 0.  1.
        -11    1    1    2    0    0  0.64632589807E+01  0.51168844396E+02 -0.60287110536E+02  0.79338263469E+02  0.00000000000E+00 0.  1.
         11    1    1    2    0    0  0.61639145772E+02 -0.70875367707E+01 -0.17550142166E+03  0.18614608907E+03  0.00000000000E+00 0. -1.
<mgrwt>
<rscale>  0 0.14299694E+03</rscale>
<asrwt>0</asrwt>
<pdfrwt beam="2">  1        3 0.11769501E+00 0.15076739E+03</pdfrwt>
<pdfrwt beam="1">  1       -3 0.39839321E-02 0.15076739E+03</pdfrwt>
<totfact> 0.47819794E+02</totfact>
</mgrwt>
</event>
<event>
 6    1  0.4705246E-006  0.1490397E+03  0.7546771E-02  0.1211710E+00
          2   -1    0    0  501    0  0.00000000000E+00  0.00000000000E+00  0.81357999490E+03  0.81357999490E+03  0.00000000000E+00 0.  1.
         -2   -1    0    0    0  501 -0.00000000000E+00 -0.00000000000E+00 -0.34025536560E+02  0.34025536560E+02  0.00000000000E+00 0. -1.
          5    1    1    2  502    0  0.38620252297E+02 -0.48215275458E+01  0.21192718472E+03  0.21552260355E+03  0.47000000000E+01 0. -1.
         -5    1    1    2    0  502 -0.94297302060E+02 -0.54262179625E+02  0.45354267361E+03  0.46643264476E+03  0.47000000000E+01 0. -1.
        -11    1    1    2    0    0 -0.17232521517E+02  0.56080546660E+01 -0.23032255339E+01  0.18267865853E+02  0.00000000000E+00 0. -1.
         11    1    1    2    0    0  0.72909571280E+02  0.53475652505E+02  0.11638782555E+03  0.14738241730E+03  0.00000000000E+00 0.  1.
<mgrwt>
<rscale>  0 0.14120981E+03</rscale>
<asrwt>0</asrwt>
<pdfrwt beam="1">  1        2 0.12516614E+00 0.14903969E+03</pdfrwt>
<pdfrwt beam="2">  1       -2 0.52346985E-02 0.14903969E+03</pdfrwt>
<totfact> 0.61639867E+03</totfact>
</mgrwt>
</event>
<event>
 6    1  0.4705246E-006  0.1280987E+03  0.7546771E-02  0.1245841E+00
          2   -1    0    0  501    0  0.00000000000E+00  0.00000000000E+00  0.39370173844E+03  0.39370173844E+03  0.00000000000E+00 0. -1.
         -2   -1    0    0    0  501 -0.00000000000E+00 -0.00000000000E+00 -0.48300713695E+02  0.48300713695E+02  0.00000000000E+00 0.  1.
          5    1    1    2  502    0  0.16539864991E+02  0.35970391024E+02  0.31617947544E+02  0.50884386321E+02  0.47000000000E+01 0. -1.
         -5    1    1    2    0  502 -0.44443976646E+02 -0.33636236712E+02  0.28925015010E+03  0.29460889806E+03  0.47000000000E+01 0. -1.
        -11    1    1    2    0    0  0.87907395364E+01  0.24278948890E+02  0.49154399353E+02  0.55523863667E+02  0.00000000000E+00 0. -1.
         11    1    1    2    0    0  0.19113372118E+02 -0.26613103202E+02 -0.24621472252E+02  0.40985304093E+02  0.00000000000E+00 0.  1.
<mgrwt>
<rscale>  0 0.11835162E+03</rscale>
<asrwt>0</asrwt>
<pdfrwt beam="1">  1        2 0.60569496E-01 0.12809869E+03</pdfrwt>
<pdfrwt beam="2">  1       -2 0.74308793E-02 0.12809869E+03</pdfrwt>
<totfact> 0.81823115E+03</totfact>
</mgrwt>
</event>
<event>
 6    1  0.4705246E-006  0.1840910E+03  0.7546771E-02  0.1168563E+00
         -2   -1    0    0    0  501 -0.00000000000E+00  0.00000000000E+00  0.95743991800E+02  0.95743991800E+02  0.00000000000E+00 0.  1.
          2   -1    0    0  501    0  0.00000000000E+00 -0.00000000000E+00 -0.32422736827E+03  0.32422736827E+03  0.00000000000E+00 0. -1.
          5    1    1    2  502    0 -0.35950545645E+02  0.63787268873E+01 -0.12021487357E+03  0.12572523898E+03  0.47000000000E+01 0. -1.
         -5    1    1    2    0  502 -0.52585227429E+02 -0.68631926030E+02 -0.15008051802E+02  0.87879912569E+02  0.47000000000E+01 0. -1.
        -11    1    1    2    0    0  0.10283015126E+03  0.42969029805E+02 -0.12441845090E+03  0.16703391408E+03  0.00000000000E+00 0. -1.
         11    1    1    2    0    0 -0.14294378182E+02  0.19284169337E+02  0.31157999798E+02  0.39332294441E+02  0.00000000000E+00 0.  1.
<mgrwt>
<rscale>  0 0.17921653E+03</rscale>
<asrwt>0</asrwt>
<pdfrwt beam="2">  1        2 0.49881134E-01 0.18409101E+03</pdfrwt>
<pdfrwt beam="1">  1       -2 0.14729845E-01 0.18409101E+03</pdfrwt>
<totfact> 0.34742156E+03</totfact>
</mgrwt>
</event>
<event>
 6    1  0.4705246E-006  0.3310097E+03  0.7546771E-02  0.1070691E+00
          2   -1    0    0  501    0  0.00000000000E+00  0.00000000000E+00  0.51081599448E+03  0.51081599448E+03  0.00000000000E+00 0. -1.
         -2   -1    0    0    0  501 -0.00000000000E+00 -0.00000000000E+00 -0.53623709972E+02  0.53623709972E+02  0.00000000000E+00 0.  1.
          5    1    1    2  502    0  0.15700060366E+02  0.47957017127E+01 -0.30516147739E+01  0.17346267701E+02  0.47000000000E+01 0. -1.
         -5    1    1    2    0  502  0.46133822495E+02 -0.72807826729E+02  0.39234942992E+03  0.40173308846E+03  0.47000000000E+01 0. -1.
        -11    1    1    2    0    0 -0.35905769441E+02 -0.16334396688E+02  0.28826283249E+02  0.48856845992E+02  0.00000000000E+00 0.  1.
         11    1    1    2    0    0 -0.25928113421E+02  0.84346521705E+02  0.39068186120E+02  0.96503502299E+02  0.00000000000E+00 0. -1.
<mgrwt>
<rscale>  0 0.33100966E+03</rscale>
<asrwt>0</asrwt>
<pdfrwt beam="1">  1        2 0.78587073E-01 0.33100966E+03</pdfrwt>
<pdfrwt beam="2">  1       -2 0.82498019E-02 0.33100966E+03</pdfrwt>
<totfact> 0.54854656E+03</totfact>
</mgrwt>
</event>
<event>
 6    1  0.4705246E-006  0.1293733E+03  0.7546771E-02  0.1242122E+00
          2   -1    0    0  501    0  0.00000000000E+00  0.00000000000E+00  0.18478770738E+04  0.18478770738E+04  0.00000000000E+00 0. -1.
         -2   -1    0    0    0  501 -0.00000000000E+00 -0.00000000000E+00 -0.94152774929E+01  0.94152774929E+01  0.00000000000E+00 0.  1.
          5    1    1    2  502    0  0.13398416719E+02  0.43973813919E+02  0.35273874164E+03  0.35575261592E+03  0.47000000000E+01 0. -1.
         -5    1    1    2    0  502 -0.63158812666E+01 -0.76561171826E+02  0.11310192028E+04  0.11336348753E+04  0.47000000000E+01 0. -1.
        -11    1    1    2    0    0  0.39366357990E+02  0.98226890905E+01  0.21796136363E+03  0.22170555112E+03  0.00000000000E+00 0. -1.
         11    1    1    2    0    0 -0.46448893443E+02  0.22764668816E+02  0.13674248819E+03  0.14619930891E+03  0.00000000000E+00 0.  1.
<mgrwt>
<rscale>  0 0.12059308E+03</rscale>
<asrwt>0</asrwt>
<pdfrwt beam="1">  1        2 0.28428849E+00 0.12937334E+03</pdfrwt>
<pdfrwt beam="2">  1       -2 0.14485057E-02 0.12937334E+03</pdfrwt>
<totfact> 0.10841112E+04</totfact>
</mgrwt>
</event>
<event>
 6    1  0.4705246E-006  0.1560727E+03  0.7546771E-02  0.1201277E+00
          2   -1    0    0  501    0  0.00000000000E+00  0.00000000000E+00  0.52505584234E+03  0.52505584234E+03  0.00000000000E+00 0. -1.
         -2   -1    0    0    0  501 -0.00000000000E+00 -0.00000000000E+00 -0.39691850979E+02  0.39691850979E+02  0.00000000000E+00 0.  1.
          5    1    1    2  502    0 -0.32854126473E+02 -0.60408771922E+02  0.46148379043E+02  0.82948033369E+02  0.47000000000E+01 0.  1.
         -5    1    1    2    0  502  0.81333294705E+01 -0.29697770080E+02  0.24885635017E+03  0.25079808934E+03  0.47000000000E+01 0.  1.
        -11    1    1    2    0    0  0.79488544516E+01  0.30913235411E+02  0.15856991463E+03  0.16175051851E+03  0.00000000000E+00 0. -1.
         11    1    1    2    0    0  0.16771942551E+02  0.59193306591E+02  0.31789347516E+02  0.69251052105E+02  0.00000000000E+00 0.  1.
<mgrwt>
<rscale>  0 0.14934794E+03</rscale>
<asrwt>0</asrwt>
<pdfrwt beam="1">  1        2 0.80777817E-01 0.15607269E+03</pdfrwt>
<pdfrwt beam="2">  1       -2 0.61064390E-02 0.15607269E+03</pdfrwt>
<totfact> 0.81821316E+03</totfact>
</mgrwt>
</event>
<event>
 6    1  0.4705246E-006  0.1440617E+03  0.7546771E-02  0.1217597E+00
         -2   -1    0    0    0  501 -0.00000000000E+00  0.00000000000E+00  0.17559377314E+02  0.17559377314E+02  0.00000000000E+00 0. -1.
          2   -1    0    0  501    0  0.00000000000E+00 -0.00000000000E+00 -0.11118569318E+04  0.11118569318E+04  0.00000000000E+00 0.  1.
          5    1    1    2  502    0  0.50716893235E+02 -0.37917262868E+02 -0.30184766985E+03  0.30845425573E+03  0.47000000000E+01 0. -1.
         -5    1    1    2    0  502  0.80961333902E+01  0.78792050508E+02 -0.49261278496E+03  0.49896210328E+03  0.47000000000E+01 0. -1.
        -11    1    1    2    0    0 -0.73295549245E+02 -0.41987328507E+02 -0.29474165260E+03  0.30660693905E+03  0.00000000000E+00 0.  1.
         11    1    1    2    0    0  0.14482522619E+02  0.11125408673E+01 -0.50954470711E+01  0.15393011059E+02  0.00000000000E+00 0. -1.
<mgrwt>
<rscale>  0 0.13687499E+03</rscale>
<asrwt>0</asrwt>
<pdfrwt beam="2">  1        2 0.17105489E+00 0.14406166E+03</pdfrwt>
<pdfrwt beam="1">  1       -2 0.27014430E-02 0.14406166E+03</pdfrwt>
<totfact> 0.10786272E+04</totfact>
</mgrwt>
</event>
<event>
 6    1  0.4705246E-006  0.1380411E+03  0.7546771E-02  0.1227268E+00
          1   -1    0    0  501    0  0.00000000000E+00  0.00000000000E+00  0.33310806845E+03  0.33310806845E+03  0.00000000000E+00 0. -1.
         -1   -1    0    0    0  501 -0.00000000000E+00 -0.00000000000E+00 -0.46398492596E+02  0.46398492596E+02  0.00000000000E+00 0.  1.
          5    1    1    2  502    0  0.89656673523E+02  0.26058009601E+02  0.12090494399E+03  0.15283139223E+03  0.47000000000E+01 0.  1.
         -5    1    1    2    0  502 -0.31319821366E+02 -0.31309280842E+02  0.60419341396E+02  0.75058571076E+02  0.47000000000E+01 0.  1.
        -11    1    1    2    0    0 -0.59978772538E+02 -0.33544656595E+02  0.78801196319E+02  0.10455776242E+03  0.00000000000E+00 0. -1.
         11    1    1    2    0    0  0.16419203809E+01  0.38795927836E+02  0.26584094150E+02  0.47058835312E+02  0.00000000000E+00 0.  1.
<mgrwt>
<rscale>  0 0.13012637E+03</rscale>
<asrwt>0</asrwt>
<pdfrwt beam="1">  1        1 0.51247394E-01 0.13804108E+03</pdfrwt>
<pdfrwt beam="2">  1       -1 0.71382298E-02 0.13804108E+03</pdfrwt>
<totfact> 0.74949045E+03</totfact>
</mgrwt>
</event>
<event>
 6    1  0.4705246E-006  0.1726861E+03  0.7546771E-02  0.1181156E+00
          2   -1    0    0  501    0  0.00000000000E+00  0.00000000000E+00  0.10704552294E+04  0.10704552294E+04  0.00000000000E+00 0. -1.
         -2   -1    0    0    0  501 -0.00000000000E+00 -0.00000000000E+00 -0.29922211776E+02  0.29922211776E+02  0.00000000000E+00 0.  1.
          5    1    1    2  502    0  0.73656530053E+02  0.32467188559E+02  0.52923134848E+03  0.53533850316E+03  0.47000000000E+01 0. -1.
         -5    1    1    2    0  502  0.38939364341E+02 -0.71424194512E+02  0.25593714418E+03  0.26859560948E+03  0.47000000000E+01 0. -1.
        -11    1    1    2    0    0 -0.84290703760E+02  0.32360880527E+02  0.86301566395E+02  0.12490039908E+03  0.00000000000E+00 0.  1.
         11    1    1    2    0    0 -0.28305190634E+02  0.65961254256E+01  0.16906295852E+03  0.17154292941E+03  0.00000000000E+00 0. -1.
<mgrwt>
<rscale>  0 0.16686635E+03</rscale>
<asrwt>0</asrwt>
<pdfrwt beam="1">  1        2 0.16468539E+00 0.17268612E+03</pdfrwt>
<pdfrwt beam="2">  1       -2 0.46034180E-02 0.17268612E+03</pdfrwt>
<totfact> 0.52058225E+03</totfact>
</mgrwt>
</event>
<event>
 6    1  0.4705246E-006  0.1290458E+03  0.7546771E-02  0.1242732E+00
          1   -1    0    0  501    0  0.00000000000E+00  0.00000000000E+00  0.78546718070E+02  0.78546718070E+02  0.00000000000E+00 0. -1.
         -1   -1    0    0    0  501 -0.00000000000E+00 -0.00000000000E+00 -0.16417360393E+03  0.16417360393E+03  0.00000000000E+00 0.  1.
          5    1    1    2  502    0  0.61902591790E+02  0.32783883804E+02 -0.14305984659E+02  0.71648203778E+02  0.47000000000E+01 0. -1.
         -5    1    1    2    0  502 -0.58008813298E+02 -0.96770034161E+00 -0.24023512253E+02  0.62969659402E+02  0.47000000000E+01 0. -1.
        -11    1    1    2    0    0  0.29312985256E+02  0.13971644570E+02 -0.39297456214E+02  0.50977916998E+02  0.00000000000E+00 0.  1.
         11    1    1    2    0    0 -0.33206763747E+02 -0.45787828032E+02 -0.79999327334E+01  0.57124541820E+02  0.00000000000E+00 0. -1.
<mgrwt>
<rscale>  0 0.12022138E+03</rscale>
<asrwt>0</asrwt>
<pdfrwt beam="1">  1        1 0.12084111E-01 0.12904580E+03</pdfrwt>
<pdfrwt beam="2">  1       -1 0.25257477E-01 0.12904580E+03</pdfrwt>
<totfact> 0.64301861E+03</totfact>
</mgrwt>
</event>
<event>
 6    1  0.4705246E-006  0.1798000E+03  0.7546771E-02  0.1174084E+00
         -2   -1    0    0    0  501 -0.00000000000E+00  0.00000000000E+00  0.42312698899E+03  0.42312698899E+03  0.00000000000E+00 0.  1.
          2   -1    0    0  501    0  0.00000000000E+00 -0.00000000000E+00 -0.67822622767E+02  0.67822622767E+02  0.00000000000E+00 0. -1.
          5    1    1    2  502    0  0.41882729801E+02  0.92010871416E+02  0.17752661069E+03  0.20434762298E+03  0.47000000000E+01 0. -1.
         -5    1    1    2    0  502  0.25387236210E+02  0.18342480778E+02 -0.17646375248E+02  0.36255246832E+02  0.47000000000E+01 0. -1.
        -11    1    1    2    0    0  0.16862600706E+02 -0.20560050990E+01  0.99741995501E+01  0.19699216132E+02  0.00000000000E+00 0. -1.
         11    1    1    2    0    0 -0.84132566717E+02 -0.10829734710E+03  0.18544993123E+03  0.23064752581E+03  0.00000000000E+00 0.  1.
<mgrwt>
<rscale>  0 0.17366015E+03</rscale>
<asrwt>0</asrwt>
<pdfrwt beam="2">  1        2 0.10434250E-01 0.17980003E+03</pdfrwt>
<pdfrwt beam="1">  1       -2 0.65096458E-01 0.17980003E+03</pdfrwt>
<totfact> 0.13319986E+03</totfact>
</mgrwt>
</event>
<event>
 6    1  0.4705246E-006  0.1289562E+03  0.7546771E-02  0.1244225E+00
         -1   -1    0    0    0  501 -0.00000000000E+00  0.00000000000E+00  0.18451942416E+02  0.18451942416E+02  0.00000000000E+00 0.  1.
          1   -1    0    0  501    0  0.00000000000E+00 -0.00000000000E+00 -0.12672905402E+04  0.12672905402E+04  0.00000000000E+00 0. -1.
          5    1    1    2  502    0 -0.15757448590E+02  0.38708141631E+02 -0.70983741281E+03  0.71108217531E+03  0.47000000000E+01 0.  1.
         -5    1    1    2    0  502  0.41251119514E+02 -0.57506847059E+02 -0.40205970184E+03  0.40826803226E+03  0.47000000000E+01 0.  1.
        -11    1    1    2    0    0 -0.42511785152E+02 -0.96753796588E+01 -0.12283918812E+03  0.13034696386E+03  0.00000000000E+00 0.  1.
         11    1    1    2    0    0  0.17018114228E+02  0.28474085087E+02 -0.14102294990E+02  0.36045311171E+02  0.00000000000E+00 0. -1.
<mgrwt>
<rscale>  0 0.11931878E+03</rscale>
<asrwt>0</asrwt>
<pdfrwt beam="2">  1        1 0.19496789E+00 0.12895617E+03</pdfrwt>
<pdfrwt beam="1">  1       -1 0.28387587E-02 0.12895617E+03</pdfrwt>
<totfact> 0.41326319E+03</totfact>
</mgrwt>
</event>
<event>
 6    1  0.4705246E-006  0.1496973E+03  0.7546771E-02  0.1210152E+00
         -1   -1    0    0    0  501 -0.00000000000E+00  0.00000000000E+00  0.13689744983E+03  0.13689744983E+03  0.00000000000E+00 0.  1.
          1   -1    0    0  501    0  0.00000000000E+00 -0.00000000000E+00 -0.13552685006E+03  0.13552685006E+03  0.00000000000E+00 0. -1.
          5    1    1    2  502    0  0.49310024236E+02 -0.47653031103E+02  0.37914270685E+02  0.78497590950E+02  0.47000000000E+01 0.  1.
         -5    1    1    2    0  502 -0.53249559807E+02 -0.34641119711E+02 -0.32063648155E+02  0.71314026162E+02  0.47000000000E+01 0.  1.
        -11    1    1    2    0    0  0.37932347170E+02  0.60246652279E+02 -0.27138397835E+02  0.76190647128E+02  0.00000000000E+00 0. -1.
         11    1    1    2    0    0 -0.33992811599E+02  0.22047498535E+02  0.22658375081E+02  0.46422035645E+02  0.00000000000E+00 0.  1.
<mgrwt>
<rscale>  0 0.14238750E+03</rscale>
<asrwt>0</asrwt>
<pdfrwt beam="2">  1        1 0.20850284E-01 0.14969733E+03</pdfrwt>
<pdfrwt beam="1">  1       -1 0.21061146E-01 0.14969733E+03</pdfrwt>
<totfact> 0.43171820E+03</totfact>
</mgrwt>
</event>
<event>
 6    1  0.4705246E-006  0.1371717E+03  0.7546771E-02  0.1230011E+00
          1   -1    0    0  501    0  0.00000000000E+00  0.00000000000E+00  0.45107130340E+03  0.45107130340E+03  0.00000000000E+00 0. -1.
         -1   -1    0    0    0  501 -0.00000000000E+00 -0.00000000000E+00 -0.33991509343E+02  0.33991509343E+02  0.00000000000E+00 0.  1.
          5    1    1    2  502    0 -0.26500611624E+02 -0.31918974759E+02  0.47238262023E+02  0.63044799667E+02  0.47000000000E+01 0.  1.
         -5    1    1    2    0  502  0.79410853909E+02  0.51700046493E+02  0.13733479565E+03  0.16691888636E+03  0.47000000000E+01 0.  1.
        -11    1    1    2    0    0 -0.73428617805E+01 -0.43631727815E+02  0.16131382665E+03  0.16727162329E+03  0.00000000000E+00 0. -1.
         11    1    1    2    0    0 -0.45567380504E+02  0.23850656081E+02  0.71192909732E+02  0.87827503424E+02  0.00000000000E+00 0.  1.
<mgrwt>
<rscale>  0 0.12829282E+03</rscale>
<asrwt>0</asrwt>
<pdfrwt beam="1">  1        1 0.69395581E-01 0.13717173E+03</pdfrwt>
<pdfrwt beam="2">  1       -1 0.52294633E-02 0.13717173E+03</pdfrwt>
<totfact> 0.81341864E+03</totfact>
</mgrwt>
</event>
<event>
 6    1  0.4705246E-006  0.2448133E+03  0.7546771E-02  0.1119243E+00
          2   -1    0    0  501    0  0.00000000000E+00  0.00000000000E+00  0.18997814363E+03  0.18997814363E+03  0.00000000000E+00 0. -1.
         -2   -1    0    0    0  501 -0.00000000000E+00 -0.00000000000E+00 -0.35611964250E+03  0.35611964250E+03  0.00000000000E+00 0.  1.
          5    1    1    2  502    0  0.56987755527E+02  0.49967220682E+02  0.58503568616E+02  0.95859715019E+02  0.47000000000E+01 0.  1.
         -5    1    1    2    0  502  0.21081931722E+02  0.14552149607E+03 -0.31462726694E+02  0.15044250341E+03  0.47000000000E+01 0.  1.
        -11    1    1    2    0    0 -0.78981315581E+02 -0.12796194438E+03 -0.86336167085E+02  0.17339619710E+03  0.00000000000E+00 0. -1.
         11    1    1    2    0    0  0.91162833153E+00 -0.67526772365E+02 -0.10684617370E+03  0.12639937060E+03  0.00000000000E+00 0.  1.
<mgrwt>
<rscale>  0 0.24082753E+03</rscale>
<asrwt>0</asrwt>
<pdfrwt beam="1">  1        2 0.29227407E-01 0.24481335E+03</pdfrwt>
<pdfrwt beam="2">  1       -2 0.54787637E-01 0.24481335E+03</pdfrwt>
<totfact> 0.57722389E+02</totfact>
</mgrwt>
</event>
