<event>
 8    1  0.6760442E-009  0.2219337E+03  0.7561462E-02  0.1132450E+00
         -1   -1    0    0    0  501 -0.00000000000E+00  0.00000000000E+00  0.15623011471E+04  0.15623011471E+04  0.00000000000E+00 0.  1.
          1   -1    0    0  501    0  0.00000000000E+00 -0.00000000000E+00 -0.34265115887E+02  0.34265115887E+02  0.00000000000E+00 0. -1.
         25    2    1    2    0    0 -0.13019125395E+02 -0.19849949217E+03  0.95565646648E+03  0.98412311543E+03  0.12508988127E+03 0.  0.
         23    2    1    2    0    0  0.13019125395E+02  0.19849949217E+03  0.57237956471E+03  0.61244314752E+03  0.88863360483E+02 0.  0.
          5    1    3    3  502    0 -0.56718628836E+02 -0.55440286893E+02  0.44338468127E+03  0.45044208979E+03  0.41800000000E+01 0.  1.
         -5    1    3    3    0  502  0.43699503441E+02 -0.14305920528E+03  0.51227178520E+03  0.53368102564E+03  0.41800000000E+01 0.  1.
        -11    1    4    4    0    0  0.46249070290E+02  0.14098109179E+03  0.34483952725E+03  0.37540504032E+03  0.00000000000E+00 0.  1.
         11    1    4    4    0    0 -0.33229944894E+02  0.57518400382E+02  0.22754003745E+03  0.23703810720E+03  0.00000000000E+00 0. -1.
</event>
<event>
 8    1  0.6760442E-009  0.8763082E+02  0.7561462E-02  0.1308693E+00
         -2   -1    0    0    0  501 -0.00000000000E+00  0.00000000000E+00  0.10584501165E+03  0.10584501165E+03  0.00000000000E+00 0. -1.
          2   -1    0    0  501    0  0.00000000000E+00 -0.00000000000E+00 -0.15521409878E+03  0.15521409878E+03  0.00000000000E+00 0.  1.
         25    2    1    2    0    0 -0.61361125820E+02  0.29054118234E+02 -0.19328743851E+02  0.14363039008E+03  0.12508700598E+03 0.  0.
         23    2    1    2    0    0  0.61361125820E+02 -0.29054118234E+02 -0.30040343283E+02  0.11742872035E+03  0.90982155343E+02 0.  0.
          5    1    3    3  502    0 -0.15262653342E+02  0.89327921275E+01 -0.69875312266E+02  0.72199550044E+02  0.41800000000E+01 0.  1.
         -5    1    3    3    0  502 -0.46098472479E+02  0.20121326106E+02  0.50546568416E+02  0.71430840032E+02  0.41800000000E+01 0.  1.
        -11    1    4    4    0    0 -0.19634467451E+02  0.22929727603E+01  0.95815613471E+01  0.21967620581E+02  0.00000000000E+00 0. -1.
         11    1    4    4    0    0  0.80995593271E+02 -0.31347090994E+02 -0.39621904630E+02  0.95461099772E+02  0.00000000000E+00 0.  1.
</event>
<event>
 8    1  0.6760442E-009  0.1049101E+03  0.7561462E-02  0.1270297E+00
          2   -1    0    0  501    0  0.00000000000E+00  0.00000000000E+00  0.34000079405E+03  0.34000079405E+03  0.00000000000E+00 0. -1.
         -2   -1    0    0    0  501 -0.00000000000E+00 -0.00000000000E+00 -0.45129203880E+02  0.45129203880E+02  0.00000000000E+00 0.  1.
         25    2    1    2    0    0 -0.28010903895E+02 -0.28595947757E+02  0.23516351064E+03  0.26935337590E+03  0.12508807059E+03 0.  0.
         23    2    1    2    0    0  0.28010903895E+02  0.28595947757E+02  0.59708079533E+02  0.11577662204E+03  0.90756996887E+02 0.  0.
          5    1    3    3  502    0 -0.31066298890E+02 -0.71521438262E+02  0.96682189568E+02  0.12427931943E+03  0.41800000000E+01 0.  1.
         -5    1    3    3    0  502  0.30553949957E+01  0.42925490505E+02  0.13848132107E+03  0.14507405647E+03  0.41800000000E+01 0.  1.
        -11    1    4    4    0    0 -0.26753952854E+02  0.88379399251E-01  0.44929924748E+02  0.52292255087E+02  0.00000000000E+00 0. -1.
         11    1    4    4    0    0  0.54764856749E+02  0.28507568357E+02  0.14778154785E+02  0.63484366951E+02  0.00000000000E+00 0.  1.
</event>
<event>
 8    1  0.6760442E-009  0.8284664E+02  0.7561462E-02  0.1321162E+00
         -1   -1    0    0    0  501 -0.00000000000E+00  0.00000000000E+00  0.14970613831E+03  0.14970613831E+03  0.00000000000E+00 0.  1.
          1   -1    0    0  501    0  0.00000000000E+00 -0.00000000000E+00 -0.91691993885E+02  0.91691993885E+02  0.00000000000E+00 0. -1.
         25    2    1    2    0    0  0.22458102193E+02  0.13689067163E+02  0.70490777696E+02  0.14597588591E+03  0.12509297587E+03 0.  0.
         23    2    1    2    0    0 -0.22458102193E+02 -0.13689067163E+02 -0.12476633270E+02  0.95422246288E+02  0.90873438336E+02 0.  0.
          5    1    3    3  502    0 -0.45718695648E+02  0.16600330357E+02  0.59118477674E+02  0.76669660899E+02  0.41800000000E+01 0.  1.
         -5    1    3    3    0  502  0.68176797842E+02 -0.29112631949E+01  0.11372300021E+02  0.69306225010E+02  0.41800000000E+01 0.  1.
        -11    1    4    4    0    0 -0.31649288995E+02 -0.19926869357E+02  0.32220728178E+02  0.49365300977E+02  0.00000000000E+00 0.  1.
         11    1    4    4    0    0  0.91911868019E+01  0.62378021941E+01 -0.44697361447E+02  0.46056945311E+02  0.00000000000E+00 0. -1.
</event>
<event>
 8    1  0.6760442E-009  0.1148151E+03  0.7561462E-02  0.1251904E+00
         -2   -1    0    0    0  501 -0.00000000000E+00  0.00000000000E+00  0.97732612074E+01  0.97732612074E+01  0.00000000000E+00 0.  1.
          2   -1    0    0  501    0  0.00000000000E+00 -0.00000000000E+00 -0.14122019066E+04  0.14122019066E+04  0.00000000000E+00 0. -1.
         25    2    1    2    0    0  0.28155078104E+02 -0.37088603977E+02 -0.85970263511E+03  0.87000405400E+03  0.12510060028E+03 0.  0.
         23    2    1    2    0    0 -0.28155078104E+02  0.37088603977E+02 -0.54272601028E+03  0.55197111380E+03  0.89175754968E+02 0.  0.
          5    1    3    3  502    0  0.63379446976E+02  0.15895581253E+02 -0.54405557287E+03  0.54798135240E+03  0.41800000000E+01 0. -1.
         -5    1    3    3    0  502 -0.35224368872E+02 -0.52984185230E+02 -0.31564706224E+03  0.32202270160E+03  0.41800000000E+01 0. -1.
        -11    1    4    4    0    0 -0.40467105024E+02  0.61171279430E+02 -0.38021807219E+03  0.38722770360E+03  0.00000000000E+00 0.  1.
         11    1    4    4    0    0  0.12312026920E+02 -0.24082675453E+02 -0.16250793809E+03  0.16474341020E+03  0.00000000000E+00 0. -1.
</event>
<event>
 8    1  0.6760442E-009  0.1080528E+03  0.7561462E-02  0.1264219E+00
         -2   -1    0    0    0  501 -0.00000000000E+00  0.00000000000E+00  0.86711622246E+02  0.86711622246E+02  0.00000000000E+00 0.  1.
          2   -1    0    0  501    0  0.00000000000E+00 -0.00000000000E+00 -0.18602070066E+03  0.18602070066E+03  0.00000000000E+00 0. -1.
         25    2    1    2    0    0 -0.12307144674E+02 -0.64533896760E+02 -0.50549733221E+02  0.15007066433E+03  0.12509931704E+03 0.  0.
         23    2    1    2    0    0  0.12307144674E+02  0.64533896760E+02 -0.48759345192E+02  0.12266165857E+03  0.91391023079E+02 0.  0.
          5    1    3    3  502    0  0.31544001022E+02 -0.62278833637E+02  0.14551416230E+02  0.71434538103E+02  0.41800000000E+01 0. -1.
         -5    1    3    3    0  502 -0.43851145696E+02 -0.22550631233E+01 -0.65101149451E+02  0.78636126229E+02  0.41800000000E+01 0. -1.
        -11    1    4    4    0    0  0.40436128767E+02  0.11516826182E+02  0.46764361633E+01  0.42303508721E+02  0.00000000000E+00 0.  1.
         11    1    4    4    0    0 -0.28128984092E+02  0.53017070578E+02 -0.53435781355E+02  0.80358149853E+02  0.00000000000E+00 0. -1.
</event>
<event>
 8    1  0.6760442E-009  0.1048488E+03  0.7561462E-02  0.1270418E+00
         -1   -1    0    0    0  501 -0.00000000000E+00  0.00000000000E+00  0.37511679698E+02  0.37511679698E+02  0.00000000000E+00 0.  1.
          1   -1    0    0  501    0  0.00000000000E+00 -0.00000000000E+00 -0.38852999537E+03  0.38852999537E+03  0.00000000000E+00 0. -1.
         25    2    1    2    0    0  0.38570118086E+02  0.23764139056E+02 -0.23380395234E+03  0.26898971904E+03  0.12505515785E+03 0.  0.
         23    2    1    2    0    0 -0.38570118086E+02 -0.23764139056E+02 -0.11721436333E+03  0.15705195602E+03  0.94200433153E+02 0.  0.
          5    1    3    3  502    0  0.19082201341E+02 -0.38538135254E+02 -0.24428549687E+02  0.49634108400E+02  0.41800000000E+01 0. -1.
         -5    1    3    3    0  502  0.19487916746E+02  0.62302274310E+02 -0.20937540265E+03  0.21935561064E+03  0.41800000000E+01 0. -1.
        -11    1    4    4    0    0  0.21813518642E+02 -0.33438836751E+02 -0.66687088695E+02  0.77724855725E+02  0.00000000000E+00 0.  1.
         11    1    4    4    0    0 -0.60383636729E+02  0.96746976946E+01 -0.50527274634E+02  0.79327100300E+02  0.00000000000E+00 0. -1.
</event>
<event>
 8    1  0.6760442E-009  0.1246132E+03  0.7561462E-02  0.1235675E+00
          3   -1    0    0  501    0  0.00000000000E+00  0.00000000000E+00  0.23803958432E+03  0.23803958432E+03  0.00000000000E+00 0. -1.
         -3   -1    0    0    0  501 -0.00000000000E+00 -0.00000000000E+00 -0.10738300386E+03  0.10738300386E+03  0.00000000000E+00 0.  1.
         25    2    1    2    0    0  0.81456784217E+02 -0.31635165517E+02 -0.16310427100E+02  0.15345894189E+03  0.12509046895E+03 0.  0.
         23    2    1    2    0    0 -0.81456784217E+02  0.31635165517E+02  0.14696700756E+03  0.19196364630E+03  0.87262528011E+02 0.  0.
          5    1    3    3  502    0 -0.95885091023E+01  0.24556111193E+02  0.26994647555E+02  0.37962158795E+02  0.41800000000E+01 0. -1.
         -5    1    3    3    0  502  0.91045293319E+02 -0.56191276711E+02 -0.43305074655E+02  0.11549678309E+03  0.41800000000E+01 0. -1.
        -11    1    4    4    0    0 -0.94378797888E+02  0.16924508032E+02  0.14270358018E+03  0.17192471683E+03  0.00000000000E+00 0. -1.
         11    1    4    4    0    0  0.12922013671E+02  0.14710657485E+02  0.42634273861E+01  0.20038929463E+02  0.00000000000E+00 0.  1.
</event>
<event>
 8    1  0.6760442E-009  0.1541067E+03  0.7561462E-02  0.1195516E+00
          2   -1    0    0  501    0  0.00000000000E+00  0.00000000000E+00  0.51688346106E+02  0.51688346106E+02  0.00000000000E+00 0. -1.
         -2   -1    0    0    0  501 -0.00000000000E+00 -0.00000000000E+00 -0.62076183697E+03  0.62076183697E+03  0.00000000000E+00 0.  1.
         25    2    1    2    0    0 -0.12515690600E+03 -0.40977568937E+02 -0.40153738476E+03  0.44070742230E+03  0.12508936182E+03 0.  0.
         23    2    1    2    0    0  0.12515690600E+03  0.40977568937E+02 -0.16753610610E+03  0.23174276077E+03  0.91065624933E+02 0.  0.
          5    1    3    3  502    0 -0.98613054610E+02  0.26305965158E+02 -0.29224054771E+03  0.30957801677E+03  0.41800000000E+01 0.  1.
         -5    1    3    3    0  502 -0.26543851391E+02 -0.67283534095E+02 -0.10929683704E+03  0.13112940553E+03  0.41800000000E+01 0.  1.
        -11    1    4    4    0    0  0.37958143068E+02  0.17469019824E+01  0.95597150408E+00  0.38010342977E+02  0.00000000000E+00 0. -1.
         11    1    4    4    0    0  0.87198762933E+02  0.39230666954E+02 -0.16849207761E+03  0.19373241779E+03  0.00000000000E+00 0.  1.
</event>
<event>
 8    1  0.6760442E-009  0.9970951E+02  0.7561462E-02  0.1280908E+00
          2   -1    0    0  501    0  0.00000000000E+00  0.00000000000E+00  0.84759563550E+02  0.84759563550E+02  0.00000000000E+00 0. -1.
         -2   -1    0    0    0  501 -0.00000000000E+00 -0.00000000000E+00 -0.22481101357E+03  0.22481101357E+03  0.00000000000E+00 0.  1.
         25    2    1    2    0    0 -0.37700472130E+02  0.49877134813E+02 -0.91672982758E+01  0.14015352175E+03  0.12509962480E+03 0.  0.
         23    2    1    2    0    0  0.37700472130E+02 -0.49877134813E+02 -0.13088415174E+03  0.16941705537E+03  0.87535268873E+02 0.  0.
          5    1    3    3  502    0 -0.37850735881E+01 -0.18656535663E+02 -0.49787738866E+02  0.53466666685E+02  0.41800000000E+01 0.  1.
         -5    1    3    3    0  502 -0.33915398542E+02  0.68533670476E+02  0.40620440590E+02  0.86686855064E+02  0.41800000000E+01 0.  1.
        -11    1    4    4    0    0  0.27617239515E+02 -0.73039470507E+02 -0.75845211999E+02  0.10885757830E+03  0.00000000000E+00 0. -1.
         11    1    4    4    0    0  0.10083232615E+02  0.23162335694E+02 -0.55038939742E+02  0.60559477067E+02  0.00000000000E+00 0.  1.
</event>
<event>
 8    1  0.6760442E-009  0.1023120E+03  0.7561462E-02  0.1275508E+00
          2   -1    0    0  501    0  0.00000000000E+00  0.00000000000E+00  0.33364166777E+03  0.33364166777E+03  0.00000000000E+00 0. -1.
         -2   -1    0    0    0  501 -0.00000000000E+00 -0.00000000000E+00 -0.37628389709E+02  0.37628389709E+02  0.00000000000E+00 0.  1.
         25    2    1    2    0    0 -0.22002039304E+02  0.26761772856E+02  0.15284868640E+03  0.20052577593E+03  0.12509030201E+03 0.  0.
         23    2    1    2    0    0  0.22002039304E+02 -0.26761772856E+02  0.14316459166E+03  0.17074428155E+03  0.86355238153E+02 0.  0.
          5    1    3    3  502    0 -0.69069400621E+02  0.19053142141E+01  0.11788099257E+03  0.13670264494E+03  0.41800000000E+01 0. -1.
         -5    1    3    3    0  502  0.47067361318E+02  0.24856458642E+02  0.34967693835E+02  0.63823130993E+02  0.41800000000E+01 0. -1.
        -11    1    4    4    0    0  0.57650887966E+01 -0.51826500131E+02  0.47537280258E+02  0.70562138423E+02  0.00000000000E+00 0.  1.
         11    1    4    4    0    0  0.16236950507E+02  0.25064727275E+02  0.95627311399E+02  0.10018214312E+03  0.00000000000E+00 0. -1.
</event>
<event>
 8    1  0.6760442E-009  0.1729347E+03  0.7561462E-02  0.1174822E+00
         -4   -1    0    0    0  501 -0.00000000000E+00  0.00000000000E+00  0.81744731219E+02  0.81744731219E+02  0.00000000000E+00 0.  1.
          4   -1    0    0  501    0  0.00000000000E+00 -0.00000000000E+00 -0.40914676026E+03  0.40914676026E+03  0.00000000000E+00 0. -1.
         25    2    1    2    0    0  0.13356326681E+03  0.49677213880E+02 -0.12514181976E+03  0.22718824043E+03  0.12508816778E+03 0.  0.
         23    2    1    2    0    0 -0.13356326681E+03 -0.49677213880E+02 -0.20226020928E+03  0.26370325104E+03  0.91231795621E+02 0.  0.
          5    1    3    3  502    0  0.35135485700E+01  0.46608540005E+02 -0.73417626915E+02  0.87133927759E+02  0.41800000000E+01 0. -1.
         -5    1    3    3    0  502  0.13004971824E+03  0.30686738749E+01 -0.51724192840E+02  0.14005431267E+03  0.41800000000E+01 0. -1.
        -11    1    4    4    0    0 -0.55836329903E+02 -0.68935475817E+02 -0.97054825121E+02  0.13148929478E+03  0.00000000000E+00 0. -1.
         11    1    4    4    0    0 -0.77726936906E+02  0.19258261937E+02 -0.10520538416E+03  0.13221395626E+03  0.00000000000E+00 0.  1.
</event>
<event>
 8    1  0.6760442E-009  0.9678415E+02  0.7561462E-02  0.1287208E+00
         -1   -1    0    0    0  501 -0.00000000000E+00  0.00000000000E+00  0.28612560542E+02  0.28612560542E+02  0.00000000000E+00 0. -1.
          1   -1    0    0  501    0  0.00000000000E+00 -0.00000000000E+00 -0.44374090344E+03  0.44374090344E+03  0.00000000000E+00 0.  1.
         25    2    1    2    0    0  0.21631092143E+02  0.25994169744E+02 -0.25828059793E+03  0.28896494999E+03  0.12509306156E+03 0.  0.
         23    2    1    2    0    0 -0.21631092143E+02 -0.25994169744E+02 -0.15684774497E+03  0.18338851399E+03  0.88806142539E+02 0.  0.
          5    1    3    3  502    0 -0.34674963474E+02  0.55724802724E+02 -0.13267665483E+03  0.14808164595E+03  0.41800000000E+01 0. -1.
         -5    1    3    3    0  502  0.56306055617E+02 -0.29730632980E+02 -0.12560394309E+03  0.14088330404E+03  0.41800000000E+01 0. -1.
        -11    1    4    4    0    0 -0.31708907597E+02  0.43618385736E+01 -0.14622258452E+03  0.14968475099E+03  0.00000000000E+00 0.  1.
         11    1    4    4    0    0  0.10077815454E+02 -0.30356008317E+02 -0.10625160449E+02  0.33703762993E+02  0.00000000000E+00 0. -1.
</event>
<event>
 8    1  0.6760442E-009  0.1563651E+03  0.7561462E-02  0.1192863E+00
          2   -1    0    0  501    0  0.00000000000E+00  0.00000000000E+00  0.42569910761E+03  0.42569910761E+03  0.00000000000E+00 0. -1.
         -2   -1    0    0    0  501 -0.00000000000E+00 -0.00000000000E+00 -0.12731399444E+03  0.12731399444E+03  0.00000000000E+00 0.  1.
         25    2    1    2    0    0 -0.13914525925E+03 -0.21212997326E+02 -0.24451401498E+02  0.18989305821E+03  0.12510039207E+03 0.  0.
         23    2    1    2    0    0  0.13914525925E+03  0.21212997326E+02  0.32283651467E+03  0.36312004384E+03  0.88438433986E+02 0.  0.
          5    1    3    3  502    0 -0.77910318860E+02 -0.57951445395E+02 -0.55491836537E+02  0.11191605841E+03  0.41800000000E+01 0.  1.
         -5    1    3    3    0  502 -0.61234940388E+02  0.36738448068E+02  0.31040435038E+02  0.77976999802E+02  0.41800000000E+01 0.  1.
        -11    1    4    4    0    0  0.48426260447E+02  0.22226210040E+02  0.41561977543E+02  0.67575920940E+02  0.00000000000E+00 0.  1.
         11    1    4    4    0    0  0.90718998801E+02 -0.10132127136E+01  0.28127453713E+03  0.29554412290E+03  0.00000000000E+00 0. -1.
</event>
<event>
 8    1  0.6760442E-009  0.8437011E+02  0.7561462E-02  0.1317088E+00
          2   -1    0    0  501    0  0.00000000000E+00  0.00000000000E+00  0.49942472764E+03  0.49942472764E+03  0.00000000000E+00 0.  1.
         -2   -1    0    0    0  501 -0.00000000000E+00 -0.00000000000E+00 -0.32500272404E+02  0.32500272404E+02  0.00000000000E+00 0. -1.
         25    2    1    2    0    0 -0.74763499598E+01  0.64093002046E+02  0.22749887969E+03  0.26752022555E+03  0.12509005595E+03 0.  0.
         23    2    1    2    0    0  0.74763499598E+01 -0.64093002046E+02  0.23942557555E+03  0.26440477450E+03  0.91768566679E+02 0.  0.
          5    1    3    3  502    0  0.17049044261E+02  0.70475574056E+02  0.23048980660E+03  0.24166195355E+03  0.41800000000E+01 0. -1.
         -5    1    3    3    0  502 -0.24525394221E+02 -0.63825720098E+01 -0.29909269046E+01  0.25858272001E+02  0.41800000000E+01 0. -1.
        -11    1    4    4    0    0 -0.86997794739E+01 -0.72434341954E+01 -0.54021491406E+01  0.12543393368E+02  0.00000000000E+00 0. -1.
         11    1    4    4    0    0  0.16176129434E+02 -0.56849567851E+02  0.24482772469E+03  0.25186138113E+03  0.00000000000E+00 0.  1.
</event>
<event>
 8    1  0.6760442E-009  0.1055079E+03  0.7561462E-02  0.1269122E+00
          4   -1    0    0  501    0  0.00000000000E+00  0.00000000000E+00  0.58720112757E+02  0.58720112757E+02  0.00000000000E+00 0. -1.
         -4   -1    0    0    0  501 -0.00000000000E+00 -0.00000000000E+00 -0.37116369235E+03  0.37116369235E+03  0.00000000000E+00 0.  1.
         25    2    1    2    0    0  0.18186795093E+02  0.25594450992E+02 -0.30369903989E+03  0.32994855191E+03  0.12508838729E+03 0.  0.
         23    2    1    2    0    0 -0.18186795093E+02 -0.25594450992E+02 -0.87445396993E+01  0.99935253201E+02  0.94470907800E+02 0.  0.
          5    1    3    3  502    0  0.66704421096E+02  0.73978280979E+01 -0.10600700361E+03  0.12553551238E+03  0.41800000000E+01 0.  1.
         -5    1    3    3    0  502 -0.48517626003E+02  0.18196622894E+02 -0.19769203628E+03  0.20441303952E+03  0.41800000000E+01 0.  1.
        -11    1    4    4    0    0 -0.27889881329E+02  0.26693588945E+02  0.15357066818E+02  0.41547956298E+02  0.00000000000E+00 0. -1.
         11    1    4    4    0    0  0.97030862362E+01 -0.52288039937E+02 -0.24101606517E+02  0.58387296903E+02  0.00000000000E+00 0.  1.
</event>
<event>
 7    1  0.6760442E-009  0.1535618E+03  0.7561462E-02  0.1196163E+00
         -1   -1    0    0    0  501 -0.00000000000E+00  0.00000000000E+00  0.59237420905E+03  0.59237420905E+03  0.00000000000E+00 0.  1.
          1   -1    0    0  501    0  0.00000000000E+00 -0.00000000000E+00 -0.41551779494E+02  0.41551779494E+02  0.00000000000E+00 0. -1.
         23    2    1    2    0    0 -0.10477210969E+03 -0.32618266586E+02  0.29664705890E+03  0.33007226319E+03  0.94377301762E+02 0.  0.
          5    1    1    2  502    0 -0.20244538908E+02 -0.18069883294E+02  0.21520958154E+02  0.34885327542E+02  0.41800000000E+01 0. -1.
         -5    1    1    2    0  502  0.12501664860E+03  0.50688149880E+02  0.23265441251E+03  0.26896839782E+03  0.41800000000E+01 0. -1.
        -11    1    3    3    0    0 -0.46621336529E+02  0.32928657000E+02  0.12051201326E+03  0.13334538167E+03  0.00000000000E+00 0.  1.
         11    1    3    3    0    0 -0.58150773166E+02 -0.65546923586E+02  0.17613504564E+03  0.19672688152E+03  0.00000000000E+00 0. -1.
</event>
<event>
 8    1  0.6760442E-009  0.1051228E+03  0.7561462E-02  0.1269878E+00
         -2   -1    0    0    0  501 -0.00000000000E+00  0.00000000000E+00  0.40022719057E+02  0.40022719057E+02  0.00000000000E+00 0.  1.
          2   -1    0    0  501    0  0.00000000000E+00 -0.00000000000E+00 -0.33442644371E+03  0.33442644371E+03  0.00000000000E+00 0. -1.
         25    2    1    2    0    0 -0.45532031029E+02  0.46005306959E+01 -0.17643265945E+03  0.22106752744E+03  0.12509211659E+03 0.  0.
         23    2    1    2    0    0  0.45532031029E+02 -0.46005306959E+01 -0.11797106520E+03  0.15338163533E+03  0.86685772189E+02 0.  0.
          5    1    3    3  502    0  0.10934944781E+02 -0.41923882878E+02 -0.19157966717E+02  0.47557176763E+02  0.41800000000E+01 0.  1.
         -5    1    3    3    0  502 -0.56466975810E+02  0.46524413574E+02 -0.15727469274E+03  0.17351035067E+03  0.41800000000E+01 0.  1.
        -11    1    4    4    0    0  0.63978530501E+02  0.15830276565E+02 -0.59658605854E+02  0.88898814805E+02  0.00000000000E+00 0.  1.
         11    1    4    4    0    0 -0.18446499472E+02 -0.20430807260E+02 -0.58312459345E+02  0.64482820526E+02  0.00000000000E+00 0. -1.
</event>
<event>
 8    1  0.6760442E-009  0.1659774E+03  0.7561462E-02  0.1182109E+00
          2   -1    0    0  501    0  0.00000000000E+00  0.00000000000E+00  0.42090613131E+03  0.42090613131E+03  0.00000000000E+00 0. -1.
         -2   -1    0    0    0  501 -0.00000000000E+00 -0.00000000000E+00 -0.67244904748E+02  0.67244904748E+02  0.00000000000E+00 0.  1.
         25    2    1    2    0    0 -0.87514512504E+02 -0.93465515303E+02  0.16898889623E+03  0.24617001930E+03  0.12509132227E+03 0.  0.
         23    2    1    2    0    0  0.87514512504E+02  0.93465515303E+02  0.18467233034E+03  0.24198101676E+03  0.89757174797E+02 0.  0.
          5    1    3    3  502    0 -0.11960279669E+03 -0.66815644372E+02  0.13091704457E+03  0.18954129963E+03  0.41800000000E+01 0.  1.
         -5    1    3    3    0  502  0.32088284187E+02 -0.26649870931E+02  0.38071851660E+02  0.56628719671E+02  0.41800000000E+01 0.  1.
        -11    1    4    4    0    0  0.72386608905E+02  0.10928309841E+03  0.13745833764E+03  0.18994054684E+03  0.00000000000E+00 0.  1.
         11    1    4    4    0    0  0.15127903599E+02 -0.15817583106E+02  0.47213992699E+02  0.52040469917E+02  0.00000000000E+00 0. -1.
</event>
<event>
 8    1  0.6760442E-009  0.1021896E+03  0.7561462E-02  0.1275758E+00
         -1   -1    0    0    0  501 -0.00000000000E+00  0.00000000000E+00  0.19426003978E+02  0.19426003978E+02  0.00000000000E+00 0.  1.
          1   -1    0    0  501    0  0.00000000000E+00 -0.00000000000E+00 -0.10729966224E+04  0.10729966224E+04  0.00000000000E+00 0. -1.
         25    2    1    2    0    0  0.13774148397E+02  0.78704917259E+02 -0.76500933685E+03  0.77927796488E+03  0.12510263753E+03 0.  0.
         23    2    1    2    0    0 -0.13774148397E+02 -0.78704917259E+02 -0.28856128160E+03  0.31314466153E+03  0.91693918220E+02 0.  0.
          5    1    3    3  502    0 -0.48971543163E+01  0.63445712025E+02 -0.74483896351E+03  0.74756397348E+03  0.41800000000E+01 0.  1.
         -5    1    3    3    0  502  0.18671302713E+02  0.15259205234E+02 -0.20170373340E+02  0.31713991393E+02  0.41800000000E+01 0.  1.
        -11    1    4    4    0    0 -0.49105932995E+02 -0.54196544052E+02 -0.13336489828E+03  0.15210146000E+03  0.00000000000E+00 0.  1.
         11    1    4    4    0    0  0.35331784599E+02 -0.24508373207E+02 -0.15519638333E+03  0.16104320153E+03  0.00000000000E+00 0. -1.
</event>
<event>
 8    1  0.6760442E-009  0.1234952E+03  0.7561462E-02  0.1237440E+00
          3   -1    0    0  501    0  0.00000000000E+00  0.00000000000E+00  0.18624300439E+03  0.18624300439E+03  0.00000000000E+00 0. -1.
         -3   -1    0    0    0  501 -0.00000000000E+00 -0.00000000000E+00 -0.13201939278E+03  0.13201939278E+03  0.00000000000E+00 0.  1.
         25    2    1    2    0    0  0.68824486167E+02  0.60826891487E+02  0.95914342367E+02  0.18243938229E+03  0.12509135267E+03 0.  0.
         23    2    1    2    0    0 -0.68824486167E+02 -0.60826891487E+02 -0.41690730757E+02  0.13582301488E+03  0.90956328621E+02 0.  0.
          5    1    3    3  502    0  0.98530942263E+02  0.43127409918E+02  0.36665878801E+02  0.11371094555E+03  0.41800000000E+01 0.  1.
         -5    1    3    3    0  502 -0.29706456096E+02  0.17699481569E+02  0.59248463566E+02  0.68728436738E+02  0.41800000000E+01 0.  1.
        -11    1    4    4    0    0 -0.57113955306E+02 -0.69494410930E+02 -0.63135036505E+02  0.10989772462E+03  0.00000000000E+00 0.  1.
         11    1    4    4    0    0 -0.11710530862E+02  0.86675194429E+01  0.21444305748E+02  0.25925290266E+02  0.00000000000E+00 0. -1.
</event>
<event>
 8    1  0.6760442E-009  0.1324670E+03  0.7561462E-02  0.1223840E+00
         -2   -1    0    0    0  501 -0.00000000000E+00  0.00000000000E+00  0.16815701478E+03  0.16815701478E+03  0.00000000000E+00 0.  1.
          2   -1    0    0  501    0  0.00000000000E+00 -0.00000000000E+00 -0.18737446802E+03  0.18737446802E+03  0.00000000000E+00 0. -1.
         25    2    1    2    0    0  0.94337458726E+02  0.28103470682E+02  0.94494225673E+02  0.18511186029E+03  0.12509149032E+03 0.  0.
         23    2    1    2    0    0 -0.94337458726E+02 -0.28103470682E+02 -0.11371167891E+03  0.17041962251E+03  0.80144498456E+02 0.  0.
          5    1    3    3  502    0 -0.20314098521E+02 -0.25208180215E+02  0.20693408419E+02  0.38649767146E+02  0.41800000000E+01 0. -1.
         -5    1    3    3    0  502  0.11465155725E+03  0.53311650897E+02  0.73800817254E+02  0.14646209314E+03  0.41800000000E+01 0. -1.
        -11    1    4    4    0    0 -0.71394888401E+02 -0.25506480282E+01 -0.25661271886E+02  0.75909398430E+02  0.00000000000E+00 0.  1.
         11    1    4    4    0    0 -0.22942570325E+02 -0.25552822654E+02 -0.88050407023E+02  0.94510224080E+02  0.00000000000E+00 0. -1.
</event>
<event>
 8    1  0.6760442E-009  0.8236903E+02  0.7561462E-02  0.1322460E+00
          1   -1    0    0  501    0  0.00000000000E+00  0.00000000000E+00  0.32783735903E+03  0.32783735903E+03  0.00000000000E+00 0. -1.
         -1   -1    0    0    0  501 -0.00000000000E+00 -0.00000000000E+00 -0.62293357638E+02  0.62293357638E+02  0.00000000000E+00 0.  1.
         25    2    1    2    0    0  0.28022036354E+02 -0.31543923973E+02  0.31189110164E+02  0.13564846106E+03  0.12508993058E+03 0.  0.
         23    2    1    2    0    0 -0.28022036354E+02  0.31543923973E+02  0.23435489123E+03  0.25448225561E+03  0.89770539249E+02 0.  0.
          5    1    3    3  502    0  0.68283486458E+01  0.20029226377E+02 -0.39808328544E+02  0.45276612903E+02  0.41800000000E+01 0.  1.
         -5    1    3    3    0  502  0.21193687708E+02 -0.51573150351E+02  0.70997438708E+02  0.90371848155E+02  0.41800000000E+01 0.  1.
        -11    1    4    4    0    0  0.21200491315E+02  0.31573544902E+02  0.16568129360E+03  0.16999011918E+03  0.00000000000E+00 0.  1.
         11    1    4    4    0    0 -0.49222527670E+02 -0.29620929000E-01  0.68673597632E+02  0.84492136434E+02  0.00000000000E+00 0. -1.
</event>
<event>
 8    1  0.6760442E-009  0.1711257E+03  0.7561462E-02  0.1176679E+00
          1   -1    0    0  501    0  0.00000000000E+00  0.00000000000E+00  0.14245406550E+04  0.14245406550E+04  0.00000000000E+00 0. -1.
         -1   -1    0    0    0  501 -0.00000000000E+00 -0.00000000000E+00 -0.21178764198E+02  0.21178764198E+02  0.00000000000E+00 0.  1.
         25    2    1    2    0    0 -0.10695742464E+03 -0.79149143144E+02  0.83616566320E+03  0.85587386634E+03  0.12507030513E+03 0.  0.
         23    2    1    2    0    0  0.10695742464E+03  0.79149143144E+02  0.56719622756E+03  0.58984555282E+03  0.92204870103E+02 0.  0.
          5    1    3    3  502    0 -0.13404228517E+03 -0.57572846320E+02  0.71729647220E+03  0.73199294278E+03  0.41800000000E+01 0.  1.
         -5    1    3    3    0  502  0.27084860520E+02 -0.21576296824E+02  0.11886919100E+03  0.12388092356E+03  0.41800000000E+01 0.  1.
        -11    1    4    4    0    0 -0.11916848378E+02  0.30930777730E+02  0.99525901685E+02  0.10490056908E+03  0.00000000000E+00 0.  1.
         11    1    4    4    0    0  0.11887427302E+03  0.48218365414E+02  0.46767032588E+03  0.48494498374E+03  0.00000000000E+00 0. -1.
</event>
<event>
 8    1  0.6760442E-009  0.1238928E+03  0.7561462E-02  0.1236810E+00
         -2   -1    0    0    0  501 -0.00000000000E+00  0.00000000000E+00  0.11408218802E+03  0.11408218802E+03  0.00000000000E+00 0.  1.
          2   -1    0    0  501    0  0.00000000000E+00 -0.00000000000E+00 -0.21292520717E+03  0.21292520717E+03  0.00000000000E+00 0. -1.
         25    2    1    2    0    0 -0.11240725355E+03  0.24499133450E+02 -0.35606023171E+02  0.17364046731E+03  0.12509046652E+03 0.  0.
         23    2    1    2    0    0  0.11240725355E+03 -0.24499133450E+02 -0.63236995979E+02  0.15336692788E+03  0.79289966053E+02 0.  0.
          5    1    3    3  502    0 -0.28759884333E+02  0.19438014274E+02 -0.73639493635E+02  0.81518186735E+02  0.41800000000E+01 0.  1.
         -5    1    3    3    0  502 -0.83647369214E+02  0.50611191758E+01  0.38033470464E+02  0.92122280580E+02  0.41800000000E+01 0.  1.
        -11    1    4    4    0    0  0.66909762840E+01  0.14713425926E+02  0.99146052494E+01  0.18961895036E+02  0.00000000000E+00 0.  1.
         11    1    4    4    0    0  0.10571627726E+03 -0.39212559376E+02 -0.73151601228E+02  0.13440503284E+03  0.00000000000E+00 0. -1.
</event>
<event>
 8    1  0.6760442E-009  0.1295847E+03  0.7561462E-02  0.1228073E+00
         -2   -1    0    0    0  501 -0.00000000000E+00  0.00000000000E+00  0.27584147159E+02  0.27584147159E+02  0.00000000000E+00 0.  1.
          2   -1    0    0  501    0  0.00000000000E+00 -0.00000000000E+00 -0.78172585953E+03  0.78172585953E+03  0.00000000000E+00 0. -1.
         25    2    1    2    0    0 -0.52196029099E+02 -0.82448033473E+02 -0.36754151080E+03  0.40032076122E+03  0.12509135074E+03 0.  0.
         23    2    1    2    0    0  0.52196029099E+02  0.82448033473E+02 -0.38660020158E+03  0.40898924547E+03  0.91051542388E+02 0.  0.
          5    1    3    3  502    0  0.27331065088E+02 -0.15851098996E+02 -0.20047888385E+02  0.37651489836E+02  0.41800000000E+01 0. -1.
         -5    1    3    3    0  502 -0.79527094187E+02 -0.66596934477E+02 -0.34749362241E+03  0.36266927139E+03  0.41800000000E+01 0. -1.
        -11    1    4    4    0    0  0.54142239817E+02  0.15235333801E+02 -0.25588227425E+03  0.26199090786E+03  0.00000000000E+00 0.  1.
         11    1    4    4    0    0 -0.19462107176E+01  0.67212699672E+02 -0.13071792733E+03  0.14699833761E+03  0.00000000000E+00 0. -1.
</event>
<event>
 8    1  0.6760442E-009  0.9731409E+02  0.7561462E-02  0.1286048E+00
          2   -1    0    0  501    0  0.00000000000E+00  0.00000000000E+00  0.26003304156E+03  0.26003304156E+03  0.00000000000E+00 0. -1.
         -2   -1    0    0    0  501 -0.00000000000E+00 -0.00000000000E+00 -0.70213377971E+02  0.70213377971E+02  0.00000000000E+00 0.  1.
         25    2    1    2    0    0  0.31618571348E+02  0.54734934429E+02  0.43829903436E+02  0.14685062307E+03  0.12509355682E+03 0.  0.
         23    2    1    2    0    0 -0.31618571348E+02 -0.54734934429E+02  0.14598976015E+03  0.18339579646E+03  0.91243416148E+02 0.  0.
          5    1    3    3  502    0  0.50829717211E+02  0.55413556486E+02 -0.21745565022E+02  0.78387909733E+02  0.41800000000E+01 0.  1.
         -5    1    3    3    0  502 -0.19211145864E+02 -0.67862205730E+00  0.65575468458E+02  0.68462713332E+02  0.41800000000E+01 0.  1.
        -11    1    4    4    0    0  0.26137530890E+01 -0.64100801632E+02  0.50883274704E+02  0.81883161393E+02  0.00000000000E+00 0.  1.
         11    1    4    4    0    0 -0.34232324437E+02  0.93658672040E+01  0.95106485444E+02  0.10151263507E+03  0.00000000000E+00 0. -1.
</event>
<event>
 8    1  0.6760442E-009  0.1535294E+03  0.7561462E-02  0.1196202E+00
          2   -1    0    0  501    0  0.00000000000E+00  0.00000000000E+00  0.50581835964E+03  0.50581835964E+03  0.00000000000E+00 0. -1.
         -2   -1    0    0    0  501 -0.00000000000E+00 -0.00000000000E+00 -0.59713387439E+02  0.59713387439E+02  0.00000000000E+00 0.  1.
         25    2    1    2    0    0 -0.93816615093E+02 -0.74852778680E+02  0.33884881519E+03  0.38061832094E+03  0.12508913196E+03 0.  0.
         23    2    1    2    0    0  0.93816615093E+02  0.74852778680E+02  0.10725615701E+03  0.18491342614E+03  0.91019757234E+02 0.  0.
          5    1    3    3  502    0 -0.98247614915E+02 -0.10236325718E+03  0.30614190564E+03  0.33744802421E+03  0.41800000000E+01 0. -1.
         -5    1    3    3    0  502  0.44309998215E+01  0.27510478503E+02  0.32706909549E+02  0.43170296723E+02  0.41800000000E+01 0. -1.
        -11    1    4    4    0    0  0.83240337112E+02  0.26374482923E+02  0.28541465706E+02  0.91865022378E+02  0.00000000000E+00 0.  1.
         11    1    4    4    0    0  0.10576277981E+02  0.48478295757E+02  0.78714691307E+02  0.93048403764E+02  0.00000000000E+00 0. -1.
</event>
<event>
 8    1  0.6760442E-009  0.2838648E+03  0.7561462E-02  0.1093597E+00
         -2   -1    0    0    0  501 -0.00000000000E+00  0.00000000000E+00  0.19271127696E+03  0.19271127696E+03  0.00000000000E+00 0.  1.
          2   -1    0    0  501    0  0.00000000000E+00 -0.00000000000E+00 -0.45801915917E+03  0.45801915917E+03  0.00000000000E+00 0. -1.
         25    2    1    2    0    0  0.11685889741E+03 -0.23803884949E+03 -0.22471409101E+03  0.36940780587E+03  0.12508880273E+03 0.  0.
         23    2    1    2    0    0 -0.11685889741E+03  0.23803884949E+03 -0.40593791210E+02  0.28132263026E+03  0.84711691301E+02 0.  0.
          5    1    3    3  502    0  0.22007580758E+02  0.99986756628E+01 -0.57514733580E+01  0.25196407911E+02  0.41800000000E+01 0.  1.
         -5    1    3    3    0  502  0.94851316655E+02 -0.24803752515E+03 -0.21896261765E+03  0.34421139795E+03  0.41800000000E+01 0.  1.
        -11    1    4    4    0    0 -0.10279155705E+03  0.11693195409E+03 -0.33115698968E+02  0.15917234561E+03  0.00000000000E+00 0. -1.
         11    1    4    4    0    0 -0.14067340362E+02  0.12110689540E+03 -0.74780922423E+01  0.12215028465E+03  0.00000000000E+00 0.  1.
</event>
<event>
 8    1  0.6760442E-009  0.1539613E+03  0.7561462E-02  0.1195688E+00
          1   -1    0    0  501    0  0.00000000000E+00  0.00000000000E+00  0.87655719788E+03  0.87655719788E+03  0.00000000000E+00 0. -1.
         -1   -1    0    0    0  501 -0.00000000000E+00 -0.00000000000E+00 -0.38100540295E+02  0.38100540295E+02  0.00000000000E+00 0.  1.
         25    2    1    2    0    0 -0.13965573496E+03 -0.43285287367E+02  0.44759042217E+03  0.48720014460E+03  0.12509777961E+03 0.  0.
         23    2    1    2    0    0  0.13965573496E+03  0.43285287367E+02  0.39086623541E+03  0.42745759357E+03  0.92553983774E+02 0.  0.
          5    1    3    3  502    0 -0.11078582226E+03 -0.17604435635E+02  0.43023219537E+03  0.44463538872E+03  0.41800000000E+01 0.  1.
         -5    1    3    3    0  502 -0.28869912706E+02 -0.25680851732E+02  0.17358226806E+02  0.42564755880E+02  0.41800000000E+01 0.  1.
        -11    1    4    4    0    0  0.61158498188E+02 -0.99438866574E+01  0.25052687948E+03  0.25807549307E+03  0.00000000000E+00 0.  1.
         11    1    4    4    0    0  0.78497236775E+02  0.53229174025E+02  0.14033935593E+03  0.16938210051E+03  0.00000000000E+00 0. -1.
</event>
<event>
 8    1  0.6760442E-009  0.1607801E+03  0.7561462E-02  0.1187819E+00
         -1   -1    0    0    0  501 -0.00000000000E+00  0.00000000000E+00  0.60394194367E+03  0.60394194367E+03  0.00000000000E+00 0.  1.
          1   -1    0    0  501    0  0.00000000000E+00 -0.00000000000E+00 -0.50344705397E+02  0.50344705397E+02  0.00000000000E+00 0. -1.
         25    2    1    2    0    0  0.25421022321E+02  0.13095872774E+03  0.36106666369E+03  0.40473855809E+03  0.12509095903E+03 0.  0.
         23    2    1    2    0    0 -0.25421022321E+02 -0.13095872774E+03  0.19253057459E+03  0.24954809098E+03  0.86080257982E+02 0.  0.
          5    1    3    3  502    0 -0.38301810868E+02  0.59435791934E+02  0.75592207666E+02  0.10359197043E+03  0.41800000000E+01 0. -1.
         -5    1    3    3    0  502  0.63722833189E+02  0.71522935806E+02  0.28547445602E+03  0.30114658766E+03  0.41800000000E+01 0. -1.
        -11    1    4    4    0    0 -0.42354448962E+02 -0.28625850333E+02  0.91154188250E+02  0.10451040470E+03  0.00000000000E+00 0.  1.
         11    1    4    4    0    0  0.16933426642E+02 -0.10233287741E+03  0.10137638634E+03  0.14503768629E+03  0.00000000000E+00 0. -1.
</event>
<event>
 8    1  0.6760442E-009  0.1465239E+03  0.7561462E-02  0.1204811E+00
          1   -1    0    0  501    0  0.00000000000E+00  0.00000000000E+00  0.10386892103E+03  0.10386892103E+03  0.00000000000E+00 0. -1.
         -1   -1    0    0    0  501 -0.00000000000E+00 -0.00000000000E+00 -0.23961549910E+03  0.23961549910E+03  0.00000000000E+00 0.  1.
         25    2    1    2    0    0 -0.11338352087E+03 -0.13296690643E+02 -0.77725653762E+02  0.18634032116E+03  0.12509521673E+03 0.  0.
         23    2    1    2    0    0  0.11338352087E+03  0.13296690643E+02 -0.58020924302E+02  0.15714409898E+03  0.91078073091E+02 0.  0.
          5    1    3    3  502    0 -0.37338030025E+02  0.40164808426E+02  0.12855659965E+02  0.56480799527E+02  0.41800000000E+01 0. -1.
         -5    1    3    3    0  502 -0.76045490849E+02 -0.53461499070E+02 -0.90581313727E+02  0.12985952163E+03  0.41800000000E+01 0. -1.
        -11    1    4    4    0    0  0.10226292735E+03  0.44758523149E+02 -0.36534411501E+02  0.11745550191E+03  0.00000000000E+00 0. -1.
         11    1    4    4    0    0  0.11120593527E+02 -0.31461832505E+02 -0.21486512801E+02  0.39688597069E+02  0.00000000000E+00 0.  1.
</event>
<event>
 8    1  0.6760442E-009  0.1046734E+03  0.7561462E-02  0.1270764E+00
          2   -1    0    0  501    0  0.00000000000E+00  0.00000000000E+00  0.27214738405E+03  0.27214738405E+03  0.00000000000E+00 0. -1.
         -2   -1    0    0    0  501 -0.00000000000E+00 -0.00000000000E+00 -0.73087798476E+02  0.73087798476E+02  0.00000000000E+00 0.  1.
         25    2    1    2    0    0 -0.33682395890E+02  0.45919706912E+02  0.22849112893E+02  0.13933966552E+03  0.12510130755E+03 0.  0.
         23    2    1    2    0    0  0.33682395890E+02 -0.45919706912E+02  0.17621047268E+03  0.20589551701E+03  0.89998388689E+02 0.  0.
          5    1    3    3  502    0 -0.62761049061E+02  0.27891631273E+02 -0.30949133759E+02  0.75446760399E+02  0.41800000000E+01 0.  1.
         -5    1    3    3    0  502  0.29078653170E+02  0.18028075639E+02  0.53798246652E+02  0.63892905117E+02  0.41800000000E+01 0.  1.
        -11    1    4    4    0    0 -0.58243223508E+01  0.24578290390E+02  0.50224954000E+02  0.56218867772E+02  0.00000000000E+00 0.  1.
         11    1    4    4    0    0  0.39506718241E+02 -0.70497997302E+02  0.12598551868E+03  0.14967664924E+03  0.00000000000E+00 0. -1.
</event>
<event>
 8    1  0.6760442E-009  0.1279774E+03  0.7561462E-02  0.1230488E+00
          1   -1    0    0  501    0  0.00000000000E+00  0.00000000000E+00  0.16391221629E+04  0.16391221629E+04  0.00000000000E+00 0. -1.
         -1   -1    0    0    0  501 -0.00000000000E+00 -0.00000000000E+00 -0.20957400735E+02  0.20957400735E+02  0.00000000000E+00 0.  1.
         25    2    1    2    0    0 -0.78383810554E+02 -0.13676930587E+02  0.14223002115E+04  0.14300052787E+04  0.12508447234E+03 0.  0.
         23    2    1    2    0    0  0.78383810554E+02  0.13676930587E+02  0.19586455069E+03  0.23007428499E+03  0.90775405298E+02 0.  0.
          5    1    3    3  502    0 -0.21381616024E+02  0.48161830794E+02  0.83836169991E+03  0.84002651608E+03  0.41800000000E+01 0. -1.
         -5    1    3    3    0  502 -0.57002194530E+02 -0.61838761381E+02  0.58393851160E+03  0.58997876260E+03  0.41800000000E+01 0. -1.
        -11    1    4    4    0    0  0.61876159169E+02 -0.32469348609E+02  0.94986238509E+02  0.11792074957E+03  0.00000000000E+00 0. -1.
         11    1    4    4    0    0  0.16507651385E+02  0.46146279197E+02  0.10087831219E+03  0.11215353542E+03  0.00000000000E+00 0.  1.
</event>
<event>
 8    1  0.6760442E-009  0.9307801E+02  0.7561462E-02  0.1295565E+00
         -1   -1    0    0    0  501 -0.00000000000E+00  0.00000000000E+00  0.12727924649E+03  0.12727924649E+03  0.00000000000E+00 0.  1.
          1   -1    0    0  501    0  0.00000000000E+00 -0.00000000000E+00 -0.16469571161E+03  0.16469571161E+03  0.00000000000E+00 0. -1.
         25    2    1    2    0    0 -0.43874631159E+02  0.56475575607E+02  0.43884636022E+02  0.15062466337E+03  0.12508978390E+03 0.  0.
         23    2    1    2    0    0  0.43874631159E+02 -0.56475575607E+02 -0.81301101138E+02  0.14135029474E+03  0.90860128089E+02 0.  0.
          5    1    3    3  502    0  0.13749845956E+00  0.40873892699E+02 -0.38195701804E+02  0.56098823931E+02  0.41800000000E+01 0.  1.
         -5    1    3    3    0  502 -0.44012129618E+02  0.15601682908E+02  0.82080337826E+02  0.94525839434E+02  0.41800000000E+01 0.  1.
        -11    1    4    4    0    0  0.48552881623E+02 -0.76674609403E+01 -0.78014261870E+02  0.92208444984E+02  0.00000000000E+00 0.  1.
         11    1    4    4    0    0 -0.46782504645E+01 -0.48808114667E+02 -0.32868392679E+01  0.49141849753E+02  0.00000000000E+00 0. -1.
</event>
<event>
 8    1  0.6760442E-009  0.8570360E+02  0.7561462E-02  0.1313603E+00
         -1   -1    0    0    0  501 -0.00000000000E+00  0.00000000000E+00  0.26126457334E+03  0.26126457334E+03  0.00000000000E+00 0.  1.
          1   -1    0    0  501    0  0.00000000000E+00 -0.00000000000E+00 -0.86914027372E+02  0.86914027372E+02  0.00000000000E+00 0. -1.
         25    2    1    2    0    0 -0.21171007327E+02 -0.31012047680E+02  0.20711116366E+03  0.24485355343E+03  0.12509304481E+03 0.  0.
         23    2    1    2    0    0  0.21171007327E+02  0.31012047680E+02 -0.32760617694E+02  0.10332504728E+03  0.90514356166E+02 0.  0.
          5    1    3    3  502    0 -0.13057364540E+02  0.22872570040E+02  0.18331685696E+03  0.18524630003E+03  0.41800000000E+01 0.  1.
         -5    1    3    3    0  502 -0.81136427867E+01 -0.53884617720E+02  0.23794306699E+02  0.59607253396E+02  0.41800000000E+01 0.  1.
        -11    1    4    4    0    0  0.31014770447E+02  0.55565378947E+02 -0.32851034840E+01  0.63719849562E+02  0.00000000000E+00 0. -1.
         11    1    4    4    0    0 -0.98437631197E+01 -0.24553331267E+02 -0.29475514210E+02  0.39605197722E+02  0.00000000000E+00 0.  1.
</event>
<event>
 8    1  0.6760442E-009  0.1326559E+03  0.7561462E-02  0.1223567E+00
          1   -1    0    0  501    0  0.00000000000E+00  0.00000000000E+00  0.10725603112E+04  0.10725603112E+04  0.00000000000E+00 0. -1.
         -1   -1    0    0    0  501 -0.00000000000E+00 -0.00000000000E+00 -0.19096057449E+02  0.19096057449E+02  0.00000000000E+00 0.  1.
         25    2    1    2    0    0 -0.55206090609E+02 -0.62095363139E+02  0.41881310086E+03  0.44492181528E+03  0.12508981452E+03 0.  0.
         23    2    1    2    0    0  0.55206090609E+02  0.62095363139E+02  0.63465115289E+03  0.64673455336E+03  0.92628020016E+02 0.  0.
          5    1    3    3  502    0  0.34573146238E+02 -0.29170693458E+02  0.71923405591E+02  0.85068680897E+02  0.41800000000E+01 0. -1.
         -5    1    3    3    0  502 -0.89779236847E+02 -0.32924669681E+02  0.34688969527E+03  0.35985313438E+03  0.41800000000E+01 0. -1.
        -11    1    4    4    0    0  0.79981838082E+02  0.34570992850E+02  0.46417581300E+03  0.47228321306E+03  0.00000000000E+00 0.  1.
         11    1    4    4    0    0 -0.24775747473E+02  0.27524370289E+02  0.17047533989E+03  0.17445134030E+03  0.00000000000E+00 0. -1.
</event>
<event>
 8    1  0.6760442E-009  0.1234442E+03  0.7561462E-02  0.1237521E+00
          1   -1    0    0  501    0  0.00000000000E+00  0.00000000000E+00  0.63547567163E+03  0.63547567163E+03  0.00000000000E+00 0. -1.
         -1   -1    0    0    0  501 -0.00000000000E+00 -0.00000000000E+00 -0.31377610453E+02  0.31377610453E+02  0.00000000000E+00 0.  1.
         25    2    1    2    0    0 -0.42977960826E+02 -0.50976585309E+02  0.47398368101E+03  0.49472615152E+03  0.12509083805E+03 0.  0.
         23    2    1    2    0    0  0.42977960826E+02  0.50976585309E+02  0.13011438017E+03  0.17212713057E+03  0.90842059556E+02 0.  0.
          5    1    3    3  502    0  0.41860219871E+02 -0.26586391937E+02  0.12069728057E+03  0.13055428059E+03  0.41800000000E+01 0.  1.
         -5    1    3    3    0  502 -0.84838180697E+02 -0.24390193372E+02  0.35328640045E+03  0.36417187093E+03  0.41800000000E+01 0.  1.
        -11    1    4    4    0    0  0.69483879153E+02  0.34999793916E+02  0.11166749479E+03  0.13609784873E+03  0.00000000000E+00 0.  1.
         11    1    4    4    0    0 -0.26505918327E+02  0.15976791393E+02  0.18446885379E+02  0.36029281838E+02  0.00000000000E+00 0. -1.
</event>
<event>
 8    1  0.6760442E-009  0.1170846E+03  0.7561462E-02  0.1247986E+00
         -2   -1    0    0    0  501 -0.00000000000E+00  0.00000000000E+00  0.67554233246E+02  0.67554233246E+02  0.00000000000E+00 0. -1.
          2   -1    0    0  501    0  0.00000000000E+00 -0.00000000000E+00 -0.38643545842E+03  0.38643545842E+03  0.00000000000E+00 0.  1.
         25    2    1    2    0    0 -0.24845852296E+02 -0.10035367462E+03 -0.26145964393E+03  0.30772899653E+03  0.12509122078E+03 0.  0.
         23    2    1    2    0    0  0.24845852296E+02  0.10035367462E+03 -0.57421581243E+02  0.14626069513E+03  0.86062631618E+02 0.  0.
          5    1    3    3  502    0 -0.48118940683E+02 -0.56085456986E+02 -0.24337700782E+03  0.25438327632E+03  0.41800000000E+01 0.  1.
         -5    1    3    3    0  502  0.23273088387E+02 -0.44268217639E+02 -0.18082636112E+02  0.53345720210E+02  0.41800000000E+01 0.  1.
        -11    1    4    4    0    0 -0.98539958611E+01  0.28844524145E+02  0.19065234939E+02  0.35952621474E+02  0.00000000000E+00 0. -1.
         11    1    4    4    0    0  0.34699848157E+02  0.71509150480E+02 -0.76486816182E+02  0.11030807366E+03  0.00000000000E+00 0.  1.
</event>
<event>
 8    1  0.6760442E-009  0.7723103E+02  0.7561462E-02  0.1337098E+00
          3   -1    0    0  501    0  0.00000000000E+00  0.00000000000E+00  0.34603614056E+02  0.34603614056E+02  0.00000000000E+00 0. -1.
         -3   -1    0    0    0  501 -0.00000000000E+00 -0.00000000000E+00 -0.43451498018E+03  0.43451498018E+03  0.00000000000E+00 0.  1.
         25    2    1    2    0    0 -0.25954592252E+02 -0.51008528945E+02 -0.21836596664E+03  0.25807389733E+03  0.12507170028E+03 0.  0.
         23    2    1    2    0    0  0.25954592252E+02  0.51008528945E+02 -0.18154539948E+03  0.21104469691E+03  0.91135180561E+02 0.  0.
          5    1    3    3  502    0 -0.13751592435E+02 -0.20847095280E+02 -0.22344841956E+03  0.22487858120E+03  0.41800000000E+01 0. -1.
         -5    1    3    3    0  502 -0.12202999816E+02 -0.30161433665E+02  0.50824529215E+01  0.33195316130E+02  0.41800000000E+01 0. -1.
        -11    1    4    4    0    0  0.47501141088E+02  0.56781211397E+02 -0.17106959079E+03  0.18640082958E+03  0.00000000000E+00 0.  1.
         11    1    4    4    0    0 -0.21546548836E+02 -0.57726824522E+01 -0.10475808690E+02  0.24643867333E+02  0.00000000000E+00 0. -1.
</event>
<event>
 8    1  0.6760442E-009  0.1060603E+03  0.7561462E-02  0.1268044E+00
         -2   -1    0    0    0  501 -0.00000000000E+00  0.00000000000E+00  0.47695797459E+02  0.47695797459E+02  0.00000000000E+00 0. -1.
          2   -1    0    0  501    0  0.00000000000E+00 -0.00000000000E+00 -0.29340016145E+03  0.29340016145E+03  0.00000000000E+00 0.  1.
         25    2    1    2    0    0  0.23993980258E+02 -0.41292990530E+01 -0.19587906896E+03  0.23368473649E+03  0.12508870537E+03 0.  0.
         23    2    1    2    0    0 -0.23993980258E+02  0.41292990530E+01 -0.49825295033E+02  0.10741122242E+03  0.91988306203E+02 0.  0.
          5    1    3    3  502    0  0.67734338970E+02  0.22353012462E+02 -0.81864322866E+02  0.10865927296E+03  0.41800000000E+01 0.  1.
         -5    1    3    3    0  502 -0.43740358712E+02 -0.26482311515E+02 -0.11401474610E+03  0.12502546353E+03  0.41800000000E+01 0.  1.
        -11    1    4    4    0    0  0.16190281138E+02 -0.31658095401E+02 -0.23225287445E+01  0.35633612608E+02  0.00000000000E+00 0.  1.
         11    1    4    4    0    0 -0.40184261396E+02  0.35787394454E+02 -0.47502766288E+02  0.71777609815E+02  0.00000000000E+00 0. -1.
</event>
<event>
 8    1  0.6760442E-009  0.1081521E+03  0.7561462E-02  0.1264031E+00
          2   -1    0    0  501    0  0.00000000000E+00  0.00000000000E+00  0.82433504492E+02  0.82433504492E+02  0.00000000000E+00 0. -1.
         -2   -1    0    0    0  501 -0.00000000000E+00 -0.00000000000E+00 -0.17473551947E+03  0.17473551947E+03  0.00000000000E+00 0.  1.
         25    2    1    2    0    0 -0.17818171812E+01  0.32787129420E+01 -0.44042633418E+01  0.12522386208E+03  0.12509074014E+03 0.  0.
         23    2    1    2    0    0  0.17818171812E+01 -0.32787129420E+01 -0.87897751636E+02  0.13194516188E+03  0.98334053970E+02 0.  0.
          5    1    3    3  502    0 -0.26642068119E+02 -0.51929960905E+02 -0.21222956298E+02  0.62244733972E+02  0.41800000000E+01 0. -1.
         -5    1    3    3    0  502  0.24860250938E+02  0.55208673847E+02  0.16818692956E+02  0.62979128109E+02  0.41800000000E+01 0. -1.
        -11    1    4    4    0    0  0.27695810713E+02  0.38805151821E+02 -0.32462168862E+02  0.57677466537E+02  0.00000000000E+00 0. -1.
         11    1    4    4    0    0 -0.25913993532E+02 -0.42083864763E+02 -0.55435582774E+02  0.74267695344E+02  0.00000000000E+00 0.  1.
</event>
<event>
 8    1  0.6760442E-009  0.3215927E+03  0.7561462E-02  0.1074919E+00
         -1   -1    0    0    0  501 -0.00000000000E+00  0.00000000000E+00  0.70039683180E+03  0.70039683180E+03  0.00000000000E+00 0.  1.
          1   -1    0    0  501    0  0.00000000000E+00 -0.00000000000E+00 -0.40352571068E+03  0.40352571068E+03  0.00000000000E+00 0. -1.
         25    2    1    2    0    0  0.31280329392E+03 -0.24757202633E+02  0.58032217058E+03  0.67147555832E+03  0.12508710562E+03 0.  0.
         23    2    1    2    0    0 -0.31280329392E+03  0.24757202633E+02 -0.28345104946E+03  0.43244698415E+03  0.90592918563E+02 0.  0.
          5    1    3    3  502    0  0.22405454517E+03  0.19752429679E+02  0.30663772913E+03  0.38030877851E+03  0.41800000000E+01 0. -1.
         -5    1    3    3    0  502  0.88748748752E+02 -0.44509632312E+02  0.27368444145E+03  0.29116677981E+03  0.41800000000E+01 0. -1.
        -11    1    4    4    0    0 -0.16034971556E+03  0.41072456793E+02 -0.19367756428E+03  0.25477436467E+03  0.00000000000E+00 0.  1.
         11    1    4    4    0    0 -0.15245357836E+03 -0.16315254159E+02 -0.89773485184E+02  0.17767261949E+03  0.00000000000E+00 0. -1.
</event>
<event>
 8    1  0.6760442E-009  0.1483259E+03  0.7561462E-02  0.1202545E+00
          1   -1    0    0  501    0  0.00000000000E+00  0.00000000000E+00  0.86108302239E+02  0.86108302239E+02  0.00000000000E+00 0. -1.
         -1   -1    0    0    0  501 -0.00000000000E+00 -0.00000000000E+00 -0.30390768219E+03  0.30390768219E+03  0.00000000000E+00 0.  1.
         25    2    1    2    0    0 -0.17906276808E+02  0.11436351457E+03 -0.14912133574E+03  0.22644801912E+03  0.12506751927E+03 0.  0.
         23    2    1    2    0    0  0.17906276808E+02 -0.11436351457E+03 -0.68678044211E+02  0.16356796531E+03  0.92941687659E+02 0.  0.
          5    1    3    3  502    0 -0.55878763443E+02  0.71603914180E+02 -0.32614437578E+02  0.96595707297E+02  0.41800000000E+01 0.  1.
         -5    1    3    3    0  502  0.37972486635E+02  0.42759600388E+02 -0.11650689816E+03  0.12985231182E+03  0.41800000000E+01 0.  1.
        -11    1    4    4    0    0  0.53463174811E+02 -0.42819672707E+02 -0.34058070347E+02  0.76496977636E+02  0.00000000000E+00 0.  1.
         11    1    4    4    0    0 -0.35556898004E+02 -0.71543841861E+02 -0.34619973864E+02  0.87070987672E+02  0.00000000000E+00 0. -1.
</event>
<event>
 8    1  0.6760442E-009  0.1627297E+03  0.7561462E-02  0.1185649E+00
         -3   -1    0    0    0  501 -0.00000000000E+00  0.00000000000E+00  0.45718135551E+03  0.45718135551E+03  0.00000000000E+00 0.  1.
          3   -1    0    0  501    0  0.00000000000E+00 -0.00000000000E+00 -0.75418994797E+02  0.75418994797E+02  0.00000000000E+00 0. -1.
         25    2    1    2    0    0  0.11010810336E+03  0.63006602048E+02  0.85810690815E+02  0.19775494988E+03  0.12509963716E+03 0.  0.
         23    2    1    2    0    0 -0.11010810336E+03 -0.63006602048E+02  0.29595166989E+03  0.33484540042E+03  0.91871785347E+02 0.  0.
          5    1    3    3  502    0 -0.15433574551E+02  0.48968226760E+02  0.29756226360E+02  0.59489392858E+02  0.41800000000E+01 0. -1.
         -5    1    3    3    0  502  0.12554167791E+03  0.14038375288E+02  0.56054464455E+02  0.13826555702E+03  0.41800000000E+01 0. -1.
        -11    1    4    4    0    0 -0.18130570225E+02 -0.51817488388E+02  0.16889149022E+03  0.17758971014E+03  0.00000000000E+00 0.  1.
         11    1    4    4    0    0 -0.91977533138E+02 -0.11189113660E+02  0.12706017967E+03  0.15725569028E+03  0.00000000000E+00 0. -1.
</event>
<event>
 8    1  0.6760442E-009  0.1215031E+03  0.7561462E-02  0.1240638E+00
          2   -1    0    0  501    0  0.00000000000E+00  0.00000000000E+00  0.24419578115E+03  0.24419578115E+03  0.00000000000E+00 0. -1.
         -2   -1    0    0    0  501 -0.00000000000E+00 -0.00000000000E+00 -0.10291908361E+03  0.10291908361E+03  0.00000000000E+00 0.  1.
         25    2    1    2    0    0 -0.10065348188E+02 -0.94358317476E+02  0.14627184887E+03  0.21458844338E+03  0.12509173814E+03 0.  0.
         23    2    1    2    0    0  0.10065348188E+02  0.94358317476E+02 -0.49951513334E+01  0.13252642137E+03  0.92376931718E+02 0.  0.
          5    1    3    3  502    0 -0.33756888579E+02 -0.56273545066E+02  0.45867578437E+01  0.65914718753E+02  0.41800000000E+01 0. -1.
         -5    1    3    3    0  502  0.23691540391E+02 -0.38084772410E+02  0.14168509103E+03  0.14867372463E+03  0.41800000000E+01 0. -1.
        -11    1    4    4    0    0  0.10517584594E+02 -0.17461128814E+02 -0.35865019845E+01  0.20697188255E+02  0.00000000000E+00 0.  1.
         11    1    4    4    0    0 -0.45223640606E+00  0.11181944629E+03 -0.14086493489E+01  0.11182923312E+03  0.00000000000E+00 0. -1.
</event>
<event>
 8    1  0.6760442E-009  0.2900739E+03  0.7561462E-02  0.1090311E+00
         -2   -1    0    0    0  501 -0.00000000000E+00  0.00000000000E+00  0.17406674219E+03  0.17406674219E+03  0.00000000000E+00 0.  1.
          2   -1    0    0  501    0  0.00000000000E+00 -0.00000000000E+00 -0.51036784048E+03  0.51036784048E+03  0.00000000000E+00 0. -1.
         25    2    1    2    0    0  0.27003017916E+03 -0.18560469436E+02 -0.10263190510E+03  0.31534422585E+03  0.12509150313E+03 0.  0.
         23    2    1    2    0    0 -0.27003017916E+03  0.18560469436E+02 -0.23366919320E+03  0.36909035681E+03  0.91463713898E+02 0.  0.
          5    1    3    3  502    0  0.28192641728E+03 -0.14950889750E+02 -0.10633968840E+03  0.30171449350E+03  0.41800000000E+01 0. -1.
         -5    1    3    3    0  502 -0.11896238119E+02 -0.36095796858E+01  0.37077833010E+01  0.13629732349E+02  0.41800000000E+01 0. -1.
        -11    1    4    4    0    0 -0.19029432917E+03 -0.28000948680E+02 -0.14295600972E+03  0.23965059057E+03  0.00000000000E+00 0. -1.
         11    1    4    4    0    0 -0.79735849982E+02  0.46561418115E+02 -0.90713183475E+02  0.12943976624E+03  0.00000000000E+00 0.  1.
</event>
<event>
 8    1  0.6760442E-009  0.9536758E+02  0.7561462E-02  0.1290350E+00
         -1   -1    0    0    0  501 -0.00000000000E+00  0.00000000000E+00  0.21532371150E+03  0.21532371150E+03  0.00000000000E+00 0.  1.
          1   -1    0    0  501    0  0.00000000000E+00 -0.00000000000E+00 -0.93542427353E+02  0.93542427353E+02  0.00000000000E+00 0. -1.
         25    2    1    2    0    0  0.84187473451E+02  0.35199948510E+02  0.69990488793E+02  0.16992083251E+03  0.12509138155E+03 0.  0.
         23    2    1    2    0    0 -0.84187473451E+02 -0.35199948510E+02  0.51790795350E+02  0.13894530634E+03  0.91087565616E+02 0.  0.
          5    1    3    3  502    0  0.42369888553E+01  0.54399693644E+01 -0.34233195020E+02  0.35170006860E+02  0.41800000000E+01 0. -1.
         -5    1    3    3    0  502  0.79950484596E+02  0.29759979145E+02  0.10422368381E+03  0.13475082565E+03  0.41800000000E+01 0. -1.
        -11    1    4    4    0    0 -0.32282091540E+02 -0.31688191018E+02  0.70410670303E+02  0.83689529672E+02  0.00000000000E+00 0.  1.
         11    1    4    4    0    0 -0.51905381911E+02 -0.35117574919E+01 -0.18619874953E+02  0.55255776668E+02  0.00000000000E+00 0. -1.
</event>
<event>
 8    1  0.6760442E-009  0.9820090E+02  0.7561462E-02  0.1284125E+00
         -3   -1    0    0    0  501 -0.00000000000E+00  0.00000000000E+00  0.15857061268E+02  0.15857061268E+02  0.00000000000E+00 0.  1.
          3   -1    0    0  501    0  0.00000000000E+00 -0.00000000000E+00 -0.16062410097E+04  0.16062410097E+04  0.00000000000E+00 0. -1.
         25    2    1    2    0    0  0.33435577664E+02  0.59479908784E+02 -0.13330724908E+04  0.13406660367E+04  0.12508940401E+03 0.  0.
         23    2    1    2    0    0 -0.33435577664E+02 -0.59479908784E+02 -0.25731145769E+03  0.28143203427E+03  0.91318159472E+02 0.  0.
          5    1    3    3  502    0 -0.39667036761E+02  0.20621321214E+02 -0.79287492821E+03  0.79414534997E+03  0.41800000000E+01 0.  1.
         -5    1    3    3    0  502  0.73102614425E+02  0.38858587571E+02 -0.54019756255E+03  0.54652068675E+03  0.41800000000E+01 0.  1.
        -11    1    4    4    0    0 -0.66255983111E+01 -0.18348291116E+02 -0.30186454730E-01  0.19507927903E+02  0.00000000000E+00 0.  1.
         11    1    4    4    0    0 -0.26809979353E+02 -0.41131617669E+02 -0.25728127124E+03  0.26192410637E+03  0.00000000000E+00 0. -1.
</event>
<event>
 8    1  0.6760442E-009  0.1322609E+03  0.7561462E-02  0.1224139E+00
         -1   -1    0    0    0  501 -0.00000000000E+00  0.00000000000E+00  0.94758994612E+02  0.94758994612E+02  0.00000000000E+00 0.  1.
          1   -1    0    0  501    0  0.00000000000E+00 -0.00000000000E+00 -0.21745083960E+03  0.21745083960E+03  0.00000000000E+00 0. -1.
         25    2    1    2    0    0 -0.72889413056E+02  0.59142542984E+02 -0.57881775343E+02  0.16675956505E+03  0.12509094969E+03 0.  0.
         23    2    1    2    0    0  0.72889413056E+02 -0.59142542984E+02 -0.64810069639E+02  0.14545026915E+03  0.90248150918E+02 0.  0.
          5    1    3    3  502    0 -0.55998885299E+02 -0.23580294844E+02  0.54297464853E+01  0.61146218252E+02  0.41800000000E+01 0. -1.
         -5    1    3    3    0  502 -0.16890527757E+02  0.82722837828E+02 -0.63311521829E+02  0.10561334680E+03  0.41800000000E+01 0. -1.
        -11    1    4    4    0    0  0.94656027661E+01  0.17321861400E+02  0.89928795818E+01  0.21691390026E+02  0.00000000000E+00 0.  1.
         11    1    4    4    0    0  0.63423810290E+02 -0.76464404384E+02 -0.73802949221E+02  0.12375887913E+03  0.00000000000E+00 0. -1.
</event>
<event>
 8    1  0.6760442E-009  0.1274707E+03  0.7561462E-02  0.1231258E+00
          1   -1    0    0  501    0  0.00000000000E+00  0.00000000000E+00  0.83441037377E+02  0.83441037377E+02  0.00000000000E+00 0. -1.
         -1   -1    0    0    0  501 -0.00000000000E+00 -0.00000000000E+00 -0.25787554124E+03  0.25787554124E+03  0.00000000000E+00 0.  1.
         25    2    1    2    0    0 -0.35556058454E+02 -0.90302912367E+02 -0.12345684611E+03  0.20076771019E+03  0.12508889371E+03 0.  0.
         23    2    1    2    0    0  0.35556058454E+02  0.90302912367E+02 -0.50977657760E+02  0.14054886843E+03  0.87956884613E+02 0.  0.
          5    1    3    3  502    0  0.77398996232E+01 -0.87925422480E+02 -0.23054535421E+02  0.91322341012E+02  0.41800000000E+01 0. -1.
         -5    1    3    3    0  502 -0.43295958077E+02 -0.23774898871E+01 -0.10040231069E+03  0.10944536918E+03  0.41800000000E+01 0. -1.
        -11    1    4    4    0    0  0.94764515182E+01  0.95878628800E+02 -0.58656109343E+02  0.11279651483E+03  0.00000000000E+00 0.  1.
         11    1    4    4    0    0  0.26079606936E+02 -0.55757164325E+01  0.76784515834E+01  0.27752353601E+02  0.00000000000E+00 0. -1.
</event>
<event>
 8    1  0.6760442E-009  0.7082182E+02  0.7561462E-02  0.1357320E+00
         -4   -1    0    0    0  501 -0.00000000000E+00  0.00000000000E+00  0.47257333307E+03  0.47257333307E+03  0.00000000000E+00 0.  1.
          4   -1    0    0  501    0  0.00000000000E+00 -0.00000000000E+00 -0.28992913872E+02  0.28992913872E+02  0.00000000000E+00 0. -1.
         25    2    1    2    0    0  0.14425191193E+02 -0.37979373462E+02  0.20408947987E+03  0.24279802244E+03  0.12509134645E+03 0.  0.
         23    2    1    2    0    0 -0.14425191193E+02  0.37979373462E+02  0.23949093933E+03  0.25876822451E+03  0.89188368314E+02 0.  0.
          5    1    3    3  502    0 -0.44813904410E+01 -0.22375692294E+02  0.21456378548E+03  0.21581437604E+03  0.41800000000E+01 0.  1.
         -5    1    3    3    0  502  0.18906581634E+02 -0.15603681168E+02 -0.10474305609E+02  0.26983646401E+02  0.41800000000E+01 0.  1.
        -11    1    4    4    0    0  0.13634028645E+02 -0.22837926703E+02  0.10767935205E+03  0.11091573600E+03  0.00000000000E+00 0.  1.
         11    1    4    4    0    0 -0.28059219839E+02  0.60817300166E+02  0.13181158728E+03  0.14785248851E+03  0.00000000000E+00 0. -1.
</event>
<event>
 8    1  0.6760442E-009  0.1917426E+03  0.7561462E-02  0.1156899E+00
         -1   -1    0    0    0  501 -0.00000000000E+00  0.00000000000E+00  0.32853214463E+03  0.32853214463E+03  0.00000000000E+00 0.  1.
          1   -1    0    0  501    0  0.00000000000E+00 -0.00000000000E+00 -0.15590817249E+03  0.15590817249E+03  0.00000000000E+00 0. -1.
         25    2    1    2    0    0  0.18719409741E+03 -0.47577838477E+01  0.19043689321E+02  0.22599811851E+03  0.12509284893E+03 0.  0.
         23    2    1    2    0    0 -0.18719409741E+03  0.47577838477E+01  0.15358028282E+03  0.25844219861E+03  0.90228599344E+02 0.  0.
          5    1    3    3  502    0  0.82833459273E+01 -0.14265373441E+02 -0.34913248846E+02  0.38839696756E+02  0.41800000000E+01 0. -1.
         -5    1    3    3    0  502  0.17891075148E+03  0.95075895929E+01  0.53956938167E+02  0.18715842175E+03  0.41800000000E+01 0. -1.
        -11    1    4    4    0    0 -0.13547017414E+03  0.37776294338E+01  0.15600841672E+03  0.20665203762E+03  0.00000000000E+00 0.  1.
         11    1    4    4    0    0 -0.51723923277E+02  0.98015441392E+00 -0.24281338965E+01  0.51790160997E+02  0.00000000000E+00 0. -1.
</event>
<event>
 8    1  0.6760442E-009  0.1193630E+03  0.7561462E-02  0.1244152E+00
         -1   -1    0    0    0  501 -0.00000000000E+00  0.00000000000E+00  0.10488606567E+03  0.10488606567E+03  0.00000000000E+00 0.  1.
          1   -1    0    0  501    0  0.00000000000E+00 -0.00000000000E+00 -0.18990252437E+03  0.18990252437E+03  0.00000000000E+00 0. -1.
         25    2    1    2    0    0 -0.78562624976E+02 -0.26345879718E+02 -0.83942492001E+02  0.17189649272E+03  0.12504347574E+03 0.  0.
         23    2    1    2    0    0  0.78562624976E+02  0.26345879718E+02 -0.10739666955E+01  0.12289209731E+03  0.90747577135E+02 0.  0.
          5    1    3    3  502    0  0.13039967469E+02  0.30467709273E+02 -0.47431856993E+02  0.58013580460E+02  0.41800000000E+01 0.  1.
         -5    1    3    3    0  502 -0.91602592445E+02 -0.56813588991E+02 -0.36510635008E+02  0.11388291226E+03  0.41800000000E+01 0.  1.
        -11    1    4    4    0    0  0.18916121921E+02 -0.15610701378E+02 -0.34777235679E+02  0.42555490686E+02  0.00000000000E+00 0. -1.
         11    1    4    4    0    0  0.59646503055E+02  0.41956581096E+02  0.33703268983E+02  0.80336606626E+02  0.00000000000E+00 0.  1.
</event>
<event>
 8    1  0.6760442E-009  0.1352331E+03  0.7561462E-02  0.1219891E+00
         -2   -1    0    0    0  501 -0.00000000000E+00  0.00000000000E+00  0.45462920405E+02  0.45462920405E+02  0.00000000000E+00 0.  1.
          2   -1    0    0  501    0  0.00000000000E+00 -0.00000000000E+00 -0.63241338402E+03  0.63241338402E+03  0.00000000000E+00 0. -1.
         25    2    1    2    0    0  0.98526673051E+02 -0.27195306546E+02 -0.15110376799E+03  0.22119278033E+03  0.12508719906E+03 0.  0.
         23    2    1    2    0    0 -0.98526673051E+02  0.27195306546E+02 -0.43584669562E+03  0.45668352409E+03  0.90279616159E+02 0.  0.
          5    1    3    3  502    0  0.11048392595E+03  0.57701223708E+01 -0.14924767670E+03  0.18582877497E+03  0.41800000000E+01 0. -1.
         -5    1    3    3    0  502 -0.11957252900E+02 -0.32965428917E+02 -0.18560912971E+01  0.35364005365E+02  0.41800000000E+01 0. -1.
        -11    1    4    4    0    0 -0.88329013555E+02  0.48535822189E+02 -0.40743551027E+03  0.41971589880E+03  0.00000000000E+00 0. -1.
         11    1    4    4    0    0 -0.10197659497E+02 -0.21340515643E+02 -0.28411185343E+02  0.36967625292E+02  0.00000000000E+00 0.  1.
</event>
<event>
 8    1  0.6760442E-009  0.1121439E+03  0.7561462E-02  0.1256650E+00
          1   -1    0    0  501    0  0.00000000000E+00  0.00000000000E+00  0.87405343135E+03  0.87405343135E+03  0.00000000000E+00 0. -1.
         -1   -1    0    0    0  501 -0.00000000000E+00 -0.00000000000E+00 -0.18363019577E+02  0.18363019577E+02  0.00000000000E+00 0.  1.
         25    2    1    2    0    0  0.26372081093E+02  0.59878556948E+02  0.47305293626E+03  0.49366885709E+03  0.12509569024E+03 0.  0.
         23    2    1    2    0    0 -0.26372081093E+02 -0.59878556948E+02  0.38263747552E+03  0.39874759384E+03  0.91144268489E+02 0.  0.
          5    1    3    3  502    0 -0.33209453959E+02 -0.46599597996E+01  0.27375891253E+03  0.27583690407E+03  0.41800000000E+01 0.  1.
         -5    1    3    3    0  502  0.59581535053E+02  0.64538516747E+02  0.19929402373E+03  0.21783195302E+03  0.41800000000E+01 0.  1.
        -11    1    4    4    0    0  0.76424221852E+01 -0.67308934307E+02  0.31992862078E+03  0.32702174492E+03  0.00000000000E+00 0.  1.
         11    1    4    4    0    0 -0.34014503279E+02  0.74303773592E+01  0.62708854734E+02  0.71725848918E+02  0.00000000000E+00 0. -1.
</event>
<event>
 8    1  0.6760442E-009  0.1416836E+03  0.7561462E-02  0.1211081E+00
          1   -1    0    0  501    0  0.00000000000E+00  0.00000000000E+00  0.55179438084E+03  0.55179438084E+03  0.00000000000E+00 0. -1.
         -1   -1    0    0    0  501 -0.00000000000E+00 -0.00000000000E+00 -0.50903969939E+02  0.50903969939E+02  0.00000000000E+00 0.  1.
         25    2    1    2    0    0  0.12382984706E+03 -0.25555797851E+02  0.28357371406E+03  0.33473428996E+03  0.12508422660E+03 0.  0.
         23    2    1    2    0    0 -0.12382984706E+03  0.25555797851E+02  0.21731669684E+03  0.26796406082E+03  0.92689057261E+02 0.  0.
          5    1    3    3  502    0  0.12702545263E+03 -0.46499150291E+02  0.16123215702E+03  0.21050158539E+03  0.41800000000E+01 0. -1.
         -5    1    3    3    0  502 -0.31956055744E+01  0.20943352440E+02  0.12234155704E+03  0.12423270457E+03  0.41800000000E+01 0. -1.
        -11    1    4    4    0    0 -0.11082318880E+03  0.22939910448E+02  0.22554948416E+03  0.25235013072E+03  0.00000000000E+00 0. -1.
         11    1    4    4    0    0 -0.13006658264E+02  0.26158874034E+01 -0.82327873205E+01  0.15613930100E+02  0.00000000000E+00 0.  1.
</event>
<event>
 7    1  0.6760442E-009  0.7150012E+02  0.7561462E-02  0.1355065E+00
          2   -1    0    0  501    0  0.00000000000E+00  0.00000000000E+00  0.11249419946E+04  0.11249419946E+04  0.00000000000E+00 0.  1.
         -2   -1    0    0    0  501 -0.00000000000E+00 -0.00000000000E+00 -0.85637693923E+01  0.85637693923E+01  0.00000000000E+00 0. -1.
         25    2    1    2    0    0 -0.18983442681E+02 -0.34073980825E+02  0.10282984087E+04  0.10366126709E+04  0.12508718954E+03 0.  0.
          5    1    3    3  502    0  0.73317247701E+01 -0.63058367009E+02  0.27406791951E+03  0.28135530694E+03  0.41800000000E+01 0.  1.
         -5    1    3    3    0  502 -0.26315167451E+02  0.28984386184E+02  0.75423048915E+03  0.75525736398E+03  0.41800000000E+01 0.  1.
        -11    1    1    2    0    0  0.15772560961E+01  0.10965322744E+02  0.30590456697E+02  0.32534628945E+02  0.00000000000E+00 0. -1.
         11    1    1    2    0    0  0.17406186585E+02  0.23108658081E+02  0.57489359894E+02  0.64358464174E+02  0.00000000000E+00 0.  1.
</event>
<event>
 8    1  0.6760442E-009  0.1607833E+03  0.7561462E-02  0.1187815E+00
         -1   -1    0    0    0  501 -0.00000000000E+00  0.00000000000E+00  0.41839757444E+03  0.41839757444E+03  0.00000000000E+00 0.  1.
          1   -1    0    0  501    0  0.00000000000E+00 -0.00000000000E+00 -0.80930084780E+02  0.80930084780E+02  0.00000000000E+00 0. -1.
         25    2    1    2    0    0  0.12688175585E+02  0.13575442671E+03  0.25173998403E+03  0.31242818931E+03  0.12509236485E+03 0.  0.
         23    2    1    2    0    0 -0.12688175585E+02 -0.13575442671E+03  0.85727505633E+02  0.18689946991E+03  0.94825906061E+02 0.  0.
          5    1    3    3  502    0 -0.45894752956E+02  0.14852858830E+02  0.89360074933E+02  0.10163479304E+03  0.41800000000E+01 0. -1.
         -5    1    3    3    0  502  0.58582928541E+02  0.12090156788E+03  0.16237990910E+03  0.21079339627E+03  0.41800000000E+01 0. -1.
        -11    1    4    4    0    0  0.56995622240E+01 -0.76059227912E+02 -0.53508336198E+01  0.76459941018E+02  0.00000000000E+00 0. -1.
         11    1    4    4    0    0 -0.18387737809E+02 -0.59695198799E+02  0.91078339253E+02  0.11043952889E+03  0.00000000000E+00 0.  1.
</event>
<event>
 8    1  0.6760442E-009  0.1538559E+03  0.7561462E-02  0.1195813E+00
          1   -1    0    0  501    0  0.00000000000E+00  0.00000000000E+00  0.32517711119E+03  0.32517711119E+03  0.00000000000E+00 0. -1.
         -1   -1    0    0    0  501 -0.00000000000E+00 -0.00000000000E+00 -0.11504205287E+03  0.11504205287E+03  0.00000000000E+00 0.  1.
         25    2    1    2    0    0 -0.36416615621E+02  0.14590459089E+03  0.49022704061E+02  0.20165867359E+03  0.12509466649E+03 0.  0.
         23    2    1    2    0    0  0.36416615621E+02 -0.14590459089E+03  0.16111235426E+03  0.23856049047E+03  0.91321396092E+02 0.  0.
          5    1    3    3  502    0 -0.18219253182E+02  0.12641641192E+03  0.87343078754E+02  0.15478803634E+03  0.41800000000E+01 0. -1.
         -5    1    3    3    0  502 -0.18197362439E+02  0.19488178976E+02 -0.38320374694E+02  0.46870637250E+02  0.41800000000E+01 0. -1.
        -11    1    4    4    0    0  0.21789356871E+02 -0.12785993621E+03  0.16987868019E+03  0.21373278958E+03  0.00000000000E+00 0. -1.
         11    1    4    4    0    0  0.14627258751E+02 -0.18044654683E+02 -0.87663259317E+01  0.24827700891E+02  0.00000000000E+00 0.  1.
</event>
<event>
 8    1  0.6760442E-009  0.1265804E+03  0.7561462E-02  0.1232620E+00
         -1   -1    0    0    0  501 -0.00000000000E+00  0.00000000000E+00  0.13564972965E+03  0.13564972965E+03  0.00000000000E+00 0.  1.
          1   -1    0    0  501    0  0.00000000000E+00 -0.00000000000E+00 -0.14266662865E+03  0.14266662865E+03  0.00000000000E+00 0. -1.
         25    2    1    2    0    0  0.74814390810E+02 -0.10358723385E+02 -0.48417764666E+02  0.15393628660E+03  0.12509038402E+03 0.  0.
         23    2    1    2    0    0 -0.74814390810E+02  0.10358723385E+02  0.41400865673E+02  0.12438007171E+03  0.89732236886E+02 0.  0.
          5    1    3    3  502    0  0.62488043002E+02  0.46809364301E+02 -0.54025957356E+02  0.95037616620E+02  0.41800000000E+01 0.  1.
         -5    1    3    3    0  502  0.12326347808E+02 -0.57168087686E+02  0.56081926901E+01  0.58898669978E+02  0.41800000000E+01 0.  1.
        -11    1    4    4    0    0 -0.91399508500E+02  0.24411822860E+02  0.39633227309E+02  0.10256997590E+03  0.00000000000E+00 0.  1.
         11    1    4    4    0    0  0.16585117689E+02 -0.14053099475E+02  0.17676383637E+01  0.21810095805E+02  0.00000000000E+00 0. -1.
</event>
<event>
 8    1  0.6760442E-009  0.9913043E+02  0.7561462E-02  0.1282135E+00
         -4   -1    0    0    0  501 -0.00000000000E+00  0.00000000000E+00  0.41980916181E+02  0.41980916181E+02  0.00000000000E+00 0.  1.
          4   -1    0    0  501    0  0.00000000000E+00 -0.00000000000E+00 -0.35797462668E+03  0.35797462668E+03  0.00000000000E+00 0. -1.
         25    2    1    2    0    0 -0.58975795601E+01  0.22325319676E+02 -0.25687057660E+03  0.28664218681E+03  0.12509216119E+03 0.  0.
         23    2    1    2    0    0  0.58975795601E+01 -0.22325319676E+02 -0.59123133891E+02  0.11331335605E+03  0.93867834503E+02 0.  0.
          5    1    3    3  502    0 -0.56894627642E+02  0.17775927907E+02 -0.20543156929E+03  0.21394528349E+03  0.41800000000E+01 0. -1.
         -5    1    3    3    0  502  0.50997048081E+02  0.45493917689E+01 -0.51439007313E+02  0.72696903317E+02  0.41800000000E+01 0. -1.
        -11    1    4    4    0    0 -0.36306753558E+02 -0.26174643910E+02 -0.56963403028E+01  0.45119182513E+02  0.00000000000E+00 0.  1.
         11    1    4    4    0    0  0.42204333118E+02  0.38493242343E+01 -0.53426793588E+02  0.68194173535E+02  0.00000000000E+00 0. -1.
</event>
<event>
 8    1  0.6760442E-009  0.1078762E+03  0.7561462E-02  0.1264554E+00
         -2   -1    0    0    0  501 -0.00000000000E+00  0.00000000000E+00  0.30523157953E+03  0.30523157953E+03  0.00000000000E+00 0.  1.
          2   -1    0    0  501    0  0.00000000000E+00 -0.00000000000E+00 -0.50888788967E+02  0.50888788967E+02  0.00000000000E+00 0. -1.
         25    2    1    2    0    0 -0.60766710036E+02 -0.16809091377E+02  0.12541466737E+03  0.18802063271E+03  0.12509109054E+03 0.  0.
         23    2    1    2    0    0  0.60766710036E+02  0.16809091377E+02  0.12892812320E+03  0.16809973579E+03  0.87520978162E+02 0.  0.
          5    1    3    3  502    0 -0.20714347257E+02  0.46758878895E+02  0.92727372493E+02  0.10597789839E+03  0.41800000000E+01 0. -1.
         -5    1    3    3    0  502 -0.40052362779E+02 -0.63567970272E+02  0.32687294872E+02  0.82042734321E+02  0.41800000000E+01 0. -1.
        -11    1    4    4    0    0  0.29805972721E+02 -0.23787754025E+02  0.11149392457E+02  0.39731123865E+02  0.00000000000E+00 0.  1.
         11    1    4    4    0    0  0.30960737315E+02  0.40596845402E+02  0.11777873074E+03  0.12836861192E+03  0.00000000000E+00 0. -1.
</event>
<event>
 8    1  0.6760442E-009  0.8353395E+02  0.7561462E-02  0.1319312E+00
          2   -1    0    0  501    0  0.00000000000E+00  0.00000000000E+00  0.32460855303E+03  0.32460855303E+03  0.00000000000E+00 0. -1.
         -2   -1    0    0    0  501 -0.00000000000E+00 -0.00000000000E+00 -0.45752443463E+02  0.45752443463E+02  0.00000000000E+00 0.  1.
         25    2    1    2    0    0  0.16670768714E+02 -0.40798744891E+02  0.20861084295E+03  0.24720090324E+03  0.12508937065E+03 0.  0.
         23    2    1    2    0    0 -0.16670768714E+02  0.40798744891E+02  0.70245266614E+02  0.12316009326E+03  0.91057997864E+02 0.  0.
          5    1    3    3  502    0 -0.35985209548E+02 -0.22746999311E+02  0.14412821513E+02  0.45139374251E+02  0.41800000000E+01 0. -1.
         -5    1    3    3    0  502  0.52655978262E+02 -0.18051745580E+02  0.19419802144E+03  0.20206152899E+03  0.41800000000E+01 0. -1.
        -11    1    4    4    0    0 -0.19911059552E+02  0.52594653446E+02  0.46449124509E+01  0.56428920558E+02  0.00000000000E+00 0.  1.
         11    1    4    4    0    0  0.32402908383E+01 -0.11795908556E+02  0.65600354163E+02  0.66731172699E+02  0.00000000000E+00 0. -1.
</event>
<event>
 8    1  0.6760442E-009  0.1014190E+03  0.7561462E-02  0.1277340E+00
          1   -1    0    0  501    0  0.00000000000E+00  0.00000000000E+00  0.71544936364E+03  0.71544936364E+03  0.00000000000E+00 0. -1.
         -1   -1    0    0    0  501 -0.00000000000E+00 -0.00000000000E+00 -0.23053315987E+02  0.23053315987E+02  0.00000000000E+00 0.  1.
         25    2    1    2    0    0 -0.11091612954E+02 -0.47881014029E+02  0.52709617514E+03  0.54396115060E+03  0.12509092746E+03 0.  0.
         23    2    1    2    0    0  0.11091612954E+02  0.47881014029E+02  0.16529987252E+03  0.19454152903E+03  0.90037454877E+02 0.  0.
          5    1    3    3  502    0  0.43754160730E+02 -0.17401320182E+02  0.39321750543E+03  0.39604887514E+03  0.41800000000E+01 0. -1.
         -5    1    3    3    0  502 -0.54845773684E+02 -0.30479693848E+02  0.13387866971E+03  0.14791227546E+03  0.41800000000E+01 0. -1.
        -11    1    4    4    0    0 -0.39979244959E+01 -0.21402359248E+02  0.10286280861E+02  0.24080115357E+02  0.00000000000E+00 0.  1.
         11    1    4    4    0    0  0.15089537450E+02  0.69283373278E+02  0.15501359166E+03  0.17046141367E+03  0.00000000000E+00 0. -1.
</event>
<event>
 8    1  0.6760442E-009  0.1140114E+03  0.7561462E-02  0.1253317E+00
         -1   -1    0    0    0  501 -0.00000000000E+00  0.00000000000E+00  0.55381431092E+03  0.55381431092E+03  0.00000000000E+00 0.  1.
          1   -1    0    0  501    0  0.00000000000E+00 -0.00000000000E+00 -0.25868755922E+02  0.25868755922E+02  0.00000000000E+00 0. -1.
         25    2    1    2    0    0  0.22817919080E+01  0.45895897919E+02  0.35446143783E+03  0.37868442740E+03  0.12508934656E+03 0.  0.
         23    2    1    2    0    0 -0.22817919080E+01 -0.45895897919E+02  0.17348411716E+03  0.20099863944E+03  0.90510077502E+02 0.  0.
          5    1    3    3  502    0 -0.61130681332E+02  0.22254899071E+02  0.16175846395E+03  0.17440044092E+03  0.41800000000E+01 0. -1.
         -5    1    3    3    0  502  0.63412473240E+02  0.23640998848E+02  0.19270297388E+03  0.20428398648E+03  0.41800000000E+01 0. -1.
        -11    1    4    4    0    0 -0.42662844266E+02 -0.20576239709E+02  0.12183442214E+03  0.13071773537E+03  0.00000000000E+00 0.  1.
         11    1    4    4    0    0  0.40381052358E+02 -0.25319658210E+02  0.51649695019E+02  0.70280904071E+02  0.00000000000E+00 0. -1.
</event>
<event>
 8    1  0.6760442E-009  0.7129598E+02  0.7561462E-02  0.1355741E+00
         -1   -1    0    0    0  501 -0.00000000000E+00  0.00000000000E+00  0.61273706683E+02  0.61273706683E+02  0.00000000000E+00 0.  1.
          1   -1    0    0  501    0  0.00000000000E+00 -0.00000000000E+00 -0.54551080726E+03  0.54551080726E+03  0.00000000000E+00 0. -1.
         25    2    1    2    0    0  0.12417620578E+02  0.40091120881E+02 -0.21834243953E+02  0.13374230130E+03  0.12509505855E+03 0.  0.
         23    2    1    2    0    0 -0.12417620578E+02 -0.40091120881E+02 -0.46240285662E+03  0.47304221264E+03  0.90504352667E+02 0.  0.
          5    1    3    3  502    0  0.66774319508E+01  0.24108928944E+02  0.52004939503E+02  0.57860303188E+02  0.41800000000E+01 0.  1.
         -5    1    3    3    0  502  0.57401886272E+01  0.15982191937E+02 -0.73839183456E+02  0.75881998116E+02  0.41800000000E+01 0.  1.
        -11    1    4    4    0    0 -0.12014954887E+02  0.28613717396E+02 -0.14856103968E+03  0.15176787037E+03  0.00000000000E+00 0.  1.
         11    1    4    4    0    0 -0.40266569074E+00 -0.68704838277E+02 -0.31384181694E+03  0.32127434227E+03  0.00000000000E+00 0. -1.
</event>
<event>
 8    1  0.6760442E-009  0.1094301E+03  0.7561462E-02  0.1261629E+00
          2   -1    0    0  501    0  0.00000000000E+00  0.00000000000E+00  0.34494141992E+03  0.34494141992E+03  0.00000000000E+00 0. -1.
         -2   -1    0    0    0  501 -0.00000000000E+00 -0.00000000000E+00 -0.38783614796E+02  0.38783614796E+02  0.00000000000E+00 0.  1.
         25    2    1    2    0    0  0.46168868974E+02 -0.36412442911E+02  0.20126446991E+03  0.24415692847E+03  0.12509112044E+03 0.  0.
         23    2    1    2    0    0 -0.46168868974E+02  0.36412442911E+02  0.10489333522E+03  0.13956810624E+03  0.70846411670E+02 0.  0.
          5    1    3    3  502    0  0.56002220435E+02 -0.74229961472E+02  0.17048700367E+03  0.19424115602E+03  0.41800000000E+01 0. -1.
         -5    1    3    3    0  502 -0.98333514613E+01  0.37817518561E+02  0.30777466238E+02  0.49915772448E+02  0.41800000000E+01 0. -1.
        -11    1    4    4    0    0 -0.15625609109E+02 -0.18152072844E+02  0.53537603826E+02  0.58650937179E+02  0.00000000000E+00 0. -1.
         11    1    4    4    0    0 -0.30543259865E+02  0.54564515755E+02  0.51355731392E+02  0.80917169066E+02  0.00000000000E+00 0.  1.
</event>
<event>
 8    1  0.6760442E-009  0.1679354E+03  0.7561462E-02  0.1180018E+00
          1   -1    0    0  501    0  0.00000000000E+00  0.00000000000E+00  0.55303156504E+02  0.55303156504E+02  0.00000000000E+00 0. -1.
         -1   -1    0    0    0  501 -0.00000000000E+00 -0.00000000000E+00 -0.53688584109E+03  0.53688584109E+03  0.00000000000E+00 0.  1.
         25    2    1    2    0    0  0.59668571665E+02  0.11486756235E+03 -0.31528590077E+03  0.36305298845E+03  0.12508947948E+03 0.  0.
         23    2    1    2    0    0 -0.59668571665E+02 -0.11486756235E+03 -0.16629678382E+03  0.22913600914E+03  0.89965521459E+02 0.  0.
          5    1    3    3  502    0 -0.28317155056E+02 -0.69152932957E+01 -0.59172000990E+02  0.66094482773E+02  0.41800000000E+01 0.  1.
         -5    1    3    3    0  502  0.87985726721E+02  0.12178285565E+03 -0.25611389978E+03  0.29695850568E+03  0.41800000000E+01 0.  1.
        -11    1    4    4    0    0  0.15975825682E+00 -0.92114442301E+02 -0.82258768016E+02  0.12349737211E+03  0.00000000000E+00 0. -1.
         11    1    4    4    0    0 -0.59828329922E+02 -0.22753120052E+02 -0.84038015806E+02  0.10563863703E+03  0.00000000000E+00 0.  1.
</event>
<event>
 8    1  0.6760442E-009  0.1135759E+03  0.7561462E-02  0.1254088E+00
          1   -1    0    0  501    0  0.00000000000E+00  0.00000000000E+00  0.23398603654E+03  0.23398603654E+03  0.00000000000E+00 0. -1.
         -1   -1    0    0    0  501 -0.00000000000E+00 -0.00000000000E+00 -0.11198172733E+03  0.11198172733E+03  0.00000000000E+00 0.  1.
         25    2    1    2    0    0 -0.79888559419E+02 -0.57896408701E+01 -0.29632767819E+02  0.15146382735E+03  0.12508992046E+03 0.  0.
         23    2    1    2    0    0  0.79888559419E+02  0.57896408701E+01  0.15163707703E+03  0.19450393652E+03  0.91772960748E+02 0.  0.
          5    1    3    3  502    0 -0.83035411050E+02 -0.23888010996E+02  0.27926081501E+02  0.90900247445E+02  0.41800000000E+01 0.  1.
         -5    1    3    3    0  502  0.31468516310E+01  0.18098370126E+02 -0.57558849319E+02  0.60563579909E+02  0.41800000000E+01 0.  1.
        -11    1    4    4    0    0  0.27932702676E+02 -0.42512392768E+02  0.62621493791E+02  0.80678317423E+02  0.00000000000E+00 0.  1.
         11    1    4    4    0    0  0.51955856743E+02  0.48302033638E+02  0.89015583240E+02  0.11382561910E+03  0.00000000000E+00 0. -1.
</event>
<event>
 8    1  0.6760442E-009  0.8450668E+02  0.7561462E-02  0.1316728E+00
          3   -1    0    0  501    0  0.00000000000E+00  0.00000000000E+00  0.26172358721E+03  0.26172358721E+03  0.00000000000E+00 0.  1.
         -3   -1    0    0    0  501 -0.00000000000E+00 -0.00000000000E+00 -0.50195120589E+02  0.50195120589E+02  0.00000000000E+00 0. -1.
         25    2    1    2    0    0 -0.31197718024E+02  0.18392369185E+02  0.12595176266E+03  0.18117021881E+03  0.12508886766E+03 0.  0.
         23    2    1    2    0    0  0.31197718024E+02 -0.18392369185E+02  0.85576703954E+02  0.13074848899E+03  0.91979444758E+02 0.  0.
          5    1    3    3  502    0  0.23162313761E+02  0.76957549962E+01  0.12306905402E+03  0.12553558014E+03  0.41800000000E+01 0.  1.
         -5    1    3    3    0  502 -0.54360031786E+02  0.10696614189E+02  0.28827086444E+01  0.55634638671E+02  0.41800000000E+01 0.  1.
        -11    1    4    4    0    0 -0.95529079860E+01 -0.40993751594E+02  0.69878495046E+02  0.81576649788E+02  0.00000000000E+00 0.  1.
         11    1    4    4    0    0  0.40750626010E+02  0.22601382409E+02  0.15698208908E+02  0.49171839197E+02  0.00000000000E+00 0. -1.
</event>
<event>
 8    1  0.6760442E-009  0.1049724E+03  0.7561462E-02  0.1270174E+00
          1   -1    0    0  501    0  0.00000000000E+00  0.00000000000E+00  0.16765069678E+03  0.16765069678E+03  0.00000000000E+00 0. -1.
         -1   -1    0    0    0  501 -0.00000000000E+00 -0.00000000000E+00 -0.85517862287E+02  0.85517862287E+02  0.00000000000E+00 0.  1.
         25    2    1    2    0    0 -0.14482425339E+02 -0.26957956415E+02  0.90243653839E+02  0.15725436858E+03  0.12509415383E+03 0.  0.
         23    2    1    2    0    0  0.14482425339E+02  0.26957956415E+02 -0.81108193441E+01  0.95914190487E+02  0.90538801012E+02 0.  0.
          5    1    3    3  502    0 -0.32662532390E+02  0.44137999584E+02  0.43140672142E+02  0.69954228052E+02  0.41800000000E+01 0. -1.
         -5    1    3    3    0  502  0.18180107051E+02 -0.71095955999E+02  0.47102981697E+02  0.87300140530E+02  0.41800000000E+01 0. -1.
        -11    1    4    4    0    0 -0.16396853754E+02 -0.19570383334E+02  0.20891191479E+02  0.32989370989E+02  0.00000000000E+00 0.  1.
         11    1    4    4    0    0  0.30879279093E+02  0.46528339749E+02 -0.29002010823E+02  0.62924819498E+02  0.00000000000E+00 0. -1.
</event>
<event>
 8    1  0.6760442E-009  0.1479998E+03  0.7561462E-02  0.1202953E+00
          2   -1    0    0  501    0  0.00000000000E+00  0.00000000000E+00  0.99387894215E+02  0.99387894215E+02  0.00000000000E+00 0. -1.
         -2   -1    0    0    0  501 -0.00000000000E+00 -0.00000000000E+00 -0.32417479545E+03  0.32417479545E+03  0.00000000000E+00 0.  1.
         25    2    1    2    0    0  0.77577951228E+02 -0.75677272014E+02 -0.23205400305E+03  0.28502977958E+03  0.12509007515E+03 0.  0.
         23    2    1    2    0    0 -0.77577951228E+02  0.75677272014E+02  0.72671018096E+01  0.13853291009E+03  0.85983535590E+02 0.  0.
          5    1    3    3  502    0 -0.25769004593E+02 -0.46276193411E+02 -0.46673877447E+02  0.70720936860E+02  0.41800000000E+01 0.  1.
         -5    1    3    3    0  502  0.10334695582E+03 -0.29401078603E+02 -0.18538012560E+03  0.21430884272E+03  0.41800000000E+01 0.  1.
        -11    1    4    4    0    0  0.10630925458E+02  0.37931465647E+02  0.15281395768E+02  0.42253209568E+02  0.00000000000E+00 0. -1.
         11    1    4    4    0    0 -0.88208876686E+02  0.37745806367E+02 -0.80142939585E+01  0.96279700520E+02  0.00000000000E+00 0.  1.
</event>
<event>
 8    1  0.6760442E-009  0.9851022E+02  0.7561462E-02  0.1283460E+00
          3   -1    0    0  501    0  0.00000000000E+00  0.00000000000E+00  0.18980601272E+02  0.18980601272E+02  0.00000000000E+00 0. -1.
         -3   -1    0    0    0  501 -0.00000000000E+00 -0.00000000000E+00 -0.66737103968E+03  0.66737103968E+03  0.00000000000E+00 0.  1.
         25    2    1    2    0    0  0.19154815903E+02 -0.24784594182E+02 -0.53575095065E+03  0.55105185655E+03  0.12509150413E+03 0.  0.
         23    2    1    2    0    0 -0.19154815903E+02  0.24784594182E+02 -0.11263948776E+03  0.13529978440E+03  0.68096948356E+02 0.  0.
          5    1    3    3  502    0  0.24798640185E+02 -0.71647293223E+02 -0.24602482952E+03  0.25747620535E+03  0.41800000000E+01 0. -1.
         -5    1    3    3    0  502 -0.56438242819E+01  0.46862699041E+02 -0.28972612112E+03  0.29357565119E+03  0.41800000000E+01 0. -1.
        -11    1    4    4    0    0  0.34154635143E+01 -0.21731889099E+02 -0.23059595745E+02  0.31869818806E+02  0.00000000000E+00 0. -1.
         11    1    4    4    0    0 -0.22570279418E+02  0.46516483281E+02 -0.89579892018E+02  0.10342996560E+03  0.00000000000E+00 0.  1.
</event>
<event>
 8    1  0.6760442E-009  0.1015929E+03  0.7561462E-02  0.1276982E+00
          2   -1    0    0  501    0  0.00000000000E+00  0.00000000000E+00  0.67502198228E+03  0.67502198228E+03  0.00000000000E+00 0. -1.
         -2   -1    0    0    0  501 -0.00000000000E+00 -0.00000000000E+00 -0.23745767845E+02  0.23745767845E+02  0.00000000000E+00 0.  1.
         25    2    1    2    0    0 -0.51839595684E+02  0.10968751998E+02  0.26201720311E+03  0.29514389470E+03  0.12509694899E+03 0.  0.
         23    2    1    2    0    0  0.51839595684E+02 -0.10968751998E+02  0.38925901133E+03  0.40362385543E+03  0.92638985187E+02 0.  0.
          5    1    3    3  502    0  0.40588095763E+01 -0.33089576339E+02  0.19303826785E+03  0.19594039719E+03  0.41800000000E+01 0. -1.
         -5    1    3    3    0  502 -0.55898405260E+02  0.44058328337E+02  0.68978935262E+02  0.99203497501E+02  0.41800000000E+01 0. -1.
        -11    1    4    4    0    0  0.55637788335E+01 -0.42133186140E+02  0.25031363652E+03  0.25389580075E+03  0.00000000000E+00 0. -1.
         11    1    4    4    0    0  0.46275816851E+02  0.31164434141E+02  0.13894537480E+03  0.14972805469E+03  0.00000000000E+00 0.  1.
</event>
<event>
 8    1  0.6760442E-009  0.8834223E+02  0.7561462E-02  0.1306917E+00
          1   -1    0    0  501    0  0.00000000000E+00  0.00000000000E+00  0.13093668991E+03  0.13093668991E+03  0.00000000000E+00 0. -1.
         -1   -1    0    0    0  501 -0.00000000000E+00 -0.00000000000E+00 -0.10149295745E+03  0.10149295745E+03  0.00000000000E+00 0.  1.
         25    2    1    2    0    0  0.37383398968E+02 -0.39672189390E+00  0.42693079956E+02  0.13733811802E+03  0.12506551754E+03 0.  0.
         23    2    1    2    0    0 -0.37383398968E+02  0.39672189390E+00 -0.13249347502E+02  0.95091529339E+02  0.86424405327E+02 0.  0.
          5    1    3    3  502    0 -0.38779384073E+02  0.13429855163E+02 -0.11415342361E+02  0.42801683144E+02  0.41800000000E+01 0. -1.
         -5    1    3    3    0  502  0.76162783041E+02 -0.13826577057E+02  0.54108422316E+02  0.94536434877E+02  0.41800000000E+01 0. -1.
        -11    1    4    4    0    0 -0.44560211582E+02  0.10248921760E+02  0.26956735049E+02  0.53078417629E+02  0.00000000000E+00 0. -1.
         11    1    4    4    0    0  0.71768126141E+01 -0.98521998658E+01 -0.40206082551E+02  0.42013111710E+02  0.00000000000E+00 0.  1.
</event>
<event>
 8    1  0.6760442E-009  0.8586612E+02  0.7561462E-02  0.1313183E+00
          1   -1    0    0  501    0  0.00000000000E+00  0.00000000000E+00  0.47640822959E+02  0.47640822959E+02  0.00000000000E+00 0. -1.
         -1   -1    0    0    0  501 -0.00000000000E+00 -0.00000000000E+00 -0.40263784043E+03  0.40263784043E+03  0.00000000000E+00 0.  1.
         25    2    1    2    0    0 -0.87344134779E-01 -0.79942666784E+02 -0.12964964411E+03  0.19709663107E+03  0.12508882508E+03 0.  0.
         23    2    1    2    0    0  0.87344134779E-01  0.79942666784E+02 -0.22534737336E+03  0.25318203232E+03  0.83239805437E+02 0.  0.
          5    1    3    3  502    0 -0.21772428057E+02 -0.38957011092E+02  0.13301084064E+02  0.46755519182E+02  0.41800000000E+01 0.  1.
         -5    1    3    3    0  502  0.21685083922E+02 -0.40985655692E+02 -0.14295072818E+03  0.15034111189E+03  0.41800000000E+01 0.  1.
        -11    1    4    4    0    0  0.38228265531E+01  0.54791057757E+02 -0.22057524741E+03  0.22731061080E+03  0.00000000000E+00 0.  1.
         11    1    4    4    0    0 -0.37354824183E+01  0.25151609026E+02 -0.47721259518E+01  0.25871421523E+02  0.00000000000E+00 0. -1.
</event>
<event>
 8    1  0.6760442E-009  0.8054652E+02  0.7561462E-02  0.1327508E+00
          3   -1    0    0  501    0  0.00000000000E+00  0.00000000000E+00  0.67854798864E+03  0.67854798864E+03  0.00000000000E+00 0. -1.
         -3   -1    0    0    0  501 -0.00000000000E+00 -0.00000000000E+00 -0.17764030218E+02  0.17764030218E+02  0.00000000000E+00 0.  1.
         25    2    1    2    0    0  0.11417676851E+02 -0.11199480331E+02  0.37479686774E+03  0.39544420744E+03  0.12509051694E+03 0.  0.
         23    2    1    2    0    0 -0.11417676851E+02  0.11199480331E+02  0.28598709069E+03  0.30086781142E+03  0.92070799958E+02 0.  0.
          5    1    3    3  502    0 -0.30961013783E+02 -0.13726960117E+02  0.33616379237E+03  0.33789137531E+03  0.41800000000E+01 0.  1.
         -5    1    3    3    0  502  0.42378690634E+02  0.25274797859E+01  0.38633075368E+02  0.57552832131E+02  0.41800000000E+01 0.  1.
        -11    1    4    4    0    0 -0.66392908756E+01 -0.36132101463E+02  0.19248622764E+03  0.19596060005E+03  0.00000000000E+00 0. -1.
         11    1    4    4    0    0 -0.47783859751E+01  0.47331581794E+02  0.93500863045E+02  0.10490721137E+03  0.00000000000E+00 0.  1.
</event>
<event>
 8    1  0.6760442E-009  0.5374923E+02  0.7561462E-02  0.1426108E+00
         -1   -1    0    0    0  501 -0.00000000000E+00  0.00000000000E+00  0.46291968459E+02  0.46291968459E+02  0.00000000000E+00 0.  1.
          1   -1    0    0  501    0  0.00000000000E+00 -0.00000000000E+00 -0.39823301910E+03  0.39823301910E+03  0.00000000000E+00 0. -1.
         25    2    1    2    0    0 -0.15548209168E+01 -0.47198351676E+02 -0.19551948664E+03  0.23686657614E+03  0.12509118021E+03 0.  0.
         23    2    1    2    0    0  0.15548209168E+01  0.47198351676E+02 -0.15642156399E+03  0.20765841142E+03  0.12815696735E+03 0.  0.
          5    1    3    3  502    0 -0.14706966436E+02 -0.32116270140E+02  0.44567964325E+01  0.35848083685E+02  0.41800000000E+01 0.  1.
         -5    1    3    3    0  502  0.13152145519E+02 -0.15082081536E+02 -0.19997628308E+03  0.20101849245E+03  0.41800000000E+01 0.  1.
        -11    1    4    4    0    0 -0.93085379219E+01  0.16833415146E+02  0.20330555157E+02  0.27988287135E+02  0.00000000000E+00 0.  1.
         11    1    4    4    0    0  0.10863358839E+02  0.30364936529E+02 -0.17675211915E+03  0.17967012428E+03  0.00000000000E+00 0. -1.
</event>
<event>
 8    1  0.6760442E-009  0.1303840E+03  0.7561462E-02  0.1226887E+00
         -1   -1    0    0    0  501 -0.00000000000E+00  0.00000000000E+00  0.36381512552E+02  0.36381512552E+02  0.00000000000E+00 0.  1.
          1   -1    0    0  501    0  0.00000000000E+00 -0.00000000000E+00 -0.78073033817E+03  0.78073033817E+03  0.00000000000E+00 0. -1.
         25    2    1    2    0    0  0.10497763053E+03  0.69413885518E+02 -0.46525738465E+03  0.49794610880E+03  0.12508917972E+03 0.  0.
         23    2    1    2    0    0 -0.10497763053E+03 -0.69413885518E+02 -0.27909144097E+03  0.31916574192E+03  0.90200598552E+02 0.  0.
          5    1    3    3  502    0  0.50762736388E+02  0.56411346550E+02 -0.86762495627E+02  0.11534426068E+03  0.41800000000E+01 0.  1.
         -5    1    3    3    0  502  0.54214894147E+02  0.13002538968E+02 -0.37849488902E+03  0.38260184812E+03  0.41800000000E+01 0.  1.
        -11    1    4    4    0    0 -0.99270353071E+02 -0.55306011621E+02 -0.28167108942E+03  0.30373007841E+03  0.00000000000E+00 0. -1.
         11    1    4    4    0    0 -0.57072774637E+01 -0.14107873897E+02  0.25796484439E+01  0.15435663511E+02  0.00000000000E+00 0.  1.
</event>
<event>
 8    1  0.6760442E-009  0.9835656E+02  0.7561462E-02  0.1283790E+00
         -2   -1    0    0    0  501 -0.00000000000E+00  0.00000000000E+00  0.17330061129E+02  0.17330061129E+02  0.00000000000E+00 0.  1.
          2   -1    0    0  501    0  0.00000000000E+00 -0.00000000000E+00 -0.75605291059E+03  0.75605291059E+03  0.00000000000E+00 0. -1.
         25    2    1    2    0    0 -0.76418005547E+01 -0.15386390278E+02 -0.31037535556E+03  0.33507301579E+03  0.12508367779E+03 0.  0.
         23    2    1    2    0    0  0.76418005547E+01  0.15386390278E+02 -0.42834749391E+03  0.43830995593E+03  0.91317598597E+02 0.  0.
          5    1    3    3  502    0 -0.53298523776E+02 -0.21335716163E+02 -0.26164156121E+03  0.26789872037E+03  0.41800000000E+01 0.  1.
         -5    1    3    3    0  502  0.45656723222E+02  0.59493258851E+01 -0.48733794346E+02  0.67174295420E+02  0.41800000000E+01 0.  1.
        -11    1    4    4    0    0  0.19173035399E+02 -0.35713112246E+02 -0.18775549282E+03  0.19208112025E+03  0.00000000000E+00 0.  1.
         11    1    4    4    0    0 -0.11531234844E+02  0.51099502524E+02 -0.24059200109E+03  0.24622883568E+03  0.00000000000E+00 0. -1.
</event>
<event>
 8    1  0.6760442E-009  0.1612571E+03  0.7561462E-02  0.1187285E+00
          1   -1    0    0  501    0  0.00000000000E+00  0.00000000000E+00  0.82283622506E+03  0.82283622506E+03  0.00000000000E+00 0. -1.
         -1   -1    0    0    0  501 -0.00000000000E+00 -0.00000000000E+00 -0.38571233079E+02  0.38571233079E+02  0.00000000000E+00 0.  1.
         25    2    1    2    0    0  0.24222465720E+02  0.12376374562E+03  0.26295184307E+03  0.31732624292E+03  0.12509228631E+03 0.  0.
         23    2    1    2    0    0 -0.24222465720E+02 -0.12376374562E+03  0.52131314890E+03  0.54408121521E+03  0.91393527962E+02 0.  0.
          5    1    3    3  502    0 -0.51097872899E+02  0.43607401297E+02  0.10807727266E+03  0.12732151165E+03  0.41800000000E+01 0. -1.
         -5    1    3    3    0  502  0.75320338620E+02  0.80156344326E+02  0.15487457042E+03  0.19000473128E+03  0.41800000000E+01 0. -1.
        -11    1    4    4    0    0  0.24504500836E+02 -0.24996471722E+02  0.57040718233E+02  0.66924866054E+02  0.00000000000E+00 0.  1.
         11    1    4    4    0    0 -0.48726966557E+02 -0.98767273901E+02  0.46427243067E+03  0.47715634916E+03  0.00000000000E+00 0. -1.
</event>
<event>
 8    1  0.6760442E-009  0.1606806E+03  0.7561462E-02  0.1187931E+00
         -2   -1    0    0    0  501 -0.00000000000E+00  0.00000000000E+00  0.65519528875E+02  0.65519528875E+02  0.00000000000E+00 0. -1.
          2   -1    0    0  501    0  0.00000000000E+00 -0.00000000000E+00 -0.51502220890E+03  0.51502220890E+03  0.00000000000E+00 0.  1.
         25    2    1    2    0    0 -0.10593118820E+03  0.98076680174E+02 -0.18282010802E+03  0.26440704270E+03  0.12508972981E+03 0.  0.
         23    2    1    2    0    0  0.10593118820E+03 -0.98076680174E+02 -0.26668257200E+03  0.31613469507E+03  0.89336998999E+02 0.  0.
          5    1    3    3  502    0 -0.95362324522E+02  0.11394078046E+03 -0.99589147149E+02  0.17891882243E+03  0.41800000000E+01 0.  1.
         -5    1    3    3    0  502 -0.10568863682E+02 -0.15864100286E+02 -0.83230960870E+02  0.85488220269E+02  0.41800000000E+01 0.  1.
        -11    1    4    4    0    0  0.93804919439E+01 -0.38783860631E+02 -0.14272002268E+03  0.14819307119E+03  0.00000000000E+00 0.  1.
         11    1    4    4    0    0  0.96550696260E+02 -0.59292819543E+02 -0.12396254932E+03  0.16794162388E+03  0.00000000000E+00 0. -1.
</event>
<event>
 8    1  0.6760442E-009  0.1358000E+03  0.7561462E-02  0.1219095E+00
         -2   -1    0    0    0  501 -0.00000000000E+00  0.00000000000E+00  0.22303713082E+02  0.22303713082E+02  0.00000000000E+00 0. -1.
          2   -1    0    0  501    0  0.00000000000E+00 -0.00000000000E+00 -0.85581056521E+03  0.85581056521E+03  0.00000000000E+00 0.  1.
         25    2    1    2    0    0  0.81851669133E+02 -0.19353248072E+02 -0.46471345615E+03  0.48854999272E+03  0.12509298586E+03 0.  0.
         23    2    1    2    0    0 -0.81851669133E+02  0.19353248072E+02 -0.36879339598E+03  0.38956428557E+03  0.93153205657E+02 0.  0.
          5    1    3    3  502    0 -0.12085505898E+00  0.43508886318E+02 -0.93564181820E+02  0.10327035545E+03  0.41800000000E+01 0. -1.
         -5    1    3    3    0  502  0.81972524192E+02 -0.62862134391E+02 -0.37114927433E+03  0.38527963727E+03  0.41800000000E+01 0. -1.
        -11    1    4    4    0    0 -0.59598922154E+02 -0.32638787851E+02 -0.22545960412E+03  0.23547686741E+03  0.00000000000E+00 0.  1.
         11    1    4    4    0    0 -0.22252746979E+02  0.51992035923E+02 -0.14333379186E+03  0.15408741816E+03  0.00000000000E+00 0. -1.
</event>
<event>
 8    1  0.6760442E-009  0.1456601E+03  0.7561462E-02  0.1205910E+00
          1   -1    0    0  501    0  0.00000000000E+00  0.00000000000E+00  0.31927430274E+03  0.31927430274E+03  0.00000000000E+00 0. -1.
         -1   -1    0    0    0  501 -0.00000000000E+00 -0.00000000000E+00 -0.91491534842E+02  0.91491534842E+02  0.00000000000E+00 0.  1.
         25    2    1    2    0    0  0.13019751725E+02  0.11700189507E+03  0.19188602160E+03  0.25753725633E+03  0.12508491407E+03 0.  0.
         23    2    1    2    0    0 -0.13019751725E+02 -0.11700189507E+03  0.35896746302E+02  0.15322858125E+03  0.91276855403E+02 0.  0.
          5    1    3    3  502    0 -0.13487888463E+02 -0.23719237175E+02  0.41471244125E+02  0.49818288174E+02  0.41800000000E+01 0.  1.
         -5    1    3    3    0  502  0.26507640188E+02  0.14072113225E+03  0.15041477747E+03  0.20771896815E+03  0.41800000000E+01 0.  1.
        -11    1    4    4    0    0  0.74750120583E+01 -0.44180592150E+02  0.59039124827E+02  0.74117601070E+02  0.00000000000E+00 0. -1.
         11    1    4    4    0    0 -0.20494763783E+02 -0.72821302922E+02 -0.23142378525E+02  0.79110980184E+02  0.00000000000E+00 0.  1.
</event>
<event>
 8    1  0.6760442E-009  0.2139322E+03  0.7561462E-02  0.1138489E+00
         -2   -1    0    0    0  501 -0.00000000000E+00  0.00000000000E+00  0.32865774026E+03  0.32865774026E+03  0.00000000000E+00 0.  1.
          2   -1    0    0  501    0  0.00000000000E+00 -0.00000000000E+00 -0.21252921435E+03  0.21252921435E+03  0.00000000000E+00 0. -1.
         25    2    1    2    0    0  0.10035359401E+03  0.18797072303E+03 -0.54751271419E+02  0.25307822487E+03  0.12508816743E+03 0.  0.
         23    2    1    2    0    0 -0.10035359401E+03 -0.18797072303E+03  0.17087979733E+03  0.28810872974E+03  0.91667324974E+02 0.  0.
          5    1    3    3  502    0  0.35212249997E+02  0.81486346768E+02 -0.86703558852E+02  0.12415678305E+03  0.41800000000E+01 0. -1.
         -5    1    3    3    0  502  0.65141344016E+02  0.10648437627E+03  0.31952287433E+02  0.12892144182E+03  0.41800000000E+01 0. -1.
        -11    1    4    4    0    0 -0.74117598561E+02 -0.15621604954E+03  0.84585989152E+02  0.19248808304E+03  0.00000000000E+00 0. -1.
         11    1    4    4    0    0 -0.26235995452E+02 -0.31754673490E+02  0.86293808174E+02  0.95620646698E+02  0.00000000000E+00 0.  1.
</event>
<event>
 8    1  0.6760442E-009  0.8851587E+02  0.7561462E-02  0.1306486E+00
         -2   -1    0    0    0  501 -0.00000000000E+00  0.00000000000E+00  0.61335873707E+02  0.61335873707E+02  0.00000000000E+00 0. -1.
          2   -1    0    0  501    0  0.00000000000E+00 -0.00000000000E+00 -0.27362924377E+03  0.27362924377E+03  0.00000000000E+00 0.  1.
         25    2    1    2    0    0 -0.20168745111E+02 -0.42865967490E+02 -0.18668904299E+03  0.22966261316E+03  0.12509135727E+03 0.  0.
         23    2    1    2    0    0  0.20168745111E+02  0.42865967490E+02 -0.25604327078E+02  0.10530250432E+03  0.90491802961E+02 0.  0.
          5    1    3    3  502    0 -0.44678352073E+01 -0.76518653031E+02 -0.59572668932E+02  0.97167078256E+02  0.41800000000E+01 0. -1.
         -5    1    3    3    0  502 -0.15700909904E+02  0.33652685541E+02 -0.12711637406E+03  0.13249553490E+03  0.41800000000E+01 0. -1.
        -11    1    4    4    0    0  0.32624094814E+02  0.36347201474E+02  0.23517845064E+02  0.54208298755E+02  0.00000000000E+00 0. -1.
         11    1    4    4    0    0 -0.12455349703E+02  0.65187660158E+01 -0.49122172142E+02  0.51094205567E+02  0.00000000000E+00 0.  1.
</event>
<event>
 8    1  0.6760442E-009  0.1047268E+03  0.7561462E-02  0.1270659E+00
         -1   -1    0    0    0  501 -0.00000000000E+00  0.00000000000E+00  0.53347645578E+02  0.53347645578E+02  0.00000000000E+00 0.  1.
          1   -1    0    0  501    0  0.00000000000E+00 -0.00000000000E+00 -0.24359864934E+03  0.24359864934E+03  0.00000000000E+00 0. -1.
         25    2    1    2    0    0 -0.31337425104E+02  0.17214081090E+02 -0.12022230307E+03  0.17714009882E+03  0.12508738408E+03 0.  0.
         23    2    1    2    0    0  0.31337425104E+02 -0.17214081090E+02 -0.70028700693E+02  0.11980619610E+03  0.90394396412E+02 0.  0.
          5    1    3    3  502    0  0.17956499719E+02  0.61181491195E+02 -0.60287701289E+02  0.87850384597E+02  0.41800000000E+01 0.  1.
         -5    1    3    3    0  502 -0.49293924824E+02 -0.43967410106E+02 -0.59934601784E+02  0.89289714228E+02  0.41800000000E+01 0.  1.
        -11    1    4    4    0    0  0.53907368124E+02 -0.62230520516E+01 -0.10597454026E+02  0.55290476094E+02  0.00000000000E+00 0.  1.
         11    1    4    4    0    0 -0.22569943019E+02 -0.10991029038E+02 -0.59431246667E+02  0.64515720003E+02  0.00000000000E+00 0. -1.
</event>
<event>
 8    1  0.6760442E-009  0.7136972E+02  0.7561462E-02  0.1355496E+00
          1   -1    0    0  501    0  0.00000000000E+00  0.00000000000E+00  0.91742297907E+02  0.91742297907E+02  0.00000000000E+00 0. -1.
         -1   -1    0    0    0  501 -0.00000000000E+00 -0.00000000000E+00 -0.14157570522E+03  0.14157570522E+03  0.00000000000E+00 0.  1.
         25    2    1    2    0    0  0.72553126296E+01  0.28806104139E+00  0.58969043042E+01  0.12540400028E+03  0.12505465711E+03 0.  0.
         23    2    1    2    0    0 -0.72553126296E+01 -0.28806104139E+00 -0.55730311618E+02  0.10791400285E+03  0.92124056776E+02 0.  0.
          5    1    3    3  502    0 -0.27758756712E+02 -0.38278038821E+02  0.40775001139E+02  0.62576592653E+02  0.41800000000E+01 0.  1.
         -5    1    3    3    0  502  0.35014069341E+02  0.38566099863E+02 -0.34878096835E+02  0.62827407628E+02  0.41800000000E+01 0.  1.
        -11    1    4    4    0    0  0.15723573921E+02 -0.93721586399E+01  0.20674251492E+02  0.27613272337E+02  0.00000000000E+00 0. -1.
         11    1    4    4    0    0 -0.22978886550E+02  0.90840975985E+01 -0.76404563111E+02  0.80300730510E+02  0.00000000000E+00 0.  1.
</event>
<event>
 8    1  0.6760442E-009  0.1242561E+03  0.7561462E-02  0.1236236E+00
          2   -1    0    0  501    0  0.00000000000E+00  0.00000000000E+00  0.16622518592E+03  0.16622518592E+03  0.00000000000E+00 0. -1.
         -2   -1    0    0    0  501 -0.00000000000E+00 -0.00000000000E+00 -0.13184398871E+03  0.13184398871E+03  0.00000000000E+00 0.  1.
         25    2    1    2    0    0  0.67943482907E+02 -0.52194575945E+02 -0.32281249489E+02  0.15501771728E+03  0.12509125858E+03 0.  0.
         23    2    1    2    0    0 -0.67943482907E+02  0.52194575945E+02  0.66662446700E+02  0.14305145735E+03  0.93162476479E+02 0.  0.
          5    1    3    3  502    0  0.75445736924E+02 -0.75152708600E+02 -0.56446316139E+02  0.12059704737E+03  0.41800000000E+01 0.  1.
         -5    1    3    3    0  502 -0.75022540162E+01  0.22958132656E+02  0.24165066650E+02  0.34420669903E+02  0.41800000000E+01 0.  1.
        -11    1    4    4    0    0 -0.51488020559E+01  0.54353814198E+02  0.57950580981E+02  0.79618572686E+02  0.00000000000E+00 0. -1.
         11    1    4    4    0    0 -0.62794680851E+02 -0.21592382537E+01  0.87118657185E+01  0.63432884668E+02  0.00000000000E+00 0.  1.
</event>
<event>
 8    1  0.6760442E-009  0.9378697E+02  0.7561462E-02  0.1293932E+00
          1   -1    0    0  501    0  0.00000000000E+00  0.00000000000E+00  0.49940799005E+02  0.49940799005E+02  0.00000000000E+00 0. -1.
         -1   -1    0    0    0  501 -0.00000000000E+00 -0.00000000000E+00 -0.32510268471E+03  0.32510268471E+03  0.00000000000E+00 0.  1.
         25    2    1    2    0    0 -0.57400640093E+02 -0.48755758823E+01 -0.19965805464E+03  0.24254558561E+03  0.12508564104E+03 0.  0.
         23    2    1    2    0    0  0.57400640093E+02  0.48755758823E+01 -0.75503831073E+02  0.13249789811E+03  0.92391881537E+02 0.  0.
          5    1    3    3  502    0  0.33718863369E+02 -0.58224226965E+01 -0.10743344479E+03  0.11282854166E+03  0.41800000000E+01 0.  1.
         -5    1    3    3    0  502 -0.91119503461E+02  0.94684681418E+00 -0.92224609847E+02  0.12971704395E+03  0.41800000000E+01 0.  1.
        -11    1    4    4    0    0  0.13851916245E+02 -0.85890721944E+01  0.20519304270E+02  0.26204762784E+02  0.00000000000E+00 0. -1.
         11    1    4    4    0    0  0.43548723848E+02  0.13464648077E+02 -0.96023135344E+02  0.10629313533E+03  0.00000000000E+00 0.  1.
</event>
<event>
 8    1  0.6760442E-009  0.1186206E+03  0.7561462E-02  0.1245390E+00
          1   -1    0    0  501    0  0.00000000000E+00  0.00000000000E+00  0.12163947477E+04  0.12163947477E+04  0.00000000000E+00 0. -1.
         -1   -1    0    0    0  501 -0.00000000000E+00 -0.00000000000E+00 -0.14661177704E+02  0.14661177704E+02  0.00000000000E+00 0.  1.
         25    2    1    2    0    0  0.40578000558E+02  0.66086764368E+02  0.60872635156E+03  0.62626540419E+03  0.12508617373E+03 0.  0.
         23    2    1    2    0    0 -0.40578000558E+02 -0.66086764368E+02  0.59300721843E+03  0.60479052119E+03  0.89999882605E+02 0.  0.
          5    1    3    3  502    0  0.70111205197E+02  0.42362406375E+02  0.55113721720E+03  0.55720719589E+03  0.41800000000E+01 0. -1.
         -5    1    3    3    0  502 -0.29533204639E+02  0.23724357992E+02  0.57589134360E+02  0.69058208308E+02  0.41800000000E+01 0. -1.
        -11    1    4    4    0    0 -0.21979489362E+01 -0.77136596933E+02  0.43643401595E+03  0.44320371822E+03  0.00000000000E+00 0.  1.
         11    1    4    4    0    0 -0.38380051622E+02  0.11049832565E+02  0.15657320247E+03  0.16158680297E+03  0.00000000000E+00 0. -1.
</event>
<event>
 8    1  0.6760442E-009  0.7972403E+02  0.7561462E-02  0.1329836E+00
          1   -1    0    0  501    0  0.00000000000E+00  0.00000000000E+00  0.61911979338E+02  0.61911979338E+02  0.00000000000E+00 0. -1.
         -1   -1    0    0    0  501 -0.00000000000E+00 -0.00000000000E+00 -0.20998450841E+03  0.20998450841E+03  0.00000000000E+00 0.  1.
         25    2    1    2    0    0 -0.92495316160E+01 -0.21833073658E+02 -0.10852290009E+03  0.16728464030E+03  0.12507875158E+03 0.  0.
         23    2    1    2    0    0  0.92495316160E+01  0.21833073658E+02 -0.39549628984E+02  0.10461184745E+03  0.93900098688E+02 0.  0.
          5    1    3    3  502    0  0.10796738185E+02 -0.48479419281E+02 -0.12144872472E+03  0.13127866843E+03  0.41800000000E+01 0. -1.
         -5    1    3    3    0  502 -0.20046269801E+02  0.26646345623E+02  0.12925824628E+02  0.36005971870E+02  0.41800000000E+01 0. -1.
        -11    1    4    4    0    0 -0.27902065063E+02  0.26592104384E+02  0.12469635758E+02  0.40511196802E+02  0.00000000000E+00 0. -1.
         11    1    4    4    0    0  0.37151596679E+02 -0.47590307258E+01 -0.52019264742E+02  0.64100650649E+02  0.00000000000E+00 0.  1.
</event>
<event>
 8    1  0.6760442E-009  0.1849313E+03  0.7561462E-02  0.1163114E+00
          1   -1    0    0  501    0  0.00000000000E+00  0.00000000000E+00  0.18963084348E+02  0.18963084348E+02  0.00000000000E+00 0. -1.
         -1   -1    0    0    0  501 -0.00000000000E+00 -0.00000000000E+00 -0.22907070643E+04  0.22907070643E+04  0.00000000000E+00 0.  1.
         25    2    1    2    0    0  0.14013184491E+03 -0.80581453606E+02 -0.15839964293E+04  0.15971292601E+04  0.12508749303E+03 0.  0.
         23    2    1    2    0    0 -0.14013184491E+03  0.80581453606E+02 -0.68774755069E+03  0.71254088855E+03  0.92668871559E+02 0.  0.
          5    1    3    3  502    0  0.13193644423E+03 -0.10162291320E+03 -0.10955588060E+04  0.11081520707E+04  0.41800000000E+01 0.  1.
         -5    1    3    3    0  502  0.81954006862E+01  0.21041459596E+02 -0.48843762322E+03  0.48897718944E+03  0.41800000000E+01 0.  1.
        -11    1    4    4    0    0 -0.79986462421E+02  0.28817613361E+00 -0.21827640486E+03  0.23247044142E+03  0.00000000000E+00 0. -1.
         11    1    4    4    0    0 -0.60145382494E+02  0.80293277473E+02 -0.46947114583E+03  0.48007044713E+03  0.00000000000E+00 0.  1.
</event>
<event>
 8    1  0.6760442E-009  0.1152944E+03  0.7561462E-02  0.1251068E+00
          1   -1    0    0  501    0  0.00000000000E+00  0.00000000000E+00  0.12238880667E+03  0.12238880667E+03  0.00000000000E+00 0. -1.
         -1   -1    0    0    0  501 -0.00000000000E+00 -0.00000000000E+00 -0.15499873584E+03  0.15499873584E+03  0.00000000000E+00 0.  1.
         25    2    1    2    0    0  0.80329182174E+02 -0.81974722075E+01 -0.43116753592E+02  0.15500690676E+03  0.12509240842E+03 0.  0.
         23    2    1    2    0    0 -0.80329182174E+02  0.81974722075E+01  0.10506824422E+02  0.12238063574E+03  0.91360005396E+02 0.  0.
          5    1    3    3  502    0  0.79429098914E+02 -0.53516970875E+02 -0.56211993733E+01  0.96031860381E+02  0.41800000000E+01 0. -1.
         -5    1    3    3    0  502  0.90008325957E+00  0.45319498667E+02 -0.37495554219E+02  0.58975046380E+02  0.41800000000E+01 0. -1.
        -11    1    4    4    0    0 -0.66982228665E+02 -0.88342955864E+01  0.45345645949E+02  0.81368859780E+02  0.00000000000E+00 0. -1.
         11    1    4    4    0    0 -0.13346953509E+02  0.17031767794E+02 -0.34838821527E+02  0.41011775962E+02  0.00000000000E+00 0.  1.
</event>
<event>
 8    1  0.6760442E-009  0.1446865E+03  0.7561462E-02  0.1207159E+00
         -1   -1    0    0    0  501 -0.00000000000E+00  0.00000000000E+00  0.13428145751E+03  0.13428145751E+03  0.00000000000E+00 0.  1.
          1   -1    0    0  501    0  0.00000000000E+00 -0.00000000000E+00 -0.19063837497E+03  0.19063837497E+03  0.00000000000E+00 0. -1.
         25    2    1    2    0    0 -0.77794798326E+02  0.75508708222E+02  0.30161412008E+01  0.16557074770E+03  0.12510387572E+03 0.  0.
         23    2    1    2    0    0  0.77794798326E+02 -0.75508708222E+02 -0.59373058653E+02  0.15934908478E+03  0.10056527762E+03 0.  0.
          5    1    3    3  502    0  0.19858673234E+02 -0.19616814528E+02 -0.60946995445E+01  0.28875665835E+02  0.41800000000E+01 0. -1.
         -5    1    3    3    0  502 -0.97653471561E+02  0.95125522750E+02  0.91108407453E+01  0.13669508186E+03  0.41800000000E+01 0. -1.
        -11    1    4    4    0    0  0.76503276891E+02 -0.34832233809E+02  0.38637154377E+01  0.84148465133E+02  0.00000000000E+00 0.  1.
         11    1    4    4    0    0  0.12915214355E+01 -0.40676474412E+02 -0.63236774091E+02  0.75200619650E+02  0.00000000000E+00 0. -1.
</event>
<event>
 8    1  0.6760442E-009  0.8737683E+02  0.7561462E-02  0.1309331E+00
          1   -1    0    0  501    0  0.00000000000E+00  0.00000000000E+00  0.27388372039E+03  0.27388372039E+03  0.00000000000E+00 0. -1.
         -1   -1    0    0    0  501 -0.00000000000E+00 -0.00000000000E+00 -0.52359244711E+02  0.52359244711E+02  0.00000000000E+00 0.  1.
         25    2    1    2    0    0 -0.26933035519E+01  0.44781809424E+02  0.90662054310E+02  0.16087148755E+03  0.12508942032E+03 0.  0.
         23    2    1    2    0    0  0.26933035519E+01 -0.44781809424E+02  0.13086242137E+03  0.16537147755E+03  0.90609535490E+02 0.  0.
          5    1    3    3  502    0 -0.20284181139E+02  0.51834421916E+02  0.11613195608E+03  0.12885014134E+03  0.41800000000E+01 0.  1.
         -5    1    3    3    0  502  0.17590877588E+02 -0.70526124920E+01 -0.25469901768E+02  0.32021346214E+02  0.41800000000E+01 0.  1.
        -11    1    4    4    0    0 -0.19192492236E+02  0.22032756508E+02  0.25952191551E+02  0.39080818362E+02  0.00000000000E+00 0. -1.
         11    1    4    4    0    0  0.21885795788E+02 -0.66814565932E+02  0.10491022982E+03  0.12629065919E+03  0.00000000000E+00 0.  1.
</event>
<event>
 8    1  0.6760442E-009  0.1409387E+03  0.7561462E-02  0.1212071E+00
          1   -1    0    0  501    0  0.00000000000E+00  0.00000000000E+00  0.27006919254E+03  0.27006919254E+03  0.00000000000E+00 0. -1.
         -1   -1    0    0    0  501 -0.00000000000E+00 -0.00000000000E+00 -0.94494904271E+02  0.94494904271E+02  0.00000000000E+00 0.  1.
         25    2    1    2    0    0 -0.10715250245E+01  0.11436091013E+03  0.64162164041E+02  0.18122846233E+03  0.12508959322E+03 0.  0.
         23    2    1    2    0    0  0.10715250245E+01 -0.11436091013E+03  0.11141212423E+03  0.18333563448E+03  0.90109530656E+02 0.  0.
          5    1    3    3  502    0  0.11696273551E+02 -0.19471980645E+02  0.37597380929E+02  0.44124780996E+02  0.41800000000E+01 0. -1.
         -5    1    3    3    0  502 -0.12767798576E+02  0.13383289077E+03  0.26564783112E+02  0.13710368133E+03  0.41800000000E+01 0. -1.
        -11    1    4    4    0    0  0.24446422494E+02 -0.47055273527E+02  0.97140638714E+02  0.11067127012E+03  0.00000000000E+00 0. -1.
         11    1    4    4    0    0 -0.23374897470E+02 -0.67305636601E+02  0.14271485515E+02  0.72664364366E+02  0.00000000000E+00 0.  1.
</event>
<event>
 8    1  0.6760442E-009  0.1314315E+03  0.7561462E-02  0.1225347E+00
         -2   -1    0    0    0  501 -0.00000000000E+00  0.00000000000E+00  0.31922386118E+03  0.31922386118E+03  0.00000000000E+00 0.  1.
          2   -1    0    0  501    0  0.00000000000E+00 -0.00000000000E+00 -0.56858411865E+02  0.56858411865E+02  0.00000000000E+00 0. -1.
         25    2    1    2    0    0 -0.68034221494E+02 -0.40099291651E+02  0.15578437513E+03  0.21483193343E+03  0.12508948637E+03 0.  0.
         23    2    1    2    0    0  0.68034221494E+02  0.40099291651E+02  0.10658107419E+03  0.16125033962E+03  0.91681722103E+02 0.  0.
          5    1    3    3  502    0 -0.98400467147E+02 -0.88376546254E+01  0.13223252657E+03  0.16511713890E+03  0.41800000000E+01 0.  1.
         -5    1    3    3    0  502  0.30366245654E+02 -0.31261637026E+02  0.23551848560E+02  0.49714794531E+02  0.41800000000E+01 0.  1.
        -11    1    4    4    0    0  0.72844942622E+02  0.63297846851E+02  0.77709920083E+02  0.12390252120E+03  0.00000000000E+00 0. -1.
         11    1    4    4    0    0 -0.48107211287E+01 -0.23198555199E+02  0.28871154106E+02  0.37347818417E+02  0.00000000000E+00 0.  1.
</event>
<event>
 8    1  0.6760442E-009  0.6081352E+02  0.7561462E-02  0.1394449E+00
          1   -1    0    0  501    0  0.00000000000E+00  0.00000000000E+00  0.63830137757E+02  0.63830137757E+02  0.00000000000E+00 0. -1.
         -1   -1    0    0    0  501 -0.00000000000E+00 -0.00000000000E+00 -0.19422349539E+03  0.19422349539E+03  0.00000000000E+00 0.  1.
         25    2    1    2    0    0 -0.54958968257E+00 -0.35123287570E+02 -0.29877001610E+02  0.13332334424E+03  0.12509409065E+03 0.  0.
         23    2    1    2    0    0  0.54958968257E+00  0.35123287570E+02 -0.10051635602E+03  0.12473028891E+03  0.64962756751E+02 0.  0.
          5    1    3    3  502    0  0.16220694389E+00 -0.41642227681E+02 -0.75886004906E+02  0.86661753836E+02  0.41800000000E+01 0. -1.
         -5    1    3    3    0  502 -0.71179662647E+00  0.65189401111E+01  0.46009003295E+02  0.46661590402E+02  0.41800000000E+01 0. -1.
        -11    1    4    4    0    0 -0.13212951837E+02 -0.15017899303E+02 -0.16519278085E+02  0.25942358107E+02  0.00000000000E+00 0.  1.
         11    1    4    4    0    0  0.13762541519E+02  0.50141186873E+02 -0.83997077934E+02  0.98787930799E+02  0.00000000000E+00 0. -1.
</event>
<event>
 8    1  0.6760442E-009  0.1023953E+03  0.7561462E-02  0.1275338E+00
          3   -1    0    0  501    0  0.00000000000E+00  0.00000000000E+00  0.31818423327E+02  0.31818423327E+02  0.00000000000E+00 0. -1.
         -3   -1    0    0    0  501 -0.00000000000E+00 -0.00000000000E+00 -0.47711019731E+03  0.47711019731E+03  0.00000000000E+00 0.  1.
         25    2    1    2    0    0 -0.51283447093E+02  0.30073642214E+02 -0.28817315435E+03  0.31972757620E+03  0.12509012829E+03 0.  0.
         23    2    1    2    0    0  0.51283447093E+02 -0.30073642214E+02 -0.15711861963E+03  0.18920104443E+03  0.87042280973E+02 0.  0.
          5    1    3    3  502    0 -0.76780288574E+02 -0.96704552352E+01 -0.10490095695E+03  0.13042397628E+03  0.41800000000E+01 0.  1.
         -5    1    3    3    0  502  0.25496841481E+02  0.39744097449E+02 -0.18327219740E+03  0.18930359993E+03  0.41800000000E+01 0.  1.
        -11    1    4    4    0    0  0.37462779105E+02  0.89253550047E+01 -0.13863502232E+03  0.14388464544E+03  0.00000000000E+00 0.  1.
         11    1    4    4    0    0  0.13820667988E+02 -0.38998997219E+02 -0.18483597311E+02  0.45316398988E+02  0.00000000000E+00 0. -1.
</event>
<event>
 8    1  0.6760442E-009  0.9288317E+02  0.7561462E-02  0.1296016E+00
          2   -1    0    0  501    0  0.00000000000E+00  0.00000000000E+00  0.35563827767E+02  0.35563827767E+02  0.00000000000E+00 0. -1.
         -2   -1    0    0    0  501 -0.00000000000E+00 -0.00000000000E+00 -0.33815867526E+03  0.33815867526E+03  0.00000000000E+00 0.  1.
         25    2    1    2    0    0  0.50886048280E+01 -0.20890446038E+00 -0.21407876716E+03  0.24800020705E+03  0.12509375127E+03 0.  0.
         23    2    1    2    0    0 -0.50886048280E+01  0.20890446038E+00 -0.88516080330E+02  0.12572229598E+03  0.89135075521E+02 0.  0.
          5    1    3    3  502    0 -0.25566782737E+02  0.46635786738E+02 -0.44828770007E+02  0.69682479897E+02  0.41800000000E+01 0.  1.
         -5    1    3    3    0  502  0.30655387565E+02 -0.46844691199E+02 -0.16924999716E+03  0.17831772716E+03  0.41800000000E+01 0.  1.
        -11    1    4    4    0    0 -0.40253735306E+02 -0.55850096345E+01 -0.78991151169E+02  0.88832187307E+02  0.00000000000E+00 0.  1.
         11    1    4    4    0    0  0.35165130478E+02  0.57939140948E+01 -0.95249291613E+01  0.36890108669E+02  0.00000000000E+00 0. -1.
</event>
<event>
 8    1  0.6760442E-009  0.1135156E+03  0.7561462E-02  0.1254195E+00
         -2   -1    0    0    0  501 -0.00000000000E+00  0.00000000000E+00  0.13063175989E+03  0.13063175989E+03  0.00000000000E+00 0. -1.
          2   -1    0    0  501    0  0.00000000000E+00 -0.00000000000E+00 -0.15053294191E+03  0.15053294191E+03  0.00000000000E+00 0.  1.
         25    2    1    2    0    0  0.65888760040E+02  0.19441304253E+02  0.45704812427E+02  0.14983665195E+03  0.12507117725E+03 0.  0.
         23    2    1    2    0    0 -0.65888760040E+02 -0.19441304253E+02 -0.65605994450E+02  0.13132804985E+03  0.90684161565E+02 0.  0.
          5    1    3    3  502    0  0.17017997948E+02 -0.50106069189E+02  0.36096016621E+02  0.64192096395E+02  0.41800000000E+01 0.  1.
         -5    1    3    3    0  502  0.48870762092E+02  0.69547373441E+02  0.96087958056E+01  0.85644555559E+02  0.41800000000E+01 0.  1.
        -11    1    4    4    0    0 -0.64286250700E+02 -0.35005353548E+02 -0.10383545142E+02  0.73931825459E+02  0.00000000000E+00 0. -1.
         11    1    4    4    0    0 -0.16025093405E+01  0.15564049295E+02 -0.55222449308E+02  0.57396224390E+02  0.00000000000E+00 0.  1.
</event>
<event>
 8    1  0.6760442E-009  0.1016988E+03  0.7561462E-02  0.1276764E+00
         -1   -1    0    0    0  501 -0.00000000000E+00  0.00000000000E+00  0.37376745195E+03  0.37376745195E+03  0.00000000000E+00 0.  1.
          1   -1    0    0  501    0  0.00000000000E+00 -0.00000000000E+00 -0.65215645760E+02  0.65215645760E+02  0.00000000000E+00 0. -1.
         25    2    1    2    0    0 -0.61749092486E+02  0.13600996955E+02  0.36415204209E+02  0.14481317504E+03  0.12508737357E+03 0.  0.
         23    2    1    2    0    0  0.61749092486E+02 -0.13600996955E+02  0.27213660198E+03  0.29416992267E+03  0.92085154745E+02 0.  0.
          5    1    3    3  502    0 -0.51892910969E+02 -0.32845995798E+02 -0.25539700150E+02  0.66644447124E+02  0.41800000000E+01 0.  1.
         -5    1    3    3    0  502 -0.98561815171E+01  0.46446992753E+02  0.61954904359E+02  0.78168727915E+02  0.41800000000E+01 0.  1.
        -11    1    4    4    0    0  0.67174982784E+02 -0.32421114512E+02  0.26139974748E+03  0.27183346917E+03  0.00000000000E+00 0.  1.
         11    1    4    4    0    0 -0.54258902981E+01  0.18820117557E+02  0.10736854502E+02  0.22336453501E+02  0.00000000000E+00 0. -1.
</event>
<event>
 8    1  0.6760442E-009  0.1503702E+03  0.7561462E-02  0.1200019E+00
         -2   -1    0    0    0  501 -0.00000000000E+00  0.00000000000E+00  0.11084238024E+03  0.11084238024E+03  0.00000000000E+00 0.  1.
          2   -1    0    0  501    0  0.00000000000E+00 -0.00000000000E+00 -0.24450740149E+03  0.24450740149E+03  0.00000000000E+00 0. -1.
         25    2    1    2    0    0  0.11424892234E+03 -0.47387695256E+02 -0.52598051565E+02  0.18361160245E+03  0.12509298784E+03 0.  0.
         23    2    1    2    0    0 -0.11424892234E+03  0.47387695256E+02 -0.81066969688E+02  0.17173817929E+03  0.87314023682E+02 0.  0.
          5    1    3    3  502    0  0.39746364983E+01 -0.62184369514E+02 -0.32742067071E+02  0.70513891562E+02  0.41800000000E+01 0.  1.
         -5    1    3    3    0  502  0.11027428585E+03  0.14796674259E+02 -0.19855984494E+02  0.11309771089E+03  0.41800000000E+01 0.  1.
        -11    1    4    4    0    0 -0.49068413344E+02  0.35813163378E+02 -0.86070603969E+02  0.10534913729E+03  0.00000000000E+00 0.  1.
         11    1    4    4    0    0 -0.65180508999E+02  0.11574531878E+02  0.50036342809E+01  0.66389042000E+02  0.00000000000E+00 0. -1.
</event>
<event>
 8    1  0.6760442E-009  0.1311070E+03  0.7561462E-02  0.1225822E+00
          2   -1    0    0  501    0  0.00000000000E+00  0.00000000000E+00  0.12974871189E+04  0.12974871189E+04  0.00000000000E+00 0. -1.
         -2   -1    0    0    0  501 -0.00000000000E+00 -0.00000000000E+00 -0.45725956794E+02  0.45725956794E+02  0.00000000000E+00 0.  1.
         25    2    1    2    0    0 -0.55375411734E+02  0.10478962221E+03  0.11496876112E+04  0.11625303316E+04  0.12509143605E+03 0.  0.
         23    2    1    2    0    0  0.55375411734E+02 -0.10478962221E+03  0.10207355085E+03  0.18068274405E+03  0.90443037686E+02 0.  0.
          5    1    3    3  502    0  0.65717157492E+01  0.32197038566E+00  0.57875095276E+03  0.57880344577E+03  0.41800000000E+01 0.  1.
         -5    1    3    3    0  502 -0.61947127484E+02  0.10446765183E+03  0.57093665846E+03  0.58372688585E+03  0.41800000000E+01 0.  1.
        -11    1    4    4    0    0  0.68292942435E+02 -0.82164914835E+02  0.41273469204E+02  0.11453601388E+03  0.00000000000E+00 0.  1.
         11    1    4    4    0    0 -0.12917530700E+02 -0.22624707376E+02  0.60800081648E+02  0.66146730166E+02  0.00000000000E+00 0. -1.
</event>
<event>
 8    1  0.6760442E-009  0.9400640E+02  0.7561462E-02  0.1293430E+00
          2   -1    0    0  501    0  0.00000000000E+00  0.00000000000E+00  0.36714091387E+03  0.36714091387E+03  0.00000000000E+00 0. -1.
         -2   -1    0    0    0  501 -0.00000000000E+00 -0.00000000000E+00 -0.50052603133E+02  0.50052603133E+02  0.00000000000E+00 0.  1.
         25    2    1    2    0    0 -0.76747136131E+02  0.20957978202E+02  0.20616285796E+03  0.25392969096E+03  0.12509118351E+03 0.  0.
         23    2    1    2    0    0  0.76747136131E+02 -0.20957978202E+02  0.11092545278E+03  0.16326382605E+03  0.89561493213E+02 0.  0.
          5    1    3    3  502    0 -0.47103668080E+02  0.28362791608E+02  0.10853100182E+02  0.56200228451E+02  0.41800000000E+01 0.  1.
         -5    1    3    3    0  502 -0.29643468051E+02 -0.74048134063E+01  0.19530975778E+03  0.19772946251E+03  0.41800000000E+01 0.  1.
        -11    1    4    4    0    0  0.84754839004E+02 -0.58793417795E+01  0.46989104710E+02  0.97087204903E+02  0.00000000000E+00 0.  1.
         11    1    4    4    0    0 -0.80077028732E+01 -0.15078636422E+02  0.63936348068E+02  0.66176621143E+02  0.00000000000E+00 0. -1.
</event>
<event>
 8    1  0.6760442E-009  0.6536171E+02  0.7561462E-02  0.1376616E+00
         -4   -1    0    0    0  501 -0.00000000000E+00  0.00000000000E+00  0.20552379957E+03  0.20552379957E+03  0.00000000000E+00 0.  1.
          4   -1    0    0  501    0  0.00000000000E+00 -0.00000000000E+00 -0.84798527280E+02  0.84798527280E+02  0.00000000000E+00 0. -1.
         25    2    1    2    0    0 -0.12923042368E+02 -0.42168656537E+02  0.13131253370E+03  0.18664490420E+03  0.12509251831E+03 0.  0.
         23    2    1    2    0    0  0.12923042368E+02  0.42168656537E+02 -0.10587261416E+02  0.10367742265E+03  0.93229379729E+02 0.  0.
          5    1    3    3  502    0 -0.18548898635E+02 -0.95191682472E+01 -0.21492456594E+02  0.30233661623E+02  0.41800000000E+01 0. -1.
         -5    1    3    3    0  502  0.56258562666E+01 -0.32649488290E+02  0.15280499030E+03  0.15641124258E+03  0.41800000000E+01 0. -1.
        -11    1    4    4    0    0  0.25962049204E+02 -0.55922872920E+01 -0.38553934146E+02  0.46815675945E+02  0.00000000000E+00 0. -1.
         11    1    4    4    0    0 -0.13039006836E+02  0.47760943829E+02  0.27966672730E+02  0.56861746705E+02  0.00000000000E+00 0.  1.
</event>
<event>
 8    1  0.6760442E-009  0.1221005E+03  0.7561462E-02  0.1239672E+00
         -2   -1    0    0    0  501 -0.00000000000E+00  0.00000000000E+00  0.77953984854E+02  0.77953984854E+02  0.00000000000E+00 0.  1.
          2   -1    0    0  501    0  0.00000000000E+00 -0.00000000000E+00 -0.21093439397E+03  0.21093439397E+03  0.00000000000E+00 0. -1.
         25    2    1    2    0    0 -0.53425183765E+02  0.37369077290E+02 -0.61594514887E+02  0.15392162807E+03  0.12508910874E+03 0.  0.
         23    2    1    2    0    0  0.53425183765E+02 -0.37369077290E+02 -0.71385894231E+02  0.13496675076E+03  0.94177384320E+02 0.  0.
          5    1    3    3  502    0  0.31447443977E+02  0.32814744664E+02 -0.50556090713E+02  0.68111231880E+02  0.41800000000E+01 0. -1.
         -5    1    3    3    0  502 -0.84872627742E+02  0.45543326261E+01 -0.11038424174E+02  0.85810396186E+02  0.41800000000E+01 0. -1.
        -11    1    4    4    0    0 -0.16356936649E+02 -0.40428480716E+02 -0.18587985691E+02  0.47408065153E+02  0.00000000000E+00 0. -1.
         11    1    4    4    0    0  0.69782120414E+02  0.30594034255E+01 -0.52797908540E+02  0.87558685606E+02  0.00000000000E+00 0.  1.
</event>
<event>
 8    1  0.6760442E-009  0.8965302E+02  0.7561462E-02  0.1303694E+00
          1   -1    0    0  501    0  0.00000000000E+00  0.00000000000E+00  0.17381271032E+03  0.17381271032E+03  0.00000000000E+00 0. -1.
         -1   -1    0    0    0  501 -0.00000000000E+00 -0.00000000000E+00 -0.73666349963E+02  0.73666349963E+02  0.00000000000E+00 0.  1.
         25    2    1    2    0    0  0.17685780809E+02 -0.16797237205E+02  0.85832684849E+02  0.15365079451E+03  0.12508550213E+03 0.  0.
         23    2    1    2    0    0 -0.17685780809E+02  0.16797237205E+02  0.14313675506E+02  0.93828265772E+02  0.89464675323E+02 0.  0.
          5    1    3    3  502    0 -0.50068096442E+02  0.14666062784E+02  0.30329841320E+02  0.60491977596E+02  0.41800000000E+01 0.  1.
         -5    1    3    3    0  502  0.67753877252E+02 -0.31463299989E+02  0.55502843529E+02  0.93158816913E+02  0.41800000000E+01 0.  1.
        -11    1    4    4    0    0  0.14222729697E+02 -0.30819664392E+01  0.43733236059E+02  0.46091002304E+02  0.00000000000E+00 0. -1.
         11    1    4    4    0    0 -0.31908510506E+02  0.19879203644E+02 -0.29419560553E+02  0.47737263468E+02  0.00000000000E+00 0.  1.
</event>
<event>
 8    1  0.6760442E-009  0.7560752E+02  0.7561462E-02  0.1342000E+00
         -3   -1    0    0    0  501 -0.00000000000E+00  0.00000000000E+00  0.59976655527E+02  0.59976655527E+02  0.00000000000E+00 0.  1.
          3   -1    0    0  501    0  0.00000000000E+00 -0.00000000000E+00 -0.20512403926E+03  0.20512403926E+03  0.00000000000E+00 0. -1.
         25    2    1    2    0    0 -0.10600196216E+02 -0.16723254826E+02 -0.66437332163E+02  0.14301399154E+03  0.12508817394E+03 0.  0.
         23    2    1    2    0    0  0.10600196216E+02  0.16723254826E+02 -0.78710051573E+02  0.12208670325E+03  0.91202299751E+02 0.  0.
          5    1    3    3  502    0 -0.11537818251E+02 -0.49269979635E+02 -0.89496709901E+02  0.10289696607E+03  0.41800000000E+01 0. -1.
         -5    1    3    3    0  502  0.93762203515E+00  0.32546724809E+02  0.23059377739E+02  0.40117025470E+02  0.41800000000E+01 0. -1.
        -11    1    4    4    0    0 -0.12472406559E+01  0.40778665348E+02 -0.85229543959E+02  0.94490900727E+02  0.00000000000E+00 0. -1.
         11    1    4    4    0    0  0.11847436872E+02 -0.24055410523E+02  0.65194923861E+01  0.27595802522E+02  0.00000000000E+00 0.  1.
</event>
<event>
 8    1  0.6760442E-009  0.1286538E+03  0.7561462E-02  0.1229467E+00
          1   -1    0    0  501    0  0.00000000000E+00  0.00000000000E+00  0.48334117818E+03  0.48334117818E+03  0.00000000000E+00 0. -1.
         -1   -1    0    0    0  501 -0.00000000000E+00 -0.00000000000E+00 -0.41214576767E+02  0.41214576767E+02  0.00000000000E+00 0.  1.
         25    2    1    2    0    0  0.45963031300E+02 -0.56860577725E+02  0.23919604381E+03  0.27965690462E+03  0.12509001310E+03 0.  0.
         23    2    1    2    0    0 -0.45963031300E+02  0.56860577725E+02  0.20293055760E+03  0.24489885033E+03  0.11596943623E+03 0.  0.
          5    1    3    3  502    0 -0.15865155981E+02 -0.75674169634E+02  0.10311641690E+03  0.12895251435E+03  0.41800000000E+01 0.  1.
         -5    1    3    3    0  502  0.61828187281E+02  0.18813591909E+02  0.13607962692E+03  0.15070439026E+03  0.41800000000E+01 0.  1.
        -11    1    4    4    0    0 -0.79826216476E+01 -0.24261048048E+02  0.28697065949E+01  0.25701282394E+02  0.00000000000E+00 0.  1.
         11    1    4    4    0    0 -0.37980409653E+02  0.81121625772E+02  0.20006085100E+03  0.21919756794E+03  0.00000000000E+00 0. -1.
</event>
<event>
 8    1  0.6760442E-009  0.1081186E+03  0.7561462E-02  0.1264094E+00
          3   -1    0    0  501    0  0.00000000000E+00  0.00000000000E+00  0.28287382695E+03  0.28287382695E+03  0.00000000000E+00 0. -1.
         -3   -1    0    0    0  501 -0.00000000000E+00 -0.00000000000E+00 -0.67576588284E+02  0.67576588284E+02  0.00000000000E+00 0.  1.
         25    2    1    2    0    0 -0.57640783464E+02  0.41448322440E+02  0.58343113832E+02  0.15521908334E+03  0.12509445051E+03 0.  0.
         23    2    1    2    0    0  0.57640783464E+02 -0.41448322440E+02  0.15695412483E+03  0.19523133190E+03  0.91870845756E+02 0.  0.
          5    1    3    3  502    0  0.17147155589E+02  0.43940772582E+02  0.64505211864E+02  0.80020067468E+02  0.41800000000E+01 0. -1.
         -5    1    3    3    0  502 -0.74787939054E+02 -0.24924501425E+01 -0.61620980319E+01  0.75199015870E+02  0.41800000000E+01 0. -1.
        -11    1    4    4    0    0  0.68071507595E+02 -0.21429295578E+02  0.53100738137E+02  0.88952983345E+02  0.00000000000E+00 0.  1.
         11    1    4    4    0    0 -0.10430724131E+02 -0.20019026862E+02  0.10385338670E+03  0.10627834855E+03  0.00000000000E+00 0. -1.
</event>
<event>
 8    1  0.6760442E-009  0.1696046E+03  0.7561462E-02  0.1178261E+00
          1   -1    0    0  501    0  0.00000000000E+00  0.00000000000E+00  0.20042706705E+03  0.20042706705E+03  0.00000000000E+00 0. -1.
         -1   -1    0    0    0  501 -0.00000000000E+00 -0.00000000000E+00 -0.31026457257E+03  0.31026457257E+03  0.00000000000E+00 0.  1.
         25    2    1    2    0    0 -0.91580430954E+02  0.14151229419E+03 -0.20773941653E+03  0.29532080408E+03  0.12508400137E+03 0.  0.
         23    2    1    2    0    0  0.91580430954E+02 -0.14151229419E+03  0.97901911015E+02  0.21537083554E+03  0.91581154606E+02 0.  0.
          5    1    3    3  502    0 -0.55093030784E+02  0.10610781838E+03 -0.50215341966E+02  0.12974268431E+03  0.41800000000E+01 0. -1.
         -5    1    3    3    0  502 -0.36487400169E+02  0.35404475810E+02 -0.15752407456E+03  0.16557811977E+03  0.41800000000E+01 0. -1.
        -11    1    4    4    0    0  0.70219818987E+02 -0.10748577904E+03  0.11437738404E+03  0.17194825284E+03  0.00000000000E+00 0. -1.
         11    1    4    4    0    0  0.21360611966E+02 -0.34026515155E+02 -0.16475473024E+02  0.43422582702E+02  0.00000000000E+00 0.  1.
</event>
<event>
 8    1  0.6760442E-009  0.1353524E+03  0.7561462E-02  0.1219723E+00
          3   -1    0    0  501    0  0.00000000000E+00  0.00000000000E+00  0.33796818076E+02  0.33796818076E+02  0.00000000000E+00 0. -1.
         -3   -1    0    0    0  501 -0.00000000000E+00 -0.00000000000E+00 -0.63683612544E+03  0.63683612544E+03  0.00000000000E+00 0.  1.
         25    2    1    2    0    0  0.89072555787E+02 -0.91982855492E+01 -0.42180882662E+03  0.44897571585E+03  0.12505190342E+03 0.  0.
         23    2    1    2    0    0 -0.89072555787E+02  0.91982855492E+01 -0.18123048074E+03  0.22165722767E+03  0.90933551446E+02 0.  0.
          5    1    3    3  502    0  0.38162995352E+02 -0.59911121265E+02 -0.12769653097E+03  0.14618355957E+03  0.41800000000E+01 0. -1.
         -5    1    3    3    0  502  0.50909560435E+02  0.50712835716E+02 -0.29411229565E+03  0.30279215628E+03  0.41800000000E+01 0. -1.
        -11    1    4    4    0    0 -0.66309944871E+02  0.48498270380E+02 -0.11975464417E+03  0.14522488016E+03  0.00000000000E+00 0. -1.
         11    1    4    4    0    0 -0.22762610916E+02 -0.39299984831E+02 -0.61475836574E+02  0.76432347510E+02  0.00000000000E+00 0.  1.
</event>
<event>
 8    1  0.6760442E-009  0.2063126E+03  0.7561462E-02  0.1144520E+00
          1   -1    0    0  501    0  0.00000000000E+00  0.00000000000E+00  0.39117241573E+03  0.39117241573E+03  0.00000000000E+00 0. -1.
         -1   -1    0    0    0  501 -0.00000000000E+00 -0.00000000000E+00 -0.12440358449E+03  0.12440358449E+03  0.00000000000E+00 0.  1.
         25    2    1    2    0    0 -0.90339335355E+02 -0.16660081749E+03  0.17221229430E+03  0.28500595438E+03  0.12511711243E+03 0.  0.
         23    2    1    2    0    0  0.90339335355E+02  0.16660081749E+03  0.94556536945E+02  0.23057004584E+03  0.91129465372E+02 0.  0.
          5    1    3    3  502    0 -0.65282745405E+02 -0.16587426987E+03  0.18467018336E+03  0.25670344617E+03  0.41800000000E+01 0. -1.
         -5    1    3    3    0  502 -0.25056589950E+02 -0.72654762005E+00 -0.12457889057E+02  0.28302508212E+02  0.41800000000E+01 0. -1.
        -11    1    4    4    0    0  0.27953393978E+01  0.97063294877E+02  0.57172996802E+02  0.11268473143E+03  0.00000000000E+00 0. -1.
         11    1    4    4    0    0  0.87543995957E+02  0.69537522614E+02  0.37383540143E+02  0.11788531441E+03  0.00000000000E+00 0.  1.
</event>
<event>
 8    1  0.6760442E-009  0.9233512E+02  0.7561462E-02  0.1297293E+00
          1   -1    0    0  501    0  0.00000000000E+00  0.00000000000E+00  0.14003560962E+03  0.14003560962E+03  0.00000000000E+00 0. -1.
         -1   -1    0    0    0  501 -0.00000000000E+00 -0.00000000000E+00 -0.11969313619E+03  0.11969313619E+03  0.00000000000E+00 0.  1.
         25    2    1    2    0    0  0.11839929518E+02 -0.31650297189E+02 -0.51157551349E+02  0.13930168089E+03  0.12508372394E+03 0.  0.
         23    2    1    2    0    0 -0.11839929518E+02  0.31650297189E+02  0.71500024778E+02  0.12042706492E+03  0.90821248503E+02 0.  0.
          5    1    3    3  502    0  0.60636465134E+02  0.13248067315E+02 -0.16470939524E+02  0.64351040709E+02  0.41800000000E+01 0. -1.
         -5    1    3    3    0  502 -0.48796535616E+02 -0.44898364504E+02 -0.34686611825E+02  0.74950640178E+02  0.41800000000E+01 0. -1.
        -11    1    4    4    0    0  0.13936641027E+02 -0.15132704915E+01  0.76819873246E+02  0.78088493879E+02  0.00000000000E+00 0. -1.
         11    1    4    4    0    0 -0.25776570545E+02  0.33163567680E+02 -0.53198484683E+01  0.42338571044E+02  0.00000000000E+00 0.  1.
</event>
<event>
 8    1  0.6760442E-009  0.1009753E+03  0.7561462E-02  0.1278258E+00
          2   -1    0    0  501    0  0.00000000000E+00  0.00000000000E+00  0.15579956730E+03  0.15579956730E+03  0.00000000000E+00 0. -1.
         -2   -1    0    0    0  501 -0.00000000000E+00 -0.00000000000E+00 -0.99614090060E+02  0.99614090060E+02  0.00000000000E+00 0.  1.
         25    2    1    2    0    0 -0.53110925953E+02  0.24838941240E+02  0.46284475618E+02  0.14565603255E+03  0.12504272741E+03 0.  0.
         23    2    1    2    0    0  0.53110925953E+02 -0.24838941240E+02  0.99010016193E+01  0.10975762481E+03  0.92254880159E+02 0.  0.
          5    1    3    3  502    0  0.16771129221E+02 -0.36965998235E+02 -0.13375419297E+01  0.40829122196E+02  0.41800000000E+01 0. -1.
         -5    1    3    3    0  502 -0.69882055173E+02  0.61804939475E+02  0.47622017547E+02  0.10482691035E+03  0.41800000000E+01 0. -1.
        -11    1    4    4    0    0  0.83434822785E+01  0.85226869355E+01  0.43155398226E+02  0.44773187124E+02  0.00000000000E+00 0. -1.
         11    1    4    4    0    0  0.44767443674E+02 -0.33361628175E+02 -0.33254396607E+02  0.64984437686E+02  0.00000000000E+00 0.  1.
</event>
<event>
 8    1  0.6760442E-009  0.8248977E+02  0.7561462E-02  0.1322131E+00
          2   -1    0    0  501    0  0.00000000000E+00  0.00000000000E+00  0.28705234105E+03  0.28705234105E+03  0.00000000000E+00 0. -1.
         -2   -1    0    0    0  501 -0.00000000000E+00 -0.00000000000E+00 -0.44508410063E+02  0.44508410063E+02  0.00000000000E+00 0.  1.
         25    2    1    2    0    0 -0.18222198737E+01  0.22585457690E+02  0.18706965694E+03  0.22616588096E+03  0.12507008346E+03 0.  0.
         23    2    1    2    0    0  0.18222198737E+01 -0.22585457690E+02  0.55474274050E+02  0.10539487016E+03  0.86702134863E+02 0.  0.
          5    1    3    3  502    0  0.35673088596E+02 -0.14058889571E+02  0.16445151504E+03  0.16891416407E+03  0.41800000000E+01 0. -1.
         -5    1    3    3    0  502 -0.37495308469E+02  0.36644347261E+02  0.22618141904E+02  0.57251716888E+02  0.41800000000E+01 0. -1.
        -11    1    4    4    0    0 -0.21691166616E+02  0.17144078908E+02  0.52252508532E+02  0.59116417336E+02  0.00000000000E+00 0. -1.
         11    1    4    4    0    0  0.23513386490E+02 -0.39729536598E+02  0.32217655183E+01  0.46278452822E+02  0.00000000000E+00 0.  1.
</event>
<event>
 8    1  0.6760442E-009  0.1026461E+03  0.7561462E-02  0.1274828E+00
          1   -1    0    0  501    0  0.00000000000E+00  0.00000000000E+00  0.11882549865E+03  0.11882549865E+03  0.00000000000E+00 0. -1.
         -1   -1    0    0    0  501 -0.00000000000E+00 -0.00000000000E+00 -0.10513941779E+03  0.10513941779E+03  0.00000000000E+00 0.  1.
         25    2    1    2    0    0 -0.33261387951E+02 -0.29747735010E+02  0.35105384267E+02  0.13737367728E+03  0.12509153264E+03 0.  0.
         23    2    1    2    0    0  0.33261387951E+02  0.29747735010E+02 -0.21419303408E+02  0.86591239167E+02  0.71049338318E+02 0.  0.
          5    1    3    3  502    0 -0.19345685808E+02 -0.76384358088E+02  0.39661811643E+02  0.88313970710E+02  0.41800000000E+01 0.  1.
         -5    1    3    3    0  502 -0.13915702142E+02  0.46636623078E+02 -0.45564273761E+01  0.49059706569E+02  0.41800000000E+01 0.  1.
        -11    1    4    4    0    0  0.50775272756E+02  0.11137657752E+02 -0.29523960962E+02  0.59781602643E+02  0.00000000000E+00 0.  1.
         11    1    4    4    0    0 -0.17513884806E+02  0.18610077257E+02  0.81046575539E+01  0.26809636525E+02  0.00000000000E+00 0. -1.
</event>
<event>
 8    1  0.6760442E-009  0.1151301E+03  0.7561462E-02  0.1251354E+00
         -2   -1    0    0    0  501 -0.00000000000E+00  0.00000000000E+00  0.19130768796E+03  0.19130768796E+03  0.00000000000E+00 0.  1.
          2   -1    0    0  501    0  0.00000000000E+00 -0.00000000000E+00 -0.95212673796E+02  0.95212673796E+02  0.00000000000E+00 0. -1.
         25    2    1    2    0    0 -0.10359669493E+02  0.64535859023E+02  0.10141574841E+03  0.17380036407E+03  0.12509681320E+03 0.  0.
         23    2    1    2    0    0  0.10359669493E+02 -0.64535859023E+02 -0.53207342455E+01  0.11271999769E+03  0.91680356749E+02 0.  0.
          5    1    3    3  502    0  0.44850920513E+02  0.21172202501E+02 -0.73791798743E+00  0.49778350239E+02  0.41800000000E+01 0.  1.
         -5    1    3    3    0  502 -0.55210590006E+02  0.43363656522E+02  0.10215366639E+03  0.12402201383E+03  0.41800000000E+01 0.  1.
        -11    1    4    4    0    0 -0.28515713476E+02  0.64399430351E+01 -0.11823051813E+02  0.31534161406E+02  0.00000000000E+00 0. -1.
         11    1    4    4    0    0  0.38875382970E+02 -0.70975802058E+02  0.65023175679E+01  0.81185836281E+02  0.00000000000E+00 0.  1.
</event>
<event>
 8    1  0.6760442E-009  0.1027586E+03  0.7561462E-02  0.1274600E+00
         -2   -1    0    0    0  501 -0.00000000000E+00  0.00000000000E+00  0.38481277897E+02  0.38481277897E+02  0.00000000000E+00 0. -1.
          2   -1    0    0  501    0  0.00000000000E+00 -0.00000000000E+00 -0.34872431983E+03  0.34872431983E+03  0.00000000000E+00 0.  1.
         25    2    1    2    0    0 -0.13594459481E+02 -0.38667002979E+02 -0.17983968428E+03  0.22285622354E+03  0.12507053163E+03 0.  0.
         23    2    1    2    0    0  0.13594459481E+02  0.38667002979E+02 -0.13040335765E+03  0.16434937418E+03  0.91245463771E+02 0.  0.
          5    1    3    3  502    0 -0.22650963438E+02  0.35424762967E+02 -0.11960469758E+03  0.12684926511E+03  0.41800000000E+01 0.  1.
         -5    1    3    3    0  502  0.90565039567E+01 -0.74091765946E+02 -0.60234986699E+02  0.96006958433E+02  0.41800000000E+01 0.  1.
        -11    1    4    4    0    0  0.30440814412E+02  0.56370413720E+02 -0.12321734607E+03  0.13887685588E+03  0.00000000000E+00 0.  1.
         11    1    4    4    0    0 -0.16846354931E+02 -0.17703410741E+02 -0.71860115788E+01  0.25472518304E+02  0.00000000000E+00 0. -1.
</event>
<event>
 8    1  0.6760442E-009  0.9280337E+02  0.7561462E-02  0.1296201E+00
         -1   -1    0    0    0  501 -0.00000000000E+00  0.00000000000E+00  0.30075519962E+02  0.30075519962E+02  0.00000000000E+00 0.  1.
          1   -1    0    0  501    0  0.00000000000E+00 -0.00000000000E+00 -0.53270130289E+03  0.53270130289E+03  0.00000000000E+00 0. -1.
         25    2    1    2    0    0  0.51989757803E+02 -0.26430748559E+02 -0.35398927587E+03  0.37994311136E+03  0.12508733371E+03 0.  0.
         23    2    1    2    0    0 -0.51989757803E+02  0.26430748559E+02 -0.14863650706E+03  0.18283371149E+03  0.89072080033E+02 0.  0.
          5    1    3    3  502    0  0.57834504523E+02 -0.54941595782E+02 -0.12026332376E+03  0.14437502659E+03  0.41800000000E+01 0.  1.
         -5    1    3    3    0  502 -0.58447467199E+01  0.28510847223E+02 -0.23372595211E+03  0.23556808478E+03  0.41800000000E+01 0.  1.
        -11    1    4    4    0    0 -0.37553489667E+02  0.41147957405E+02 -0.31704521991E+02  0.64098328367E+02  0.00000000000E+00 0.  1.
         11    1    4    4    0    0 -0.14436268135E+02 -0.14717208846E+02 -0.11693198507E+03  0.11873538312E+03  0.00000000000E+00 0. -1.
</event>
<event>
 8    1  0.6760442E-009  0.1056863E+03  0.7561462E-02  0.1268773E+00
         -2   -1    0    0    0  501 -0.00000000000E+00  0.00000000000E+00  0.20279300279E+02  0.20279300279E+02  0.00000000000E+00 0.  1.
          2   -1    0    0  501    0  0.00000000000E+00 -0.00000000000E+00 -0.66753436479E+03  0.66753436479E+03  0.00000000000E+00 0. -1.
         25    2    1    2    0    0  0.33577456787E+02 -0.14176554628E+02 -0.42679623857E+03  0.44625777914E+03  0.12515013336E+03 0.  0.
         23    2    1    2    0    0 -0.33577456787E+02  0.14176554628E+02 -0.22045882594E+03  0.24155588593E+03  0.91753647265E+02 0.  0.
          5    1    3    3  502    0 -0.24630657370E+02  0.41600533588E+02 -0.13312891197E+03  0.14169704753E+03  0.41800000000E+01 0.  1.
         -5    1    3    3    0  502  0.58208114157E+02 -0.55777088217E+02 -0.29366732660E+03  0.30456073161E+03  0.41800000000E+01 0.  1.
        -11    1    4    4    0    0 -0.53129453233E+02  0.26126436523E+02 -0.20628201878E+03  0.21461034634E+03  0.00000000000E+00 0. -1.
         11    1    4    4    0    0  0.19551996446E+02 -0.11949881894E+02 -0.14176807163E+02  0.26945539587E+02  0.00000000000E+00 0.  1.
</event>
<event>
 8    1  0.6760442E-009  0.9518160E+02  0.7561462E-02  0.1290768E+00
         -2   -1    0    0    0  501 -0.00000000000E+00  0.00000000000E+00  0.41021648908E+02  0.41021648908E+02  0.00000000000E+00 0.  1.
          2   -1    0    0  501    0  0.00000000000E+00 -0.00000000000E+00 -0.52719451452E+03  0.52719451452E+03  0.00000000000E+00 0. -1.
         25    2    1    2    0    0  0.57292381622E+02 -0.70568246187E+01 -0.41895804779E+03  0.44102785290E+03  0.12508998943E+03 0.  0.
         23    2    1    2    0    0 -0.57292381622E+02  0.70568246187E+01 -0.67214817818E+02  0.12718831053E+03  0.91251404567E+02 0.  0.
          5    1    3    3  502    0  0.67796003874E+02 -0.40035838087E+02 -0.14669184639E+03  0.16653869421E+03  0.41800000000E+01 0. -1.
         -5    1    3    3    0  502 -0.10503622252E+02  0.32979013468E+02 -0.27226620141E+03  0.27448915869E+03  0.41800000000E+01 0. -1.
        -11    1    4    4    0    0 -0.10618944244E+02  0.24599333382E+02  0.15244023957E+02  0.30826440698E+02  0.00000000000E+00 0.  1.
         11    1    4    4    0    0 -0.46673437378E+02 -0.17542508764E+02 -0.82458841776E+02  0.96361869831E+02  0.00000000000E+00 0. -1.
</event>
<event>
 8    1  0.6760442E-009  0.1038314E+03  0.7561462E-02  0.1272439E+00
          1   -1    0    0  501    0  0.00000000000E+00  0.00000000000E+00  0.33483309452E+03  0.33483309452E+03  0.00000000000E+00 0. -1.
         -1   -1    0    0    0  501 -0.00000000000E+00 -0.00000000000E+00 -0.65684200168E+02  0.65684200168E+02  0.00000000000E+00 0.  1.
         25    2    1    2    0    0  0.31490846354E+02  0.39210657205E+02  0.24711628260E+02  0.13707216056E+03  0.12509581763E+03 0.  0.
         23    2    1    2    0    0 -0.31490846354E+02 -0.39210657205E+02  0.24443726609E+03  0.26344513412E+03  0.84407420269E+02 0.  0.
          5    1    3    3  502    0  0.39866473246E+02  0.77615345953E+02  0.38148399828E+02  0.95321825548E+02  0.41800000000E+01 0.  1.
         -5    1    3    3    0  502 -0.83756268928E+01 -0.38404688748E+02 -0.13436771568E+02  0.41750335015E+02  0.41800000000E+01 0.  1.
        -11    1    4    4    0    0  0.44155925940E+01 -0.44294463602E+02  0.20537736077E+03  0.21014603799E+03  0.00000000000E+00 0.  1.
         11    1    4    4    0    0 -0.35906438948E+02  0.50838063974E+01  0.39059905317E+02  0.53299096135E+02  0.00000000000E+00 0. -1.
</event>
<event>
 8    1  0.6760442E-009  0.1151523E+03  0.7561462E-02  0.1251315E+00
         -1   -1    0    0    0  501 -0.00000000000E+00  0.00000000000E+00  0.48835066319E+02  0.48835066319E+02  0.00000000000E+00 0. -1.
          1   -1    0    0  501    0  0.00000000000E+00 -0.00000000000E+00 -0.38400172208E+03  0.38400172208E+03  0.00000000000E+00 0.  1.
         25    2    1    2    0    0  0.75645436190E+02 -0.45350925508E+02 -0.17600012985E+03  0.23324575012E+03  0.12509434752E+03 0.  0.
         23    2    1    2    0    0 -0.75645436190E+02  0.45350925508E+02 -0.15916652591E+03  0.19959103828E+03  0.81997933683E+02 0.  0.
          5    1    3    3  502    0 -0.16674823465E+02 -0.23786758288E+01 -0.11103688758E+03  0.11238492176E+03  0.41800000000E+01 0. -1.
         -5    1    3    3    0  502  0.92320259656E+02 -0.42972249679E+02 -0.64963242267E+02  0.12086082836E+03  0.41800000000E+01 0. -1.
        -11    1    4    4    0    0 -0.35791958068E+02  0.58914452262E+02 -0.58265223514E+02  0.90259698752E+02  0.00000000000E+00 0.  1.
         11    1    4    4    0    0 -0.39853478123E+02 -0.13563526754E+02 -0.10090130240E+03  0.10933133952E+03  0.00000000000E+00 0. -1.
</event>
<event>
 8    1  0.6760442E-009  0.1142100E+03  0.7561462E-02  0.1252966E+00
         -3   -1    0    0    0  501 -0.00000000000E+00  0.00000000000E+00  0.15583133054E+02  0.15583133054E+02  0.00000000000E+00 0.  1.
          3   -1    0    0  501    0  0.00000000000E+00 -0.00000000000E+00 -0.87395193000E+03  0.87395193000E+03  0.00000000000E+00 0. -1.
         25    2    1    2    0    0  0.25003711516E+02  0.31718882501E+02 -0.48331025683E+03  0.50086738956E+03  0.12509222385E+03 0.  0.
         23    2    1    2    0    0 -0.25003711516E+02 -0.31718882501E+02 -0.37505854011E+03  0.38866767349E+03  0.93607578812E+02 0.  0.
          5    1    3    3  502    0  0.49602176917E+02 -0.34557938776E+02 -0.22864557137E+03  0.23653941911E+03  0.41800000000E+01 0. -1.
         -5    1    3    3    0  502 -0.24598465401E+02  0.66276821276E+02 -0.25466468547E+03  0.26432797045E+03  0.41800000000E+01 0. -1.
        -11    1    4    4    0    0 -0.31905600694E+02 -0.59966332624E+02 -0.31079898035E+03  0.31813508859E+03  0.00000000000E+00 0. -1.
         11    1    4    4    0    0  0.69018891781E+01  0.28247450123E+02 -0.64259559760E+02  0.70532584903E+02  0.00000000000E+00 0.  1.
</event>
<event>
 8    1  0.6760442E-009  0.1105084E+03  0.7561462E-02  0.1259631E+00
          3   -1    0    0  501    0  0.00000000000E+00  0.00000000000E+00  0.68743995825E+03  0.68743995825E+03  0.00000000000E+00 0. -1.
         -3   -1    0    0    0  501 -0.00000000000E+00 -0.00000000000E+00 -0.31091834559E+02  0.31091834559E+02  0.00000000000E+00 0.  1.
         25    2    1    2    0    0  0.13113994210E+02  0.69407851743E+02  0.53542190225E+03  0.55435864034E+03  0.12508981568E+03 0.  0.
         23    2    1    2    0    0 -0.13113994210E+02 -0.69407851743E+02  0.12092622144E+03  0.16417315246E+03  0.85675236971E+02 0.  0.
          5    1    3    3  502    0 -0.32673581964E+02  0.60199976390E+02  0.46316022950E+03  0.46821626489E+03  0.41800000000E+01 0.  1.
         -5    1    3    3    0  502  0.45787576175E+02  0.92078753534E+01  0.72261672745E+02  0.86142375452E+02  0.41800000000E+01 0.  1.
        -11    1    4    4    0    0 -0.12967306005E+02 -0.86974522702E+02  0.11666943538E+03  0.14609748723E+03  0.00000000000E+00 0. -1.
         11    1    4    4    0    0 -0.14668820511E+00  0.17566670958E+02  0.42567860643E+01  0.18075665232E+02  0.00000000000E+00 0.  1.
</event>
<event>
 8    1  0.6760442E-009  0.7563779E+02  0.7561462E-02  0.1341907E+00
          1   -1    0    0  501    0  0.00000000000E+00  0.00000000000E+00  0.67542861507E+02  0.67542861507E+02  0.00000000000E+00 0. -1.
         -1   -1    0    0    0  501 -0.00000000000E+00 -0.00000000000E+00 -0.19696666552E+03  0.19696666552E+03  0.00000000000E+00 0.  1.
         25    2    1    2    0    0 -0.13405888337E+02 -0.34321376341E+02 -0.10006363358E+03  0.16437049816E+03  0.12508898906E+03 0.  0.
         23    2    1    2    0    0  0.13405888337E+02  0.34321376341E+02 -0.29360170435E+02  0.10013902887E+03  0.88363628145E+02 0.  0.
          5    1    3    3  502    0 -0.22172139289E+02 -0.39450020801E+02  0.15703882391E+02  0.48083180261E+02  0.41800000000E+01 0. -1.
         -5    1    3    3    0  502  0.87662509523E+01  0.51286444596E+01 -0.11576751597E+03  0.11628731789E+03  0.41800000000E+01 0. -1.
        -11    1    4    4    0    0 -0.36277304573E+02  0.25607311313E+02 -0.69580150550E+01  0.44946537055E+02  0.00000000000E+00 0.  1.
         11    1    4    4    0    0  0.49683192909E+02  0.87140650283E+01 -0.22402155380E+02  0.55192491814E+02  0.00000000000E+00 0. -1.
</event>
<event>
 8    1  0.6760442E-009  0.1511007E+03  0.7561462E-02  0.1199127E+00
          1   -1    0    0  501    0  0.00000000000E+00  0.00000000000E+00  0.52463452198E+03  0.52463452198E+03  0.00000000000E+00 0. -1.
         -1   -1    0    0    0  501 -0.00000000000E+00 -0.00000000000E+00 -0.61539382515E+02  0.61539382515E+02  0.00000000000E+00 0.  1.
         25    2    1    2    0    0  0.11309125585E+03 -0.45103105459E+02  0.36823866439E+03  0.40751785036E+03  0.12508861713E+03 0.  0.
         23    2    1    2    0    0 -0.11309125585E+03  0.45103105459E+02  0.94856475078E+02  0.17865605414E+03  0.89979511811E+02 0.  0.
          5    1    3    3  502    0  0.23484593817E+02  0.33863079352E+02  0.37592457995E+02  0.55936567539E+02  0.41800000000E+01 0.  1.
         -5    1    3    3    0  502  0.89606662031E+02 -0.78966184811E+02  0.33064620640E+03  0.35158128282E+03  0.41800000000E+01 0.  1.
        -11    1    4    4    0    0 -0.54867510297E+02  0.59864984691E+02  0.85409448297E+02  0.11785174558E+03  0.00000000000E+00 0. -1.
         11    1    4    4    0    0 -0.58223745551E+02 -0.14761879232E+02  0.94470267807E+01  0.60804308559E+02  0.00000000000E+00 0.  1.
</event>
<event>
 8    1  0.6760442E-009  0.1170111E+03  0.7561462E-02  0.1248111E+00
          2   -1    0    0  501    0  0.00000000000E+00  0.00000000000E+00  0.35759499779E+03  0.35759499779E+03  0.00000000000E+00 0. -1.
         -2   -1    0    0    0  501 -0.00000000000E+00 -0.00000000000E+00 -0.54960669599E+02  0.54960669599E+02  0.00000000000E+00 0.  1.
         25    2    1    2    0    0  0.52715968623E+02  0.63850757182E+02  0.21606618521E+03  0.26303591249E+03  0.12508957722E+03 0.  0.
         23    2    1    2    0    0 -0.52715968623E+02 -0.63850757182E+02  0.86568142976E+02  0.14951975489E+03  0.89477489816E+02 0.  0.
          5    1    3    3  502    0  0.93592844908E+02  0.36437307323E+02  0.14047107087E+03  0.17273358717E+03  0.41800000000E+01 0.  1.
         -5    1    3    3    0  502 -0.40876876285E+02  0.27413449859E+02  0.75595114338E+02  0.90302325329E+02  0.41800000000E+01 0.  1.
        -11    1    4    4    0    0 -0.33532832551E+02 -0.50922142778E+02  0.10399933773E+03  0.12055445961E+03  0.00000000000E+00 0. -1.
         11    1    4    4    0    0 -0.19183136072E+02 -0.12928614404E+02 -0.17431194755E+02  0.28965295278E+02  0.00000000000E+00 0.  1.
</event>
<event>
 8    1  0.6760442E-009  0.1218267E+03  0.7561462E-02  0.1240114E+00
         -1   -1    0    0    0  501 -0.00000000000E+00  0.00000000000E+00  0.89396052225E+02  0.89396052225E+02  0.00000000000E+00 0.  1.
          1   -1    0    0  501    0  0.00000000000E+00 -0.00000000000E+00 -0.19340332620E+03  0.19340332620E+03  0.00000000000E+00 0. -1.
         25    2    1    2    0    0 -0.56545984959E+01 -0.73698658821E+02 -0.63012222822E+02  0.15836853207E+03  0.12508630992E+03 0.  0.
         23    2    1    2    0    0  0.56545984959E+01  0.73698658821E+02 -0.40995051154E+02  0.12443084636E+03  0.91317985685E+02 0.  0.
          5    1    3    3  502    0  0.39294343383E+02  0.12964613467E+02  0.91609096242E+00  0.41598536595E+02  0.41800000000E+01 0. -1.
         -5    1    3    3    0  502 -0.44948941878E+02 -0.86663272288E+02 -0.63928313784E+02  0.11676999547E+03  0.41800000000E+01 0. -1.
        -11    1    4    4    0    0  0.57134555166E+01  0.88932133214E+02 -0.54172085559E+02  0.10428893875E+03  0.00000000000E+00 0. -1.
         11    1    4    4    0    0 -0.58857020747E-01 -0.15233474394E+02  0.13177034405E+02  0.20141907605E+02  0.00000000000E+00 0.  1.
</event>
<event>
 8    1  0.6760442E-009  0.9162082E+02  0.7561462E-02  0.1298973E+00
         -2   -1    0    0    0  501 -0.00000000000E+00  0.00000000000E+00  0.48716869219E+03  0.48716869219E+03  0.00000000000E+00 0.  1.
          2   -1    0    0  501    0  0.00000000000E+00 -0.00000000000E+00 -0.29343395475E+02  0.29343395475E+02  0.00000000000E+00 0. -1.
         25    2    1    2    0    0 -0.31374061502E+02 -0.12393662091E+02  0.17652346008E+03  0.21896758256E+03  0.12509330781E+03 0.  0.
         23    2    1    2    0    0  0.31374061502E+02  0.12393662091E+02  0.28130183663E+03  0.29754450510E+03  0.90906955887E+02 0.  0.
          5    1    3    3  502    0  0.35369233759E+02  0.24621639919E+02  0.26960911736E+02  0.51005597836E+02  0.41800000000E+01 0. -1.
         -5    1    3    3    0  502 -0.66743295261E+02 -0.37015302010E+02  0.14956254834E+03  0.16796198472E+03  0.41800000000E+01 0. -1.
        -11    1    4    4    0    0 -0.14226280617E+02 -0.44368820764E+01  0.32193965847E+01  0.15245900994E+02  0.00000000000E+00 0. -1.
         11    1    4    4    0    0  0.45600342119E+02  0.16830544167E+02  0.27808244005E+03  0.28229860411E+03  0.00000000000E+00 0.  1.
</event>
<event>
 8    1  0.6760442E-009  0.8489882E+02  0.7561462E-02  0.1315697E+00
          1   -1    0    0  501    0  0.00000000000E+00  0.00000000000E+00  0.78391517856E+03  0.78391517856E+03  0.00000000000E+00 0. -1.
         -1   -1    0    0    0  501 -0.00000000000E+00 -0.00000000000E+00 -0.20284995569E+02  0.20284995569E+02  0.00000000000E+00 0.  1.
         25    2    1    2    0    0 -0.41682816267E+02 -0.70532948138E+01  0.57735965332E+03  0.59226630406E+03  0.12509196418E+03 0.  0.
         23    2    1    2    0    0  0.41682816267E+02  0.70532948138E+01  0.18627052967E+03  0.21193387007E+03  0.91826188633E+02 0.  0.
          5    1    3    3  502    0  0.16394773110E+02 -0.57845074808E+01  0.46819844618E+03  0.46853975981E+03  0.41800000000E+01 0.  1.
         -5    1    3    3    0  502 -0.58077589377E+02 -0.12687873330E+01  0.10916120714E+03  0.12372654426E+03  0.41800000000E+01 0.  1.
        -11    1    4    4    0    0  0.67424969044E+02  0.81127524982E+01  0.92909164034E+02  0.11508282220E+03  0.00000000000E+00 0.  1.
         11    1    4    4    0    0 -0.25742152777E+02 -0.10594576844E+01  0.93361365632E+02  0.96851047867E+02  0.00000000000E+00 0. -1.
</event>
<event>
 8    1  0.6760442E-009  0.2726692E+03  0.7561462E-02  0.1099762E+00
          2   -1    0    0  501    0  0.00000000000E+00  0.00000000000E+00  0.78404526042E+03  0.78404526042E+03  0.00000000000E+00 0. -1.
         -2   -1    0    0    0  501 -0.00000000000E+00 -0.00000000000E+00 -0.20003851513E+03  0.20003851513E+03  0.00000000000E+00 0.  1.
         25    2    1    2    0    0 -0.74112422281E+02  0.25110151497E+03 -0.48067469841E+02  0.29411403872E+03  0.12509182291E+03 0.  0.
         23    2    1    2    0    0  0.74112422281E+02 -0.25110151497E+03  0.63207421513E+03  0.68996973683E+03  0.89419250479E+02 0.  0.
          5    1    3    3  502    0 -0.85493367447E+02  0.10383795489E+03 -0.56864341141E+02  0.14609059671E+03  0.41800000000E+01 0.  1.
         -5    1    3    3    0  502  0.11380945166E+02  0.14726356007E+03  0.87968712997E+01  0.14802344201E+03  0.41800000000E+01 0.  1.
        -11    1    4    4    0    0  0.27907916475E+02 -0.13869548898E+03  0.23094026698E+03  0.27082964641E+03  0.00000000000E+00 0. -1.
         11    1    4    4    0    0  0.46204505806E+02 -0.11240602599E+03  0.40113394815E+03  0.41914009042E+03  0.00000000000E+00 0.  1.
</event>
<event>
 8    1  0.6760442E-009  0.1787683E+03  0.7561462E-02  0.1169000E+00
          1   -1    0    0  501    0  0.00000000000E+00  0.00000000000E+00  0.89494306159E+03  0.89494306159E+03  0.00000000000E+00 0. -1.
         -1   -1    0    0    0  501 -0.00000000000E+00 -0.00000000000E+00 -0.52305548842E+02  0.52305548842E+02  0.00000000000E+00 0.  1.
         25    2    1    2    0    0  0.32870723500E+02 -0.16935553306E+03  0.28045959769E+03  0.35223476332E+03  0.12509980622E+03 0.  0.
         23    2    1    2    0    0 -0.32870723500E+02  0.16935553306E+03  0.56217791506E+03  0.59501384711E+03  0.90750697123E+02 0.  0.
          5    1    3    3  502    0 -0.13371489301E+02 -0.99723785837E+02  0.61917386112E+02  0.11821533441E+03  0.41800000000E+01 0.  1.
         -5    1    3    3    0  502  0.46242212801E+02 -0.69631747224E+02  0.21854221158E+03  0.23401942891E+03  0.41800000000E+01 0.  1.
        -11    1    4    4    0    0 -0.30971476091E+02  0.12623109430E+03  0.51465140699E+03  0.53081031661E+03  0.00000000000E+00 0.  1.
         11    1    4    4    0    0 -0.18992474090E+01  0.43124438766E+02  0.47526508064E+02  0.64203530498E+02  0.00000000000E+00 0. -1.
</event>
<event>
 8    1  0.6760442E-009  0.2002361E+03  0.7561462E-02  0.1149540E+00
         -3   -1    0    0    0  501 -0.00000000000E+00  0.00000000000E+00  0.39947373883E+02  0.39947373883E+02  0.00000000000E+00 0.  1.
          3   -1    0    0  501    0  0.00000000000E+00 -0.00000000000E+00 -0.11702644147E+04  0.11702644147E+04  0.00000000000E+00 0. -1.
         25    2    1    2    0    0 -0.10538079508E+03  0.15145643555E+03 -0.66603636179E+03  0.70235012085E+03  0.12508834153E+03 0.  0.
         23    2    1    2    0    0  0.10538079508E+03 -0.15145643555E+03 -0.46428067897E+03  0.50786166768E+03  0.91229166335E+02 0.  0.
          5    1    3    3  502    0 -0.43500864409E+01  0.10358114722E+03 -0.41023987777E+03  0.42315742582E+03  0.41800000000E+01 0.  1.
         -5    1    3    3    0  502 -0.10103070864E+03  0.47875288325E+02 -0.25579648402E+03  0.27919269503E+03  0.41800000000E+01 0.  1.
        -11    1    4    4    0    0  0.74392257726E+02 -0.97841741809E+02 -0.40061665447E+03  0.41904763248E+03  0.00000000000E+00 0. -1.
         11    1    4    4    0    0  0.30988537357E+02 -0.53614693740E+02 -0.63664024502E+02  0.88814035198E+02  0.00000000000E+00 0.  1.
</event>
<event>
 8    1  0.6760442E-009  0.1063764E+03  0.7561462E-02  0.1267431E+00
          4   -1    0    0  501    0  0.00000000000E+00  0.00000000000E+00  0.36828434242E+03  0.36828434242E+03  0.00000000000E+00 0. -1.
         -4   -1    0    0    0  501 -0.00000000000E+00 -0.00000000000E+00 -0.58318519575E+02  0.58318519575E+02  0.00000000000E+00 0.  1.
         25    2    1    2    0    0  0.67828242701E+02 -0.10085522479E+02  0.70398100995E+02  0.15912134889E+03  0.12514520677E+03 0.  0.
         23    2    1    2    0    0 -0.67828242701E+02  0.10085522479E+02  0.23956772185E+03  0.26748151310E+03  0.97217684749E+02 0.  0.
          5    1    3    3  502    0  0.83937099253E+02 -0.18313016987E+01  0.95928129715E+02  0.12754790773E+03  0.41800000000E+01 0. -1.
         -5    1    3    3    0  502 -0.16108856551E+02 -0.82542207800E+01 -0.25530028720E+02  0.31573441158E+02  0.41800000000E+01 0. -1.
        -11    1    4    4    0    0  0.20533388015E+02 -0.31296547828E+01  0.14506229241E+02  0.25334668919E+02  0.00000000000E+00 0.  1.
         11    1    4    4    0    0 -0.88361630716E+02  0.13215177261E+02  0.22506149261E+03  0.24214684418E+03  0.00000000000E+00 0. -1.
</event>
<event>
 8    1  0.6760442E-009  0.1303398E+03  0.7561462E-02  0.1226952E+00
         -2   -1    0    0    0  501 -0.00000000000E+00  0.00000000000E+00  0.19765506252E+02  0.19765506252E+02  0.00000000000E+00 0.  1.
          2   -1    0    0  501    0  0.00000000000E+00 -0.00000000000E+00 -0.89747020758E+03  0.89747020758E+03  0.00000000000E+00 0. -1.
         25    2    1    2    0    0  0.17924933155E+02  0.80221761278E+02 -0.51293085923E+03  0.53432460285E+03  0.12509148913E+03 0.  0.
         23    2    1    2    0    0 -0.17924933155E+02 -0.80221761278E+02 -0.36477384210E+03  0.38291111098E+03  0.82487143364E+02 0.  0.
          5    1    3    3  502    0  0.39505364589E+02 -0.19629436252E+02 -0.20938683262E+03  0.21402407965E+03  0.41800000000E+01 0.  1.
         -5    1    3    3    0  502 -0.21580431434E+02  0.99851197530E+02 -0.30354402661E+03  0.32030052320E+03  0.41800000000E+01 0.  1.
        -11    1    4    4    0    0 -0.49549428796E+02 -0.49230462539E+02 -0.25877220411E+03  0.26803327770E+03  0.00000000000E+00 0.  1.
         11    1    4    4    0    0  0.31624495640E+02 -0.30991298739E+02 -0.10600163799E+03  0.11487783328E+03  0.00000000000E+00 0. -1.
</event>
<event>
 8    1  0.6760442E-009  0.3440180E+03  0.7561462E-02  0.1065097E+00
         -2   -1    0    0    0  501 -0.00000000000E+00  0.00000000000E+00  0.13284310238E+04  0.13284310238E+04  0.00000000000E+00 0.  1.
          2   -1    0    0  501    0  0.00000000000E+00 -0.00000000000E+00 -0.93946751964E+02  0.93946751964E+02  0.00000000000E+00 0. -1.
         25    2    1    2    0    0  0.25362486310E+03  0.21204043223E+03  0.50486732916E+03  0.61629871465E+03  0.12508544895E+03 0.  0.
         23    2    1    2    0    0 -0.25362486310E+03 -0.21204043223E+03  0.72961694270E+03  0.80607906114E+03  0.90198967026E+02 0.  0.
          5    1    3    3  502    0  0.16780995831E+03  0.59403546724E+02  0.24316553151E+03  0.30138996596E+03  0.41800000000E+01 0.  1.
         -5    1    3    3    0  502  0.85814904792E+02  0.15263688551E+03  0.26170179765E+03  0.31490874868E+03  0.41800000000E+01 0.  1.
        -11    1    4    4    0    0 -0.15163408380E+03 -0.15954888298E+03  0.39282040494E+03  0.45028503414E+03  0.00000000000E+00 0.  1.
         11    1    4    4    0    0 -0.10199077930E+03 -0.52491549250E+02  0.33679653776E+03  0.35579402700E+03  0.00000000000E+00 0. -1.
</event>
<event>
 7    1  0.6760442E-009  0.1436137E+03  0.7561462E-02  0.1208548E+00
         -1   -1    0    0    0  501 -0.00000000000E+00  0.00000000000E+00  0.14414315185E+03  0.14414315185E+03  0.00000000000E+00 0.  1.
          1   -1    0    0  501    0  0.00000000000E+00 -0.00000000000E+00 -0.17027587882E+03  0.17027587882E+03  0.00000000000E+00 0. -1.
         23    2    1    2    0    0  0.10587647527E+03  0.35067541395E+02  0.55007851552E+01  0.14372906595E+03  0.90488813034E+02 0.  0.
          5    1    1    2  502    0 -0.63772194539E+02 -0.66244046350E+02 -0.61058071174E+02  0.11045690077E+03  0.41800000000E+01 0.  1.
         -5    1    1    2    0  502 -0.42104280735E+02  0.31176504954E+02  0.29424559054E+02  0.60233063951E+02  0.41800000000E+01 0. -1.
        -11    1    3    3    0    0  0.62781850654E+02 -0.25940649848E+02 -0.58350270710E+01  0.68180097001E+02  0.00000000000E+00 0.  1.
         11    1    3    3    0    0  0.43094624619E+02  0.61008191243E+02  0.11335812226E+02  0.75548968945E+02  0.00000000000E+00 0. -1.
</event>
<event>
 8    1  0.6760442E-009  0.1130349E+03  0.7561462E-02  0.1255051E+00
          1   -1    0    0  501    0  0.00000000000E+00  0.00000000000E+00  0.61356383518E+03  0.61356383518E+03  0.00000000000E+00 0. -1.
         -1   -1    0    0    0  501 -0.00000000000E+00 -0.00000000000E+00 -0.23551018024E+02  0.23551018024E+02  0.00000000000E+00 0.  1.
         25    2    1    2    0    0  0.25205820293E+02  0.38136304480E+02  0.39998347691E+03  0.42157343582E+03  0.12509064269E+03 0.  0.
         23    2    1    2    0    0 -0.25205820293E+02 -0.38136304480E+02  0.19002934025E+03  0.21554141739E+03  0.90869364252E+02 0.  0.
          5    1    3    3  502    0 -0.23454627586E+02  0.65919538585E+02  0.28638922188E+03  0.29484193041E+03  0.41800000000E+01 0.  1.
         -5    1    3    3    0  502  0.48660447879E+02 -0.27783234104E+02  0.11359425503E+03  0.12673150540E+03  0.41800000000E+01 0.  1.
        -11    1    4    4    0    0 -0.55376010389E+02 -0.59859612765E+01  0.84885188114E+02  0.10152748111E+03  0.00000000000E+00 0.  1.
         11    1    4    4    0    0  0.30170190097E+02 -0.32150343204E+02  0.10514415213E+03  0.11401393628E+03  0.00000000000E+00 0. -1.
</event>
<event>
 8    1  0.6760442E-009  0.1098213E+03  0.7561462E-02  0.1260901E+00
         -1   -1    0    0    0  501 -0.00000000000E+00  0.00000000000E+00  0.69286339008E+02  0.69286339008E+02  0.00000000000E+00 0. -1.
          1   -1    0    0  501    0  0.00000000000E+00 -0.00000000000E+00 -0.28601813343E+03  0.28601813343E+03  0.00000000000E+00 0.  1.
         25    2    1    2    0    0 -0.22947131941E+02 -0.16769166964E+02 -0.22730074407E+03  0.26099899040E+03  0.12508824449E+03 0.  0.
         23    2    1    2    0    0  0.22947131941E+02  0.16769166964E+02  0.10568949652E+02  0.94305482035E+02  0.89297510716E+02 0.  0.
          5    1    3    3  502    0 -0.12108279085E+02  0.54524960352E+02 -0.96358619924E+02  0.11145419578E+03  0.41800000000E+01 0.  1.
         -5    1    3    3    0  502 -0.10838852856E+02 -0.71294127316E+02 -0.13094212415E+03  0.14954479462E+03  0.41800000000E+01 0.  1.
        -11    1    4    4    0    0  0.33631355741E+02 -0.28994547055E+02 -0.52646882350E+01  0.44715420049E+02  0.00000000000E+00 0.  1.
         11    1    4    4    0    0 -0.10684223801E+02  0.45763714019E+02  0.15833637887E+02  0.49590061986E+02  0.00000000000E+00 0. -1.
</event>
<event>
 8    1  0.6760442E-009  0.5735509E+02  0.7561462E-02  0.1409279E+00
          3   -1    0    0  501    0  0.00000000000E+00  0.00000000000E+00  0.34111577833E+03  0.34111577833E+03  0.00000000000E+00 0. -1.
         -3   -1    0    0    0  501 -0.00000000000E+00 -0.00000000000E+00 -0.43575542415E+02  0.43575542415E+02  0.00000000000E+00 0.  1.
         25    2    1    2    0    0 -0.96593704683E+01  0.37972294559E+02  0.23138474148E+03  0.26593642498E+03  0.12509230572E+03 0.  0.
         23    2    1    2    0    0  0.96593704683E+01 -0.37972294559E+02  0.66155494437E+02  0.11875489576E+03  0.90504017766E+02 0.  0.
          5    1    3    3  502    0  0.23077280333E+02  0.10764252775E+01  0.21116151369E+03  0.21246264806E+03  0.41800000000E+01 0.  1.
         -5    1    3    3    0  502 -0.32736650802E+02  0.36895869281E+02  0.20223227792E+02  0.53473776920E+02  0.41800000000E+01 0.  1.
        -11    1    4    4    0    0  0.10760574123E+02 -0.13641018173E+02  0.85751710387E+02  0.87494132184E+02  0.00000000000E+00 0. -1.
         11    1    4    4    0    0 -0.11012036548E+01 -0.24331276386E+02 -0.19596215950E+02  0.31260763580E+02  0.00000000000E+00 0.  1.
</event>
<event>
 8    1  0.6760442E-009  0.1184749E+03  0.7561462E-02  0.1245634E+00
          2   -1    0    0  501    0  0.00000000000E+00  0.00000000000E+00  0.32911504197E+02  0.32911504197E+02  0.00000000000E+00 0. -1.
         -2   -1    0    0    0  501 -0.00000000000E+00 -0.00000000000E+00 -0.45030656884E+03  0.45030656884E+03  0.00000000000E+00 0.  1.
         25    2    1    2    0    0  0.43028254480E+01 -0.54824199898E+02 -0.26152711959E+03  0.29507308411E+03  0.12508990159E+03 0.  0.
         23    2    1    2    0    0 -0.43028254480E+01  0.54824199898E+02 -0.15586794504E+03  0.18814498892E+03  0.89886113298E+02 0.  0.
          5    1    3    3  502    0 -0.60420166241E+01  0.39453751574E+02 -0.99394015486E+02  0.10719023833E+03  0.41800000000E+01 0. -1.
         -5    1    3    3    0  502  0.10344842072E+02 -0.94277951471E+02 -0.16213310411E+03  0.18788284578E+03  0.41800000000E+01 0. -1.
        -11    1    4    4    0    0 -0.54638827373E+01 -0.23207255228E+02 -0.59775374146E+02  0.64354689526E+02  0.00000000000E+00 0.  1.
         11    1    4    4    0    0  0.11610572893E+01  0.78031455126E+02 -0.96092570898E+02  0.12379029940E+03  0.00000000000E+00 0. -1.
</event>
<event>
 8    1  0.6760442E-009  0.2415451E+03  0.7561462E-02  0.1118768E+00
         -2   -1    0    0    0  501 -0.00000000000E+00  0.00000000000E+00  0.56348045125E+02  0.56348045125E+02  0.00000000000E+00 0.  1.
          2   -1    0    0  501    0  0.00000000000E+00 -0.00000000000E+00 -0.12262387954E+04  0.12262387954E+04  0.00000000000E+00 0. -1.
         25    2    1    2    0    0 -0.23456401157E+03  0.23584809499E+02 -0.50017617882E+03  0.56692229900E+03  0.12509262361E+03 0.  0.
         23    2    1    2    0    0  0.23456401157E+03 -0.23584809499E+02 -0.66971457145E+03  0.71566454152E+03  0.89897775335E+02 0.  0.
          5    1    3    3  502    0 -0.14760623329E+03  0.33139136954E+01 -0.17163838253E+03  0.22644157941E+03  0.41800000000E+01 0. -1.
         -5    1    3    3    0  502 -0.86957778287E+02  0.20270895803E+02 -0.32853779629E+03  0.34048071959E+03  0.41800000000E+01 0. -1.
        -11    1    4    4    0    0  0.56300575154E+02  0.24447726058E+02 -0.10601334069E+03  0.12250009990E+03  0.00000000000E+00 0. -1.
         11    1    4    4    0    0  0.17826343642E+03 -0.48032535557E+02 -0.56370123076E+03  0.59316444162E+03  0.00000000000E+00 0.  1.
</event>
<event>
 8    1  0.6760442E-009  0.9275425E+02  0.7561462E-02  0.1296316E+00
          1   -1    0    0  501    0  0.00000000000E+00  0.00000000000E+00  0.50203200776E+02  0.50203200776E+02  0.00000000000E+00 0. -1.
         -1   -1    0    0    0  501 -0.00000000000E+00 -0.00000000000E+00 -0.37855876464E+03  0.37855876464E+03  0.00000000000E+00 0.  1.
         25    2    1    2    0    0 -0.14566600311E+02  0.76332551275E+02 -0.14594647639E+03  0.20733426430E+03  0.12509308117E+03 0.  0.
         23    2    1    2    0    0  0.14566600311E+02 -0.76332551275E+02 -0.18240908747E+03  0.22142770111E+03  0.98581475929E+02 0.  0.
          5    1    3    3  502    0 -0.28969973133E+02 -0.28273500832E+00  0.11615443951E+02  0.31491748452E+02  0.41800000000E+01 0.  1.
         -5    1    3    3    0  502  0.14403372821E+02  0.76615286283E+02 -0.15756192034E+03  0.17584251585E+03  0.41800000000E+01 0.  1.
        -11    1    4    4    0    0  0.15531056004E+01 -0.30060027381E+02 -0.16881119433E+03  0.17147372019E+03  0.00000000000E+00 0.  1.
         11    1    4    4    0    0  0.13013494711E+02 -0.46272523893E+02 -0.13597893143E+02  0.49953980922E+02  0.00000000000E+00 0. -1.
</event>
<event>
 8    1  0.6760442E-009  0.1383835E+03  0.7561462E-02  0.1215521E+00
         -2   -1    0    0    0  501 -0.00000000000E+00  0.00000000000E+00  0.27330849002E+03  0.27330849002E+03  0.00000000000E+00 0.  1.
          2   -1    0    0  501    0  0.00000000000E+00 -0.00000000000E+00 -0.81688375991E+02  0.81688375991E+02  0.00000000000E+00 0. -1.
         25    2    1    2    0    0 -0.89282066906E+02  0.49317139431E+02  0.11387941110E+03  0.19753462619E+03  0.12509172859E+03 0.  0.
         23    2    1    2    0    0  0.89282066906E+02 -0.49317139431E+02  0.77740702924E+02  0.15746223981E+03  0.91363408226E+02 0.  0.
          5    1    3    3  502    0 -0.51670711113E+00  0.52391344752E+02  0.92015565170E+02  0.10596913053E+03  0.41800000000E+01 0.  1.
         -5    1    3    3    0  502 -0.88765359795E+02 -0.30742053211E+01  0.21863845930E+02  0.91565495667E+02  0.41800000000E+01 0.  1.
        -11    1    4    4    0    0  0.20242102691E+02 -0.61888425564E+02  0.49604255440E+02  0.81856594712E+02  0.00000000000E+00 0.  1.
         11    1    4    4    0    0  0.69039964215E+02  0.12571286134E+02  0.28136447485E+02  0.75605645100E+02  0.00000000000E+00 0. -1.
</event>
<event>
 8    1  0.6760442E-009  0.1206174E+03  0.7561462E-02  0.1242082E+00
         -4   -1    0    0    0  501 -0.00000000000E+00  0.00000000000E+00  0.54200634565E+02  0.54200634565E+02  0.00000000000E+00 0.  1.
          4   -1    0    0  501    0  0.00000000000E+00 -0.00000000000E+00 -0.37498195394E+03  0.37498195394E+03  0.00000000000E+00 0. -1.
         25    2    1    2    0    0  0.46252579965E+01 -0.88835589511E+02 -0.14765166757E+03  0.21299387853E+03  0.12510884213E+03 0.  0.
         23    2    1    2    0    0 -0.46252579965E+01  0.88835589511E+02 -0.17312965180E+03  0.21618870997E+03  0.94077239602E+02 0.  0.
          5    1    3    3  502    0  0.20924502507E+02 -0.92825307907E+02 -0.16370574072E+03  0.18939750404E+03  0.41800000000E+01 0. -1.
         -5    1    3    3    0  502 -0.16299244511E+02  0.39897183962E+01  0.16054073145E+02  0.23596374490E+02  0.41800000000E+01 0. -1.
        -11    1    4    4    0    0 -0.21583032853E+02 -0.13173877846E+02 -0.44090619703E+02  0.50826775526E+02  0.00000000000E+00 0.  1.
         11    1    4    4    0    0  0.16957774856E+02  0.10200946736E+03 -0.12903903210E+03  0.16536193445E+03  0.00000000000E+00 0. -1.
</event>
<event>
 8    1  0.6760442E-009  0.1085059E+03  0.7561462E-02  0.1263362E+00
         -1   -1    0    0    0  501 -0.00000000000E+00  0.00000000000E+00  0.31352734268E+02  0.31352734268E+02  0.00000000000E+00 0.  1.
          1   -1    0    0  501    0  0.00000000000E+00 -0.00000000000E+00 -0.44456881035E+03  0.44456881035E+03  0.00000000000E+00 0. -1.
         25    2    1    2    0    0 -0.36622464966E+01 -0.29821707551E+02 -0.30626385555E+03  0.33220599537E+03  0.12514203074E+03 0.  0.
         23    2    1    2    0    0  0.36622464966E+01  0.29821707551E+02 -0.10695222054E+03  0.14371554925E+03  0.91173654784E+02 0.  0.
          5    1    3    3  502    0 -0.37585807209E+02  0.37273709400E+02 -0.11562072500E+03  0.12723068327E+03  0.41800000000E+01 0.  1.
         -5    1    3    3    0  502  0.33923560712E+02 -0.67095416950E+02 -0.19064313055E+03  0.20497531211E+03  0.41800000000E+01 0.  1.
        -11    1    4    4    0    0  0.26157803330E+02  0.51253492883E+02 -0.93653399609E+02  0.10991865386E+03  0.00000000000E+00 0. -1.
         11    1    4    4    0    0 -0.22495556834E+02 -0.21431785332E+02 -0.13298820930E+02  0.33796895389E+02  0.00000000000E+00 0.  1.
</event>
<event>
 8    1  0.6760442E-009  0.1023873E+03  0.7561462E-02  0.1275354E+00
         -2   -1    0    0    0  501 -0.00000000000E+00  0.00000000000E+00  0.30528208840E+03  0.30528208840E+03  0.00000000000E+00 0.  1.
          2   -1    0    0  501    0  0.00000000000E+00 -0.00000000000E+00 -0.50755893321E+02  0.50755893321E+02  0.00000000000E+00 0. -1.
         25    2    1    2    0    0 -0.50097398918E+02 -0.38187996455E+01  0.94426661334E+02  0.16458485702E+03  0.12508976050E+03 0.  0.
         23    2    1    2    0    0  0.50097398918E+02  0.38187996455E+01  0.16009953375E+03  0.19145312470E+03  0.92185170400E+02 0.  0.
          5    1    3    3  502    0  0.22302575496E+02  0.32973379664E+02  0.76930639134E-01  0.40026578152E+02  0.41800000000E+01 0. -1.
         -5    1    3    3    0  502 -0.72399974414E+02 -0.36792179310E+02  0.94349730694E+02  0.12455827887E+03  0.41800000000E+01 0. -1.
        -11    1    4    4    0    0  0.51222276719E+02 -0.23309705119E+02  0.15352809028E+03  0.16351739507E+03  0.00000000000E+00 0.  1.
         11    1    4    4    0    0 -0.11248778006E+01  0.27128504765E+02  0.65714434703E+01  0.27935729633E+02  0.00000000000E+00 0. -1.
</event>
<event>
 8    1  0.6760442E-009  0.1207978E+03  0.7561462E-02  0.1241787E+00
          3   -1    0    0  501    0  0.00000000000E+00  0.00000000000E+00  0.96662962961E+03  0.96662962961E+03  0.00000000000E+00 0. -1.
         -3   -1    0    0    0  501 -0.00000000000E+00 -0.00000000000E+00 -0.20188683015E+02  0.20188683015E+02  0.00000000000E+00 0.  1.
         25    2    1    2    0    0 -0.11110708319E+02 -0.78116003243E+02  0.38851815285E+03  0.41571514328E+03  0.12508863839E+03 0.  0.
         23    2    1    2    0    0  0.11110708319E+02  0.78116003243E+02  0.55792279374E+03  0.57110316935E+03  0.93034555177E+02 0.  0.
          5    1    3    3  502    0 -0.55614323157E+02 -0.17062814649E+02  0.26099952350E+03  0.26743656491E+03  0.41800000000E+01 0. -1.
         -5    1    3    3    0  502  0.44503614838E+02 -0.61053188594E+02  0.12751862935E+03  0.14827857837E+03  0.41800000000E+01 0. -1.
        -11    1    4    4    0    0  0.20924743344E+02  0.89880927679E+02  0.53857333239E+03  0.54642260240E+03  0.00000000000E+00 0. -1.
         11    1    4    4    0    0 -0.98140350251E+01 -0.11764924436E+02  0.19349461352E+02  0.24680566952E+02  0.00000000000E+00 0.  1.
</event>
<event>
 8    1  0.6760442E-009  0.1124645E+03  0.7561462E-02  0.1256073E+00
          2   -1    0    0  501    0  0.00000000000E+00  0.00000000000E+00  0.75920955394E+03  0.75920955394E+03  0.00000000000E+00 0. -1.
         -2   -1    0    0    0  501 -0.00000000000E+00 -0.00000000000E+00 -0.17434172427E+02  0.17434172427E+02  0.00000000000E+00 0.  1.
         25    2    1    2    0    0  0.52984904645E+01  0.31398940804E+02  0.50267092100E+03  0.51897672578E+03  0.12507925328E+03 0.  0.
         23    2    1    2    0    0 -0.52984904645E+01 -0.31398940804E+02  0.23910446052E+03  0.25766700058E+03  0.90594550979E+02 0.  0.
          5    1    3    3  502    0  0.14989021632E+02 -0.47147419755E+02  0.18089152383E+03  0.18758135769E+03  0.41800000000E+01 0.  1.
         -5    1    3    3    0  502 -0.96905311676E+01  0.78546360560E+02  0.32177939717E+03  0.33139536809E+03  0.41800000000E+01 0.  1.
        -11    1    4    4    0    0  0.60734170761E+01  0.31514702833E+02  0.79764258132E+02  0.85979065854E+02  0.00000000000E+00 0. -1.
         11    1    4    4    0    0 -0.11371907541E+02 -0.62913643637E+02  0.15934020238E+03  0.17168793473E+03  0.00000000000E+00 0.  1.
</event>
<event>
 8    1  0.6760442E-009  0.1160252E+03  0.7561462E-02  0.1249802E+00
          2   -1    0    0  501    0  0.00000000000E+00  0.00000000000E+00  0.14704586910E+02  0.14704586910E+02  0.00000000000E+00 0. -1.
         -2   -1    0    0    0  501 -0.00000000000E+00 -0.00000000000E+00 -0.10150863433E+04  0.10150863433E+04  0.00000000000E+00 0.  1.
         25    2    1    2    0    0 -0.53953918689E+02 -0.15578102432E+02 -0.60902646252E+03  0.62427207797E+03  0.12509473472E+03 0.  0.
         23    2    1    2    0    0  0.53953918689E+02  0.15578102432E+02 -0.39135529386E+03  0.40551885224E+03  0.90182431059E+02 0.  0.
          5    1    3    3  502    0 -0.46163147457E+02  0.48971074292E+02 -0.22975154202E+03  0.23944194653E+03  0.41800000000E+01 0. -1.
         -5    1    3    3    0  502 -0.77907712323E+01 -0.64549176724E+02 -0.37927492051E+03  0.38483013143E+03  0.41800000000E+01 0. -1.
        -11    1    4    4    0    0  0.57237875653E+02 -0.22315321633E+02 -0.16656167287E+03  0.17753010691E+03  0.00000000000E+00 0. -1.
         11    1    4    4    0    0 -0.32839569638E+01  0.37893424065E+02 -0.22479362099E+03  0.22798874533E+03  0.00000000000E+00 0.  1.
</event>
<event>
 8    1  0.6760442E-009  0.1417384E+03  0.7561462E-02  0.1211009E+00
         -2   -1    0    0    0  501 -0.00000000000E+00  0.00000000000E+00  0.39926621320E+03  0.39926621320E+03  0.00000000000E+00 0.  1.
          2   -1    0    0  501    0  0.00000000000E+00 -0.00000000000E+00 -0.58830921396E+02  0.58830921396E+02  0.00000000000E+00 0. -1.
         25    2    1    2    0    0  0.45297130712E+02  0.10171165675E+03  0.20003101463E+03  0.26087861562E+03  0.12509258214E+03 0.  0.
         23    2    1    2    0    0 -0.45297130712E+02 -0.10171165675E+03  0.14040427717E+03  0.19721851897E+03  0.82369241886E+02 0.  0.
          5    1    3    3  502    0  0.88206938716E+02  0.69516918837E+02  0.11968827418E+03  0.16418228108E+03  0.41800000000E+01 0. -1.
         -5    1    3    3    0  502 -0.42909808004E+02  0.32194737909E+02  0.80342740448E+02  0.96696334546E+02  0.41800000000E+01 0. -1.
        -11    1    4    4    0    0  0.14226333775E+01 -0.39284155887E+02  0.32436971252E+01  0.39443508472E+02  0.00000000000E+00 0. -1.
         11    1    4    4    0    0 -0.46719764090E+02 -0.62427500859E+02  0.13716058004E+03  0.15777501050E+03  0.00000000000E+00 0.  1.
</event>
<event>
 8    1  0.6760442E-009  0.3041197E+03  0.7561462E-02  0.1083199E+00
         -2   -1    0    0    0  501 -0.00000000000E+00  0.00000000000E+00  0.12396559450E+04  0.12396559450E+04  0.00000000000E+00 0.  1.
          2   -1    0    0  501    0  0.00000000000E+00 -0.00000000000E+00 -0.83068423952E+02  0.83068423952E+02  0.00000000000E+00 0. -1.
         25    2    1    2    0    0  0.28203846766E+03 -0.90458359314E+02  0.70731737039E+03  0.77696564984E+03  0.12509734840E+03 0.  0.
         23    2    1    2    0    0 -0.28203846766E+03  0.90458359314E+02  0.44927015062E+03  0.54575871907E+03  0.90997248235E+02 0.  0.
          5    1    3    3  502    0  0.14276000070E+03 -0.27314474531E+02  0.49058266643E+03  0.51167892601E+03  0.41800000000E+01 0. -1.
         -5    1    3    3    0  502  0.13927846696E+03 -0.63143884783E+02  0.21673470395E+03  0.26528672383E+03  0.41800000000E+01 0. -1.
        -11    1    4    4    0    0 -0.96391786227E+02 -0.13090392181E+02  0.13975683742E+03  0.17027832635E+03  0.00000000000E+00 0.  1.
         11    1    4    4    0    0 -0.18564668144E+03  0.10354875150E+03  0.30951331320E+03  0.37548039272E+03  0.00000000000E+00 0. -1.
</event>
<event>
 8    1  0.6760442E-009  0.1604679E+03  0.7561462E-02  0.1188170E+00
          3   -1    0    0  501    0  0.00000000000E+00  0.00000000000E+00  0.12214233420E+03  0.12214233420E+03  0.00000000000E+00 0. -1.
         -3   -1    0    0    0  501 -0.00000000000E+00 -0.00000000000E+00 -0.25559327615E+03  0.25559327615E+03  0.00000000000E+00 0.  1.
         25    2    1    2    0    0  0.30366628805E+01 -0.13801104272E+03 -0.49776935669E+02  0.19282367700E+03  0.12508780057E+03 0.  0.
         23    2    1    2    0    0 -0.30366628805E+01  0.13801104272E+03 -0.83674006281E+02  0.18491193334E+03  0.90193206674E+02 0.  0.
          5    1    3    3  502    0 -0.54776771360E+02 -0.94557531582E+02 -0.90860830131E+01  0.10973445568E+03  0.41800000000E+01 0.  1.
         -5    1    3    3    0  502  0.57813434241E+02 -0.43453511141E+02 -0.40690852656E+02  0.83089221317E+02  0.41800000000E+01 0.  1.
        -11    1    4    4    0    0 -0.91144528630E+01  0.44369406683E+02 -0.78868495904E+02  0.90950300420E+02  0.00000000000E+00 0.  1.
         11    1    4    4    0    0  0.60777899825E+01  0.93641636040E+02 -0.48055103769E+01  0.93961632922E+02  0.00000000000E+00 0. -1.
</event>
<event>
 8    1  0.6760442E-009  0.1483459E+03  0.7561462E-02  0.1202520E+00
          2   -1    0    0  501    0  0.00000000000E+00  0.00000000000E+00  0.94428751770E+02  0.94428751770E+02  0.00000000000E+00 0. -1.
         -2   -1    0    0    0  501 -0.00000000000E+00 -0.00000000000E+00 -0.32244102843E+03  0.32244102843E+03  0.00000000000E+00 0.  1.
         25    2    1    2    0    0  0.10800740100E+03 -0.53638665867E+02 -0.45395333276E+02  0.17958497055E+03  0.12508924902E+03 0.  0.
         23    2    1    2    0    0 -0.10800740100E+03  0.53638665867E+02 -0.18261694338E+03  0.23728480964E+03  0.91719287672E+02 0.  0.
          5    1    3    3  502    0  0.12404249524E+03 -0.73388825770E+02 -0.51469197173E+02  0.15309804385E+03  0.41800000000E+01 0. -1.
         -5    1    3    3    0  502 -0.16035094244E+02  0.19750159903E+02  0.60738638973E+01  0.26486926704E+02  0.41800000000E+01 0. -1.
        -11    1    4    4    0    0 -0.83767499073E+02  0.21525617267E+02 -0.17654830329E+03  0.19659514107E+03  0.00000000000E+00 0.  1.
         11    1    4    4    0    0 -0.24239901924E+02  0.32113048599E+02 -0.60686400922E+01  0.40689668568E+02  0.00000000000E+00 0. -1.
</event>
<event>
 8    1  0.6760442E-009  0.1185731E+03  0.7561462E-02  0.1245470E+00
         -1   -1    0    0    0  501 -0.00000000000E+00  0.00000000000E+00  0.58085978620E+02  0.58085978620E+02  0.00000000000E+00 0.  1.
          1   -1    0    0  501    0  0.00000000000E+00 -0.00000000000E+00 -0.25212518075E+03  0.25212518075E+03  0.00000000000E+00 0. -1.
         25    2    1    2    0    0  0.40064977107E+02 -0.30739543892E+02 -0.10419300202E+03  0.17045095824E+03  0.12508887059E+03 0.  0.
         23    2    1    2    0    0 -0.40064977107E+02  0.30739543892E+02 -0.89846200109E+02  0.13976020113E+03  0.94395191601E+02 0.  0.
          5    1    3    3  502    0 -0.44205043733E+02  0.16730868150E+01 -0.31626025085E+02  0.54539554211E+02  0.41800000000E+01 0.  1.
         -5    1    3    3    0  502  0.84270020840E+02 -0.32412630707E+02 -0.72566976938E+02  0.11591140403E+03  0.41800000000E+01 0.  1.
        -11    1    4    4    0    0 -0.29527131957E+01  0.56864979867E+02 -0.69973640341E+02  0.90214493253E+02  0.00000000000E+00 0. -1.
         11    1    4    4    0    0 -0.37112263911E+02 -0.26125435975E+02 -0.19872559768E+02  0.49545707879E+02  0.00000000000E+00 0.  1.
</event>
<event>
 8    1  0.6760442E-009  0.1942944E+03  0.7561462E-02  0.1154644E+00
          4   -1    0    0  501    0  0.00000000000E+00  0.00000000000E+00  0.15630058445E+03  0.15630058445E+03  0.00000000000E+00 0. -1.
         -4   -1    0    0    0  501 -0.00000000000E+00 -0.00000000000E+00 -0.31664851962E+03  0.31664851962E+03  0.00000000000E+00 0.  1.
         25    2    1    2    0    0  0.44597198922E+02  0.17578578790E+03 -0.15777631926E+03  0.27098294072E+03  0.12509529913E+03 0.  0.
         23    2    1    2    0    0 -0.44597198922E+02 -0.17578578790E+03 -0.25716159107E+01  0.20196616335E+03  0.88849111135E+02 0.  0.
          5    1    3    3  502    0 -0.16462589110E+02 -0.79562024614E+00 -0.55276875095E+02  0.57832993802E+02  0.41800000000E+01 0.  1.
         -5    1    3    3    0  502  0.61059788033E+02  0.17658140815E+03 -0.10249944416E+03  0.21314994692E+03  0.41800000000E+01 0.  1.
        -11    1    4    4    0    0 -0.28805536325E+01 -0.82027806186E+02 -0.41793578475E+02  0.92106252657E+02  0.00000000000E+00 0.  1.
         11    1    4    4    0    0 -0.41716645290E+02 -0.93757981713E+02  0.39221962564E+02  0.10985991069E+03  0.00000000000E+00 0. -1.
</event>
<event>
 8    1  0.6760442E-009  0.1125208E+03  0.7561462E-02  0.1255972E+00
         -1   -1    0    0    0  501 -0.00000000000E+00  0.00000000000E+00  0.31111807677E+02  0.31111807677E+02  0.00000000000E+00 0.  1.
          1   -1    0    0  501    0  0.00000000000E+00 -0.00000000000E+00 -0.49009315483E+03  0.49009315483E+03  0.00000000000E+00 0. -1.
         25    2    1    2    0    0  0.54524250070E+02 -0.20371049022E+02 -0.27288332925E+03  0.30577910610E+03  0.12509067456E+03 0.  0.
         23    2    1    2    0    0 -0.54524250070E+02  0.20371049022E+02 -0.18609801791E+03  0.21542585641E+03  0.91585773221E+02 0.  0.
          5    1    3    3  502    0  0.18066239825E+02  0.42602824984E+02 -0.18912260708E+03  0.19474655998E+03  0.41800000000E+01 0. -1.
         -5    1    3    3    0  502  0.36458010245E+02 -0.62973874006E+02 -0.83760722172E+02  0.11103254612E+03  0.41800000000E+01 0. -1.
        -11    1    4    4    0    0 -0.76595017969E+02  0.29129385981E+02 -0.16226232093E+03  0.18178112855E+03  0.00000000000E+00 0. -1.
         11    1    4    4    0    0  0.22070767899E+02 -0.87583369598E+01 -0.23835696977E+02  0.33644727853E+02  0.00000000000E+00 0.  1.
</event>
<event>
 8    1  0.6760442E-009  0.1404605E+03  0.7561462E-02  0.1212711E+00
          1   -1    0    0  501    0  0.00000000000E+00  0.00000000000E+00  0.57085902641E+03  0.57085902641E+03  0.00000000000E+00 0. -1.
         -1   -1    0    0    0  501 -0.00000000000E+00 -0.00000000000E+00 -0.45267257609E+02  0.45267257609E+02  0.00000000000E+00 0.  1.
         25    2    1    2    0    0  0.92072076336E+02  0.73869853128E+02  0.32254875887E+03  0.36553921761E+03  0.12508874979E+03 0.  0.
         23    2    1    2    0    0 -0.92072076336E+02 -0.73869853128E+02  0.20304300993E+03  0.25058706641E+03  0.87369282509E+02 0.  0.
          5    1    3    3  502    0  0.86811070959E+01 -0.16505006307E+02  0.16270535454E+03  0.16382393491E+03  0.41800000000E+01 0. -1.
         -5    1    3    3    0  502  0.83390969241E+02  0.90374859435E+02  0.15984340433E+03  0.20171528271E+03  0.41800000000E+01 0. -1.
        -11    1    4    4    0    0 -0.65059183127E+02 -0.87078881500E+02  0.18752088475E+03  0.21674757468E+03  0.00000000000E+00 0. -1.
         11    1    4    4    0    0 -0.27012893210E+02  0.13209028372E+02  0.15522125180E+02  0.33839491725E+02  0.00000000000E+00 0.  1.
</event>
<event>
 8    1  0.6760442E-009  0.1395237E+03  0.7561462E-02  0.1213971E+00
         -2   -1    0    0    0  501 -0.00000000000E+00  0.00000000000E+00  0.85881091538E+03  0.85881091538E+03  0.00000000000E+00 0.  1.
          2   -1    0    0  501    0  0.00000000000E+00 -0.00000000000E+00 -0.23965314269E+02  0.23965314269E+02  0.00000000000E+00 0. -1.
         25    2    1    2    0    0  0.91759511591E+02 -0.21501977725E+01  0.41648703290E+03  0.44444523112E+03  0.12508270694E+03 0.  0.
         23    2    1    2    0    0 -0.91759511591E+02  0.21501977725E+01  0.41835856821E+03  0.43833099853E+03  0.93197324834E+02 0.  0.
          5    1    3    3  502    0 -0.15138358903E+02  0.34206344472E+02  0.15658649443E+03  0.16104672164E+03  0.41800000000E+01 0.  1.
         -5    1    3    3    0  502  0.10689787049E+03 -0.36356542245E+02  0.25990053846E+03  0.28339850948E+03  0.41800000000E+01 0.  1.
        -11    1    4    4    0    0 -0.11913439834E+02  0.38782545321E+02  0.96098694674E+02  0.10431191202E+03  0.00000000000E+00 0. -1.
         11    1    4    4    0    0 -0.79846071757E+02 -0.36632347549E+02  0.32225987354E+03  0.33401908651E+03  0.00000000000E+00 0.  1.
</event>
<event>
 8    1  0.6760442E-009  0.1055252E+03  0.7561462E-02  0.1269088E+00
         -1   -1    0    0    0  501 -0.00000000000E+00  0.00000000000E+00  0.12641739307E+03  0.12641739307E+03  0.00000000000E+00 0.  1.
          1   -1    0    0  501    0  0.00000000000E+00 -0.00000000000E+00 -0.15673202741E+03  0.15673202741E+03  0.00000000000E+00 0. -1.
         25    2    1    2    0    0 -0.15954501674E+02 -0.19184190799E+01 -0.10347845063E+03  0.16313407261E+03  0.12508680764E+03 0.  0.
         23    2    1    2    0    0  0.15954501674E+02  0.19184190799E+01  0.73163816291E+02  0.12001534787E+03  0.93768402217E+02 0.  0.
          5    1    3    3  502    0 -0.60685830586E+02  0.32268623743E+02 -0.47658231774E+02  0.83742543357E+02  0.41800000000E+01 0.  1.
         -5    1    3    3    0  502  0.44731328912E+02 -0.34187042823E+02 -0.55820218859E+02  0.79391529250E+02  0.41800000000E+01 0.  1.
        -11    1    4    4    0    0 -0.11398368269E+02 -0.36690949633E+02  0.76072351767E+01  0.39166549647E+02  0.00000000000E+00 0. -1.
         11    1    4    4    0    0  0.27352869943E+02  0.38609368713E+02  0.65556581114E+02  0.80848798222E+02  0.00000000000E+00 0.  1.
</event>
<event>
 8    1  0.6760442E-009  0.1194192E+03  0.7561462E-02  0.1244058E+00
         -1   -1    0    0    0  501 -0.00000000000E+00  0.00000000000E+00  0.40445079459E+02  0.40445079459E+02  0.00000000000E+00 0.  1.
          1   -1    0    0  501    0  0.00000000000E+00 -0.00000000000E+00 -0.53152098792E+03  0.53152098792E+03  0.00000000000E+00 0. -1.
         25    2    1    2    0    0  0.80336474663E+02  0.76750357065E+01 -0.37288049307E+03  0.40149682895E+03  0.12508791391E+03 0.  0.
         23    2    1    2    0    0 -0.80336474663E+02 -0.76750357065E+01 -0.11819541539E+03  0.17046923843E+03  0.92610742890E+02 0.  0.
          5    1    3    3  502    0 -0.92911804897E+01 -0.19746389732E+02 -0.62930103907E+01  0.23093729065E+02  0.41800000000E+01 0.  1.
         -5    1    3    3    0  502  0.89627655152E+02  0.27421425438E+02 -0.36658748268E+03  0.37840309988E+03  0.41800000000E+01 0.  1.
        -11    1    4    4    0    0 -0.60315488134E+02  0.39125244327E+02 -0.66974231577E+02  0.98256249408E+02  0.00000000000E+00 0.  1.
         11    1    4    4    0    0 -0.20020986529E+02 -0.46800280033E+02 -0.51221183811E+02  0.72212989024E+02  0.00000000000E+00 0. -1.
</event>
<event>
 8    1  0.6760442E-009  0.7824623E+02  0.7561462E-02  0.1334103E+00
          2   -1    0    0  501    0  0.00000000000E+00  0.00000000000E+00  0.29318952394E+03  0.29318952394E+03  0.00000000000E+00 0.  1.
         -2   -1    0    0    0  501 -0.00000000000E+00 -0.00000000000E+00 -0.55660938210E+02  0.55660938210E+02  0.00000000000E+00 0. -1.
         25    2    1    2    0    0  0.22124667866E+02 -0.24584268132E+02  0.21118496714E+03  0.24766241733E+03  0.12507475942E+03 0.  0.
         23    2    1    2    0    0 -0.22124667866E+02  0.24584268132E+02  0.26343618597E+02  0.10118804483E+03  0.91930120240E+02 0.  0.
          5    1    3    3  502    0  0.48152680191E+02 -0.15786862420E+02  0.21378671910E+03  0.21975017474E+03  0.41800000000E+01 0.  1.
         -5    1    3    3    0  502 -0.26028012325E+02 -0.87974057126E+01 -0.26017519637E+01  0.27912242586E+02  0.41800000000E+01 0.  1.
        -11    1    4    4    0    0 -0.16434488382E+02 -0.23918098602E+02 -0.18886877723E+02  0.34624875440E+02  0.00000000000E+00 0. -1.
         11    1    4    4    0    0 -0.56901794844E+01  0.48502366734E+02  0.45230496320E+02  0.66563169386E+02  0.00000000000E+00 0.  1.
</event>
<event>
 8    1  0.6760442E-009  0.1197721E+03  0.7561462E-02  0.1243473E+00
          2   -1    0    0  501    0  0.00000000000E+00  0.00000000000E+00  0.34658625203E+03  0.34658625203E+03  0.00000000000E+00 0.  1.
         -2   -1    0    0    0  501 -0.00000000000E+00 -0.00000000000E+00 -0.87758946721E+02  0.87758946721E+02  0.00000000000E+00 0. -1.
         25    2    1    2    0    0  0.80288165600E+02 -0.43060978790E+02  0.10898009068E+02  0.15513311056E+03  0.12508828067E+03 0.  0.
         23    2    1    2    0    0 -0.80288165600E+02  0.43060978790E+02  0.24792929624E+03  0.27921208820E+03  0.90498711755E+02 0.  0.
          5    1    3    3  502    0  0.36745859351E+02 -0.81544089272E+02 -0.16009430959E+02  0.90958622210E+02  0.41800000000E+01 0. -1.
         -5    1    3    3    0  502  0.43542306249E+02  0.38483110482E+02  0.26907440027E+02  0.64174488348E+02  0.41800000000E+01 0. -1.
        -11    1    4    4    0    0 -0.55031399765E+02  0.35060092783E+02  0.24382167514E+03  0.25240181128E+03  0.00000000000E+00 0.  1.
         11    1    4    4    0    0 -0.25256765835E+02  0.80008860067E+01  0.41076210986E+01  0.26810276918E+02  0.00000000000E+00 0. -1.
</event>
<event>
 8    1  0.6760442E-009  0.1068849E+03  0.7561462E-02  0.1266450E+00
          1   -1    0    0  501    0  0.00000000000E+00  0.00000000000E+00  0.33299944630E+03  0.33299944630E+03  0.00000000000E+00 0. -1.
         -1   -1    0    0    0  501 -0.00000000000E+00 -0.00000000000E+00 -0.50572866912E+02  0.50572866912E+02  0.00000000000E+00 0.  1.
         25    2    1    2    0    0  0.68529627312E+02  0.12498297165E+02  0.13804799998E+03  0.19888986742E+03  0.12508961513E+03 0.  0.
         23    2    1    2    0    0 -0.68529627312E+02 -0.12498297165E+02  0.14437857942E+03  0.18468244580E+03  0.91705585107E+02 0.  0.
          5    1    3    3  502    0  0.30043598996E+02 -0.30834821300E+02  0.13381174622E+03  0.14062880171E+03  0.41800000000E+01 0. -1.
         -5    1    3    3    0  502  0.38486028316E+02  0.43333118465E+02  0.42362537579E+01  0.58261065707E+02  0.41800000000E+01 0. -1.
        -11    1    4    4    0    0 -0.77886654453E+02  0.18479695848E+02  0.83098385407E+02  0.11538271863E+03  0.00000000000E+00 0.  1.
         11    1    4    4    0    0  0.93570271411E+01 -0.30977993013E+02  0.61280194011E+02  0.69299727171E+02  0.00000000000E+00 0. -1.
</event>
<event>
 8    1  0.6760442E-009  0.1162012E+03  0.7561462E-02  0.1249499E+00
          2   -1    0    0  501    0  0.00000000000E+00  0.00000000000E+00  0.32835377295E+03  0.32835377295E+03  0.00000000000E+00 0. -1.
         -2   -1    0    0    0  501 -0.00000000000E+00 -0.00000000000E+00 -0.55201004311E+02  0.55201004311E+02  0.00000000000E+00 0.  1.
         25    2    1    2    0    0 -0.49359767216E+02 -0.14514063363E+02  0.23883554907E+03  0.27447692570E+03  0.12509244017E+03 0.  0.
         23    2    1    2    0    0  0.49359767216E+02  0.14514063363E+02  0.34317219574E+02  0.10907785157E+03  0.89851329918E+02 0.  0.
          5    1    3    3  502    0 -0.21276541131E+02 -0.66668358627E+02  0.88944030971E+02  0.11325137655E+03  0.41800000000E+01 0.  1.
         -5    1    3    3    0  502 -0.28083226085E+02  0.52154295263E+02  0.14989151810E+03  0.16122554915E+03  0.41800000000E+01 0.  1.
        -11    1    4    4    0    0  0.65148580996E+02 -0.17292832210E+02  0.28101415258E+02  0.73027865853E+02  0.00000000000E+00 0.  1.
         11    1    4    4    0    0 -0.15788813780E+02  0.31806895573E+02  0.62158043160E+01  0.36049985713E+02  0.00000000000E+00 0. -1.
</event>
<event>
 8    1  0.6760442E-009  0.1072986E+03  0.7561462E-02  0.1265656E+00
          1   -1    0    0  501    0  0.00000000000E+00  0.00000000000E+00  0.63629756188E+03  0.63629756188E+03  0.00000000000E+00 0. -1.
         -1   -1    0    0    0  501 -0.00000000000E+00 -0.00000000000E+00 -0.18846366291E+02  0.18846366291E+02  0.00000000000E+00 0.  1.
         25    2    1    2    0    0  0.25504810923E+01  0.14968218186E+02  0.32060689551E+03  0.34448043080E+03  0.12508970079E+03 0.  0.
         23    2    1    2    0    0 -0.25504810923E+01 -0.14968218186E+02  0.29684430008E+03  0.31066349737E+03  0.90358826913E+02 0.  0.
          5    1    3    3  502    0  0.58345985614E+02 -0.13735459537E+02  0.11925456406E+03  0.13353666289E+03  0.41800000000E+01 0. -1.
         -5    1    3    3    0  502 -0.55795504522E+02  0.28703677722E+02  0.20135233145E+03  0.21094376791E+03  0.41800000000E+01 0. -1.
        -11    1    4    4    0    0 -0.28386136702E+02 -0.44252179813E+02  0.17020420916E+03  0.17813899346E+03  0.00000000000E+00 0.  1.
         11    1    4    4    0    0  0.25835655610E+02  0.29283961628E+02  0.12664009092E+03  0.13252450391E+03  0.00000000000E+00 0. -1.
</event>
<event>
 8    1  0.6760442E-009  0.9554762E+02  0.7561462E-02  0.1289947E+00
         -2   -1    0    0    0  501 -0.00000000000E+00  0.00000000000E+00  0.26649795653E+02  0.26649795653E+02  0.00000000000E+00 0.  1.
          2   -1    0    0  501    0  0.00000000000E+00 -0.00000000000E+00 -0.85130891478E+03  0.85130891478E+03  0.00000000000E+00 0. -1.
         25    2    1    2    0    0 -0.37184155418E+02 -0.44257267830E+02 -0.69655065874E+03  0.71005076465E+03  0.12509157050E+03 0.  0.
         23    2    1    2    0    0  0.37184155418E+02  0.44257267830E+02 -0.12810846038E+03  0.16790794578E+03  0.91869110508E+02 0.  0.
          5    1    3    3  502    0  0.18402120445E+01 -0.46125870700E+02 -0.81596790230E+02  0.93842905454E+02  0.41800000000E+01 0.  1.
         -5    1    3    3    0  502 -0.39024367463E+02  0.18686028696E+01 -0.61495386851E+03  0.61620785919E+03  0.41800000000E+01 0.  1.
        -11    1    4    4    0    0 -0.25449897902E+02  0.33227312718E+02 -0.71073812226E+02  0.82481745848E+02  0.00000000000E+00 0. -1.
         11    1    4    4    0    0  0.62634053320E+02  0.11029955112E+02 -0.57034648154E+02  0.85426199934E+02  0.00000000000E+00 0.  1.
</event>
<event>
 8    1  0.6760442E-009  0.1516447E+03  0.7561462E-02  0.1198466E+00
         -3   -1    0    0    0  501 -0.00000000000E+00  0.00000000000E+00  0.89764794921E+03  0.89764794921E+03  0.00000000000E+00 0.  1.
          3   -1    0    0  501    0  0.00000000000E+00 -0.00000000000E+00 -0.28960959942E+02  0.28960959942E+02  0.00000000000E+00 0. -1.
         25    2    1    2    0    0  0.23744474566E+02  0.10937713995E+03  0.57312183871E+03  0.59719537191E+03  0.12508601604E+03 0.  0.
         23    2    1    2    0    0 -0.23744474566E+02 -0.10937713995E+03  0.29556515055E+03  0.32941353724E+03  0.92883591006E+02 0.  0.
          5    1    3    3  502    0  0.54457246694E+02  0.12252345342E+03  0.46301018870E+03  0.48205134125E+03  0.41800000000E+01 0. -1.
         -5    1    3    3    0  502 -0.30712772127E+02 -0.13146313477E+02  0.11011165001E+03  0.11514403067E+03  0.41800000000E+01 0. -1.
        -11    1    4    4    0    0  0.10221863514E+02 -0.99609124060E+02  0.15544158030E+03  0.18490145747E+03  0.00000000000E+00 0. -1.
         11    1    4    4    0    0 -0.33966338080E+02 -0.97680158856E+01  0.14012357025E+03  0.14451207976E+03  0.00000000000E+00 0.  1.
</event>
<event>
 8    1  0.6760442E-009  0.1830686E+03  0.7561462E-02  0.1164866E+00
          2   -1    0    0  501    0  0.00000000000E+00  0.00000000000E+00  0.83948612288E+03  0.83948612288E+03  0.00000000000E+00 0. -1.
         -2   -1    0    0    0  501 -0.00000000000E+00 -0.00000000000E+00 -0.56161126813E+02  0.56161126813E+02  0.00000000000E+00 0.  1.
         25    2    1    2    0    0  0.12349157126E+03 -0.90267174503E+02  0.18206456529E+03  0.26868988067E+03  0.12509362523E+03 0.  0.
         23    2    1    2    0    0 -0.12349157126E+03  0.90267174503E+02  0.60126043078E+03  0.62695736903E+03  0.90349908665E+02 0.  0.
          5    1    3    3  502    0  0.12601601200E+03 -0.11081215403E+03  0.18197592532E+03  0.24757237035E+03  0.41800000000E+01 0.  1.
         -5    1    3    3    0  502 -0.25244407458E+01  0.20544979531E+02  0.88639968970E-01  0.21117510319E+02  0.41800000000E+01 0.  1.
        -11    1    4    4    0    0 -0.45026509414E+02  0.87781411287E+02  0.31139732099E+03  0.32665157927E+03  0.00000000000E+00 0.  1.
         11    1    4    4    0    0 -0.78465061843E+02  0.24857632165E+01  0.28986310979E+03  0.30030578976E+03  0.00000000000E+00 0. -1.
</event>
<event>
 8    1  0.6760442E-009  0.1485202E+03  0.7561462E-02  0.1202303E+00
         -1   -1    0    0    0  501 -0.00000000000E+00  0.00000000000E+00  0.13302068129E+03  0.13302068129E+03  0.00000000000E+00 0.  1.
          1   -1    0    0  501    0  0.00000000000E+00 -0.00000000000E+00 -0.22346519099E+03  0.22346519099E+03  0.00000000000E+00 0. -1.
         25    2    1    2    0    0  0.66716135441E+02  0.10677585032E+03 -0.95880565203E+02  0.20172485124E+03  0.12509079856E+03 0.  0.
         23    2    1    2    0    0 -0.66716135441E+02 -0.10677585032E+03  0.54360554986E+01  0.15476102104E+03  0.89829271370E+02 0.  0.
          5    1    3    3  502    0  0.66153555308E+02  0.12059466503E+03 -0.38989817194E+02  0.14302812437E+03  0.41800000000E+01 0. -1.
         -5    1    3    3    0  502  0.56258013267E+00 -0.13818814719E+02 -0.56890748009E+02  0.58696726873E+02  0.41800000000E+01 0. -1.
        -11    1    4    4    0    0 -0.57819841603E+02 -0.25455156349E+02  0.29166283987E+02  0.69582836888E+02  0.00000000000E+00 0.  1.
         11    1    4    4    0    0 -0.88962938377E+01 -0.81320693966E+02 -0.23730228488E+02  0.85178184151E+02  0.00000000000E+00 0. -1.
</event>
<event>
 8    1  0.6760442E-009  0.9340581E+02  0.7561462E-02  0.1294808E+00
         -1   -1    0    0    0  501 -0.00000000000E+00  0.00000000000E+00  0.66635195237E+02  0.66635195237E+02  0.00000000000E+00 0.  1.
          1   -1    0    0  501    0  0.00000000000E+00 -0.00000000000E+00 -0.26660505019E+03  0.26660505019E+03  0.00000000000E+00 0. -1.
         25    2    1    2    0    0  0.12249001278E+02  0.50517760368E+02 -0.18086962844E+03  0.22597050758E+03  0.12508703233E+03 0.  0.
         23    2    1    2    0    0 -0.12249001278E+02 -0.50517760368E+02 -0.19100226510E+02  0.10726973785E+03  0.91868905840E+02 0.  0.
          5    1    3    3  502    0  0.21344862253E+01  0.65612897371E+02 -0.27213790110E+02  0.71187576901E+02  0.41800000000E+01 0.  1.
         -5    1    3    3    0  502  0.10114515052E+02 -0.15095137002E+02 -0.15365583833E+03  0.15478293068E+03  0.41800000000E+01 0.  1.
        -11    1    4    4    0    0  0.46963717923E+01  0.24771794953E+02 -0.16345106572E+02  0.30047632886E+02  0.00000000000E+00 0. -1.
         11    1    4    4    0    0 -0.16945373070E+02 -0.75289555321E+02 -0.27551199378E+01  0.77222104962E+02  0.00000000000E+00 0.  1.
</event>
<event>
 8    1  0.6760442E-009  0.7297373E+02  0.7561462E-02  0.1350263E+00
          1   -1    0    0  501    0  0.00000000000E+00  0.00000000000E+00  0.55462116384E+02  0.55462116384E+02  0.00000000000E+00 0. -1.
         -1   -1    0    0    0  501 -0.00000000000E+00 -0.00000000000E+00 -0.21843395483E+03  0.21843395483E+03  0.00000000000E+00 0.  1.
         25    2    1    2    0    0  0.30670631629E+02 -0.81583412925E+01 -0.10922950668E+03  0.16907242813E+03  0.12508858720E+03 0.  0.
         23    2    1    2    0    0 -0.30670631629E+02  0.81583412925E+01 -0.53742331761E+02  0.10482364308E+03  0.84217051407E+02 0.  0.
          5    1    3    3  502    0  0.60630275498E+01  0.45193565355E+02 -0.93897105239E+00  0.45799265488E+02  0.41800000000E+01 0. -1.
         -5    1    3    3    0  502  0.24607604080E+02 -0.53351906648E+02 -0.10829053563E+03  0.12327316264E+03  0.41800000000E+01 0. -1.
        -11    1    4    4    0    0 -0.26329871022E+02 -0.55226589165E+01 -0.74714354654E+02  0.79410305760E+02  0.00000000000E+00 0.  1.
         11    1    4    4    0    0 -0.43407606077E+01  0.13681000209E+02  0.20972022893E+02  0.25413337317E+02  0.00000000000E+00 0. -1.
</event>
<event>
 8    1  0.6760442E-009  0.1078628E+03  0.7561462E-02  0.1264580E+00
         -1   -1    0    0    0  501 -0.00000000000E+00  0.00000000000E+00  0.11840924112E+03  0.11840924112E+03  0.00000000000E+00 0.  1.
          1   -1    0    0  501    0  0.00000000000E+00 -0.00000000000E+00 -0.17486181751E+03  0.17486181751E+03  0.00000000000E+00 0. -1.
         25    2    1    2    0    0 -0.61782659914E+02 -0.25150482495E+02  0.37426054071E+02  0.14662191245E+03  0.12509049464E+03 0.  0.
         23    2    1    2    0    0  0.61782659914E+02  0.25150482495E+02 -0.93878630461E+02  0.14664914618E+03  0.90791690056E+02 0.  0.
          5    1    3    3  502    0 -0.15913886838E+02  0.39166373240E+02 -0.21848113565E+02  0.47771006410E+02  0.41800000000E+01 0.  1.
         -5    1    3    3    0  502 -0.45868773076E+02 -0.64316855735E+02  0.59274167636E+02  0.98850906036E+02  0.41800000000E+01 0.  1.
        -11    1    4    4    0    0  0.10803821770E+02  0.39681599607E+02 -0.27421095865E+01  0.41217363783E+02  0.00000000000E+00 0.  1.
         11    1    4    4    0    0  0.50978838144E+02 -0.14531117112E+02 -0.91136520875E+02  0.10543178240E+03  0.00000000000E+00 0. -1.
</event>
<event>
 8    1  0.6760442E-009  0.5849624E+02  0.7561462E-02  0.1404253E+00
         -2   -1    0    0    0  501 -0.00000000000E+00  0.00000000000E+00  0.54968991968E+02  0.54968991968E+02  0.00000000000E+00 0.  1.
          2   -1    0    0  501    0  0.00000000000E+00 -0.00000000000E+00 -0.26001137031E+03  0.26001137031E+03  0.00000000000E+00 0. -1.
         25    2    1    2    0    0 -0.44891774467E+02 -0.28634214125E+01 -0.88486350398E+02  0.15968743613E+03  0.12508705950E+03 0.  0.
         23    2    1    2    0    0  0.44891774467E+02  0.28634214125E+01 -0.11655602795E+03  0.15529292615E+03  0.92234021184E+02 0.  0.
          5    1    3    3  502    0 -0.35415345399E+02  0.16212549879E+02  0.23456624155E+02  0.45659381074E+02  0.41800000000E+01 0. -1.
         -5    1    3    3    0  502 -0.94764290675E+01 -0.19075971292E+02 -0.11194297455E+03  0.11402805506E+03  0.41800000000E+01 0. -1.
        -11    1    4    4    0    0  0.30127033888E+02  0.17896275921E+02  0.17884927827E+01  0.35087228006E+02  0.00000000000E+00 0.  1.
         11    1    4    4    0    0  0.14764740579E+02 -0.15032854509E+02 -0.11834452073E+03  0.12020569814E+03  0.00000000000E+00 0. -1.
</event>
<event>
 8    1  0.6760442E-009  0.1491386E+03  0.7561462E-02  0.1201535E+00
          2   -1    0    0  501    0  0.00000000000E+00  0.00000000000E+00  0.14305556565E+03  0.14305556565E+03  0.00000000000E+00 0. -1.
         -2   -1    0    0    0  501 -0.00000000000E+00 -0.00000000000E+00 -0.21738950723E+03  0.21738950723E+03  0.00000000000E+00 0.  1.
         25    2    1    2    0    0  0.12395787737E+03 -0.41185109558E+02 -0.85604015694E+02  0.20009372592E+03  0.12509069925E+03 0.  0.
         23    2    1    2    0    0 -0.12395787737E+03  0.41185109558E+02  0.11270074110E+02  0.16035134696E+03  0.92324272482E+02 0.  0.
          5    1    3    3  502    0  0.14028970971E+03 -0.41191994859E+02 -0.10060322026E+03  0.17752876786E+03  0.41800000000E+01 0.  1.
         -5    1    3    3    0  502 -0.16331832334E+02  0.68853002234E-02  0.14999204567E+02  0.22564958064E+02  0.41800000000E+01 0.  1.
        -11    1    4    4    0    0 -0.87030911363E+02  0.11539761073E+02 -0.34655060488E+02  0.94384950261E+02  0.00000000000E+00 0.  1.
         11    1    4    4    0    0 -0.36926966009E+02  0.29645348486E+02  0.45925134599E+02  0.65966396698E+02  0.00000000000E+00 0. -1.
</event>
<event>
 8    1  0.6760442E-009  0.9964814E+02  0.7561462E-02  0.1281038E+00
          1   -1    0    0  501    0  0.00000000000E+00  0.00000000000E+00  0.46597484693E+03  0.46597484693E+03  0.00000000000E+00 0. -1.
         -1   -1    0    0    0  501 -0.00000000000E+00 -0.00000000000E+00 -0.32735966613E+02  0.32735966613E+02  0.00000000000E+00 0.  1.
         25    2    1    2    0    0  0.44148521363E+02 -0.26231939276E+02  0.29617202889E+03  0.32558188678E+03  0.12509391561E+03 0.  0.
         23    2    1    2    0    0 -0.44148521363E+02  0.26231939276E+02  0.13706685142E+03  0.17312892676E+03  0.92461326761E+02 0.  0.
          5    1    3    3  502    0  0.33720756373E+02 -0.76501911979E+02  0.18183723273E+03  0.20017962821E+03  0.41800000000E+01 0.  1.
         -5    1    3    3    0  502  0.10427764990E+02  0.50269972703E+02  0.11433479617E+03  0.12540225856E+03  0.41800000000E+01 0.  1.
        -11    1    4    4    0    0 -0.73011789061E+01 -0.10012865461E+02 -0.10832000041E+02  0.16458946292E+02  0.00000000000E+00 0.  1.
         11    1    4    4    0    0 -0.36847342457E+02  0.36244804736E+02  0.14789885146E+03  0.15666998047E+03  0.00000000000E+00 0. -1.
</event>
<event>
 8    1  0.6760442E-009  0.1371349E+03  0.7561462E-02  0.1217237E+00
         -2   -1    0    0    0  501 -0.00000000000E+00  0.00000000000E+00  0.11845502097E+03  0.11845502097E+03  0.00000000000E+00 0.  1.
          2   -1    0    0  501    0  0.00000000000E+00 -0.00000000000E+00 -0.23879596509E+03  0.23879596509E+03  0.00000000000E+00 0. -1.
         25    2    1    2    0    0  0.29432997512E+02 -0.86165524782E+02 -0.16024948590E+03  0.22275531215E+03  0.12509689188E+03 0.  0.
         23    2    1    2    0    0 -0.29432997512E+02  0.86165524782E+02  0.39908541770E+02  0.13449567391E+03  0.90584742591E+02 0.  0.
          5    1    3    3  502    0  0.74923966466E+02 -0.30381899798E+02 -0.68387740533E+02  0.10597648815E+03  0.41800000000E+01 0.  1.
         -5    1    3    3    0  502 -0.45490968955E+02 -0.55783624983E+02 -0.91861745363E+02  0.11677882400E+03  0.41800000000E+01 0.  1.
        -11    1    4    4    0    0 -0.30294905026E+02 -0.44241435468E+01  0.30828092222E+02  0.43447964127E+02  0.00000000000E+00 0.  1.
         11    1    4    4    0    0  0.86190751438E+00  0.90589668329E+02  0.90804495481E+01  0.91047709781E+02  0.00000000000E+00 0. -1.
</event>
<event>
 8    1  0.6760442E-009  0.1307677E+03  0.7561462E-02  0.1226321E+00
         -1   -1    0    0    0  501 -0.00000000000E+00  0.00000000000E+00  0.30476042217E+03  0.30476042217E+03  0.00000000000E+00 0.  1.
          1   -1    0    0  501    0  0.00000000000E+00 -0.00000000000E+00 -0.89588151649E+02  0.89588151649E+02  0.00000000000E+00 0. -1.
         25    2    1    2    0    0  0.91811070047E+02 -0.47737760569E+02  0.33744867471E+02  0.16578950083E+03  0.12505709151E+03 0.  0.
         23    2    1    2    0    0 -0.91811070047E+02  0.47737760569E+02  0.18142740305E+03  0.22855907299E+03  0.92817998798E+02 0.  0.
          5    1    3    3  502    0  0.12052414615E+03 -0.43199130091E+02  0.10864710146E+02  0.12856029314E+03  0.41800000000E+01 0.  1.
         -5    1    3    3    0  502 -0.28713076104E+02 -0.45386304785E+01  0.22880157325E+02  0.37229207690E+02  0.41800000000E+01 0.  1.
        -11    1    4    4    0    0 -0.26744983649E+02  0.83993144120E+01  0.13836839605E+03  0.14117951572E+03  0.00000000000E+00 0.  1.
         11    1    4    4    0    0 -0.65066086398E+02  0.39338446157E+02  0.43059007004E+02  0.87379557274E+02  0.00000000000E+00 0. -1.
</event>
<event>
 8    1  0.6760442E-009  0.1506569E+03  0.7561462E-02  0.1199668E+00
         -1   -1    0    0    0  501 -0.00000000000E+00  0.00000000000E+00  0.16862085435E+03  0.16862085435E+03  0.00000000000E+00 0.  1.
          1   -1    0    0  501    0  0.00000000000E+00 -0.00000000000E+00 -0.18802885269E+03  0.18802885269E+03  0.00000000000E+00 0. -1.
         25    2    1    2    0    0 -0.21154976454E+02 -0.13066245403E+03  0.34901596058E+02  0.18543492239E+03  0.12509108327E+03 0.  0.
         23    2    1    2    0    0  0.21154976454E+02  0.13066245403E+03 -0.54309594392E+02  0.17121478465E+03  0.94046586950E+02 0.  0.
          5    1    3    3  502    0 -0.58513938504E+02 -0.47838577327E+02 -0.21149917313E+02  0.78595177220E+02  0.41800000000E+01 0. -1.
         -5    1    3    3    0  502  0.37358962050E+02 -0.82823876704E+02  0.56051513371E+02  0.10683974517E+03  0.41800000000E+01 0. -1.
        -11    1    4    4    0    0  0.26448931736E+02  0.95167891818E+02 -0.79976714582E+02  0.12709346363E+03  0.00000000000E+00 0. -1.
         11    1    4    4    0    0 -0.52939552825E+01  0.35494562213E+02  0.25667120190E+02  0.44121321015E+02  0.00000000000E+00 0.  1.
</event>
<event>
 8    1  0.6760442E-009  0.7376146E+02  0.7561462E-02  0.1347750E+00
          3   -1    0    0  501    0  0.00000000000E+00  0.00000000000E+00  0.52290256050E+02  0.52290256050E+02  0.00000000000E+00 0. -1.
         -3   -1    0    0    0  501 -0.00000000000E+00 -0.00000000000E+00 -0.19616894675E+03  0.19616894675E+03  0.00000000000E+00 0.  1.
         25    2    1    2    0    0  0.21523499961E+02 -0.25951579355E+02 -0.73558587375E+02  0.14901707771E+03  0.12513384095E+03 0.  0.
         23    2    1    2    0    0 -0.21523499961E+02  0.25951579355E+02 -0.70320103328E+02  0.99442125092E+02  0.61701489359E+02 0.  0.
          5    1    3    3  502    0  0.45356545371E+02 -0.37934301522E+02  0.10967921108E+02  0.60282627128E+02  0.41800000000E+01 0.  1.
         -5    1    3    3    0  502 -0.23833045410E+02  0.11982722167E+02 -0.84526508483E+02  0.88734450584E+02  0.41800000000E+01 0.  1.
        -11    1    4    4    0    0 -0.20893232812E+02  0.41088298494E+02 -0.70569599605E+02  0.84290235726E+02  0.00000000000E+00 0.  1.
         11    1    4    4    0    0 -0.63026714918E+00 -0.15136719139E+02  0.24949627630E+00  0.15151889366E+02  0.00000000000E+00 0. -1.
</event>
<event>
 7    1  0.6760442E-009  0.1444595E+03  0.7561462E-02  0.1207451E+00
          1   -1    0    0  501    0  0.00000000000E+00  0.00000000000E+00  0.29504712418E+03  0.29504712418E+03  0.00000000000E+00 0. -1.
         -1   -1    0    0    0  501 -0.00000000000E+00 -0.00000000000E+00 -0.77957000139E+02  0.77957000139E+02  0.00000000000E+00 0.  1.
         23    2    1    2    0    0  0.10065595867E+03  0.22988369341E+02  0.12257598836E+03  0.18534863731E+03  0.93108309462E+02 0.  0.
          5    1    1    2  502    0 -0.67039879483E+01 -0.51643423994E+02  0.14260995699E+01  0.52263685827E+02  0.41800000000E+01 0.  1.
         -5    1    1    2    0  502 -0.93951970721E+02  0.28655054653E+02  0.93088036117E+02  0.13539180118E+03  0.41800000000E+01 0.  1.
        -11    1    3    3    0    0  0.48081777293E+02 -0.35462492749E+02  0.44016724473E+02  0.74208609561E+02  0.00000000000E+00 0.  1.
         11    1    3    3    0    0  0.52574181376E+02  0.58450862090E+02  0.78559263883E+02  0.11114002775E+03  0.00000000000E+00 0. -1.
</event>
<event>
 8    1  0.6760442E-009  0.6455591E+02  0.7561462E-02  0.1379650E+00
         -1   -1    0    0    0  501 -0.00000000000E+00  0.00000000000E+00  0.21714033345E+02  0.21714033345E+02  0.00000000000E+00 0.  1.
          1   -1    0    0  501    0  0.00000000000E+00 -0.00000000000E+00 -0.76016120876E+03  0.76016120876E+03  0.00000000000E+00 0. -1.
         25    2    1    2    0    0  0.49888906099E+02  0.26368178318E+00 -0.54505598020E+03  0.56144299596E+03  0.12507295341E+03 0.  0.
         23    2    1    2    0    0 -0.49888906099E+02 -0.26368178318E+00 -0.19339119521E+03  0.22043224615E+03  0.93280481755E+02 0.  0.
          5    1    3    3  502    0  0.54586161518E+02  0.18507968730E+02 -0.96561166660E+02  0.11253321840E+03  0.41800000000E+01 0.  1.
         -5    1    3    3    0  502 -0.46972554185E+01 -0.18244286947E+02 -0.44849481354E+03  0.44890977756E+03  0.41800000000E+01 0.  1.
        -11    1    4    4    0    0 -0.17055492393E+02  0.69345434187E+01  0.51083205931E+01  0.19106874482E+02  0.00000000000E+00 0.  1.
         11    1    4    4    0    0 -0.32833413707E+02 -0.71982252019E+01 -0.19849951580E+03  0.20132537166E+03  0.00000000000E+00 0. -1.
</event>
<event>
 8    1  0.6760442E-009  0.1068875E+03  0.7561462E-02  0.1266445E+00
          2   -1    0    0  501    0  0.00000000000E+00  0.00000000000E+00  0.10290286035E+03  0.10290286035E+03  0.00000000000E+00 0. -1.
         -2   -1    0    0    0  501 -0.00000000000E+00 -0.00000000000E+00 -0.16459550469E+03  0.16459550469E+03  0.00000000000E+00 0.  1.
         25    2    1    2    0    0 -0.13590839114E+02  0.68412696809E+02 -0.17475859496E+02  0.14428342371E+03  0.12508913902E+03 0.  0.
         23    2    1    2    0    0  0.13590839114E+02 -0.68412696809E+02 -0.44216784851E+02  0.12321494133E+03  0.91442822093E+02 0.  0.
          5    1    3    3  502    0  0.52075340326E+02  0.68565681189E+01 -0.11832998871E+02  0.54003202300E+02  0.41800000000E+01 0. -1.
         -5    1    3    3    0  502 -0.65666179440E+02  0.61556128691E+02 -0.56428606246E+01  0.90280221409E+02  0.41800000000E+01 0. -1.
        -11    1    4    4    0    0 -0.11607879114E+01 -0.26893620211E+02 -0.68007057926E+02  0.73140783181E+02  0.00000000000E+00 0.  1.
         11    1    4    4    0    0  0.14751627026E+02 -0.41519076599E+02  0.23790273075E+02  0.50074158151E+02  0.00000000000E+00 0. -1.
</event>
<event>
 8    1  0.6760442E-009  0.1956490E+03  0.7561462E-02  0.1153463E+00
          1   -1    0    0  501    0  0.00000000000E+00  0.00000000000E+00  0.16858219349E+04  0.16858219349E+04  0.00000000000E+00 0. -1.
         -1   -1    0    0    0  501 -0.00000000000E+00 -0.00000000000E+00 -0.24167825796E+02  0.24167825796E+02  0.00000000000E+00 0.  1.
         25    2    1    2    0    0  0.16605130839E+03 -0.35031203086E+02  0.85114022458E+03  0.87686201427E+03  0.12508832070E+03 0.  0.
         23    2    1    2    0    0 -0.16605130839E+03  0.35031203086E+02  0.81051388453E+03  0.83312774643E+03  0.91481487957E+02 0.  0.
          5    1    3    3  502    0  0.57861481566E+02 -0.64720236061E+02  0.51986324522E+03  0.52707867167E+03  0.41800000000E+01 0.  1.
         -5    1    3    3    0  502  0.10818982683E+03  0.29689032976E+02  0.33127697936E+03  0.34978334260E+03  0.41800000000E+01 0.  1.
        -11    1    4    4    0    0 -0.96171490842E+02  0.65004109378E+02  0.52324140869E+03  0.53596274279E+03  0.00000000000E+00 0.  1.
         11    1    4    4    0    0 -0.69879817551E+02 -0.29972906292E+02  0.28727247584E+03  0.29716500364E+03  0.00000000000E+00 0. -1.
</event>
<event>
 8    1  0.6760442E-009  0.1678701E+03  0.7561462E-02  0.1180087E+00
          2   -1    0    0  501    0  0.00000000000E+00  0.00000000000E+00  0.49268730356E+03  0.49268730356E+03  0.00000000000E+00 0. -1.
         -2   -1    0    0    0  501 -0.00000000000E+00 -0.00000000000E+00 -0.10705900325E+03  0.10705900325E+03  0.00000000000E+00 0.  1.
         25    2    1    2    0    0 -0.29153961869E+02  0.12655004812E+03  0.40179458174E+03  0.44039734542E+03  0.12508424266E+03 0.  0.
         23    2    1    2    0    0  0.29153961869E+02 -0.12655004812E+03 -0.16166281432E+02  0.15934896139E+03  0.90916855795E+02 0.  0.
          5    1    3    3  502    0  0.85566158014E+01 -0.22833468069E+02  0.77242497785E+02  0.81107698784E+02  0.41800000000E+01 0.  1.
         -5    1    3    3    0  502 -0.37710577670E+02  0.14938351619E+03  0.32455208396E+03  0.35928964663E+03  0.41800000000E+01 0.  1.
        -11    1    4    4    0    0  0.43994881665E+02 -0.18362582168E+02  0.55974298871E+01  0.48000679765E+02  0.00000000000E+00 0.  1.
         11    1    4    4    0    0 -0.14840919796E+02 -0.10818746595E+03 -0.21763711319E+02  0.11134828162E+03  0.00000000000E+00 0. -1.
</event>
<event>
 8    1  0.6760442E-009  0.1759376E+03  0.7561462E-02  0.1171794E+00
          2   -1    0    0  501    0  0.00000000000E+00  0.00000000000E+00  0.26976397386E+03  0.26976397386E+03  0.00000000000E+00 0.  1.
         -2   -1    0    0    0  501 -0.00000000000E+00 -0.00000000000E+00 -0.12622147037E+03  0.12622147037E+03  0.00000000000E+00 0. -1.
         25    2    1    2    0    0 -0.87196094326E+02  0.11082758038E+03  0.12685854147E+03  0.22721379451E+03  0.12508839848E+03 0.  0.
         23    2    1    2    0    0  0.87196094326E+02 -0.11082758038E+03  0.16683962026E+02  0.16877164972E+03  0.91211861738E+02 0.  0.
          5    1    3    3  502    0 -0.16904908230E+02 -0.26184951120E+02  0.74801207168E+01  0.32324173514E+02  0.41800000000E+01 0. -1.
         -5    1    3    3    0  502 -0.70291186096E+02  0.13701253150E+03  0.11937842075E+03  0.19488962099E+03  0.41800000000E+01 0. -1.
        -11    1    4    4    0    0  0.33806805538E+02 -0.10772041486E+03  0.51763953233E+00  0.11290197442E+03  0.00000000000E+00 0. -1.
         11    1    4    4    0    0  0.53389288788E+02 -0.31071655217E+01  0.16166322494E+02  0.55869675297E+02  0.00000000000E+00 0.  1.
</event>
<event>
 8    1  0.6760442E-009  0.1069331E+03  0.7561462E-02  0.1266357E+00
          4   -1    0    0  501    0  0.00000000000E+00  0.00000000000E+00  0.52902206940E+02  0.52902206940E+02  0.00000000000E+00 0.  1.
         -4   -1    0    0    0  501 -0.00000000000E+00 -0.00000000000E+00 -0.34412848602E+03  0.34412848602E+03  0.00000000000E+00 0. -1.
         25    2    1    2    0    0  0.36743778121E+01  0.27556264498E+02 -0.27443636161E+03  0.30288116479E+03  0.12509530226E+03 0.  0.
         23    2    1    2    0    0 -0.36743778121E+01 -0.27556264498E+02 -0.16789917476E+02  0.94149528172E+02  0.88370716647E+02 0.  0.
          5    1    3    3  502    0 -0.34350341461E+02 -0.36007630722E+02 -0.14902518104E+03  0.15717020205E+03  0.41800000000E+01 0.  1.
         -5    1    3    3    0  502  0.38024719274E+02  0.63563895220E+02 -0.12541118057E+03  0.14571096274E+03  0.41800000000E+01 0.  1.
        -11    1    4    4    0    0 -0.11787768533E+02  0.29677859958E+02  0.50990889734E+01  0.32337711222E+02  0.00000000000E+00 0.  1.
         11    1    4    4    0    0  0.81133907214E+01 -0.57234124457E+02 -0.21889006449E+02  0.61811816950E+02  0.00000000000E+00 0. -1.
</event>
<event>
 8    1  0.6760442E-009  0.1969224E+03  0.7561462E-02  0.1152362E+00
          1   -1    0    0  501    0  0.00000000000E+00  0.00000000000E+00  0.79853092622E+03  0.79853092622E+03  0.00000000000E+00 0. -1.
         -1   -1    0    0    0  501 -0.00000000000E+00 -0.00000000000E+00 -0.83349550099E+02  0.83349550099E+02  0.00000000000E+00 0.  1.
         25    2    1    2    0    0 -0.15764360155E+03 -0.73693890195E+02  0.10108051516E+03  0.23695370262E+03  0.12508993596E+03 0.  0.
         23    2    1    2    0    0  0.15764360155E+03  0.73693890195E+02  0.61410086096E+03  0.64492677370E+03  0.92349236245E+02 0.  0.
          5    1    3    3  502    0 -0.11466420380E+03 -0.10838781749E+03  0.64143351949E+02  0.17037499996E+03  0.41800000000E+01 0.  1.
         -5    1    3    3    0  502 -0.42979397753E+02  0.34693927292E+02  0.36937163209E+02  0.66578702661E+02  0.41800000000E+01 0.  1.
        -11    1    4    4    0    0  0.22414639390E+01  0.13938782249E+02  0.76929596552E+01  0.16077793363E+02  0.00000000000E+00 0.  1.
         11    1    4    4    0    0  0.15540213761E+03  0.59755107946E+02  0.60640790131E+03  0.62884898034E+03  0.00000000000E+00 0. -1.
</event>
<event>
 8    1  0.6760442E-009  0.1594451E+03  0.7561462E-02  0.1189325E+00
         -2   -1    0    0    0  501 -0.00000000000E+00  0.00000000000E+00  0.32858334081E+02  0.32858334081E+02  0.00000000000E+00 0.  1.
          2   -1    0    0  501    0  0.00000000000E+00 -0.00000000000E+00 -0.10155452597E+04  0.10155452597E+04  0.00000000000E+00 0. -1.
         25    2    1    2    0    0  0.12146092201E+03  0.27618650999E+02 -0.29947389685E+03  0.34763489578E+03  0.12509940210E+03 0.  0.
         23    2    1    2    0    0 -0.12146092201E+03 -0.27618650999E+02 -0.68321302880E+03  0.70076869804E+03  0.93707950419E+02 0.  0.
          5    1    3    3  502    0  0.59262524740E+02  0.68723009265E+02 -0.22280418971E+03  0.24061188290E+03  0.41800000000E+01 0. -1.
         -5    1    3    3    0  502  0.62198397269E+02 -0.41104358266E+02 -0.76669707145E+02  0.10702301288E+03  0.41800000000E+01 0. -1.
        -11    1    4    4    0    0 -0.72876814271E+02  0.29297061328E+02 -0.41206078051E+03  0.41947995744E+03  0.00000000000E+00 0.  1.
         11    1    4    4    0    0 -0.48584107738E+02 -0.56915712328E+02 -0.27115224830E+03  0.28128874060E+03  0.00000000000E+00 0. -1.
</event>
<event>
 8    1  0.6760442E-009  0.1343236E+03  0.7561462E-02  0.1221178E+00
          1   -1    0    0  501    0  0.00000000000E+00  0.00000000000E+00  0.46338909907E+02  0.46338909907E+02  0.00000000000E+00 0. -1.
         -1   -1    0    0    0  501 -0.00000000000E+00 -0.00000000000E+00 -0.46652195906E+03  0.46652195906E+03  0.00000000000E+00 0.  1.
         25    2    1    2    0    0  0.72892109332E+02  0.65915818411E+02 -0.25305908548E+03  0.29890535424E+03  0.12508938937E+03 0.  0.
         23    2    1    2    0    0 -0.72892109332E+02 -0.65915818411E+02 -0.16712396367E+03  0.21395551472E+03  0.90489713928E+02 0.  0.
          5    1    3    3  502    0  0.70492001603E+02 -0.13911588562E+02 -0.16464171369E+03  0.17968589503E+03  0.41800000000E+01 0. -1.
         -5    1    3    3    0  502  0.24001077298E+01  0.79827406973E+02 -0.88417371789E+02  0.11921945921E+03  0.41800000000E+01 0. -1.
        -11    1    4    4    0    0 -0.41586869459E+01 -0.44521311318E+02 -0.17691227038E+02  0.48087642412E+02  0.00000000000E+00 0. -1.
         11    1    4    4    0    0 -0.68733422386E+02 -0.21394507093E+02 -0.14943273664E+03  0.16586787231E+03  0.00000000000E+00 0.  1.
</event>
<event>
 8    1  0.6760442E-009  0.1436972E+03  0.7561462E-02  0.1208439E+00
         -2   -1    0    0    0  501 -0.00000000000E+00  0.00000000000E+00  0.86002582327E+02  0.86002582327E+02  0.00000000000E+00 0.  1.
          2   -1    0    0  501    0  0.00000000000E+00 -0.00000000000E+00 -0.40815177402E+03  0.40815177402E+03  0.00000000000E+00 0. -1.
         25    2    1    2    0    0  0.10115423825E+03  0.53058165027E+02 -0.35329068486E+02  0.17303813243E+03  0.12508678348E+03 0.  0.
         23    2    1    2    0    0 -0.10115423825E+03 -0.53058165027E+02 -0.28682012321E+03  0.32111622392E+03  0.88331746254E+02 0.  0.
          5    1    3    3  502    0  0.55764629709E+02 -0.18095879263E+02  0.30222865497E+02  0.66091215541E+02  0.41800000000E+01 0.  1.
         -5    1    3    3    0  502  0.45389608540E+02  0.71154044290E+02 -0.65551933984E+02  0.10694691689E+03  0.41800000000E+01 0.  1.
        -11    1    4    4    0    0 -0.56530653396E+02 -0.75378965535E+02 -0.17786409953E+03  0.20127926152E+03  0.00000000000E+00 0.  1.
         11    1    4    4    0    0 -0.44623584853E+02  0.22320800508E+02 -0.10895602368E+03  0.11983696240E+03  0.00000000000E+00 0. -1.
</event>
<event>
 8    1  0.6760442E-009  0.1260007E+03  0.7561462E-02  0.1233514E+00
          3   -1    0    0  501    0  0.00000000000E+00  0.00000000000E+00  0.17144620869E+03  0.17144620869E+03  0.00000000000E+00 0. -1.
         -3   -1    0    0    0  501 -0.00000000000E+00 -0.00000000000E+00 -0.10075508307E+03  0.10075508307E+03  0.00000000000E+00 0.  1.
         25    2    1    2    0    0 -0.14707885412E+02  0.68455140814E+02  0.66299284085E+02  0.15794183573E+03  0.12509036816E+03 0.  0.
         23    2    1    2    0    0  0.14707885412E+02 -0.68455140814E+02  0.43918415428E+01  0.11425945603E+03  0.90185956905E+02 0.  0.
          5    1    3    3  502    0  0.50564803329E+02  0.49005509875E+02  0.13873009546E+02  0.71890695696E+02  0.41800000000E+01 0.  1.
         -5    1    3    3    0  502 -0.65272688742E+02  0.19449630939E+02  0.52426274539E+02  0.86051140035E+02  0.41800000000E+01 0.  1.
        -11    1    4    4    0    0  0.52306327048E+02 -0.44212379975E+02 -0.45443283097E+01  0.68639182047E+02  0.00000000000E+00 0. -1.
         11    1    4    4    0    0 -0.37598441636E+02 -0.24242760839E+02  0.89361698525E+01  0.45620273982E+02  0.00000000000E+00 0.  1.
</event>
<event>
 8    1  0.6760442E-009  0.9754282E+02  0.7561462E-02  0.1285550E+00
          3   -1    0    0  501    0  0.00000000000E+00  0.00000000000E+00  0.46288644635E+03  0.46288644635E+03  0.00000000000E+00 0. -1.
         -3   -1    0    0    0  501 -0.00000000000E+00 -0.00000000000E+00 -0.53030293324E+02  0.53030293324E+02  0.00000000000E+00 0.  1.
         25    2    1    2    0    0 -0.78954065856E+02 -0.22287159369E+02  0.91042402880E+02  0.17511915009E+03  0.12509010999E+03 0.  0.
         23    2    1    2    0    0  0.78954065856E+02  0.22287159369E+02  0.31881375015E+03  0.34079758959E+03  0.88149462841E+02 0.  0.
          5    1    3    3  502    0 -0.30934848119E+02 -0.48850287070E+02  0.10355614011E+03  0.11867881837E+03  0.41800000000E+01 0. -1.
         -5    1    3    3    0  502 -0.48019217736E+02  0.26563127701E+02 -0.12513737227E+02  0.56440331720E+02  0.41800000000E+01 0. -1.
        -11    1    4    4    0    0  0.59585773799E+02  0.17935853310E+02  0.31435136806E+03  0.32045115365E+03  0.00000000000E+00 0. -1.
         11    1    4    4    0    0  0.19368292056E+02  0.43513060585E+01  0.44623820865E+01  0.20346435941E+02  0.00000000000E+00 0.  1.
</event>
<event>
 8    1  0.6760442E-009  0.1202642E+03  0.7561462E-02  0.1242662E+00
          1   -1    0    0  501    0  0.00000000000E+00  0.00000000000E+00  0.33875930507E+02  0.33875930507E+02  0.00000000000E+00 0. -1.
         -1   -1    0    0    0  501 -0.00000000000E+00 -0.00000000000E+00 -0.50108328201E+03  0.50108328201E+03  0.00000000000E+00 0.  1.
         25    2    1    2    0    0  0.41011072718E+02  0.51932007724E+02 -0.31478317652E+03  0.34512700140E+03  0.12508140293E+03 0.  0.
         23    2    1    2    0    0 -0.41011072718E+02 -0.51932007724E+02 -0.15242417498E+03  0.18983221112E+03  0.91783973267E+02 0.  0.
          5    1    3    3  502    0  0.45078644588E+02  0.87805513520E+02 -0.26966625499E+03  0.28719201570E+03  0.41800000000E+01 0.  1.
         -5    1    3    3    0  502 -0.40675718703E+01 -0.35873505796E+02 -0.45116921535E+02  0.57934985698E+02  0.41800000000E+01 0.  1.
        -11    1    4    4    0    0 -0.38569408773E+02 -0.73863574866E+02 -0.14368275258E+03  0.16609684035E+03  0.00000000000E+00 0.  1.
         11    1    4    4    0    0 -0.24416639453E+01  0.21931567142E+02 -0.87414224028E+01  0.23735370773E+02  0.00000000000E+00 0. -1.
</event>
<event>
 8    1  0.6760442E-009  0.7470077E+02  0.7561462E-02  0.1344800E+00
         -2   -1    0    0    0  501 -0.00000000000E+00  0.00000000000E+00  0.12995479131E+02  0.12995479131E+02  0.00000000000E+00 0.  1.
          2   -1    0    0  501    0  0.00000000000E+00 -0.00000000000E+00 -0.98284802433E+03  0.98284802433E+03  0.00000000000E+00 0. -1.
         25    2    1    2    0    0 -0.20482250331E+02  0.70902829243E+01 -0.66087778925E+03  0.67296132235E+03  0.12509074450E+03 0.  0.
         23    2    1    2    0    0  0.20482250331E+02 -0.70902829243E+01 -0.30897475595E+03  0.32288218111E+03  0.91201471352E+02 0.  0.
          5    1    3    3  502    0 -0.49085499106E+01  0.33081066500E+02 -0.44488052614E+02  0.55813170922E+02  0.41800000000E+01 0.  1.
         -5    1    3    3    0  502 -0.15573700420E+02 -0.25990783575E+02 -0.61638973664E+03  0.61714815142E+03  0.41800000000E+01 0.  1.
        -11    1    4    4    0    0  0.52567687404E+02 -0.69556985390E+01 -0.25177108408E+03  0.25729442723E+03  0.00000000000E+00 0.  1.
         11    1    4    4    0    0 -0.32085437073E+02 -0.13458438532E+00 -0.57203671862E+02  0.65587753885E+02  0.00000000000E+00 0. -1.
</event>
<event>
 8    1  0.6760442E-009  0.1435607E+03  0.7561462E-02  0.1208617E+00
         -1   -1    0    0    0  501 -0.00000000000E+00  0.00000000000E+00  0.14132547982E+03  0.14132547982E+03  0.00000000000E+00 0.  1.
          1   -1    0    0  501    0  0.00000000000E+00 -0.00000000000E+00 -0.16167512020E+03  0.16167512020E+03  0.00000000000E+00 0. -1.
         25    2    1    2    0    0 -0.99592929610E+02  0.26498592428E+02  0.98783820535E+01  0.16237174191E+03  0.12508426403E+03 0.  0.
         23    2    1    2    0    0  0.99592929610E+02 -0.26498592428E+02 -0.30228022433E+02  0.14062885812E+03  0.90784444515E+02 0.  0.
          5    1    3    3  502    0 -0.12034856989E+03  0.37943917888E+02  0.31379302877E+02  0.13009862501E+03  0.41800000000E+01 0. -1.
         -5    1    3    3    0  502  0.20755640280E+02 -0.11445325460E+02 -0.21500920823E+02  0.32273116902E+02  0.41800000000E+01 0. -1.
        -11    1    4    4    0    0  0.94520332970E+02 -0.53981278098E+02 -0.18920297817E+02  0.11048099112E+03  0.00000000000E+00 0. -1.
         11    1    4    4    0    0  0.50725966402E+01  0.27482685670E+02 -0.11307724615E+02  0.30147866994E+02  0.00000000000E+00 0.  1.
</event>
<event>
 8    1  0.6760442E-009  0.1165629E+03  0.7561462E-02  0.1248877E+00
         -1   -1    0    0    0  501 -0.00000000000E+00  0.00000000000E+00  0.76115019246E+02  0.76115019246E+02  0.00000000000E+00 0.  1.
          1   -1    0    0  501    0  0.00000000000E+00 -0.00000000000E+00 -0.24331829747E+03  0.24331829747E+03  0.00000000000E+00 0. -1.
         25    2    1    2    0    0  0.20035327788E+02  0.78446267044E+02 -0.78222547498E+02  0.16828870376E+03  0.12508832761E+03 0.  0.
         23    2    1    2    0    0 -0.20035327788E+02 -0.78446267044E+02 -0.88980730725E+02  0.15114461295E+03  0.91498045948E+02 0.  0.
          5    1    3    3  502    0  0.71501096315E+02  0.43295130172E+02 -0.28370618496E+02  0.88369901350E+02  0.41800000000E+01 0. -1.
         -5    1    3    3    0  502 -0.51465768526E+02  0.35151136871E+02 -0.49851929002E+02  0.79918802410E+02  0.41800000000E+01 0. -1.
        -11    1    4    4    0    0 -0.27826910500E+02 -0.47438240327E+02  0.16680469355E+01  0.55022776864E+02  0.00000000000E+00 0.  1.
         11    1    4    4    0    0  0.77915827119E+01 -0.31008026717E+02 -0.90648777661E+02  0.96121836090E+02  0.00000000000E+00 0. -1.
</event>
<event>
 8    1  0.6760442E-009  0.7564422E+02  0.7561462E-02  0.1341888E+00
         -2   -1    0    0    0  501 -0.00000000000E+00  0.00000000000E+00  0.20357709154E+02  0.20357709154E+02  0.00000000000E+00 0. -1.
          2   -1    0    0  501    0  0.00000000000E+00 -0.00000000000E+00 -0.91486583618E+03  0.91486583618E+03  0.00000000000E+00 0.  1.
         25    2    1    2    0    0 -0.30443881738E+01  0.69218864993E+01 -0.77356379502E+03  0.78364891718E+03  0.12508996610E+03 0.  0.
         23    2    1    2    0    0  0.30443881738E+01 -0.69218864993E+01 -0.12094433200E+03  0.15157462815E+03  0.91050291837E+02 0.  0.
          5    1    3    3  502    0 -0.58143509272E+02  0.41356340744E+01 -0.23124639207E+03  0.23851653483E+03  0.41800000000E+01 0.  1.
         -5    1    3    3    0  502  0.55099121098E+02  0.27862524248E+01 -0.54231740295E+03  0.54513238235E+03  0.41800000000E+01 0.  1.
        -11    1    4    4    0    0 -0.88815506735E+01  0.12136084642E+02  0.10422836741E+02  0.18297595977E+02  0.00000000000E+00 0. -1.
         11    1    4    4    0    0  0.11925938847E+02 -0.19057971141E+02 -0.13136716875E+03  0.13327703218E+03  0.00000000000E+00 0.  1.
</event>
<event>
 8    1  0.6760442E-009  0.1693818E+03  0.7561462E-02  0.1178494E+00
         -1   -1    0    0    0  501 -0.00000000000E+00  0.00000000000E+00  0.36685279006E+02  0.36685279006E+02  0.00000000000E+00 0.  1.
          1   -1    0    0  501    0  0.00000000000E+00 -0.00000000000E+00 -0.10886152638E+04  0.10886152638E+04  0.00000000000E+00 0. -1.
         25    2    1    2    0    0 -0.70619951084E+02 -0.15202975922E+03 -0.57933961860E+03  0.61594028349E+03  0.12509122260E+03 0.  0.
         23    2    1    2    0    0  0.70619951084E+02  0.15202975922E+03 -0.47259036617E+03  0.50936025929E+03  0.89476222340E+02 0.  0.
          5    1    3    3  502    0 -0.44092564891E+02 -0.97135643843E+02 -0.51969576372E+03  0.53054749723E+03  0.41800000000E+01 0. -1.
         -5    1    3    3    0  502 -0.26527386193E+02 -0.54894115381E+02 -0.59643854874E+02  0.85392786264E+02  0.41800000000E+01 0. -1.
        -11    1    4    4    0    0  0.13193410140E+02  0.67026833524E+02 -0.88452390856E+02  0.11176085152E+03  0.00000000000E+00 0.  1.
         11    1    4    4    0    0  0.57426540945E+02  0.85002925700E+02 -0.38413797531E+03  0.39759940777E+03  0.00000000000E+00 0. -1.
</event>
<event>
 8    1  0.6760442E-009  0.1184094E+03  0.7561462E-02  0.1245744E+00
         -1   -1    0    0    0  501 -0.00000000000E+00  0.00000000000E+00  0.39693584996E+02  0.39693584996E+02  0.00000000000E+00 0.  1.
          1   -1    0    0  501    0  0.00000000000E+00 -0.00000000000E+00 -0.46995879438E+03  0.46995879438E+03  0.00000000000E+00 0. -1.
         25    2    1    2    0    0 -0.45840462838E+02  0.54534999275E+02 -0.17288545816E+03  0.22497378865E+03  0.12509360398E+03 0.  0.
         23    2    1    2    0    0  0.45840462838E+02 -0.54534999275E+02 -0.25737975123E+03  0.28467859073E+03  0.98600960939E+02 0.  0.
          5    1    3    3  502    0 -0.38114238118E+02 -0.26436509934E+02 -0.11773397122E+03  0.12661099709E+03  0.41800000000E+01 0.  1.
         -5    1    3    3    0  502 -0.77262247203E+01  0.80971509208E+02 -0.55151486939E+02  0.98362791560E+02  0.41800000000E+01 0.  1.
        -11    1    4    4    0    0  0.28675276226E+01 -0.64599663341E+02 -0.85361051597E+02  0.10708804017E+03  0.00000000000E+00 0.  1.
         11    1    4    4    0    0  0.42972935215E+02  0.10064664066E+02 -0.17201869963E+03  0.17759055056E+03  0.00000000000E+00 0. -1.
</event>
<event>
 7    1  0.6760442E-009  0.1073197E+03  0.7561462E-02  0.1265615E+00
          1   -1    0    0  501    0  0.00000000000E+00  0.00000000000E+00  0.23454300574E+03  0.23454300574E+03  0.00000000000E+00 0. -1.
         -1   -1    0    0    0  501 -0.00000000000E+00 -0.00000000000E+00 -0.82318771710E+02  0.82318771710E+02  0.00000000000E+00 0.  1.
         25    2    1    2    0    0 -0.87316099495E+01 -0.31918705247E+01  0.60021992956E+02  0.13905514389E+03  0.12508902572E+03 0.  0.
          5    1    3    3  502    0 -0.54399010797E+02  0.23743242731E+02  0.86760929545E+00  0.59508143115E+02  0.41800000000E+01 0. -1.
         -5    1    3    3    0  502  0.45667400847E+02 -0.26935113256E+02  0.59154383661E+02  0.79547000777E+02  0.41800000000E+01 0. -1.
        -11    1    1    2    0    0  0.27289045390E+02 -0.43701712089E+02 -0.19625152244E+02  0.55133277052E+02  0.00000000000E+00 0.  1.
         11    1    1    2    0    0 -0.18557435441E+02  0.46893582614E+02  0.11182739332E+03  0.12267335651E+03  0.00000000000E+00 0. -1.
</event>
<event>
 8    1  0.6760442E-009  0.2500995E+03  0.7561462E-02  0.1113242E+00
         -2   -1    0    0    0  501 -0.00000000000E+00  0.00000000000E+00  0.14079513953E+03  0.14079513953E+03  0.00000000000E+00 0. -1.
          2   -1    0    0  501    0  0.00000000000E+00 -0.00000000000E+00 -0.47904126273E+03  0.47904126273E+03  0.00000000000E+00 0.  1.
         25    2    1    2    0    0  0.17634556398E+03  0.15415579401E+03 -0.14239924859E+03  0.30130840921E+03  0.12508974658E+03 0.  0.
         23    2    1    2    0    0 -0.17634556398E+03 -0.15415579401E+03 -0.19584687461E+03  0.31852799305E+03  0.90787208894E+02 0.  0.
          5    1    3    3  502    0  0.17061386457E+03  0.77476686202E+02 -0.11315016987E+03  0.21893414770E+03  0.41800000000E+01 0.  1.
         -5    1    3    3    0  502  0.57316994046E+01  0.76679107812E+02 -0.29249078724E+02  0.82374261509E+02  0.41800000000E+01 0.  1.
        -11    1    4    4    0    0 -0.53983349647E+02 -0.64283265945E+02 -0.20159233031E+02  0.86330382810E+02  0.00000000000E+00 0.  1.
         11    1    4    4    0    0 -0.12236221433E+03 -0.89872528069E+02 -0.17568764158E+03  0.23219761024E+03  0.00000000000E+00 0. -1.
</event>
<event>
 8    1  0.6760442E-009  0.2643602E+03  0.7561462E-02  0.1104551E+00
         -4   -1    0    0    0  501 -0.00000000000E+00  0.00000000000E+00  0.26863312121E+03  0.26863312121E+03  0.00000000000E+00 0.  1.
          4   -1    0    0  501    0  0.00000000000E+00 -0.00000000000E+00 -0.27167904094E+03  0.27167904094E+03  0.00000000000E+00 0. -1.
         25    2    1    2    0    0  0.86498247341E+02  0.22737201774E+03 -0.45203554716E+02  0.27725609499E+03  0.12509036576E+03 0.  0.
         23    2    1    2    0    0 -0.86498247341E+02 -0.22737201774E+03  0.42157634984E+02  0.26305606717E+03  0.90781314391E+02 0.  0.
          5    1    3    3  502    0 -0.74818538567E+01 -0.12466781949E+02  0.22468061888E+01  0.15294421445E+02  0.41800000000E+01 0.  1.
         -5    1    3    3    0  502  0.93980101197E+02  0.23983879969E+03 -0.47450360905E+02  0.26196167354E+03  0.41800000000E+01 0.  1.
        -11    1    4    4    0    0 -0.24906530770E+02 -0.16992105900E+03  0.48891339109E+02  0.17856053485E+03  0.00000000000E+00 0.  1.
         11    1    4    4    0    0 -0.61591716571E+02 -0.57450958740E+02 -0.67337041255E+01  0.84495532317E+02  0.00000000000E+00 0. -1.
</event>
<event>
 8    1  0.6760442E-009  0.1105287E+03  0.7561462E-02  0.1259594E+00
         -1   -1    0    0    0  501 -0.00000000000E+00  0.00000000000E+00  0.23789253751E+02  0.23789253751E+02  0.00000000000E+00 0.  1.
          1   -1    0    0  501    0  0.00000000000E+00 -0.00000000000E+00 -0.66206361281E+03  0.66206361281E+03  0.00000000000E+00 0. -1.
         25    2    1    2    0    0  0.65893565076E+02  0.50204093481E+01 -0.35499487151E+03  0.38214670126E+03  0.12509027163E+03 0.  0.
         23    2    1    2    0    0 -0.65893565076E+02 -0.50204093481E+01 -0.28327948755E+03  0.30370616530E+03  0.87309795253E+02 0.  0.
          5    1    3    3  502    0 -0.23131048015E+02  0.10911466943E+02 -0.13610429488E+02  0.29271516598E+02  0.41800000000E+01 0.  1.
         -5    1    3    3    0  502  0.89024613090E+02 -0.58910575947E+01 -0.34138444202E+03  0.35287518466E+03  0.41800000000E+01 0.  1.
        -11    1    4    4    0    0  0.39799144078E+01 -0.31017890881E+02 -0.12336440715E+03  0.12726635936E+03  0.00000000000E+00 0.  1.
         11    1    4    4    0    0 -0.69873479483E+02  0.25997481533E+02 -0.15991508040E+03  0.17643980594E+03  0.00000000000E+00 0. -1.
</event>
<event>
 8    1  0.6760442E-009  0.9553711E+02  0.7561462E-02  0.1289971E+00
         -4   -1    0    0    0  501 -0.00000000000E+00  0.00000000000E+00  0.80772633986E+03  0.80772633986E+03  0.00000000000E+00 0.  1.
          4   -1    0    0  501    0  0.00000000000E+00 -0.00000000000E+00 -0.18947889336E+02  0.18947889336E+02  0.00000000000E+00 0. -1.
         25    2    1    2    0    0 -0.35553627941E+02 -0.16232784067E+01  0.59777987271E+03  0.61176101023E+03  0.12507622448E+03 0.  0.
         23    2    1    2    0    0  0.35553627941E+02  0.16232784067E+01  0.19099857782E+03  0.21491321897E+03  0.91872408625E+02 0.  0.
          5    1    3    3  502    0  0.19558280593E+02  0.28679198049E+02  0.53941422083E+02  0.64281973809E+02  0.41800000000E+01 0.  1.
         -5    1    3    3    0  502 -0.55111908534E+02 -0.30302476455E+02  0.54383845062E+03  0.54747903642E+03  0.41800000000E+01 0.  1.
        -11    1    4    4    0    0  0.18815653569E+02  0.43816771096E+02  0.62373901167E+02  0.78513959239E+02  0.00000000000E+00 0. -1.
         11    1    4    4    0    0  0.16737974372E+02 -0.42193492690E+02  0.12862467665E+03  0.13639925973E+03  0.00000000000E+00 0.  1.
</event>
<event>
 8    1  0.6760442E-009  0.9558882E+02  0.7561462E-02  0.1289855E+00
         -1   -1    0    0    0  501 -0.00000000000E+00  0.00000000000E+00  0.39669046104E+03  0.39669046104E+03  0.00000000000E+00 0.  1.
          1   -1    0    0  501    0  0.00000000000E+00 -0.00000000000E+00 -0.35549955493E+02  0.35549955493E+02  0.00000000000E+00 0. -1.
         25    2    1    2    0    0  0.22056281378E+02  0.10365393239E+02  0.13261896592E+03  0.18392894146E+03  0.12509254358E+03 0.  0.
         23    2    1    2    0    0 -0.22056281378E+02 -0.10365393239E+02  0.22852153962E+03  0.24831147507E+03  0.94034959752E+02 0.  0.
          5    1    3    3  502    0 -0.28746249478E+02  0.27848857247E+02  0.12270533618E+03  0.12913550107E+03  0.41800000000E+01 0.  1.
         -5    1    3    3    0  502  0.50802530856E+02 -0.17483464008E+02  0.99136297403E+01  0.54793440389E+02  0.41800000000E+01 0.  1.
        -11    1    4    4    0    0 -0.50789607293E+02  0.20596275186E+02  0.12359469389E+03  0.13520147602E+03  0.00000000000E+00 0.  1.
         11    1    4    4    0    0  0.28733325915E+02 -0.30961668425E+02  0.10492684573E+03  0.11310999905E+03  0.00000000000E+00 0. -1.
</event>
<event>
 8    1  0.6760442E-009  0.1447367E+03  0.7561462E-02  0.1207094E+00
          1   -1    0    0  501    0  0.00000000000E+00  0.00000000000E+00  0.22372628155E+03  0.22372628155E+03  0.00000000000E+00 0. -1.
         -1   -1    0    0    0  501 -0.00000000000E+00 -0.00000000000E+00 -0.10604599289E+03  0.10604599289E+03  0.00000000000E+00 0.  1.
         25    2    1    2    0    0  0.10369979617E+03  0.21224946349E+02  0.90510676368E+02  0.18721835816E+03  0.12511748487E+03 0.  0.
         23    2    1    2    0    0 -0.10369979617E+03 -0.21224946349E+02  0.27169612291E+02  0.14255391629E+03  0.91538435338E+02 0.  0.
          5    1    3    3  502    0  0.46054397798E+02  0.63225757294E+02  0.84955097811E+02  0.11555667435E+03  0.41800000000E+01 0.  1.
         -5    1    3    3    0  502  0.57645398371E+02 -0.42000810945E+02  0.55555785570E+01  0.71661683810E+02  0.41800000000E+01 0.  1.
        -11    1    4    4    0    0 -0.74857211374E+02  0.30211436875E+02  0.11520852531E+02  0.81541787176E+02  0.00000000000E+00 0. -1.
         11    1    4    4    0    0 -0.28842584795E+02 -0.51436383225E+02  0.15648759760E+02  0.61012129113E+02  0.00000000000E+00 0.  1.
</event>
<event>
 8    1  0.6760442E-009  0.9893578E+02  0.7561462E-02  0.1282550E+00
         -1   -1    0    0    0  501 -0.00000000000E+00  0.00000000000E+00  0.16777220802E+02  0.16777220802E+02  0.00000000000E+00 0.  1.
          1   -1    0    0  501    0  0.00000000000E+00 -0.00000000000E+00 -0.69441103525E+03  0.69441103525E+03  0.00000000000E+00 0. -1.
         25    2    1    2    0    0  0.69637817461E+01  0.18594111720E+00 -0.41521178143E+03  0.43370166531E+03  0.12509109572E+03 0.  0.
         23    2    1    2    0    0 -0.69637817461E+01 -0.18594111720E+00 -0.26242203302E+03  0.27748659073E+03  0.89916382237E+02 0.  0.
          5    1    3    3  502    0  0.63368203966E+02 -0.12921746790E+02 -0.26092449750E+03  0.26885231376E+03  0.41800000000E+01 0. -1.
         -5    1    3    3    0  502 -0.56404422220E+02  0.13107687907E+02 -0.15428728393E+03  0.16484935156E+03  0.41800000000E+01 0. -1.
        -11    1    4    4    0    0 -0.23951045841E+02 -0.31386395783E+02 -0.21296045074E+03  0.21658927032E+03  0.00000000000E+00 0. -1.
         11    1    4    4    0    0  0.16987264095E+02  0.31200454665E+02 -0.49461582277E+02  0.60897320418E+02  0.00000000000E+00 0.  1.
</event>
<event>
 8    1  0.6760442E-009  0.8228199E+02  0.7561462E-02  0.1322697E+00
          2   -1    0    0  501    0  0.00000000000E+00  0.00000000000E+00  0.18419648914E+03  0.18419648914E+03  0.00000000000E+00 0. -1.
         -2   -1    0    0    0  501 -0.00000000000E+00 -0.00000000000E+00 -0.81467555312E+02  0.81467555312E+02  0.00000000000E+00 0.  1.
         25    2    1    2    0    0  0.42397259423E+02 -0.12181091783E+00  0.10581342847E+03  0.16923841464E+03  0.12509043489E+03 0.  0.
         23    2    1    2    0    0 -0.42397259423E+02  0.12181091783E+00 -0.30844946401E+01  0.96425629812E+02  0.86549670900E+02 0.  0.
          5    1    3    3  502    0  0.29181827454E+02 -0.39347014583E+02  0.11635973865E+03  0.12632033799E+03  0.41800000000E+01 0.  1.
         -5    1    3    3    0  502  0.13215431969E+02  0.39225203665E+02 -0.10546310187E+02  0.42918076649E+02  0.41800000000E+01 0.  1.
        -11    1    4    4    0    0  0.16471275852E+01 -0.23676543421E+02 -0.31049762973E+02  0.39081703114E+02  0.00000000000E+00 0.  1.
         11    1    4    4    0    0 -0.44044387008E+02  0.23798354339E+02  0.27965268333E+02  0.57343926697E+02  0.00000000000E+00 0. -1.
</event>
<event>
 8    1  0.6760442E-009  0.7168162E+02  0.7561462E-02  0.1354466E+00
          2   -1    0    0  501    0  0.00000000000E+00  0.00000000000E+00  0.11321015966E+04  0.11321015966E+04  0.00000000000E+00 0. -1.
         -2   -1    0    0    0  501 -0.00000000000E+00 -0.00000000000E+00 -0.19499587881E+02  0.19499587881E+02  0.00000000000E+00 0.  1.
         25    2    1    2    0    0  0.33917035434E+02  0.43134721246E+01  0.97081375156E+03  0.97943658282E+03  0.12509079982E+03 0.  0.
         23    2    1    2    0    0 -0.33917035434E+02 -0.43134721246E+01  0.14178825719E+03  0.17216460170E+03  0.91475509654E+02 0.  0.
          5    1    3    3  502    0 -0.12050291398E+01 -0.22171033471E+02  0.29853536942E+02  0.37439456304E+02  0.41800000000E+01 0.  1.
         -5    1    3    3    0  502  0.35122064573E+02  0.26484505595E+02  0.94096021462E+03  0.94199712651E+03  0.41800000000E+01 0.  1.
        -11    1    4    4    0    0 -0.44317437556E+02 -0.26811832875E+02  0.34941292102E+02  0.62480425313E+02  0.00000000000E+00 0. -1.
         11    1    4    4    0    0  0.10400402122E+02  0.22498360750E+02  0.10684696508E+03  0.10968417638E+03  0.00000000000E+00 0.  1.
</event>
<event>
 8    1  0.6760442E-009  0.1276706E+03  0.7561462E-02  0.1230954E+00
         -2   -1    0    0    0  501 -0.00000000000E+00  0.00000000000E+00  0.91562403311E+02  0.91562403311E+02  0.00000000000E+00 0.  1.
          2   -1    0    0  501    0  0.00000000000E+00 -0.00000000000E+00 -0.19031028304E+03  0.19031028304E+03  0.00000000000E+00 0. -1.
         25    2    1    2    0    0 -0.67258380666E+02 -0.21345518273E+02 -0.73783833132E+02  0.16146246075E+03  0.12508697486E+03 0.  0.
         23    2    1    2    0    0  0.67258380666E+02  0.21345518273E+02 -0.24964046595E+02  0.12041022560E+03  0.94319127888E+02 0.  0.
          5    1    3    3  502    0 -0.62008375310E+02 -0.68943212598E+02 -0.33286751823E+02  0.98608749200E+02  0.41800000000E+01 0.  1.
         -5    1    3    3    0  502 -0.52500053566E+01  0.47597694325E+02 -0.40497081309E+02  0.62853711552E+02  0.41800000000E+01 0.  1.
        -11    1    4    4    0    0 -0.17072914816E+02  0.24732244826E+02 -0.19519657993E+02  0.35835532682E+02  0.00000000000E+00 0.  1.
         11    1    4    4    0    0  0.84331295482E+02 -0.33867265530E+01 -0.54443886020E+01  0.84574692915E+02  0.00000000000E+00 0. -1.
</event>
<event>
 8    1  0.6760442E-009  0.2011311E+03  0.7561462E-02  0.1148788E+00
         -2   -1    0    0    0  501 -0.00000000000E+00  0.00000000000E+00  0.40693752016E+03  0.40693752016E+03  0.00000000000E+00 0.  1.
          2   -1    0    0  501    0  0.00000000000E+00 -0.00000000000E+00 -0.17000991122E+03  0.17000991122E+03  0.00000000000E+00 0. -1.
         25    2    1    2    0    0 -0.84352984132E+02 -0.17416277812E+03  0.27563159938E+03  0.35926120468E+03  0.12509090855E+03 0.  0.
         23    2    1    2    0    0  0.84352984132E+02  0.17416277812E+03 -0.38703990431E+02  0.21768622670E+03  0.91875977300E+02 0.  0.
          5    1    3    3  502    0 -0.46860681142E+02 -0.12312504776E+03  0.81383687838E+02  0.15490796580E+03  0.41800000000E+01 0.  1.
         -5    1    3    3    0  502 -0.37492302991E+02 -0.51037730361E+02  0.19424791154E+03  0.20435323888E+03  0.41800000000E+01 0.  1.
        -11    1    4    4    0    0  0.94376425151E+02  0.12397704819E+03 -0.52951133627E+02  0.16456318135E+03  0.00000000000E+00 0. -1.
         11    1    4    4    0    0 -0.10023441019E+02  0.50185729929E+02  0.14247143196E+02  0.53123045353E+02  0.00000000000E+00 0.  1.
</event>
<event>
 8    1  0.6760442E-009  0.1678771E+03  0.7561462E-02  0.1180080E+00
         -1   -1    0    0    0  501 -0.00000000000E+00  0.00000000000E+00  0.37947800339E+03  0.37947800339E+03  0.00000000000E+00 0.  1.
          1   -1    0    0  501    0  0.00000000000E+00 -0.00000000000E+00 -0.10580612447E+03  0.10580612447E+03  0.00000000000E+00 0. -1.
         25    2    1    2    0    0 -0.12075457317E+03  0.59390651436E+02  0.26665459784E+03  0.32382291653E+03  0.12509072829E+03 0.  0.
         23    2    1    2    0    0  0.12075457317E+03 -0.59390651436E+02  0.70172810883E+01  0.16146121133E+03  0.88946973587E+02 0.  0.
          5    1    3    3  502    0 -0.12453072279E+03  0.85292848387E+02  0.25133840051E+03  0.29320851774E+03  0.41800000000E+01 0. -1.
         -5    1    3    3    0  502  0.37761496210E+01 -0.25902196951E+02  0.15316197331E+02  0.30614398794E+02  0.41800000000E+01 0. -1.
        -11    1    4    4    0    0  0.60504826417E+02 -0.74655895406E+02 -0.11065959956E+02  0.96730513326E+02  0.00000000000E+00 0.  1.
         11    1    4    4    0    0  0.60249746752E+02  0.15265243970E+02  0.18083241044E+02  0.64730698001E+02  0.00000000000E+00 0. -1.
</event>
<event>
 8    1  0.6760442E-009  0.1529157E+03  0.7561462E-02  0.1196935E+00
         -1   -1    0    0    0  501 -0.00000000000E+00  0.00000000000E+00  0.24430498234E+02  0.24430498234E+02  0.00000000000E+00 0.  1.
          1   -1    0    0  501    0  0.00000000000E+00 -0.00000000000E+00 -0.10540519960E+04  0.10540519960E+04  0.00000000000E+00 0. -1.
         25    2    1    2    0    0  0.10494543555E+03 -0.51870853296E+02 -0.57750171215E+03  0.60237846406E+03  0.12508979400E+03 0.  0.
         23    2    1    2    0    0 -0.10494543555E+03  0.51870853296E+02 -0.45211978557E+03  0.47610403013E+03  0.92512794448E+02 0.  0.
          5    1    3    3  502    0  0.10152099353E+01  0.30709608949E+02 -0.53780188018E+02  0.62079720974E+02  0.41800000000E+01 0.  1.
         -5    1    3    3    0  502  0.10393022561E+03 -0.82580462245E+02 -0.52372152413E+03  0.54029874308E+03  0.41800000000E+01 0.  1.
        -11    1    4    4    0    0 -0.84017061793E+02 -0.21856921791E+01 -0.19175865198E+03  0.20936815549E+03  0.00000000000E+00 0.  1.
         11    1    4    4    0    0 -0.20928373756E+02  0.54056545476E+02 -0.26036113359E+03  0.26673587464E+03  0.00000000000E+00 0. -1.
</event>
<event>
 8    1  0.6760442E-009  0.8173413E+02  0.7561462E-02  0.1324201E+00
         -1   -1    0    0    0  501 -0.00000000000E+00  0.00000000000E+00  0.86024194360E+02  0.86024194360E+02  0.00000000000E+00 0. -1.
          1   -1    0    0  501    0  0.00000000000E+00 -0.00000000000E+00 -0.21140805809E+03  0.21140805809E+03  0.00000000000E+00 0.  1.
         25    2    1    2    0    0  0.89306854738E+01  0.25183755104E+02  0.11080117236E+02  0.12839529113E+03  0.12509437686E+03 0.  0.
         23    2    1    2    0    0 -0.89306854738E+01 -0.25183755104E+02 -0.13646398097E+03  0.16903696132E+03  0.96109820136E+02 0.  0.
          5    1    3    3  502    0 -0.16483732691E+01 -0.41037784241E+02  0.37906731249E+02  0.56046494483E+02  0.41800000000E+01 0. -1.
         -5    1    3    3    0  502  0.10579058743E+02  0.66221539346E+02 -0.26826614014E+02  0.72348796649E+02  0.41800000000E+01 0. -1.
        -11    1    4    4    0    0 -0.27223804449E+02 -0.48676676665E+01  0.21630211180E+01  0.27740014015E+02  0.00000000000E+00 0. -1.
         11    1    4    4    0    0  0.18293118975E+02 -0.20316087438E+02 -0.13862700208E+03  0.14129694730E+03  0.00000000000E+00 0.  1.
</event>
<event>
 8    1  0.6760442E-009  0.1864223E+03  0.7561462E-02  0.1161728E+00
          2   -1    0    0  501    0  0.00000000000E+00  0.00000000000E+00  0.73654202599E+03  0.73654202599E+03  0.00000000000E+00 0. -1.
         -2   -1    0    0    0  501 -0.00000000000E+00 -0.00000000000E+00 -0.51273823253E+02  0.51273823253E+02  0.00000000000E+00 0.  1.
         25    2    1    2    0    0  0.10431509842E+03  0.11982345407E+03  0.35198755372E+03  0.40593398425E+03  0.12509141336E+03 0.  0.
         23    2    1    2    0    0 -0.10431509842E+03 -0.11982345407E+03  0.33328064902E+03  0.38188186499E+03  0.97562635739E+02 0.  0.
          5    1    3    3  502    0  0.12803837943E+03  0.10394152657E+03  0.33232254502E+03  0.37101672992E+03  0.41800000000E+01 0.  1.
         -5    1    3    3    0  502 -0.23723281009E+02  0.15881927503E+02  0.19665008696E+02  0.34917254332E+02  0.41800000000E+01 0.  1.
        -11    1    4    4    0    0 -0.61880506017E+02 -0.11845044764E+02  0.70032761218E+02  0.94202387200E+02  0.00000000000E+00 0.  1.
         11    1    4    4    0    0 -0.42434592407E+02 -0.10797840931E+03  0.26324788780E+03  0.28767947779E+03  0.00000000000E+00 0. -1.
</event>
<event>
 8    1  0.6760442E-009  0.1355534E+03  0.7561462E-02  0.1219441E+00
          1   -1    0    0  501    0  0.00000000000E+00  0.00000000000E+00  0.45507633634E+02  0.45507633634E+02  0.00000000000E+00 0. -1.
         -1   -1    0    0    0  501 -0.00000000000E+00 -0.00000000000E+00 -0.52948571585E+03  0.52948571585E+03  0.00000000000E+00 0.  1.
         25    2    1    2    0    0  0.26549140803E+02  0.86531520481E+02 -0.14558750224E+03  0.21220805131E+03  0.12507587824E+03 0.  0.
         23    2    1    2    0    0 -0.26549140803E+02 -0.86531520481E+02 -0.33839057997E+03  0.36278529817E+03  0.94405651533E+02 0.  0.
          5    1    3    3  502    0  0.74321539994E+02  0.69198358880E+02 -0.81285658482E+02  0.13014197960E+03  0.41800000000E+01 0. -1.
         -5    1    3    3    0  502 -0.47772399191E+02  0.17333161601E+02 -0.64301843758E+02  0.82066071712E+02  0.41800000000E+01 0. -1.
        -11    1    4    4    0    0  0.23786491358E+02 -0.52736623109E+02 -0.24273811210E+03  0.24953705067E+03  0.00000000000E+00 0.  1.
         11    1    4    4    0    0 -0.50335632161E+02 -0.33794897371E+02 -0.95652467866E+02  0.11324824750E+03  0.00000000000E+00 0. -1.
</event>
<event>
 8    1  0.6760442E-009  0.1036155E+03  0.7561462E-02  0.1272872E+00
         -1   -1    0    0    0  501 -0.00000000000E+00  0.00000000000E+00  0.10321302441E+03  0.10321302441E+03  0.00000000000E+00 0.  1.
          1   -1    0    0  501    0  0.00000000000E+00 -0.00000000000E+00 -0.11435471404E+03  0.11435471404E+03  0.00000000000E+00 0. -1.
         25    2    1    2    0    0  0.18337169126E+02 -0.53852490479E+01 -0.29150876468E+01  0.12657323603E+03  0.12508810361E+03 0.  0.
         23    2    1    2    0    0 -0.18337169126E+02  0.53852490479E+01 -0.82266019901E+01  0.90994502425E+02  0.88583688184E+02 0.  0.
          5    1    3    3  502    0 -0.40577046651E+02 -0.39911752829E+02 -0.94561913207E+01  0.57847529620E+02  0.41800000000E+01 0.  1.
         -5    1    3    3    0  502  0.58914215777E+02  0.34526503781E+02  0.65411036738E+01  0.68725706408E+02  0.41800000000E+01 0.  1.
        -11    1    4    4    0    0  0.22468526169E+02  0.27358403933E+02  0.15826543593E+02  0.38778814011E+02  0.00000000000E+00 0.  1.
         11    1    4    4    0    0 -0.40805695295E+02 -0.21973154885E+02 -0.24053145583E+02  0.52215688414E+02  0.00000000000E+00 0. -1.
</event>
<event>
 8    1  0.6760442E-009  0.1004478E+03  0.7561462E-02  0.1279357E+00
          1   -1    0    0  501    0  0.00000000000E+00  0.00000000000E+00  0.63653610896E+03  0.63653610896E+03  0.00000000000E+00 0. -1.
         -1   -1    0    0    0  501 -0.00000000000E+00 -0.00000000000E+00 -0.21973866139E+02  0.21973866139E+02  0.00000000000E+00 0.  1.
         25    2    1    2    0    0 -0.29817600965E+02 -0.44217218905E+02  0.37618040287E+03  0.40000411372E+03  0.12508934294E+03 0.  0.
         23    2    1    2    0    0  0.29817600965E+02  0.44217218905E+02  0.23838183996E+03  0.25850586138E+03  0.84587983616E+02 0.  0.
          5    1    3    3  502    0  0.94150141958E+01  0.23508899142E+02  0.13597506038E+02  0.29046090987E+02  0.41800000000E+01 0.  1.
         -5    1    3    3    0  502 -0.39232615160E+02 -0.67726118047E+02  0.36258289683E+03  0.37095802273E+03  0.41800000000E+01 0.  1.
        -11    1    4    4    0    0 -0.25852680158E+02  0.29581222153E+02  0.12973002518E+03  0.13554810662E+03  0.00000000000E+00 0.  1.
         11    1    4    4    0    0  0.55670281123E+02  0.14635996752E+02  0.10865181478E+03  0.12295775476E+03  0.00000000000E+00 0. -1.
</event>
<event>
 8    1  0.6760442E-009  0.8260644E+02  0.7561462E-02  0.1321813E+00
          1   -1    0    0  501    0  0.00000000000E+00  0.00000000000E+00  0.41158903707E+02  0.41158903707E+02  0.00000000000E+00 0. -1.
         -1   -1    0    0    0  501 -0.00000000000E+00 -0.00000000000E+00 -0.30205337999E+03  0.30205337999E+03  0.00000000000E+00 0.  1.
         25    2    1    2    0    0  0.18587807020E+02 -0.16586112500E+02 -0.14319498586E+03  0.19176119649E+03  0.12508775641E+03 0.  0.
         23    2    1    2    0    0 -0.18587807020E+02  0.16586112500E+02 -0.11769949042E+03  0.15145108721E+03  0.91998130815E+02 0.  0.
          5    1    3    3  502    0  0.54534591494E+02 -0.15411878002E+02 -0.15312237330E+02  0.58851377767E+02  0.41800000000E+01 0.  1.
         -5    1    3    3    0  502 -0.35946784474E+02 -0.11742344988E+01 -0.12788274853E+03  0.13290981872E+03  0.41800000000E+01 0.  1.
        -11    1    4    4    0    0 -0.41813535382E+02 -0.28282278297E+01 -0.11337443376E+03  0.12087238247E+03  0.00000000000E+00 0.  1.
         11    1    4    4    0    0  0.23225728362E+02  0.19414340330E+02 -0.43250566634E+01  0.30578704739E+02  0.00000000000E+00 0. -1.
</event>
<event>
 8    1  0.6760442E-009  0.8541519E+02  0.7561462E-02  0.1314350E+00
         -1   -1    0    0    0  501 -0.00000000000E+00  0.00000000000E+00  0.92452721977E+03  0.92452721977E+03  0.00000000000E+00 0.  1.
          1   -1    0    0  501    0  0.00000000000E+00 -0.00000000000E+00 -0.16406245019E+02  0.16406245019E+02  0.00000000000E+00 0. -1.
         25    2    1    2    0    0 -0.34870889727E+02  0.16678705681E+02  0.66393907414E+03  0.67672474175E+03  0.12508846370E+03 0.  0.
         23    2    1    2    0    0  0.34870889727E+02 -0.16678705681E+02  0.24418190061E+03  0.26420872305E+03  0.93205635946E+02 0.  0.
          5    1    3    3  502    0  0.50619126380E+01  0.53380553753E+02  0.52126416723E+03  0.52403140260E+03  0.41800000000E+01 0.  1.
         -5    1    3    3    0  502 -0.39932802365E+02 -0.36701848072E+02  0.14267490691E+03  0.15269333915E+03  0.41800000000E+01 0. -1.
        -11    1    4    4    0    0 -0.12757111059E+02 -0.32370384535E+01 -0.18126038481E+01  0.13285625060E+02  0.00000000000E+00 0. -1.
         11    1    4    4    0    0  0.47628000786E+02 -0.13441667228E+02  0.24599450446E+03  0.25092309799E+03  0.00000000000E+00 0.  1.
</event>
<event>
 8    1  0.6760442E-009  0.1491955E+03  0.7561462E-02  0.1201465E+00
         -4   -1    0    0    0  501 -0.00000000000E+00  0.00000000000E+00  0.37979511622E+03  0.37979511622E+03  0.00000000000E+00 0.  1.
          4   -1    0    0  501    0  0.00000000000E+00 -0.00000000000E+00 -0.68451840081E+02  0.68451840081E+02  0.00000000000E+00 0. -1.
         25    2    1    2    0    0 -0.90377130442E+02  0.68416919028E+02  0.21822363653E+03  0.27589552913E+03  0.12509151423E+03 0.  0.
         23    2    1    2    0    0  0.90377130442E+02 -0.68416919028E+02  0.93119639602E+02  0.17235142717E+03  0.90470142326E+02 0.  0.
          5    1    3    3  502    0 -0.12011300100E+02 -0.30652727296E+02  0.89693586396E+02  0.95636148298E+02  0.41800000000E+01 0.  1.
         -5    1    3    3    0  502 -0.78365830342E+02  0.99069646324E+02  0.12853005014E+03  0.18025938083E+03  0.41800000000E+01 0.  1.
        -11    1    4    4    0    0  0.48339340875E+02 -0.81529914643E+02  0.85526667852E+02  0.12766608701E+03  0.00000000000E+00 0.  1.
         11    1    4    4    0    0  0.42037789567E+02  0.13112995615E+02  0.75929717507E+01  0.44685340165E+02  0.00000000000E+00 0. -1.
</event>
<event>
 8    1  0.6760442E-009  0.1255752E+03  0.7561462E-02  0.1234173E+00
         -1   -1    0    0    0  501 -0.00000000000E+00  0.00000000000E+00  0.23730483976E+02  0.23730483976E+02  0.00000000000E+00 0.  1.
          1   -1    0    0  501    0  0.00000000000E+00 -0.00000000000E+00 -0.10890454720E+04  0.10890454720E+04  0.00000000000E+00 0. -1.
         25    2    1    2    0    0 -0.10629047597E+03 -0.32663867451E+02 -0.69185948311E+03  0.71181601145E+03  0.12509155152E+03 0.  0.
         23    2    1    2    0    0  0.10629047597E+03  0.32663867451E+02 -0.37345550492E+03  0.40095994453E+03  0.94526554193E+02 0.  0.
          5    1    3    3  502    0 -0.88080776155E+02 -0.33285121078E+02 -0.68567980490E+03  0.69212743745E+03  0.41800000000E+01 0. -1.
         -5    1    3    3    0  502 -0.18209699818E+02  0.62125362693E+00 -0.61796782105E+01  0.19688574004E+02  0.41800000000E+01 0. -1.
        -11    1    4    4    0    0  0.77004548137E+02 -0.18550598894E+02 -0.14741188300E+03  0.16734422130E+03  0.00000000000E+00 0.  1.
         11    1    4    4    0    0  0.29285927836E+02  0.51214466345E+02 -0.22604362191E+03  0.23361572323E+03  0.00000000000E+00 0. -1.
</event>
<event>
 8    1  0.6760442E-009  0.8514451E+02  0.7561462E-02  0.1315055E+00
         -2   -1    0    0    0  501 -0.00000000000E+00  0.00000000000E+00  0.74997034193E+02  0.74997034193E+02  0.00000000000E+00 0.  1.
          2   -1    0    0  501    0  0.00000000000E+00 -0.00000000000E+00 -0.19955800377E+03  0.19955800377E+03  0.00000000000E+00 0. -1.
         25    2    1    2    0    0 -0.81202875024E+00  0.87419513636E+01 -0.13281154952E+03  0.18263979468E+03  0.12506520623E+03 0.  0.
         23    2    1    2    0    0  0.81202875024E+00 -0.87419513636E+01  0.82505799441E+01  0.91915243283E+02  0.91122218882E+02 0.  0.
          5    1    3    3  502    0  0.35209545720E+02 -0.30085572512E+02 -0.82577065922E+01  0.47228337906E+02  0.41800000000E+01 0. -1.
         -5    1    3    3    0  502 -0.36021574470E+02  0.38827523876E+02 -0.12455384293E+03  0.13541145677E+03  0.41800000000E+01 0. -1.
        -11    1    4    4    0    0 -0.29437204527E+02 -0.22867093408E+02 -0.24932047887E+02  0.44844843440E+02  0.00000000000E+00 0. -1.
         11    1    4    4    0    0  0.30249233278E+02  0.14125142044E+02  0.33182627831E+02  0.47070399843E+02  0.00000000000E+00 0.  1.
</event>
<event>
 8    1  0.6760442E-009  0.1086832E+03  0.7561462E-02  0.1263028E+00
         -3   -1    0    0    0  501 -0.00000000000E+00  0.00000000000E+00  0.68396878202E+03  0.68396878202E+03  0.00000000000E+00 0.  1.
          3   -1    0    0  501    0  0.00000000000E+00 -0.00000000000E+00 -0.19556940795E+02  0.19556940795E+02  0.00000000000E+00 0. -1.
         25    2    1    2    0    0 -0.17590839495E+02  0.19503169222E+02  0.47149682663E+03  0.48851544475E+03  0.12509304936E+03 0.  0.
         23    2    1    2    0    0  0.17590839495E+02 -0.19503169222E+02  0.19291501460E+03  0.21501027806E+03  0.91232700122E+02 0.  0.
          5    1    3    3  502    0 -0.50016266800E+02  0.54806646771E+02  0.35071181269E+03  0.35849915402E+03  0.41800000000E+01 0. -1.
         -5    1    3    3    0  502  0.32425427305E+02 -0.35303477549E+02  0.12078501394E+03  0.13001629073E+03  0.41800000000E+01 0. -1.
        -11    1    4    4    0    0  0.34669744367E+01 -0.55840497446E+02  0.11469016638E+03  0.12760883720E+03  0.00000000000E+00 0. -1.
         11    1    4    4    0    0  0.14123865058E+02  0.36337328223E+02  0.78224848214E+02  0.87401440861E+02  0.00000000000E+00 0.  1.
</event>
<event>
 8    1  0.6760442E-009  0.1349421E+03  0.7561462E-02  0.1220302E+00
          2   -1    0    0  501    0  0.00000000000E+00  0.00000000000E+00  0.42437065770E+03  0.42437065770E+03  0.00000000000E+00 0. -1.
         -2   -1    0    0    0  501 -0.00000000000E+00 -0.00000000000E+00 -0.49782170423E+02  0.49782170423E+02  0.00000000000E+00 0.  1.
         25    2    1    2    0    0  0.23485525830E+02 -0.93419856655E+02  0.19619316466E+03  0.25182986378E+03  0.12509069865E+03 0.  0.
         23    2    1    2    0    0 -0.23485525830E+02  0.93419856655E+02  0.17839532262E+03  0.22232296435E+03  0.91234696277E+02 0.  0.
          5    1    3    3  502    0 -0.90697534910E+01 -0.11529753322E+03  0.16500675705E+03  0.20154524025E+03  0.41800000000E+01 0.  1.
         -5    1    3    3    0  502  0.32555279321E+02  0.21877676563E+02  0.31186407612E+02  0.50284623527E+02  0.41800000000E+01 0.  1.
        -11    1    4    4    0    0 -0.27397845926E+02  0.71026453306E+01  0.52095505703E+01  0.28778967133E+02  0.00000000000E+00 0.  1.
         11    1    4    4    0    0  0.39123200960E+01  0.86317211325E+02  0.17318577205E+03  0.19354399722E+03  0.00000000000E+00 0. -1.
</event>
<event>
 8    1  0.6760442E-009  0.1503778E+03  0.7561462E-02  0.1200010E+00
          2   -1    0    0  501    0  0.00000000000E+00  0.00000000000E+00  0.17287590934E+03  0.17287590934E+03  0.00000000000E+00 0. -1.
         -2   -1    0    0    0  501 -0.00000000000E+00 -0.00000000000E+00 -0.16386138196E+03  0.16386138196E+03  0.00000000000E+00 0.  1.
         25    2    1    2    0    0 -0.58031200981E+02  0.91125340210E+02  0.44934554941E+02  0.17128389594E+03  0.12509041076E+03 0.  0.
         23    2    1    2    0    0  0.58031200981E+02 -0.91125340210E+02 -0.35920027559E+02  0.16545339537E+03  0.12005469480E+03 0.  0.
          5    1    3    3  502    0 -0.91356630286E+02  0.39135688875E+02  0.45500276287E+02  0.10938639579E+03  0.41800000000E+01 0.  1.
         -5    1    3    3    0  502  0.33325429306E+02  0.51989651335E+02 -0.56572134579E+00  0.61897500151E+02  0.41800000000E+01 0.  1.
        -11    1    4    4    0    0  0.62950553002E+01 -0.87280998417E+02  0.19379890983E+02  0.89628012253E+02  0.00000000000E+00 0. -1.
         11    1    4    4    0    0  0.51736145680E+02 -0.38443417929E+01 -0.55299918543E+02  0.75825383115E+02  0.00000000000E+00 0.  1.
</event>
<event>
 8    1  0.6760442E-009  0.1021644E+03  0.7561462E-02  0.1275809E+00
         -2   -1    0    0    0  501 -0.00000000000E+00  0.00000000000E+00  0.49194576132E+02  0.49194576132E+02  0.00000000000E+00 0.  1.
          2   -1    0    0  501    0  0.00000000000E+00 -0.00000000000E+00 -0.29544708519E+03  0.29544708519E+03  0.00000000000E+00 0. -1.
         25    2    1    2    0    0 -0.40390071170E+02  0.14671912815E+02 -0.18037531248E+03  0.22367196425E+03  0.12508905373E+03 0.  0.
         23    2    1    2    0    0  0.40390071170E+02 -0.14671912815E+02 -0.65877196584E+02  0.12096969708E+03  0.91908866312E+02 0.  0.
          5    1    3    3  502    0  0.26538117313E+02  0.31930825224E+02 -0.13396429469E+03  0.14031305684E+03  0.41800000000E+01 0.  1.
         -5    1    3    3    0  502 -0.66928188482E+02 -0.17258912408E+02 -0.46411017789E+02  0.83358907402E+02  0.41800000000E+01 0.  1.
        -11    1    4    4    0    0  0.21801075578E+02 -0.49382644180E+02 -0.60740783280E+02  0.81261154287E+02  0.00000000000E+00 0. -1.
         11    1    4    4    0    0  0.18588995591E+02  0.34710731365E+02 -0.51364133038E+01  0.39708542791E+02  0.00000000000E+00 0.  1.
</event>
<event>
 8    1  0.6760442E-009  0.5314350E+02  0.7561462E-02  0.1429088E+00
          4   -1    0    0  501    0  0.00000000000E+00  0.00000000000E+00  0.87072254269E+02  0.87072254269E+02  0.00000000000E+00 0.  1.
         -4   -1    0    0    0  501 -0.00000000000E+00 -0.00000000000E+00 -0.13677884520E+03  0.13677884520E+03  0.00000000000E+00 0. -1.
         25    2    1    2    0    0  0.10660951443E+02  0.13117396758E-01 -0.33850438759E+02  0.13003790254E+03  0.12510135025E+03 0.  0.
         23    2    1    2    0    0 -0.10660951443E+02 -0.13117396758E-01 -0.15856152176E+02  0.93813196935E+02  0.91846841533E+02 0.  0.
          5    1    3    3  502    0  0.95780044509E+00  0.14444548164E+02 -0.79549292395E+02  0.80963724432E+02  0.41800000000E+01 0. -1.
         -5    1    3    3    0  502  0.97031509977E+01 -0.14431430767E+02  0.45698853635E+02  0.49074178107E+02  0.41800000000E+01 0. -1.
        -11    1    4    4    0    0  0.15681666227E+02 -0.29735971530E+02  0.20994151652E+02  0.39634543798E+02  0.00000000000E+00 0.  1.
         11    1    4    4    0    0 -0.26342617669E+02  0.29722854133E+02 -0.36850303828E+02  0.54178653137E+02  0.00000000000E+00 0. -1.
</event>
<event>
 8    1  0.6760442E-009  0.1071185E+03  0.7561462E-02  0.1266001E+00
         -2   -1    0    0    0  501 -0.00000000000E+00  0.00000000000E+00  0.76988537159E+02  0.76988537159E+02  0.00000000000E+00 0. -1.
          2   -1    0    0  501    0  0.00000000000E+00 -0.00000000000E+00 -0.24427501531E+03  0.24427501531E+03  0.00000000000E+00 0.  1.
         25    2    1    2    0    0 -0.64905805537E+02 -0.50571788170E+02 -0.84123071186E+02  0.17173810269E+03  0.12508803083E+03 0.  0.
         23    2    1    2    0    0  0.64905805537E+02  0.50571788170E+02 -0.83163406964E+02  0.14952544978E+03  0.93120559078E+02 0.  0.
          5    1    3    3  502    0 -0.81617959870E+02 -0.50520094338E+02 -0.10654133700E+03  0.14346532750E+03  0.41800000000E+01 0.  1.
         -5    1    3    3    0  502  0.16712154333E+02 -0.51693832047E-01  0.22418265813E+02  0.28272775187E+02  0.41800000000E+01 0.  1.
        -11    1    4    4    0    0  0.29984721649E+01 -0.12321101903E+02 -0.55664320151E+02  0.57090427616E+02  0.00000000000E+00 0.  1.
         11    1    4    4    0    0  0.61907333373E+02  0.62892890073E+02 -0.27499086812E+02  0.92435022165E+02  0.00000000000E+00 0. -1.
</event>
<event>
 8    1  0.6760442E-009  0.1420040E+03  0.7561462E-02  0.1210658E+00
         -2   -1    0    0    0  501 -0.00000000000E+00  0.00000000000E+00  0.59264546431E+02  0.59264546431E+02  0.00000000000E+00 0. -1.
          2   -1    0    0  501    0  0.00000000000E+00 -0.00000000000E+00 -0.56527256740E+03  0.56527256740E+03  0.00000000000E+00 0.  1.
         25    2    1    2    0    0 -0.29802430570E+02 -0.97149539586E+02 -0.85255071956E+02  0.18232549560E+03  0.12509173090E+03 0.  0.
         23    2    1    2    0    0  0.29802430570E+02  0.97149539586E+02 -0.42075294901E+03  0.44221161823E+03  0.90508857515E+02 0.  0.
          5    1    3    3  502    0 -0.71547303946E+02 -0.68525054973E+02 -0.86408191464E+02  0.13152394388E+03  0.41800000000E+01 0. -1.
         -5    1    3    3    0  502  0.41744873376E+02 -0.28624484613E+02  0.11531195080E+01  0.50801551720E+02  0.41800000000E+01 0. -1.
        -11    1    4    4    0    0 -0.28681218164E+02  0.12767616998E+02 -0.13414936317E+03  0.13777400320E+03  0.00000000000E+00 0.  1.
         11    1    4    4    0    0  0.58483648734E+02  0.84381922588E+02 -0.28660358583E+03  0.30443761502E+03  0.00000000000E+00 0. -1.
</event>
<event>
 8    1  0.6760442E-009  0.8925244E+02  0.7561462E-02  0.1304672E+00
         -4   -1    0    0    0  501 -0.00000000000E+00  0.00000000000E+00  0.52661271955E+03  0.52661271955E+03  0.00000000000E+00 0.  1.
          4   -1    0    0  501    0  0.00000000000E+00 -0.00000000000E+00 -0.27309010972E+02  0.27309010972E+02  0.00000000000E+00 0. -1.
         25    2    1    2    0    0 -0.41607535145E+02  0.18816758171E+02  0.23575737158E+03  0.27076633051E+03  0.12509040778E+03 0.  0.
         23    2    1    2    0    0  0.41607535145E+02 -0.18816758171E+02  0.26354633700E+03  0.28315540001E+03  0.92924977468E+02 0.  0.
          5    1    3    3  502    0 -0.14410505491E+02  0.58655229261E+02  0.20416637345E+03  0.21295417121E+03  0.41800000000E+01 0.  1.
         -5    1    3    3    0  502 -0.27197029654E+02 -0.39838471089E+02  0.31590998126E+02  0.57812159304E+02  0.41800000000E+01 0.  1.
        -11    1    4    4    0    0  0.29591308507E+02 -0.37229182796E+02  0.25527094834E+03  0.25966307912E+03  0.00000000000E+00 0.  1.
         11    1    4    4    0    0  0.12016226637E+02  0.18412424624E+02  0.82753886583E+01  0.23492320886E+02  0.00000000000E+00 0. -1.
</event>
<event>
 8    1  0.6760442E-009  0.1242340E+03  0.7561462E-02  0.1236271E+00
          1   -1    0    0  501    0  0.00000000000E+00  0.00000000000E+00  0.15227946531E+03  0.15227946531E+03  0.00000000000E+00 0. -1.
         -1   -1    0    0    0  501 -0.00000000000E+00 -0.00000000000E+00 -0.11739768718E+03  0.11739768718E+03  0.00000000000E+00 0.  1.
         25    2    1    2    0    0 -0.74205484060E+02  0.24934653652E+02  0.46722887348E+02  0.15478553337E+03  0.12508933735E+03 0.  0.
         23    2    1    2    0    0  0.74205484060E+02 -0.24934653652E+02 -0.11841109211E+02  0.11489161913E+03  0.83256720214E+02 0.  0.
          5    1    3    3  502    0  0.26827077035E+02  0.20467930607E+02 -0.13977167936E+02  0.36762234277E+02  0.41800000000E+01 0.  1.
         -5    1    3    3    0  502 -0.10103256109E+03  0.44667230450E+01  0.60700055284E+02  0.11802329909E+03  0.41800000000E+01 0.  1.
        -11    1    4    4    0    0  0.40399619302E+02 -0.54839787973E+02 -0.14641563353E+02  0.69669986093E+02  0.00000000000E+00 0. -1.
         11    1    4    4    0    0  0.33805864758E+02  0.29905134321E+02  0.28004541423E+01  0.45221633034E+02  0.00000000000E+00 0.  1.
</event>
<event>
 8    1  0.6760442E-009  0.1165727E+03  0.7561462E-02  0.1248861E+00
         -1   -1    0    0    0  501 -0.00000000000E+00  0.00000000000E+00  0.38768627421E+02  0.38768627421E+02  0.00000000000E+00 0.  1.
          1   -1    0    0  501    0  0.00000000000E+00 -0.00000000000E+00 -0.44234045947E+03  0.44234045947E+03  0.00000000000E+00 0. -1.
         25    2    1    2    0    0  0.72482368568E+02 -0.83230960361E+01 -0.23120260314E+03  0.27281025477E+03  0.12509126160E+03 0.  0.
         23    2    1    2    0    0 -0.72482368568E+02  0.83230960361E+01 -0.17236922891E+03  0.20829883212E+03  0.91401776284E+02 0.  0.
          5    1    3    3  502    0  0.84740163402E+02 -0.32689488397E+02 -0.22746510340E+03  0.24496396390E+03  0.41800000000E+01 0.  1.
         -5    1    3    3    0  502 -0.12257794834E+02  0.24366392361E+02 -0.37374997412E+01  0.27846290870E+02  0.41800000000E+01 0.  1.
        -11    1    4    4    0    0  0.13060095248E+02 -0.20546050449E+02 -0.21503408403E+02  0.32482346742E+02  0.00000000000E+00 0.  1.
         11    1    4    4    0    0 -0.85542463815E+02  0.28869146485E+02 -0.15086582051E+03  0.17581648538E+03  0.00000000000E+00 0. -1.
</event>
<event>
 8    1  0.6760442E-009  0.9961643E+02  0.7561462E-02  0.1281105E+00
          2   -1    0    0  501    0  0.00000000000E+00  0.00000000000E+00  0.91163765484E+03  0.91163765484E+03  0.00000000000E+00 0. -1.
         -2   -1    0    0    0  501 -0.00000000000E+00 -0.00000000000E+00 -0.31902389015E+02  0.31902389015E+02  0.00000000000E+00 0.  1.
         25    2    1    2    0    0 -0.41308729338E+02  0.49161594283E+02  0.78556468420E+03  0.79804918205E+03  0.12508936979E+03 0.  0.
         23    2    1    2    0    0  0.41308729338E+02 -0.49161594283E+02  0.94170581624E+02  0.14549086181E+03  0.90422447178E+02 0.  0.
          5    1    3    3  502    0  0.19064723920E+02 -0.29745733360E+02  0.32069313817E+03  0.32266055479E+03  0.41800000000E+01 0.  1.
         -5    1    3    3    0  502 -0.60373453258E+02  0.78907327642E+02  0.46487154603E+03  0.47538862726E+03  0.41800000000E+01 0.  1.
        -11    1    4    4    0    0  0.30487726852E+02 -0.36123656242E+02 -0.25105493138E+01  0.47336274534E+02  0.00000000000E+00 0.  1.
         11    1    4    4    0    0  0.10821002486E+02 -0.13037938041E+02  0.96681130938E+02  0.98154587272E+02  0.00000000000E+00 0. -1.
</event>
<event>
 8    1  0.6760442E-009  0.1112468E+03  0.7561462E-02  0.1258278E+00
         -2   -1    0    0    0  501 -0.00000000000E+00  0.00000000000E+00  0.46252638102E+02  0.46252638102E+02  0.00000000000E+00 0.  1.
          2   -1    0    0  501    0  0.00000000000E+00 -0.00000000000E+00 -0.31221822322E+03  0.31221822322E+03  0.00000000000E+00 0. -1.
         25    2    1    2    0    0 -0.22500046417E+02  0.45769365151E+02 -0.14977425996E+03  0.20169613024E+03  0.12509161895E+03 0.  0.
         23    2    1    2    0    0  0.22500046417E+02 -0.45769365151E+02 -0.11619132516E+03  0.15677473108E+03  0.92069568206E+02 0.  0.
          5    1    3    3  502    0  0.43527067448E+02  0.14481305721E+02 -0.10803609570E+03  0.11744609057E+03  0.41800000000E+01 0. -1.
         -5    1    3    3    0  502 -0.66027113865E+02  0.31288059430E+02 -0.41738164259E+02  0.84250039667E+02  0.41800000000E+01 0. -1.
        -11    1    4    4    0    0  0.55102941259E+02 -0.12174421661E+02 -0.48137402737E+02  0.74173851325E+02  0.00000000000E+00 0.  1.
         11    1    4    4    0    0 -0.32602894842E+02 -0.33594943490E+02 -0.68053922421E+02  0.82600879760E+02  0.00000000000E+00 0. -1.
</event>
<event>
 8    1  0.6760442E-009  0.1084705E+03  0.7561462E-02  0.1263429E+00
          2   -1    0    0  501    0  0.00000000000E+00  0.00000000000E+00  0.24305513833E+03  0.24305513833E+03  0.00000000000E+00 0.  1.
         -2   -1    0    0    0  501 -0.00000000000E+00 -0.00000000000E+00 -0.69326491260E+02  0.69326491260E+02  0.00000000000E+00 0. -1.
         25    2    1    2    0    0 -0.20795957429E+01 -0.65965791505E+01  0.17784573398E+03  0.21754489655E+03  0.12509531304E+03 0.  0.
         23    2    1    2    0    0  0.20795957429E+01  0.65965791505E+01 -0.41170869157E+01  0.94836733034E+02  0.94494528693E+02 0.  0.
          5    1    3    3  502    0 -0.13098895733E+02  0.57873496777E+02  0.91677954108E+02  0.10928514248E+03  0.41800000000E+01 0.  1.
         -5    1    3    3    0  502  0.11019299990E+02 -0.64470075927E+02  0.86167779874E+02  0.10825975407E+03  0.41800000000E+01 0.  1.
        -11    1    4    4    0    0 -0.42508432647E+02 -0.11120869660E+02  0.95171687512E+01  0.44957948008E+02  0.00000000000E+00 0. -1.
         11    1    4    4    0    0  0.44588028390E+02  0.17717448810E+02 -0.13634255667E+02  0.49878785026E+02  0.00000000000E+00 0.  1.
</event>
<event>
 8    1  0.6760442E-009  0.1150839E+03  0.7561462E-02  0.1251435E+00
         -1   -1    0    0    0  501 -0.00000000000E+00  0.00000000000E+00  0.73511833779E+02  0.73511833779E+02  0.00000000000E+00 0.  1.
          1   -1    0    0  501    0  0.00000000000E+00 -0.00000000000E+00 -0.30577568831E+03  0.30577568831E+03  0.00000000000E+00 0. -1.
         25    2    1    2    0    0 -0.55371684534E+02  0.56916884408E+01 -0.15598467278E+02  0.13777510187E+03  0.12506097612E+03 0.  0.
         23    2    1    2    0    0  0.55371684534E+02 -0.56916884408E+01 -0.21666538725E+03  0.24151242022E+03  0.91027140580E+02 0.  0.
          5    1    3    3  502    0  0.35358688249E+02  0.25661783935E+02 -0.44963592008E+01  0.44118631387E+02  0.41800000000E+01 0.  1.
         -5    1    3    3    0  502 -0.90730372782E+02 -0.19970095495E+02 -0.11102108077E+02  0.93656470482E+02  0.41800000000E+01 0.  1.
        -11    1    4    4    0    0 -0.16768030918E+02 -0.12366459192E+02 -0.11382179097E+03  0.11571299094E+03  0.00000000000E+00 0. -1.
         11    1    4    4    0    0  0.72139715451E+02  0.66747707507E+01 -0.10284359629E+03  0.12579942928E+03  0.00000000000E+00 0.  1.
</event>
<event>
 8    1  0.6760442E-009  0.9877816E+02  0.7561462E-02  0.1282886E+00
          1   -1    0    0  501    0  0.00000000000E+00  0.00000000000E+00  0.16572229328E+04  0.16572229328E+04  0.00000000000E+00 0. -1.
         -1   -1    0    0    0  501 -0.00000000000E+00 -0.00000000000E+00 -0.14962639421E+02  0.14962639421E+02  0.00000000000E+00 0.  1.
         25    2    1    2    0    0  0.75927546145E+01  0.39951502572E+02  0.14477749786E+04  0.14537385034E+04  0.12509786269E+03 0.  0.
         23    2    1    2    0    0 -0.75927546145E+01 -0.39951502572E+02  0.19448531480E+03  0.21844706880E+03  0.90778916682E+02 0.  0.
          5    1    3    3  502    0 -0.39848937633E+02  0.53465629675E+01  0.17520817113E+03  0.17981073159E+03  0.41800000000E+01 0.  1.
         -5    1    3    3    0  502  0.47441692248E+02  0.34604939605E+02  0.12725668074E+04  0.12739277718E+04  0.41800000000E+01 0.  1.
        -11    1    4    4    0    0 -0.34772776305E+02  0.14288895306E+02  0.91465962341E+02  0.98890549437E+02  0.00000000000E+00 0.  1.
         11    1    4    4    0    0  0.27180021691E+02 -0.54240397878E+02  0.10301935246E+03  0.11955651936E+03  0.00000000000E+00 0. -1.
</event>
<event>
 8    1  0.6760442E-009  0.2242519E+03  0.7561462E-02  0.1130752E+00
          2   -1    0    0  501    0  0.00000000000E+00  0.00000000000E+00  0.13259577848E+04  0.13259577848E+04  0.00000000000E+00 0. -1.
         -2   -1    0    0    0  501 -0.00000000000E+00 -0.00000000000E+00 -0.44646018444E+02  0.44646018444E+02  0.00000000000E+00 0.  1.
         25    2    1    2    0    0 -0.11769506745E+03 -0.17237278450E+03  0.81648653249E+03  0.85197548964E+03  0.12508985358E+03 0.  0.
         23    2    1    2    0    0  0.11769506745E+03  0.17237278450E+03  0.46482523382E+03  0.51862831356E+03  0.96686730694E+02 0.  0.
          5    1    3    3  502    0 -0.11843324836E+03 -0.12057426916E+03  0.74285062602E+03  0.76184585953E+03  0.41800000000E+01 0.  1.
         -5    1    3    3    0  502  0.73818090501E+00 -0.51798515339E+02  0.73635906473E+02  0.90129630114E+02  0.41800000000E+01 0.  1.
        -11    1    4    4    0    0 -0.21234333448E+01  0.69543740873E+02  0.10856010937E+03  0.12894238330E+03  0.00000000000E+00 0.  1.
         11    1    4    4    0    0  0.11981850080E+03  0.10282904362E+03  0.35626512445E+03  0.38968593026E+03  0.00000000000E+00 0. -1.
</event>
<event>
 8    1  0.6760442E-009  0.2469455E+03  0.7561462E-02  0.1115251E+00
         -2   -1    0    0    0  501 -0.00000000000E+00  0.00000000000E+00  0.56383883122E+03  0.56383883122E+03  0.00000000000E+00 0.  1.
          2   -1    0    0  501    0  0.00000000000E+00 -0.00000000000E+00 -0.20512944646E+03  0.20512944646E+03  0.00000000000E+00 0. -1.
         25    2    1    2    0    0  0.23918950094E+03  0.44678091931E+02 -0.56070871398E+02  0.27927398802E+03  0.12506905496E+03 0.  0.
         23    2    1    2    0    0 -0.23918950094E+03 -0.44678091931E+02  0.41478025616E+03  0.48969428966E+03  0.92466681395E+02 0.  0.
          5    1    3    3  502    0  0.11506723152E+03  0.23653285178E+02 -0.90892564646E+02  0.14858962406E+03  0.41800000000E+01 0. -1.
         -5    1    3    3    0  502  0.12412226942E+03  0.21024806753E+02  0.34821693249E+02  0.13068436396E+03  0.41800000000E+01 0. -1.
        -11    1    4    4    0    0 -0.13863826118E+03 -0.55326501252E+02  0.17850274526E+03  0.23269039358E+03  0.00000000000E+00 0. -1.
         11    1    4    4    0    0 -0.10055123976E+03  0.10648409321E+02  0.23627751091E+03  0.25700389608E+03  0.00000000000E+00 0.  1.
</event>
<event>
 8    1  0.6760442E-009  0.1081576E+03  0.7561462E-02  0.1264020E+00
         -3   -1    0    0    0  501 -0.00000000000E+00  0.00000000000E+00  0.36849288539E+03  0.36849288539E+03  0.00000000000E+00 0.  1.
          3   -1    0    0  501    0  0.00000000000E+00 -0.00000000000E+00 -0.59488355765E+02  0.59488355765E+02  0.00000000000E+00 0. -1.
         25    2    1    2    0    0 -0.55034917179E+02  0.48479473234E+02  0.68858766276E+02  0.16052185823E+03  0.12508651343E+03 0.  0.
         23    2    1    2    0    0  0.55034917179E+02 -0.48479473234E+02  0.24014576335E+03  0.26745938293E+03  0.92116406946E+02 0.  0.
          5    1    3    3  502    0 -0.66072345353E+01  0.80806457733E+02  0.61154026239E+02  0.10163968952E+03  0.41800000000E+01 0.  1.
         -5    1    3    3    0  502 -0.48427682644E+02 -0.32326984500E+02  0.77047400370E+01  0.58882168711E+02  0.41800000000E+01 0.  1.
        -11    1    4    4    0    0  0.13176247487E+02 -0.64477671303E+00 -0.50749305734E+01  0.14134502297E+02  0.00000000000E+00 0. -1.
         11    1    4    4    0    0  0.41858669691E+02 -0.47834696521E+02  0.24522069392E+03  0.25332488063E+03  0.00000000000E+00 0.  1.
</event>
<event>
 8    1  0.6760442E-009  0.1236865E+03  0.7561462E-02  0.1237137E+00
          2   -1    0    0  501    0  0.00000000000E+00  0.00000000000E+00  0.96061742788E+03  0.96061742788E+03  0.00000000000E+00 0. -1.
         -2   -1    0    0    0  501 -0.00000000000E+00 -0.00000000000E+00 -0.38850636417E+02  0.38850636417E+02  0.00000000000E+00 0.  1.
         25    2    1    2    0    0 -0.43619240488E+01 -0.85194843516E+02  0.83134387887E+03  0.84501906987E+03  0.12508955100E+03 0.  0.
         23    2    1    2    0    0  0.43619240488E+01  0.85194843516E+02  0.90422912597E+02  0.15444899443E+03  0.91656974719E+02 0.  0.
          5    1    3    3  502    0 -0.16987791127E+02  0.15323636951E+02  0.33636937957E+02  0.40893946886E+02  0.41800000000E+01 0.  1.
         -5    1    3    3    0  502  0.12625867079E+02 -0.10051848047E+03  0.79770694091E+03  0.80412512299E+03  0.41800000000E+01 0.  1.
        -11    1    4    4    0    0  0.44792817863E+02  0.60740587214E+02  0.70130547261E+02  0.10302479860E+03  0.00000000000E+00 0.  1.
         11    1    4    4    0    0 -0.40430893814E+02  0.24454256302E+02  0.20292365336E+02  0.51424195831E+02  0.00000000000E+00 0. -1.
</event>
<event>
 8    1  0.6760442E-009  0.9438317E+02  0.7561462E-02  0.1292571E+00
         -1   -1    0    0    0  501 -0.00000000000E+00  0.00000000000E+00  0.44186619749E+02  0.44186619749E+02  0.00000000000E+00 0.  1.
          1   -1    0    0  501    0  0.00000000000E+00 -0.00000000000E+00 -0.27282831242E+03  0.27282831242E+03  0.00000000000E+00 0. -1.
         25    2    1    2    0    0 -0.12267950985E+01 -0.15754474649E+02 -0.10915141822E+03  0.16676655916E+03  0.12508934670E+03 0.  0.
         23    2    1    2    0    0  0.12267950985E+01  0.15754474649E+02 -0.11949027445E+03  0.15024837301E+03  0.89704734577E+02 0.  0.
          5    1    3    3  502    0 -0.47179275313E+02 -0.23880728714E+02 -0.10751236627E+03  0.11988558931E+03  0.41800000000E+01 0. -1.
         -5    1    3    3    0  502  0.45952480214E+02  0.81262540649E+01 -0.16390519517E+01  0.46880969852E+02  0.41800000000E+01 0. -1.
        -11    1    4    4    0    0  0.42911166860E+02 -0.32987575007E+01 -0.41495316533E+02  0.59783871877E+02  0.00000000000E+00 0.  1.
         11    1    4    4    0    0 -0.41684371762E+02  0.19053232150E+02 -0.77994957914E+02  0.90464501129E+02  0.00000000000E+00 0. -1.
</event>
<event>
 8    1  0.6760442E-009  0.1735438E+03  0.7561462E-02  0.1174202E+00
          1   -1    0    0  501    0  0.00000000000E+00  0.00000000000E+00  0.63485069229E+03  0.63485069229E+03  0.00000000000E+00 0. -1.
         -1   -1    0    0    0  501 -0.00000000000E+00 -0.00000000000E+00 -0.61516465855E+02  0.61516465855E+02  0.00000000000E+00 0.  1.
         25    2    1    2    0    0  0.14474682019E+03  0.51748156848E+02  0.40428907424E+03  0.45025191432E+03  0.12509043571E+03 0.  0.
         23    2    1    2    0    0 -0.14474682019E+03 -0.51748156848E+02  0.16904515220E+03  0.24611524383E+03  0.91470957522E+02 0.  0.
          5    1    3    3  502    0  0.59846499617E+01  0.43538866897E+02  0.37291258178E+02  0.57788920238E+02  0.41800000000E+01 0. -1.
         -5    1    3    3    0  502  0.13876217023E+03  0.82092899515E+01  0.36699781606E+03  0.39246299408E+03  0.41800000000E+01 0. -1.
        -11    1    4    4    0    0 -0.13487065150E+03 -0.27437572230E+02  0.94145576182E+02  0.16675221894E+03  0.00000000000E+00 0.  1.
         11    1    4    4    0    0 -0.98761686958E+01 -0.24310584618E+02  0.74899576021E+02  0.79363024897E+02  0.00000000000E+00 0. -1.
</event>
<event>
 8    1  0.6760442E-009  0.1284742E+03  0.7561462E-02  0.1229737E+00
         -1   -1    0    0    0  501 -0.00000000000E+00  0.00000000000E+00  0.45239983042E+02  0.45239983042E+02  0.00000000000E+00 0.  1.
          1   -1    0    0  501    0  0.00000000000E+00 -0.00000000000E+00 -0.49425264000E+03  0.49425264000E+03  0.00000000000E+00 0. -1.
         25    2    1    2    0    0  0.39843785301E+02  0.90845487205E+02 -0.19828686739E+03  0.25457548542E+03  0.12510222309E+03 0.  0.
         23    2    1    2    0    0 -0.39843785301E+02 -0.90845487205E+02 -0.25072578957E+03  0.28491713763E+03  0.92053918911E+02 0.  0.
          5    1    3    3  502    0 -0.33574263445E+02  0.13501406272E+02 -0.11061560178E+03  0.11645944742E+03  0.41800000000E+01 0.  1.
         -5    1    3    3    0  502  0.73418048745E+02  0.77344080933E+02 -0.87671265612E+02  0.13811603799E+03  0.41800000000E+01 0.  1.
        -11    1    4    4    0    0 -0.68904566268E+01  0.74366005642E+01  0.32136697799E+01  0.10635275922E+02  0.00000000000E+00 0.  1.
         11    1    4    4    0    0 -0.32953328674E+02 -0.98282087769E+02 -0.25393945935E+03  0.27428186171E+03  0.00000000000E+00 0. -1.
</event>
<event>
 8    1  0.6760442E-009  0.1462535E+03  0.7561462E-02  0.1205154E+00
         -2   -1    0    0    0  501 -0.00000000000E+00  0.00000000000E+00  0.36758605169E+02  0.36758605169E+02  0.00000000000E+00 0.  1.
          2   -1    0    0  501    0  0.00000000000E+00 -0.00000000000E+00 -0.81101998587E+03  0.81101998587E+03  0.00000000000E+00 0. -1.
         25    2    1    2    0    0 -0.62758329634E+02  0.11625295794E+03 -0.39738850855E+03  0.43705686402E+03  0.12509083696E+03 0.  0.
         23    2    1    2    0    0  0.62758329634E+02 -0.11625295794E+03 -0.37687287215E+03  0.41072172702E+03  0.95946949471E+02 0.  0.
          5    1    3    3  502    0  0.19998184499E+02  0.24544549106E+02 -0.15177159772E+02  0.35357896612E+02  0.41800000000E+01 0. -1.
         -5    1    3    3    0  502 -0.82756514134E+02  0.91708408836E+02 -0.38221134878E+03  0.40169896741E+03  0.41800000000E+01 0. -1.
        -11    1    4    4    0    0  0.17497232638E+02 -0.70412555107E+02 -0.84678002367E+02  0.11150984329E+03  0.00000000000E+00 0.  1.
         11    1    4    4    0    0  0.45261096996E+02 -0.45840402835E+02 -0.29219486979E+03  0.29921188373E+03  0.00000000000E+00 0. -1.
</event>
<event>
 8    1  0.6760442E-009  0.1347373E+03  0.7561462E-02  0.1220591E+00
         -2   -1    0    0    0  501 -0.00000000000E+00  0.00000000000E+00  0.12805897452E+03  0.12805897452E+03  0.00000000000E+00 0.  1.
          2   -1    0    0  501    0  0.00000000000E+00 -0.00000000000E+00 -0.16537021230E+03  0.16537021230E+03  0.00000000000E+00 0. -1.
         25    2    1    2    0    0  0.28423241886E+02 -0.80834554390E+02  0.31363173374E+02  0.15480699984E+03  0.12505779740E+03 0.  0.
         23    2    1    2    0    0 -0.28423241886E+02  0.80834554390E+02 -0.68674411158E+02  0.13862218698E+03  0.84603960382E+02 0.  0.
          5    1    3    3  502    0 -0.33631189650E+02  0.15007771452E+02  0.11747006122E+02  0.38881289512E+02  0.41800000000E+01 0.  1.
         -5    1    3    3    0  502  0.62054431537E+02 -0.95842325842E+02  0.19616167252E+02  0.11592571032E+03  0.41800000000E+01 0.  1.
        -11    1    4    4    0    0  0.19665638840E+02 -0.45280672107E+01 -0.22769732962E+02  0.30425342772E+02  0.00000000000E+00 0.  1.
         11    1    4    4    0    0 -0.48088880726E+02  0.85362621601E+02 -0.45904678196E+02  0.10819684421E+03  0.00000000000E+00 0. -1.
</event>
<event>
 8    1  0.6760442E-009  0.2975192E+03  0.7561462E-02  0.1086487E+00
          1   -1    0    0  501    0  0.00000000000E+00  0.00000000000E+00  0.67518904541E+03  0.67518904541E+03  0.00000000000E+00 0. -1.
         -1   -1    0    0    0  501 -0.00000000000E+00 -0.00000000000E+00 -0.17974346657E+03  0.17974346657E+03  0.00000000000E+00 0.  1.
         25    2    1    2    0    0 -0.28943778007E+03  0.33993114196E+02  0.62027260454E+02  0.32314819451E+03  0.12509042423E+03 0.  0.
         23    2    1    2    0    0  0.28943778007E+03 -0.33993114196E+02  0.43341831838E+03  0.53178431747E+03  0.10006678398E+03 0.  0.
          5    1    3    3  502    0 -0.16506595017E+03  0.47299138089E+02  0.91445050110E+02  0.19458583186E+03  0.41800000000E+01 0. -1.
         -5    1    3    3    0  502 -0.12437182990E+03 -0.13306023893E+02 -0.29417789656E+02  0.12856236266E+03  0.41800000000E+01 0. -1.
        -11    1    4    4    0    0  0.26464909359E+03 -0.11891255340E+02  0.41867339866E+03  0.49544723173E+03  0.00000000000E+00 0. -1.
         11    1    4    4    0    0  0.24788686477E+02 -0.22101858856E+02  0.14744919729E+02  0.36337085738E+02  0.00000000000E+00 0.  1.
</event>
<event>
 8    1  0.6760442E-009  0.1537233E+03  0.7561462E-02  0.1195971E+00
          2   -1    0    0  501    0  0.00000000000E+00  0.00000000000E+00  0.11388682514E+03  0.11388682514E+03  0.00000000000E+00 0. -1.
         -2   -1    0    0    0  501 -0.00000000000E+00 -0.00000000000E+00 -0.24655517898E+03  0.24655517898E+03  0.00000000000E+00 0.  1.
         25    2    1    2    0    0 -0.13253978000E+02  0.13411212087E+03 -0.60892147053E+02  0.19369374739E+03  0.12509070832E+03 0.  0.
         23    2    1    2    0    0  0.13253978000E+02 -0.13411212087E+03 -0.71776206784E+02  0.16674825672E+03  0.67018119654E+02 0.  0.
          5    1    3    3  502    0 -0.51638976268E+02  0.43199896482E+02  0.15035006874E+02  0.69111061038E+02  0.41800000000E+01 0.  1.
         -5    1    3    3    0  502  0.38384998269E+02  0.90912224391E+02 -0.75927153927E+02  0.12458268635E+03  0.41800000000E+01 0.  1.
        -11    1    4    4    0    0  0.28584238470E+02 -0.78916672981E+02 -0.13466473248E+02  0.85007328302E+02  0.00000000000E+00 0. -1.
         11    1    4    4    0    0 -0.15330260470E+02 -0.55195447892E+02 -0.58309733536E+02  0.81740928421E+02  0.00000000000E+00 0.  1.
</event>
<event>
 8    1  0.6760442E-009  0.9015395E+02  0.7561462E-02  0.1302479E+00
          2   -1    0    0  501    0  0.00000000000E+00  0.00000000000E+00  0.26487027225E+03  0.26487027225E+03  0.00000000000E+00 0. -1.
         -2   -1    0    0    0  501 -0.00000000000E+00 -0.00000000000E+00 -0.65127375574E+02  0.65127375574E+02  0.00000000000E+00 0.  1.
         25    2    1    2    0    0  0.16880153140E+02  0.68657672780E+02  0.76144082285E+02  0.16261796970E+03  0.12509143536E+03 0.  0.
         23    2    1    2    0    0 -0.16880153140E+02 -0.68657672780E+02  0.12359881439E+03  0.16737967812E+03  0.87979964358E+02 0.  0.
          5    1    3    3  502    0 -0.15280515387E+02  0.24729247401E+02  0.99119005810E+02  0.10337833206E+03  0.41800000000E+01 0. -1.
         -5    1    3    3    0  502  0.32160668527E+02  0.43928425379E+02 -0.22974923525E+02  0.59239637637E+02  0.41800000000E+01 0. -1.
        -11    1    4    4    0    0  0.25305637853E+02 -0.23398900705E+02  0.66907021037E+01  0.35109106454E+02  0.00000000000E+00 0.  1.
         11    1    4    4    0    0 -0.42185790992E+02 -0.45258772075E+02  0.11690811229E+03  0.13227057167E+03  0.00000000000E+00 0. -1.
</event>
<event>
 8    1  0.6760442E-009  0.2827523E+03  0.7561462E-02  0.1094195E+00
          2   -1    0    0  501    0  0.00000000000E+00  0.00000000000E+00  0.76696716787E+03  0.76696716787E+03  0.00000000000E+00 0. -1.
         -2   -1    0    0    0  501 -0.00000000000E+00 -0.00000000000E+00 -0.11394506237E+03  0.11394506237E+03  0.00000000000E+00 0.  1.
         25    2    1    2    0    0 -0.98843284592E+02 -0.24687196348E+03  0.43702963876E+03  0.52664834845E+03  0.12509123275E+03 0.  0.
         23    2    1    2    0    0  0.98843284592E+02  0.24687196348E+03  0.21599246674E+03  0.35426388179E+03  0.90190858691E+02 0.  0.
          5    1    3    3  502    0  0.25803163663E+02 -0.54421489071E+02  0.58483284160E+02  0.84055152453E+02  0.41800000000E+01 0.  1.
         -5    1    3    3    0  502 -0.12464644825E+03 -0.19245047441E+03  0.37854635460E+03  0.44259319600E+03  0.41800000000E+01 0.  1.
        -11    1    4    4    0    0  0.83023887009E+02  0.10895905452E+03  0.14058108695E+03  0.19628571875E+03  0.00000000000E+00 0. -1.
         11    1    4    4    0    0  0.15819397582E+02  0.13791290895E+03  0.75411379798E+02  0.15797816304E+03  0.00000000000E+00 0.  1.
</event>
<event>
 8    1  0.6760442E-009  0.1023995E+03  0.7561462E-02  0.1275330E+00
         -1   -1    0    0    0  501 -0.00000000000E+00  0.00000000000E+00  0.15325029090E+03  0.15325029090E+03  0.00000000000E+00 0.  1.
          1   -1    0    0  501    0  0.00000000000E+00 -0.00000000000E+00 -0.12182277071E+03  0.12182277071E+03  0.00000000000E+00 0. -1.
         25    2    1    2    0    0 -0.63035730225E+02 -0.42728939539E+02 -0.90753284558E+01  0.14672611964E+03  0.12508767741E+03 0.  0.
         23    2    1    2    0    0  0.63035730225E+02  0.42728939539E+02  0.40502848646E+02  0.12834694197E+03  0.95043101827E+02 0.  0.
          5    1    3    3  502    0 -0.46809612248E+02 -0.76274090154E+02 -0.40007590234E+02  0.98117054094E+02  0.41800000000E+01 0. -1.
         -5    1    3    3    0  502 -0.16226117977E+02  0.33545150616E+02  0.30932261779E+02  0.48609065545E+02  0.41800000000E+01 0. -1.
        -11    1    4    4    0    0  0.30330503019E+02  0.29870521751E+02 -0.28279671323E+02  0.51107018042E+02  0.00000000000E+00 0. -1.
         11    1    4    4    0    0  0.32705227206E+02  0.12858417788E+02  0.68782519969E+02  0.77239923925E+02  0.00000000000E+00 0.  1.
</event>
<event>
 8    1  0.6760442E-009  0.9270517E+02  0.7561462E-02  0.1296430E+00
         -3   -1    0    0    0  501 -0.00000000000E+00  0.00000000000E+00  0.21851829008E+03  0.21851829008E+03  0.00000000000E+00 0.  1.
          3   -1    0    0  501    0  0.00000000000E+00 -0.00000000000E+00 -0.67894572316E+02  0.67894572316E+02  0.00000000000E+00 0. -1.
         25    2    1    2    0    0  0.24240113259E+02  0.42638382977E+02  0.51365599322E+02  0.14384118265E+03  0.12508495608E+03 0.  0.
         23    2    1    2    0    0 -0.24240113259E+02 -0.42638382977E+02  0.99258118442E+02  0.14257167975E+03  0.89827028201E+02 0.  0.
          5    1    3    3  502    0  0.52431252537E+02  0.80985644028E+01  0.75963861338E+02  0.92750221657E+02  0.41800000000E+01 0.  1.
         -5    1    3    3    0  502 -0.28191139278E+02  0.34539818574E+02 -0.24598262016E+02  0.51090960992E+02  0.41800000000E+01 0.  1.
        -11    1    4    4    0    0 -0.50251920198E+02 -0.29513858321E+02  0.97240179016E+02  0.11336655473E+03  0.00000000000E+00 0.  1.
         11    1    4    4    0    0  0.26011806938E+02 -0.13124524656E+02  0.20179394260E+01  0.29205125015E+02  0.00000000000E+00 0. -1.
</event>
<event>
 8    1  0.6760442E-009  0.1690489E+03  0.7561462E-02  0.1178843E+00
          2   -1    0    0  501    0  0.00000000000E+00  0.00000000000E+00  0.11113989639E+04  0.11113989639E+04  0.00000000000E+00 0. -1.
         -2   -1    0    0    0  501 -0.00000000000E+00 -0.00000000000E+00 -0.29105339932E+02  0.29105339932E+02  0.00000000000E+00 0.  1.
         25    2    1    2    0    0 -0.11529277697E+03 -0.69097680679E+02  0.72810644595E+03  0.75090184624E+03  0.12509065574E+03 0.  0.
         23    2    1    2    0    0  0.11529277697E+03  0.69097680679E+02  0.35418717802E+03  0.38960245759E+03  0.90964850330E+02 0.  0.
          5    1    3    3  502    0 -0.10105552600E+03  0.10377787128E+02  0.44574767186E+03  0.45719621298E+03  0.41800000000E+01 0.  1.
         -5    1    3    3    0  502 -0.14237250969E+02 -0.79475467806E+02  0.28235877409E+03  0.29370563325E+03  0.41800000000E+01 0.  1.
        -11    1    4    4    0    0  0.53814525202E+02  0.76629614922E+02  0.15582611157E+03  0.18179625423E+03  0.00000000000E+00 0.  1.
         11    1    4    4    0    0  0.61478251765E+02 -0.75319342432E+01  0.19836106645E+03  0.20780620336E+03  0.00000000000E+00 0. -1.
</event>
<event>
 8    1  0.6760442E-009  0.9222929E+02  0.7561462E-02  0.1297541E+00
         -2   -1    0    0    0  501 -0.00000000000E+00  0.00000000000E+00  0.67286676911E+02  0.67286676911E+02  0.00000000000E+00 0. -1.
          2   -1    0    0  501    0  0.00000000000E+00 -0.00000000000E+00 -0.22462757940E+03  0.22462757940E+03  0.00000000000E+00 0.  1.
         25    2    1    2    0    0 -0.86991470828E+01  0.18300625573E+02 -0.21365064111E+02  0.12850875340E+03  0.12508975050E+03 0.  0.
         23    2    1    2    0    0  0.86991470828E+01 -0.18300625573E+02 -0.13597583838E+03  0.16340550291E+03  0.88325204225E+02 0.  0.
          5    1    3    3  502    0 -0.64328635437E+01 -0.39157000979E+02 -0.50134838404E+02  0.64075165867E+02  0.41800000000E+01 0.  1.
         -5    1    3    3    0  502 -0.22662835390E+01  0.57457626552E+02  0.28769774293E+02  0.64433587537E+02  0.41800000000E+01 0.  1.
        -11    1    4    4    0    0 -0.30106002167E+02  0.16887956296E+02 -0.32430346676E+02  0.47363507259E+02  0.00000000000E+00 0. -1.
         11    1    4    4    0    0  0.38805149250E+02 -0.35188581869E+02 -0.10354549170E+03  0.11604199565E+03  0.00000000000E+00 0.  1.
</event>
<event>
 8    1  0.6760442E-009  0.1558254E+03  0.7561462E-02  0.1193492E+00
         -1   -1    0    0    0  501 -0.00000000000E+00  0.00000000000E+00  0.91251944911E+02  0.91251944911E+02  0.00000000000E+00 0.  1.
          1   -1    0    0  501    0  0.00000000000E+00 -0.00000000000E+00 -0.39352486372E+03  0.39352486372E+03  0.00000000000E+00 0. -1.
         25    2    1    2    0    0  0.12237963566E+03  0.91704873447E+01 -0.27463003090E+03  0.32577719992E+03  0.12509299364E+03 0.  0.
         23    2    1    2    0    0 -0.12237963566E+03 -0.91704873447E+01 -0.27642887912E+02  0.15899960871E+03  0.97241314542E+02 0.  0.
          5    1    3    3  502    0  0.80882146853E+02 -0.49872539644E+02 -0.10664085296E+03  0.14289484179E+03  0.41800000000E+01 0. -1.
         -5    1    3    3    0  502  0.41497488809E+02  0.59043026989E+02 -0.16798917793E+03  0.18288235813E+03  0.41800000000E+01 0. -1.
        -11    1    4    4    0    0 -0.12530859175E+03 -0.25315282397E+02 -0.44606476612E+02  0.13539883472E+03  0.00000000000E+00 0.  1.
         11    1    4    4    0    0  0.29289560846E+01  0.16144795053E+02  0.16963588701E+02  0.23600773984E+02  0.00000000000E+00 0. -1.
</event>
<event>
 8    1  0.6760442E-009  0.1195497E+03  0.7561462E-02  0.1243842E+00
          4   -1    0    0  501    0  0.00000000000E+00  0.00000000000E+00  0.20920358373E+03  0.20920358373E+03  0.00000000000E+00 0. -1.
         -4   -1    0    0    0  501 -0.00000000000E+00 -0.00000000000E+00 -0.13593632414E+03  0.13593632414E+03  0.00000000000E+00 0.  1.
         25    2    1    2    0    0 -0.47695754562E+02 -0.80746762103E+02 -0.52079567929E+02  0.16478445043E+03  0.12508680631E+03 0.  0.
         23    2    1    2    0    0  0.47695754562E+02  0.80746762103E+02  0.12534682752E+03  0.18035545745E+03  0.89561929802E+02 0.  0.
          5    1    3    3  502    0  0.12689693322E+02 -0.13101536149E+01  0.31701030632E+02  0.34426335301E+02  0.41800000000E+01 0. -1.
         -5    1    3    3    0  502 -0.60385447884E+02 -0.79436608488E+02 -0.83780598561E+02  0.13035811513E+03  0.41800000000E+01 0. -1.
        -11    1    4    4    0    0  0.43509849405E+02  0.98438041178E+02  0.88773908547E+02  0.13951330325E+03  0.00000000000E+00 0.  1.
         11    1    4    4    0    0  0.41859051571E+01 -0.17691279075E+02  0.36572918972E+02  0.40842154196E+02  0.00000000000E+00 0. -1.
</event>
<event>
 8    1  0.6760442E-009  0.1053558E+03  0.7561462E-02  0.1269420E+00
         -1   -1    0    0    0  501 -0.00000000000E+00  0.00000000000E+00  0.11892427076E+03  0.11892427076E+03  0.00000000000E+00 0.  1.
          1   -1    0    0  501    0  0.00000000000E+00 -0.00000000000E+00 -0.22045749618E+03  0.22045749618E+03  0.00000000000E+00 0. -1.
         25    2    1    2    0    0 -0.55945644839E+02 -0.20781952541E+02  0.53918618111E+02  0.14871864848E+03  0.12509282273E+03 0.  0.
         23    2    1    2    0    0  0.55945644839E+02  0.20781952541E+02 -0.15545184353E+03  0.19066311847E+03  0.92872732052E+02 0.  0.
          5    1    3    3  502    0  0.33208808615E+02  0.21552093574E+02  0.16183654516E+02  0.42973256573E+02  0.41800000000E+01 0. -1.
         -5    1    3    3    0  502 -0.89154453454E+02 -0.42334046115E+02  0.37734963595E+02  0.10574539190E+03  0.41800000000E+01 0. -1.
        -11    1    4    4    0    0  0.20450387639E+02  0.29190303088E+02 -0.51659071843E+01  0.36013591128E+02  0.00000000000E+00 0.  1.
         11    1    4    4    0    0  0.35495257200E+02 -0.84083505461E+01 -0.15028593635E+03  0.15464952734E+03  0.00000000000E+00 0. -1.
</event>
<event>
 8    1  0.6760442E-009  0.1367176E+03  0.7561462E-02  0.1217815E+00
          2   -1    0    0  501    0  0.00000000000E+00  0.00000000000E+00  0.10235865228E+03  0.10235865228E+03  0.00000000000E+00 0.  1.
         -2   -1    0    0    0  501 -0.00000000000E+00 -0.00000000000E+00 -0.19805841369E+03  0.19805841369E+03  0.00000000000E+00 0. -1.
         25    2    1    2    0    0 -0.56725313684E+02  0.71676254436E+02 -0.53892742379E+02  0.16403501726E+03  0.12509121690E+03 0.  0.
         23    2    1    2    0    0  0.56725313684E+02 -0.71676254436E+02 -0.41807019034E+02  0.13638204870E+03  0.92179117508E+02 0.  0.
          5    1    3    3  502    0  0.28465520316E+02  0.55719834643E+02 -0.16133454311E+01  0.62730065383E+02  0.41800000000E+01 0.  1.
         -5    1    3    3    0  502 -0.85190834000E+02  0.15956419793E+02 -0.52279396948E+02  0.10130495188E+03  0.41800000000E+01 0.  1.
        -11    1    4    4    0    0  0.45627774276E+02  0.55222834907E+01 -0.35614479220E+02  0.58144479794E+02  0.00000000000E+00 0.  1.
         11    1    4    4    0    0  0.11097539408E+02 -0.77198537927E+02 -0.61925398134E+01  0.78237568906E+02  0.00000000000E+00 0. -1.
</event>
<event>
 8    1  0.6760442E-009  0.7181097E+02  0.7561462E-02  0.1354041E+00
         -1   -1    0    0    0  501 -0.00000000000E+00  0.00000000000E+00  0.10867093792E+03  0.10867093792E+03  0.00000000000E+00 0.  1.
          1   -1    0    0  501    0  0.00000000000E+00 -0.00000000000E+00 -0.12289313689E+03  0.12289313689E+03  0.00000000000E+00 0. -1.
         25    2    1    2    0    0  0.41553783253E+02 -0.14633168020E+01  0.17377583495E+02  0.13295775874E+03  0.12508767726E+03 0.  0.
         23    2    1    2    0    0 -0.41553783253E+02  0.14633168020E+01 -0.31599782464E+02  0.98606316070E+02  0.83640905772E+02 0.  0.
          5    1    3    3  502    0 -0.10763047424E+02 -0.15213047511E+02  0.60633395006E+02  0.63570126588E+02  0.41800000000E+01 0. -1.
         -5    1    3    3    0  502  0.52316830677E+02  0.13749730709E+02 -0.43255811511E+02  0.69387632156E+02  0.41800000000E+01 0. -1.
        -11    1    4    4    0    0 -0.91341416666E+01 -0.26139810076E+02 -0.45972147783E+02  0.53667127616E+02  0.00000000000E+00 0. -1.
         11    1    4    4    0    0 -0.32419641587E+02  0.27603126878E+02  0.14372365319E+02  0.44939188454E+02  0.00000000000E+00 0.  1.
</event>
<event>
 8    1  0.6760442E-009  0.1835865E+03  0.7561462E-02  0.1164376E+00
         -1   -1    0    0    0  501 -0.00000000000E+00  0.00000000000E+00  0.41925516439E+02  0.41925516439E+02  0.00000000000E+00 0.  1.
          1   -1    0    0  501    0  0.00000000000E+00 -0.00000000000E+00 -0.91331835524E+03  0.91331835524E+03  0.00000000000E+00 0. -1.
         25    2    1    2    0    0 -0.86235271882E+00  0.15228617456E+03 -0.31773949738E+03  0.37389586239E+03  0.12509158688E+03 0.  0.
         23    2    1    2    0    0  0.86235271882E+00 -0.15228617456E+03 -0.55365334142E+03  0.58134800928E+03  0.90783604344E+02 0.  0.
          5    1    3    3  502    0 -0.12046061988E+02 -0.16616214542E+02 -0.75453463259E+02  0.78306472995E+02  0.41800000000E+01 0.  1.
         -5    1    3    3    0  502  0.11183709269E+02  0.16890238910E+03 -0.24228603412E+03  0.29558938940E+03  0.41800000000E+01 0.  1.
        -11    1    4    4    0    0 -0.34680661906E+02 -0.13091597583E+03 -0.43956041136E+03  0.45995118901E+03  0.00000000000E+00 0.  1.
         11    1    4    4    0    0  0.35543014625E+02 -0.21370198723E+02 -0.11409293006E+03  0.12139682027E+03  0.00000000000E+00 0. -1.
</event>
<event>
 8    1  0.6760442E-009  0.1878773E+03  0.7561462E-02  0.1160390E+00
          2   -1    0    0  501    0  0.00000000000E+00  0.00000000000E+00  0.81812677334E+02  0.81812677334E+02  0.00000000000E+00 0. -1.
         -2   -1    0    0    0  501 -0.00000000000E+00 -0.00000000000E+00 -0.48867836128E+03  0.48867836128E+03  0.00000000000E+00 0.  1.
         25    2    1    2    0    0  0.81738224497E+02 -0.14361703532E+03 -0.25269639193E+03  0.32681872448E+03  0.12509205411E+03 0.  0.
         23    2    1    2    0    0 -0.81738224497E+02  0.14361703532E+03 -0.15416929202E+03  0.24367231414E+03  0.91110020845E+02 0.  0.
          5    1    3    3  502    0 -0.29077199753E+01  0.20933517050E+02 -0.19188875312E+02  0.28850516586E+02  0.41800000000E+01 0.  1.
         -5    1    3    3    0  502  0.84645944472E+02 -0.16455055237E+03 -0.23350751662E+03  0.29796820790E+03  0.41800000000E+01 0.  1.
        -11    1    4    4    0    0 -0.42690101251E+02  0.40456878319E+02 -0.62382559501E+01  0.59144903292E+02  0.00000000000E+00 0. -1.
         11    1    4    4    0    0 -0.39048123247E+02  0.10316015700E+03 -0.14793103607E+03  0.18452741084E+03  0.00000000000E+00 0.  1.
</event>
<event>
 8    1  0.6760442E-009  0.7841997E+02  0.7561462E-02  0.1333596E+00
          4   -1    0    0  501    0  0.00000000000E+00  0.00000000000E+00  0.31983603737E+03  0.31983603737E+03  0.00000000000E+00 0. -1.
         -4   -1    0    0    0  501 -0.00000000000E+00 -0.00000000000E+00 -0.53275208838E+02  0.53275208838E+02  0.00000000000E+00 0.  1.
         25    2    1    2    0    0 -0.48453331846E+01 -0.12852539764E+02  0.24396358234E+03  0.27449991343E+03  0.12507321031E+03 0.  0.
         23    2    1    2    0    0  0.48453331846E+01  0.12852539764E+02  0.22597246193E+02  0.98611332772E+02  0.94999444122E+02 0.  0.
          5    1    3    3  502    0  0.24504622753E+01 -0.42371864113E+02  0.17718351627E+02  0.46182161254E+02  0.41800000000E+01 0.  1.
         -5    1    3    3    0  502 -0.72957954599E+01  0.29519324348E+02  0.22624523071E+03  0.22831775218E+03  0.41800000000E+01 0.  1.
        -11    1    4    4    0    0 -0.36023305715E+02  0.21182270962E+02 -0.13012873501E+02  0.43768733526E+02  0.00000000000E+00 0.  1.
         11    1    4    4    0    0  0.40868638900E+02 -0.83297311974E+01  0.35610119694E+02  0.54842599246E+02  0.00000000000E+00 0. -1.
</event>
<event>
 8    1  0.6760442E-009  0.1454901E+03  0.7561462E-02  0.1206127E+00
         -2   -1    0    0    0  501 -0.00000000000E+00  0.00000000000E+00  0.10297293472E+03  0.10297293472E+03  0.00000000000E+00 0.  1.
          2   -1    0    0  501    0  0.00000000000E+00 -0.00000000000E+00 -0.21400508074E+03  0.21400508074E+03  0.00000000000E+00 0. -1.
         25    2    1    2    0    0  0.10039716456E+03  0.25981283400E+02 -0.58505728870E+02  0.17270061819E+03  0.12509182816E+03 0.  0.
         23    2    1    2    0    0 -0.10039716456E+03 -0.25981283400E+02 -0.52526417152E+02  0.14427739728E+03  0.85453643148E+02 0.  0.
          5    1    3    3  502    0  0.12726178900E+03  0.20614100926E+02 -0.28974067202E+02  0.13220239433E+03  0.41800000000E+01 0. -1.
         -5    1    3    3    0  502 -0.26864624444E+02  0.53671824735E+01 -0.29531661668E+02  0.40498223851E+02  0.41800000000E+01 0. -1.
        -11    1    4    4    0    0 -0.64389783685E+02  0.27327893475E+02 -0.24625803322E+02  0.74157185721E+02  0.00000000000E+00 0.  1.
         11    1    4    4    0    0 -0.36007380876E+02 -0.53309176875E+02 -0.27900613830E+02  0.70120211556E+02  0.00000000000E+00 0. -1.
</event>
<event>
 8    1  0.6760442E-009  0.6010132E+02  0.7561462E-02  0.1397407E+00
          1   -1    0    0  501    0  0.00000000000E+00  0.00000000000E+00  0.12561063196E+03  0.12561063196E+03  0.00000000000E+00 0. -1.
         -1   -1    0    0    0  501 -0.00000000000E+00 -0.00000000000E+00 -0.97496253202E+02  0.97496253202E+02  0.00000000000E+00 0.  1.
         25    2    1    2    0    0 -0.14612457450E+02 -0.27078699036E+02  0.12652064109E+02  0.12943539010E+03  0.12508663250E+03 0.  0.
         23    2    1    2    0    0  0.14612457450E+02  0.27078699036E+02  0.15462314651E+02  0.93671495064E+02  0.87111916286E+02 0.  0.
          5    1    3    3  502    0  0.40928269651E+01 -0.67927855133E+01 -0.55275701830E+02  0.55997935501E+02  0.41800000000E+01 0. -1.
         -5    1    3    3    0  502 -0.18705284415E+02 -0.20285913523E+02  0.67927765939E+02  0.73437454599E+02  0.41800000000E+01 0. -1.
        -11    1    4    4    0    0 -0.31710952981E+02  0.16772982531E+02 -0.13207418256E+02  0.38227652020E+02  0.00000000000E+00 0.  1.
         11    1    4    4    0    0  0.46323410430E+02  0.10305716505E+02  0.28669732907E+02  0.55443843044E+02  0.00000000000E+00 0. -1.
</event>
<event>
 8    1  0.6760442E-009  0.2286263E+03  0.7561462E-02  0.1127610E+00
         -2   -1    0    0    0  501 -0.00000000000E+00  0.00000000000E+00  0.16352593078E+03  0.16352593078E+03  0.00000000000E+00 0.  1.
          2   -1    0    0  501    0  0.00000000000E+00 -0.00000000000E+00 -0.38389990799E+03  0.38389990799E+03  0.00000000000E+00 0. -1.
         25    2    1    2    0    0  0.15930917250E+03  0.15034372547E+03 -0.15612883998E+03  0.29665895014E+03  0.12509064631E+03 0.  0.
         23    2    1    2    0    0 -0.15930917250E+03 -0.15034372547E+03 -0.64245137229E+02  0.25076688863E+03  0.10379762301E+03 0.  0.
          5    1    3    3  502    0  0.41955120012E+02  0.63664481866E+02 -0.12644985263E+03  0.14771741934E+03  0.41800000000E+01 0. -1.
         -5    1    3    3    0  502  0.11735405249E+03  0.86679243608E+02 -0.29678987353E+02  0.14894153081E+03  0.41800000000E+01 0. -1.
        -11    1    4    4    0    0 -0.41715519743E+02 -0.97435703527E+02 -0.59901452165E+02  0.12174598507E+03  0.00000000000E+00 0. -1.
         11    1    4    4    0    0 -0.11759365276E+03 -0.52908021947E+02 -0.43436850641E+01  0.12902090356E+03  0.00000000000E+00 0.  1.
</event>
<event>
 8    1  0.6760442E-009  0.1218601E+03  0.7561462E-02  0.1240060E+00
          1   -1    0    0  501    0  0.00000000000E+00  0.00000000000E+00  0.15399417244E+03  0.15399417244E+03  0.00000000000E+00 0. -1.
         -1   -1    0    0    0  501 -0.00000000000E+00 -0.00000000000E+00 -0.18679056351E+03  0.18679056351E+03  0.00000000000E+00 0.  1.
         25    2    1    2    0    0 -0.79910207300E+01  0.10445756611E+03 -0.94331231837E+02  0.18847123799E+03  0.12509111368E+03 0.  0.
         23    2    1    2    0    0  0.79910207300E+01 -0.10445756611E+03  0.61534840772E+02  0.15231349795E+03  0.91856548487E+02 0.  0.
          5    1    3    3  502    0 -0.35917117905E+02  0.96074068897E+02 -0.14868278900E+02  0.10372465565E+03  0.41800000000E+01 0. -1.
         -5    1    3    3    0  502  0.27926097175E+02  0.83834972145E+01 -0.79462952937E+02  0.84746582341E+02  0.41800000000E+01 0. -1.
        -11    1    4    4    0    0  0.10801451134E+02 -0.46428762245E+01 -0.20133615345E+02  0.23315019045E+02  0.00000000000E+00 0.  1.
         11    1    4    4    0    0 -0.28104304041E+01 -0.99814689887E+02  0.81668456117E+02  0.12899847891E+03  0.00000000000E+00 0. -1.
</event>
<event>
 8    1  0.6760442E-009  0.1067220E+03  0.7561462E-02  0.1266764E+00
         -1   -1    0    0    0  501 -0.00000000000E+00  0.00000000000E+00  0.35261838875E+03  0.35261838875E+03  0.00000000000E+00 0.  1.
          1   -1    0    0  501    0  0.00000000000E+00 -0.00000000000E+00 -0.38377566972E+02  0.38377566972E+02  0.00000000000E+00 0. -1.
         25    2    1    2    0    0 -0.33163900052E+02  0.21803565191E+01  0.19883604126E+03  0.23725090948E+03  0.12509046537E+03 0.  0.
         23    2    1    2    0    0  0.33163900052E+02 -0.21803565191E+01  0.11540478052E+03  0.15374504624E+03  0.95993112538E+02 0.  0.
          5    1    3    3  502    0  0.36819661774E+02  0.31132491958E+02  0.11164588656E+03  0.12168482212E+03  0.41800000000E+01 0.  1.
         -5    1    3    3    0  502 -0.69983561826E+02 -0.28952135439E+02  0.87190154700E+02  0.11556608737E+03  0.41800000000E+01 0.  1.
        -11    1    4    4    0    0 -0.12385983463E+02  0.30642226337E+02  0.82011997240E+02  0.88421300107E+02  0.00000000000E+00 0.  1.
         11    1    4    4    0    0  0.45549883515E+02 -0.32822582856E+02  0.33392783284E+02  0.65323746134E+02  0.00000000000E+00 0. -1.
</event>
<event>
 8    1  0.6760442E-009  0.1219170E+03  0.7561462E-02  0.1239968E+00
         -1   -1    0    0    0  501 -0.00000000000E+00  0.00000000000E+00  0.26756285885E+02  0.26756285885E+02  0.00000000000E+00 0.  1.
          1   -1    0    0  501    0  0.00000000000E+00 -0.00000000000E+00 -0.94955396022E+03  0.94955396022E+03  0.00000000000E+00 0. -1.
         25    2    1    2    0    0  0.32172993297E+02  0.88816837270E+02 -0.28732578456E+03  0.32730330968E+03  0.12509123860E+03 0.  0.
         23    2    1    2    0    0 -0.32172993297E+02 -0.88816837270E+02 -0.63547188977E+03  0.64900693642E+03  0.91988851233E+02 0.  0.
          5    1    3    3  502    0  0.34281328000E+02  0.11635769881E+02 -0.77842142781E+01  0.37264822314E+02  0.41800000000E+01 0. -1.
         -5    1    3    3    0  502 -0.21083347029E+01  0.77181067389E+02 -0.27954157028E+03  0.29003848737E+03  0.41800000000E+01 0. -1.
        -11    1    4    4    0    0 -0.47124933739E+02 -0.79009871027E+01 -0.18434851511E+03  0.19044043688E+03  0.00000000000E+00 0. -1.
         11    1    4    4    0    0  0.14951940441E+02 -0.80915850167E+02 -0.45112337466E+03  0.45856649954E+03  0.00000000000E+00 0.  1.
</event>
<event>
 8    1  0.6760442E-009  0.1254216E+03  0.7561462E-02  0.1234412E+00
          2   -1    0    0  501    0  0.00000000000E+00  0.00000000000E+00  0.30734266964E+03  0.30734266964E+03  0.00000000000E+00 0. -1.
         -2   -1    0    0    0  501 -0.00000000000E+00 -0.00000000000E+00 -0.63558656749E+02  0.63558656749E+02  0.00000000000E+00 0.  1.
         25    2    1    2    0    0  0.57647830179E+01  0.76040398172E+02  0.19016393561E+03  0.24005213809E+03  0.12508929496E+03 0.  0.
         23    2    1    2    0    0 -0.57647830179E+01 -0.76040398172E+02  0.53620077278E+02  0.13084918830E+03  0.91820599622E+02 0.  0.
          5    1    3    3  502    0 -0.45955983703E+02  0.63823983629E+02  0.58809939950E+02  0.98293106377E+02  0.41800000000E+01 0.  1.
         -5    1    3    3    0  502  0.51720766721E+02  0.12216414543E+02  0.13135399566E+03  0.14175903171E+03  0.41800000000E+01 0.  1.
        -11    1    4    4    0    0  0.21224075689E+02 -0.87071010114E+02  0.45888159185E+02  0.10068537801E+03  0.00000000000E+00 0. -1.
         11    1    4    4    0    0 -0.26988858707E+02  0.11030611943E+02  0.77319180929E+01  0.30163810295E+02  0.00000000000E+00 0.  1.
</event>
<event>
 8    1  0.6760442E-009  0.9852987E+02  0.7561462E-02  0.1283418E+00
          2   -1    0    0  501    0  0.00000000000E+00  0.00000000000E+00  0.43561067030E+03  0.43561067030E+03  0.00000000000E+00 0. -1.
         -2   -1    0    0    0  501 -0.00000000000E+00 -0.00000000000E+00 -0.30938127381E+02  0.30938127381E+02  0.00000000000E+00 0.  1.
         25    2    1    2    0    0  0.23329583285E+01 -0.40171630304E+02  0.22799939547E+03  0.26315294583E+03  0.12508615427E+03 0.  0.
         23    2    1    2    0    0 -0.23329583285E+01  0.40171630304E+02  0.17667314745E+03  0.20339585186E+03  0.92397342737E+02 0.  0.
          5    1    3    3  502    0  0.93938696856E+01  0.35483413959E+02  0.14880519921E+03  0.15332246139E+03  0.41800000000E+01 0.  1.
         -5    1    3    3    0  502 -0.70609113571E+01 -0.75655044263E+02  0.79194196253E+02  0.10983048444E+03  0.41800000000E+01 0.  1.
        -11    1    4    4    0    0  0.19836499255E+02  0.54245411971E+02  0.16470294968E+03  0.17453685301E+03  0.00000000000E+00 0. -1.
         11    1    4    4    0    0 -0.22169457583E+02 -0.14073781666E+02  0.11970197769E+02  0.28858998849E+02  0.00000000000E+00 0.  1.
</event>
<event>
 8    1  0.6760442E-009  0.1305500E+03  0.7561462E-02  0.1226642E+00
          1   -1    0    0  501    0  0.00000000000E+00  0.00000000000E+00  0.72241896519E+02  0.72241896519E+02  0.00000000000E+00 0. -1.
         -1   -1    0    0    0  501 -0.00000000000E+00 -0.00000000000E+00 -0.24963569364E+03  0.24963569364E+03  0.00000000000E+00 0.  1.
         25    2    1    2    0    0 -0.31590734326E+01 -0.76304622036E+02 -0.85099751822E+02  0.16947031772E+03  0.12508335516E+03 0.  0.
         23    2    1    2    0    0  0.31590734326E+01  0.76304622036E+02 -0.92294045297E+02  0.15240727244E+03  0.94220012764E+02 0.  0.
          5    1    3    3  502    0 -0.61670064537E+02 -0.55538604960E+02 -0.37716497163E+02  0.91256452150E+02  0.41800000000E+01 0.  1.
         -5    1    3    3    0  502  0.58510991104E+02 -0.20766017076E+02 -0.47383254659E+02  0.78213865569E+02  0.41800000000E+01 0.  1.
        -11    1    4    4    0    0 -0.40607843886E+02  0.22524267247E+02 -0.60125454195E+02  0.75969795592E+02  0.00000000000E+00 0.  1.
         11    1    4    4    0    0  0.43766917319E+02  0.53780354789E+02 -0.32168591102E+02  0.76437476844E+02  0.00000000000E+00 0. -1.
</event>
<event>
 8    1  0.6760442E-009  0.1810049E+03  0.7561462E-02  0.1166834E+00
          3   -1    0    0  501    0  0.00000000000E+00  0.00000000000E+00  0.52555123193E+03  0.52555123193E+03  0.00000000000E+00 0. -1.
         -3   -1    0    0    0  501 -0.00000000000E+00 -0.00000000000E+00 -0.68656374217E+02  0.68656374217E+02  0.00000000000E+00 0.  1.
         25    2    1    2    0    0  0.86524455323E+02  0.12421338339E+03  0.18405582254E+03  0.26914575993E+03  0.12508976095E+03 0.  0.
         23    2    1    2    0    0 -0.86524455323E+02 -0.12421338339E+03  0.27283903517E+03  0.32506184621E+03  0.91151625172E+02 0.  0.
          5    1    3    3  502    0 -0.22500004789E+02  0.62592829835E+02  0.92271247047E+02  0.11382252850E+03  0.41800000000E+01 0. -1.
         -5    1    3    3    0  502  0.10902446011E+03  0.61620553553E+02  0.91784575493E+02  0.15532323143E+03  0.41800000000E+01 0. -1.
        -11    1    4    4    0    0 -0.25995385982E+02 -0.10251674828E+03  0.12431543465E+03  0.16321694478E+03  0.00000000000E+00 0.  1.
         11    1    4    4    0    0 -0.60529069340E+02 -0.21696635107E+02  0.14852360052E+03  0.16184490144E+03  0.00000000000E+00 0. -1.
</event>
<event>
 8    1  0.6760442E-009  0.1709388E+03  0.7561462E-02  0.1176872E+00
          2   -1    0    0  501    0  0.00000000000E+00  0.00000000000E+00  0.16464640995E+03  0.16464640995E+03  0.00000000000E+00 0. -1.
         -2   -1    0    0    0  501 -0.00000000000E+00 -0.00000000000E+00 -0.21713781952E+03  0.21713781952E+03  0.00000000000E+00 0.  1.
         25    2    1    2    0    0 -0.47045238175E+02  0.13174174090E+03 -0.90650695903E+02  0.20840556587E+03  0.12508473324E+03 0.  0.
         23    2    1    2    0    0  0.47045238175E+02 -0.13174174090E+03  0.38159286333E+02  0.17337866361E+03  0.95052033799E+02 0.  0.
          5    1    3    3  502    0 -0.67643176818E+02  0.13543020603E+03 -0.44954551749E+02  0.15797254255E+03  0.41800000000E+01 0. -1.
         -5    1    3    3    0  502  0.20597938643E+02 -0.36884651300E+01 -0.45696144155E+02  0.50433023328E+02  0.41800000000E+01 0. -1.
        -11    1    4    4    0    0  0.76341473966E+02 -0.88658078956E+02  0.24897594202E+02  0.11961674552E+03  0.00000000000E+00 0.  1.
         11    1    4    4    0    0 -0.29296235791E+02 -0.43083661946E+02  0.13261692131E+02  0.53761918086E+02  0.00000000000E+00 0. -1.
</event>
<event>
 8    1  0.6760442E-009  0.1051789E+03  0.7561462E-02  0.1269768E+00
         -2   -1    0    0    0  501 -0.00000000000E+00  0.00000000000E+00  0.48921908993E+02  0.48921908993E+02  0.00000000000E+00 0.  1.
          2   -1    0    0  501    0  0.00000000000E+00 -0.00000000000E+00 -0.38218291986E+03  0.38218291986E+03  0.00000000000E+00 0. -1.
         25    2    1    2    0    0 -0.62386293906E+02 -0.52392373953E+02 -0.20800673602E+03  0.25603294615E+03  0.12509619007E+03 0.  0.
         23    2    1    2    0    0  0.62386293906E+02  0.52392373953E+02 -0.12525427485E+03  0.17507188270E+03  0.91238808785E+02 0.  0.
          5    1    3    3  502    0 -0.78592192846E+01 -0.57693583018E+02 -0.18913486465E+03  0.19793884479E+03  0.41800000000E+01 0. -1.
         -5    1    3    3    0  502 -0.54527074622E+02  0.53012090648E+01 -0.18871871365E+02  0.58094101363E+02  0.41800000000E+01 0. -1.
        -11    1    4    4    0    0  0.11949727688E+01  0.32749458221E+02  0.16602173633E+01  0.32813279254E+02  0.00000000000E+00 0.  1.
         11    1    4    4    0    0  0.61191321138E+02  0.19642915732E+02 -0.12691449221E+03  0.14225860344E+03  0.00000000000E+00 0. -1.
</event>
<event>
 8    1  0.6760442E-009  0.1077318E+03  0.7561462E-02  0.1264829E+00
          2   -1    0    0  501    0  0.00000000000E+00  0.00000000000E+00  0.24262774718E+03  0.24262774718E+03  0.00000000000E+00 0. -1.
         -2   -1    0    0    0  501 -0.00000000000E+00 -0.00000000000E+00 -0.72887665274E+02  0.72887665274E+02  0.00000000000E+00 0.  1.
         25    2    1    2    0    0 -0.53313200148E+02  0.30279961796E+02  0.41034730279E+02  0.14522781786E+03  0.12509235226E+03 0.  0.
         23    2    1    2    0    0  0.53313200148E+02 -0.30279961796E+02  0.12870535163E+03  0.17028759460E+03  0.93132292679E+02 0.  0.
          5    1    3    3  502    0  0.38466830228E+02 -0.72957170023E+01  0.18175213626E+02  0.43367445218E+02  0.41800000000E+01 0.  1.
         -5    1    3    3    0  502 -0.91780030375E+02  0.37575678798E+02  0.22859516653E+02  0.10186037264E+03  0.41800000000E+01 0.  1.
        -11    1    4    4    0    0  0.58026707658E+02 -0.13744555551E+02  0.13829232081E+03  0.15060138646E+03  0.00000000000E+00 0. -1.
         11    1    4    4    0    0 -0.47135075104E+01 -0.16535406245E+02 -0.95869691813E+01  0.19686208137E+02  0.00000000000E+00 0.  1.
</event>
<event>
 8    1  0.6760442E-009  0.6419366E+02  0.7561462E-02  0.1381031E+00
          3   -1    0    0  501    0  0.00000000000E+00  0.00000000000E+00  0.36116452560E+03  0.36116452560E+03  0.00000000000E+00 0. -1.
         -3   -1    0    0    0  501 -0.00000000000E+00 -0.00000000000E+00 -0.36624414024E+02  0.36624414024E+02  0.00000000000E+00 0.  1.
         25    2    1    2    0    0 -0.15805243098E+02  0.31450512190E+02  0.19993641267E+03  0.23845537375E+03  0.12508979069E+03 0.  0.
         23    2    1    2    0    0  0.15805243098E+02 -0.31450512190E+02  0.12460369891E+03  0.15933356587E+03  0.92855602978E+02 0.  0.
          5    1    3    3  502    0  0.53997931275E+01 -0.14530653651E+02  0.18472263036E+03  0.18541903955E+03  0.41800000000E+01 0. -1.
         -5    1    3    3    0  502 -0.21205036226E+02  0.45981165841E+02  0.15213782305E+02  0.53036334201E+02  0.41800000000E+01 0. -1.
        -11    1    4    4    0    0 -0.14715230720E+02 -0.26906853167E+02 -0.30559451056E+00  0.30669368277E+02  0.00000000000E+00 0.  1.
         11    1    4    4    0    0  0.30520473819E+02 -0.45436590229E+01  0.12490929342E+03  0.12866419759E+03  0.00000000000E+00 0. -1.
</event>
<event>
 8    1  0.6760442E-009  0.1134391E+03  0.7561462E-02  0.1254331E+00
         -1   -1    0    0    0  501 -0.00000000000E+00  0.00000000000E+00  0.44070604323E+03  0.44070604323E+03  0.00000000000E+00 0.  1.
          1   -1    0    0  501    0  0.00000000000E+00 -0.00000000000E+00 -0.34352940611E+02  0.34352940611E+02  0.00000000000E+00 0. -1.
         25    2    1    2    0    0  0.20947769188E+02  0.44152819760E+02  0.17465479059E+03  0.22031482677E+03  0.12508415763E+03 0.  0.
         23    2    1    2    0    0 -0.20947769188E+02 -0.44152819760E+02  0.23169831202E+03  0.25474415707E+03  0.93926552368E+02 0.  0.
          5    1    3    3  502    0 -0.24485054452E+02  0.66653333561E+02  0.14480562772E+03  0.16133296931E+03  0.41800000000E+01 0. -1.
         -5    1    3    3    0  502  0.45432823640E+02 -0.22500513801E+02  0.29849162868E+02  0.58981857457E+02  0.41800000000E+01 0. -1.
        -11    1    4    4    0    0 -0.17355279708E+02 -0.73392254155E+02  0.14989295204E+03  0.16779608391E+03  0.00000000000E+00 0.  1.
         11    1    4    4    0    0 -0.35924894800E+01  0.29239434395E+02  0.81805359982E+02  0.86948073160E+02  0.00000000000E+00 0. -1.
</event>
<event>
 8    1  0.6760442E-009  0.3607998E+03  0.7561462E-02  0.1058268E+00
          2   -1    0    0  501    0  0.00000000000E+00  0.00000000000E+00  0.75816466175E+03  0.75816466175E+03  0.00000000000E+00 0. -1.
         -2   -1    0    0    0  501 -0.00000000000E+00 -0.00000000000E+00 -0.18008989160E+03  0.18008989160E+03  0.00000000000E+00 0.  1.
         25    2    1    2    0    0  0.27338953019E+03  0.22318143772E+03  0.28975331125E+03  0.47344938307E+03  0.12508216337E+03 0.  0.
         23    2    1    2    0    0 -0.27338953019E+03 -0.22318143772E+03  0.28832145891E+03  0.46480517028E+03  0.91448309380E+02 0.  0.
          5    1    3    3  502    0  0.22869210546E+03  0.13616043631E+03  0.15888155735E+03  0.31000091158E+03  0.41800000000E+01 0.  1.
         -5    1    3    3    0  502  0.44697424726E+02  0.87021001409E+02  0.13087175390E+03  0.16344847149E+03  0.41800000000E+01 0.  1.
        -11    1    4    4    0    0 -0.10369690342E+03 -0.50330220850E+02  0.52197580097E+02  0.12653365670E+03  0.00000000000E+00 0.  1.
         11    1    4    4    0    0 -0.16969262677E+03 -0.17285121687E+03  0.23612387881E+03  0.33827151358E+03  0.00000000000E+00 0. -1.
</event>
<event>
 8    1  0.6760442E-009  0.1219544E+03  0.7561462E-02  0.1239907E+00
          2   -1    0    0  501    0  0.00000000000E+00  0.00000000000E+00  0.98275781527E+03  0.98275781527E+03  0.00000000000E+00 0. -1.
         -2   -1    0    0    0  501 -0.00000000000E+00 -0.00000000000E+00 -0.18482463080E+02  0.18482463080E+02  0.00000000000E+00 0.  1.
         25    2    1    2    0    0  0.32997494145E+02  0.75692002386E+02  0.48390658731E+03  0.50658845697E+03  0.12509262828E+03 0.  0.
         23    2    1    2    0    0 -0.32997494145E+02 -0.75692002386E+02  0.48036876488E+03  0.49465182138E+03  0.84309906144E+02 0.  0.
          5    1    3    3  502    0  0.36561654485E+00 -0.24543694084E+02  0.23408050410E+03  0.23540110746E+03  0.41800000000E+01 0. -1.
         -5    1    3    3    0  502  0.32631877600E+02  0.10023569647E+03  0.24982608321E+03  0.27118734951E+03  0.41800000000E+01 0. -1.
        -11    1    4    4    0    0 -0.10626963522E+02 -0.87550691434E+02  0.42050295591E+03  0.42965194268E+03  0.00000000000E+00 0. -1.
         11    1    4    4    0    0 -0.22370530623E+02  0.11858689048E+02  0.59865808972E+02  0.64999878693E+02  0.00000000000E+00 0.  1.
</event>
<event>
 8    1  0.6760442E-009  0.1280893E+03  0.7561462E-02  0.1230319E+00
          1   -1    0    0  501    0  0.00000000000E+00  0.00000000000E+00  0.34775230391E+03  0.34775230391E+03  0.00000000000E+00 0. -1.
         -1   -1    0    0    0  501 -0.00000000000E+00 -0.00000000000E+00 -0.95397703082E+02  0.95397703082E+02  0.00000000000E+00 0.  1.
         25    2    1    2    0    0 -0.80769796787E+02 -0.72358537747E+02  0.14426579607E+02  0.16617483435E+03  0.12508569588E+03 0.  0.
         23    2    1    2    0    0  0.80769796787E+02  0.72358537747E+02  0.23792802122E+03  0.27697517264E+03  0.91356362230E+02 0.  0.
          5    1    3    3  502    0 -0.92154035486E+02 -0.20607543923E+02 -0.27538657529E+02  0.98452461530E+02  0.41800000000E+01 0.  1.
         -5    1    3    3    0  502  0.11384238699E+02 -0.51750993824E+02  0.41965237136E+02  0.67722372820E+02  0.41800000000E+01 0.  1.
        -11    1    4    4    0    0  0.24685385176E+02  0.24407581532E+02  0.17958051303E+03  0.18290505443E+03  0.00000000000E+00 0. -1.
         11    1    4    4    0    0  0.56084411612E+02  0.47950956215E+02  0.58347508196E+02  0.94070118212E+02  0.00000000000E+00 0.  1.
</event>
<event>
 8    1  0.6760442E-009  0.1496696E+03  0.7561462E-02  0.1200880E+00
          1   -1    0    0  501    0  0.00000000000E+00  0.00000000000E+00  0.18335796912E+03  0.18335796912E+03  0.00000000000E+00 0. -1.
         -1   -1    0    0    0  501 -0.00000000000E+00 -0.00000000000E+00 -0.15389892844E+03  0.15389892844E+03  0.00000000000E+00 0.  1.
         25    2    1    2    0    0 -0.63329047234E+02 -0.10169282709E+03  0.59116659975E+02  0.18301261085E+03  0.12508731725E+03 0.  0.
         23    2    1    2    0    0  0.63329047234E+02  0.10169282709E+03 -0.29657619298E+02  0.15424428671E+03  0.92518788866E+02 0.  0.
          5    1    3    3  502    0 -0.10073720760E+03 -0.85567906959E+02  0.44197032073E+02  0.13942991695E+03  0.41800000000E+01 0. -1.
         -5    1    3    3    0  502  0.37408160363E+02 -0.16124920135E+02  0.14919627901E+02  0.43582693903E+02  0.41800000000E+01 0. -1.
        -11    1    4    4    0    0  0.30821964928E+02  0.16488250467E+02  0.29333784380E+02  0.45632519452E+02  0.00000000000E+00 0. -1.
         11    1    4    4    0    0  0.32507082306E+02  0.85204576627E+02 -0.58991403678E+02  0.10861176725E+03  0.00000000000E+00 0.  1.
</event>
<event>
 8    1  0.6760442E-009  0.1055653E+03  0.7561462E-02  0.1269010E+00
          1   -1    0    0  501    0  0.00000000000E+00  0.00000000000E+00  0.13130627203E+03  0.13130627203E+03  0.00000000000E+00 0.  1.
         -1   -1    0    0    0  501 -0.00000000000E+00 -0.00000000000E+00 -0.10461813826E+03  0.10461813826E+03  0.00000000000E+00 0. -1.
         25    2    1    2    0    0 -0.15599760803E+02  0.89616952412E+01  0.57339967667E+02  0.13877780649E+03  0.12509093957E+03 0.  0.
         23    2    1    2    0    0  0.15599760803E+02 -0.89616952412E+01 -0.30651833901E+02  0.97146603805E+02  0.90411631943E+02 0.  0.
          5    1    3    3  502    0 -0.64392561028E+02 -0.18148806207E+02  0.46970933122E+02  0.81850608067E+02  0.41800000000E+01 0.  1.
         -5    1    3    3    0  502  0.48792800224E+02  0.27110501449E+02  0.10369034544E+02  0.56927198420E+02  0.41800000000E+01 0.  1.
        -11    1    4    4    0    0  0.26276832589E+02  0.34501507110E+02 -0.29360812212E+02  0.52372542592E+02  0.00000000000E+00 0.  1.
         11    1    4    4    0    0 -0.10677071786E+02 -0.43463202351E+02 -0.12910216885E+01  0.44774061213E+02  0.00000000000E+00 0. -1.
</event>
<event>
 8    1  0.6760442E-009  0.1290303E+03  0.7561462E-02  0.1228902E+00
          2   -1    0    0  501    0  0.00000000000E+00  0.00000000000E+00  0.92029225274E+03  0.92029225274E+03  0.00000000000E+00 0. -1.
         -2   -1    0    0    0  501 -0.00000000000E+00 -0.00000000000E+00 -0.19675024849E+02  0.19675024849E+02  0.00000000000E+00 0.  1.
         25    2    1    2    0    0  0.61191621314E+02  0.33772056874E+02  0.39127550914E+03  0.41668771712E+03  0.12508862140E+03 0.  0.
         23    2    1    2    0    0 -0.61191621314E+02 -0.33772056874E+02  0.50934171875E+03  0.52327956047E+03  0.97506643860E+02 0.  0.
          5    1    3    3  502    0  0.41664448555E+02 -0.44200838721E+02  0.20285785989E+03  0.21179807396E+03  0.41800000000E+01 0. -1.
         -5    1    3    3    0  502  0.19527172759E+02  0.77972895594E+02  0.18841764925E+03  0.20488964315E+03  0.41800000000E+01 0. -1.
        -11    1    4    4    0    0 -0.78967682445E+02 -0.50823455243E+00  0.28275796214E+03  0.29357830017E+03  0.00000000000E+00 0.  1.
         11    1    4    4    0    0  0.17776061131E+02 -0.33263822321E+02  0.22658375661E+03  0.22970126030E+03  0.00000000000E+00 0. -1.
</event>
<event>
 8    1  0.6760442E-009  0.1023036E+03  0.7561462E-02  0.1275525E+00
          1   -1    0    0  501    0  0.00000000000E+00  0.00000000000E+00  0.15215939463E+03  0.15215939463E+03  0.00000000000E+00 0. -1.
         -1   -1    0    0    0  501 -0.00000000000E+00 -0.00000000000E+00 -0.25107449204E+03  0.25107449204E+03  0.00000000000E+00 0.  1.
         25    2    1    2    0    0 -0.54470129715E+02  0.35414185804E+02 -0.20529022137E+03  0.24901200412E+03  0.12506695654E+03 0.  0.
         23    2    1    2    0    0  0.54470129715E+02 -0.35414185804E+02  0.10637512396E+03  0.15422188256E+03  0.90816091500E+02 0.  0.
          5    1    3    3  502    0  0.19932994803E+01 -0.35081710488E+02 -0.11853988742E+03  0.12370883947E+03  0.41800000000E+01 0.  1.
         -5    1    3    3    0  502 -0.56463429195E+02  0.70495896292E+02 -0.86750333946E+02  0.12530316465E+03  0.41800000000E+01 0.  1.
        -11    1    4    4    0    0  0.19741138263E+02 -0.39179078862E+02  0.17360174805E+01  0.43905882489E+02  0.00000000000E+00 0.  1.
         11    1    4    4    0    0  0.34728991451E+02  0.37648930583E+01  0.10463910648E+03  0.11031600007E+03  0.00000000000E+00 0. -1.
</event>
<event>
 8    1  0.6760442E-009  0.1021654E+03  0.7561462E-02  0.1275807E+00
          1   -1    0    0  501    0  0.00000000000E+00  0.00000000000E+00  0.87000283935E+02  0.87000283935E+02  0.00000000000E+00 0. -1.
         -1   -1    0    0    0  501 -0.00000000000E+00 -0.00000000000E+00 -0.14451811823E+03  0.14451811823E+03  0.00000000000E+00 0.  1.
         25    2    1    2    0    0  0.20638490757E+02  0.10779344095E+02 -0.21829632281E+02  0.12910011591E+03  0.12509262777E+03 0.  0.
         23    2    1    2    0    0 -0.20638490757E+02 -0.10779344095E+02 -0.35688202012E+02  0.10241828625E+03  0.93132787113E+02 0.  0.
          5    1    3    3  502    0 -0.14920273590E+02  0.62362571142E+02 -0.75022685474E+01  0.64695141060E+02  0.41800000000E+01 0. -1.
         -5    1    3    3    0  502  0.35558764346E+02 -0.51583227047E+02 -0.14327363734E+02  0.64404974854E+02  0.41800000000E+01 0. -1.
        -11    1    4    4    0    0  0.83935628796E+01 -0.37134053504E+02  0.12704211165E+02  0.40134608616E+02  0.00000000000E+00 0. -1.
         11    1    4    4    0    0 -0.29032053636E+02  0.26354709409E+02 -0.48392413177E+02  0.62283677633E+02  0.00000000000E+00 0.  1.
</event>
<event>
 8    1  0.6760442E-009  0.2881095E+03  0.7561462E-02  0.1091340E+00
          2   -1    0    0  501    0  0.00000000000E+00  0.00000000000E+00  0.40167086249E+03  0.40167086249E+03  0.00000000000E+00 0. -1.
         -2   -1    0    0    0  501 -0.00000000000E+00 -0.00000000000E+00 -0.23700057597E+03  0.23700057597E+03  0.00000000000E+00 0.  1.
         25    2    1    2    0    0 -0.82322013326E+02 -0.26384860152E+03  0.16998317770E+03  0.34775629541E+03  0.12508861618E+03 0.  0.
         23    2    1    2    0    0  0.82322013326E+02  0.26384860152E+03 -0.53128911814E+01  0.29091514305E+03  0.90611231308E+02 0.  0.
          5    1    3    3  502    0 -0.74170011409E+02 -0.27466735975E+03  0.17335304042E+03  0.33318478075E+03  0.41800000000E+01 0.  1.
         -5    1    3    3    0  502 -0.81520019174E+01  0.10818758226E+02 -0.33698627193E+01  0.14571514662E+02  0.41800000000E+01 0.  1.
        -11    1    4    4    0    0  0.18197745185E+02  0.98346462281E+02  0.40022168086E+02  0.10772631299E+03  0.00000000000E+00 0. -1.
         11    1    4    4    0    0  0.64124268141E+02  0.16550213924E+03 -0.45335059267E+02  0.18318883005E+03  0.00000000000E+00 0.  1.
</event>
<event>
 8    1  0.6760442E-009  0.8185410E+02  0.7561462E-02  0.1323871E+00
          2   -1    0    0  501    0  0.00000000000E+00  0.00000000000E+00  0.41099714466E+03  0.41099714466E+03  0.00000000000E+00 0. -1.
         -2   -1    0    0    0  501 -0.00000000000E+00 -0.00000000000E+00 -0.40359603554E+02  0.40359603554E+02  0.00000000000E+00 0.  1.
         25    2    1    2    0    0  0.23635860119E+01  0.44859036368E+02  0.29227395601E+03  0.32107439188E+03  0.12508708996E+03 0.  0.
         23    2    1    2    0    0 -0.23635860119E+01 -0.44859036368E+02  0.78363585088E+02  0.13028235633E+03  0.93886746775E+02 0.  0.
          5    1    3    3  502    0  0.20071528536E+02  0.63289032756E+01 -0.39364951106E+01  0.21814895558E+02  0.41800000000E+01 0. -1.
         -5    1    3    3    0  502 -0.17707942524E+02  0.38530133092E+02  0.29621045112E+03  0.29925949632E+03  0.41800000000E+01 0. -1.
        -11    1    4    4    0    0 -0.43929321340E+02 -0.92148537193E+01  0.54359982135E+02  0.70496145002E+02  0.00000000000E+00 0. -1.
         11    1    4    4    0    0  0.41565735328E+02 -0.35644182648E+02  0.24003602954E+02  0.59786211327E+02  0.00000000000E+00 0.  1.
</event>
<event>
 8    1  0.6760442E-009  0.2695764E+03  0.7561462E-02  0.1101522E+00
          1   -1    0    0  501    0  0.00000000000E+00  0.00000000000E+00  0.19929328217E+03  0.19929328217E+03  0.00000000000E+00 0. -1.
         -1   -1    0    0    0  501 -0.00000000000E+00 -0.00000000000E+00 -0.49856405381E+03  0.49856405381E+03  0.00000000000E+00 0.  1.
         25    2    1    2    0    0  0.65180699935E+02 -0.24654366106E+03 -0.31659479159E+03  0.42533763814E+03  0.12509014309E+03 0.  0.
         23    2    1    2    0    0 -0.65180699935E+02  0.24654366106E+03  0.17324019952E+02  0.27251969784E+03  0.94522820464E+02 0.  0.
          5    1    3    3  502    0  0.92932255646E+02 -0.23024623331E+03 -0.29810409925E+03  0.38798615759E+03  0.41800000000E+01 0. -1.
         -5    1    3    3    0  502 -0.27751555711E+02 -0.16297427754E+02 -0.18490692344E+02  0.37351480548E+02  0.41800000000E+01 0. -1.
        -11    1    4    4    0    0  0.13205996177E+01  0.65274259838E+02  0.42352085033E+02  0.77821411497E+02  0.00000000000E+00 0.  1.
         11    1    4    4    0    0 -0.66501299553E+02  0.18126940122E+03 -0.25028065081E+02  0.19469828634E+03  0.00000000000E+00 0. -1.
</event>
<event>
 8    1  0.6760442E-009  0.1876877E+03  0.7561462E-02  0.1160564E+00
         -2   -1    0    0    0  501 -0.00000000000E+00  0.00000000000E+00  0.10231286003E+03  0.10231286003E+03  0.00000000000E+00 0. -1.
          2   -1    0    0  501    0  0.00000000000E+00 -0.00000000000E+00 -0.35006049775E+03  0.35006049775E+03  0.00000000000E+00 0.  1.
         25    2    1    2    0    0  0.74580774606E+02  0.13297227900E+03 -0.10123403218E+03  0.22167487051E+03  0.12508996770E+03 0.  0.
         23    2    1    2    0    0 -0.74580774606E+02 -0.13297227900E+03 -0.14651360555E+03  0.23069848727E+03  0.92258530735E+02 0.  0.
          5    1    3    3  502    0  0.50398871579E+02 -0.10496620202E+02 -0.25712339286E+02  0.57695945124E+02  0.41800000000E+01 0.  1.
         -5    1    3    3    0  502  0.24181903026E+02  0.14346889921E+03 -0.75521692892E+02  0.16397892539E+03  0.41800000000E+01 0.  1.
        -11    1    4    4    0    0 -0.65689159804E+02 -0.25707654323E+02 -0.60009162998E+02  0.92612357978E+02  0.00000000000E+00 0. -1.
         11    1    4    4    0    0 -0.88916148018E+01 -0.10726462468E+03 -0.86504442549E+02  0.13808612929E+03  0.00000000000E+00 0.  1.
</event>
<event>
 8    1  0.6760442E-009  0.1099079E+03  0.7561462E-02  0.1260741E+00
         -1   -1    0    0    0  501 -0.00000000000E+00  0.00000000000E+00  0.55878678074E+02  0.55878678074E+02  0.00000000000E+00 0.  1.
          1   -1    0    0  501    0  0.00000000000E+00 -0.00000000000E+00 -0.22177124424E+03  0.22177124424E+03  0.00000000000E+00 0. -1.
         25    2    1    2    0    0  0.17234985029E+02  0.96973057943E+01 -0.82318117982E+02  0.15104697879E+03  0.12509130587E+03 0.  0.
         23    2    1    2    0    0 -0.17234985029E+02 -0.96973057943E+01 -0.83574448189E+02  0.12660294353E+03  0.93019000591E+02 0.  0.
          5    1    3    3  502    0  0.67794891057E+02 -0.15144805536E+02 -0.52487425280E+02  0.87166017465E+02  0.41800000000E+01 0. -1.
         -5    1    3    3    0  502 -0.50559906029E+02  0.24842111330E+02 -0.29830692702E+02  0.63880961327E+02  0.41800000000E+01 0. -1.
        -11    1    4    4    0    0  0.37433721235E+02 -0.11114863760E+02 -0.45543281175E+02  0.59991783955E+02  0.00000000000E+00 0. -1.
         11    1    4    4    0    0 -0.54668706263E+02  0.14175579655E+01 -0.38031167014E+02  0.66611159572E+02  0.00000000000E+00 0.  1.
</event>
<event>
 8    1  0.6760442E-009  0.1721010E+03  0.7561462E-02  0.1175674E+00
         -2   -1    0    0    0  501 -0.00000000000E+00  0.00000000000E+00  0.11503478530E+03  0.11503478530E+03  0.00000000000E+00 0.  1.
          2   -1    0    0  501    0  0.00000000000E+00 -0.00000000000E+00 -0.32295459315E+03  0.32295459315E+03  0.00000000000E+00 0. -1.
         25    2    1    2    0    0  0.14041946326E+03 -0.33188008372E+02 -0.18448241735E+03  0.26552042939E+03  0.12509303158E+03 0.  0.
         23    2    1    2    0    0 -0.14041946326E+03  0.33188008372E+02 -0.23437390499E+02  0.17246894907E+03  0.91526813329E+02 0.  0.
          5    1    3    3  502    0  0.99592959691E+02  0.39610359396E+02 -0.10858001149E+03  0.15262643770E+03  0.41800000000E+01 0. -1.
         -5    1    3    3    0  502  0.40826503567E+02 -0.72798367769E+02 -0.75902405866E+02  0.11289399169E+03  0.41800000000E+01 0. -1.
        -11    1    4    4    0    0 -0.61987927447E+02  0.41351516326E+02 -0.49454420412E+02  0.89432604513E+02  0.00000000000E+00 0. -1.
         11    1    4    4    0    0 -0.78431535811E+02 -0.81635079535E+01  0.26017029913E+02  0.83036344556E+02  0.00000000000E+00 0.  1.
</event>
<event>
 8    1  0.6760442E-009  0.1017685E+03  0.7561462E-02  0.1276620E+00
          1   -1    0    0  501    0  0.00000000000E+00  0.00000000000E+00  0.19279577412E+02  0.19279577412E+02  0.00000000000E+00 0. -1.
         -1   -1    0    0    0  501 -0.00000000000E+00 -0.00000000000E+00 -0.84705604547E+03  0.84705604547E+03  0.00000000000E+00 0.  1.
         25    2    1    2    0    0 -0.55855245296E+02  0.18714326059E+02 -0.34462114470E+03  0.37132294085E+03  0.12508780356E+03 0.  0.
         23    2    1    2    0    0  0.55855245296E+02 -0.18714326059E+02 -0.48315532336E+03  0.49501268204E+03  0.90157941729E+02 0.  0.
          5    1    3    3  502    0  0.16077079977E+02  0.29536095493E+02 -0.24802111098E+03  0.25032538291E+03  0.41800000000E+01 0.  1.
         -5    1    3    3    0  502 -0.71932325273E+02 -0.10821769433E+02 -0.96600033721E+02  0.12099755794E+03  0.41800000000E+01 0.  1.
        -11    1    4    4    0    0  0.74922438239E+02 -0.20390400707E+02 -0.45065033089E+03  0.45729078377E+03  0.00000000000E+00 0.  1.
         11    1    4    4    0    0 -0.19067192943E+02  0.16760746474E+01 -0.32504992471E+02  0.37721898262E+02  0.00000000000E+00 0. -1.
</event>
<event>
 8    1  0.6760442E-009  0.9719912E+02  0.7561462E-02  0.1286299E+00
         -1   -1    0    0    0  501 -0.00000000000E+00  0.00000000000E+00  0.43586154833E+03  0.43586154833E+03  0.00000000000E+00 0.  1.
          1   -1    0    0  501    0  0.00000000000E+00 -0.00000000000E+00 -0.36609841242E+02  0.36609841242E+02  0.00000000000E+00 0. -1.
         25    2    1    2    0    0 -0.34184951193E+02  0.61203184667E+02  0.20601517688E+03  0.25100761632E+03  0.12509248438E+03 0.  0.
         23    2    1    2    0    0  0.34184951193E+02 -0.61203184667E+02  0.19323653021E+03  0.22146377325E+03  0.82409984540E+02 0.  0.
          5    1    3    3  502    0  0.22945814146E+02  0.26186368730E+02  0.17238811066E+03  0.17591864424E+03  0.41800000000E+01 0.  1.
         -5    1    3    3    0  502 -0.57130765339E+02  0.35016815937E+02  0.33627066219E+02  0.75088972087E+02  0.41800000000E+01 0.  1.
        -11    1    4    4    0    0 -0.17225206992E+02 -0.11697715176E+02  0.10939252077E+03  0.11135649014E+03  0.00000000000E+00 0.  1.
         11    1    4    4    0    0  0.51410158186E+02 -0.49505469491E+02  0.83844009444E+02  0.11010728311E+03  0.00000000000E+00 0. -1.
</event>
<event>
 8    1  0.6760442E-009  0.9547629E+02  0.7561462E-02  0.1290107E+00
         -2   -1    0    0    0  501 -0.00000000000E+00  0.00000000000E+00  0.81748051712E+02  0.81748051712E+02  0.00000000000E+00 0.  1.
          2   -1    0    0  501    0  0.00000000000E+00 -0.00000000000E+00 -0.23385751110E+03  0.23385751110E+03  0.00000000000E+00 0. -1.
         25    2    1    2    0    0  0.51812037984E+02 -0.57517225197E+02 -0.50074847378E+02  0.15539723342E+03  0.12509233127E+03 0.  0.
         23    2    1    2    0    0 -0.51812037984E+02  0.57517225197E+02 -0.10203461201E+03  0.16020832938E+03  0.96244107778E+02 0.  0.
          5    1    3    3  502    0  0.16580054202E+02 -0.46350933663E+02  0.36331760827E+02  0.61325170147E+02  0.41800000000E+01 0.  1.
         -5    1    3    3    0  502  0.35231983782E+02 -0.11166291534E+02 -0.86406608205E+02  0.94072063278E+02  0.41800000000E+01 0.  1.
        -11    1    4    4    0    0 -0.45674999744E+02 -0.83190782424E+00 -0.89100030256E+02  0.10012848278E+03  0.00000000000E+00 0. -1.
         11    1    4    4    0    0 -0.61370382403E+01  0.58349133021E+02 -0.12934581749E+02  0.60079846602E+02  0.00000000000E+00 0.  1.
</event>
<event>
 8    1  0.6760442E-009  0.1050222E+03  0.7561462E-02  0.1270076E+00
         -1   -1    0    0    0  501 -0.00000000000E+00  0.00000000000E+00  0.19783725438E+03  0.19783725438E+03  0.00000000000E+00 0.  1.
          1   -1    0    0  501    0  0.00000000000E+00 -0.00000000000E+00 -0.87040795095E+02  0.87040795095E+02  0.00000000000E+00 0. -1.
         25    2    1    2    0    0 -0.28360300401E+02  0.52337868757E+02  0.10835822739E+03  0.17588424717E+03  0.12510077464E+03 0.  0.
         23    2    1    2    0    0  0.28360300401E+02 -0.52337868757E+02  0.24382318903E+01  0.10899380230E+03  0.91269627042E+02 0.  0.
          5    1    3    3  502    0 -0.19239764515E+02  0.92612303463E+02  0.89528458899E+02  0.13030742360E+03  0.41800000000E+01 0.  1.
         -5    1    3    3    0  502 -0.91205358863E+01 -0.40274434706E+02  0.18829768492E+02  0.45576823575E+02  0.41800000000E+01 0.  1.
        -11    1    4    4    0    0  0.31952144400E+02 -0.13226991460E+02  0.41215145579E+02  0.53801310950E+02  0.00000000000E+00 0.  1.
         11    1    4    4    0    0 -0.35918439993E+01 -0.39110877296E+02 -0.38776913689E+02  0.55192491350E+02  0.00000000000E+00 0. -1.
</event>
<event>
 8    1  0.6760442E-009  0.1162417E+03  0.7561462E-02  0.1249429E+00
         -2   -1    0    0    0  501 -0.00000000000E+00  0.00000000000E+00  0.31492784187E+03  0.31492784187E+03  0.00000000000E+00 0.  1.
          2   -1    0    0  501    0  0.00000000000E+00 -0.00000000000E+00 -0.64129132347E+02  0.64129132347E+02  0.00000000000E+00 0. -1.
         25    2    1    2    0    0 -0.11615608066E+02  0.53595989625E+02  0.23722683860E+03  0.27373142351E+03  0.12507944200E+03 0.  0.
         23    2    1    2    0    0  0.11615608066E+02 -0.53595989625E+02  0.13571870925E+02  0.10532555071E+03  0.88892201553E+02 0.  0.
          5    1    3    3  502    0  0.48816726733E+02  0.51624424224E+02  0.16329405460E+03  0.17813077964E+03  0.41800000000E+01 0. -1.
         -5    1    3    3    0  502 -0.60432334799E+02  0.19715654010E+01  0.73932783994E+02  0.95600643871E+02  0.41800000000E+01 0. -1.
        -11    1    4    4    0    0 -0.35220419390E+02 -0.36816597841E+02  0.20837692771E+02  0.55046791538E+02  0.00000000000E+00 0.  1.
         11    1    4    4    0    0  0.46836027457E+02 -0.16779391784E+02 -0.72658218467E+01  0.50278759170E+02  0.00000000000E+00 0. -1.
</event>
<event>
 8    1  0.6760442E-009  0.1135266E+03  0.7561462E-02  0.1254175E+00
         -2   -1    0    0    0  501 -0.00000000000E+00  0.00000000000E+00  0.50102031917E+02  0.50102031917E+02  0.00000000000E+00 0.  1.
          2   -1    0    0  501    0  0.00000000000E+00 -0.00000000000E+00 -0.34127966473E+03  0.34127966473E+03  0.00000000000E+00 0. -1.
         25    2    1    2    0    0 -0.62240420471E+02 -0.41760663548E+02 -0.15294922851E+03  0.21133297567E+03  0.12510130752E+03 0.  0.
         23    2    1    2    0    0  0.62240420471E+02  0.41760663548E+02 -0.13822840430E+03  0.18004872097E+03  0.87707623439E+02 0.  0.
          5    1    3    3  502    0 -0.48057895701E+02  0.40035464828E+02 -0.63799717268E+02  0.89444262570E+02  0.41800000000E+01 0.  1.
         -5    1    3    3    0  502 -0.14182524770E+02 -0.81796128377E+02 -0.89149511245E+02  0.12188871310E+03  0.41800000000E+01 0.  1.
        -11    1    4    4    0    0  0.41034681364E+02  0.86703110324E+01 -0.63254410622E+01  0.42414980521E+02  0.00000000000E+00 0.  1.
         11    1    4    4    0    0  0.21205739107E+02  0.33090352516E+02 -0.13190296323E+03  0.13763374045E+03  0.00000000000E+00 0. -1.
</event>
<event>
 8    1  0.6760442E-009  0.1149123E+03  0.7561462E-02  0.1251734E+00
         -2   -1    0    0    0  501 -0.00000000000E+00  0.00000000000E+00  0.27704297445E+03  0.27704297445E+03  0.00000000000E+00 0.  1.
          2   -1    0    0  501    0  0.00000000000E+00 -0.00000000000E+00 -0.11981151984E+03  0.11981151984E+03  0.00000000000E+00 0. -1.
         25    2    1    2    0    0 -0.82967593280E+02  0.44080868171E+02  0.20440628597E+03  0.25740224299E+03  0.12508893029E+03 0.  0.
         23    2    1    2    0    0  0.82967593280E+02 -0.44080868171E+02 -0.47174831354E+02  0.13945225130E+03  0.91622711192E+02 0.  0.
          5    1    3    3  502    0 -0.40270648291E+02  0.37750801101E+02  0.76008553075E+01  0.55875696854E+02  0.41800000000E+01 0.  1.
         -5    1    3    3    0  502 -0.42696944990E+02  0.63300670699E+01  0.19680543066E+03  0.20152654614E+03  0.41800000000E+01 0.  1.
        -11    1    4    4    0    0  0.18543766719E+02 -0.61607157768E+02 -0.20075223439E+02  0.67396793459E+02  0.00000000000E+00 0.  1.
         11    1    4    4    0    0  0.64423826561E+02  0.17526289597E+02 -0.27099607914E+02  0.72055457843E+02  0.00000000000E+00 0. -1.
</event>
<event>
 8    1  0.6760442E-009  0.1206839E+03  0.7561462E-02  0.1241973E+00
          4   -1    0    0  501    0  0.00000000000E+00  0.00000000000E+00  0.65889843078E+02  0.65889843078E+02  0.00000000000E+00 0. -1.
         -4   -1    0    0    0  501 -0.00000000000E+00 -0.00000000000E+00 -0.23584593143E+03  0.23584593143E+03  0.00000000000E+00 0.  1.
         25    2    1    2    0    0 -0.48845552877E+02 -0.35723401959E+02 -0.81660260139E+02  0.16117284110E+03  0.12508491972E+03 0.  0.
         23    2    1    2    0    0  0.48845552877E+02  0.35723401959E+02 -0.88295828211E+02  0.14056293340E+03  0.91102884056E+02 0.  0.
          5    1    3    3  502    0 -0.80705856794E+02 -0.57774022603E+02 -0.65451947418E+02  0.11896513283E+03  0.41800000000E+01 0.  1.
         -5    1    3    3    0  502  0.31860303918E+02  0.22050620643E+02 -0.16208312720E+02  0.42207708274E+02  0.41800000000E+01 0.  1.
        -11    1    4    4    0    0 -0.49784677259E+01  0.47663076327E+02 -0.17920495711E+02  0.51163445470E+02  0.00000000000E+00 0. -1.
         11    1    4    4    0    0  0.53824020603E+02 -0.11939674367E+02 -0.70375332500E+02  0.89399487931E+02  0.00000000000E+00 0.  1.
</event>
<event>
 8    1  0.6760442E-009  0.9044910E+02  0.7561462E-02  0.1301768E+00
          2   -1    0    0  501    0  0.00000000000E+00  0.00000000000E+00  0.33196187721E+03  0.33196187721E+03  0.00000000000E+00 0.  1.
         -2   -1    0    0    0  501 -0.00000000000E+00 -0.00000000000E+00 -0.39198582406E+02  0.39198582406E+02  0.00000000000E+00 0. -1.
         25    2    1    2    0    0 -0.19744982727E+02 -0.34213220129E+01  0.21390673481E+03  0.24860674736E+03  0.12509058257E+03 0.  0.
         23    2    1    2    0    0  0.19744982727E+02  0.34213220129E+01  0.78856559996E+02  0.12255371226E+03  0.91648707286E+02 0.  0.
          5    1    3    3  502    0  0.31504812714E+02  0.44734706544E+02  0.75904290266E+02  0.93662590582E+02  0.41800000000E+01 0.  1.
         -5    1    3    3    0  502 -0.51249795440E+02 -0.48156028557E+02  0.13800244454E+03  0.15494415677E+03  0.41800000000E+01 0.  1.
        -11    1    4    4    0    0  0.63743899868E+00  0.25993472815E+02  0.87870603101E+02  0.91636836735E+02  0.00000000000E+00 0.  1.
         11    1    4    4    0    0  0.19107543728E+02 -0.22572150802E+02 -0.90140431045E+01  0.30916875525E+02  0.00000000000E+00 0. -1.
</event>
<event>
 8    1  0.6760442E-009  0.1034977E+03  0.7561462E-02  0.1273108E+00
          2   -1    0    0  501    0  0.00000000000E+00  0.00000000000E+00  0.29178699695E+03  0.29178699695E+03  0.00000000000E+00 0. -1.
         -2   -1    0    0    0  501 -0.00000000000E+00 -0.00000000000E+00 -0.81972972906E+02  0.81972972906E+02  0.00000000000E+00 0.  1.
         25    2    1    2    0    0 -0.95261470181E+01  0.25443293895E+02  0.24267952757E+03  0.27437252374E+03  0.12509524373E+03 0.  0.
         23    2    1    2    0    0  0.95261470181E+01 -0.25443293895E+02 -0.32865503529E+02  0.99387446108E+02  0.89775355418E+02 0.  0.
          5    1    3    3  502    0  0.56336127124E+02  0.38119595551E+01  0.13305158566E+03  0.14459767322E+03  0.41800000000E+01 0.  1.
         -5    1    3    3    0  502 -0.65862274142E+02  0.21631334339E+02  0.10962794191E+03  0.12977485052E+03  0.41800000000E+01 0.  1.
        -11    1    4    4    0    0  0.42873814913E+02 -0.19300456527E+02  0.64623272754E+01  0.47459807218E+02  0.00000000000E+00 0. -1.
         11    1    4    4    0    0 -0.33347667895E+02 -0.61428373677E+01 -0.39327830805E+02  0.51927638891E+02  0.00000000000E+00 0.  1.
</event>
<event>
 8    1  0.6760442E-009  0.9342181E+02  0.7561462E-02  0.1294771E+00
          2   -1    0    0  501    0  0.00000000000E+00  0.00000000000E+00  0.21681748746E+04  0.21681748746E+04  0.00000000000E+00 0. -1.
         -2   -1    0    0    0  501 -0.00000000000E+00 -0.00000000000E+00 -0.19050985939E+02  0.19050985939E+02  0.00000000000E+00 0.  1.
         25    2    1    2    0    0 -0.29050600298E+02 -0.83810393687E+02  0.19111855456E+04  0.19173275659E+04  0.12508671174E+03 0.  0.
         23    2    1    2    0    0  0.29050600298E+02  0.83810393687E+02  0.23793834302E+03  0.26989829468E+03  0.91445693866E+02 0.  0.
          5    1    3    3  502    0 -0.41427394690E+01 -0.47408021026E+02  0.17349666669E+04  0.17356242365E+04  0.41800000000E+01 0. -1.
         -5    1    3    3    0  502 -0.24907860829E+02 -0.36402372661E+02  0.17621887876E+03  0.18170332935E+03  0.41800000000E+01 0. -1.
        -11    1    4    4    0    0 -0.57433105961E+01  0.30975138577E+02  0.18425263408E+03  0.18692639726E+03  0.00000000000E+00 0. -1.
         11    1    4    4    0    0  0.34793910894E+02  0.52835255111E+02  0.53685708937E+02  0.82971897423E+02  0.00000000000E+00 0.  1.
</event>
<event>
 8    1  0.6760442E-009  0.1141407E+03  0.7561462E-02  0.1253089E+00
         -2   -1    0    0    0  501 -0.00000000000E+00  0.00000000000E+00  0.14156642541E+03  0.14156642541E+03  0.00000000000E+00 0.  1.
          2   -1    0    0  501    0  0.00000000000E+00 -0.00000000000E+00 -0.12491081327E+03  0.12491081327E+03  0.00000000000E+00 0. -1.
         25    2    1    2    0    0 -0.67644887706E+02  0.40404921797E+02  0.13968205644E+02  0.14849558601E+03  0.12508972683E+03 0.  0.
         23    2    1    2    0    0  0.67644887706E+02 -0.40404921797E+02  0.26874065019E+01  0.11798165267E+03  0.87772772973E+02 0.  0.
          5    1    3    3  502    0  0.20026056080E+01 -0.32060393211E+02  0.32858826781E+02  0.46141674650E+02  0.41800000000E+01 0.  1.
         -5    1    3    3    0  502 -0.69647493314E+02  0.72465315008E+02 -0.18890621136E+02  0.10235391136E+03  0.41800000000E+01 0.  1.
        -11    1    4    4    0    0  0.33285698697E+02  0.95800805941E+01 -0.32804229100E+02  0.47705692834E+02  0.00000000000E+00 0. -1.
         11    1    4    4    0    0  0.34359189009E+02 -0.49985002391E+02  0.35491635602E+02  0.70275959838E+02  0.00000000000E+00 0.  1.
</event>
<event>
 8    1  0.6760442E-009  0.1297343E+03  0.7561462E-02  0.1227850E+00
         -2   -1    0    0    0  501 -0.00000000000E+00  0.00000000000E+00  0.86462683628E+02  0.86462683628E+02  0.00000000000E+00 0.  1.
          2   -1    0    0  501    0  0.00000000000E+00 -0.00000000000E+00 -0.35162558609E+03  0.35162558609E+03  0.00000000000E+00 0. -1.
         25    2    1    2    0    0  0.10032357617E+03 -0.22500918879E+02 -0.28771692171E+02  0.16445889403E+03  0.12509119181E+03 0.  0.
         23    2    1    2    0    0 -0.10032357617E+03  0.22500918879E+02 -0.23639121029E+03  0.27362937569E+03  0.91766658710E+02 0.  0.
          5    1    3    3  502    0  0.13815833188E+02  0.21316722750E+02 -0.57695844123E+02  0.63178815631E+02  0.41800000000E+01 0.  1.
         -5    1    3    3    0  502  0.86507742983E+02 -0.43817641628E+02  0.28924151952E+02  0.10128007840E+03  0.41800000000E+01 0.  1.
        -11    1    4    4    0    0 -0.10450947244E+03  0.44993851631E+02 -0.18225492722E+03  0.21485701062E+03  0.00000000000E+00 0.  1.
         11    1    4    4    0    0  0.41858962730E+01 -0.22492932752E+02 -0.54136283074E+02  0.58772365075E+02  0.00000000000E+00 0. -1.
</event>
<event>
 8    1  0.6760442E-009  0.1091964E+03  0.7561462E-02  0.1262065E+00
         -1   -1    0    0    0  501 -0.00000000000E+00  0.00000000000E+00  0.78582340886E+02  0.78582340886E+02  0.00000000000E+00 0.  1.
          1   -1    0    0  501    0  0.00000000000E+00 -0.00000000000E+00 -0.19664542607E+03  0.19664542607E+03  0.00000000000E+00 0. -1.
         25    2    1    2    0    0  0.77775031530E+01 -0.58856077830E+02 -0.48733939609E+02  0.14678794032E+03  0.12508866895E+03 0.  0.
         23    2    1    2    0    0 -0.77775031530E+01  0.58856077830E+02 -0.69329145576E+02  0.12843982664E+03  0.90364435416E+02 0.  0.
          5    1    3    3  502    0  0.39286235893E+02 -0.67904253653E+02 -0.71846389222E+02  0.10646018993E+03  0.41800000000E+01 0.  1.
         -5    1    3    3    0  502 -0.31508732740E+02  0.90481758235E+01  0.23112449613E+02  0.40327750392E+02  0.41800000000E+01 0.  1.
        -11    1    4    4    0    0 -0.46253917149E+02  0.15418762054E+02 -0.41761491486E+02  0.64196458205E+02  0.00000000000E+00 0.  1.
         11    1    4    4    0    0  0.38476413996E+02  0.43437315776E+02 -0.27567654089E+02  0.64243368434E+02  0.00000000000E+00 0. -1.
</event>
<event>
 7    1  0.6760442E-009  0.1306715E+03  0.7561462E-02  0.1226463E+00
          2   -1    0    0  501    0  0.00000000000E+00  0.00000000000E+00  0.68135061642E+03  0.68135061642E+03  0.00000000000E+00 0. -1.
         -2   -1    0    0    0  501 -0.00000000000E+00 -0.00000000000E+00 -0.32180232645E+02  0.32180232645E+02  0.00000000000E+00 0.  1.
         25    2    1    2    0    0  0.57245203438E+02 -0.31554012505E+02  0.37775910902E+03  0.40326452830E+03  0.12509063239E+03 0.  0.
          5    1    3    3  502    0  0.92814775689E+02 -0.20830778566E+02  0.19858430993E+03  0.22023102522E+03  0.41800000000E+01 0.  1.
         -5    1    3    3    0  502 -0.35569572251E+02 -0.10723233939E+02  0.17917479910E+03  0.18303350308E+03  0.41800000000E+01 0.  1.
        -11    1    1    2    0    0 -0.63820737719E+02  0.67093720342E+02  0.10510320758E+03  0.14007618682E+03  0.00000000000E+00 0.  1.
         11    1    1    2    0    0  0.65755342814E+01 -0.35539707838E+02  0.16630806718E+03  0.17019013395E+03  0.00000000000E+00 0. -1.
</event>
<event>
 8    1  0.6760442E-009  0.6194911E+02  0.7561462E-02  0.1389830E+00
         -1   -1    0    0    0  501 -0.00000000000E+00  0.00000000000E+00  0.36482846158E+03  0.36482846158E+03  0.00000000000E+00 0. -1.
          1   -1    0    0  501    0  0.00000000000E+00 -0.00000000000E+00 -0.38424760455E+02  0.38424760455E+02  0.00000000000E+00 0.  1.
         25    2    1    2    0    0  0.41830987813E+02  0.24510145060E+02  0.16196193187E+03  0.21029891609E+03  0.12507353030E+03 0.  0.
         23    2    1    2    0    0 -0.41830987813E+02 -0.24510145060E+02  0.16444176926E+03  0.19295430595E+03  0.88542023661E+02 0.  0.
          5    1    3    3  502    0  0.26436956529E+02  0.17938434383E+02 -0.12812788374E+02  0.34674775335E+02  0.41800000000E+01 0. -1.
         -5    1    3    3    0  502  0.15394031284E+02  0.65717106771E+01  0.17477472024E+03  0.17562414076E+03  0.41800000000E+01 0. -1.
        -11    1    4    4    0    0 -0.18148025171E+02 -0.41489313895E+02  0.15625609789E+03  0.16268583870E+03  0.00000000000E+00 0. -1.
         11    1    4    4    0    0 -0.23682962642E+02  0.16979168835E+02  0.81856713702E+01  0.30268467249E+02  0.00000000000E+00 0.  1.
</event>
<event>
 8    1  0.6760442E-009  0.8898060E+02  0.7561462E-02  0.1305339E+00
          3   -1    0    0  501    0  0.00000000000E+00  0.00000000000E+00  0.12890793529E+03  0.12890793529E+03  0.00000000000E+00 0. -1.
         -3   -1    0    0    0  501 -0.00000000000E+00 -0.00000000000E+00 -0.13010227559E+03  0.13010227559E+03  0.00000000000E+00 0.  1.
         25    2    1    2    0    0 -0.34699052341E+02 -0.51565050022E+02 -0.33986158775E+02  0.14375541644E+03  0.12509029599E+03 0.  0.
         23    2    1    2    0    0  0.34699052341E+02  0.51565050022E+02  0.32791818473E+02  0.11525479444E+03  0.91353082404E+02 0.  0.
          5    1    3    3  502    0 -0.59767611963E+02 -0.51477275433E+02  0.22231687002E+02  0.82059719916E+02  0.41800000000E+01 0.  1.
         -5    1    3    3    0  502  0.25068559622E+02 -0.87774588595E-01 -0.56217845777E+02  0.61695696525E+02  0.41800000000E+01 0.  1.
        -11    1    4    4    0    0  0.34555614274E+02  0.16155359106E+02 -0.26322703730E+02  0.46346206289E+02  0.00000000000E+00 0.  1.
         11    1    4    4    0    0  0.14343806731E+00  0.35409690916E+02  0.59114522203E+02  0.68908588148E+02  0.00000000000E+00 0. -1.
</event>
<event>
 8    1  0.6760442E-009  0.1020638E+03  0.7561462E-02  0.1276015E+00
         -1   -1    0    0    0  501 -0.00000000000E+00  0.00000000000E+00  0.79973899773E+02  0.79973899773E+02  0.00000000000E+00 0.  1.
          1   -1    0    0  501    0  0.00000000000E+00 -0.00000000000E+00 -0.16045028289E+03  0.16045028289E+03  0.00000000000E+00 0. -1.
         25    2    1    2    0    0 -0.16276017313E+02  0.14528679060E+02 -0.22319838959E+02  0.12893276097E+03  0.12509792318E+03 0.  0.
         23    2    1    2    0    0  0.16276017313E+02 -0.14528679060E+02 -0.58156544162E+02  0.11149142170E+03  0.92585972097E+02 0.  0.
          5    1    3    3  502    0  0.50625687288E+02  0.89824715817E+01  0.12663788127E+02  0.53117689510E+02  0.41800000000E+01 0.  1.
         -5    1    3    3    0  502 -0.66901704601E+02  0.55462074786E+01 -0.34983627086E+02  0.75815071457E+02  0.41800000000E+01 0.  1.
        -11    1    4    4    0    0  0.47305086505E+02  0.65677386826E+01 -0.56434034703E+02  0.73930417783E+02  0.00000000000E+00 0. -1.
         11    1    4    4    0    0 -0.31029069193E+02 -0.21096417743E+02 -0.17225094596E+01  0.37561003919E+02  0.00000000000E+00 0.  1.
</event>
<event>
 8    1  0.6760442E-009  0.8124768E+02  0.7561462E-02  0.1325548E+00
         -1   -1    0    0    0  501 -0.00000000000E+00  0.00000000000E+00  0.19163410080E+03  0.19163410080E+03  0.00000000000E+00 0.  1.
          1   -1    0    0  501    0  0.00000000000E+00 -0.00000000000E+00 -0.67407304787E+02  0.67407304787E+02  0.00000000000E+00 0. -1.
         25    2    1    2    0    0 -0.25236713452E+02  0.18303773008E+01  0.47090797446E+02  0.13603641318E+03  0.12509244789E+03 0.  0.
         23    2    1    2    0    0  0.25236713452E+02 -0.18303773008E+01  0.77135998565E+02  0.12300499241E+03  0.92412249707E+02 0.  0.
          5    1    3    3  502    0 -0.46890091603E+02  0.45633139418E+02 -0.33973844642E+01  0.65651189820E+02  0.41800000000E+01 0.  1.
         -5    1    3    3    0  502  0.21653378151E+02 -0.43802762117E+02  0.50488181910E+02  0.70385223357E+02  0.41800000000E+01 0.  1.
        -11    1    4    4    0    0  0.29324683598E+01 -0.19323797820E+02  0.89840599020E+02  0.91942056563E+02  0.00000000000E+00 0.  1.
         11    1    4    4    0    0  0.22304245092E+02  0.17493420519E+02 -0.12704600455E+02  0.31062935845E+02  0.00000000000E+00 0. -1.
</event>
<event>
 8    1  0.6760442E-009  0.2698771E+03  0.7561462E-02  0.1101350E+00
          2   -1    0    0  501    0  0.00000000000E+00  0.00000000000E+00  0.88987224881E+03  0.88987224881E+03  0.00000000000E+00 0. -1.
         -2   -1    0    0    0  501 -0.00000000000E+00 -0.00000000000E+00 -0.16034590747E+03  0.16034590747E+03  0.00000000000E+00 0.  1.
         25    2    1    2    0    0 -0.15162506909E+03 -0.20519155968E+03  0.12990677424E+02  0.28446056866E+03  0.12512121996E+03 0.  0.
         23    2    1    2    0    0  0.15162506909E+03  0.20519155968E+03  0.71653566391E+03  0.76575758761E+03  0.88699422689E+02 0.  0.
          5    1    3    3  502    0 -0.54083267725E+01 -0.72072443673E+02 -0.35779560582E+02  0.80754792372E+02  0.41800000000E+01 0. -1.
         -5    1    3    3    0  502 -0.14621674232E+03 -0.13311911601E+03  0.48770238007E+02  0.20370577629E+03  0.41800000000E+01 0. -1.
        -11    1    4    4    0    0  0.84423980204E+02  0.17814502584E+03  0.50193239841E+03  0.53925800063E+03  0.00000000000E+00 0.  1.
         11    1    4    4    0    0  0.67201088884E+02  0.27046533837E+02  0.21460326550E+03  0.22649958698E+03  0.00000000000E+00 0. -1.
</event>
<event>
 8    1  0.6760442E-009  0.1454946E+03  0.7561462E-02  0.1206121E+00
         -1   -1    0    0    0  501 -0.00000000000E+00  0.00000000000E+00  0.42835203086E+02  0.42835203086E+02  0.00000000000E+00 0.  1.
          1   -1    0    0  501    0  0.00000000000E+00 -0.00000000000E+00 -0.58613485666E+03  0.58613485666E+03  0.00000000000E+00 0. -1.
         25    2    1    2    0    0  0.56352828141E+02  0.96979897756E+02 -0.34089500261E+03  0.38004991638E+03  0.12509114410E+03 0.  0.
         23    2    1    2    0    0 -0.56352828141E+02 -0.96979897756E+02 -0.20240465097E+03  0.24892014336E+03  0.91721607217E+02 0.  0.
          5    1    3    3  502    0  0.22885320585E+01  0.10619296365E+03 -0.16977819787E+03  0.20031048844E+03  0.41800000000E+01 0.  1.
         -5    1    3    3    0  502  0.54064296082E+02 -0.92130658926E+01 -0.17111680473E+03  0.17973942794E+03  0.41800000000E+01 0.  1.
        -11    1    4    4    0    0 -0.45188829289E+02 -0.15995419751E+02 -0.26092666717E+02  0.54577568670E+02  0.00000000000E+00 0.  1.
         11    1    4    4    0    0 -0.11163998851E+02 -0.80984478005E+02 -0.17631198425E+03  0.19434257469E+03  0.00000000000E+00 0. -1.
</event>
<event>
 8    1  0.6760442E-009  0.1096628E+03  0.7561462E-02  0.1261196E+00
         -2   -1    0    0    0  501 -0.00000000000E+00  0.00000000000E+00  0.17303173485E+02  0.17303173485E+02  0.00000000000E+00 0.  1.
          2   -1    0    0  501    0  0.00000000000E+00 -0.00000000000E+00 -0.87860670807E+03  0.87860670807E+03  0.00000000000E+00 0. -1.
         25    2    1    2    0    0  0.60355489309E+02  0.23948300921E+02 -0.57953727321E+03  0.59642899777E+03  0.12509113532E+03 0.  0.
         23    2    1    2    0    0 -0.60355489309E+02 -0.23948300921E+02 -0.28176626138E+03  0.29948088379E+03  0.77976070027E+02 0.  0.
          5    1    3    3  502    0  0.33765195723E+02 -0.39566174752E+02 -0.41131909635E+03  0.41461601760E+03  0.41800000000E+01 0.  1.
         -5    1    3    3    0  502  0.26590293586E+02  0.63514475672E+02 -0.16821817686E+03  0.18181298017E+03  0.41800000000E+01 0.  1.
        -11    1    4    4    0    0 -0.43135632762E+02  0.22479579448E+02 -0.17764879418E+03  0.18418769877E+03  0.00000000000E+00 0.  1.
         11    1    4    4    0    0 -0.17219856547E+02 -0.46427880369E+02 -0.10411746720E+03  0.11529318502E+03  0.00000000000E+00 0. -1.
</event>
<event>
 8    1  0.6760442E-009  0.3115550E+03  0.7561462E-02  0.1079603E+00
         -2   -1    0    0    0  501 -0.00000000000E+00  0.00000000000E+00  0.68498010072E+02  0.68498010072E+02  0.00000000000E+00 0.  1.
          2   -1    0    0  501    0  0.00000000000E+00 -0.00000000000E+00 -0.15611244438E+04  0.15611244438E+04  0.00000000000E+00 0. -1.
         25    2    1    2    0    0  0.17989353790E+03  0.24664126524E+03 -0.86481277822E+03  0.92560381231E+03  0.12509067632E+03 0.  0.
         23    2    1    2    0    0 -0.17989353790E+03 -0.24664126524E+03 -0.62781365554E+03  0.70401864159E+03  0.91096997350E+02 0.  0.
          5    1    3    3  502    0  0.14023937779E+03  0.13450781861E+03 -0.66707604840E+03  0.69481462499E+03  0.41800000000E+01 0.  1.
         -5    1    3    3    0  502  0.39654160109E+02  0.11213344663E+03 -0.19773672982E+03  0.23078918732E+03  0.41800000000E+01 0.  1.
        -11    1    4    4    0    0 -0.35849512993E+02 -0.90283914273E+02 -0.12654017917E+03  0.15952676798E+03  0.00000000000E+00 0.  1.
         11    1    4    4    0    0 -0.14404402490E+03 -0.15635735097E+03 -0.50127347637E+03  0.54449187361E+03  0.00000000000E+00 0. -1.
</event>
<event>
 8    1  0.6760442E-009  0.1466074E+03  0.7561462E-02  0.1204705E+00
         -2   -1    0    0    0  501 -0.00000000000E+00  0.00000000000E+00  0.10658401319E+03  0.10658401319E+03  0.00000000000E+00 0.  1.
          2   -1    0    0  501    0  0.00000000000E+00 -0.00000000000E+00 -0.35761378316E+03  0.35761378316E+03  0.00000000000E+00 0. -1.
         25    2    1    2    0    0  0.16943325631E+02 -0.14517356499E+03 -0.21243328168E+03  0.28660236885E+03  0.12510227180E+03 0.  0.
         23    2    1    2    0    0 -0.16943325631E+02  0.14517356499E+03 -0.38596488288E+02  0.17759542750E+03  0.93209477560E+02 0.  0.
          5    1    3    3  502    0 -0.10090479682E+01 -0.15879165876E+02  0.16332365852E+02  0.23181558641E+02  0.41800000000E+01 0.  1.
         -5    1    3    3    0  502  0.17952373600E+02 -0.12929439911E+03 -0.22876564753E+03  0.26342081021E+03  0.41800000000E+01 0.  1.
        -11    1    4    4    0    0 -0.23733624691E+01  0.23353093816E+02  0.29164998712E+02  0.37437908463E+02  0.00000000000E+00 0.  1.
         11    1    4    4    0    0 -0.14569963162E+02  0.12182047117E+03 -0.67761487000E+02  0.14015751904E+03  0.00000000000E+00 0. -1.
</event>
<event>
 8    1  0.6760442E-009  0.1660367E+03  0.7561462E-02  0.1182045E+00
         -1   -1    0    0    0  501 -0.00000000000E+00  0.00000000000E+00  0.24492356307E+03  0.24492356307E+03  0.00000000000E+00 0.  1.
          1   -1    0    0  501    0  0.00000000000E+00 -0.00000000000E+00 -0.11801368810E+03  0.11801368810E+03  0.00000000000E+00 0. -1.
         25    2    1    2    0    0  0.38348998487E+02 -0.12879087077E+03  0.55521587584E+02  0.19180168213E+03  0.12508998560E+03 0.  0.
         23    2    1    2    0    0 -0.38348998487E+02  0.12879087077E+03  0.71388287382E+02  0.17113556905E+03  0.78315779621E+02 0.  0.
          5    1    3    3  502    0 -0.39610402752E+02 -0.83490459825E+02  0.19028749907E+02  0.94441551295E+02  0.41800000000E+01 0. -1.
         -5    1    3    3    0  502  0.77959401239E+02 -0.45300410950E+02  0.36492837677E+02  0.97360130831E+02  0.41800000000E+01 0. -1.
        -11    1    4    4    0    0 -0.49469830671E+02  0.52218003165E+02  0.58451634217E+02  0.92685368552E+02  0.00000000000E+00 0.  1.
         11    1    4    4    0    0  0.11120832183E+02  0.76572867610E+02  0.12936653165E+02  0.78450200494E+02  0.00000000000E+00 0. -1.
</event>
<event>
 8    1  0.6760442E-009  0.9774253E+02  0.7561462E-02  0.1285116E+00
          2   -1    0    0  501    0  0.00000000000E+00  0.00000000000E+00  0.18404498641E+03  0.18404498641E+03  0.00000000000E+00 0. -1.
         -2   -1    0    0    0  501 -0.00000000000E+00 -0.00000000000E+00 -0.10241970423E+03  0.10241970423E+03  0.00000000000E+00 0.  1.
         25    2    1    2    0    0 -0.36566956120E+01 -0.51095228063E+02 -0.25317888038E+02  0.13753032779E+03  0.12509796902E+03 0.  0.
         23    2    1    2    0    0  0.36566956120E+01  0.51095228063E+02  0.10694317021E+03  0.14893436285E+03  0.90113867019E+02 0.  0.
          5    1    3    3  502    0  0.52887441855E+02 -0.14104691172E+02  0.17273491840E+02  0.57548846552E+02  0.41800000000E+01 0. -1.
         -5    1    3    3    0  502 -0.56544137467E+02 -0.36990536891E+02 -0.42591379879E+02  0.79981481240E+02  0.41800000000E+01 0. -1.
        -11    1    4    4    0    0  0.16839889500E+02  0.56265115634E+02  0.21838947193E+02  0.62660072855E+02  0.00000000000E+00 0.  1.
         11    1    4    4    0    0 -0.13183193888E+02 -0.51698875709E+01  0.85104223018E+02  0.86274289995E+02  0.00000000000E+00 0. -1.
</event>
<event>
 8    1  0.6760442E-009  0.7218961E+02  0.7561462E-02  0.1352802E+00
         -2   -1    0    0    0  501 -0.00000000000E+00  0.00000000000E+00  0.31276154980E+02  0.31276154980E+02  0.00000000000E+00 0.  1.
          2   -1    0    0  501    0  0.00000000000E+00 -0.00000000000E+00 -0.43445843156E+03  0.43445843156E+03  0.00000000000E+00 0. -1.
         25    2    1    2    0    0  0.26276860637E+02  0.18818627732E+02 -0.28421767933E+03  0.31220457845E+03  0.12508954955E+03 0.  0.
         23    2    1    2    0    0 -0.26276860637E+02 -0.18818627732E+02 -0.11896459724E+03  0.15353000808E+03  0.91511058511E+02 0.  0.
          5    1    3    3  502    0  0.12885570069E+01  0.21592848980E+02  0.43976857997E+01  0.22466053206E+02  0.41800000000E+01 0.  1.
         -5    1    3    3    0  502  0.24988303630E+02 -0.27742212485E+01 -0.28861536513E+03  0.28973852525E+03  0.41800000000E+01 0.  1.
        -11    1    4    4    0    0 -0.33175487022E+02 -0.52706286672E+02 -0.71820749130E+02  0.95062009233E+02  0.00000000000E+00 0.  1.
         11    1    4    4    0    0  0.68986263855E+01  0.33887658940E+02 -0.47143848112E+02  0.58467998848E+02  0.00000000000E+00 0. -1.
</event>
<event>
 8    1  0.6760442E-009  0.9483722E+02  0.7561462E-02  0.1291543E+00
         -2   -1    0    0    0  501 -0.00000000000E+00  0.00000000000E+00  0.78405958221E+03  0.78405958221E+03  0.00000000000E+00 0.  1.
          2   -1    0    0  501    0  0.00000000000E+00 -0.00000000000E+00 -0.19014233717E+02  0.19014233717E+02  0.00000000000E+00 0. -1.
         25    2    1    2    0    0  0.71408335515E+01 -0.40695805633E+02  0.54625323772E+03  0.56191360297E+03  0.12508859811E+03 0.  0.
         23    2    1    2    0    0 -0.71408335515E+01  0.40695805633E+02  0.21879211077E+03  0.24116021296E+03  0.92634337478E+02 0.  0.
          5    1    3    3  502    0 -0.12615546968E+02  0.25798069978E+02  0.38788819315E+03  0.38897225509E+03  0.41800000000E+01 0.  1.
         -5    1    3    3    0  502  0.19756380519E+02 -0.66493875611E+02  0.15836504457E+03  0.17294134788E+03  0.41800000000E+01 0.  1.
        -11    1    4    4    0    0 -0.43687238336E+02  0.30297148688E+02  0.17637248773E+03  0.18421114635E+03  0.00000000000E+00 0.  1.
         11    1    4    4    0    0  0.36546404784E+02  0.10398656945E+02  0.42419623045E+02  0.56949066614E+02  0.00000000000E+00 0. -1.
</event>
<event>
 8    1  0.6760442E-009  0.6441897E+02  0.7561462E-02  0.1380171E+00
          1   -1    0    0  501    0  0.00000000000E+00  0.00000000000E+00  0.79089627023E+02  0.79089627023E+02  0.00000000000E+00 0. -1.
         -1   -1    0    0    0  501 -0.00000000000E+00 -0.00000000000E+00 -0.16312370598E+03  0.16312370598E+03  0.00000000000E+00 0.  1.
         25    2    1    2    0    0  0.21637033169E+02  0.10006209419E+02 -0.63446173619E+02  0.14227262408E+03  0.12509115550E+03 0.  0.
         23    2    1    2    0    0 -0.21637033169E+02 -0.10006209419E+02 -0.20587905336E+02  0.99940708918E+02  0.94847235181E+02 0.  0.
          5    1    3    3  502    0 -0.23752564927E+02  0.23470149108E+02  0.24960995296E+02  0.41899354719E+02  0.41800000000E+01 0. -1.
         -5    1    3    3    0  502  0.45389598096E+02 -0.13463939689E+02 -0.88407168915E+02  0.10037326936E+03  0.41800000000E+01 0. -1.
        -11    1    4    4    0    0 -0.10710398961E+02 -0.26095438815E+02 -0.54203675063E+02  0.61104197591E+02  0.00000000000E+00 0.  1.
         11    1    4    4    0    0 -0.10926634208E+02  0.16089229396E+02  0.33615769727E+02  0.38836511327E+02  0.00000000000E+00 0. -1.
</event>
<event>
 8    1  0.6760442E-009  0.9379919E+02  0.7561462E-02  0.1293904E+00
         -2   -1    0    0    0  501 -0.00000000000E+00  0.00000000000E+00  0.18881650039E+03  0.18881650039E+03  0.00000000000E+00 0. -1.
          2   -1    0    0  501    0  0.00000000000E+00 -0.00000000000E+00 -0.74908300622E+02  0.74908300622E+02  0.00000000000E+00 0.  1.
         25    2    1    2    0    0 -0.25493849169E+02  0.13732892477E+02  0.10291251997E+03  0.16454767379E+03  0.12508565666E+03 0.  0.
         23    2    1    2    0    0  0.25493849169E+02 -0.13732892477E+02  0.10995679803E+02  0.99177127225E+02  0.94216075640E+02 0.  0.
          5    1    3    3  502    0  0.13875174310E+02  0.53642721165E+02  0.91705242239E+02  0.10722586372E+03  0.41800000000E+01 0.  1.
         -5    1    3    3    0  502 -0.39369023479E+02 -0.39909828689E+02  0.11207277729E+02  0.57321810071E+02  0.41800000000E+01 0.  1.
        -11    1    4    4    0    0  0.12876266890E+02  0.28749177947E+02  0.36366213751E+02  0.48112524193E+02  0.00000000000E+00 0.  1.
         11    1    4    4    0    0  0.12617582279E+02 -0.42482070424E+02 -0.25370533947E+02  0.51064603032E+02  0.00000000000E+00 0. -1.
</event>
<event>
 8    1  0.6760442E-009  0.2102692E+03  0.7561462E-02  0.1141353E+00
         -1   -1    0    0    0  501 -0.00000000000E+00  0.00000000000E+00  0.20323146693E+03  0.20323146693E+03  0.00000000000E+00 0. -1.
          1   -1    0    0  501    0  0.00000000000E+00 -0.00000000000E+00 -0.23311692593E+03  0.23311692593E+03  0.00000000000E+00 0.  1.
         25    2    1    2    0    0  0.82518798444E+02 -0.16480072661E+03 -0.56201264392E+02  0.22972654842E+03  0.12508826221E+03 0.  0.
         23    2    1    2    0    0 -0.82518798444E+02  0.16480072661E+03  0.26315805395E+02  0.20662184443E+03  0.89618264854E+02 0.  0.
          5    1    3    3  502    0  0.54648647559E+02 -0.88062972688E-01 -0.22548650641E+02  0.59265474611E+02  0.41800000000E+01 0.  1.
         -5    1    3    3    0  502  0.27870150885E+02 -0.16471266364E+03 -0.33652613751E+02  0.17046107381E+03  0.41800000000E+01 0.  1.
        -11    1    4    4    0    0 -0.69307561717E+02  0.56220279054E+02 -0.13421181660E+02  0.90246252028E+02  0.00000000000E+00 0.  1.
         11    1    4    4    0    0 -0.13211236727E+02  0.10858044756E+03  0.39736987055E+02  0.11637559240E+03  0.00000000000E+00 0. -1.
</event>
<event>
 8    1  0.6760442E-009  0.1305547E+03  0.7561462E-02  0.1226635E+00
          1   -1    0    0  501    0  0.00000000000E+00  0.00000000000E+00  0.10431417158E+04  0.10431417158E+04  0.00000000000E+00 0. -1.
         -1   -1    0    0    0  501 -0.00000000000E+00 -0.00000000000E+00 -0.21240484004E+02  0.21240484004E+02  0.00000000000E+00 0.  1.
         25    2    1    2    0    0 -0.68711172464E+02 -0.64786474614E+02  0.64582367400E+03  0.66456741021E+03  0.12507242823E+03 0.  0.
         23    2    1    2    0    0  0.68711172464E+02  0.64786474614E+02  0.37607755776E+03  0.39981478956E+03  0.97462936458E+02 0.  0.
          5    1    3    3  502    0  0.25936748598E+02 -0.23244444673E+02  0.58563206531E+02  0.68265223176E+02  0.41800000000E+01 0.  1.
         -5    1    3    3    0  502 -0.94647921062E+02 -0.41542029940E+02  0.58726046747E+03  0.59630218704E+03  0.41800000000E+01 0.  1.
        -11    1    4    4    0    0  0.71148015333E+02  0.80066244194E+02  0.36599620346E+03  0.38134743279E+03  0.00000000000E+00 0. -1.
         11    1    4    4    0    0 -0.24368428692E+01 -0.15279769581E+02  0.10081354303E+02  0.18467356774E+02  0.00000000000E+00 0.  1.
</event>
<event>
 8    1  0.6760442E-009  0.1064816E+03  0.7561462E-02  0.1267228E+00
          1   -1    0    0  501    0  0.00000000000E+00  0.00000000000E+00  0.48721863291E+03  0.48721863291E+03  0.00000000000E+00 0. -1.
         -1   -1    0    0    0  501 -0.00000000000E+00 -0.00000000000E+00 -0.46036694435E+02  0.46036694435E+02  0.00000000000E+00 0.  1.
         25    2    1    2    0    0 -0.72941626338E+02 -0.37068959493E+02  0.34433487383E+03  0.37537748518E+03  0.12508861834E+03 0.  0.
         23    2    1    2    0    0  0.72941626338E+02  0.37068959493E+02  0.96847064648E+02  0.15787784216E+03  0.94082253928E+02 0.  0.
          5    1    3    3  502    0  0.18881555898E+02  0.30047838331E+01  0.32252479671E+01  0.19834729730E+02  0.41800000000E+01 0. -1.
         -5    1    3    3    0  502 -0.91823182236E+02 -0.40073743326E+02  0.34110962586E+03  0.35554275545E+03  0.41800000000E+01 0. -1.
        -11    1    4    4    0    0  0.51738419855E+02  0.15614678560E+01 -0.87021424122E+00  0.51769291513E+02  0.00000000000E+00 0.  1.
         11    1    4    4    0    0  0.21203206484E+02  0.35507491637E+02  0.97717278889E+02  0.10610855065E+03  0.00000000000E+00 0. -1.
</event>
<event>
 8    1  0.6760442E-009  0.1034896E+03  0.7561462E-02  0.1273124E+00
         -1   -1    0    0    0  501 -0.00000000000E+00  0.00000000000E+00  0.89872019302E+02  0.89872019302E+02  0.00000000000E+00 0.  1.
          1   -1    0    0  501    0  0.00000000000E+00 -0.00000000000E+00 -0.14182862204E+03  0.14182862204E+03  0.00000000000E+00 0. -1.
         25    2    1    2    0    0 -0.79762138169E+01 -0.18658894176E+02 -0.22094482245E+02  0.12863584524E+03  0.12508892923E+03 0.  0.
         23    2    1    2    0    0  0.79762138169E+01  0.18658894176E+02 -0.29862120497E+02  0.10306479610E+03  0.96534095721E+02 0.  0.
          5    1    3    3  502    0  0.58164237679E+02 -0.19183155135E+01 -0.11430794748E+02  0.59454974122E+02  0.41800000000E+01 0.  1.
         -5    1    3    3    0  502 -0.66140451496E+02 -0.16740578663E+02 -0.10663687497E+02  0.69180871121E+02  0.41800000000E+01 0.  1.
        -11    1    4    4    0    0  0.12481017470E+01  0.49093763390E+02 -0.46587220877E+02  0.67691391704E+02  0.00000000000E+00 0. -1.
         11    1    4    4    0    0  0.67281120699E+01 -0.30434869214E+02  0.16725100380E+02  0.35373404400E+02  0.00000000000E+00 0.  1.
</event>
<event>
 8    1  0.6760442E-009  0.1079579E+03  0.7561462E-02  0.1264399E+00
          2   -1    0    0  501    0  0.00000000000E+00  0.00000000000E+00  0.13654370085E+04  0.13654370085E+04  0.00000000000E+00 0. -1.
         -2   -1    0    0    0  501 -0.00000000000E+00 -0.00000000000E+00 -0.15812298990E+02  0.15812298990E+02  0.00000000000E+00 0.  1.
         25    2    1    2    0    0 -0.83155904275E+02 -0.31713886212E+02  0.92753021524E+03  0.94014942331E+03  0.12509181812E+03 0.  0.
         23    2    1    2    0    0  0.83155904275E+02  0.31713886212E+02  0.42209449426E+03  0.44109988417E+03  0.92112272478E+02 0.  0.
          5    1    3    3  502    0  0.67602959020E+01 -0.17967443714E+02  0.19905080202E+02  0.27968111344E+02  0.41800000000E+01 0.  1.
         -5    1    3    3    0  502 -0.89916200177E+02 -0.13746442499E+02  0.90762513504E+03  0.91218131196E+03  0.41800000000E+01 0.  1.
        -11    1    4    4    0    0 -0.13720137417E+01  0.19801193166E+02  0.14291784230E+02  0.24458633833E+02  0.00000000000E+00 0.  1.
         11    1    4    4    0    0  0.84527918017E+02  0.11912693047E+02  0.40780271003E+03  0.41664125034E+03  0.00000000000E+00 0. -1.
</event>
<event>
 8    1  0.6760442E-009  0.2209412E+03  0.7561462E-02  0.1133183E+00
          1   -1    0    0  501    0  0.00000000000E+00  0.00000000000E+00  0.25868752533E+03  0.25868752533E+03  0.00000000000E+00 0. -1.
         -1   -1    0    0    0  501 -0.00000000000E+00 -0.00000000000E+00 -0.19952612354E+03  0.19952612354E+03  0.00000000000E+00 0.  1.
         25    2    1    2    0    0  0.15680446417E+03  0.12205921503E+03  0.12636292618E+02  0.23514285527E+03  0.12508554887E+03 0.  0.
         23    2    1    2    0    0 -0.15680446417E+03 -0.12205921503E+03  0.46525109174E+02  0.22307079359E+03  0.90054989927E+02 0.  0.
          5    1    3    3  502    0  0.14686355582E+03  0.47803190309E+02  0.31703223199E+02  0.15772322528E+03  0.41800000000E+01 0.  1.
         -5    1    3    3    0  502  0.99409083541E+01  0.74256024725E+02 -0.19066930581E+02  0.77419629996E+02  0.41800000000E+01 0.  1.
        -11    1    4    4    0    0 -0.30337440361E+00 -0.31556453463E+02  0.26445775431E+02  0.41173788134E+02  0.00000000000E+00 0.  1.
         11    1    4    4    0    0 -0.15650108977E+03 -0.90502761571E+02  0.20079333743E+02  0.18189700546E+03  0.00000000000E+00 0. -1.
</event>
<event>
 8    1  0.6760442E-009  0.1212360E+03  0.7561462E-02  0.1241072E+00
         -1   -1    0    0    0  501 -0.00000000000E+00  0.00000000000E+00  0.24565574970E+02  0.24565574970E+02  0.00000000000E+00 0.  1.
          1   -1    0    0  501    0  0.00000000000E+00 -0.00000000000E+00 -0.61611565286E+03  0.61611565286E+03  0.00000000000E+00 0. -1.
         25    2    1    2    0    0 -0.43366322399E+02 -0.42403293946E+02 -0.38330315557E+03  0.40773285190E+03  0.12508434031E+03 0.  0.
         23    2    1    2    0    0  0.43366322399E+02  0.42403293946E+02 -0.20824692232E+03  0.23294837594E+03  0.84967569920E+02 0.  0.
          5    1    3    3  502    0 -0.10702716735E+01  0.42815568793E+02 -0.13969900063E+03  0.14617661096E+03  0.41800000000E+01 0. -1.
         -5    1    3    3    0  502 -0.42296050725E+02 -0.85218862739E+02 -0.24360415494E+03  0.26155624094E+03  0.41800000000E+01 0. -1.
        -11    1    4    4    0    0 -0.20432326492E+02 -0.89544000645E+01 -0.39109573230E+02  0.45024659517E+02  0.00000000000E+00 0.  1.
         11    1    4    4    0    0  0.63798648890E+02  0.51357694011E+02 -0.16913734909E+03  0.18792371642E+03  0.00000000000E+00 0. -1.
</event>
<event>
 8    1  0.6760442E-009  0.9167014E+02  0.7561462E-02  0.1298857E+00
         -2   -1    0    0    0  501 -0.00000000000E+00  0.00000000000E+00  0.40242783106E+03  0.40242783106E+03  0.00000000000E+00 0. -1.
          2   -1    0    0  501    0  0.00000000000E+00 -0.00000000000E+00 -0.41261969455E+02  0.41261969455E+02  0.00000000000E+00 0.  1.
         25    2    1    2    0    0  0.52429358696E+02 -0.22594907275E+02  0.13260668110E+03  0.19102616862E+03  0.12508835972E+03 0.  0.
         23    2    1    2    0    0 -0.52429358696E+02  0.22594907275E+02  0.22855918051E+03  0.25266363190E+03  0.91324938555E+02 0.  0.
          5    1    3    3  502    0  0.51613169449E+02  0.80437248857E+01  0.14761766286E+03  0.15664312165E+03  0.41800000000E+01 0.  1.
         -5    1    3    3    0  502  0.81618924693E+00 -0.30638632161E+02 -0.15010981762E+02  0.34383046972E+02  0.41800000000E+01 0.  1.
        -11    1    4    4    0    0 -0.78934088926E+01 -0.30037521121E+02  0.12085367808E+03  0.12478048760E+03  0.00000000000E+00 0. -1.
         11    1    4    4    0    0 -0.44535949804E+02  0.52632428396E+02  0.10770550243E+03  0.12788314430E+03  0.00000000000E+00 0.  1.
</event>
<event>
 8    1  0.6760442E-009  0.1183901E+03  0.7561462E-02  0.1245777E+00
          3   -1    0    0  501    0  0.00000000000E+00  0.00000000000E+00  0.15919506742E+03  0.15919506742E+03  0.00000000000E+00 0. -1.
         -3   -1    0    0    0  501 -0.00000000000E+00 -0.00000000000E+00 -0.13813871524E+03  0.13813871524E+03  0.00000000000E+00 0.  1.
         25    2    1    2    0    0  0.10084939918E+03 -0.98875480241E+01  0.16741111954E+02  0.16184754769E+03  0.12508396756E+03 0.  0.
         23    2    1    2    0    0 -0.10084939918E+03  0.98875480241E+01  0.43152402246E+01  0.13548623497E+03  0.89830583020E+02 0.  0.
          5    1    3    3  502    0  0.47433100068E+02 -0.42262260014E+02  0.58609047990E+02  0.86536064793E+02  0.41800000000E+01 0. -1.
         -5    1    3    3    0  502  0.53416299114E+02  0.32374711990E+02 -0.41867936036E+02  0.75311482892E+02  0.41800000000E+01 0. -1.
        -11    1    4    4    0    0 -0.21196547551E+02 -0.16219472394E+02 -0.34081131616E+02  0.43288433156E+02  0.00000000000E+00 0.  1.
         11    1    4    4    0    0 -0.79652851631E+02  0.26107020419E+02  0.38396371841E+02  0.92197801810E+02  0.00000000000E+00 0. -1.
</event>
<event>
 8    1  0.6760442E-009  0.1210144E+03  0.7561462E-02  0.1241433E+00
         -2   -1    0    0    0  501 -0.00000000000E+00  0.00000000000E+00  0.62963481150E+03  0.62963481150E+03  0.00000000000E+00 0. -1.
          2   -1    0    0  501    0  0.00000000000E+00 -0.00000000000E+00 -0.41974074960E+02  0.41974074960E+02  0.00000000000E+00 0.  1.
         25    2    1    2    0    0 -0.82688962253E+02  0.39628144773E+02  0.47626595115E+03  0.50088414435E+03  0.12509122869E+03 0.  0.
         23    2    1    2    0    0  0.82688962253E+02 -0.39628144773E+02  0.11139478539E+03  0.17072474211E+03  0.91270395099E+02 0.  0.
          5    1    3    3  502    0 -0.85787908645E+02  0.14581992668E+02  0.14884907957E+03  0.17246947750E+03  0.41800000000E+01 0.  1.
         -5    1    3    3    0  502  0.30989463919E+01  0.25046152105E+02  0.32741687158E+03  0.32841466685E+03  0.41800000000E+01 0.  1.
        -11    1    4    4    0    0  0.75184665421E+02 -0.67147853486E+02  0.88707946366E+02  0.13427832249E+03  0.00000000000E+00 0.  1.
         11    1    4    4    0    0  0.75042968326E+01  0.27519708713E+02  0.22686839023E+02  0.36446419625E+02  0.00000000000E+00 0. -1.
</event>
<event>
 8    1  0.6760442E-009  0.9712068E+02  0.7561462E-02  0.1286470E+00
          2   -1    0    0  501    0  0.00000000000E+00  0.00000000000E+00  0.64377435073E+02  0.64377435073E+02  0.00000000000E+00 0. -1.
         -2   -1    0    0    0  501 -0.00000000000E+00 -0.00000000000E+00 -0.23182451626E+03  0.23182451626E+03  0.00000000000E+00 0.  1.
         25    2    1    2    0    0 -0.52064284754E+02  0.33768506687E+01 -0.12044614430E+03  0.18132208399E+03  0.12509329158E+03 0.  0.
         23    2    1    2    0    0  0.52064284754E+02 -0.33768506687E+01 -0.47000936883E+02  0.11487986734E+03  0.90918661368E+02 0.  0.
          5    1    3    3  502    0  0.17346164829E+02  0.97824202329E+01  0.17415539779E+02  0.26783551028E+02  0.41800000000E+01 0. -1.
         -5    1    3    3    0  502 -0.69410449583E+02 -0.64055695643E+01 -0.13786168408E+03  0.15453853296E+03  0.41800000000E+01 0. -1.
        -11    1    4    4    0    0  0.73514585342E+02 -0.20829973581E+02 -0.40474083930E+02  0.86466372234E+02  0.00000000000E+00 0. -1.
         11    1    4    4    0    0 -0.21450300587E+02  0.17453122912E+02 -0.65268529527E+01  0.28413495106E+02  0.00000000000E+00 0.  1.
</event>
<event>
 8    1  0.6760442E-009  0.1498482E+03  0.7561462E-02  0.1200660E+00
          1   -1    0    0  501    0  0.00000000000E+00  0.00000000000E+00  0.33231736107E+03  0.33231736107E+03  0.00000000000E+00 0. -1.
         -1   -1    0    0    0  501 -0.00000000000E+00 -0.00000000000E+00 -0.73003795207E+02  0.73003795207E+02  0.00000000000E+00 0.  1.
         25    2    1    2    0    0 -0.44160677852E+02 -0.10066318120E+03  0.11634834671E+03  0.20313994464E+03  0.12508260394E+03 0.  0.
         23    2    1    2    0    0  0.44160677852E+02  0.10066318120E+03  0.14296521915E+03  0.20218121163E+03  0.91405398809E+02 0.  0.
          5    1    3    3  502    0 -0.17324139674E+02 -0.12427381476E+03  0.10932331809E+03  0.16647272188E+03  0.41800000000E+01 0.  1.
         -5    1    3    3    0  502 -0.26836538177E+02  0.23610633558E+02  0.70250286215E+01  0.36667222767E+02  0.41800000000E+01 0.  1.
        -11    1    4    4    0    0  0.77389422536E+01  0.10143857633E+03  0.79934725494E+02  0.12938020070E+03  0.00000000000E+00 0.  1.
         11    1    4    4    0    0  0.36421735598E+02 -0.77539512058E+00  0.63030493661E+02  0.72801010932E+02  0.00000000000E+00 0. -1.
</event>
<event>
 8    1  0.6760442E-009  0.1054615E+03  0.7561462E-02  0.1269213E+00
          1   -1    0    0  501    0  0.00000000000E+00  0.00000000000E+00  0.28107845940E+03  0.28107845940E+03  0.00000000000E+00 0. -1.
         -1   -1    0    0    0  501 -0.00000000000E+00 -0.00000000000E+00 -0.45101855359E+02  0.45101855359E+02  0.00000000000E+00 0.  1.
         25    2    1    2    0    0  0.27370909986E+02  0.67648457193E+01  0.15597950692E+03  0.20191531623E+03  0.12508100774E+03 0.  0.
         23    2    1    2    0    0 -0.27370909986E+02 -0.67648457193E+01  0.79997097124E+02  0.12426499853E+03  0.90814781073E+02 0.  0.
          5    1    3    3  502    0 -0.46345703675E+01 -0.55925932448E+02  0.84389932044E+02  0.10143136691E+03  0.41800000000E+01 0. -1.
         -5    1    3    3    0  502  0.32005480354E+02  0.62690778167E+02  0.71589574874E+02  0.10048394932E+03  0.41800000000E+01 0. -1.
        -11    1    4    4    0    0 -0.53375304305E+02  0.84037079610E+01  0.76922615032E+02  0.94003372921E+02  0.00000000000E+00 0. -1.
         11    1    4    4    0    0  0.26004394319E+02 -0.15168553680E+02  0.30744820927E+01  0.30261625613E+02  0.00000000000E+00 0.  1.
</event>
<event>
 8    1  0.6760442E-009  0.9166870E+02  0.7561462E-02  0.1298860E+00
         -1   -1    0    0    0  501 -0.00000000000E+00  0.00000000000E+00  0.35479799192E+02  0.35479799192E+02  0.00000000000E+00 0.  1.
          1   -1    0    0  501    0  0.00000000000E+00 -0.00000000000E+00 -0.54725611058E+03  0.54725611058E+03  0.00000000000E+00 0. -1.
         25    2    1    2    0    0  0.32631542537E+02 -0.73320146521E+01 -0.44933691410E+03  0.46762134426E+03  0.12508990060E+03 0.  0.
         23    2    1    2    0    0 -0.32631542537E+02  0.73320146521E+01 -0.62439397286E+02  0.11511456550E+03  0.90741990559E+02 0.  0.
          5    1    3    3  502    0  0.21945715642E+02 -0.59391775834E+02 -0.13979279652E+03  0.15352034338E+03  0.41800000000E+01 0. -1.
         -5    1    3    3    0  502  0.10685826895E+02  0.52059761182E+02 -0.30954411758E+03  0.31410100088E+03  0.41800000000E+01 0. -1.
        -11    1    4    4    0    0  0.21358885834E+01 -0.21378000620E+02  0.14511878335E+02  0.25926348439E+02  0.00000000000E+00 0.  1.
         11    1    4    4    0    0 -0.34767431120E+02  0.28710015272E+02 -0.76951275621E+02  0.89188217066E+02  0.00000000000E+00 0. -1.
</event>
<event>
 8    1  0.6760442E-009  0.1356562E+03  0.7561462E-02  0.1219296E+00
          1   -1    0    0  501    0  0.00000000000E+00  0.00000000000E+00  0.18550576319E+03  0.18550576319E+03  0.00000000000E+00 0. -1.
         -1   -1    0    0    0  501 -0.00000000000E+00 -0.00000000000E+00 -0.11030444663E+03  0.11030444663E+03  0.00000000000E+00 0.  1.
         25    2    1    2    0    0  0.28362044122E+02 -0.79721732731E+02  0.81151851509E+02  0.17144589322E+03  0.12509241018E+03 0.  0.
         23    2    1    2    0    0 -0.28362044122E+02  0.79721732731E+02 -0.59505349517E+01  0.12436431660E+03  0.90945665975E+02 0.  0.
          5    1    3    3  502    0 -0.46575073261E+02 -0.47509160726E+02  0.20595493381E+02  0.69771086775E+02  0.41800000000E+01 0.  1.
         -5    1    3    3    0  502  0.74937117383E+02 -0.32212572006E+02  0.60556358128E+02  0.10167480645E+03  0.41800000000E+01 0.  1.
        -11    1    4    4    0    0  0.31512617155E+02  0.15313667161E+02  0.62271632719E+01  0.35585544879E+02  0.00000000000E+00 0. -1.
         11    1    4    4    0    0 -0.59874661277E+02  0.64408065570E+02 -0.12177698224E+02  0.88778771717E+02  0.00000000000E+00 0.  1.
</event>
<event>
 8    1  0.6760442E-009  0.1154007E+03  0.7561462E-02  0.1250883E+00
         -1   -1    0    0    0  501 -0.00000000000E+00  0.00000000000E+00  0.57342884802E+03  0.57342884802E+03  0.00000000000E+00 0.  1.
          1   -1    0    0  501    0  0.00000000000E+00 -0.00000000000E+00 -0.28712749300E+02  0.28712749300E+02  0.00000000000E+00 0. -1.
         25    2    1    2    0    0  0.47781782844E+01 -0.39779130791E+02  0.17249161941E+03  0.21680781309E+03  0.12508820415E+03 0.  0.
         23    2    1    2    0    0 -0.47781782844E+01  0.39779130791E+02  0.37222447932E+03  0.38533378424E+03  0.91246106965E+02 0.  0.
          5    1    3    3  502    0  0.35944810879E+02 -0.75400849494E+02  0.11563830904E+03  0.14271302832E+03  0.41800000000E+01 0.  1.
         -5    1    3    3    0  502 -0.31166632595E+02  0.35621718704E+02  0.56853310363E+02  0.74094784769E+02  0.41800000000E+01 0.  1.
        -11    1    4    4    0    0  0.15305526350E+02  0.65359889883E+02  0.24913844508E+03  0.25802352443E+03  0.00000000000E+00 0.  1.
         11    1    4    4    0    0 -0.20083704634E+02 -0.25580759092E+02  0.12308603423E+03  0.12731025980E+03  0.00000000000E+00 0. -1.
</event>
<event>
 8    1  0.6760442E-009  0.2303241E+03  0.7561462E-02  0.1126412E+00
          2   -1    0    0  501    0  0.00000000000E+00  0.00000000000E+00  0.17164019997E+04  0.17164019997E+04  0.00000000000E+00 0. -1.
         -2   -1    0    0    0  501 -0.00000000000E+00 -0.00000000000E+00 -0.59193012218E+02  0.59193012218E+02  0.00000000000E+00 0.  1.
         25    2    1    2    0    0  0.41662785116E+02 -0.21468209205E+03  0.27377819389E+03  0.37205632129E+03  0.12508884224E+03 0.  0.
         23    2    1    2    0    0 -0.41662785116E+02  0.21468209205E+03  0.13834307936E+04  0.14035386906E+04  0.90641641137E+02 0.  0.
          5    1    3    3  502    0  0.13111825800E+02 -0.17131349347E+03  0.11978197748E+03  0.20948849025E+03  0.41800000000E+01 0.  1.
         -5    1    3    3    0  502  0.28550959316E+02 -0.43368598585E+02  0.15399621641E+03  0.16256783104E+03  0.41800000000E+01 0.  1.
        -11    1    4    4    0    0 -0.69467790892E+02  0.17457940367E+03  0.11079835408E+04  0.11238021485E+04  0.00000000000E+00 0. -1.
         11    1    4    4    0    0  0.27805005775E+02  0.40102688379E+02  0.27544725275E+03  0.27973654214E+03  0.00000000000E+00 0.  1.
</event>
<event>
 8    1  0.6760442E-009  0.2353020E+03  0.7561462E-02  0.1122963E+00
          1   -1    0    0  501    0  0.00000000000E+00  0.00000000000E+00  0.43356714123E+02  0.43356714123E+02  0.00000000000E+00 0. -1.
         -1   -1    0    0    0  501 -0.00000000000E+00 -0.00000000000E+00 -0.13692340647E+04  0.13692340647E+04  0.00000000000E+00 0.  1.
         25    2    1    2    0    0  0.14519092521E+03 -0.15096844934E+03 -0.51015842511E+03  0.56549168888E+03  0.12508938412E+03 0.  0.
         23    2    1    2    0    0 -0.14519092521E+03  0.15096844934E+03 -0.81571892548E+03  0.84709908996E+03  0.91146175777E+02 0.  0.
          5    1    3    3  502    0 -0.19889955896E+02 -0.29754773950E+01 -0.64884523158E+02  0.68058339362E+02  0.41800000000E+01 0.  1.
         -5    1    3    3    0  502  0.16508088111E+03 -0.14799297194E+03 -0.44527390195E+03  0.49743334951E+03  0.41800000000E+01 0.  1.
        -11    1    4    4    0    0 -0.31816109066E+02 -0.82403868608E+01 -0.10843475712E+03  0.11330606923E+03  0.00000000000E+00 0.  1.
         11    1    4    4    0    0 -0.11337481615E+03  0.15920883620E+03 -0.70728416836E+03  0.73379302073E+03  0.00000000000E+00 0. -1.
</event>
<event>
 8    1  0.6760442E-009  0.1049006E+03  0.7561462E-02  0.1270316E+00
          1   -1    0    0  501    0  0.00000000000E+00  0.00000000000E+00  0.23754565415E+03  0.23754565415E+03  0.00000000000E+00 0. -1.
         -1   -1    0    0    0  501 -0.00000000000E+00 -0.00000000000E+00 -0.61881765357E+02  0.61881765357E+02  0.00000000000E+00 0.  1.
         25    2    1    2    0    0 -0.41522165248E+02  0.23150190585E+02  0.98740561697E+02  0.16630074988E+03  0.12508484863E+03 0.  0.
         23    2    1    2    0    0  0.41522165248E+02 -0.23150190585E+02  0.76923327099E+02  0.13312666963E+03  0.97701025494E+02 0.  0.
          5    1    3    3  502    0  0.33037788125E+02  0.11447151342E+02  0.81484136137E+02  0.88767502838E+02  0.41800000000E+01 0. -1.
         -5    1    3    3    0  502 -0.74559953372E+02  0.11703039243E+02  0.17256425560E+02  0.77533247046E+02  0.41800000000E+01 0. -1.
        -11    1    4    4    0    0 -0.27257693810E+02 -0.95876666156E+01 -0.20985658213E+00  0.28895488623E+02  0.00000000000E+00 0.  1.
         11    1    4    4    0    0  0.68779859058E+02 -0.13562523969E+02  0.77133183681E+02  0.10423118100E+03  0.00000000000E+00 0. -1.
</event>
<event>
 8    1  0.6760442E-009  0.1119424E+03  0.7561462E-02  0.1257015E+00
          3   -1    0    0  501    0  0.00000000000E+00  0.00000000000E+00  0.31383300344E+03  0.31383300344E+03  0.00000000000E+00 0. -1.
         -3   -1    0    0    0  501 -0.00000000000E+00 -0.00000000000E+00 -0.43082037321E+02  0.43082037321E+02  0.00000000000E+00 0.  1.
         25    2    1    2    0    0 -0.17702330012E+02 -0.38025933602E+02  0.14355917836E+03  0.19497822140E+03  0.12509166645E+03 0.  0.
         23    2    1    2    0    0  0.17702330012E+02  0.38025933602E+02  0.12719178775E+03  0.16193681935E+03  0.91029876836E+02 0.  0.
          5    1    3    3  502    0 -0.81500968532E+01 -0.80579172579E+02  0.60873798098E+02  0.10140275552E+03  0.41800000000E+01 0.  1.
         -5    1    3    3    0  502 -0.95522331590E+01  0.42553238977E+02  0.82685380265E+02  0.93575465884E+02  0.41800000000E+01 0.  1.
        -11    1    4    4    0    0  0.41163301650E+02 -0.12706730034E+02  0.42903277228E+02  0.60799420949E+02  0.00000000000E+00 0.  1.
         11    1    4    4    0    0 -0.23460971638E+02  0.50732663635E+02  0.84288510523E+02  0.10113739840E+03  0.00000000000E+00 0. -1.
</event>
<event>
 8    1  0.6760442E-009  0.1156706E+03  0.7561462E-02  0.1250415E+00
          2   -1    0    0  501    0  0.00000000000E+00  0.00000000000E+00  0.53409178785E+03  0.53409178785E+03  0.00000000000E+00 0.  1.
         -2   -1    0    0    0  501 -0.00000000000E+00 -0.00000000000E+00 -0.38194521218E+02  0.38194521218E+02  0.00000000000E+00 0. -1.
         25    2    1    2    0    0 -0.17196615079E+00  0.50915483883E+02  0.42739677941E+03  0.44822795474E+03  0.12509147169E+03 0.  0.
         23    2    1    2    0    0  0.17196615079E+00 -0.50915483883E+02  0.68500487224E+02  0.12405835433E+03  0.90031896891E+02 0.  0.
          5    1    3    3  502    0 -0.58151441289E+01  0.89494677986E+02  0.35168372193E+03  0.36296284377E+03  0.41800000000E+01 0.  1.
         -5    1    3    3    0  502  0.56431779781E+01 -0.38579194103E+02  0.75713057483E+02  0.85265110970E+02  0.41800000000E+01 0.  1.
        -11    1    4    4    0    0 -0.34385836475E+02  0.68238167093E+01  0.15174962744E+02  0.38199865430E+02  0.00000000000E+00 0. -1.
         11    1    4    4    0    0  0.34557802626E+02 -0.57739300592E+02  0.53325524480E+02  0.85858488900E+02  0.00000000000E+00 0.  1.
</event>
<event>
 8    1  0.6760442E-009  0.1373757E+03  0.7561462E-02  0.1216904E+00
          2   -1    0    0  501    0  0.00000000000E+00  0.00000000000E+00  0.11759010602E+03  0.11759010602E+03  0.00000000000E+00 0. -1.
         -2   -1    0    0    0  501 -0.00000000000E+00 -0.00000000000E+00 -0.18628246685E+03  0.18628246685E+03  0.00000000000E+00 0.  1.
         25    2    1    2    0    0  0.91030394333E+02  0.29271551518E+02 -0.70911063827E+02  0.17268418748E+03  0.12509233873E+03 0.  0.
         23    2    1    2    0    0 -0.91030394333E+02 -0.29271551518E+02  0.22187030017E+01  0.13118838539E+03  0.89789272176E+02 0.  0.
          5    1    3    3  502    0  0.50555718337E+02  0.77162358654E+02 -0.27664246794E+02  0.96398616175E+02  0.41800000000E+01 0. -1.
         -5    1    3    3    0  502  0.40474675996E+02 -0.47890807136E+02 -0.43246817033E+02  0.76285571300E+02  0.41800000000E+01 0. -1.
        -11    1    4    4    0    0  0.57106753323E+00  0.16951940561E+02  0.20880784598E+02  0.26901702034E+02  0.00000000000E+00 0. -1.
         11    1    4    4    0    0 -0.91601461866E+02 -0.46223492079E+02 -0.18662081596E+02  0.10428668336E+03  0.00000000000E+00 0.  1.
</event>
<event>
 8    1  0.6760442E-009  0.1311268E+03  0.7561462E-02  0.1225793E+00
         -2   -1    0    0    0  501 -0.00000000000E+00  0.00000000000E+00  0.66249954004E+03  0.66249954004E+03  0.00000000000E+00 0. -1.
          2   -1    0    0  501    0  0.00000000000E+00 -0.00000000000E+00 -0.35988426256E+02  0.35988426256E+02  0.00000000000E+00 0.  1.
         25    2    1    2    0    0  0.74770876405E+02 -0.11860299648E+02  0.17073034129E+03  0.22478358865E+03  0.12508981424E+03 0.  0.
         23    2    1    2    0    0 -0.74770876405E+02  0.11860299648E+02  0.45578077250E+03  0.47370437764E+03  0.10453886433E+03 0.  0.
          5    1    3    3  502    0  0.93219198961E+02 -0.42104143366E+02  0.89164831836E+02  0.13575867405E+03  0.41800000000E+01 0.  1.
         -5    1    3    3    0  502 -0.18448322556E+02  0.30243843718E+02  0.81565509452E+02  0.89024914604E+02  0.41800000000E+01 0.  1.
        -11    1    4    4    0    0  0.17139582692E+02  0.26077537288E+02  0.17943284947E+03  0.18212619447E+03  0.00000000000E+00 0.  1.
         11    1    4    4    0    0 -0.91910459097E+02 -0.14217237640E+02  0.27634792303E+03  0.29157818317E+03  0.00000000000E+00 0. -1.
</event>
<event>
 8    1  0.6760442E-009  0.1279588E+03  0.7561462E-02  0.1230516E+00
          1   -1    0    0  501    0  0.00000000000E+00  0.00000000000E+00  0.46522972561E+03  0.46522972561E+03  0.00000000000E+00 0. -1.
         -1   -1    0    0    0  501 -0.00000000000E+00 -0.00000000000E+00 -0.40934390565E+02  0.40934390565E+02  0.00000000000E+00 0.  1.
         25    2    1    2    0    0  0.70191966937E+01 -0.79385666833E+02  0.17543215937E+03  0.22972783981E+03  0.12508830729E+03 0.  0.
         23    2    1    2    0    0 -0.70191966937E+01  0.79385666833E+02  0.24886317567E+03  0.27643627637E+03  0.90181935350E+02 0.  0.
          5    1    3    3  502    0 -0.57075507350E+01  0.33645133092E+02  0.44607360088E+02  0.56319269262E+02  0.41800000000E+01 0. -1.
         -5    1    3    3    0  502  0.12726747429E+02 -0.11303079993E+03  0.13082479928E+03  0.17340857054E+03  0.41800000000E+01 0. -1.
        -11    1    4    4    0    0  0.17372055777E+02  0.81407187843E+02  0.12500966846E+03  0.15018766848E+03  0.00000000000E+00 0.  1.
         11    1    4    4    0    0 -0.24391252471E+02 -0.20215210094E+01  0.12385350721E+03  0.12624860789E+03  0.00000000000E+00 0. -1.
</event>
<event>
 8    1  0.6760442E-009  0.1413908E+03  0.7561462E-02  0.1211470E+00
          2   -1    0    0  501    0  0.00000000000E+00  0.00000000000E+00  0.25873158718E+03  0.25873158718E+03  0.00000000000E+00 0. -1.
         -2   -1    0    0    0  501 -0.00000000000E+00 -0.00000000000E+00 -0.10077824090E+03  0.10077824090E+03  0.00000000000E+00 0.  1.
         25    2    1    2    0    0  0.34675787324E+02 -0.99711739055E+02  0.14608796466E+03  0.21939377516E+03  0.12508834490E+03 0.  0.
         23    2    1    2    0    0 -0.34675787324E+02  0.99711739055E+02  0.11865381631E+02  0.14011605292E+03  0.91361260242E+02 0.  0.
          5    1    3    3  502    0  0.15905032253E+02 -0.12812870700E+03  0.11102019873E+03  0.17033171324E+03  0.41800000000E+01 0.  1.
         -5    1    3    3    0  502  0.18770755072E+02  0.28416967943E+02  0.35067765923E+02  0.49062061920E+02  0.41800000000E+01 0.  1.
        -11    1    4    4    0    0  0.76155443967E+00  0.77420403165E+02 -0.27975469927E+02  0.82323299915E+02  0.00000000000E+00 0. -1.
         11    1    4    4    0    0 -0.35437341764E+02  0.22291335890E+02  0.39840851558E+02  0.57792753006E+02  0.00000000000E+00 0.  1.
</event>
<event>
 8    1  0.6760442E-009  0.8210798E+02  0.7561462E-02  0.1323174E+00
         -1   -1    0    0    0  501 -0.00000000000E+00  0.00000000000E+00  0.17679429930E+03  0.17679429930E+03  0.00000000000E+00 0.  1.
          1   -1    0    0  501    0  0.00000000000E+00 -0.00000000000E+00 -0.83592887449E+02  0.83592887449E+02  0.00000000000E+00 0. -1.
         25    2    1    2    0    0  0.46491215543E+02  0.34537030303E+02  0.65641071311E+02  0.15267514363E+03  0.12508680848E+03 0.  0.
         23    2    1    2    0    0 -0.46491215543E+02 -0.34537030303E+02  0.27560340541E+02  0.10771204312E+03  0.86533648237E+02 0.  0.
          5    1    3    3  502    0  0.39556555133E+02  0.33350771163E+02 -0.27794933296E+02  0.58881454704E+02  0.41800000000E+01 0. -1.
         -5    1    3    3    0  502  0.69346604102E+01  0.11862591396E+01  0.93436004607E+02  0.93793688928E+02  0.41800000000E+01 0. -1.
        -11    1    4    4    0    0 -0.26526361481E+02  0.27944946908E+02  0.10534988198E+02  0.39944384930E+02  0.00000000000E+00 0.  1.
         11    1    4    4    0    0 -0.19964854062E+02 -0.62481977211E+02  0.17025352343E+02  0.67767658188E+02  0.00000000000E+00 0. -1.
</event>
<event>
 8    1  0.6760442E-009  0.1063716E+03  0.7561462E-02  0.1267441E+00
         -1   -1    0    0    0  501 -0.00000000000E+00  0.00000000000E+00  0.71954772390E+03  0.71954772390E+03  0.00000000000E+00 0.  1.
          1   -1    0    0  501    0  0.00000000000E+00 -0.00000000000E+00 -0.17742562612E+02  0.17742562612E+02  0.00000000000E+00 0. -1.
         25    2    1    2    0    0 -0.15178740856E+02 -0.69324784114E+01  0.49169985454E+03  0.50763430061E+03  0.12508150451E+03 0.  0.
         23    2    1    2    0    0  0.15178740856E+02  0.69324784114E+01  0.21010530675E+03  0.22965598590E+03  0.91209530781E+02 0.  0.
          5    1    3    3  502    0  0.50155271082E+02 -0.23880848764E+02  0.27661402561E+03  0.28216774748E+03  0.41800000000E+01 0.  1.
         -5    1    3    3    0  502 -0.65334011938E+02  0.16948370352E+02  0.21508582893E+03  0.22546655313E+03  0.41800000000E+01 0.  1.
        -11    1    4    4    0    0  0.49804231737E+02  0.18156641239E+02  0.15313083366E+03  0.16204683686E+03  0.00000000000E+00 0. -1.
         11    1    4    4    0    0 -0.34625490881E+02 -0.11224162828E+02  0.56974473094E+02  0.67609149043E+02  0.00000000000E+00 0.  1.
</event>
<event>
 8    1  0.6760442E-009  0.8718100E+02  0.7561462E-02  0.1309826E+00
         -2   -1    0    0    0  501 -0.00000000000E+00  0.00000000000E+00  0.71450285512E+02  0.71450285512E+02  0.00000000000E+00 0.  1.
          2   -1    0    0  501    0  0.00000000000E+00 -0.00000000000E+00 -0.18169468983E+03  0.18169468983E+03  0.00000000000E+00 0. -1.
         25    2    1    2    0    0 -0.41862727078E+01  0.19313722239E+02 -0.93249951620E+02  0.15727049437E+03  0.12509160714E+03 0.  0.
         23    2    1    2    0    0  0.41862727078E+01 -0.19313722239E+02 -0.16994452699E+02  0.95874480974E+02  0.92263535233E+02 0.  0.
          5    1    3    3  502    0 -0.33786021410E+02  0.36608994539E+02 -0.10854123502E+03  0.11950056830E+03  0.41800000000E+01 0. -1.
         -5    1    3    3    0  502  0.29599748702E+02 -0.17295272299E+02  0.15291283402E+02  0.37769926068E+02  0.41800000000E+01 0. -1.
        -11    1    4    4    0    0 -0.38984447101E+02  0.65172588475E+01 -0.22139306346E+02  0.45303539201E+02  0.00000000000E+00 0. -1.
         11    1    4    4    0    0  0.43170719809E+02 -0.25830981087E+02  0.51448536471E+01  0.50570941773E+02  0.00000000000E+00 0.  1.
</event>
<event>
 8    1  0.6760442E-009  0.1103392E+03  0.7561462E-02  0.1259943E+00
         -2   -1    0    0    0  501 -0.00000000000E+00  0.00000000000E+00  0.84232320840E+02  0.84232320840E+02  0.00000000000E+00 0.  1.
          2   -1    0    0  501    0  0.00000000000E+00 -0.00000000000E+00 -0.23384495040E+03  0.23384495040E+03  0.00000000000E+00 0. -1.
         25    2    1    2    0    0  0.79046135525E+02 -0.20210517301E+02 -0.12562988038E+03  0.19515971749E+03  0.12509073481E+03 0.  0.
         23    2    1    2    0    0 -0.79046135525E+02  0.20210517301E+02 -0.23982749181E+02  0.12291755375E+03  0.88751316671E+02 0.  0.
          5    1    3    3  502    0  0.73265276766E+02  0.30702724105E+02 -0.11926033038E+03  0.14335604923E+03  0.41800000000E+01 0.  1.
         -5    1    3    3    0  502  0.57808587597E+01 -0.50913241407E+02 -0.63695499999E+01  0.51803668265E+02  0.41800000000E+01 0.  1.
        -11    1    4    4    0    0 -0.61817368132E+02 -0.17071503156E+01  0.24882375576E+02  0.66659087747E+02  0.00000000000E+00 0.  1.
         11    1    4    4    0    0 -0.17228767394E+02  0.21917667617E+02 -0.48865124757E+02  0.56258466005E+02  0.00000000000E+00 0. -1.
</event>
<event>
 8    1  0.6760442E-009  0.1230985E+03  0.7561462E-02  0.1238071E+00
         -1   -1    0    0    0  501 -0.00000000000E+00  0.00000000000E+00  0.37216388648E+02  0.37216388648E+02  0.00000000000E+00 0.  1.
          1   -1    0    0  501    0  0.00000000000E+00 -0.00000000000E+00 -0.47184353698E+03  0.47184353698E+03  0.00000000000E+00 0. -1.
         25    2    1    2    0    0 -0.69066039946E+02  0.50946863135E+02 -0.27569294457E+03  0.31465662364E+03  0.12504595307E+03 0.  0.
         23    2    1    2    0    0  0.69066039946E+02 -0.50946863135E+02 -0.15893420376E+03  0.19440330198E+03  0.71880887304E+02 0.  0.
          5    1    3    3  502    0 -0.98255858533E+02  0.58537519014E+02 -0.24948024891E+03  0.27447900077E+03  0.41800000000E+01 0. -1.
         -5    1    3    3    0  502  0.29189818588E+02 -0.75906558792E+01 -0.26212695660E+02  0.40177622872E+02  0.41800000000E+01 0. -1.
        -11    1    4    4    0    0  0.13807370168E+02 -0.43381668515E+02 -0.31682137504E+02  0.55465038276E+02  0.00000000000E+00 0. -1.
         11    1    4    4    0    0  0.55258669777E+02 -0.75651946201E+01 -0.12725206626E+03  0.13893826371E+03  0.00000000000E+00 0.  1.
</event>
<event>
 8    1  0.6760442E-009  0.8857391E+02  0.7561462E-02  0.1306342E+00
          3   -1    0    0  501    0  0.00000000000E+00  0.00000000000E+00  0.21567951201E+02  0.21567951201E+02  0.00000000000E+00 0. -1.
         -3   -1    0    0    0  501 -0.00000000000E+00 -0.00000000000E+00 -0.61884045644E+03  0.61884045644E+03  0.00000000000E+00 0.  1.
         25    2    1    2    0    0  0.22478577351E+02 -0.28928456638E+02 -0.29051373153E+03  0.31841269289E+03  0.12508506204E+03 0.  0.
         23    2    1    2    0    0 -0.22478577351E+02  0.28928456638E+02 -0.30675877371E+03  0.32199571474E+03  0.90764271734E+02 0.  0.
          5    1    3    3  502    0  0.45469674145E+02 -0.45572000570E+02 -0.28081278205E+03  0.28812773116E+03  0.41800000000E+01 0. -1.
         -5    1    3    3    0  502 -0.22991096794E+02  0.16643543932E+02 -0.97009494811E+01  0.30284961734E+02  0.41800000000E+01 0. -1.
        -11    1    4    4    0    0  0.97907116370E+01  0.46282743735E+02 -0.25001070740E+03  0.25444705582E+03  0.00000000000E+00 0.  1.
         11    1    4    4    0    0 -0.32269288988E+02 -0.17354287097E+02 -0.56748066310E+02  0.67548658924E+02  0.00000000000E+00 0. -1.
</event>
<event>
 8    1  0.6760442E-009  0.8013699E+02  0.7561462E-02  0.1328663E+00
         -2   -1    0    0    0  501 -0.00000000000E+00  0.00000000000E+00  0.24835287547E+03  0.24835287547E+03  0.00000000000E+00 0.  1.
          2   -1    0    0  501    0  0.00000000000E+00 -0.00000000000E+00 -0.52545565104E+02  0.52545565104E+02  0.00000000000E+00 0. -1.
         25    2    1    2    0    0 -0.18362433323E+02  0.35360269593E+02  0.11116936773E+03  0.17202848034E+03  0.12509053564E+03 0.  0.
         23    2    1    2    0    0  0.18362433323E+02 -0.35360269593E+02  0.84637942640E+02  0.12886996023E+03  0.88636097004E+02 0.  0.
          5    1    3    3  502    0 -0.33614760754E+02  0.39885928658E+02 -0.69329066054E+01  0.52786144389E+02  0.41800000000E+01 0.  1.
         -5    1    3    3    0  502  0.15252327431E+02 -0.45256590643E+01  0.11810227433E+03  0.11924233596E+03  0.41800000000E+01 0.  1.
        -11    1    4    4    0    0  0.42170987171E+02  0.71493420416E+01  0.18206407862E+02  0.46486326354E+02  0.00000000000E+00 0. -1.
         11    1    4    4    0    0 -0.23808553848E+02 -0.42509611635E+02  0.66431534778E+02  0.82383633876E+02  0.00000000000E+00 0.  1.
</event>
<event>
 8    1  0.6760442E-009  0.1571742E+03  0.7561462E-02  0.1191925E+00
         -2   -1    0    0    0  501 -0.00000000000E+00  0.00000000000E+00  0.11130740444E+03  0.11130740444E+03  0.00000000000E+00 0.  1.
          2   -1    0    0  501    0  0.00000000000E+00 -0.00000000000E+00 -0.24360238083E+03  0.24360238083E+03  0.00000000000E+00 0. -1.
         25    2    1    2    0    0  0.80061411713E+02  0.93693491595E+02 -0.68728470123E+02  0.18856826103E+03  0.12508431736E+03 0.  0.
         23    2    1    2    0    0 -0.80061411713E+02 -0.93693491595E+02 -0.63566506274E+02  0.16634152424E+03  0.91872204474E+02 0.  0.
          5    1    3    3  502    0 -0.17383614280E+02  0.73529357318E+02 -0.23982709021E+02  0.79381352753E+02  0.41800000000E+01 0.  1.
         -5    1    3    3    0  502  0.97445025993E+02  0.20164134277E+02 -0.44745761103E+02  0.10918690827E+03  0.41800000000E+01 0.  1.
        -11    1    4    4    0    0 -0.55979331681E+02 -0.99627029654E+02 -0.77324086247E+02  0.13797914671E+03  0.00000000000E+00 0. -1.
         11    1    4    4    0    0 -0.24082080032E+02  0.59335380593E+01  0.13757579973E+02  0.28362377532E+02  0.00000000000E+00 0.  1.
</event>
<event>
 8    1  0.6760442E-009  0.1069789E+03  0.7561462E-02  0.1266269E+00
         -2   -1    0    0    0  501 -0.00000000000E+00  0.00000000000E+00  0.14509416881E+03  0.14509416881E+03  0.00000000000E+00 0.  1.
          2   -1    0    0  501    0  0.00000000000E+00 -0.00000000000E+00 -0.12190957695E+03  0.12190957695E+03  0.00000000000E+00 0. -1.
         25    2    1    2    0    0 -0.75333378713E+02 -0.31843976564E+01 -0.50266277991E+01  0.14614649035E+03  0.12509305064E+03 0.  0.
         23    2    1    2    0    0  0.75333378713E+02  0.31843976564E+01  0.28211219659E+02  0.12085725541E+03  0.90140695218E+02 0.  0.
          5    1    3    3  502    0  0.12805587693E+01 -0.22647827479E+02 -0.50029117389E+02  0.55090370365E+02  0.41800000000E+01 0.  1.
         -5    1    3    3    0  502 -0.76613937482E+02  0.19463429822E+02  0.45002489590E+02  0.91056119982E+02  0.41800000000E+01 0.  1.
        -11    1    4    4    0    0  0.51200335923E+02  0.41868369523E+02  0.34887155972E+02  0.74776656898E+02  0.00000000000E+00 0.  1.
         11    1    4    4    0    0  0.24133042790E+02 -0.38683971866E+02 -0.66759363134E+01  0.46080598513E+02  0.00000000000E+00 0. -1.
</event>
<event>
 8    1  0.6760442E-009  0.1184754E+03  0.7561462E-02  0.1245634E+00
         -4   -1    0    0    0  501 -0.00000000000E+00  0.00000000000E+00  0.14872158467E+03  0.14872158467E+03  0.00000000000E+00 0.  1.
          4   -1    0    0  501    0  0.00000000000E+00 -0.00000000000E+00 -0.97320365624E+02  0.97320365624E+02  0.00000000000E+00 0. -1.
         25    2    1    2    0    0 -0.13568455570E+02  0.49324710169E+02  0.17639002724E+02  0.13629766857E+03  0.12509552358E+03 0.  0.
         23    2    1    2    0    0  0.13568455570E+02 -0.49324710169E+02  0.33762216321E+02  0.10974428172E+03  0.91032357435E+02 0.  0.
          5    1    3    3  502    0 -0.30992481217E+02 -0.35799707904E+02 -0.98993290222E-02  0.47535518047E+02  0.41800000000E+01 0. -1.
         -5    1    3    3    0  502  0.17424025647E+02  0.85124418073E+02  0.17648902053E+02  0.88762150524E+02  0.41800000000E+01 0. -1.
        -11    1    4    4    0    0  0.53281503185E+01  0.26056262906E+02  0.18490781447E+02  0.32391773971E+02  0.00000000000E+00 0.  1.
         11    1    4    4    0    0  0.82403052513E+01 -0.75380973075E+02  0.15271434874E+02  0.77352507752E+02  0.00000000000E+00 0. -1.
</event>
<event>
 8    1  0.6760442E-009  0.9276106E+02  0.7561462E-02  0.1296300E+00
         -2   -1    0    0    0  501 -0.00000000000E+00  0.00000000000E+00  0.14699310857E+03  0.14699310857E+03  0.00000000000E+00 0.  1.
          2   -1    0    0  501    0  0.00000000000E+00 -0.00000000000E+00 -0.10929987038E+03  0.10929987038E+03  0.00000000000E+00 0. -1.
         25    2    1    2    0    0  0.77843309540E+01 -0.34041300266E+02 -0.35379748459E+02  0.13460312578E+03  0.12508744515E+03 0.  0.
         23    2    1    2    0    0 -0.77843309540E+01  0.34041300266E+02  0.73072986649E+02  0.12168985318E+03  0.90825949252E+02 0.  0.
          5    1    3    3  502    0 -0.55566926656E+02 -0.35966802997E+02 -0.19489412922E+02  0.69127446589E+02  0.41800000000E+01 0. -1.
         -5    1    3    3    0  502  0.63351257610E+02  0.19255027305E+01 -0.15890335537E+02  0.65475679187E+02  0.41800000000E+01 0. -1.
        -11    1    4    4    0    0  0.11206711889E+01  0.43020190105E+02  0.90469055865E+02  0.10018304612E+03  0.00000000000E+00 0.  1.
         11    1    4    4    0    0 -0.89050021429E+01 -0.89788898383E+01 -0.17396069216E+02  0.21506807063E+02  0.00000000000E+00 0. -1.
</event>
<event>
 8    1  0.6760442E-009  0.9974579E+02  0.7561462E-02  0.1280831E+00
         -4   -1    0    0    0  501 -0.00000000000E+00  0.00000000000E+00  0.13572341683E+04  0.13572341683E+04  0.00000000000E+00 0.  1.
          4   -1    0    0  501    0  0.00000000000E+00 -0.00000000000E+00 -0.10926012260E+02  0.10926012260E+02  0.00000000000E+00 0. -1.
         25    2    1    2    0    0 -0.35861025838E+02 -0.22533200351E+02  0.94879889463E+03  0.95794567759E+03  0.12508725144E+03 0.  0.
         23    2    1    2    0    0  0.35861025838E+02  0.22533200351E+02  0.39750926137E+03  0.41021450293E+03  0.92024818636E+02 0.  0.
          5    1    3    3  502    0 -0.52102739748E+02  0.26465794417E+02  0.23218848509E+03  0.23946627898E+03  0.41800000000E+01 0. -1.
         -5    1    3    3    0  502  0.16241713910E+02 -0.48998994769E+02  0.71661040954E+03  0.71847939861E+03  0.41800000000E+01 0. -1.
        -11    1    4    4    0    0 -0.21100518492E+02 -0.10178618108E+02  0.37167328845E+02  0.43934570451E+02  0.00000000000E+00 0. -1.
         11    1    4    4    0    0  0.56961544330E+02  0.32711818460E+02  0.36034193253E+03  0.36627993248E+03  0.00000000000E+00 0.  1.
</event>
<event>
 8    1  0.6760442E-009  0.5923547E+02  0.7561462E-02  0.1401068E+00
          2   -1    0    0  501    0  0.00000000000E+00  0.00000000000E+00  0.18191047692E+03  0.18191047692E+03  0.00000000000E+00 0. -1.
         -2   -1    0    0    0  501 -0.00000000000E+00 -0.00000000000E+00 -0.73263472718E+02  0.73263472718E+02  0.00000000000E+00 0.  1.
         25    2    1    2    0    0  0.18933934445E+02  0.13903773950E+02  0.94288791926E+02  0.15840014416E+03  0.12509364726E+03 0.  0.
         23    2    1    2    0    0 -0.18933934445E+02 -0.13903773950E+02  0.14358212281E+02  0.96773805483E+02  0.92775009373E+02 0.  0.
          5    1    3    3  502    0  0.24957175282E+02  0.91421486335E+01  0.12428088355E+03  0.12715993825E+03  0.41800000000E+01 0.  1.
         -5    1    3    3    0  502 -0.60232408379E+01  0.47616253169E+01 -0.29992091620E+02  0.31240205915E+02  0.41800000000E+01 0.  1.
        -11    1    4    4    0    0  0.32922255050E+01 -0.44712743002E+02 -0.16558481432E+02  0.47793843148E+02  0.00000000000E+00 0.  1.
         11    1    4    4    0    0 -0.22226159950E+02  0.30808969052E+02  0.30916693713E+02  0.48979962334E+02  0.00000000000E+00 0. -1.
</event>
<event>
 8    1  0.6760442E-009  0.1057424E+03  0.7561462E-02  0.1268664E+00
         -1   -1    0    0    0  501 -0.00000000000E+00  0.00000000000E+00  0.21371364633E+02  0.21371364633E+02  0.00000000000E+00 0.  1.
          1   -1    0    0  501    0  0.00000000000E+00 -0.00000000000E+00 -0.10674819360E+04  0.10674819360E+04  0.00000000000E+00 0. -1.
         25    2    1    2    0    0  0.43639595262E+02 -0.61736674966E+02 -0.82319339104E+03  0.83606858238E+03  0.12508990396E+03 0.  0.
         23    2    1    2    0    0 -0.43639595262E+02  0.61736674966E+02 -0.22291718036E+03  0.25278471829E+03  0.92153204995E+02 0.  0.
          5    1    3    3  502    0  0.37329300123E+02 -0.78013989659E+02 -0.80778242373E+03  0.81240973389E+03  0.41800000000E+01 0.  1.
         -5    1    3    3    0  502  0.63102951395E+01  0.16277314693E+02 -0.15410967315E+02  0.23658848492E+02  0.41800000000E+01 0.  1.
        -11    1    4    4    0    0  0.18085979549E+02 -0.20298610278E+01 -0.97255188364E+02  0.98943391168E+02  0.00000000000E+00 0. -1.
         11    1    4    4    0    0 -0.61725574812E+02  0.63766535994E+02 -0.12566199200E+03  0.15384132713E+03  0.00000000000E+00 0.  1.
</event>
<event>
 8    1  0.6760442E-009  0.3756944E+03  0.7561462E-02  0.1052537E+00
         -2   -1    0    0    0  501 -0.00000000000E+00  0.00000000000E+00  0.82441679123E+03  0.82441679123E+03  0.00000000000E+00 0.  1.
          2   -1    0    0  501    0  0.00000000000E+00 -0.00000000000E+00 -0.18097587249E+03  0.18097587249E+03  0.00000000000E+00 0. -1.
         25    2    1    2    0    0 -0.29576860734E+03  0.22155852310E+03  0.29453428625E+03  0.48884335113E+03  0.12510047131E+03 0.  0.
         23    2    1    2    0    0  0.29576860734E+03 -0.22155852310E+03  0.34890663248E+03  0.51654931259E+03  0.92304419697E+02 0.  0.
          5    1    3    3  502    0 -0.50942960056E+02 -0.45062449495E+00  0.86630006511E+01  0.51845040477E+02  0.41800000000E+01 0.  1.
         -5    1    3    3    0  502 -0.24482564728E+03  0.22200914760E+03  0.28587128560E+03  0.43699831066E+03  0.41800000000E+01 0.  1.
        -11    1    4    4    0    0  0.19322721084E+03 -0.13745889569E+03  0.16125809187E+03  0.28676798149E+03  0.00000000000E+00 0. -1.
         11    1    4    4    0    0  0.10254139650E+03 -0.84099627417E+02  0.18764854061E+03  0.22978133110E+03  0.00000000000E+00 0.  1.
</event>
<event>
 8    1  0.6760442E-009  0.1047051E+03  0.7561462E-02  0.1270702E+00
         -2   -1    0    0    0  501 -0.00000000000E+00  0.00000000000E+00  0.73630620827E+02  0.73630620827E+02  0.00000000000E+00 0.  1.
          2   -1    0    0  501    0  0.00000000000E+00 -0.00000000000E+00 -0.24457886027E+03  0.24457886027E+03  0.00000000000E+00 0. -1.
         25    2    1    2    0    0 -0.73908875318E+02  0.20654728195E+02 -0.97152503202E+02  0.17599875799E+03  0.12509122387E+03 0.  0.
         23    2    1    2    0    0  0.73908875318E+02 -0.20654728195E+02 -0.73795736242E+02  0.14221072311E+03  0.94281172202E+02 0.  0.
          5    1    3    3  502    0 -0.17528479589E+02  0.25404114976E+02  0.25892954633E+02  0.40503507922E+02  0.41800000000E+01 0. -1.
         -5    1    3    3    0  502 -0.56380395729E+02 -0.47493867808E+01 -0.12304545784E+03  0.13549525007E+03  0.41800000000E+01 0. -1.
        -11    1    4    4    0    0  0.53893154095E+02  0.33730219621E+02 -0.36887898675E+02  0.73504536204E+02  0.00000000000E+00 0. -1.
         11    1    4    4    0    0  0.20015721223E+02 -0.54384947815E+02 -0.36907837567E+02  0.68706186904E+02  0.00000000000E+00 0.  1.
</event>
<event>
 8    1  0.6760442E-009  0.1237865E+03  0.7561462E-02  0.1236978E+00
          2   -1    0    0  501    0  0.00000000000E+00  0.00000000000E+00  0.75458255657E+03  0.75458255657E+03  0.00000000000E+00 0. -1.
         -2   -1    0    0    0  501 -0.00000000000E+00 -0.00000000000E+00 -0.26931059560E+02  0.26931059560E+02  0.00000000000E+00 0.  1.
         25    2    1    2    0    0 -0.86264635943E+02  0.41803504257E+01  0.30911592267E+03  0.34446850125E+03  0.12508729736E+03 0.  0.
         23    2    1    2    0    0  0.86264635943E+02 -0.41803504257E+01  0.41853557434E+03  0.43704511487E+03  0.91527824770E+02 0.  0.
          5    1    3    3  502    0 -0.37108689456E+02  0.61033380887E+02  0.10632922624E+03  0.12816202702E+03  0.41800000000E+01 0. -1.
         -5    1    3    3    0  502 -0.49155946486E+02 -0.56853030461E+02  0.20278669643E+03  0.21630647424E+03  0.41800000000E+01 0. -1.
        -11    1    4    4    0    0  0.58949869213E+02 -0.27298554423E+02  0.37548736263E+03  0.38106568679E+03  0.00000000000E+00 0. -1.
         11    1    4    4    0    0  0.27314766730E+02  0.23118203997E+02  0.43048211704E+02  0.55979428083E+02  0.00000000000E+00 0.  1.
</event>
<event>
 8    1  0.6760442E-009  0.6821282E+02  0.7561462E-02  0.1366278E+00
         -1   -1    0    0    0  501 -0.00000000000E+00  0.00000000000E+00  0.12126857987E+03  0.12126857987E+03  0.00000000000E+00 0.  1.
          1   -1    0    0  501    0  0.00000000000E+00 -0.00000000000E+00 -0.12046623963E+03  0.12046623963E+03  0.00000000000E+00 0. -1.
         25    2    1    2    0    0  0.43816925722E+02 -0.12140357957E+02  0.32902098758E+02  0.13709982026E+03  0.12508597579E+03 0.  0.
         23    2    1    2    0    0 -0.43816925722E+02  0.12140357957E+02 -0.32099758514E+02  0.10463499924E+03  0.88604612173E+02 0.  0.
          5    1    3    3  502    0  0.60942764107E+02 -0.26120924902E+02  0.68219537107E+02  0.95224476149E+02  0.41800000000E+01 0. -1.
         -5    1    3    3    0  502 -0.17125838385E+02  0.13980566945E+02 -0.35317438349E+02  0.41875344106E+02  0.41800000000E+01 0. -1.
        -11    1    4    4    0    0 -0.31602544452E+02  0.20890682994E+01  0.28131545845E+02  0.42361172007E+02  0.00000000000E+00 0.  1.
         11    1    4    4    0    0 -0.12214381271E+02  0.10051289658E+02 -0.60231304359E+02  0.62273827234E+02  0.00000000000E+00 0. -1.
</event>
<event>
 8    1  0.6760442E-009  0.8279559E+02  0.7561462E-02  0.1321300E+00
          3   -1    0    0  501    0  0.00000000000E+00  0.00000000000E+00  0.19314293925E+03  0.19314293925E+03  0.00000000000E+00 0. -1.
         -3   -1    0    0    0  501 -0.00000000000E+00 -0.00000000000E+00 -0.97243556576E+02  0.97243556576E+02  0.00000000000E+00 0.  1.
         25    2    1    2    0    0  0.39666597160E+02 -0.52985760734E+02  0.10703029987E+03  0.17743593882E+03  0.12508835887E+03 0.  0.
         23    2    1    2    0    0 -0.39666597160E+02  0.52985760734E+02 -0.11130917202E+02  0.11295055700E+03  0.90846030394E+02 0.  0.
          5    1    3    3  502    0  0.19131118110E+02 -0.44142232017E+02 -0.17107377647E+02  0.51231543970E+02  0.41800000000E+01 0. -1.
         -5    1    3    3    0  502  0.20535479051E+02 -0.88435287163E+01  0.12413767752E+03  0.12620439485E+03  0.41800000000E+01 0. -1.
        -11    1    4    4    0    0  0.17502533149E+02  0.25984339831E+02 -0.33517176559E+02  0.45879469347E+02  0.00000000000E+00 0.  1.
         11    1    4    4    0    0 -0.57169130309E+02  0.27001420902E+02  0.22386259358E+02  0.67071087654E+02  0.00000000000E+00 0. -1.
</event>
<event>
 8    1  0.6760442E-009  0.1050579E+03  0.7561462E-02  0.1270006E+00
          1   -1    0    0  501    0  0.00000000000E+00  0.00000000000E+00  0.34894259471E+03  0.34894259471E+03  0.00000000000E+00 0. -1.
         -1   -1    0    0    0  501 -0.00000000000E+00 -0.00000000000E+00 -0.53666902425E+02  0.53666902425E+02  0.00000000000E+00 0.  1.
         25    2    1    2    0    0  0.10170359425E+02  0.38261869644E+02  0.54915039188E+02  0.14222887291E+03  0.12508390736E+03 0.  0.
         23    2    1    2    0    0 -0.10170359425E+02 -0.38261869644E+02  0.24036065310E+03  0.26038062422E+03  0.91964226924E+02 0.  0.
          5    1    3    3  502    0 -0.36370478021E+02  0.52245646455E+02  0.66440587244E+02  0.92109952114E+02  0.41800000000E+01 0. -1.
         -5    1    3    3    0  502  0.46540837446E+02 -0.13983776812E+02 -0.11525548056E+02  0.50118920799E+02  0.41800000000E+01 0. -1.
        -11    1    4    4    0    0 -0.42345091558E+02 -0.47922518148E+02  0.12769867393E+03  0.14281675619E+03  0.00000000000E+00 0. -1.
         11    1    4    4    0    0  0.32174732133E+02  0.96606485041E+01  0.11266197916E+03  0.11756386803E+03  0.00000000000E+00 0.  1.
</event>
<event>
 8    1  0.6760442E-009  0.9487377E+02  0.7561462E-02  0.1291461E+00
          1   -1    0    0  501    0  0.00000000000E+00  0.00000000000E+00  0.27665896414E+03  0.27665896414E+03  0.00000000000E+00 0. -1.
         -1   -1    0    0    0  501 -0.00000000000E+00 -0.00000000000E+00 -0.97676708780E+02  0.97676708780E+02  0.00000000000E+00 0.  1.
         25    2    1    2    0    0 -0.41011941722E+02 -0.36332113961E+02  0.21324893937E+03  0.25322856985E+03  0.12509035364E+03 0.  0.
         23    2    1    2    0    0  0.41011941722E+02  0.36332113961E+02 -0.34266684015E+02  0.12110710307E+03  0.10242423010E+03 0.  0.
          5    1    3    3  502    0 -0.54732575629E+02  0.38684533595E+01  0.20161361564E+03  0.20898837810E+03  0.41800000000E+01 0. -1.
         -5    1    3    3    0  502  0.13720633907E+02 -0.40200567321E+02  0.11635323728E+02  0.44240191749E+02  0.41800000000E+01 0. -1.
        -11    1    4    4    0    0  0.12637886663E+02  0.56067474253E+02 -0.56027794628E+02  0.80264510335E+02  0.00000000000E+00 0. -1.
         11    1    4    4    0    0  0.28374055059E+02 -0.19735360292E+02  0.21761110613E+02  0.40842592736E+02  0.00000000000E+00 0.  1.
</event>
<event>
 8    1  0.6760442E-009  0.9834078E+02  0.7561462E-02  0.1283824E+00
          3   -1    0    0  501    0  0.00000000000E+00  0.00000000000E+00  0.43866454548E+03  0.43866454548E+03  0.00000000000E+00 0. -1.
         -3   -1    0    0    0  501 -0.00000000000E+00 -0.00000000000E+00 -0.26994462872E+02  0.26994462872E+02  0.00000000000E+00 0.  1.
         25    2    1    2    0    0 -0.11452793451E+02 -0.90422113687E+01  0.21267361986E+03  0.24716480216E+03  0.12508973890E+03 0.  0.
         23    2    1    2    0    0  0.11452793451E+02  0.90422113687E+01  0.19899646275E+03  0.21849420619E+03  0.89034812799E+02 0.  0.
          5    1    3    3  502    0 -0.79181244112E+01 -0.62941310279E+02  0.15746440724E+03  0.16981406650E+03  0.41800000000E+01 0.  1.
         -5    1    3    3    0  502 -0.35346690400E+01  0.53899098910E+02  0.55209212617E+02  0.77350735655E+02  0.41800000000E+01 0.  1.
        -11    1    4    4    0    0  0.11021947785E+01 -0.34326123101E+02  0.14219523611E+03  0.14628391139E+03  0.00000000000E+00 0. -1.
         11    1    4    4    0    0  0.10350598673E+02  0.43368334470E+02  0.56801226638E+02  0.72210294800E+02  0.00000000000E+00 0.  1.
</event>
<event>
 8    1  0.6760442E-009  0.9929806E+02  0.7561462E-02  0.1281779E+00
         -1   -1    0    0    0  501 -0.00000000000E+00  0.00000000000E+00  0.13415319927E+03  0.13415319927E+03  0.00000000000E+00 0.  1.
          1   -1    0    0  501    0  0.00000000000E+00 -0.00000000000E+00 -0.12719372312E+03  0.12719372312E+03  0.00000000000E+00 0. -1.
         25    2    1    2    0    0 -0.13134704510E+02 -0.24643099981E+02 -0.63484084120E+02  0.14302972845E+03  0.12508985348E+03 0.  0.
         23    2    1    2    0    0  0.13134704510E+02  0.24643099981E+02  0.70443560266E+02  0.11831719394E+03  0.90867267812E+02 0.  0.
          5    1    3    3  502    0  0.35745235748E+02  0.22429669505E+02 -0.61886521041E+02  0.75021502513E+02  0.41800000000E+01 0.  1.
         -5    1    3    3    0  502 -0.48879940257E+02 -0.47072769486E+02 -0.15975630791E+01  0.68008225932E+02  0.41800000000E+01 0.  1.
        -11    1    4    4    0    0  0.46539587207E+02 -0.25042797809E+00  0.14861684253E+02  0.48855558030E+02  0.00000000000E+00 0. -1.
         11    1    4    4    0    0 -0.33404882697E+02  0.24893527959E+02  0.55581876013E+02  0.69461635911E+02  0.00000000000E+00 0.  1.
</event>
<event>
 8    1  0.6760442E-009  0.9975789E+02  0.7561462E-02  0.1280806E+00
         -1   -1    0    0    0  501 -0.00000000000E+00  0.00000000000E+00  0.15660624296E+03  0.15660624296E+03  0.00000000000E+00 0.  1.
          1   -1    0    0  501    0  0.00000000000E+00 -0.00000000000E+00 -0.16118358707E+03  0.16118358707E+03  0.00000000000E+00 0. -1.
         25    2    1    2    0    0 -0.48772843364E+02  0.14025960594E+02 -0.10441407786E+03  0.17066043604E+03  0.12508863639E+03 0.  0.
         23    2    1    2    0    0  0.48772843364E+02 -0.14025960594E+02  0.99836733751E+02  0.14712939399E+03  0.95415760495E+02 0.  0.
          5    1    3    3  502    0  0.19612064728E+02 -0.10504518347E+02 -0.94551336270E+02  0.97223482653E+02  0.41800000000E+01 0. -1.
         -5    1    3    3    0  502 -0.68384908092E+02  0.24530478941E+02 -0.98627415904E+01  0.73436953392E+02  0.41800000000E+01 0. -1.
        -11    1    4    4    0    0  0.63872101867E+02 -0.39062120831E+02  0.88121731705E+02  0.11563275608E+03  0.00000000000E+00 0. -1.
         11    1    4    4    0    0 -0.15099258503E+02  0.25036160238E+02  0.11715002047E+02  0.31496637912E+02  0.00000000000E+00 0.  1.
</event>
<event>
 8    1  0.6760442E-009  0.1826546E+03  0.7561462E-02  0.1165258E+00
          3   -1    0    0  501    0  0.00000000000E+00  0.00000000000E+00  0.19123475027E+03  0.19123475027E+03  0.00000000000E+00 0. -1.
         -3   -1    0    0    0  501 -0.00000000000E+00 -0.00000000000E+00 -0.23227192013E+03  0.23227192013E+03  0.00000000000E+00 0.  1.
         25    2    1    2    0    0 -0.14009047312E+03  0.11282434209E+03 -0.36548899168E+02  0.22212008465E+03  0.12508731808E+03 0.  0.
         23    2    1    2    0    0  0.14009047312E+03 -0.11282434209E+03 -0.44882706964E+01  0.20138658575E+03  0.90452968549E+02 0.  0.
          5    1    3    3  502    0 -0.97710561153E+02  0.94148182468E+02 -0.80758446611E+02  0.15795769409E+03  0.41800000000E+01 0. -1.
         -5    1    3    3    0  502 -0.42379911969E+02  0.18676159625E+02  0.44209547444E+02  0.64162390557E+02  0.41800000000E+01 0. -1.
        -11    1    4    4    0    0  0.15722122784E+02 -0.29274404606E+02  0.33115580235E+02  0.46912872052E+02  0.00000000000E+00 0. -1.
         11    1    4    4    0    0  0.12436835034E+03 -0.83549937486E+02 -0.37603850931E+02  0.15447371370E+03  0.00000000000E+00 0.  1.
</event>
<event>
 8    1  0.6760442E-009  0.1431977E+03  0.7561462E-02  0.1209090E+00
         -2   -1    0    0    0  501 -0.00000000000E+00  0.00000000000E+00  0.31604693375E+03  0.31604693375E+03  0.00000000000E+00 0. -1.
          2   -1    0    0  501    0  0.00000000000E+00 -0.00000000000E+00 -0.17071421562E+03  0.17071421562E+03  0.00000000000E+00 0.  1.
         25    2    1    2    0    0  0.10850606241E+03  0.19591739447E+02 -0.10565833289E+03  0.19740463330E+03  0.12508998403E+03 0.  0.
         23    2    1    2    0    0 -0.10850606241E+03 -0.19591739447E+02  0.25099105103E+03  0.28935651607E+03  0.92592029154E+02 0.  0.
          5    1    3    3  502    0  0.33857161440E+02 -0.52048481682E+02 -0.29528165881E+02  0.68882049959E+02  0.41800000000E+01 0.  1.
         -5    1    3    3    0  502  0.74648900969E+02  0.71640221129E+02 -0.76130167010E+02  0.12852258334E+03  0.41800000000E+01 0.  1.
        -11    1    4    4    0    0 -0.56646488122E+02  0.14600749526E+02  0.43867322364E+02  0.73118728618E+02  0.00000000000E+00 0.  1.
         11    1    4    4    0    0 -0.51859574288E+02 -0.34192488973E+02  0.20712372866E+03  0.21623778745E+03  0.00000000000E+00 0. -1.
</event>
<event>
 8    1  0.6760442E-009  0.1370174E+03  0.7561462E-02  0.1217400E+00
         -1   -1    0    0    0  501 -0.00000000000E+00  0.00000000000E+00  0.19585588967E+03  0.19585588967E+03  0.00000000000E+00 0.  1.
          1   -1    0    0  501    0  0.00000000000E+00 -0.00000000000E+00 -0.15077550908E+03  0.15077550908E+03  0.00000000000E+00 0. -1.
         25    2    1    2    0    0 -0.93457889909E+02 -0.68643883150E+02  0.88754595747E+02  0.19227861687E+03  0.12508928155E+03 0.  0.
         23    2    1    2    0    0  0.93457889909E+02  0.68643883150E+02 -0.43674215164E+02  0.15435278189E+03  0.92037950463E+02 0.  0.
          5    1    3    3  502    0 -0.39740787659E+02  0.21549806255E+02  0.73108710839E+02  0.86058586753E+02  0.41800000000E+01 0. -1.
         -5    1    3    3    0  502 -0.53717102250E+02 -0.90193689406E+02  0.15645884908E+02  0.10622003011E+03  0.41800000000E+01 0. -1.
        -11    1    4    4    0    0  0.67061948738E+02  0.23092960388E+02 -0.66264180704E+02  0.97064573519E+02  0.00000000000E+00 0. -1.
         11    1    4    4    0    0  0.26395941171E+02  0.45550922762E+02  0.22589965540E+02  0.57288208367E+02  0.00000000000E+00 0.  1.
</event>
<event>
 8    1  0.6760442E-009  0.1052633E+03  0.7561462E-02  0.1269602E+00
          2   -1    0    0  501    0  0.00000000000E+00  0.00000000000E+00  0.68737923192E+03  0.68737923192E+03  0.00000000000E+00 0. -1.
         -2   -1    0    0    0  501 -0.00000000000E+00 -0.00000000000E+00 -0.18814492572E+02  0.18814492572E+02  0.00000000000E+00 0.  1.
         25    2    1    2    0    0 -0.17779347296E+02 -0.32742035057E+02  0.42321041146E+03  0.44287843099E+03  0.12508439638E+03 0.  0.
         23    2    1    2    0    0  0.17779347296E+02  0.32742035057E+02  0.24535432789E+03  0.26331529350E+03  0.88023017041E+02 0.  0.
          5    1    3    3  502    0 -0.48405221991E+00  0.47121086036E+02  0.18727796905E+03  0.19316092034E+03  0.41800000000E+01 0. -1.
         -5    1    3    3    0  502 -0.17295295076E+02 -0.79863121094E+02  0.23593244241E+03  0.24971751065E+03  0.41800000000E+01 0. -1.
        -11    1    4    4    0    0  0.11824579841E+02 -0.22721678342E+02  0.24213867884E+02  0.35247790754E+02  0.00000000000E+00 0.  1.
         11    1    4    4    0    0  0.59547674547E+01  0.55463713399E+02  0.22114046000E+03  0.22806750275E+03  0.00000000000E+00 0. -1.
</event>
<event>
 8    1  0.6760442E-009  0.7259053E+02  0.7561462E-02  0.1351499E+00
         -1   -1    0    0    0  501 -0.00000000000E+00  0.00000000000E+00  0.62641349375E+03  0.62641349375E+03  0.00000000000E+00 0.  1.
          1   -1    0    0  501    0  0.00000000000E+00 -0.00000000000E+00 -0.19332352249E+02  0.19332352249E+02  0.00000000000E+00 0. -1.
         25    2    1    2    0    0  0.19873511090E+02 -0.82997054850E+01  0.30201790710E+03  0.32760806897E+03  0.12509352138E+03 0.  0.
         23    2    1    2    0    0 -0.19873511090E+02  0.82997054850E+01  0.30506323441E+03  0.31813777703E+03  0.87659720714E+02 0.  0.
          5    1    3    3  502    0 -0.21163825347E+02  0.11360135050E+02  0.23698711795E+01  0.24495894780E+02  0.41800000000E+01 0.  1.
         -5    1    3    3    0  502  0.41037336437E+02 -0.19659840535E+02  0.29964803592E+03  0.30311217419E+03  0.41800000000E+01 0.  1.
        -11    1    4    4    0    0 -0.34656110500E+02  0.32001288634E+02  0.26579112240E+03  0.26994452989E+03  0.00000000000E+00 0.  1.
         11    1    4    4    0    0  0.14782599410E+02 -0.23701583149E+02  0.39272112002E+02  0.48193247143E+02  0.00000000000E+00 0. -1.
</event>
<event>
 8    1  0.6760442E-009  0.2307606E+03  0.7561462E-02  0.1126106E+00
          1   -1    0    0  501    0  0.00000000000E+00  0.00000000000E+00  0.49082556782E+03  0.49082556782E+03  0.00000000000E+00 0. -1.
         -1   -1    0    0    0  501 -0.00000000000E+00 -0.00000000000E+00 -0.12407896944E+03  0.12407896944E+03  0.00000000000E+00 0.  1.
         25    2    1    2    0    0 -0.24559151721E+02  0.21516141183E+03  0.12153684913E+03  0.27805819873E+03  0.12509025185E+03 0.  0.
         23    2    1    2    0    0  0.24559151721E+02 -0.21516141183E+03  0.24520974925E+03  0.33684633854E+03  0.80249919572E+02 0.  0.
          5    1    3    3  502    0  0.94755917227E+01  0.18554523868E+03  0.48416514791E+02  0.19203763626E+03  0.41800000000E+01 0. -1.
         -5    1    3    3    0  502 -0.34034743444E+02  0.29616173149E+02  0.73120334343E+02  0.86020562470E+02  0.41800000000E+01 0. -1.
        -11    1    4    4    0    0  0.53275670809E+02 -0.12948217298E+03  0.16046552345E+03  0.21296270668E+03  0.00000000000E+00 0.  1.
         11    1    4    4    0    0 -0.28716519088E+02 -0.85679238846E+02  0.84744225798E+02  0.12388363186E+03  0.00000000000E+00 0. -1.
</event>
<event>
 8    1  0.6760442E-009  0.2250092E+03  0.7561462E-02  0.1130203E+00
         -2   -1    0    0    0  501 -0.00000000000E+00  0.00000000000E+00  0.47922640224E+02  0.47922640224E+02  0.00000000000E+00 0. -1.
          2   -1    0    0  501    0  0.00000000000E+00 -0.00000000000E+00 -0.11217173174E+04  0.11217173174E+04  0.00000000000E+00 0.  1.
         25    2    1    2    0    0  0.19780104526E+03 -0.38788610675E+02 -0.46528470313E+03  0.52227133871E+03  0.12509071285E+03 0.  0.
         23    2    1    2    0    0 -0.19780104526E+03  0.38788610675E+02 -0.60850997402E+03  0.64736861890E+03  0.90398730193E+02 0.  0.
          5    1    3    3  502    0  0.21203498270E+03 -0.28500212048E+02 -0.45121374967E+03  0.49938203438E+03  0.41800000000E+01 0. -1.
         -5    1    3    3    0  502 -0.14233937433E+02 -0.10288398627E+02 -0.14070953463E+02  0.22889304326E+02  0.41800000000E+01 0. -1.
        -11    1    4    4    0    0 -0.51881773092E+02  0.49451446086E+02 -0.25226968503E+03  0.26225399499E+03  0.00000000000E+00 0.  1.
         11    1    4    4    0    0 -0.14591927217E+03 -0.10662835411E+02 -0.35624028899E+03  0.38511462391E+03  0.00000000000E+00 0. -1.
</event>
<event>
 8    1  0.6760442E-009  0.1142577E+03  0.7561462E-02  0.1252882E+00
          1   -1    0    0  501    0  0.00000000000E+00  0.00000000000E+00  0.85610155397E+03  0.85610155397E+03  0.00000000000E+00 0. -1.
         -1   -1    0    0    0  501 -0.00000000000E+00 -0.00000000000E+00 -0.19389677541E+02  0.19389677541E+02  0.00000000000E+00 0.  1.
         25    2    1    2    0    0  0.63129208005E+02 -0.20526926997E+02  0.53246363494E+03  0.55097290463E+03  0.12508783900E+03 0.  0.
         23    2    1    2    0    0 -0.63129208005E+02  0.20526926997E+02  0.30424824150E+03  0.32451832689E+03  0.91315389707E+02 0.  0.
          5    1    3    3  502    0  0.16407102523E+02  0.48142924427E+02  0.12330975042E+03  0.13345299223E+03  0.41800000000E+01 0.  1.
         -5    1    3    3    0  502  0.46722105482E+02 -0.68669851423E+02  0.40915388452E+03  0.41751991240E+03  0.41800000000E+01 0.  1.
        -11    1    4    4    0    0 -0.36062888297E+02 -0.23209227755E+02  0.23141274304E+03  0.23535304928E+03  0.00000000000E+00 0. -1.
         11    1    4    4    0    0 -0.27066319708E+02  0.43736154752E+02  0.72835498455E+02  0.89165277604E+02  0.00000000000E+00 0.  1.
</event>
<event>
 8    1  0.6760442E-009  0.1161686E+03  0.7561462E-02  0.1249555E+00
         -3   -1    0    0    0  501 -0.00000000000E+00  0.00000000000E+00  0.27004774387E+02  0.27004774387E+02  0.00000000000E+00 0.  1.
          3   -1    0    0  501    0  0.00000000000E+00 -0.00000000000E+00 -0.54067703089E+03  0.54067703089E+03  0.00000000000E+00 0. -1.
         25    2    1    2    0    0  0.42485641862E+02 -0.29749110086E+02 -0.31052613800E+03  0.33876502795E+03  0.12508086371E+03 0.  0.
         23    2    1    2    0    0 -0.42485641862E+02  0.29749110086E+02 -0.20314611850E+03  0.22891677732E+03  0.91893994162E+02 0.  0.
          5    1    3    3  502    0  0.75782500843E+02  0.12036846298E+02 -0.13616076457E+03  0.15634928626E+03  0.41800000000E+01 0.  1.
         -5    1    3    3    0  502 -0.33296858982E+02 -0.41785956384E+02 -0.17436537343E+03  0.18241574170E+03  0.41800000000E+01 0.  1.
        -11    1    4    4    0    0 -0.23598509749E+02  0.60987323264E+02 -0.15702427866E+03  0.17009693516E+03  0.00000000000E+00 0.  1.
         11    1    4    4    0    0 -0.18887132113E+02 -0.31238213178E+02 -0.46121839834E+02  0.58819842160E+02  0.00000000000E+00 0. -1.
</event>
<event>
 8    1  0.6760442E-009  0.7625903E+02  0.7561462E-02  0.1340016E+00
         -1   -1    0    0    0  501 -0.00000000000E+00  0.00000000000E+00  0.79462628205E+02  0.79462628205E+02  0.00000000000E+00 0.  1.
          1   -1    0    0  501    0  0.00000000000E+00 -0.00000000000E+00 -0.18950770965E+03  0.18950770965E+03  0.00000000000E+00 0. -1.
         25    2    1    2    0    0 -0.24891835403E+01  0.45634010390E+02 -0.22420931083E+02  0.13505205956E+03  0.12509077384E+03 0.  0.
         23    2    1    2    0    0  0.24891835403E+01 -0.45634010390E+02 -0.87624150361E+02  0.13391827830E+03  0.90373970790E+02 0.  0.
          5    1    3    3  502    0  0.25609056641E+02  0.48751468633E+01 -0.64659393294E+02  0.69841967184E+02  0.41800000000E+01 0.  1.
         -5    1    3    3    0  502 -0.28098240181E+02  0.40758863527E+02  0.42238462211E+02  0.65210092373E+02  0.41800000000E+01 0.  1.
        -11    1    4    4    0    0 -0.16823755537E+02 -0.53120691917E+02 -0.14023797029E+02  0.57458798658E+02  0.00000000000E+00 0.  1.
         11    1    4    4    0    0  0.19312939077E+02  0.74866815262E+01 -0.73600353331E+02  0.76459479638E+02  0.00000000000E+00 0. -1.
</event>
<event>
 8    1  0.6760442E-009  0.1919965E+03  0.7561462E-02  0.1156673E+00
         -2   -1    0    0    0  501 -0.00000000000E+00  0.00000000000E+00  0.37587494790E+02  0.37587494790E+02  0.00000000000E+00 0.  1.
          2   -1    0    0  501    0  0.00000000000E+00 -0.00000000000E+00 -0.11011308294E+04  0.11011308294E+04  0.00000000000E+00 0. -1.
         25    2    1    2    0    0 -0.50304537134E+02 -0.16380289535E+03 -0.60146056998E+03  0.63778105589E+03  0.12509165851E+03 0.  0.
         23    2    1    2    0    0  0.50304537134E+02  0.16380289535E+03 -0.46208276459E+03  0.50093726826E+03  0.89753720935E+02 0.  0.
          5    1    3    3  502    0 -0.74182884545E+02 -0.63539486317E+02 -0.39587828903E+03  0.40777133152E+03  0.41800000000E+01 0.  1.
         -5    1    3    3    0  502  0.23878347411E+02 -0.10026340903E+03 -0.20558228095E+03  0.23000972437E+03  0.41800000000E+01 0.  1.
        -11    1    4    4    0    0 -0.15656328591E+02  0.27259160560E+02 -0.31797341809E+02  0.44713011591E+02  0.00000000000E+00 0.  1.
         11    1    4    4    0    0  0.65960865725E+02  0.13654373479E+03 -0.43028542278E+03  0.45622425667E+03  0.00000000000E+00 0. -1.
</event>
<event>
 8    1  0.6760442E-009  0.9604143E+02  0.7561462E-02  0.1288848E+00
         -2   -1    0    0    0  501 -0.00000000000E+00  0.00000000000E+00  0.69307316638E+02  0.69307316638E+02  0.00000000000E+00 0.  1.
          2   -1    0    0  501    0  0.00000000000E+00 -0.00000000000E+00 -0.26714584652E+03  0.26714584652E+03  0.00000000000E+00 0. -1.
         25    2    1    2    0    0  0.16350317796E+02  0.47847385552E+02 -0.27763460019E+02  0.13774720427E+03  0.12508707918E+03 0.  0.
         23    2    1    2    0    0 -0.16350317796E+02 -0.47847385552E+02 -0.17007506986E+03  0.19870595889E+03  0.89452912260E+02 0.  0.
          5    1    3    3  502    0  0.24713168200E+01  0.88342356819E+02 -0.39042753383E+01  0.88561815592E+02  0.41800000000E+01 0. -1.
         -5    1    3    3    0  502  0.13879000976E+02 -0.40494971267E+02 -0.23859184681E+02  0.49185388680E+02  0.41800000000E+01 0. -1.
        -11    1    4    4    0    0 -0.19259811717E+02 -0.83503023406E+01  0.29570507561E+01  0.21199340691E+02  0.00000000000E+00 0.  1.
         11    1    4    4    0    0  0.29094939214E+01 -0.39497083211E+02 -0.17303212062E+03  0.17750661820E+03  0.00000000000E+00 0. -1.
</event>
<event>
 8    1  0.6760442E-009  0.1148202E+03  0.7561462E-02  0.1251895E+00
         -4   -1    0    0    0  501 -0.00000000000E+00  0.00000000000E+00  0.17958753796E+03  0.17958753796E+03  0.00000000000E+00 0. -1.
          4   -1    0    0  501    0  0.00000000000E+00 -0.00000000000E+00 -0.19147871766E+03  0.19147871766E+03  0.00000000000E+00 0.  1.
         25    2    1    2    0    0  0.36338208934E+01 -0.72763115372E+02  0.12526287334E+03  0.19143367714E+03  0.12509352378E+03 0.  0.
         23    2    1    2    0    0 -0.36338208934E+01  0.72763115372E+02 -0.13715405304E+03  0.17963257849E+03  0.90271553520E+02 0.  0.
          5    1    3    3  502    0  0.21443841593E+02 -0.99254423702E+02  0.12242903802E+03  0.15911511781E+03  0.41800000000E+01 0. -1.
         -5    1    3    3    0  502 -0.17810020700E+02  0.26491308330E+02  0.28338353268E+01  0.32318559328E+02  0.41800000000E+01 0. -1.
        -11    1    4    4    0    0  0.29093470267E+02  0.28121820242E+02 -0.11151725864E+03  0.11863121748E+03  0.00000000000E+00 0.  1.
         11    1    4    4    0    0 -0.32727291160E+02  0.44641295130E+02 -0.25636794403E+02  0.61001361008E+02  0.00000000000E+00 0. -1.
</event>
<event>
 7    1  0.6760442E-009  0.1472554E+03  0.7561462E-02  0.1203887E+00
         -1   -1    0    0    0  501 -0.00000000000E+00  0.00000000000E+00  0.32113075978E+02  0.32113075978E+02  0.00000000000E+00 0.  1.
          1   -1    0    0  501    0  0.00000000000E+00 -0.00000000000E+00 -0.72533856723E+03  0.72533856723E+03  0.00000000000E+00 0. -1.
         25    2    1    2    0    0 -0.57958781246E+02  0.42284979297E+02 -0.39880440502E+03  0.42407484493E+03  0.12508909161E+03 0.  0.
          5    1    3    3  502    0  0.36550547484E+02  0.30302940929E+02 -0.15957376886E+03  0.16653969755E+03  0.41800000000E+01 0. -1.
         -5    1    3    3    0  502 -0.94509328729E+02  0.11982038367E+02 -0.23923063616E+03  0.25753514738E+03  0.41800000000E+01 0. -1.
        -11    1    1    2    0    0  0.71275176870E+02 -0.82560877269E+02 -0.24541628769E+03  0.26856210373E+03  0.00000000000E+00 0. -1.
         11    1    1    2    0    0 -0.13316395625E+02  0.40275897972E+02 -0.49004798537E+02  0.64814694550E+02  0.00000000000E+00 0.  1.
</event>
<event>
 8    1  0.6760442E-009  0.1316070E+03  0.7561462E-02  0.1225091E+00
         -1   -1    0    0    0  501 -0.00000000000E+00  0.00000000000E+00  0.26734023069E+03  0.26734023069E+03  0.00000000000E+00 0.  1.
          1   -1    0    0  501    0  0.00000000000E+00 -0.00000000000E+00 -0.79587730787E+02  0.79587730787E+02  0.00000000000E+00 0. -1.
         25    2    1    2    0    0  0.20899340051E+02  0.72749084860E+02  0.29931165269E+02  0.14923719031E+03  0.12508658023E+03 0.  0.
         23    2    1    2    0    0 -0.20899340051E+02 -0.72749084860E+02  0.15782133464E+03  0.19769077117E+03  0.91895895329E+02 0.  0.
          5    1    3    3  502    0 -0.48560396857E+02  0.48498547043E+01  0.98286966341E+01  0.49957070682E+02  0.41800000000E+01 0.  1.
         -5    1    3    3    0  502  0.69459736908E+02  0.67899230156E+02  0.20102468635E+02  0.99280119623E+02  0.41800000000E+01 0.  1.
        -11    1    4    4    0    0  0.35317677038E+02 -0.30886603676E+02  0.81708742792E+02  0.94221225032E+02  0.00000000000E+00 0.  1.
         11    1    4    4    0    0 -0.56217017089E+02 -0.41862481184E+02  0.76112591844E+02  0.10346954614E+03  0.00000000000E+00 0. -1.
</event>
<event>
 8    1  0.6760442E-009  0.1629603E+03  0.7561462E-02  0.1185395E+00
          1   -1    0    0  501    0  0.00000000000E+00  0.00000000000E+00  0.88803400127E+03  0.88803400127E+03  0.00000000000E+00 0. -1.
         -1   -1    0    0    0  501 -0.00000000000E+00 -0.00000000000E+00 -0.42589512621E+02  0.42589512621E+02  0.00000000000E+00 0.  1.
         25    2    1    2    0    0 -0.15697670303E+03  0.30434985901E+02  0.39578428147E+03  0.44481502003E+03  0.12508889208E+03 0.  0.
         23    2    1    2    0    0  0.15697670303E+03 -0.30434985901E+02  0.44966020718E+03  0.48580849386E+03  0.90816392391E+02 0.  0.
          5    1    3    3  502    0 -0.73364674391E+02 -0.72775564758E+01  0.31165005503E+03  0.32027889015E+03  0.41800000000E+01 0.  1.
         -5    1    3    3    0  502 -0.83612028641E+02  0.37712542377E+02  0.84134226440E+02  0.12453612988E+03  0.41800000000E+01 0.  1.
        -11    1    4    4    0    0  0.33850396811E+02 -0.11097485066E+02  0.25748852985E+02  0.43954601228E+02  0.00000000000E+00 0. -1.
         11    1    4    4    0    0  0.12312630622E+03 -0.19337500835E+02  0.42391135419E+03  0.44185389263E+03  0.00000000000E+00 0.  1.
</event>
<event>
 7    1  0.6760442E-009  0.1767071E+03  0.7561462E-02  0.1171028E+00
          1   -1    0    0  501    0  0.00000000000E+00  0.00000000000E+00  0.93190837808E+02  0.93190837808E+02  0.00000000000E+00 0. -1.
         -1   -1    0    0    0  501 -0.00000000000E+00 -0.00000000000E+00 -0.43654357645E+03  0.43654357645E+03  0.00000000000E+00 0.  1.
         23    2    1    2    0    0 -0.16677362683E+03  0.14928854165E+02 -0.20301191105E+03  0.27795065899E+03  0.89478598073E+02 0.  0.
          5    1    1    2  502    0 -0.59040107106E+01 -0.47460298023E+00  0.16501869339E+02  0.18024058426E+02  0.41800000000E+01 0. -1.
         -5    1    1    2    0  502  0.17267763754E+03 -0.14454251185E+02 -0.15684269693E+03  0.23375969684E+03  0.41800000000E+01 0. -1.
        -11    1    3    3    0    0 -0.82419581952E+02 -0.14113547082E+02 -0.41300276045E+02  0.93262492470E+02  0.00000000000E+00 0. -1.
         11    1    3    3    0    0 -0.84354044880E+02  0.29042401246E+02 -0.16171163500E+03  0.18468816652E+03  0.00000000000E+00 0.  1.
</event>
<event>
 8    1  0.6760442E-009  0.1154468E+03  0.7561462E-02  0.1250803E+00
         -3   -1    0    0    0  501 -0.00000000000E+00  0.00000000000E+00  0.52910769481E+02  0.52910769481E+02  0.00000000000E+00 0.  1.
          3   -1    0    0  501    0  0.00000000000E+00 -0.00000000000E+00 -0.50030676015E+03  0.50030676015E+03  0.00000000000E+00 0. -1.
         25    2    1    2    0    0 -0.46343304863E+02  0.39218300410E+02 -0.41803386981E+03  0.44055124282E+03  0.12508918519E+03 0.  0.
         23    2    1    2    0    0  0.46343304863E+02 -0.39218300410E+02 -0.29362120858E+02  0.11266628681E+03  0.90253980791E+02 0.  0.
          5    1    3    3  502    0  0.24484669018E+02 -0.20006621973E+02 -0.38841186413E+02  0.50258074990E+02  0.41800000000E+01 0. -1.
         -5    1    3    3    0  502 -0.70827973881E+02  0.59224922384E+02 -0.37919268340E+03  0.39029316783E+03  0.41800000000E+01 0. -1.
        -11    1    4    4    0    0  0.59918251532E+01  0.27751724661E+02 -0.18105587255E+02  0.33673023033E+02  0.00000000000E+00 0. -1.
         11    1    4    4    0    0  0.40351479710E+02 -0.66970025071E+02 -0.11256533603E+02  0.78993263773E+02  0.00000000000E+00 0.  1.
</event>
<event>
 8    1  0.6760442E-009  0.1295123E+03  0.7561462E-02  0.1228181E+00
          2   -1    0    0  501    0  0.00000000000E+00  0.00000000000E+00  0.31342490526E+03  0.31342490526E+03  0.00000000000E+00 0. -1.
         -2   -1    0    0    0  501 -0.00000000000E+00 -0.00000000000E+00 -0.54667965643E+02  0.54667965643E+02  0.00000000000E+00 0.  1.
         25    2    1    2    0    0  0.69036761837E+02 -0.11640718152E+02  0.13648916266E+03  0.19793517549E+03  0.12508981321E+03 0.  0.
         23    2    1    2    0    0 -0.69036761837E+02  0.11640718152E+02  0.12226777695E+03  0.17015769541E+03  0.95407815310E+02 0.  0.
          5    1    3    3  502    0  0.37345916791E+02  0.55699751076E+02  0.49984885579E+02  0.83744498072E+02  0.41800000000E+01 0.  1.
         -5    1    3    3    0  502  0.31690845045E+02 -0.67340469229E+02  0.86504277081E+02  0.11419067742E+03  0.41800000000E+01 0.  1.
        -11    1    4    4    0    0 -0.40376816514E+02 -0.40880873146E+02  0.71214917234E+02  0.91504631236E+02  0.00000000000E+00 0. -1.
         11    1    4    4    0    0 -0.28659945323E+02  0.52521591299E+02  0.51052859718E+02  0.78653064173E+02  0.00000000000E+00 0.  1.
</event>
<event>
 8    1  0.6760442E-009  0.9584179E+02  0.7561462E-02  0.1289291E+00
          2   -1    0    0  501    0  0.00000000000E+00  0.00000000000E+00  0.60359778161E+03  0.60359778161E+03  0.00000000000E+00 0. -1.
         -2   -1    0    0    0  501 -0.00000000000E+00 -0.00000000000E+00 -0.33594375882E+02  0.33594375882E+02  0.00000000000E+00 0.  1.
         25    2    1    2    0    0  0.67149642483E+01 -0.88845129711E+02  0.26112533732E+03  0.30294004469E+03  0.12509069139E+03 0.  0.
         23    2    1    2    0    0 -0.67149642483E+01  0.88845129711E+02  0.30887806841E+03  0.33425211280E+03  0.91543792508E+02 0.  0.
          5    1    3    3  502    0 -0.19186783237E+02 -0.50257972390E+02  0.20323100123E+02  0.57658453312E+02  0.41800000000E+01 0. -1.
         -5    1    3    3    0  502  0.25901747485E+02 -0.38587157320E+02  0.24080223720E+03  0.24528159138E+03  0.41800000000E+01 0. -1.
        -11    1    4    4    0    0 -0.13013068808E+02  0.47869936818E+02  0.27843231369E+03  0.28281694453E+03  0.00000000000E+00 0. -1.
         11    1    4    4    0    0  0.62981045595E+01  0.40975192892E+02  0.30445754723E+02  0.51435168263E+02  0.00000000000E+00 0.  1.
</event>
<event>
 8    1  0.6760442E-009  0.2263542E+03  0.7561462E-02  0.1129233E+00
          2   -1    0    0  501    0  0.00000000000E+00  0.00000000000E+00  0.64587147061E+03  0.64587147061E+03  0.00000000000E+00 0. -1.
         -2   -1    0    0    0  501 -0.00000000000E+00 -0.00000000000E+00 -0.83231811067E+02  0.83231811067E+02  0.00000000000E+00 0.  1.
         25    2    1    2    0    0  0.10657642554E+03  0.17313914102E+03  0.25442185801E+03  0.34887379244E+03  0.12508694809E+03 0.  0.
         23    2    1    2    0    0 -0.10657642554E+03 -0.17313914102E+03  0.30821780153E+03  0.38022948924E+03  0.90777500920E+02 0.  0.
          5    1    3    3  502    0  0.11807795543E+03  0.78083845715E+02  0.16896148829E+03  0.22046529760E+03  0.41800000000E+01 0.  1.
         -5    1    3    3    0  502 -0.11501529883E+02  0.95055295300E+02  0.85460369718E+02  0.12840849484E+03  0.41800000000E+01 0.  1.
        -11    1    4    4    0    0 -0.82783568267E+02 -0.67077149570E+02  0.10402999751E+03  0.14891173074E+03  0.00000000000E+00 0.  1.
         11    1    4    4    0    0 -0.23792857277E+02 -0.10606199145E+03  0.20418780403E+03  0.23131775851E+03  0.00000000000E+00 0. -1.
</event>
<event>
 8    1  0.6760442E-009  0.1166596E+03  0.7561462E-02  0.1248712E+00
          2   -1    0    0  501    0  0.00000000000E+00  0.00000000000E+00  0.27201499385E+03  0.27201499385E+03  0.00000000000E+00 0. -1.
         -2   -1    0    0    0  501 -0.00000000000E+00 -0.00000000000E+00 -0.66350264702E+02  0.66350264702E+02  0.00000000000E+00 0.  1.
         25    2    1    2    0    0  0.19800841293E+02 -0.55523275950E+02  0.46388227399E+02  0.14585628192E+03  0.12508908764E+03 0.  0.
         23    2    1    2    0    0 -0.19800841293E+02  0.55523275950E+02  0.15927650175E+03  0.19250897663E+03  0.90641020436E+02 0.  0.
          5    1    3    3  502    0 -0.33019191642E+02  0.18256653192E+02  0.39464198398E+02  0.54758266569E+02  0.41800000000E+01 0.  1.
         -5    1    3    3    0  502  0.52820032935E+02 -0.73779929142E+02  0.69240290005E+01  0.91098015352E+02  0.41800000000E+01 0.  1.
        -11    1    4    4    0    0 -0.21073770874E+02 -0.19962111418E+02  0.68791678365E+02  0.74665150662E+02  0.00000000000E+00 0.  1.
         11    1    4    4    0    0  0.12729295809E+01  0.75485387368E+02  0.90484823381E+02  0.11784382597E+03  0.00000000000E+00 0. -1.
</event>
<event>
 8    1  0.6760442E-009  0.1333973E+03  0.7561462E-02  0.1222500E+00
          2   -1    0    0  501    0  0.00000000000E+00  0.00000000000E+00  0.15302593834E+04  0.15302593834E+04  0.00000000000E+00 0. -1.
         -2   -1    0    0    0  501 -0.00000000000E+00 -0.00000000000E+00 -0.12883621108E+02  0.12883621108E+02  0.00000000000E+00 0.  1.
         25    2    1    2    0    0 -0.70262885496E+02 -0.48890449415E+02  0.95505746818E+03  0.96701090962E+03  0.12509269633E+03 0.  0.
         23    2    1    2    0    0  0.70262885496E+02  0.48890449415E+02  0.56231829409E+03  0.57613209487E+03  0.91647028020E+02 0.  0.
          5    1    3    3  502    0 -0.95004389880E+02 -0.68884595317E+01  0.47556103018E+03  0.48502479400E+03  0.41800000000E+01 0. -1.
         -5    1    3    3    0  502  0.24741504384E+02 -0.42001989883E+02  0.47949643801E+03  0.48198611562E+03  0.41800000000E+01 0. -1.
        -11    1    4    4    0    0  0.23714709486E+02 -0.25466064794E+02  0.10955915611E+03  0.11495267109E+03  0.00000000000E+00 0.  1.
         11    1    4    4    0    0  0.46548176011E+02  0.74356514209E+02  0.45275913798E+03  0.46117942378E+03  0.00000000000E+00 0. -1.
</event>
<event>
 8    1  0.6760442E-009  0.1225500E+03  0.7561462E-02  0.1238949E+00
          2   -1    0    0  501    0  0.00000000000E+00  0.00000000000E+00  0.13106767051E+03  0.13106767051E+03  0.00000000000E+00 0. -1.
         -2   -1    0    0    0  501 -0.00000000000E+00 -0.00000000000E+00 -0.11961616502E+03  0.11961616502E+03  0.00000000000E+00 0.  1.
         25    2    1    2    0    0  0.57839533720E+02 -0.32438674486E+02  0.21535029096E+02  0.14320948279E+03  0.12509004445E+03 0.  0.
         23    2    1    2    0    0 -0.57839533720E+02  0.32438674486E+02 -0.10083523599E+02  0.10747435274E+03  0.83972494215E+02 0.  0.
          5    1    3    3  502    0  0.96260180016E+02 -0.12700643197E+02  0.69678937275E+01  0.97433836716E+02  0.41800000000E+01 0.  1.
         -5    1    3    3    0  502 -0.38420646296E+02 -0.19738031289E+02  0.14567135368E+02  0.45775646077E+02  0.41800000000E+01 0.  1.
        -11    1    4    4    0    0 -0.60293873495E+02  0.55128415900E+02  0.18542322923E+01  0.81718612311E+02  0.00000000000E+00 0.  1.
         11    1    4    4    0    0  0.24543397757E+01 -0.22689741414E+02 -0.11937755891E+02  0.25755740426E+02  0.00000000000E+00 0. -1.
</event>
<event>
 8    1  0.6760442E-009  0.9717230E+02  0.7561462E-02  0.1286357E+00
          1   -1    0    0  501    0  0.00000000000E+00  0.00000000000E+00  0.11483531462E+04  0.11483531462E+04  0.00000000000E+00 0. -1.
         -1   -1    0    0    0  501 -0.00000000000E+00 -0.00000000000E+00 -0.13960833942E+02  0.13960833942E+02  0.00000000000E+00 0.  1.
         25    2    1    2    0    0 -0.63565815870E+02 -0.85509566846E+01  0.59587853962E+03  0.61223573941E+03  0.12509050655E+03 0.  0.
         23    2    1    2    0    0  0.63565815870E+02  0.85509566846E+01  0.53851377266E+03  0.55007824075E+03  0.92061152476E+02 0.  0.
          5    1    3    3  502    0 -0.73025989956E+02 -0.73360964177E+01  0.59722778885E+03  0.60173508930E+03  0.41800000000E+01 0.  1.
         -5    1    3    3    0  502  0.94601740855E+01 -0.12148602669E+01 -0.13492492360E+01  0.10500650108E+02  0.41800000000E+01 0.  1.
        -11    1    4    4    0    0  0.19217815792E+02 -0.40173559630E+02  0.26676620401E+03  0.27045784688E+03  0.00000000000E+00 0. -1.
         11    1    4    4    0    0  0.44348000078E+02  0.48724516315E+02  0.27174756865E+03  0.27962039387E+03  0.00000000000E+00 0.  1.
</event>
<event>
 8    1  0.6760442E-009  0.1088306E+03  0.7561462E-02  0.1262751E+00
          1   -1    0    0  501    0  0.00000000000E+00  0.00000000000E+00  0.24492000426E+03  0.24492000426E+03  0.00000000000E+00 0. -1.
         -1   -1    0    0    0  501 -0.00000000000E+00 -0.00000000000E+00 -0.66445953311E+02  0.66445953311E+02  0.00000000000E+00 0.  1.
         25    2    1    2    0    0 -0.55407625130E+02 -0.25309005632E+02  0.13837780110E+03  0.19622947472E+03  0.12508812981E+03 0.  0.
         23    2    1    2    0    0  0.55407625130E+02  0.25309005632E+02  0.40096249844E+02  0.11513648285E+03  0.89096294780E+02 0.  0.
          5    1    3    3  502    0  0.38447565407E+02 -0.19306319678E+02  0.58695176920E+02  0.72894070122E+02  0.41800000000E+01 0.  1.
         -5    1    3    3    0  502 -0.93855190537E+02 -0.60026859536E+01  0.79682624183E+02  0.12333540459E+03  0.41800000000E+01 0.  1.
        -11    1    4    4    0    0  0.57222600449E+02  0.23555795300E+01  0.61260706193E+02  0.83862082495E+02  0.00000000000E+00 0.  1.
         11    1    4    4    0    0 -0.18149753185E+01  0.22953426102E+02 -0.21164456349E+02  0.31274400358E+02  0.00000000000E+00 0. -1.
</event>
<event>
 8    1  0.6760442E-009  0.1664936E+03  0.7561462E-02  0.1181555E+00
          2   -1    0    0  501    0  0.00000000000E+00  0.00000000000E+00  0.25947552126E+03  0.25947552126E+03  0.00000000000E+00 0. -1.
         -2   -1    0    0    0  501 -0.00000000000E+00 -0.00000000000E+00 -0.14520558108E+03  0.14520558108E+03  0.00000000000E+00 0.  1.
         25    2    1    2    0    0 -0.44629620157E+01 -0.15993676007E+03  0.52576721035E+02  0.20978774194E+03  0.12508756861E+03 0.  0.
         23    2    1    2    0    0  0.44629620157E+01  0.15993676007E+03  0.61693219142E+02  0.19489336041E+03  0.92615783706E+02 0.  0.
          5    1    3    3  502    0  0.20159119134E+02 -0.28273764015E+02  0.66418057074E+02  0.75064149375E+02  0.41800000000E+01 0.  1.
         -5    1    3    3    0  502 -0.24622081150E+02 -0.13166299605E+03 -0.13841336040E+02  0.13472359256E+03  0.41800000000E+01 0.  1.
        -11    1    4    4    0    0 -0.12618800996E+02  0.25167715353E+02 -0.21651771020E+02  0.35516858293E+02  0.00000000000E+00 0.  1.
         11    1    4    4    0    0  0.17081763012E+02  0.13476904471E+03  0.83344990162E+02  0.15937650211E+03  0.00000000000E+00 0. -1.
</event>
<event>
 8    1  0.6760442E-009  0.1056972E+03  0.7561462E-02  0.1268752E+00
         -2   -1    0    0    0  501 -0.00000000000E+00  0.00000000000E+00  0.16506264002E+03  0.16506264002E+03  0.00000000000E+00 0.  1.
          2   -1    0    0  501    0  0.00000000000E+00 -0.00000000000E+00 -0.12078785829E+03  0.12078785829E+03  0.00000000000E+00 0. -1.
         25    2    1    2    0    0 -0.65177453635E+02  0.62435348796E+02  0.23756756866E+02  0.15605596135E+03  0.12507120506E+03 0.  0.
         23    2    1    2    0    0  0.65177453635E+02 -0.62435348796E+02  0.20518024869E+02  0.12979453696E+03  0.90990984384E+02 0.  0.
          5    1    3    3  502    0 -0.72721588425E+02  0.74663785286E+02 -0.23126142854E+02  0.10684288062E+03  0.41800000000E+01 0.  1.
         -5    1    3    3    0  502  0.75441347895E+01 -0.12228436491E+02  0.46882899720E+02  0.49213080730E+02  0.41800000000E+01 0.  1.
        -11    1    4    4    0    0  0.12705083348E+02 -0.23730159774E+02  0.51115159058E+02  0.57769361354E+02  0.00000000000E+00 0.  1.
         11    1    4    4    0    0  0.52472370287E+02 -0.38705189022E+02 -0.30597134189E+02  0.72025175608E+02  0.00000000000E+00 0. -1.
</event>
<event>
 8    1  0.6760442E-009  0.1140627E+03  0.7561462E-02  0.1253226E+00
          1   -1    0    0  501    0  0.00000000000E+00  0.00000000000E+00  0.35168587358E+03  0.35168587358E+03  0.00000000000E+00 0. -1.
         -1   -1    0    0    0  501 -0.00000000000E+00 -0.00000000000E+00 -0.78522810195E+02  0.78522810195E+02  0.00000000000E+00 0.  1.
         25    2    1    2    0    0  0.10576149135E+03 -0.38367049159E+01  0.58690136670E+02  0.17404565047E+03  0.12508854043E+03 0.  0.
         23    2    1    2    0    0 -0.10576149135E+03  0.38367049159E+01  0.21447292671E+03  0.25616303331E+03  0.91764099646E+02 0.  0.
          5    1    3    3  502    0  0.27513025512E+02  0.54970799073E+00  0.86432698261E+02  0.90803923266E+02  0.41800000000E+01 0. -1.
         -5    1    3    3    0  502  0.78248465835E+02 -0.43864129066E+01 -0.27742561591E+02  0.83241727201E+02  0.41800000000E+01 0. -1.
        -11    1    4    4    0    0 -0.53899480304E+02  0.32111251341E+02  0.17290014004E+03  0.18393135911E+03  0.00000000000E+00 0. -1.
         11    1    4    4    0    0 -0.51862011042E+02 -0.28274546425E+02  0.41572786671E+02  0.72231674192E+02  0.00000000000E+00 0.  1.
</event>
<event>
 8    1  0.6760442E-009  0.9592887E+02  0.7561462E-02  0.1289098E+00
         -1   -1    0    0    0  501 -0.00000000000E+00  0.00000000000E+00  0.31893622723E+02  0.31893622723E+02  0.00000000000E+00 0.  1.
          1   -1    0    0  501    0  0.00000000000E+00 -0.00000000000E+00 -0.54448948738E+03  0.54448948738E+03  0.00000000000E+00 0. -1.
         25    2    1    2    0    0 -0.31881474168E+02 -0.40620551676E+02 -0.39008052883E+03  0.41288879733E+03  0.12509149603E+03 0.  0.
         23    2    1    2    0    0  0.31881474168E+02  0.40620551676E+02 -0.12251533583E+03  0.16349431277E+03  0.95152116007E+02 0.  0.
          5    1    3    3  502    0  0.12825659150E+02  0.39189736863E+02 -0.15930417691E+03  0.16460749129E+03  0.41800000000E+01 0. -1.
         -5    1    3    3    0  502 -0.44707133318E+02 -0.79810288539E+02 -0.23077635191E+03  0.24828130604E+03  0.41800000000E+01 0. -1.
        -11    1    4    4    0    0  0.92372088650E+01  0.34017746605E+02  0.33773659500E+01  0.35411011175E+02  0.00000000000E+00 0.  1.
         11    1    4    4    0    0  0.22644265303E+02  0.66028050714E+01 -0.12589270178E+03  0.12808330159E+03  0.00000000000E+00 0. -1.
</event>
<event>
 7    1  0.6760442E-009  0.1233080E+03  0.7561462E-02  0.1237738E+00
         -1   -1    0    0    0  501 -0.00000000000E+00  0.00000000000E+00  0.52012497460E+02  0.52012497460E+02  0.00000000000E+00 0.  1.
          1   -1    0    0  501    0  0.00000000000E+00 -0.00000000000E+00 -0.40218313272E+03  0.40218313272E+03  0.00000000000E+00 0. -1.
         23    2    1    2    0    0 -0.74218391336E+02  0.50699011768E+02 -0.97333669721E+02  0.15827288102E+03  0.86589272995E+02 0.  0.
          5    1    1    2  502    0  0.75772201283E+02 -0.35693788024E+01 -0.58449907886E+02  0.95854217874E+02  0.41800000000E+01 0.  1.
         -5    1    1    2    0  502 -0.15538099476E+01 -0.47129632965E+02 -0.19438705765E+03  0.20006853129E+03  0.41800000000E+01 0.  1.
        -11    1    3    3    0    0 -0.93111161537E+02  0.38148847850E+02 -0.88251438068E+02  0.13384072368E+03  0.00000000000E+00 0. -1.
         11    1    3    3    0    0  0.18892770201E+02  0.12550163918E+02 -0.90822316536E+01  0.24432157335E+02  0.00000000000E+00 0.  1.
</event>
<event>
 8    1  0.6760442E-009  0.9173455E+02  0.7561462E-02  0.1298705E+00
          1   -1    0    0  501    0  0.00000000000E+00  0.00000000000E+00  0.12528470621E+03  0.12528470621E+03  0.00000000000E+00 0. -1.
         -1   -1    0    0    0  501 -0.00000000000E+00 -0.00000000000E+00 -0.94954883113E+02  0.94954883113E+02  0.00000000000E+00 0.  1.
         25    2    1    2    0    0  0.16244393849E+02  0.90684437810E+01  0.25431894975E+02  0.12900336447E+03  0.12509584229E+03 0.  0.
         23    2    1    2    0    0 -0.16244393849E+02 -0.90684437810E+01  0.48979281219E+01  0.91236224856E+02  0.89184875522E+02 0.  0.
          5    1    3    3  502    0  0.64416104089E+02 -0.35031453969E+01 -0.13037871535E+02  0.65948199276E+02  0.41800000000E+01 0.  1.
         -5    1    3    3    0  502 -0.48171710240E+02  0.12571589178E+02  0.38469766510E+02  0.63055165191E+02  0.41800000000E+01 0.  1.
        -11    1    4    4    0    0  0.25348453319E+02 -0.10023855691E+02 -0.27337681884E+02  0.38605318537E+02  0.00000000000E+00 0.  1.
         11    1    4    4    0    0 -0.41592847168E+02  0.95541191030E+00  0.32235610006E+02  0.52630906319E+02  0.00000000000E+00 0. -1.
</event>
<event>
 8    1  0.6760442E-009  0.1239012E+03  0.7561462E-02  0.1236797E+00
         -2   -1    0    0    0  501 -0.00000000000E+00  0.00000000000E+00  0.39951588099E+02  0.39951588099E+02  0.00000000000E+00 0.  1.
          2   -1    0    0  501    0  0.00000000000E+00 -0.00000000000E+00 -0.79059886340E+03  0.79059886340E+03  0.00000000000E+00 0. -1.
         25    2    1    2    0    0  0.48583488744E+01  0.11597242892E+03 -0.20911249302E+03  0.26990657059E+03  0.12509322240E+03 0.  0.
         23    2    1    2    0    0 -0.48583488744E+01 -0.11597242892E+03 -0.54153478228E+03  0.56064388091E+03  0.87111612058E+02 0.  0.
          5    1    3    3  502    0 -0.44256260916E+01  0.86231462067E+02 -0.22020978851E+03  0.23656980909E+03  0.41800000000E+01 0.  1.
         -5    1    3    3    0  502  0.92839749660E+01  0.29740966850E+02  0.11097295491E+02  0.33336761503E+02  0.41800000000E+01 0.  1.
        -11    1    4    4    0    0 -0.31131385108E+02 -0.49879940785E+02 -0.12571709943E+03  0.13878746600E+03  0.00000000000E+00 0.  1.
         11    1    4    4    0    0  0.26273036233E+02 -0.66092488131E+02 -0.41581768286E+03  0.42185641491E+03  0.00000000000E+00 0. -1.
</event>
<event>
 8    1  0.6760442E-009  0.6242678E+02  0.7561462E-02  0.1387921E+00
          2   -1    0    0  501    0  0.00000000000E+00  0.00000000000E+00  0.39927290933E+02  0.39927290933E+02  0.00000000000E+00 0. -1.
         -2   -1    0    0    0  501 -0.00000000000E+00 -0.00000000000E+00 -0.33125962597E+03  0.33125962597E+03  0.00000000000E+00 0.  1.
         25    2    1    2    0    0  0.93727321526E+01 -0.25515170936E+02 -0.11499082022E+03  0.17208348866E+03  0.12510382199E+03 0.  0.
         23    2    1    2    0    0 -0.93727321526E+01  0.25515170936E+02 -0.17634151481E+03  0.19910342824E+03  0.88357078019E+02 0.  0.
          5    1    3    3  502    0  0.14490265654E+02 -0.16431877985E+02 -0.14152400203E+03  0.14327068773E+03  0.41800000000E+01 0.  1.
         -5    1    3    3    0  502 -0.51175335011E+01 -0.90832929511E+01  0.26533181810E+02  0.28812800922E+02  0.41800000000E+01 0.  1.
        -11    1    4    4    0    0  0.24619001649E+02  0.45610151239E+02 -0.11515265938E+03  0.12627951576E+03  0.00000000000E+00 0.  1.
         11    1    4    4    0    0 -0.33991733802E+02 -0.20094980303E+02 -0.61188855430E+02  0.72823912481E+02  0.00000000000E+00 0. -1.
</event>
<event>
 8    1  0.6760442E-009  0.8256784E+02  0.7561462E-02  0.1321918E+00
          2   -1    0    0  501    0  0.00000000000E+00  0.00000000000E+00  0.54638054508E+02  0.54638054508E+02  0.00000000000E+00 0. -1.
         -2   -1    0    0    0  501 -0.00000000000E+00 -0.00000000000E+00 -0.24805904911E+03  0.24805904911E+03  0.00000000000E+00 0.  1.
         25    2    1    2    0    0 -0.35519163278E+02  0.19831461825E+02 -0.97488258814E+02  0.16372304617E+03  0.12508548038E+03 0.  0.
         23    2    1    2    0    0  0.35519163278E+02 -0.19831461825E+02 -0.95932735790E+02  0.13897405745E+03  0.91955429475E+02 0.  0.
          5    1    3    3  502    0 -0.23947139165E+02  0.57088311689E+02 -0.38163192508E+01  0.62165726074E+02  0.41800000000E+01 0.  1.
         -5    1    3    3    0  502 -0.11572024113E+02 -0.37256849864E+02 -0.93671939563E+02  0.10155732010E+03  0.41800000000E+01 0.  1.
        -11    1    4    4    0    0  0.46156662454E+02 -0.62164275090E+01 -0.54901212212E+01  0.46895872855E+02  0.00000000000E+00 0. -1.
         11    1    4    4    0    0 -0.10637499176E+02 -0.13615034316E+02 -0.90442614569E+02  0.92078184594E+02  0.00000000000E+00 0.  1.
</event>
<event>
 8    1  0.6760442E-009  0.8549466E+02  0.7561462E-02  0.1314144E+00
          1   -1    0    0  501    0  0.00000000000E+00  0.00000000000E+00  0.12716048066E+04  0.12716048066E+04  0.00000000000E+00 0. -1.
         -1   -1    0    0    0  501 -0.00000000000E+00 -0.00000000000E+00 -0.12578993162E+02  0.12578993162E+02  0.00000000000E+00 0.  1.
         25    2    1    2    0    0 -0.11650496618E+02 -0.74487366270E-02  0.10227376038E+04  0.10304246341E+04  0.12508791391E+03 0.  0.
         23    2    1    2    0    0  0.11650496618E+02  0.74487366270E-02  0.23628820967E+03  0.25375916569E+03  0.91792494339E+02 0.  0.
          5    1    3    3  502    0 -0.32059623931E+02  0.30855915833E+02  0.92105113796E+03  0.92213479392E+03  0.41800000000E+01 0. -1.
         -5    1    3    3    0  502  0.20409127313E+02 -0.30863364569E+02  0.10168646583E+03  0.10828984017E+03  0.41800000000E+01 0. -1.
        -11    1    4    4    0    0 -0.26127408838E+02  0.30752742593E+02  0.73605524353E+02  0.83941324060E+02  0.00000000000E+00 0.  1.
         11    1    4    4    0    0  0.37777905457E+02 -0.30745293856E+02  0.16268268531E+03  0.16981784163E+03  0.00000000000E+00 0. -1.
</event>
<event>
 8    1  0.6760442E-009  0.1449671E+03  0.7561462E-02  0.1206797E+00
          1   -1    0    0  501    0  0.00000000000E+00  0.00000000000E+00  0.60780713378E+02  0.60780713378E+02  0.00000000000E+00 0. -1.
         -1   -1    0    0    0  501 -0.00000000000E+00 -0.00000000000E+00 -0.42247955150E+03  0.42247955150E+03  0.00000000000E+00 0.  1.
         25    2    1    2    0    0  0.52586434721E+02 -0.10610296652E+03 -0.19183915771E+03  0.25782327035E+03  0.12508958263E+03 0.  0.
         23    2    1    2    0    0 -0.52586434721E+02  0.10610296652E+03 -0.16985968042E+03  0.22543699453E+03  0.89142329170E+02 0.  0.
          5    1    3    3  502    0  0.92988832983E+02 -0.64483168267E+02 -0.11424958007E+03  0.16085845019E+03  0.41800000000E+01 0. -1.
         -5    1    3    3    0  502 -0.40402398262E+02 -0.41619798256E+02 -0.77589577634E+02  0.96964820165E+02  0.41800000000E+01 0. -1.
        -11    1    4    4    0    0 -0.31899513763E+02  0.58325010896E+02 -0.15888048900E+03  0.17222774358E+03  0.00000000000E+00 0. -1.
         11    1    4    4    0    0 -0.20686920957E+02  0.47777955627E+02 -0.10979191420E+02  0.53209250951E+02  0.00000000000E+00 0.  1.
</event>
<event>
 8    1  0.6760442E-009  0.6815654E+02  0.7561462E-02  0.1366476E+00
         -1   -1    0    0    0  501 -0.00000000000E+00  0.00000000000E+00  0.13282569784E+03  0.13282569784E+03  0.00000000000E+00 0.  1.
          1   -1    0    0  501    0  0.00000000000E+00 -0.00000000000E+00 -0.13593533483E+03  0.13593533483E+03  0.00000000000E+00 0. -1.
         25    2    1    2    0    0  0.10247952810E+02 -0.30240808403E+02  0.73760346609E+02  0.14864454661E+03  0.12504033539E+03 0.  0.
         23    2    1    2    0    0 -0.10247952810E+02  0.30240808403E+02 -0.76869983598E+02  0.12011648606E+03  0.86599358055E+02 0.  0.
          5    1    3    3  502    0  0.58969091862E+00  0.98364355034E+01 -0.32698586784E+02  0.34406004947E+02  0.41800000000E+01 0. -1.
         -5    1    3    3    0  502  0.96582618912E+01 -0.40077243906E+02  0.10645893339E+03  0.11423854166E+03  0.41800000000E+01 0. -1.
        -11    1    4    4    0    0  0.25322352142E+02  0.39951984489E+02 -0.66877258083E+02  0.81914285881E+02  0.00000000000E+00 0. -1.
         11    1    4    4    0    0 -0.35570304952E+02 -0.97111760867E+01 -0.99927255150E+01  0.38202200180E+02  0.00000000000E+00 0.  1.
</event>
<event>
 8    1  0.6760442E-009  0.1102333E+03  0.7561462E-02  0.1260138E+00
         -1   -1    0    0    0  501 -0.00000000000E+00  0.00000000000E+00  0.40682772018E+03  0.40682772018E+03  0.00000000000E+00 0.  1.
          1   -1    0    0  501    0  0.00000000000E+00 -0.00000000000E+00 -0.53952968778E+02  0.53952968778E+02  0.00000000000E+00 0. -1.
         25    2    1    2    0    0 -0.92706037100E+02 -0.12405879960E+01  0.26854687691E+03  0.31042096136E+03  0.12509116589E+03 0.  0.
         23    2    1    2    0    0  0.92706037100E+02  0.12405879960E+01  0.84327874496E+02  0.15035972759E+03  0.83071709336E+02 0.  0.
          5    1    3    3  502    0 -0.20567072167E+02  0.28234857375E+02  0.20982892097E+03  0.21275774981E+03  0.41800000000E+01 0. -1.
         -5    1    3    3    0  502 -0.72138964933E+02 -0.29475445371E+02  0.58717955933E+02  0.97663211550E+02  0.41800000000E+01 0. -1.
        -11    1    4    4    0    0  0.48694565999E+02  0.27571872812E+02  0.53814058584E+01  0.56216798710E+02  0.00000000000E+00 0. -1.
         11    1    4    4    0    0  0.44011471101E+02 -0.26331284816E+02  0.78946468637E+02  0.94142928884E+02  0.00000000000E+00 0.  1.
</event>
<event>
 8    1  0.6760442E-009  0.1461994E+03  0.7561462E-02  0.1205223E+00
          2   -1    0    0  501    0  0.00000000000E+00  0.00000000000E+00  0.78066385253E+03  0.78066385253E+03  0.00000000000E+00 0. -1.
         -2   -1    0    0    0  501 -0.00000000000E+00 -0.00000000000E+00 -0.38406942268E+02  0.38406942268E+02  0.00000000000E+00 0.  1.
         25    2    1    2    0    0 -0.86758880167E+02 -0.90413067698E+02  0.50920106160E+03  0.53910631981E+03  0.12509307263E+03 0.  0.
         23    2    1    2    0    0  0.86758880167E+02  0.90413067698E+02  0.23305584866E+03  0.27996447499E+03  0.91451913944E+02 0.  0.
          5    1    3    3  502    0  0.15656698367E+02  0.13354142163E+02  0.21464356359E+02  0.30027592487E+02  0.41800000000E+01 0. -1.
         -5    1    3    3    0  502 -0.10241557853E+03 -0.10376720986E+03  0.48773670524E+03  0.50907872732E+03  0.41800000000E+01 0. -1.
        -11    1    4    4    0    0  0.62925103713E+02  0.60441260045E+02  0.68264477700E+02  0.11078246029E+03  0.00000000000E+00 0.  1.
         11    1    4    4    0    0  0.23833776454E+02  0.29971807652E+02  0.16479137096E+03  0.16918201470E+03  0.00000000000E+00 0. -1.
</event>
<event>
 8    1  0.6760442E-009  0.1113372E+03  0.7561462E-02  0.1258113E+00
          2   -1    0    0  501    0  0.00000000000E+00  0.00000000000E+00  0.60637389570E+03  0.60637389570E+03  0.00000000000E+00 0. -1.
         -2   -1    0    0    0  501 -0.00000000000E+00 -0.00000000000E+00 -0.21657350659E+02  0.21657350659E+02  0.00000000000E+00 0.  1.
         25    2    1    2    0    0  0.12159368825E+02 -0.29254938402E+02  0.34411190857E+03  0.36750985245E+03  0.12508710707E+03 0.  0.
         23    2    1    2    0    0 -0.12159368825E+02  0.29254938402E+02  0.24060463647E+03  0.26052139391E+03  0.94747580039E+02 0.  0.
          5    1    3    3  502    0 -0.55373891472E+02 -0.87613361520E+00  0.15632667299E+03  0.16589917587E+03  0.41800000000E+01 0.  1.
         -5    1    3    3    0  502  0.67533260297E+02 -0.28378804786E+02  0.18778523558E+03  0.20161067657E+03  0.41800000000E+01 0.  1.
        -11    1    4    4    0    0  0.27309661683E+02  0.43869487684E+02  0.86381142518E+02  0.10065809135E+03  0.00000000000E+00 0.  1.
         11    1    4    4    0    0 -0.39469030508E+02 -0.14614549282E+02  0.15422349395E+03  0.15986330256E+03  0.00000000000E+00 0. -1.
</event>
<event>
 7    1  0.6760442E-009  0.1368071E+03  0.7561462E-02  0.1217691E+00
          2   -1    0    0  501    0  0.00000000000E+00  0.00000000000E+00  0.55654395926E+03  0.55654395926E+03  0.00000000000E+00 0. -1.
         -2   -1    0    0    0  501 -0.00000000000E+00 -0.00000000000E+00 -0.37105416976E+02  0.37105416976E+02  0.00000000000E+00 0.  1.
         23    2    1    2    0    0 -0.25918314742E+02  0.84472975959E+02  0.16821653557E+03  0.21051024596E+03  0.90610805702E+02 0.  0.
          5    1    1    2  502    0 -0.23471406556E+02 -0.98598639560E+02  0.23989134854E+03  0.26045715608E+03  0.41800000000E+01 0.  1.
         -5    1    1    2    0  502  0.49389721298E+02  0.14125663601E+02  0.11133065818E+03  0.12268197420E+03  0.41800000000E+01 0.  1.
        -11    1    3    3    0    0 -0.42628581528E+02  0.92682839011E+02  0.11299190166E+03  0.15223164734E+03  0.00000000000E+00 0.  1.
         11    1    3    3    0    0  0.16710266786E+02 -0.82098630520E+01  0.55224633907E+02  0.58278598624E+02  0.00000000000E+00 0. -1.
</event>
<event>
 8    1  0.6760442E-009  0.1016852E+03  0.7561462E-02  0.1276792E+00
          1   -1    0    0  501    0  0.00000000000E+00  0.00000000000E+00  0.14364488893E+03  0.14364488893E+03  0.00000000000E+00 0. -1.
         -1   -1    0    0    0  501 -0.00000000000E+00 -0.00000000000E+00 -0.15816915304E+03  0.15816915304E+03  0.00000000000E+00 0.  1.
         25    2    1    2    0    0  0.45583670620E+02 -0.75374365433E+02  0.43613188075E+02  0.15908723399E+03  0.12508985512E+03 0.  0.
         23    2    1    2    0    0 -0.45583670620E+02  0.75374365433E+02 -0.58137452183E+02  0.14272680798E+03  0.96082320846E+02 0.  0.
          5    1    3    3  502    0  0.33830106237E+02 -0.40517181707E+02  0.87127347552E+02  0.10195472129E+03  0.41800000000E+01 0.  1.
         -5    1    3    3    0  502  0.11753564382E+02 -0.34857183726E+02 -0.43514159477E+02  0.57132512705E+02  0.41800000000E+01 0.  1.
        -11    1    4    4    0    0 -0.51379333534E+02  0.86640770092E+02 -0.20207224072E+02  0.10273651182E+03  0.00000000000E+00 0. -1.
         11    1    4    4    0    0  0.57956629146E+01 -0.11266404659E+02 -0.37930228111E+02  0.39990296162E+02  0.00000000000E+00 0.  1.
</event>
<event>
 8    1  0.6760442E-009  0.7957976E+02  0.7561462E-02  0.1330248E+00
         -2   -1    0    0    0  501 -0.00000000000E+00  0.00000000000E+00  0.19080170776E+02  0.19080170776E+02  0.00000000000E+00 0. -1.
          2   -1    0    0  501    0  0.00000000000E+00 -0.00000000000E+00 -0.63758453836E+03  0.63758453836E+03  0.00000000000E+00 0.  1.
         25    2    1    2    0    0  0.14932731734E+01 -0.55075417861E+01 -0.40760569883E+03  0.42640454357E+03  0.12508343686E+03 0.  0.
         23    2    1    2    0    0 -0.14932731734E+01  0.55075417861E+01 -0.21089866875E+03  0.23026016557E+03  0.92243875042E+02 0.  0.
          5    1    3    3  502    0  0.15054248496E+02 -0.34417411977E+02 -0.38548671159E+03  0.38733534032E+03  0.41800000000E+01 0.  1.
         -5    1    3    3    0  502 -0.13560975323E+02  0.28909870191E+02 -0.22118987234E+02  0.39069203248E+02  0.41800000000E+01 0.  1.
        -11    1    4    4    0    0 -0.45143734224E+02  0.57305217560E+01 -0.77174100214E+02  0.89591502740E+02  0.00000000000E+00 0.  1.
         11    1    4    4    0    0  0.43650461051E+02 -0.22297996982E+00 -0.13372456854E+03  0.14066866283E+03  0.00000000000E+00 0. -1.
</event>
<event>
 8    1  0.6760442E-009  0.7723476E+02  0.7561462E-02  0.1337087E+00
          2   -1    0    0  501    0  0.00000000000E+00  0.00000000000E+00  0.20379107660E+03  0.20379107660E+03  0.00000000000E+00 0. -1.
         -2   -1    0    0    0  501 -0.00000000000E+00 -0.00000000000E+00 -0.64864078313E+02  0.64864078313E+02  0.00000000000E+00 0.  1.
         25    2    1    2    0    0  0.12087517258E+02  0.15768568370E+02  0.37705368001E+02  0.13214913892E+03  0.12508774648E+03 0.  0.
         23    2    1    2    0    0 -0.12087517258E+02 -0.15768568370E+02  0.10122163029E+03  0.13650601600E+03  0.89405358586E+02 0.  0.
          5    1    3    3  502    0  0.56619744217E+00 -0.28409099220E+02 -0.35567365834E+02  0.45715505142E+02  0.41800000000E+01 0. -1.
         -5    1    3    3    0  502  0.11521319816E+02  0.44177667590E+02  0.73272733835E+02  0.86433633775E+02  0.41800000000E+01 0. -1.
        -11    1    4    4    0    0 -0.16900956975E+02 -0.46147380516E+02  0.26796564296E+02  0.55975699489E+02  0.00000000000E+00 0.  1.
         11    1    4    4    0    0  0.48134397170E+01  0.30378812146E+02  0.74425065993E+02  0.80530316511E+02  0.00000000000E+00 0. -1.
</event>
<event>
 8    1  0.6760442E-009  0.9483159E+02  0.7561462E-02  0.1291556E+00
          2   -1    0    0  501    0  0.00000000000E+00  0.00000000000E+00  0.33813803004E+03  0.33813803004E+03  0.00000000000E+00 0. -1.
         -2   -1    0    0    0  501 -0.00000000000E+00 -0.00000000000E+00 -0.91870521829E+02  0.91870521829E+02  0.00000000000E+00 0.  1.
         25    2    1    2    0    0 -0.27557969522E+02  0.42277525520E+01 -0.35300877436E+02  0.13293201696E+03  0.12508978219E+03 0.  0.
         23    2    1    2    0    0  0.27557969522E+02 -0.42277525520E+01  0.28156838564E+03  0.29707653491E+03  0.90533950658E+02 0.  0.
          5    1    3    3  502    0  0.10590521437E+02 -0.39774622729E+02 -0.57182640896E+02  0.70579788732E+02  0.41800000000E+01 0.  1.
         -5    1    3    3    0  502 -0.38148490959E+02  0.44002375281E+02  0.21881763461E+02  0.62352228228E+02  0.41800000000E+01 0.  1.
        -11    1    4    4    0    0  0.21514235870E+02  0.39918226554E+02  0.95096614951E+02  0.10535508213E+03  0.00000000000E+00 0.  1.
         11    1    4    4    0    0  0.60437336517E+01 -0.44145979106E+02  0.18647177069E+03  0.19172145277E+03  0.00000000000E+00 0. -1.
</event>
<event>
 8    1  0.6760442E-009  0.9873710E+02  0.7561462E-02  0.1282974E+00
         -2   -1    0    0    0  501 -0.00000000000E+00  0.00000000000E+00  0.42929465524E+02  0.42929465524E+02  0.00000000000E+00 0.  1.
          2   -1    0    0  501    0  0.00000000000E+00 -0.00000000000E+00 -0.39149815696E+03  0.39149815696E+03  0.00000000000E+00 0. -1.
         25    2    1    2    0    0 -0.53295126864E+02  0.44494562461E+02 -0.16399421186E+03  0.21762862613E+03  0.12509188924E+03 0.  0.
         23    2    1    2    0    0  0.53295126864E+02 -0.44494562461E+02 -0.18457447958E+03  0.21679899635E+03  0.90077353816E+02 0.  0.
          5    1    3    3  502    0 -0.44925611829E+02 -0.25909507927E+02 -0.12765080233E+03  0.13784706357E+03  0.41800000000E+01 0. -1.
         -5    1    3    3    0  502 -0.83695150352E+01  0.70404070387E+02 -0.36343409524E+02  0.79781562562E+02  0.41800000000E+01 0. -1.
        -11    1    4    4    0    0  0.26581023244E+02 -0.54839013995E+01 -0.92036871871E+00  0.27156418207E+02  0.00000000000E+00 0.  1.
         11    1    4    4    0    0  0.26714103620E+02 -0.39010661061E+02 -0.18365411086E+03  0.18964257815E+03  0.00000000000E+00 0. -1.
</event>
<event>
 8    1  0.6760442E-009  0.9613917E+02  0.7561462E-02  0.1288631E+00
         -1   -1    0    0    0  501 -0.00000000000E+00  0.00000000000E+00  0.63821869776E+02  0.63821869776E+02  0.00000000000E+00 0.  1.
          1   -1    0    0  501    0  0.00000000000E+00 -0.00000000000E+00 -0.26337427977E+03  0.26337427977E+03  0.00000000000E+00 0. -1.
         25    2    1    2    0    0 -0.32360962584E+02  0.50230200789E+02 -0.16086231679E+03  0.21235212515E+03  0.12508571111E+03 0.  0.
         23    2    1    2    0    0  0.32360962584E+02 -0.50230200789E+02 -0.38690093203E+02  0.11484402439E+03  0.90121704689E+02 0.  0.
          5    1    3    3  502    0  0.39706901028E+02  0.48502809378E+01 -0.14103835501E+02  0.42621048676E+02  0.41800000000E+01 0. -1.
         -5    1    3    3    0  502 -0.72067863612E+02  0.45379919851E+02 -0.14675848129E+03  0.16973107647E+03  0.41800000000E+01 0. -1.
        -11    1    4    4    0    0  0.26566766382E+01 -0.31634508959E+02  0.26156591372E+02  0.41133530848E+02  0.00000000000E+00 0.  1.
         11    1    4    4    0    0  0.29704285945E+02 -0.18595691830E+02 -0.64846684575E+02  0.73710493544E+02  0.00000000000E+00 0. -1.
</event>
<event>
 8    1  0.6760442E-009  0.1738996E+03  0.7561462E-02  0.1173841E+00
          1   -1    0    0  501    0  0.00000000000E+00  0.00000000000E+00  0.83950021890E+02  0.83950021890E+02  0.00000000000E+00 0. -1.
         -1   -1    0    0    0  501 -0.00000000000E+00 -0.00000000000E+00 -0.51244857813E+03  0.51244857813E+03  0.00000000000E+00 0.  1.
         25    2    1    2    0    0  0.14030117962E+03 -0.62687742642E+02 -0.96938588366E+02  0.22058795159E+03  0.12509108838E+03 0.  0.
         23    2    1    2    0    0 -0.14030117962E+03  0.62687742642E+02 -0.33155996787E+03  0.37581064843E+03  0.87678144924E+02 0.  0.
          5    1    3    3  502    0 -0.48655121963E+00  0.18746940442E+02 -0.46402771839E+02  0.50223243049E+02  0.41800000000E+01 0. -1.
         -5    1    3    3    0  502  0.14078773084E+03 -0.81434683084E+02 -0.50535816527E+02  0.17036470854E+03  0.41800000000E+01 0. -1.
        -11    1    4    4    0    0 -0.69011876053E+02 -0.28240719964E+01 -0.20591120893E+03  0.21718664872E+03  0.00000000000E+00 0.  1.
         11    1    4    4    0    0 -0.71289303565E+02  0.65511814638E+02 -0.12564875894E+03  0.15862399971E+03  0.00000000000E+00 0. -1.
</event>
<event>
 8    1  0.6760442E-009  0.1637487E+03  0.7561462E-02  0.1184528E+00
         -1   -1    0    0    0  501 -0.00000000000E+00  0.00000000000E+00  0.46742268851E+02  0.46742268851E+02  0.00000000000E+00 0.  1.
          1   -1    0    0  501    0  0.00000000000E+00 -0.00000000000E+00 -0.81704076859E+03  0.81704076859E+03  0.00000000000E+00 0. -1.
         25    2    1    2    0    0  0.10243086877E+03 -0.70872676766E+02 -0.19265345591E+03  0.26129870455E+03  0.12508652901E+03 0.  0.
         23    2    1    2    0    0 -0.10243086877E+03  0.70872676766E+02 -0.57764504383E+03  0.60248433288E+03  0.11746725299E+03 0.  0.
          5    1    3    3  502    0  0.92676163214E+01 -0.73104304346E+02 -0.44383123161E+02  0.86124688956E+02  0.41800000000E+01 0.  1.
         -5    1    3    3    0  502  0.93163252445E+02  0.22316275794E+01 -0.14827033275E+03  0.17517401560E+03  0.41800000000E+01 0.  1.
        -11    1    4    4    0    0 -0.97717443819E+02  0.94724151044E+02 -0.54526736821E+03  0.56199454308E+03  0.00000000000E+00 0. -1.
         11    1    4    4    0    0 -0.47134249480E+01 -0.23851474278E+02 -0.32377675619E+02  0.40489789805E+02  0.00000000000E+00 0.  1.
</event>
<event>
 8    1  0.6760442E-009  0.1253596E+03  0.7561462E-02  0.1234508E+00
         -2   -1    0    0    0  501 -0.00000000000E+00  0.00000000000E+00  0.49079099526E+02  0.49079099526E+02  0.00000000000E+00 0.  1.
          2   -1    0    0  501    0  0.00000000000E+00 -0.00000000000E+00 -0.41689633382E+03  0.41689633382E+03  0.00000000000E+00 0. -1.
         25    2    1    2    0    0 -0.79482831725E+01 -0.79689015757E+02 -0.27786232209E+03  0.31506848796E+03  0.12508863909E+03 0.  0.
         23    2    1    2    0    0  0.79482831725E+01  0.79689015757E+02 -0.89954912200E+02  0.15090694538E+03  0.90925824157E+02 0.  0.
          5    1    3    3  502    0  0.56481038938E+02 -0.21981994495E+02 -0.95422449922E+02  0.11312043224E+03  0.41800000000E+01 0. -1.
         -5    1    3    3    0  502 -0.64429322110E+02 -0.57707021262E+02 -0.18243987217E+03  0.20194805572E+03  0.41800000000E+01 0. -1.
        -11    1    4    4    0    0 -0.56472573737E+00 -0.11636832790E+02 -0.49160828248E+02  0.50522488325E+02  0.00000000000E+00 0. -1.
         11    1    4    4    0    0  0.85130089099E+01  0.91325848548E+02 -0.40794083952E+02  0.10038445706E+03  0.00000000000E+00 0.  1.
</event>
<event>
 8    1  0.6760442E-009  0.1252797E+03  0.7561462E-02  0.1234633E+00
         -2   -1    0    0    0  501 -0.00000000000E+00  0.00000000000E+00  0.13980144762E+03  0.13980144762E+03  0.00000000000E+00 0.  1.
          2   -1    0    0  501    0  0.00000000000E+00 -0.00000000000E+00 -0.13584294171E+03  0.13584294171E+03  0.00000000000E+00 0. -1.
         25    2    1    2    0    0 -0.35496620513E+02  0.66731718364E+02 -0.41094872137E+02  0.15182104174E+03  0.12509079860E+03 0.  0.
         23    2    1    2    0    0  0.35496620513E+02 -0.66731718364E+02  0.45053378040E+02  0.12382334760E+03  0.87116486577E+02 0.  0.
          5    1    3    3  502    0 -0.68390751272E+02  0.83254999161E+02 -0.39185840224E+02  0.11472441858E+03  0.41800000000E+01 0. -1.
         -5    1    3    3    0  502  0.32894130759E+02 -0.16523280797E+02 -0.19090319122E+01  0.37096623155E+02  0.41800000000E+01 0. -1.
        -11    1    4    4    0    0  0.88030396329E+01  0.16269979633E+02  0.30146498411E+02  0.35369720249E+02  0.00000000000E+00 0.  1.
         11    1    4    4    0    0  0.26693580880E+02 -0.83001697997E+02  0.14906879629E+02  0.88453627347E+02  0.00000000000E+00 0. -1.
</event>
<event>
 8    1  0.6760442E-009  0.9974080E+02  0.7561462E-02  0.1280842E+00
         -2   -1    0    0    0  501 -0.00000000000E+00  0.00000000000E+00  0.43577325265E+02  0.43577325265E+02  0.00000000000E+00 0.  1.
          2   -1    0    0  501    0  0.00000000000E+00 -0.00000000000E+00 -0.40784304623E+03  0.40784304623E+03  0.00000000000E+00 0. -1.
         25    2    1    2    0    0  0.34631380681E+02  0.69103620444E+02 -0.20944313590E+03  0.25590584781E+03  0.12508690131E+03 0.  0.
         23    2    1    2    0    0 -0.34631380681E+02 -0.69103620444E+02 -0.15482258506E+03  0.19551452368E+03  0.91001391420E+02 0.  0.
          5    1    3    3  502    0  0.28846229156E+02  0.26286842873E+02 -0.20883761475E+03  0.21249405822E+03  0.41800000000E+01 0.  1.
         -5    1    3    3    0  502  0.57851515251E+01  0.42816777571E+02 -0.60552115878E+00  0.43411789592E+02  0.41800000000E+01 0.  1.
        -11    1    4    4    0    0  0.20403169953E+02 -0.56906927719E+02 -0.10018011922E+03  0.11700745298E+03  0.00000000000E+00 0. -1.
         11    1    4    4    0    0 -0.55034550634E+02 -0.12196692725E+02 -0.54642465836E+02  0.78507070698E+02  0.00000000000E+00 0.  1.
</event>
<event>
 8    1  0.6760442E-009  0.9443979E+02  0.7561462E-02  0.1292443E+00
          3   -1    0    0  501    0  0.00000000000E+00  0.00000000000E+00  0.32188774293E+02  0.32188774293E+02  0.00000000000E+00 0. -1.
         -3   -1    0    0    0  501 -0.00000000000E+00 -0.00000000000E+00 -0.47074931914E+03  0.47074931914E+03  0.00000000000E+00 0.  1.
         25    2    1    2    0    0 -0.38604124457E+02 -0.19579341914E+01 -0.16211600154E+03  0.20838250381E+03  0.12509019949E+03 0.  0.
         23    2    1    2    0    0  0.38604124457E+02  0.19579341914E+01 -0.27644454331E+03  0.29455558962E+03  0.94060076122E+02 0.  0.
          5    1    3    3  502    0 -0.64681241742E+02 -0.38861862923E+01 -0.26378404554E+02  0.70086076392E+02  0.41800000000E+01 0.  1.
         -5    1    3    3    0  502  0.26077117285E+02  0.19282521009E+01 -0.13573759698E+03  0.13829642742E+03  0.41800000000E+01 0.  1.
        -11    1    4    4    0    0  0.66401440876E+02 -0.10102951231E+02 -0.14708887399E+03  0.16169835443E+03  0.00000000000E+00 0.  1.
         11    1    4    4    0    0 -0.27797316419E+02  0.12060885422E+02 -0.12935566932E+03  0.13285723519E+03  0.00000000000E+00 0. -1.
</event>
<event>
 8    1  0.6760442E-009  0.1396729E+03  0.7561462E-02  0.1213770E+00
          1   -1    0    0  501    0  0.00000000000E+00  0.00000000000E+00  0.18594555925E+03  0.18594555925E+03  0.00000000000E+00 0. -1.
         -1   -1    0    0    0  501 -0.00000000000E+00 -0.00000000000E+00 -0.14983543544E+03  0.14983543544E+03  0.00000000000E+00 0.  1.
         25    2    1    2    0    0  0.35241453553E+02  0.12228264636E+03  0.21757954935E+02  0.17977096403E+03  0.12509670362E+03 0.  0.
         23    2    1    2    0    0 -0.35241453553E+02 -0.12228264636E+03  0.14352168872E+02  0.15601003065E+03  0.89096235970E+02 0.  0.
          5    1    3    3  502    0  0.61346084063E+02  0.10049083750E+03  0.56778624982E+02  0.13077857281E+03  0.41800000000E+01 0.  1.
         -5    1    3    3    0  502 -0.26104630510E+02  0.21791808863E+02 -0.35020670047E+02  0.48992391227E+02  0.41800000000E+01 0.  1.
        -11    1    4    4    0    0 -0.13125483117E+02 -0.49022649737E+02  0.50307508825E+02  0.71458686935E+02  0.00000000000E+00 0. -1.
         11    1    4    4    0    0 -0.22115970436E+02 -0.73259996623E+02 -0.35955339953E+02  0.84551343719E+02  0.00000000000E+00 0.  1.
</event>
<event>
 8    1  0.6760442E-009  0.1539523E+03  0.7561462E-02  0.1195699E+00
          2   -1    0    0  501    0  0.00000000000E+00  0.00000000000E+00  0.10446021734E+04  0.10446021734E+04  0.00000000000E+00 0.  1.
         -2   -1    0    0    0  501 -0.00000000000E+00 -0.00000000000E+00 -0.32896704936E+02  0.32896704936E+02  0.00000000000E+00 0. -1.
         25    2    1    2    0    0  0.61528633017E+02  0.12654764589E+03  0.68726822557E+03  0.71259113749E+03  0.12509370888E+03 0.  0.
         23    2    1    2    0    0 -0.61528633017E+02 -0.12654764589E+03  0.32443724289E+03  0.36490774084E+03  0.89989195938E+02 0.  0.
          5    1    3    3  502    0  0.42570388570E+02  0.15445270492E+02  0.60128514934E+02  0.75390351318E+02  0.41800000000E+01 0. -1.
         -5    1    3    3    0  502  0.18958244447E+02  0.11110237540E+03  0.62713971063E+03  0.63720078618E+03  0.41800000000E+01 0. -1.
        -11    1    4    4    0    0 -0.33312887167E+02 -0.18782893349E+02  0.17143320343E+03  0.17564705740E+03  0.00000000000E+00 0.  1.
         11    1    4    4    0    0 -0.28215745850E+02 -0.10776475254E+03  0.15300403946E+03  0.18926068344E+03  0.00000000000E+00 0. -1.
</event>
<event>
 8    1  0.6760442E-009  0.9830461E+02  0.7561462E-02  0.1283902E+00
         -3   -1    0    0    0  501 -0.00000000000E+00  0.00000000000E+00  0.71258017208E+03  0.71258017208E+03  0.00000000000E+00 0.  1.
          3   -1    0    0  501    0  0.00000000000E+00 -0.00000000000E+00 -0.24274306667E+02  0.24274306667E+02  0.00000000000E+00 0. -1.
         25    2    1    2    0    0 -0.34266159165E+02  0.56321777122E+02  0.30240553241E+03  0.33383161161E+03  0.12509247235E+03 0.  0.
         23    2    1    2    0    0  0.34266159165E+02 -0.56321777122E+02  0.38590033301E+03  0.40302286714E+03  0.95718609356E+02 0.  0.
          5    1    3    3  502    0  0.50815925410E+01  0.34703357721E+02  0.28223390609E+03  0.28443557402E+03  0.41800000000E+01 0.  1.
         -5    1    3    3    0  502 -0.39347751706E+02  0.21618419401E+02  0.20171626317E+02  0.49396037594E+02  0.41800000000E+01 0.  1.
        -11    1    4    4    0    0 -0.38037552176E+01 -0.74088692561E+02  0.25056626573E+03  0.26131792216E+03  0.00000000000E+00 0.  1.
         11    1    4    4    0    0  0.38069914383E+02  0.17766915439E+02  0.13533406728E+03  0.14170494498E+03  0.00000000000E+00 0. -1.
</event>
<event>
 8    1  0.6760442E-009  0.1037041E+03  0.7561462E-02  0.1272694E+00
          2   -1    0    0  501    0  0.00000000000E+00  0.00000000000E+00  0.31279709740E+03  0.31279709740E+03  0.00000000000E+00 0. -1.
         -2   -1    0    0    0  501 -0.00000000000E+00 -0.00000000000E+00 -0.42630288190E+02  0.42630288190E+02  0.00000000000E+00 0.  1.
         25    2    1    2    0    0  0.39301687586E+02 -0.22058292750E+02  0.13984641463E+03  0.19296607347E+03  0.12509074666E+03 0.  0.
         23    2    1    2    0    0 -0.39301687586E+02  0.22058292750E+02  0.13032039457E+03  0.16246131211E+03  0.85901581856E+02 0.  0.
          5    1    3    3  502    0  0.38518726179E+02 -0.67664040970E+02  0.51477250523E+02  0.93431763487E+02  0.41800000000E+01 0.  1.
         -5    1    3    3    0  502  0.78296140661E+00  0.45605748220E+02  0.88369164109E+02  0.99534309987E+02  0.41800000000E+01 0.  1.
        -11    1    4    4    0    0  0.14825138419E+02 -0.12519443343E+02  0.27018562663E+01  0.19591355697E+02  0.00000000000E+00 0.  1.
         11    1    4    4    0    0 -0.54126826004E+02  0.34577736093E+02  0.12761853831E+03  0.14286995642E+03  0.00000000000E+00 0. -1.
</event>
<event>
 8    1  0.6760442E-009  0.1047499E+03  0.7561462E-02  0.1270613E+00
         -1   -1    0    0    0  501 -0.00000000000E+00  0.00000000000E+00  0.14298030478E+04  0.14298030478E+04  0.00000000000E+00 0.  1.
          1   -1    0    0  501    0  0.00000000000E+00 -0.00000000000E+00 -0.12632733351E+02  0.12632733351E+02  0.00000000000E+00 0. -1.
         25    2    1    2    0    0  0.66422143202E+02 -0.14760884209E+02  0.10195080384E+04  0.10294041736E+04  0.12508607987E+03 0.  0.
         23    2    1    2    0    0 -0.66422143202E+02  0.14760884209E+02  0.39766227599E+03  0.41303160753E+03  0.88487503422E+02 0.  0.
          5    1    3    3  502    0 -0.11360479114E+02 -0.18354447549E+02  0.32019062096E+02  0.38841201939E+02  0.41800000000E+01 0.  1.
         -5    1    3    3    0  502  0.77782622316E+02  0.35935633400E+01  0.98748897631E+03  0.99056297163E+03  0.41800000000E+01 0.  1.
        -11    1    4    4    0    0  0.51163519654E+01  0.34854865436E+02  0.16776729115E+03  0.17142608519E+03  0.00000000000E+00 0.  1.
         11    1    4    4    0    0 -0.71538495168E+02 -0.20093981227E+02  0.22989498484E+03  0.24160552234E+03  0.00000000000E+00 0. -1.
</event>
<event>
 8    1  0.6760442E-009  0.1038222E+03  0.7561462E-02  0.1272458E+00
         -2   -1    0    0    0  501 -0.00000000000E+00  0.00000000000E+00  0.29338303063E+02  0.29338303063E+02  0.00000000000E+00 0. -1.
          2   -1    0    0  501    0  0.00000000000E+00 -0.00000000000E+00 -0.47463570164E+03  0.47463570164E+03  0.00000000000E+00 0.  1.
         25    2    1    2    0    0 -0.27084394156E+02  0.22467078528E+02 -0.18628834374E+03  0.22713287951E+03  0.12509062281E+03 0.  0.
         23    2    1    2    0    0  0.27084394156E+02 -0.22467078528E+02 -0.25900905484E+03  0.27684112520E+03  0.91197500442E+02 0.  0.
          5    1    3    3  502    0 -0.64776029253E+02  0.30198136632E+02 -0.17124811649E+03  0.18561048252E+03  0.41800000000E+01 0. -1.
         -5    1    3    3    0  502  0.37691635097E+02 -0.77310581040E+01 -0.15040227253E+02  0.41522396986E+02  0.41800000000E+01 0. -1.
        -11    1    4    4    0    0  0.60694203453E+02 -0.10053262854E+02 -0.15131695065E+03  0.16334526005E+03  0.00000000000E+00 0. -1.
         11    1    4    4    0    0 -0.33609809297E+02 -0.12413815673E+02 -0.10769210419E+03  0.11349586514E+03  0.00000000000E+00 0.  1.
</event>
<event>
 8    1  0.6760442E-009  0.1121364E+03  0.7561462E-02  0.1256664E+00
         -1   -1    0    0    0  501 -0.00000000000E+00  0.00000000000E+00  0.56930222503E+02  0.56930222503E+02  0.00000000000E+00 0.  1.
          1   -1    0    0  501    0  0.00000000000E+00 -0.00000000000E+00 -0.44660458922E+03  0.44660458922E+03  0.00000000000E+00 0. -1.
         25    2    1    2    0    0  0.14746002845E+02 -0.43432795906E+02 -0.37828584953E+03  0.40106291573E+03  0.12508967207E+03 0.  0.
         23    2    1    2    0    0 -0.14746002845E+02  0.43432795906E+02 -0.11388517189E+02  0.10247189600E+03  0.90922707753E+02 0.  0.
          5    1    3    3  502    0 -0.52069306014E+02 -0.31637260056E+02 -0.12983988853E+03  0.14348518358E+03  0.41800000000E+01 0.  1.
         -5    1    3    3    0  502  0.66815308858E+02 -0.11795535850E+02 -0.24844596100E+03  0.25757773215E+03  0.41800000000E+01 0.  1.
        -11    1    4    4    0    0  0.33508388134E+02  0.57448495273E+01  0.13228833251E+02  0.36480370073E+02  0.00000000000E+00 0.  1.
         11    1    4    4    0    0 -0.48254390979E+02  0.37687946379E+02 -0.24617350440E+02  0.65991525923E+02  0.00000000000E+00 0. -1.
</event>
<event>
 8    1  0.6760442E-009  0.1202587E+03  0.7561462E-02  0.1242671E+00
          1   -1    0    0  501    0  0.00000000000E+00  0.00000000000E+00  0.62675693697E+03  0.62675693697E+03  0.00000000000E+00 0. -1.
         -1   -1    0    0    0  501 -0.00000000000E+00 -0.00000000000E+00 -0.28597120373E+02  0.28597120373E+02  0.00000000000E+00 0.  1.
         25    2    1    2    0    0 -0.63036886655E+02 -0.23660309132E+02  0.23331250516E+03  0.27316154560E+03  0.12509614552E+03 0.  0.
         23    2    1    2    0    0  0.63036886655E+02  0.23660309132E+02  0.36484731144E+03  0.38219251175E+03  0.91782874549E+02 0.  0.
          5    1    3    3  502    0  0.37434762423E+02 -0.21196669773E+01  0.81336862259E+02  0.89660537517E+02  0.41800000000E+01 0.  1.
         -5    1    3    3    0  502 -0.10047164908E+03 -0.21540642154E+02  0.15197564290E+03  0.18350100808E+03  0.41800000000E+01 0.  1.
        -11    1    4    4    0    0 -0.14488251434E+02 -0.75994309455E+01  0.14024584725E+02  0.21548776230E+02  0.00000000000E+00 0.  1.
         11    1    4    4    0    0  0.77525138088E+02  0.31259740077E+02  0.35082272672E+03  0.36064373552E+03  0.00000000000E+00 0. -1.
</event>
<event>
 8    1  0.6760442E-009  0.9724087E+02  0.7561462E-02  0.1286207E+00
         -1   -1    0    0    0  501 -0.00000000000E+00  0.00000000000E+00  0.45145239796E+02  0.45145239796E+02  0.00000000000E+00 0.  1.
          1   -1    0    0  501    0  0.00000000000E+00 -0.00000000000E+00 -0.30376284248E+03  0.30376284248E+03  0.00000000000E+00 0. -1.
         25    2    1    2    0    0 -0.38677046297E+02 -0.41498853870E+02 -0.14490818869E+03  0.19965951966E+03  0.12508985514E+03 0.  0.
         23    2    1    2    0    0  0.38677046297E+02  0.41498853870E+02 -0.11370941400E+03  0.14924856262E+03  0.78276649320E+02 0.  0.
          5    1    3    3  502    0 -0.62562913647E+02 -0.44622114328E+02 -0.30688346869E+02  0.82852267831E+02  0.41800000000E+01 0.  1.
         -5    1    3    3    0  502  0.23885867350E+02  0.31232604580E+01 -0.11421984182E+03  0.11680725183E+03  0.41800000000E+01 0.  1.
        -11    1    4    4    0    0  0.48126141963E+02 -0.23835533027E+01 -0.38564271328E+02  0.61717176618E+02  0.00000000000E+00 0.  1.
         11    1    4    4    0    0 -0.94490956657E+01  0.43882407173E+02 -0.75145142669E+02  0.87531386000E+02  0.00000000000E+00 0. -1.
</event>
<event>
 8    1  0.6760442E-009  0.8425589E+02  0.7561462E-02  0.1317390E+00
          2   -1    0    0  501    0  0.00000000000E+00  0.00000000000E+00  0.93234354713E+03  0.93234354713E+03  0.00000000000E+00 0.  1.
         -2   -1    0    0    0  501 -0.00000000000E+00 -0.00000000000E+00 -0.21624444511E+02  0.21624444511E+02  0.00000000000E+00 0. -1.
         25    2    1    2    0    0  0.15458376971E+02 -0.45950488290E+02  0.74755246677E+03  0.75949687988E+03  0.12510160346E+03 0.  0.
         23    2    1    2    0    0 -0.15458376971E+02  0.45950488290E+02  0.16316663586E+03  0.19447111176E+03  0.94049207661E+02 0.  0.
          5    1    3    3  502    0  0.32251537060E+02 -0.31152230206E+02  0.72826478375E+03  0.72965587145E+03  0.41800000000E+01 0. -1.
         -5    1    3    3    0  502 -0.16793160089E+02 -0.14798258084E+02  0.19287683017E+02  0.29841008432E+02  0.41800000000E+01 0. -1.
        -11    1    4    4    0    0 -0.51719061520E+02  0.17439143679E+02  0.11752107162E+03  0.12957695525E+03  0.00000000000E+00 0.  1.
         11    1    4    4    0    0  0.36260684549E+02  0.28511344610E+02  0.45645564237E+02  0.64894156516E+02  0.00000000000E+00 0. -1.
</event>
<event>
 8    1  0.6760442E-009  0.1123174E+03  0.7561462E-02  0.1256338E+00
          3   -1    0    0  501    0  0.00000000000E+00  0.00000000000E+00  0.39543651732E+03  0.39543651732E+03  0.00000000000E+00 0. -1.
         -3   -1    0    0    0  501 -0.00000000000E+00 -0.00000000000E+00 -0.36887846472E+02  0.36887846472E+02  0.00000000000E+00 0.  1.
         25    2    1    2    0    0  0.41342986694E+02 -0.30502531633E+02  0.22171774584E+03  0.25970320601E+03  0.12508936568E+03 0.  0.
         23    2    1    2    0    0 -0.41342986694E+02  0.30502531633E+02  0.13683092500E+03  0.17262115777E+03  0.91846149022E+02 0.  0.
          5    1    3    3  502    0 -0.26818268284E+02 -0.42588875522E+02  0.37614335060E+02  0.62970965007E+02  0.41800000000E+01 0.  1.
         -5    1    3    3    0  502  0.68161254978E+02  0.12086343889E+02  0.18410341079E+03  0.19673224101E+03  0.41800000000E+01 0.  1.
        -11    1    4    4    0    0  0.19758678285E+02 -0.18031616291E+02  0.28198484824E+02  0.38867712822E+02  0.00000000000E+00 0. -1.
         11    1    4    4    0    0 -0.61101664979E+02  0.48534147925E+02  0.10863244018E+03  0.13375344495E+03  0.00000000000E+00 0.  1.
</event>
<event>
 8    1  0.6760442E-009  0.7767940E+02  0.7561462E-02  0.1335769E+00
          2   -1    0    0  501    0  0.00000000000E+00  0.00000000000E+00  0.15681597489E+03  0.15681597489E+03  0.00000000000E+00 0. -1.
         -2   -1    0    0    0  501 -0.00000000000E+00 -0.00000000000E+00 -0.19059968231E+03  0.19059968231E+03  0.00000000000E+00 0.  1.
         25    2    1    2    0    0  0.23634489192E+02  0.13208388232E+02  0.11453715267E+03  0.17175185891E+03  0.12508753375E+03 0.  0.
         23    2    1    2    0    0 -0.23634489192E+02 -0.13208388232E+02 -0.14832086008E+03  0.17566379829E+03  0.90142342414E+02 0.  0.
          5    1    3    3  502    0 -0.17491029187E+02  0.20982207010E+02 -0.17813400081E+02  0.32878241064E+02  0.41800000000E+01 0.  1.
         -5    1    3    3    0  502  0.41125518379E+02 -0.77738187781E+01  0.13235055275E+03  0.13887361785E+03  0.41800000000E+01 0.  1.
        -11    1    4    4    0    0  0.11942422035E+02 -0.39602361843E+02 -0.35683602711E+02  0.54628637271E+02  0.00000000000E+00 0.  1.
         11    1    4    4    0    0 -0.35576911227E+02  0.26393973611E+02 -0.11263725737E+03  0.12103516102E+03  0.00000000000E+00 0. -1.
</event>
<event>
 8    1  0.6760442E-009  0.1124309E+03  0.7561462E-02  0.1256133E+00
         -1   -1    0    0    0  501 -0.00000000000E+00  0.00000000000E+00  0.84152376144E+03  0.84152376144E+03  0.00000000000E+00 0.  1.
          1   -1    0    0  501    0  0.00000000000E+00 -0.00000000000E+00 -0.23097688364E+02  0.23097688364E+02  0.00000000000E+00 0. -1.
         25    2    1    2    0    0  0.86661993988E+02 -0.13234216234E+01  0.47460844726E+03  0.49840858863E+03  0.12508353355E+03 0.  0.
         23    2    1    2    0    0 -0.86661993988E+02  0.13234216234E+01  0.34381762582E+03  0.36621286117E+03  0.91592833883E+02 0.  0.
          5    1    3    3  502    0 -0.97574748140E+01 -0.22838775498E+01 -0.29042617233E+01  0.11239730760E+02  0.41800000000E+01 0. -1.
         -5    1    3    3    0  502  0.96419468802E+02  0.96045592631E+00  0.47751270898E+03  0.48716885787E+03  0.41800000000E+01 0. -1.
        -11    1    4    4    0    0 -0.67080488311E+02  0.37135099896E+02  0.28121374567E+03  0.29147895003E+03  0.00000000000E+00 0.  1.
         11    1    4    4    0    0 -0.19581505677E+02 -0.35811678272E+02  0.62603880145E+02  0.74733911141E+02  0.00000000000E+00 0. -1.
</event>
<event>
 8    1  0.6760442E-009  0.1429983E+03  0.7561462E-02  0.1209351E+00
         -2   -1    0    0    0  501 -0.00000000000E+00  0.00000000000E+00  0.44702970664E+03  0.44702970664E+03  0.00000000000E+00 0.  1.
          2   -1    0    0  501    0  0.00000000000E+00 -0.00000000000E+00 -0.51192644846E+02  0.51192644846E+02  0.00000000000E+00 0. -1.
         25    2    1    2    0    0  0.42369171946E+02  0.96475814677E+02  0.18310003303E+03  0.24551163853E+03  0.12509041932E+03 0.  0.
         23    2    1    2    0    0 -0.42369171946E+02 -0.96475814677E+02  0.21273702876E+03  0.25271071296E+03  0.86619463684E+02 0.  0.
          5    1    3    3  502    0 -0.44443851026E+02  0.34797620687E+02  0.55676611208E+02  0.79394506958E+02  0.41800000000E+01 0.  1.
         -5    1    3    3    0  502  0.86813022972E+02  0.61678193990E+02  0.12742342183E+03  0.16611713157E+03  0.41800000000E+01 0.  1.
        -11    1    4    4    0    0 -0.44501294803E+02 -0.24472409591E+02  0.37155621233E+02  0.62926975611E+02  0.00000000000E+00 0. -1.
         11    1    4    4    0    0  0.21321228571E+01 -0.72003405086E+02  0.17558140753E+03  0.18978373735E+03  0.00000000000E+00 0.  1.
</event>
<event>
 8    1  0.6760442E-009  0.1479239E+03  0.7561462E-02  0.1203048E+00
         -2   -1    0    0    0  501 -0.00000000000E+00  0.00000000000E+00  0.33414556478E+03  0.33414556478E+03  0.00000000000E+00 0.  1.
          2   -1    0    0  501    0  0.00000000000E+00 -0.00000000000E+00 -0.87921698877E+02  0.87921698877E+02  0.00000000000E+00 0. -1.
         25    2    1    2    0    0 -0.83958006322E+02  0.90776141327E+02  0.71426562434E+02  0.18983720909E+03  0.12508859849E+03 0.  0.
         23    2    1    2    0    0  0.83958006322E+02 -0.90776141327E+02  0.17479730347E+03  0.23223005457E+03  0.89930230104E+02 0.  0.
          5    1    3    3  502    0 -0.47881560589E+02 -0.90509613708E+01 -0.16836897461E+02  0.51725402486E+02  0.41800000000E+01 0. -1.
         -5    1    3    3    0  502 -0.36076445733E+02  0.99827102698E+02  0.88263459895E+02  0.13811180660E+03  0.41800000000E+01 0. -1.
        -11    1    4    4    0    0  0.46840023557E+02 -0.92361024176E+02  0.81420902282E+02  0.13173423975E+03  0.00000000000E+00 0.  1.
         11    1    4    4    0    0  0.37117982765E+02  0.15848828491E+01  0.93376401191E+02  0.10049581483E+03  0.00000000000E+00 0. -1.
</event>
<event>
 8    1  0.6760442E-009  0.1029400E+03  0.7561462E-02  0.1274232E+00
         -1   -1    0    0    0  501 -0.00000000000E+00  0.00000000000E+00  0.30094441352E+02  0.30094441352E+02  0.00000000000E+00 0.  1.
          1   -1    0    0  501    0  0.00000000000E+00 -0.00000000000E+00 -0.49366078740E+03  0.49366078740E+03  0.00000000000E+00 0. -1.
         25    2    1    2    0    0  0.31011730282E+02 -0.40862739943E+01 -0.21353929180E+03  0.24944566862E+03  0.12508272225E+03 0.  0.
         23    2    1    2    0    0 -0.31011730282E+02  0.40862739943E+01 -0.25002705425E+03  0.27430956013E+03  0.10841486000E+03 0.  0.
          5    1    3    3  502    0  0.64526936332E+02  0.15935365109E+02 -0.19493621280E+03  0.20599820590E+03  0.41800000000E+01 0.  1.
         -5    1    3    3    0  502 -0.33515206050E+02 -0.20021639103E+02 -0.18603078996E+02  0.43447462723E+02  0.41800000000E+01 0.  1.
        -11    1    4    4    0    0 -0.23469052389E+02 -0.44789428428E+02 -0.62619141484E+02  0.80486310632E+02  0.00000000000E+00 0.  1.
         11    1    4    4    0    0 -0.75426778922E+01  0.48875702422E+02 -0.18740791277E+03  0.19382324950E+03  0.00000000000E+00 0. -1.
</event>
<event>
 8    1  0.6760442E-009  0.7280688E+02  0.7561462E-02  0.1350800E+00
         -1   -1    0    0    0  501 -0.00000000000E+00  0.00000000000E+00  0.77904232317E+02  0.77904232317E+02  0.00000000000E+00 0.  1.
          1   -1    0    0  501    0  0.00000000000E+00 -0.00000000000E+00 -0.29730311553E+03  0.29730311553E+03  0.00000000000E+00 0. -1.
         25    2    1    2    0    0 -0.44183474650E+02  0.42929183332E+01 -0.23941140287E+03  0.27374339607E+03  0.12508804293E+03 0.  0.
         23    2    1    2    0    0  0.44183474650E+02 -0.42929183332E+01  0.20012519665E+02  0.10146395178E+03  0.89015863679E+02 0.  0.
          5    1    3    3  502    0 -0.49729044163E+01 -0.11012013940E+02  0.12751557293E+02  0.18057376408E+02  0.41800000000E+01 0. -1.
         -5    1    3    3    0  502 -0.39210570233E+02  0.15304932273E+02 -0.25216296017E+03  0.25568601966E+03  0.41800000000E+01 0. -1.
        -11    1    4    4    0    0 -0.19223557533E+02  0.14855132537E+02  0.25227834497E+02  0.35023759940E+02  0.00000000000E+00 0.  1.
         11    1    4    4    0    0  0.63407032182E+02 -0.19148050870E+02 -0.52153148319E+01  0.66440191835E+02  0.00000000000E+00 0. -1.
</event>
<event>
 8    1  0.6760442E-009  0.1131130E+03  0.7561462E-02  0.1254911E+00
          2   -1    0    0  501    0  0.00000000000E+00  0.00000000000E+00  0.22786889731E+03  0.22786889731E+03  0.00000000000E+00 0. -1.
         -2   -1    0    0    0  501 -0.00000000000E+00 -0.00000000000E+00 -0.70467288623E+02  0.70467288623E+02  0.00000000000E+00 0.  1.
         25    2    1    2    0    0  0.65538843337E+02  0.86940990875E+01  0.89006173455E+02  0.16716010985E+03  0.12509786595E+03 0.  0.
         23    2    1    2    0    0 -0.65538843337E+02 -0.86940990875E+01  0.68395435235E+02  0.13117607609E+03  0.90323308357E+02 0.  0.
          5    1    3    3  502    0  0.62177082592E+02  0.53136530133E+02  0.19009637249E+02  0.84073296251E+02  0.41800000000E+01 0.  1.
         -5    1    3    3    0  502  0.33617607456E+01 -0.44442431046E+02  0.69996536207E+02  0.83086813596E+02  0.41800000000E+01 0.  1.
        -11    1    4    4    0    0  0.13961062175E+02  0.10869322128E+02 -0.77976233174E+01  0.19335365266E+02  0.00000000000E+00 0.  1.
         11    1    4    4    0    0 -0.79499905512E+02 -0.19563421216E+02  0.76193058553E+02  0.11184071082E+03  0.00000000000E+00 0. -1.
</event>
<event>
 8    1  0.6760442E-009  0.8841641E+02  0.7561462E-02  0.1306733E+00
          2   -1    0    0  501    0  0.00000000000E+00  0.00000000000E+00  0.76692270861E+03  0.76692270861E+03  0.00000000000E+00 0.  1.
         -2   -1    0    0    0  501 -0.00000000000E+00 -0.00000000000E+00 -0.26300358022E+02  0.26300358022E+02  0.00000000000E+00 0. -1.
         25    2    1    2    0    0 -0.69242892825E+02  0.66229715383E+00  0.57095092976E+03  0.58858183046E+03  0.12509432485E+03 0.  0.
         23    2    1    2    0    0  0.69242892825E+02 -0.66229715383E+00  0.16967142082E+03  0.20464123617E+03  0.91074846428E+02 0.  0.
          5    1    3    3  502    0 -0.58931336704E+02  0.41707003805E+01  0.57357422944E+03  0.57662393834E+03  0.41800000000E+01 0.  1.
         -5    1    3    3    0  502 -0.10311556122E+02 -0.35084032267E+01 -0.26232996768E+01  0.11957892124E+02  0.41800000000E+01 0.  1.
        -11    1    4    4    0    0 -0.18343337471E+02 -0.61201249659E+00  0.65399454172E+01  0.19483928632E+02  0.00000000000E+00 0. -1.
         11    1    4    4    0    0  0.87586230296E+02 -0.50284657239E-01  0.16313147541E+03  0.18515730754E+03  0.00000000000E+00 0.  1.
</event>
<event>
 8    1  0.6760442E-009  0.1790705E+03  0.7561462E-02  0.1168706E+00
          2   -1    0    0  501    0  0.00000000000E+00  0.00000000000E+00  0.18214096628E+04  0.18214096628E+04  0.00000000000E+00 0. -1.
         -2   -1    0    0    0  501 -0.00000000000E+00 -0.00000000000E+00 -0.19685130837E+02  0.19685130837E+02  0.00000000000E+00 0.  1.
         25    2    1    2    0    0  0.13095479597E+03  0.60650063761E+02  0.12221036463E+04  0.12369366907E+04  0.12508983018E+03 0.  0.
         23    2    1    2    0    0 -0.13095479597E+03 -0.60650063761E+02  0.57962088566E+03  0.60415810296E+03  0.90658995450E+02 0.  0.
          5    1    3    3  502    0  0.89357475494E+02 -0.24587505311E+02  0.49023112110E+03  0.49893218812E+03  0.41800000000E+01 0. -1.
         -5    1    3    3    0  502  0.41597320480E+02  0.85237569073E+02  0.73187252521E+03  0.73800450257E+03  0.41800000000E+01 0. -1.
        -11    1    4    4    0    0  0.86449325359E+01 -0.24853382769E+02  0.88938587099E+02  0.92749651044E+02  0.00000000000E+00 0.  1.
         11    1    4    4    0    0 -0.13959972851E+03 -0.35796680993E+02  0.49068229856E+03  0.51140845192E+03  0.00000000000E+00 0. -1.
</event>
<event>
 8    1  0.6760442E-009  0.1915509E+03  0.7561462E-02  0.1157070E+00
          3   -1    0    0  501    0  0.00000000000E+00  0.00000000000E+00  0.14629616692E+03  0.14629616692E+03  0.00000000000E+00 0. -1.
         -3   -1    0    0    0  501 -0.00000000000E+00 -0.00000000000E+00 -0.26819816865E+03  0.26819816865E+03  0.00000000000E+00 0.  1.
         25    2    1    2    0    0  0.11837017940E+03  0.11340333000E+03 -0.48426047979E+02  0.21181373708E+03  0.12509261556E+03 0.  0.
         23    2    1    2    0    0 -0.11837017940E+03 -0.11340333000E+03 -0.73475953758E+02  0.20268059849E+03  0.93855711574E+02 0.  0.
          5    1    3    3  502    0  0.23436829884E+02  0.10598322215E+03 -0.10137173143E+02  0.10909611841E+03  0.41800000000E+01 0. -1.
         -5    1    3    3    0  502  0.94933349515E+02  0.74201078564E+01 -0.38288874836E+02  0.10271761868E+03  0.41800000000E+01 0. -1.
        -11    1    4    4    0    0 -0.11314955192E+03 -0.65023629556E+02 -0.80771535542E+02  0.15347616901E+03  0.00000000000E+00 0. -1.
         11    1    4    4    0    0 -0.52206274838E+01 -0.48379700448E+02  0.72955817844E+01  0.49204429479E+02  0.00000000000E+00 0.  1.
</event>
<event>
 8    1  0.6760442E-009  0.8987536E+02  0.7561462E-02  0.1303154E+00
          2   -1    0    0  501    0  0.00000000000E+00  0.00000000000E+00  0.73054783286E+03  0.73054783286E+03  0.00000000000E+00 0. -1.
         -2   -1    0    0    0  501 -0.00000000000E+00 -0.00000000000E+00 -0.25754120792E+02  0.25754120792E+02  0.00000000000E+00 0.  1.
         25    2    1    2    0    0  0.42383759971E+02 -0.14698736553E+02  0.59124808395E+03  0.60599808081E+03  0.12508773400E+03 0.  0.
         23    2    1    2    0    0 -0.42383759971E+02  0.14698736553E+02  0.11354562812E+03  0.15030387285E+03  0.87671024648E+02 0.  0.
          5    1    3    3  502    0 -0.33008420497E+02 -0.76947816498E+01  0.38036576097E+03  0.38189573185E+03  0.41800000000E+01 0. -1.
         -5    1    3    3    0  502  0.75392180468E+02 -0.70039549035E+01  0.21088232299E+03  0.22410234896E+03  0.41800000000E+01 0. -1.
        -11    1    4    4    0    0 -0.91117763981E+01 -0.19826671672E+02 -0.50371986452E+01  0.22394078434E+02  0.00000000000E+00 0.  1.
         11    1    4    4    0    0 -0.33271983573E+02  0.34525408225E+02  0.11858282676E+03  0.12790979441E+03  0.00000000000E+00 0. -1.
</event>
<event>
 8    1  0.6760442E-009  0.1049917E+03  0.7561462E-02  0.1270136E+00
         -2   -1    0    0    0  501 -0.00000000000E+00  0.00000000000E+00  0.53946921452E+02  0.53946921452E+02  0.00000000000E+00 0.  1.
          2   -1    0    0  501    0  0.00000000000E+00 -0.00000000000E+00 -0.38996504447E+03  0.38996504447E+03  0.00000000000E+00 0. -1.
         25    2    1    2    0    0 -0.49821249723E+02  0.24427341784E+02 -0.30272040736E+03  0.33222011209E+03  0.12510677795E+03 0.  0.
         23    2    1    2    0    0  0.49821249723E+02 -0.24427341784E+02 -0.33297715659E+02  0.11169185384E+03  0.91035599604E+02 0.  0.
          5    1    3    3  502    0  0.27516132636E+02  0.16148889093E+02 -0.20374809073E+03  0.20627331638E+03  0.41800000000E+01 0.  1.
         -5    1    3    3    0  502 -0.77337382359E+02  0.82784526909E+01 -0.98972316632E+02  0.12594679571E+03  0.41800000000E+01 0.  1.
        -11    1    4    4    0    0 -0.20410687550E+02 -0.21465156552E+02 -0.28705740853E+02  0.41247650478E+02  0.00000000000E+00 0. -1.
         11    1    4    4    0    0  0.70231937273E+02 -0.29621852320E+01 -0.45919748056E+01  0.70444203360E+02  0.00000000000E+00 0.  1.
</event>
<event>
 8    1  0.6760442E-009  0.1472870E+03  0.7561462E-02  0.1203847E+00
          1   -1    0    0  501    0  0.00000000000E+00  0.00000000000E+00  0.64455118658E+02  0.64455118658E+02  0.00000000000E+00 0. -1.
         -1   -1    0    0    0  501 -0.00000000000E+00 -0.00000000000E+00 -0.44870884826E+03  0.44870884826E+03  0.00000000000E+00 0.  1.
         25    2    1    2    0    0  0.11057717179E+03 -0.63953557852E+02 -0.24211308628E+03  0.30097119850E+03  0.12509015666E+03 0.  0.
         23    2    1    2    0    0 -0.11057717179E+03  0.63953557852E+02 -0.14214064332E+03  0.21219276842E+03  0.92219520731E+02 0.  0.
          5    1    3    3  502    0 -0.68967754777E+01  0.19176046127E+02 -0.86524724760E+02  0.88990373928E+02  0.41800000000E+01 0.  1.
         -5    1    3    3    0  502  0.11747394727E+03 -0.83129603979E+02 -0.15558836152E+03  0.21198082457E+03  0.41800000000E+01 0.  1.
        -11    1    4    4    0    0 -0.51022608869E+02  0.42805758951E+02 -0.13245573103E+03  0.14825707503E+03  0.00000000000E+00 0.  1.
         11    1    4    4    0    0 -0.59554562920E+02  0.21147798902E+02 -0.96849122936E+01  0.63935693388E+02  0.00000000000E+00 0. -1.
</event>
<event>
 7    1  0.6760442E-009  0.9405658E+02  0.7561462E-02  0.1293315E+00
          2   -1    0    0  501    0  0.00000000000E+00  0.00000000000E+00  0.68854618781E+03  0.68854618781E+03  0.00000000000E+00 0. -1.
         -2   -1    0    0    0  501 -0.00000000000E+00 -0.00000000000E+00 -0.38559760981E+02  0.38559760981E+02  0.00000000000E+00 0.  1.
         23    2    1    2    0    0  0.25979553276E+01 -0.72322267513E+02  0.10044044018E+03  0.15885422102E+03  0.99544571740E+02 0.  0.
          5    1    1    2  502    0  0.19555507222E+02  0.24842581877E+00  0.40205211278E+03  0.40254919373E+03  0.41800000000E+01 0.  1.
         -5    1    1    2    0  502 -0.22153462549E+02  0.72073841694E+02  0.14749387386E+03  0.16570253404E+03  0.41800000000E+01 0.  1.
        -11    1    3    3    0    0  0.29161037980E+01  0.99272849399E+01 -0.14317446160E+02  0.17664764707E+02  0.00000000000E+00 0.  1.
         11    1    3    3    0    0 -0.31814847049E+00 -0.82249552453E+02  0.11475788634E+03  0.14118945632E+03  0.00000000000E+00 0. -1.
</event>
<event>
 8    1  0.6760442E-009  0.1015222E+03  0.7561462E-02  0.1277127E+00
          1   -1    0    0  501    0  0.00000000000E+00  0.00000000000E+00  0.93329900422E+02  0.93329900422E+02  0.00000000000E+00 0. -1.
         -1   -1    0    0    0  501 -0.00000000000E+00 -0.00000000000E+00 -0.11235717958E+03  0.11235717958E+03  0.00000000000E+00 0.  1.
         25    2    1    2    0    0 -0.13838240613E+02  0.61313334176E+01 -0.14726476840E+02  0.12686224979E+03  0.12509225055E+03 0.  0.
         23    2    1    2    0    0  0.13838240613E+02 -0.61313334176E+01 -0.43008023191E+01  0.78824830217E+02  0.77238376507E+02 0.  0.
          5    1    3    3  502    0  0.19657300193E+02 -0.53679777549E+02 -0.73787724487E+01  0.57791406381E+02  0.41800000000E+01 0.  1.
         -5    1    3    3    0  502 -0.33495540806E+02  0.59811110967E+02 -0.73477043908E+01  0.69070843405E+02  0.41800000000E+01 0.  1.
        -11    1    4    4    0    0 -0.23331335197E+02 -0.25972732655E+02 -0.99759806603E+01  0.36310525110E+02  0.00000000000E+00 0.  1.
         11    1    4    4    0    0  0.37169575810E+02  0.19841399237E+02  0.56751783412E+01  0.42514305107E+02  0.00000000000E+00 0. -1.
</event>
<event>
 8    1  0.6760442E-009  0.1108746E+03  0.7561462E-02  0.1258959E+00
         -3   -1    0    0    0  501 -0.00000000000E+00  0.00000000000E+00  0.12405985898E+03  0.12405985898E+03  0.00000000000E+00 0.  1.
          3   -1    0    0  501    0  0.00000000000E+00 -0.00000000000E+00 -0.16605554885E+03  0.16605554885E+03  0.00000000000E+00 0. -1.
         25    2    1    2    0    0 -0.77192591853E+02 -0.39460829830E+02 -0.82957169559E+02  0.17333042652E+03  0.12508273841E+03 0.  0.
         23    2    1    2    0    0  0.77192591853E+02  0.39460829830E+02  0.40961479693E+02  0.11678498131E+03  0.66671101027E+02 0.  0.
          5    1    3    3  502    0 -0.72319293932E+02 -0.59246063609E+02 -0.61808252250E+01  0.93786200096E+02  0.41800000000E+01 0.  1.
         -5    1    3    3    0  502 -0.48732979215E+01  0.19785233780E+02 -0.76776344334E+02  0.79544226425E+02  0.41800000000E+01 0.  1.
        -11    1    4    4    0    0 -0.29040401677E+01 -0.11878394566E+02 -0.20107633560E+01  0.12392452382E+02  0.00000000000E+00 0.  1.
         11    1    4    4    0    0  0.80096632021E+02  0.51339224395E+02  0.42972243049E+02  0.10439252892E+03  0.00000000000E+00 0. -1.
</event>
<event>
 7    1  0.6760442E-009  0.1126980E+03  0.7561462E-02  0.1255654E+00
         -1   -1    0    0    0  501 -0.00000000000E+00  0.00000000000E+00  0.30549029992E+03  0.30549029992E+03  0.00000000000E+00 0.  1.
          1   -1    0    0  501    0  0.00000000000E+00 -0.00000000000E+00 -0.12085097209E+03  0.12085097209E+03  0.00000000000E+00 0. -1.
         25    2    1    2    0    0  0.27126094231E+02 -0.98678591689E+02 -0.14528012686E+02  0.16227059433E+03  0.12508954068E+03 0.  0.
          5    1    3    3  502    0  0.25766181855E+02 -0.86767796646E+02 -0.64170094213E+02  0.11103071671E+03  0.41800000000E+01 0. -1.
         -5    1    3    3    0  502  0.13599123766E+01 -0.11910795043E+02  0.49642081527E+02  0.51239877621E+02  0.41800000000E+01 0. -1.
        -11    1    1    2    0    0 -0.15126545512E+02  0.10662893724E+03  0.21633942564E+03  0.24166358791E+03  0.00000000000E+00 0.  1.
         11    1    1    2    0    0 -0.11999548720E+02 -0.79503455505E+01 -0.17172085130E+02  0.22407089761E+02  0.00000000000E+00 0. -1.
</event>
<event>
 8    1  0.6760442E-009  0.8332721E+02  0.7561462E-02  0.1319866E+00
         -2   -1    0    0    0  501 -0.00000000000E+00  0.00000000000E+00  0.27167837904E+03  0.27167837904E+03  0.00000000000E+00 0.  1.
          2   -1    0    0  501    0  0.00000000000E+00 -0.00000000000E+00 -0.45738021774E+02  0.45738021774E+02  0.00000000000E+00 0. -1.
         25    2    1    2    0    0 -0.29587702883E+02  0.31153245419E+01  0.12424893719E+03  0.17880809494E+03  0.12509755799E+03 0.  0.
         23    2    1    2    0    0  0.29587702883E+02 -0.31153245419E+01  0.10169142008E+03  0.13860830587E+03  0.89364311277E+02 0.  0.
          5    1    3    3  502    0 -0.15963423259E+02 -0.44468441552E+02  0.11990613639E+03  0.12894660570E+03  0.41800000000E+01 0. -1.
         -5    1    3    3    0  502 -0.13624279624E+02  0.47583766094E+02  0.43428007949E+01  0.49861489245E+02  0.41800000000E+01 0. -1.
        -11    1    4    4    0    0  0.44434193301E+02  0.14288406390E+02  0.10554973361E+03  0.11540928194E+03  0.00000000000E+00 0.  1.
         11    1    4    4    0    0 -0.14846490418E+02 -0.17403730932E+02 -0.38583135361E+01  0.23199023933E+02  0.00000000000E+00 0. -1.
</event>
<event>
 8    1  0.6760442E-009  0.8379783E+02  0.7561462E-02  0.1318607E+00
          1   -1    0    0  501    0  0.00000000000E+00  0.00000000000E+00  0.16485566944E+03  0.16485566944E+03  0.00000000000E+00 0. -1.
         -1   -1    0    0    0  501 -0.00000000000E+00 -0.00000000000E+00 -0.93176255494E+02  0.93176255494E+02  0.00000000000E+00 0.  1.
         25    2    1    2    0    0 -0.42155232183E+02  0.27696204776E+02  0.71650006467E+02  0.15272030484E+03  0.12508247169E+03 0.  0.
         23    2    1    2    0    0  0.42155232183E+02 -0.27696204776E+02  0.29407481076E-01  0.10531162010E+03  0.92446704124E+02 0.  0.
          5    1    3    3  502    0 -0.50406709035E+02  0.33820686943E+02 -0.17161054379E+02  0.63219058585E+02  0.41800000000E+01 0.  1.
         -5    1    3    3    0  502  0.82514768518E+01 -0.61244821673E+01  0.88811060846E+02  0.89501246252E+02  0.41800000000E+01 0.  1.
        -11    1    4    4    0    0  0.45739637327E+02 -0.53052869474E+02  0.19987923267E+02  0.72843932203E+02  0.00000000000E+00 0. -1.
         11    1    4    4    0    0 -0.35844051442E+01  0.25356664698E+02 -0.19958515786E+02  0.32467687895E+02  0.00000000000E+00 0.  1.
</event>
<event>
 8    1  0.6760442E-009  0.1049849E+03  0.7561462E-02  0.1270149E+00
         -1   -1    0    0    0  501 -0.00000000000E+00  0.00000000000E+00  0.18932771189E+02  0.18932771189E+02  0.00000000000E+00 0.  1.
          1   -1    0    0  501    0  0.00000000000E+00 -0.00000000000E+00 -0.70008920112E+03  0.70008920112E+03  0.00000000000E+00 0. -1.
         25    2    1    2    0    0 -0.17309266939E+02 -0.20897247863E+02 -0.47655664317E+03  0.49344707558E+03  0.12508987392E+03 0.  0.
         23    2    1    2    0    0  0.17309266939E+02  0.20897247863E+02 -0.20459978676E+03  0.22557489673E+03  0.91031069434E+02 0.  0.
          5    1    3    3  502    0  0.12786622194E+02 -0.69079153971E+02 -0.28800167314E+03  0.29647573821E+03  0.41800000000E+01 0. -1.
         -5    1    3    3    0  502 -0.30095889133E+02  0.48181906108E+02 -0.18855497003E+03  0.19697133737E+03  0.41800000000E+01 0. -1.
        -11    1    4    4    0    0  0.22233572398E+02 -0.26719241199E+02 -0.34918129860E+02  0.49269923734E+02  0.00000000000E+00 0.  1.
         11    1    4    4    0    0 -0.49243054592E+01  0.47616489062E+02 -0.16968165690E+03  0.17630497300E+03  0.00000000000E+00 0. -1.
</event>
<event>
 8    1  0.6760442E-009  0.1063581E+03  0.7561462E-02  0.1267467E+00
         -2   -1    0    0    0  501 -0.00000000000E+00  0.00000000000E+00  0.23076396388E+02  0.23076396388E+02  0.00000000000E+00 0.  1.
          2   -1    0    0  501    0  0.00000000000E+00 -0.00000000000E+00 -0.58328155017E+03  0.58328155017E+03  0.00000000000E+00 0. -1.
         25    2    1    2    0    0  0.22961289084E+02 -0.33636844952E+02 -0.37439290175E+03  0.39683273627E+03  0.12509003783E+03 0.  0.
         23    2    1    2    0    0 -0.22961289084E+02  0.33636844952E+02 -0.18581225204E+03  0.20952521029E+03  0.87840552160E+02 0.  0.
          5    1    3    3  502    0 -0.43660341738E+02 -0.57320250967E+01 -0.24153788310E+03  0.24555468418E+03  0.41800000000E+01 0.  1.
         -5    1    3    3    0  502  0.66621630821E+02 -0.27904819856E+02 -0.13285501865E+03  0.15127805209E+03  0.41800000000E+01 0.  1.
        -11    1    4    4    0    0  0.71312294633E+01 -0.27275571362E+02 -0.66421666966E+02  0.72157113782E+02  0.00000000000E+00 0.  1.
         11    1    4    4    0    0 -0.30092518547E+02  0.60912416314E+02 -0.11939058507E+03  0.13736809650E+03  0.00000000000E+00 0. -1.
</event>
<event>
 8    1  0.6760442E-009  0.8266192E+02  0.7561462E-02  0.1321663E+00
         -1   -1    0    0    0  501 -0.00000000000E+00  0.00000000000E+00  0.52139239091E+02  0.52139239091E+02  0.00000000000E+00 0.  1.
          1   -1    0    0  501    0  0.00000000000E+00 -0.00000000000E+00 -0.25697024429E+03  0.25697024429E+03  0.00000000000E+00 0. -1.
         25    2    1    2    0    0  0.32635142893E+02  0.98393951132E+01 -0.13661665253E+03  0.18834430371E+03  0.12509037030E+03 0.  0.
         23    2    1    2    0    0 -0.32635142893E+02 -0.98393951132E+01 -0.68214352662E+02  0.12076517967E+03  0.93643817010E+02 0.  0.
          5    1    3    3  502    0  0.16312400481E+02 -0.32078537786E+02  0.77709704989E+01  0.37053844313E+02  0.41800000000E+01 0.  1.
         -5    1    3    3    0  502  0.16322742412E+02  0.41917932899E+02 -0.14438762303E+03  0.15129045939E+03  0.41800000000E+01 0.  1.
        -11    1    4    4    0    0 -0.20682829210E+02 -0.43516294173E+02 -0.53811056095E+01  0.48480961008E+02  0.00000000000E+00 0.  1.
         11    1    4    4    0    0 -0.11952313683E+02  0.33676899060E+02 -0.62833247053E+02  0.72284218664E+02  0.00000000000E+00 0. -1.
</event>
<event>
 8    1  0.6760442E-009  0.7478061E+02  0.7561462E-02  0.1344552E+00
         -2   -1    0    0    0  501 -0.00000000000E+00  0.00000000000E+00  0.44996519133E+02  0.44996519133E+02  0.00000000000E+00 0.  1.
          2   -1    0    0  501    0  0.00000000000E+00 -0.00000000000E+00 -0.32511596007E+03  0.32511596007E+03  0.00000000000E+00 0. -1.
         25    2    1    2    0    0  0.31664654138E+02 -0.53693013326E+01 -0.94240512166E+02  0.15987536817E+03  0.12508948595E+03 0.  0.
         23    2    1    2    0    0 -0.31664654138E+02  0.53693013326E+01 -0.18587892877E+03  0.21023711103E+03  0.92828804664E+02 0.  0.
          5    1    3    3  502    0  0.69701217692E+01 -0.47240754012E+02 -0.99853479359E+02  0.11076308581E+03  0.41800000000E+01 0.  1.
         -5    1    3    3    0  502  0.24694532369E+02  0.41871452679E+02  0.56129671923E+01  0.49112282365E+02  0.41800000000E+01 0.  1.
        -11    1    4    4    0    0 -0.41935519319E+02  0.67411479753E+01 -0.19302956071E+03  0.19764726703E+03  0.00000000000E+00 0. -1.
         11    1    4    4    0    0  0.10270865180E+02 -0.13718466427E+01  0.71506319417E+01  0.12589843999E+02  0.00000000000E+00 0.  1.
</event>
<event>
 8    1  0.6760442E-009  0.1601226E+03  0.7561462E-02  0.1188558E+00
          2   -1    0    0  501    0  0.00000000000E+00  0.00000000000E+00  0.12251946913E+04  0.12251946913E+04  0.00000000000E+00 0. -1.
         -2   -1    0    0    0  501 -0.00000000000E+00 -0.00000000000E+00 -0.23655513643E+02  0.23655513643E+02  0.00000000000E+00 0.  1.
         25    2    1    2    0    0  0.13048263210E+03 -0.49305057715E+01  0.66972524701E+03  0.69370647230E+03  0.12508691406E+03 0.  0.
         23    2    1    2    0    0 -0.13048263210E+03  0.49305057715E+01  0.53181393062E+03  0.55514373261E+03  0.91150863344E+02 0.  0.
          5    1    3    3  502    0  0.13242905733E+03 -0.41324887946E+02  0.58745794333E+03  0.60363027523E+03  0.41800000000E+01 0. -1.
         -5    1    3    3    0  502 -0.19464252372E+01  0.36394382175E+02  0.82267303670E+02  0.90076197068E+02  0.41800000000E+01 0. -1.
        -11    1    4    4    0    0 -0.44327493450E+02 -0.28118251437E+02  0.93556553105E+02  0.10727717077E+03  0.00000000000E+00 0.  1.
         11    1    4    4    0    0 -0.86155138647E+02  0.33048757209E+02  0.43825737751E+03  0.44786656184E+03  0.00000000000E+00 0. -1.
</event>
<event>
 8    1  0.6760442E-009  0.1191037E+03  0.7561462E-02  0.1244583E+00
          1   -1    0    0  501    0  0.00000000000E+00  0.00000000000E+00  0.13863301042E+03  0.13863301042E+03  0.00000000000E+00 0. -1.
         -1   -1    0    0    0  501 -0.00000000000E+00 -0.00000000000E+00 -0.14114858102E+03  0.14114858102E+03  0.00000000000E+00 0.  1.
         25    2    1    2    0    0 -0.10784696769E+02  0.81155731332E+02 -0.32573365430E+02  0.15300598678E+03  0.12508895012E+03 0.  0.
         23    2    1    2    0    0  0.10784696769E+02 -0.81155731332E+02  0.30057794827E+02  0.12677560466E+03  0.92010980294E+02 0.  0.
          5    1    3    3  502    0 -0.26875631656E+00 -0.18570281052E+02 -0.47837240474E+02  0.51485935404E+02  0.41800000000E+01 0.  1.
         -5    1    3    3    0  502 -0.10515940452E+02  0.99726012385E+02  0.15263875043E+02  0.10152005137E+03  0.41800000000E+01 0.  1.
        -11    1    4    4    0    0  0.27695714396E+02  0.73848733225E+01 -0.66867468716E+01  0.29433000758E+02  0.00000000000E+00 0.  1.
         11    1    4    4    0    0 -0.16911017628E+02 -0.88540604655E+02  0.36744541699E+02  0.97342603902E+02  0.00000000000E+00 0. -1.
</event>
<event>
 8    1  0.6760442E-009  0.1320414E+03  0.7561462E-02  0.1224458E+00
         -1   -1    0    0    0  501 -0.00000000000E+00  0.00000000000E+00  0.36946427046E+02  0.36946427046E+02  0.00000000000E+00 0.  1.
          1   -1    0    0  501    0  0.00000000000E+00 -0.00000000000E+00 -0.62076954398E+03  0.62076954398E+03  0.00000000000E+00 0. -1.
         25    2    1    2    0    0 -0.20338240229E+02 -0.10051753639E+03 -0.28433905066E+03  0.32714094876E+03  0.12512028408E+03 0.  0.
         23    2    1    2    0    0  0.20338240229E+02  0.10051753639E+03 -0.29948406627E+03  0.33057502227E+03  0.95245578682E+02 0.  0.
          5    1    3    3  502    0  0.32399429218E+02 -0.10349357409E+03 -0.19969474797E+03  0.22727980037E+03  0.41800000000E+01 0.  1.
         -5    1    3    3    0  502 -0.52737669447E+02  0.29760376975E+01 -0.84644302695E+02  0.99861148390E+02  0.41800000000E+01 0.  1.
        -11    1    4    4    0    0  0.66150710592E+01  0.28752008278E+02 -0.87108052040E+01  0.30762237767E+02  0.00000000000E+00 0.  1.
         11    1    4    4    0    0  0.13723169170E+02  0.71765528110E+02 -0.29077326107E+03  0.29981278450E+03  0.00000000000E+00 0. -1.
</event>
<event>
 8    1  0.6760442E-009  0.1392851E+03  0.7561462E-02  0.1214294E+00
          3   -1    0    0  501    0  0.00000000000E+00  0.00000000000E+00  0.69747600927E+02  0.69747600927E+02  0.00000000000E+00 0. -1.
         -3   -1    0    0    0  501 -0.00000000000E+00 -0.00000000000E+00 -0.36341823686E+03  0.36341823686E+03  0.00000000000E+00 0.  1.
         25    2    1    2    0    0  0.36003317136E+02 -0.84176317600E+02 -0.58663834292E+02  0.16574063448E+03  0.12508645481E+03 0.  0.
         23    2    1    2    0    0 -0.36003317136E+02  0.84176317600E+02 -0.23500680164E+03  0.26742520330E+03  0.88916540947E+02 0.  0.
          5    1    3    3  502    0  0.76532908136E+02 -0.84708513891E+02 -0.44556882537E+02  0.12261976405E+03  0.41800000000E+01 0.  1.
         -5    1    3    3    0  502 -0.40529591000E+02  0.53219629092E+00 -0.14106951755E+02  0.43120870438E+02  0.41800000000E+01 0.  1.
        -11    1    4    4    0    0  0.71716965955E+01  0.79874163392E+02 -0.11835834884E+03  0.14296857679E+03  0.00000000000E+00 0. -1.
         11    1    4    4    0    0 -0.43175013732E+02  0.43021542085E+01 -0.11664845280E+03  0.12445662651E+03  0.00000000000E+00 0.  1.
</event>
<event>
 8    1  0.6760442E-009  0.1175452E+03  0.7561462E-02  0.1247202E+00
         -1   -1    0    0    0  501 -0.00000000000E+00  0.00000000000E+00  0.43527570165E+02  0.43527570165E+02  0.00000000000E+00 0.  1.
          1   -1    0    0  501    0  0.00000000000E+00 -0.00000000000E+00 -0.50514862749E+03  0.50514862749E+03  0.00000000000E+00 0. -1.
         25    2    1    2    0    0 -0.96534802212E+02  0.66691928270E+01 -0.19881979489E+03  0.25404813202E+03  0.12509075254E+03 0.  0.
         23    2    1    2    0    0  0.96534802212E+02 -0.66691928270E+01 -0.26280126244E+03  0.29462806564E+03  0.91530035239E+02 0.  0.
          5    1    3    3  502    0 -0.49205482367E+02 -0.14854593478E+02 -0.19504869985E+03  0.20175060386E+03  0.41800000000E+01 0. -1.
         -5    1    3    3    0  502 -0.47329319845E+02  0.21523786305E+02 -0.37710950335E+01  0.52297528160E+02  0.41800000000E+01 0. -1.
        -11    1    4    4    0    0  0.11873249611E+02  0.35029494929E+02 -0.53573738736E+02  0.65101344482E+02  0.00000000000E+00 0.  1.
         11    1    4    4    0    0  0.84661552601E+02 -0.41698687755E+02 -0.20922752371E+03  0.22952672116E+03  0.00000000000E+00 0. -1.
</event>
<event>
 8    1  0.6760442E-009  0.9584284E+02  0.7561462E-02  0.1289289E+00
         -2   -1    0    0    0  501 -0.00000000000E+00  0.00000000000E+00  0.14318786232E+02  0.14318786232E+02  0.00000000000E+00 0.  1.
          2   -1    0    0  501    0  0.00000000000E+00 -0.00000000000E+00 -0.93061320335E+03  0.93061320335E+03  0.00000000000E+00 0. -1.
         25    2    1    2    0    0  0.22852259877E+02 -0.36342609402E+02 -0.55799657520E+03  0.57345720140E+03  0.12509985156E+03 0.  0.
         23    2    1    2    0    0 -0.22852259877E+02  0.36342609402E+02 -0.35829784192E+03  0.37147478818E+03  0.88165547085E+02 0.  0.
          5    1    3    3  502    0  0.10966203784E+02  0.26898560714E+02 -0.31600027005E+02  0.43125680292E+02  0.41800000000E+01 0. -1.
         -5    1    3    3    0  502  0.11886056093E+02 -0.63241170116E+02 -0.52639654819E+03  0.53033152110E+03  0.41800000000E+01 0. -1.
        -11    1    4    4    0    0 -0.15863356190E+02 -0.28510036043E+02 -0.10831796284E+03  0.11312492784E+03  0.00000000000E+00 0.  1.
         11    1    4    4    0    0 -0.69889036867E+01  0.64852645444E+02 -0.24997987908E+03  0.25834986034E+03  0.00000000000E+00 0. -1.
</event>
<event>
 8    1  0.6760442E-009  0.1684980E+03  0.7561462E-02  0.1179423E+00
         -2   -1    0    0    0  501 -0.00000000000E+00  0.00000000000E+00  0.29231120729E+02  0.29231120729E+02  0.00000000000E+00 0.  1.
          2   -1    0    0  501    0  0.00000000000E+00 -0.00000000000E+00 -0.11814423019E+04  0.11814423019E+04  0.00000000000E+00 0. -1.
         25    2    1    2    0    0  0.14089835253E+03  0.40759513610E+02 -0.69344566511E+03  0.71974200841E+03  0.12509190430E+03 0.  0.
         23    2    1    2    0    0 -0.14089835253E+03 -0.40759513610E+02 -0.45876551608E+03  0.49093141424E+03  0.95048256379E+02 0.  0.
          5    1    3    3  502    0  0.15793664635E+03  0.14814748126E+02 -0.61813515601E+03  0.63817866191E+03  0.41800000000E+01 0.  1.
         -5    1    3    3    0  502 -0.17038293816E+02  0.25944765484E+02 -0.75310509103E+02  0.81563346507E+02  0.41800000000E+01 0.  1.
        -11    1    4    4    0    0 -0.78633031131E+02 -0.27716120019E+02 -0.11924060526E+03  0.14549796849E+03  0.00000000000E+00 0.  1.
         11    1    4    4    0    0 -0.62265321403E+02 -0.13043393590E+02 -0.33952491083E+03  0.34543344575E+03  0.00000000000E+00 0. -1.
</event>
<event>
 8    1  0.6760442E-009  0.1038945E+03  0.7561462E-02  0.1272313E+00
         -1   -1    0    0    0  501 -0.00000000000E+00  0.00000000000E+00  0.45972820360E+02  0.45972820360E+02  0.00000000000E+00 0.  1.
          1   -1    0    0  501    0  0.00000000000E+00 -0.00000000000E+00 -0.26184297460E+03  0.26184297460E+03  0.00000000000E+00 0. -1.
         25    2    1    2    0    0  0.67159897254E+01  0.79100137985E+00 -0.14690476641E+03  0.19306486018E+03  0.12508916675E+03 0.  0.
         23    2    1    2    0    0 -0.67159897254E+01 -0.79100137985E+00 -0.68965387826E+02  0.11475093478E+03  0.91464868196E+02 0.  0.
          5    1    3    3  502    0  0.40883558264E+02 -0.46124893247E+02 -0.47683790657E+02  0.78039652772E+02  0.41800000000E+01 0.  1.
         -5    1    3    3    0  502 -0.34167568538E+02  0.46915894627E+02 -0.99220975755E+02  0.11502520740E+03  0.41800000000E+01 0.  1.
        -11    1    4    4    0    0  0.11410190283E+02 -0.41617297450E+02 -0.17402065657E+02  0.46529816016E+02  0.00000000000E+00 0.  1.
         11    1    4    4    0    0 -0.18126180009E+02  0.40826296071E+02 -0.51563322169E+02  0.68221118766E+02  0.00000000000E+00 0. -1.
</event>
<event>
 8    1  0.6760442E-009  0.9256507E+02  0.7561462E-02  0.1296756E+00
          1   -1    0    0  501    0  0.00000000000E+00  0.00000000000E+00  0.28419394453E+03  0.28419394453E+03  0.00000000000E+00 0.  1.
         -1   -1    0    0    0  501 -0.00000000000E+00 -0.00000000000E+00 -0.56742064103E+02  0.56742064103E+02  0.00000000000E+00 0. -1.
         25    2    1    2    0    0  0.42299146391E+00  0.55846328717E+02  0.98183504463E+02  0.16854278098E+03  0.12509067559E+03 0.  0.
         23    2    1    2    0    0 -0.42299146391E+00 -0.55846328717E+02  0.12926837597E+03  0.17239322765E+03  0.99449085281E+02 0.  0.
          5    1    3    3  502    0  0.18428309684E+01 -0.79931776696E+01 -0.26686905723E+02  0.28230307337E+02  0.41800000000E+01 0. -1.
         -5    1    3    3    0  502 -0.14198395045E+01  0.63839506387E+02  0.12487041019E+03  0.14031247364E+03  0.41800000000E+01 0. -1.
        -11    1    4    4    0    0 -0.40882242245E+02 -0.58518076329E+02  0.65835886396E+02  0.97108634662E+02  0.00000000000E+00 0. -1.
         11    1    4    4    0    0  0.40459250781E+02  0.26717476120E+01  0.63432489570E+02  0.75284592993E+02  0.00000000000E+00 0.  1.
</event>
<event>
 8    1  0.6760442E-009  0.1299202E+03  0.7561462E-02  0.1227574E+00
          1   -1    0    0  501    0  0.00000000000E+00  0.00000000000E+00  0.30810967513E+03  0.30810967513E+03  0.00000000000E+00 0. -1.
         -1   -1    0    0    0  501 -0.00000000000E+00 -0.00000000000E+00 -0.66789125556E+02  0.66789125556E+02  0.00000000000E+00 0.  1.
         25    2    1    2    0    0  0.37050718061E+02 -0.87486471389E+02  0.13443191197E+03  0.20675109984E+03  0.12508972757E+03 0.  0.
         23    2    1    2    0    0 -0.37050718061E+02  0.87486471389E+02  0.10688863760E+03  0.16814770085E+03  0.88441110723E+02 0.  0.
          5    1    3    3  502    0  0.83569810594E+02 -0.53640255332E+02  0.86048519254E+02  0.13146486337E+03  0.41800000000E+01 0.  1.
         -5    1    3    3    0  502 -0.46519092533E+02 -0.33846216057E+02  0.48383392719E+02  0.75286236474E+02  0.41800000000E+01 0.  1.
        -11    1    4    4    0    0 -0.15076688875E+02  0.28729007054E+01 -0.12763874389E+02  0.19961878552E+02  0.00000000000E+00 0.  1.
         11    1    4    4    0    0 -0.21974029186E+02  0.84613570683E+02  0.11965251199E+03  0.14818582229E+03  0.00000000000E+00 0. -1.
</event>
<event>
 8    1  0.6760442E-009  0.1642680E+03  0.7561462E-02  0.1183961E+00
         -2   -1    0    0    0  501 -0.00000000000E+00  0.00000000000E+00  0.21467519118E+03  0.21467519118E+03  0.00000000000E+00 0.  1.
          2   -1    0    0  501    0  0.00000000000E+00 -0.00000000000E+00 -0.38565608079E+03  0.38565608079E+03  0.00000000000E+00 0. -1.
         25    2    1    2    0    0 -0.50279793551E+02 -0.14292758817E+03 -0.31538509967E+03  0.37157793747E+03  0.12508416933E+03 0.  0.
         23    2    1    2    0    0  0.50279793551E+02  0.14292758817E+03  0.14440421006E+03  0.22875333450E+03  0.92299290694E+02 0.  0.
          5    1    3    3  502    0 -0.46718933165E+02 -0.11572918259E+03 -0.11654169750E+03  0.17080790987E+03  0.41800000000E+01 0. -1.
         -5    1    3    3    0  502 -0.35608603862E+01 -0.27198405580E+02 -0.19884340217E+03  0.20077002759E+03  0.41800000000E+01 0. -1.
        -11    1    4    4    0    0  0.38207450505E+02  0.62614832816E+01  0.20124559030E+02  0.43635001124E+02  0.00000000000E+00 0.  1.
         11    1    4    4    0    0  0.12072343047E+02  0.13666610489E+03  0.12427965102E+03  0.18511833338E+03  0.00000000000E+00 0. -1.
</event>
<event>
 8    1  0.6760442E-009  0.1496741E+03  0.7561462E-02  0.1200874E+00
          2   -1    0    0  501    0  0.00000000000E+00  0.00000000000E+00  0.36843793728E+03  0.36843793728E+03  0.00000000000E+00 0. -1.
         -2   -1    0    0    0  501 -0.00000000000E+00 -0.00000000000E+00 -0.95879183549E+02  0.95879183549E+02  0.00000000000E+00 0.  1.
         25    2    1    2    0    0 -0.10702385249E+03 -0.83749687597E+02  0.57062158393E+02  0.19331755012E+03  0.12508984807E+03 0.  0.
         23    2    1    2    0    0  0.10702385249E+03  0.83749687597E+02  0.21549659534E+03  0.27099957071E+03  0.92378945366E+02 0.  0.
          5    1    3    3  502    0 -0.58054367075E+01  0.13966047852E+02  0.49982822267E+02  0.52388056938E+02  0.41800000000E+01 0.  1.
         -5    1    3    3    0  502 -0.10121841578E+03 -0.97715735449E+02  0.70793361253E+01  0.14092949318E+03  0.41800000000E+01 0.  1.
        -11    1    4    4    0    0  0.61560901206E+02  0.20244931467E+02  0.33495978272E+02  0.72949176609E+02  0.00000000000E+00 0.  1.
         11    1    4    4    0    0  0.45462951286E+02  0.63504756130E+02  0.18200061706E+03  0.19805039410E+03  0.00000000000E+00 0. -1.
</event>
<event>
 8    1  0.6760442E-009  0.1096062E+03  0.7561462E-02  0.1261301E+00
          1   -1    0    0  501    0  0.00000000000E+00  0.00000000000E+00  0.32310760437E+03  0.32310760437E+03  0.00000000000E+00 0. -1.
         -1   -1    0    0    0  501 -0.00000000000E+00 -0.00000000000E+00 -0.56674827016E+02  0.56674827016E+02  0.00000000000E+00 0.  1.
         25    2    1    2    0    0 -0.15432005184E+02  0.15560939404E+02  0.37489747874E+02  0.13241438988E+03  0.12509116608E+03 0.  0.
         23    2    1    2    0    0  0.15432005184E+02 -0.15560939404E+02  0.22894302948E+03  0.24736804151E+03  0.91080994684E+02 0.  0.
          5    1    3    3  502    0  0.12839282319E+01 -0.54487963429E+02  0.12524997859E+02  0.56079716491E+02  0.41800000000E+01 0. -1.
         -5    1    3    3    0  502 -0.16715933416E+02  0.70048902833E+02  0.24964750014E+02  0.76334673388E+02  0.41800000000E+01 0. -1.
        -11    1    4    4    0    0  0.30201915133E+02  0.31170552113E+02  0.12795810198E+03  0.13511859553E+03  0.00000000000E+00 0. -1.
         11    1    4    4    0    0 -0.14769909948E+02 -0.46731491517E+02  0.10098492750E+03  0.11224944598E+03  0.00000000000E+00 0.  1.
</event>
<event>
 8    1  0.6760442E-009  0.1023861E+03  0.7561462E-02  0.1275357E+00
         -1   -1    0    0    0  501 -0.00000000000E+00  0.00000000000E+00  0.13944021895E+03  0.13944021895E+03  0.00000000000E+00 0.  1.
          1   -1    0    0  501    0  0.00000000000E+00 -0.00000000000E+00 -0.11106143856E+03  0.11106143856E+03  0.00000000000E+00 0. -1.
         25    2    1    2    0    0  0.61202127560E+02  0.13327615107E+02  0.31668036731E+02  0.14344956936E+03  0.12510630942E+03 0.  0.
         23    2    1    2    0    0 -0.61202127560E+02 -0.13327615107E+02 -0.32892563422E+01  0.10705208816E+03  0.86752548257E+02 0.  0.
          5    1    3    3  502    0 -0.77578579017E+01 -0.37207773377E+02  0.42501210807E+02  0.57170167736E+02  0.41800000000E+01 0.  1.
         -5    1    3    3    0  502  0.68959985461E+02  0.50535388484E+02 -0.10833174076E+02  0.86279401624E+02  0.41800000000E+01 0.  1.
        -11    1    4    4    0    0 -0.22091540917E+02 -0.30962742395E+02 -0.36562232900E+02  0.52759117424E+02  0.00000000000E+00 0. -1.
         11    1    4    4    0    0 -0.39110586642E+02  0.17635127288E+02  0.33272976557E+02  0.54292970732E+02  0.00000000000E+00 0.  1.
</event>
<event>
 8    1  0.6760442E-009  0.2081332E+03  0.7561462E-02  0.1143053E+00
         -2   -1    0    0    0  501 -0.00000000000E+00  0.00000000000E+00  0.59598560941E+02  0.59598560941E+02  0.00000000000E+00 0.  1.
          2   -1    0    0  501    0  0.00000000000E+00 -0.00000000000E+00 -0.10957108759E+04  0.10957108759E+04  0.00000000000E+00 0. -1.
         25    2    1    2    0    0  0.17532265385E+03 -0.55548528170E+02 -0.84988559472E+03  0.87850783856E+03  0.12508727496E+03 0.  0.
         23    2    1    2    0    0 -0.17532265385E+03  0.55548528170E+02 -0.18622672026E+03  0.27680159830E+03  0.90083636411E+02 0.  0.
          5    1    3    3  502    0  0.16702730061E+03 -0.83001856965E+01 -0.55320277345E+03  0.57794272483E+03  0.41800000000E+01 0.  1.
         -5    1    3    3    0  502  0.82953532390E+01 -0.47248342474E+02 -0.29668282127E+03  0.30056511373E+03  0.41800000000E+01 0.  1.
        -11    1    4    4    0    0 -0.16769394937E+03  0.25250467666E+02 -0.17477185683E+03  0.24352422613E+03  0.00000000000E+00 0.  1.
         11    1    4    4    0    0 -0.76287044827E+01  0.30298060504E+02 -0.11454863422E+02  0.33277372168E+02  0.00000000000E+00 0. -1.
</event>
<event>
 8    1  0.6760442E-009  0.9331343E+02  0.7561462E-02  0.1295020E+00
          1   -1    0    0  501    0  0.00000000000E+00  0.00000000000E+00  0.16608526803E+02  0.16608526803E+02  0.00000000000E+00 0. -1.
         -1   -1    0    0    0  501 -0.00000000000E+00 -0.00000000000E+00 -0.75699613541E+03  0.75699613541E+03  0.00000000000E+00 0.  1.
         25    2    1    2    0    0  0.38227577023E+00  0.10865179429E+02 -0.51352724562E+03  0.52865504761E+03  0.12509088341E+03 0.  0.
         23    2    1    2    0    0 -0.38227577023E+00 -0.10865179429E+02 -0.22686036299E+03  0.24494961460E+03  0.91741436331E+02 0.  0.
          5    1    3    3  502    0  0.19565834274E+02 -0.37298871999E+02 -0.67963686968E+02  0.80065990717E+02  0.41800000000E+01 0.  1.
         -5    1    3    3    0  502 -0.19183558504E+02  0.48164051427E+02 -0.44556355865E+03  0.44858905689E+03  0.41800000000E+01 0.  1.
        -11    1    4    4    0    0 -0.44918427031E+02  0.45776743181E+01 -0.10544994211E+03  0.11470967911E+03  0.00000000000E+00 0. -1.
         11    1    4    4    0    0  0.44536151260E+02 -0.15442853747E+02 -0.12141042087E+03  0.13023993549E+03  0.00000000000E+00 0.  1.
</event>
<event>
 8    1  0.6760442E-009  0.1721330E+03  0.7561462E-02  0.1175642E+00
          4   -1    0    0  501    0  0.00000000000E+00  0.00000000000E+00  0.30056461398E+03  0.30056461398E+03  0.00000000000E+00 0. -1.
         -4   -1    0    0    0  501 -0.00000000000E+00 -0.00000000000E+00 -0.18455544908E+03  0.18455544908E+03  0.00000000000E+00 0.  1.
         25    2    1    2    0    0 -0.44285050929E+02  0.14786213207E+03  0.20414735212E+03  0.28486688189E+03  0.12509445706E+03 0.  0.
         23    2    1    2    0    0  0.44285050929E+02 -0.14786213207E+03 -0.88138187218E+02  0.20025318117E+03  0.92242184955E+02 0.  0.
          5    1    3    3  502    0 -0.50443552330E+02  0.26587595520E+02  0.13127814168E+03  0.14318825053E+03  0.41800000000E+01 0.  1.
         -5    1    3    3    0  502  0.61585014014E+01  0.12127453655E+03  0.72869210438E+02  0.14167863136E+03  0.41800000000E+01 0.  1.
        -11    1    4    4    0    0  0.58587391911E+02 -0.13082183447E+03 -0.10025302549E+03  0.17492142232E+03  0.00000000000E+00 0.  1.
         11    1    4    4    0    0 -0.14302340982E+02 -0.17040297593E+02  0.12114838277E+02  0.25331758843E+02  0.00000000000E+00 0. -1.
</event>
<event>
 8    1  0.6760442E-009  0.9646751E+02  0.7561462E-02  0.1287905E+00
          2   -1    0    0  501    0  0.00000000000E+00  0.00000000000E+00  0.12624644081E+04  0.12624644081E+04  0.00000000000E+00 0. -1.
         -2   -1    0    0    0  501 -0.00000000000E+00 -0.00000000000E+00 -0.14142507667E+02  0.14142507667E+02  0.00000000000E+00 0.  1.
         25    2    1    2    0    0 -0.13346030090E+02  0.14455069286E+02  0.11190245806E+04  0.11261663959E+04  0.12509066239E+03 0.  0.
         23    2    1    2    0    0  0.13346030090E+02 -0.14455069286E+02  0.12929731986E+03  0.15044051985E+03  0.74347074877E+02 0.  0.
          5    1    3    3  502    0  0.54886524830E+02 -0.50578335619E+01  0.52557760592E+03  0.52847649383E+03  0.41800000000E+01 0. -1.
         -5    1    3    3    0  502 -0.68232554920E+02  0.19512902848E+02  0.59344697466E+03  0.59768990210E+03  0.41800000000E+01 0. -1.
        -11    1    4    4    0    0 -0.78580856816E-01  0.24943649252E+02  0.15738585228E+02  0.29493980368E+02  0.00000000000E+00 0.  1.
         11    1    4    4    0    0  0.13424610947E+02 -0.39398718538E+02  0.11355873463E+03  0.12094653948E+03  0.00000000000E+00 0. -1.
</event>
<event>
 8    1  0.6760442E-009  0.1227602E+03  0.7561462E-02  0.1238612E+00
         -1   -1    0    0    0  501 -0.00000000000E+00  0.00000000000E+00  0.32088021231E+03  0.32088021231E+03  0.00000000000E+00 0.  1.
          1   -1    0    0  501    0  0.00000000000E+00 -0.00000000000E+00 -0.48082215198E+02  0.48082215198E+02  0.00000000000E+00 0. -1.
         25    2    1    2    0    0  0.66385427430E+02 -0.56741603914E+01  0.14636819499E+03  0.20374157139E+03  0.12509100022E+03 0.  0.
         23    2    1    2    0    0 -0.66385427430E+02  0.56741603914E+01  0.12642980212E+03  0.16522085611E+03  0.82910888067E+02 0.  0.
          5    1    3    3  502    0 -0.33698827858E+02 -0.21322103826E+02  0.36182616231E+02  0.54008307027E+02  0.41800000000E+01 0. -1.
         -5    1    3    3    0  502  0.10008425529E+03  0.15647943435E+02  0.11018557876E+03  0.14973326437E+03  0.41800000000E+01 0. -1.
        -11    1    4    4    0    0 -0.39151541054E+02 -0.36702257814E+02  0.82305204599E+02  0.98255002924E+02  0.00000000000E+00 0.  1.
         11    1    4    4    0    0 -0.27233886376E+02  0.42376418206E+02  0.44124597517E+02  0.66965853187E+02  0.00000000000E+00 0. -1.
</event>
<event>
 8    1  0.6760442E-009  0.1409859E+03  0.7561462E-02  0.1212009E+00
         -3   -1    0    0    0  501 -0.00000000000E+00  0.00000000000E+00  0.53802981861E+02  0.53802981861E+02  0.00000000000E+00 0.  1.
          3   -1    0    0  501    0  0.00000000000E+00 -0.00000000000E+00 -0.42945807460E+03  0.42945807460E+03  0.00000000000E+00 0. -1.
         25    2    1    2    0    0  0.92017703367E+02  0.12280853891E+02 -0.28855686771E+03  0.32792242613E+03  0.12509985832E+03 0.  0.
         23    2    1    2    0    0 -0.92017703367E+02 -0.12280853891E+02 -0.87098225032E+02  0.15533863033E+03  0.89027592156E+02 0.  0.
          5    1    3    3  502    0 -0.28771577417E+02 -0.99451985654E+01 -0.38141874227E+02  0.48979440698E+02  0.41800000000E+01 0.  1.
         -5    1    3    3    0  502  0.12078928078E+03  0.22226052456E+02 -0.25041499349E+03  0.27894298543E+03  0.41800000000E+01 0.  1.
        -11    1    4    4    0    0  0.32152237300E+01 -0.31113165630E+02 -0.17015923079E+02  0.35607701097E+02  0.00000000000E+00 0.  1.
         11    1    4    4    0    0 -0.95232927097E+02  0.18832311740E+02 -0.70082301953E+02  0.11973092924E+03  0.00000000000E+00 0. -1.
</event>
<event>
 8    1  0.6760442E-009  0.9779297E+02  0.7561462E-02  0.1285007E+00
          1   -1    0    0  501    0  0.00000000000E+00  0.00000000000E+00  0.11255353675E+03  0.11255353675E+03  0.00000000000E+00 0. -1.
         -1   -1    0    0    0  501 -0.00000000000E+00 -0.00000000000E+00 -0.12907702773E+03  0.12907702773E+03  0.00000000000E+00 0.  1.
         25    2    1    2    0    0 -0.23439610801E+02  0.10393835222E+02  0.38379980523E+02  0.13333582977E+03  0.12509185997E+03 0.  0.
         23    2    1    2    0    0  0.23439610801E+02 -0.10393835222E+02 -0.54903471507E+02  0.10829473471E+03  0.89754728101E+02 0.  0.
          5    1    3    3  502    0  0.28433429927E+02 -0.34780279513E+02  0.45474399941E+02  0.64058732663E+02  0.41800000000E+01 0.  1.
         -5    1    3    3    0  502 -0.51873040728E+02  0.45174114735E+02 -0.70944194174E+01  0.69277097105E+02  0.41800000000E+01 0.  1.
        -11    1    4    4    0    0 -0.15134768313E+02 -0.33380573910E+02  0.90683028900E+00  0.36662600394E+02  0.00000000000E+00 0. -1.
         11    1    4    4    0    0  0.38574379114E+02  0.22986738688E+02 -0.55810301796E+02  0.71632134312E+02  0.00000000000E+00 0.  1.
</event>
<event>
 8    1  0.6760442E-009  0.1952665E+03  0.7561462E-02  0.1153795E+00
         -2   -1    0    0    0  501 -0.00000000000E+00  0.00000000000E+00  0.51444089699E+02  0.51444089699E+02  0.00000000000E+00 0.  1.
          2   -1    0    0  501    0  0.00000000000E+00 -0.00000000000E+00 -0.10016831088E+04  0.10016831088E+04  0.00000000000E+00 0. -1.
         25    2    1    2    0    0 -0.11650725839E+03 -0.13978274689E+03 -0.67957118670E+03  0.71454691305E+03  0.12508851092E+03 0.  0.
         23    2    1    2    0    0  0.11650725839E+03  0.13978274689E+03 -0.27066783243E+03  0.33858028548E+03  0.90897616142E+02 0.  0.
          5    1    3    3  502    0 -0.75294951172E+01  0.16644903132E+01 -0.23882525374E+03  0.23898627168E+03  0.41800000000E+01 0. -1.
         -5    1    3    3    0  502 -0.10897776327E+03 -0.14144723720E+03 -0.44074593296E+03  0.47556064137E+03  0.41800000000E+01 0. -1.
        -11    1    4    4    0    0  0.12094804040E+03  0.84146332127E+02 -0.18856135380E+03  0.23929984921E+03  0.00000000000E+00 0.  1.
         11    1    4    4    0    0 -0.44407820133E+01  0.55636414764E+02 -0.82106478634E+02  0.99280436272E+02  0.00000000000E+00 0. -1.
</event>
<event>
 8    1  0.6760442E-009  0.1257235E+03  0.7561462E-02  0.1233943E+00
         -2   -1    0    0    0  501 -0.00000000000E+00  0.00000000000E+00  0.50872168080E+02  0.50872168080E+02  0.00000000000E+00 0.  1.
          2   -1    0    0  501    0  0.00000000000E+00 -0.00000000000E+00 -0.40044431053E+03  0.40044431053E+03  0.00000000000E+00 0. -1.
         25    2    1    2    0    0  0.56370579909E+02 -0.30628105881E+02 -0.88698410651E+02  0.16621860407E+03  0.12508194569E+03 0.  0.
         23    2    1    2    0    0 -0.56370579909E+02  0.30628105881E+02 -0.26087373180E+03  0.28509787454E+03  0.95446167940E+02 0.  0.
          5    1    3    3  502    0  0.96421171814E+02 -0.16794944472E+02 -0.63510560332E+02  0.11674834563E+03  0.41800000000E+01 0.  1.
         -5    1    3    3    0  502 -0.40050591904E+02 -0.13833161409E+02 -0.25187850319E+02  0.49470258440E+02  0.41800000000E+01 0.  1.
        -11    1    4    4    0    0 -0.80803938628E+02  0.30794366461E+02 -0.23004449611E+03  0.24576012633E+03  0.00000000000E+00 0. -1.
         11    1    4    4    0    0  0.24433358718E+02 -0.16626057978E+00 -0.30829235684E+02  0.39337748203E+02  0.00000000000E+00 0.  1.
</event>
<event>
 8    1  0.6760442E-009  0.1211447E+03  0.7561462E-02  0.1241221E+00
          1   -1    0    0  501    0  0.00000000000E+00  0.00000000000E+00  0.11113044995E+03  0.11113044995E+03  0.00000000000E+00 0. -1.
         -1   -1    0    0    0  501 -0.00000000000E+00 -0.00000000000E+00 -0.31465249103E+03  0.31465249103E+03  0.00000000000E+00 0.  1.
         25    2    1    2    0    0  0.24596262647E+02 -0.53169642865E+02 -0.26924257798E+03  0.30260216744E+03  0.12507805117E+03 0.  0.
         23    2    1    2    0    0 -0.24596262647E+02  0.53169642865E+02  0.65720536894E+02  0.12318077354E+03  0.86152927650E+02 0.  0.
          5    1    3    3  502    0 -0.27979960897E+02 -0.75663208086E+02 -0.15723407194E+03  0.17677054350E+03  0.41800000000E+01 0. -1.
         -5    1    3    3    0  502  0.52576223545E+02  0.22493565221E+02 -0.11200850604E+03  0.12583162394E+03  0.41800000000E+01 0. -1.
        -11    1    4    4    0    0 -0.74624515574E+01  0.75588099483E+02  0.48755373747E+02  0.90257052001E+02  0.00000000000E+00 0.  1.
         11    1    4    4    0    0 -0.17133811090E+02 -0.22418456618E+02  0.16965163147E+02  0.32923721543E+02  0.00000000000E+00 0. -1.
</event>
<event>
 8    1  0.6760442E-009  0.1000637E+03  0.7561462E-02  0.1280162E+00
         -1   -1    0    0    0  501 -0.00000000000E+00  0.00000000000E+00  0.18698824528E+02  0.18698824528E+02  0.00000000000E+00 0.  1.
          1   -1    0    0  501    0  0.00000000000E+00 -0.00000000000E+00 -0.71257703266E+03  0.71257703266E+03  0.00000000000E+00 0. -1.
         25    2    1    2    0    0 -0.13462355146E+02  0.36462880982E+02 -0.33632586283E+03  0.36093325814E+03  0.12508778570E+03 0.  0.
         23    2    1    2    0    0  0.13462355146E+02 -0.36462880982E+02 -0.35755234531E+03  0.37034259905E+03  0.88312990777E+02 0.  0.
          5    1    3    3  502    0 -0.54181313550E+02  0.34289808947E+02 -0.86434925532E+02  0.10770271346E+03  0.41800000000E+01 0.  1.
         -5    1    3    3    0  502  0.40718958404E+02  0.21730720349E+01 -0.24989093730E+03  0.25323054468E+03  0.41800000000E+01 0.  1.
        -11    1    4    4    0    0 -0.28174511998E+02 -0.44311791668E+02 -0.16377701494E+03  0.17198909451E+03  0.00000000000E+00 0.  1.
         11    1    4    4    0    0  0.41636867144E+02  0.78489106862E+01 -0.19377533037E+03  0.19835350454E+03  0.00000000000E+00 0. -1.
</event>
<event>
 8    1  0.6760442E-009  0.1056927E+03  0.7561462E-02  0.1268761E+00
          1   -1    0    0  501    0  0.00000000000E+00  0.00000000000E+00  0.27371328676E+03  0.27371328676E+03  0.00000000000E+00 0. -1.
         -1   -1    0    0    0  501 -0.00000000000E+00 -0.00000000000E+00 -0.59420157296E+02  0.59420157296E+02  0.00000000000E+00 0.  1.
         25    2    1    2    0    0  0.40257784198E+02 -0.35430900256E+02  0.16661731454E+03  0.21512633540E+03  0.12506787276E+03 0.  0.
         23    2    1    2    0    0 -0.40257784198E+02  0.35430900256E+02  0.47675814933E+02  0.11800710866E+03  0.93683811215E+02 0.  0.
          5    1    3    3  502    0  0.83234911655E+02 -0.54891748935E+01  0.10070520961E+03  0.13083269164E+03  0.41800000000E+01 0. -1.
         -5    1    3    3    0  502 -0.42977127457E+02 -0.29941725362E+02  0.65912104923E+02  0.84293643755E+02  0.41800000000E+01 0. -1.
        -11    1    4    4    0    0 -0.23231476442E+02  0.48552262198E+02  0.69146222607E+02  0.87625474395E+02  0.00000000000E+00 0. -1.
         11    1    4    4    0    0 -0.17026307756E+02 -0.13121361942E+02 -0.21470407674E+02  0.30381634267E+02  0.00000000000E+00 0.  1.
</event>
<event>
 8    1  0.6760442E-009  0.7882649E+02  0.7561462E-02  0.1332415E+00
          1   -1    0    0  501    0  0.00000000000E+00  0.00000000000E+00  0.62371298838E+02  0.62371298838E+02  0.00000000000E+00 0. -1.
         -1   -1    0    0    0  501 -0.00000000000E+00 -0.00000000000E+00 -0.19615669383E+03  0.19615669383E+03  0.00000000000E+00 0.  1.
         25    2    1    2    0    0 -0.11579177949E+02  0.11186815636E+02 -0.60477061416E+02  0.13987377642E+03  0.12509187091E+03 0.  0.
         23    2    1    2    0    0  0.11579177949E+02 -0.11186815636E+02 -0.73308333576E+02  0.11865421624E+03  0.91899341969E+02 0.  0.
          5    1    3    3  502    0  0.38887241466E+02 -0.17275062078E+02  0.14390488534E+02  0.45113233966E+02  0.41800000000E+01 0.  1.
         -5    1    3    3    0  502 -0.50466419415E+02  0.28461877714E+02 -0.74867549950E+02  0.94760542459E+02  0.41800000000E+01 0.  1.
        -11    1    4    4    0    0 -0.11918434150E+02  0.16588042451E+02 -0.79206809374E+02  0.81798110468E+02  0.00000000000E+00 0.  1.
         11    1    4    4    0    0  0.23497612099E+02 -0.27774858087E+02  0.58984757976E+01  0.36856105774E+02  0.00000000000E+00 0. -1.
</event>
<event>
 7    1  0.6760442E-009  0.1061606E+03  0.7561462E-02  0.1267850E+00
          1   -1    0    0  501    0  0.00000000000E+00  0.00000000000E+00  0.16029189870E+03  0.16029189870E+03  0.00000000000E+00 0. -1.
         -1   -1    0    0    0  501 -0.00000000000E+00 -0.00000000000E+00 -0.13190985906E+03  0.13190985906E+03  0.00000000000E+00 0.  1.
         23    2    1    2    0    0 -0.66978347727E+02 -0.30536137191E+02 -0.49665765386E+02  0.12724115436E+03  0.91132147861E+02 0.  0.
          5    1    1    2  502    0  0.17551679657E+02 -0.19492206043E+02 -0.27388980545E+02  0.38152800821E+02  0.41800000000E+01 0. -1.
         -5    1    1    2    0  502  0.49426668070E+02  0.50028343234E+02  0.10543678556E+03  0.12680780257E+03  0.41800000000E+01 0. -1.
        -11    1    3    3    0    0 -0.68898382682E+02  0.14354536858E+02 -0.41100751331E+02  0.81500378064E+02  0.00000000000E+00 0.  1.
         11    1    3    3    0    0  0.19200349553E+01 -0.44890674049E+02 -0.85650140556E+01  0.45740776300E+02  0.00000000000E+00 0. -1.
</event>
<event>
 8    1  0.6760442E-009  0.2332161E+03  0.7561462E-02  0.1124396E+00
          2   -1    0    0  501    0  0.00000000000E+00  0.00000000000E+00  0.31022451911E+03  0.31022451911E+03  0.00000000000E+00 0. -1.
         -2   -1    0    0    0  501 -0.00000000000E+00 -0.00000000000E+00 -0.27909705693E+03  0.27909705693E+03  0.00000000000E+00 0.  1.
         25    2    1    2    0    0 -0.21358154410E+03  0.75634905487E+02 -0.13677205169E+03  0.29273225343E+03  0.12509141925E+03 0.  0.
         23    2    1    2    0    0  0.21358154410E+03 -0.75634905487E+02  0.16789951387E+03  0.29658932261E+03  0.91854584122E+02 0.  0.
          5    1    3    3  502    0 -0.20170472066E+03  0.51012056852E+02 -0.15511389293E+03  0.25954732990E+03  0.41800000000E+01 0. -1.
         -5    1    3    3    0  502 -0.11876823439E+02  0.24622848635E+02  0.18341841236E+02  0.33184923532E+02  0.41800000000E+01 0. -1.
        -11    1    4    4    0    0  0.82750955749E+02 -0.51995514184E+02  0.12116123300E+03  0.15566405672E+03  0.00000000000E+00 0. -1.
         11    1    4    4    0    0  0.13083058835E+03 -0.23639391303E+02  0.46738280870E+02  0.14092526589E+03  0.00000000000E+00 0.  1.
</event>
<event>
 8    1  0.6760442E-009  0.1546406E+03  0.7561462E-02  0.1194884E+00
         -1   -1    0    0    0  501 -0.00000000000E+00  0.00000000000E+00  0.69207696680E+03  0.69207696680E+03  0.00000000000E+00 0.  1.
          1   -1    0    0  501    0  0.00000000000E+00 -0.00000000000E+00 -0.53758351484E+02  0.53758351484E+02  0.00000000000E+00 0. -1.
         25    2    1    2    0    0 -0.11246020539E+03 -0.29753927433E+01  0.11823874749E+03  0.20563067401E+03  0.12508965555E+03 0.  0.
         23    2    1    2    0    0  0.11246020539E+03  0.29753927433E+01  0.52007986782E+03  0.54020464427E+03  0.93176381253E+02 0.  0.
          5    1    3    3  502    0  0.15922582344E+02 -0.28213001012E+02  0.45073431547E+02  0.55664968211E+02  0.41800000000E+01 0.  1.
         -5    1    3    3    0  502 -0.12838278774E+03  0.25237608268E+02  0.73165315947E+02  0.14996570580E+03  0.41800000000E+01 0.  1.
        -11    1    4    4    0    0  0.12832334473E+03 -0.39891018069E+01  0.46965377584E+03  0.48688547206E+03  0.00000000000E+00 0. -1.
         11    1    4    4    0    0 -0.15863139334E+02  0.69644945502E+01  0.50426091975E+02  0.53319172216E+02  0.00000000000E+00 0.  1.
</event>
<event>
 8    1  0.6760442E-009  0.7031304E+02  0.7561462E-02  0.1359032E+00
          1   -1    0    0  501    0  0.00000000000E+00  0.00000000000E+00  0.22424856125E+04  0.22424856125E+04  0.00000000000E+00 0. -1.
         -1   -1    0    0    0  501 -0.00000000000E+00 -0.00000000000E+00 -0.11656894256E+02  0.11656894256E+02  0.00000000000E+00 0.  1.
         25    2    1    2    0    0 -0.18122884224E+02  0.29491891888E+02  0.19891175966E+04  0.19933477971E+04  0.12509363064E+03 0.  0.
         23    2    1    2    0    0  0.18122884224E+02 -0.29491891888E+02  0.24171112169E+03  0.26079470971E+03  0.91604604946E+02 0.  0.
          5    1    3    3  502    0 -0.29559459444E-01 -0.49700829172E+01  0.18095922479E+04  0.18096039011E+04  0.41800000000E+01 0. -1.
         -5    1    3    3    0  502 -0.18093324765E+02  0.34461974806E+02  0.17952534868E+03  0.18374389602E+03  0.41800000000E+01 0. -1.
        -11    1    4    4    0    0  0.51231248887E+02 -0.34122122756E+02  0.18490553242E+03  0.19488205675E+03  0.00000000000E+00 0. -1.
         11    1    4    4    0    0 -0.33108364663E+02  0.46302308673E+01  0.56805589264E+02  0.65912652960E+02  0.00000000000E+00 0.  1.
</event>
<event>
 8    1  0.6760442E-009  0.6536697E+02  0.7561462E-02  0.1376596E+00
         -1   -1    0    0    0  501 -0.00000000000E+00  0.00000000000E+00  0.58261197292E+03  0.58261197292E+03  0.00000000000E+00 0.  1.
          1   -1    0    0  501    0  0.00000000000E+00 -0.00000000000E+00 -0.27166590818E+02  0.27166590818E+02  0.00000000000E+00 0. -1.
         25    2    1    2    0    0 -0.13978491875E+02 -0.51801211439E+01  0.46035062554E+03  0.47727590606E+03  0.12508940874E+03 0.  0.
         23    2    1    2    0    0  0.13978491875E+02  0.51801211439E+01  0.95094756562E+02  0.13250265768E+03  0.91058825361E+02 0.  0.
          5    1    3    3  502    0  0.76783630933E+01  0.23482052503E+02  0.42805759436E+03  0.42879032234E+03  0.41800000000E+01 0.  1.
         -5    1    3    3    0  502 -0.21656854968E+02 -0.28662173647E+02  0.32293031186E+02  0.48485583718E+02  0.41800000000E+01 0.  1.
        -11    1    4    4    0    0 -0.13646137411E+02 -0.25071100046E+02  0.85897958318E+02  0.90516497761E+02  0.00000000000E+00 0.  1.
         11    1    4    4    0    0  0.27624629286E+02  0.30251221189E+02  0.91967982438E+01  0.41986159917E+02  0.00000000000E+00 0. -1.
</event>
<event>
 8    1  0.6760442E-009  0.1081577E+03  0.7561462E-02  0.1264020E+00
          3   -1    0    0  501    0  0.00000000000E+00  0.00000000000E+00  0.31687714429E+02  0.31687714429E+02  0.00000000000E+00 0. -1.
         -3   -1    0    0    0  501 -0.00000000000E+00 -0.00000000000E+00 -0.43521815990E+03  0.43521815990E+03  0.00000000000E+00 0.  1.
         25    2    1    2    0    0 -0.43483267335E+02  0.19228185045E+02 -0.21443528840E+03  0.25276826740E+03  0.12509510964E+03 0.  0.
         23    2    1    2    0    0  0.43483267335E+02 -0.19228185045E+02 -0.18909515708E+03  0.21413760694E+03  0.88529196516E+02 0.  0.
          5    1    3    3  502    0 -0.79527260054E+02 -0.43098339985E+01 -0.18199557756E+03  0.19870335280E+03  0.41800000000E+01 0.  1.
         -5    1    3    3    0  502  0.36043992719E+02  0.23538019043E+02 -0.32439710835E+02  0.54064914600E+02  0.41800000000E+01 0.  1.
        -11    1    4    4    0    0  0.14379631711E+02  0.31612270039E+02 -0.11231264925E+03  0.11755951942E+03  0.00000000000E+00 0.  1.
         11    1    4    4    0    0  0.29103635624E+02 -0.50840455084E+02 -0.76782507830E+02  0.96578087516E+02  0.00000000000E+00 0. -1.
</event>
<event>
 8    1  0.6760442E-009  0.1160623E+03  0.7561462E-02  0.1249738E+00
          1   -1    0    0  501    0  0.00000000000E+00  0.00000000000E+00  0.33028257851E+03  0.33028257851E+03  0.00000000000E+00 0. -1.
         -1   -1    0    0    0  501 -0.00000000000E+00 -0.00000000000E+00 -0.54214061427E+02  0.54214061427E+02  0.00000000000E+00 0.  1.
         25    2    1    2    0    0  0.54900047776E+02  0.37713606937E+02  0.92729092154E+02  0.16935967066E+03  0.12509069558E+03 0.  0.
         23    2    1    2    0    0 -0.54900047776E+02 -0.37713606937E+02  0.18333942493E+03  0.21513696927E+03  0.90742710023E+02 0.  0.
          5    1    3    3  502    0 -0.12107048449E+02  0.50700856637E+02  0.85995234335E+02  0.10064695830E+03  0.41800000000E+01 0.  1.
         -5    1    3    3    0  502  0.67007096225E+02 -0.12987249700E+02  0.67338578189E+01  0.68712712364E+02  0.41800000000E+01 0.  1.
        -11    1    4    4    0    0 -0.18677062409E+02 -0.64015304801E+02  0.94532673333E+02  0.11568586014E+03  0.00000000000E+00 0. -1.
         11    1    4    4    0    0 -0.36222985368E+02  0.26301697864E+02  0.88806751593E+02  0.99451109134E+02  0.00000000000E+00 0.  1.
</event>
<event>
 8    1  0.6760442E-009  0.1490097E+03  0.7561462E-02  0.1201695E+00
         -2   -1    0    0    0  501 -0.00000000000E+00  0.00000000000E+00  0.18937196282E+02  0.18937196282E+02  0.00000000000E+00 0.  1.
          2   -1    0    0  501    0  0.00000000000E+00 -0.00000000000E+00 -0.16528215032E+04  0.16528215032E+04  0.00000000000E+00 0. -1.
         25    2    1    2    0    0 -0.11088954373E+03 -0.77176568850E+02 -0.10416122337E+04  0.10577597825E+04  0.12508796259E+03 0.  0.
         23    2    1    2    0    0  0.11088954373E+03  0.77176568850E+02 -0.59227207322E+03  0.61399891699E+03  0.89194997949E+02 0.  0.
          5    1    3    3  502    0 -0.60923608751E+02 -0.91902742623E+02 -0.90134861778E+03  0.90807742147E+03  0.41800000000E+01 0. -1.
         -5    1    3    3    0  502 -0.49965934980E+02  0.14726173773E+02 -0.14026361594E+03  0.14968236105E+03  0.41800000000E+01 0. -1.
        -11    1    4    4    0    0  0.29318951443E+02  0.15557263820E+02 -0.38331943697E+02  0.50704706673E+02  0.00000000000E+00 0.  1.
         11    1    4    4    0    0  0.81570592288E+02  0.61619305030E+02 -0.55394012953E+03  0.56329421032E+03  0.00000000000E+00 0. -1.
</event>
<event>
 8    1  0.6760442E-009  0.5779134E+02  0.7561462E-02  0.1407341E+00
         -1   -1    0    0    0  501 -0.00000000000E+00  0.00000000000E+00  0.89244084463E+02  0.89244084463E+02  0.00000000000E+00 0.  1.
          1   -1    0    0  501    0  0.00000000000E+00 -0.00000000000E+00 -0.16510592483E+03  0.16510592483E+03  0.00000000000E+00 0. -1.
         25    2    1    2    0    0  0.13832680115E+02  0.30067183114E+02 -0.92298941571E+02  0.15893810689E+03  0.12508736414E+03 0.  0.
         23    2    1    2    0    0 -0.13832680115E+02 -0.30067183114E+02  0.16437101207E+02  0.95411902402E+02  0.87965187912E+02 0.  0.
          5    1    3    3  502    0  0.23580332840E+01  0.18894679461E+02 -0.12274513772E+03  0.12428358889E+03  0.41800000000E+01 0.  1.
         -5    1    3    3    0  502  0.11474646831E+02  0.11172503653E+02  0.30446196150E+02  0.34654517999E+02  0.41800000000E+01 0.  1.
        -11    1    4    4    0    0  0.29712500492E+02 -0.16167720883E+02  0.32551440931E+02  0.46944905908E+02  0.00000000000E+00 0.  1.
         11    1    4    4    0    0 -0.43545180607E+02 -0.13899462231E+02 -0.16114339724E+02  0.48466996494E+02  0.00000000000E+00 0. -1.
</event>
<event>
 8    1  0.6760442E-009  0.4688193E+03  0.7561462E-02  0.1022254E+00
          2   -1    0    0  501    0  0.00000000000E+00  0.00000000000E+00  0.29058841279E+04  0.29058841279E+04  0.00000000000E+00 0. -1.
         -2   -1    0    0    0  501 -0.00000000000E+00 -0.00000000000E+00 -0.80333518163E+02  0.80333518163E+02  0.00000000000E+00 0.  1.
         25    2    1    2    0    0 -0.12325817327E+03  0.44209744523E+03  0.11063556667E+04  0.12042893020E+04  0.12508850236E+03 0.  0.
         23    2    1    2    0    0  0.12325817327E+03 -0.44209744523E+03  0.17191949431E+04  0.17819283441E+04  0.94840090101E+02 0.  0.
          5    1    3    3  502    0  0.99905888601E+01  0.16309324071E+03  0.44932374508E+03  0.47813023050E+03  0.41800000000E+01 0.  1.
         -5    1    3    3    0  502 -0.13324876213E+03  0.27900420452E+03  0.65703192159E+03  0.72615907151E+03  0.41800000000E+01 0.  1.
        -11    1    4    4    0    0  0.10825345053E+03 -0.25185491641E+03  0.11209490126E+04  0.11539828410E+04  0.00000000000E+00 0. -1.
         11    1    4    4    0    0  0.15004722744E+02 -0.19024252882E+03  0.59824593047E+03  0.62794550305E+03  0.00000000000E+00 0.  1.
</event>
<event>
 8    1  0.6760442E-009  0.9849513E+02  0.7561462E-02  0.1283493E+00
         -2   -1    0    0    0  501 -0.00000000000E+00  0.00000000000E+00  0.45324961468E+02  0.45324961468E+02  0.00000000000E+00 0.  1.
          2   -1    0    0  501    0  0.00000000000E+00 -0.00000000000E+00 -0.28762366745E+03  0.28762366745E+03  0.00000000000E+00 0. -1.
         25    2    1    2    0    0  0.87495333511E+01 -0.34619989014E+02 -0.12800393658E+03  0.18250507138E+03  0.12509194748E+03 0.  0.
         23    2    1    2    0    0 -0.87495333511E+01  0.34619989014E+02 -0.11429476939E+03  0.15044355754E+03  0.91076186351E+02 0.  0.
          5    1    3    3  502    0 -0.10834911488E+02 -0.75455857440E+02 -0.47131995462E+02  0.89721118613E+02  0.41800000000E+01 0. -1.
         -5    1    3    3    0  502  0.19584444839E+02  0.40835868426E+02 -0.80871941120E+02  0.92783952763E+02  0.41800000000E+01 0. -1.
        -11    1    4    4    0    0 -0.36797589047E+02  0.10754863257E+02 -0.10596410532E+03  0.11268594083E+03  0.00000000000E+00 0. -1.
         11    1    4    4    0    0  0.28048055696E+02  0.23865125757E+02 -0.83306640721E+01  0.37757616710E+02  0.00000000000E+00 0.  1.
</event>
<event>
 8    1  0.6760442E-009  0.9890560E+02  0.7561462E-02  0.1282614E+00
         -4   -1    0    0    0  501 -0.00000000000E+00  0.00000000000E+00  0.22048157577E+02  0.22048157577E+02  0.00000000000E+00 0.  1.
          4   -1    0    0  501    0  0.00000000000E+00 -0.00000000000E+00 -0.58808497176E+03  0.58808497176E+03  0.00000000000E+00 0. -1.
         25    2    1    2    0    0  0.32553228875E+02  0.71268773502E+01 -0.36664398142E+03  0.38881914405E+03  0.12506803179E+03 0.  0.
         23    2    1    2    0    0 -0.32553228875E+02 -0.71268773502E+01 -0.19939283276E+03  0.22131398529E+03  0.90065938266E+02 0.  0.
          5    1    3    3  502    0  0.11839037086E+02  0.55278863947E+02 -0.84083181936E+02  0.10140694987E+03  0.41800000000E+01 0.  1.
         -5    1    3    3    0  502  0.20714191789E+02 -0.48151986597E+02 -0.28256079948E+03  0.28741219417E+03  0.41800000000E+01 0.  1.
        -11    1    4    4    0    0 -0.10813124773E+02  0.37430716104E+02 -0.46943648412E+02  0.61005641556E+02  0.00000000000E+00 0.  1.
         11    1    4    4    0    0 -0.21740104102E+02 -0.44557593454E+02 -0.15244918435E+03  0.16030834373E+03  0.00000000000E+00 0. -1.
</event>
<event>
 8    1  0.6760442E-009  0.8212048E+02  0.7561462E-02  0.1323139E+00
         -1   -1    0    0    0  501 -0.00000000000E+00  0.00000000000E+00  0.41977604143E+02  0.41977604143E+02  0.00000000000E+00 0. -1.
          1   -1    0    0  501    0  0.00000000000E+00 -0.00000000000E+00 -0.29412817173E+03  0.29412817173E+03  0.00000000000E+00 0.  1.
         25    2    1    2    0    0  0.96173086978E+01  0.61990916227E+01 -0.18098648870E+03  0.22030585590E+03  0.12509052597E+03 0.  0.
         23    2    1    2    0    0 -0.96173086978E+01 -0.61990916227E+01 -0.71164078883E+02  0.11579991997E+03  0.90633183652E+02 0.  0.
          5    1    3    3  502    0  0.65596546157E+02  0.70605703564E+01 -0.12272018723E+03  0.13939323970E+03  0.41800000000E+01 0. -1.
         -5    1    3    3    0  502 -0.55979237459E+02 -0.86147873368E+00 -0.58266301477E+02  0.80912616197E+02  0.41800000000E+01 0. -1.
        -11    1    4    4    0    0 -0.17272951290E+02  0.12806113089E+02 -0.87180804393E+02  0.89793340696E+02  0.00000000000E+00 0.  1.
         11    1    4    4    0    0  0.76556425924E+01 -0.19005204711E+02  0.16016725510E+02  0.26006579277E+02  0.00000000000E+00 0. -1.
</event>
<event>
 8    1  0.6760442E-009  0.1229162E+03  0.7561462E-02  0.1238362E+00
          1   -1    0    0  501    0  0.00000000000E+00  0.00000000000E+00  0.36152069759E+03  0.36152069759E+03  0.00000000000E+00 0. -1.
         -1   -1    0    0    0  501 -0.00000000000E+00 -0.00000000000E+00 -0.51935834666E+02  0.51935834666E+02  0.00000000000E+00 0.  1.
         25    2    1    2    0    0 -0.75454423107E+02 -0.14088145909E+02  0.21924388348E+03  0.26383230632E+03  0.12509100525E+03 0.  0.
         23    2    1    2    0    0  0.75454423107E+02  0.14088145909E+02  0.90340979444E+02  0.14962422593E+03  0.91291130994E+02 0.  0.
          5    1    3    3  502    0  0.19354221758E+02  0.24610827539E+02  0.10822212336E+03  0.11273765616E+03  0.41800000000E+01 0.  1.
         -5    1    3    3    0  502 -0.94808644865E+02 -0.38698973448E+02  0.11102176012E+03  0.15109465016E+03  0.41800000000E+01 0.  1.
        -11    1    4    4    0    0  0.54135824869E+02 -0.30642316066E+02  0.23673290636E+02  0.66558724129E+02  0.00000000000E+00 0.  1.
         11    1    4    4    0    0  0.21318598238E+02  0.44730461975E+02  0.66667688807E+02  0.83065501806E+02  0.00000000000E+00 0. -1.
</event>
<event>
 8    1  0.6760442E-009  0.1397425E+03  0.7561462E-02  0.1213676E+00
         -2   -1    0    0    0  501 -0.00000000000E+00  0.00000000000E+00  0.22658468366E+03  0.22658468366E+03  0.00000000000E+00 0. -1.
          2   -1    0    0  501    0  0.00000000000E+00 -0.00000000000E+00 -0.22452186604E+03  0.22452186604E+03  0.00000000000E+00 0.  1.
         25    2    1    2    0    0 -0.17786355161E+02 -0.10282602175E+03  0.16843918557E+03  0.23432719985E+03  0.12509169507E+03 0.  0.
         23    2    1    2    0    0  0.17786355161E+02  0.10282602175E+03 -0.16637636795E+03  0.21677934985E+03  0.91774972236E+02 0.  0.
          5    1    3    3  502    0 -0.44307229492E+01  0.19609559985E+02 -0.54069659964E+01  0.21233789816E+02  0.41800000000E+01 0. -1.
         -5    1    3    3    0  502 -0.13355632212E+02 -0.12243558174E+03  0.17384615157E+03  0.21309341004E+03  0.41800000000E+01 0. -1.
        -11    1    4    4    0    0  0.50551851483E+02  0.38552695277E+02 -0.10143889962E+03  0.11971487108E+03  0.00000000000E+00 0.  1.
         11    1    4    4    0    0 -0.32765496322E+02  0.64273326476E+02 -0.64937468330E+02  0.97064478768E+02  0.00000000000E+00 0. -1.
</event>
<event>
 8    1  0.6760442E-009  0.1444319E+03  0.7561462E-02  0.1207487E+00
          4   -1    0    0  501    0  0.00000000000E+00  0.00000000000E+00  0.83134380538E+02  0.83134380538E+02  0.00000000000E+00 0. -1.
         -4   -1    0    0    0  501 -0.00000000000E+00 -0.00000000000E+00 -0.29050422178E+03  0.29050422178E+03  0.00000000000E+00 0.  1.
         25    2    1    2    0    0  0.96852308510E+02 -0.35960912089E+02 -0.16078168814E+03  0.22840651205E+03  0.12508088041E+03 0.  0.
         23    2    1    2    0    0 -0.96852308510E+02  0.35960912089E+02 -0.46588153106E+02  0.14523209027E+03  0.90820411654E+02 0.  0.
          5    1    3    3  502    0  0.34537160207E+02 -0.76761954099E+02 -0.10814000924E+03  0.13710195852E+03  0.41800000000E+01 0.  1.
         -5    1    3    3    0  502  0.62315148303E+02  0.40801042010E+02 -0.52641678899E+02  0.91304553525E+02  0.41800000000E+01 0.  1.
        -11    1    4    4    0    0 -0.63802136279E+02  0.61192884379E+02 -0.84453440376E+01  0.88806562417E+02  0.00000000000E+00 0. -1.
         11    1    4    4    0    0 -0.33050172231E+02 -0.25231972290E+02 -0.38142809068E+02  0.56425527855E+02  0.00000000000E+00 0.  1.
</event>
<event>
 8    1  0.6760442E-009  0.1066351E+03  0.7561462E-02  0.1266931E+00
         -4   -1    0    0    0  501 -0.00000000000E+00  0.00000000000E+00  0.18991229516E+03  0.18991229516E+03  0.00000000000E+00 0.  1.
          4   -1    0    0  501    0  0.00000000000E+00 -0.00000000000E+00 -0.10280588304E+03  0.10280588304E+03  0.00000000000E+00 0. -1.
         25    2    1    2    0    0  0.46254462276E+02  0.27657598284E+01  0.12622905743E+03  0.18364788943E+03  0.12508256331E+03 0.  0.
         23    2    1    2    0    0 -0.46254462276E+02 -0.27657598284E+01 -0.39122645307E+02  0.10907028877E+03  0.90656614811E+02 0.  0.
          5    1    3    3  502    0 -0.24539391901E+02 -0.40492703401E+02  0.28651014457E+02  0.55499493808E+02  0.41800000000E+01 0.  1.
         -5    1    3    3    0  502  0.70793854178E+02  0.43258463229E+02  0.97578042973E+02  0.12814839562E+03  0.41800000000E+01 0.  1.
        -11    1    4    4    0    0 -0.50665050409E+02 -0.27429474869E+02 -0.54801172701E+02  0.79514099089E+02  0.00000000000E+00 0. -1.
         11    1    4    4    0    0  0.44105881324E+01  0.24663715041E+02  0.15678527394E+02  0.29556189682E+02  0.00000000000E+00 0.  1.
</event>
<event>
 8    1  0.6760442E-009  0.1150440E+03  0.7561462E-02  0.1251504E+00
          1   -1    0    0  501    0  0.00000000000E+00  0.00000000000E+00  0.35316007691E+02  0.35316007691E+02  0.00000000000E+00 0. -1.
         -1   -1    0    0    0  501 -0.00000000000E+00 -0.00000000000E+00 -0.45038188844E+03  0.45038188844E+03  0.00000000000E+00 0.  1.
         25    2    1    2    0    0 -0.15013181935E+02 -0.42331674303E+02 -0.28801955801E+03  0.31720775545E+03  0.12509247796E+03 0.  0.
         23    2    1    2    0    0  0.15013181935E+02  0.42331674303E+02 -0.12704632274E+03  0.16849014068E+03  0.10114738308E+03 0.  0.
          5    1    3    3  502    0 -0.50994923240E+02  0.18135189363E+02 -0.18177413722E+03  0.18970681762E+03  0.41800000000E+01 0.  1.
         -5    1    3    3    0  502  0.35981741306E+02 -0.60466863667E+02 -0.10624542079E+03  0.12750093783E+03  0.41800000000E+01 0.  1.
        -11    1    4    4    0    0  0.25440621520E+02 -0.25892752587E+02 -0.70384350761E+02  0.79193539458E+02  0.00000000000E+00 0.  1.
         11    1    4    4    0    0 -0.10427439586E+02  0.68224426891E+02 -0.56661971975E+02  0.89296601217E+02  0.00000000000E+00 0. -1.
</event>
<event>
 8    1  0.6760442E-009  0.1317032E+03  0.7561462E-02  0.1224950E+00
          1   -1    0    0  501    0  0.00000000000E+00  0.00000000000E+00  0.33164851995E+03  0.33164851995E+03  0.00000000000E+00 0. -1.
         -1   -1    0    0    0  501 -0.00000000000E+00 -0.00000000000E+00 -0.81822983410E+02  0.81822983410E+02  0.00000000000E+00 0.  1.
         25    2    1    2    0    0  0.30388877493E+02 -0.77433491223E+02  0.24844666673E+03  0.29033158195E+03  0.12508897566E+03 0.  0.
         23    2    1    2    0    0 -0.30388877493E+02  0.77433491223E+02  0.13788698119E+01  0.12313992141E+03  0.90786064592E+02 0.  0.
          5    1    3    3  502    0  0.44641157779E+02 -0.10228432387E+03  0.14566427736E+03  0.18354963900E+03  0.41800000000E+01 0. -1.
         -5    1    3    3    0  502 -0.14252280287E+02  0.24850832648E+02  0.10278238937E+03  0.10678194295E+03  0.41800000000E+01 0. -1.
        -11    1    4    4    0    0  0.12440762929E+02 -0.15838373908E+02 -0.32475983865E+01  0.20400332487E+02  0.00000000000E+00 0. -1.
         11    1    4    4    0    0 -0.42829640421E+02  0.93271865131E+02  0.46264681985E+01  0.10273958892E+03  0.00000000000E+00 0.  1.
</event>
<event>
 8    1  0.6760442E-009  0.1547455E+03  0.7561462E-02  0.1194760E+00
         -2   -1    0    0    0  501 -0.00000000000E+00  0.00000000000E+00  0.61333956186E+02  0.61333956186E+02  0.00000000000E+00 0. -1.
          2   -1    0    0  501    0  0.00000000000E+00 -0.00000000000E+00 -0.49983080740E+03  0.49983080740E+03  0.00000000000E+00 0.  1.
         25    2    1    2    0    0  0.78497532515E+02 -0.85143987001E+02 -0.11468207041E+03  0.20545295621E+03  0.12509028264E+03 0.  0.
         23    2    1    2    0    0 -0.78497532515E+02  0.85143987001E+02 -0.32381478081E+03  0.35571180737E+03  0.90903886068E+02 0.  0.
          5    1    3    3  502    0 -0.86616211868E+01 -0.79927141909E+02 -0.72731304333E+02  0.10849279573E+03  0.41800000000E+01 0.  1.
         -5    1    3    3    0  502  0.87159153701E+02 -0.52168450920E+01 -0.41950766074E+02  0.96960160483E+02  0.41800000000E+01 0.  1.
        -11    1    4    4    0    0 -0.22443979960E+02 -0.14868798138E+02 -0.29938646485E+02  0.40263332548E+02  0.00000000000E+00 0.  1.
         11    1    4    4    0    0 -0.56053552554E+02  0.10001278514E+03 -0.29387613432E+03  0.31544847482E+03  0.00000000000E+00 0. -1.
</event>
<event>
 8    1  0.6760442E-009  0.1045604E+03  0.7561462E-02  0.1270988E+00
          2   -1    0    0  501    0  0.00000000000E+00  0.00000000000E+00  0.17833183723E+03  0.17833183723E+03  0.00000000000E+00 0.  1.
         -2   -1    0    0    0  501 -0.00000000000E+00 -0.00000000000E+00 -0.88040220671E+02  0.88040220671E+02  0.00000000000E+00 0. -1.
         25    2    1    2    0    0  0.44313429583E+02  0.20638852575E+02  0.91475226264E+02  0.16249637914E+03  0.12509082276E+03 0.  0.
         23    2    1    2    0    0 -0.44313429583E+02 -0.20638852575E+02 -0.11836097056E+01  0.10387567876E+03  0.91646677127E+02 0.  0.
          5    1    3    3  502    0  0.81264525163E+02 -0.20027599253E+01  0.29125798523E+02  0.86450671698E+02  0.41800000000E+01 0.  1.
         -5    1    3    3    0  502 -0.36951095581E+02  0.22641612500E+02  0.62349427742E+02  0.76045707446E+02  0.41800000000E+01 0.  1.
        -11    1    4    4    0    0 -0.57197959713E+02  0.29870894215E+01  0.28360290847E+02  0.63912717009E+02  0.00000000000E+00 0.  1.
         11    1    4    4    0    0  0.12884530130E+02 -0.23625941996E+02 -0.29543900552E+02  0.39962961749E+02  0.00000000000E+00 0. -1.
</event>
<event>
 8    1  0.6760442E-009  0.1077943E+03  0.7561462E-02  0.1264710E+00
          2   -1    0    0  501    0  0.00000000000E+00  0.00000000000E+00  0.88256537831E+03  0.88256537831E+03  0.00000000000E+00 0. -1.
         -2   -1    0    0    0  501 -0.00000000000E+00 -0.00000000000E+00 -0.22866608921E+02  0.22866608921E+02  0.00000000000E+00 0.  1.
         25    2    1    2    0    0  0.47388323587E+02  0.25522728796E+02  0.68170488352E+03  0.69517393931E+03  0.12509274471E+03 0.  0.
         23    2    1    2    0    0 -0.47388323587E+02 -0.25522728796E+02  0.17799388586E+03  0.21025804792E+03  0.98130323613E+02 0.  0.
          5    1    3    3  502    0  0.61522745415E+02  0.67571502047E+02  0.47320065449E+03  0.48196191541E+03  0.41800000000E+01 0.  1.
         -5    1    3    3    0  502 -0.14134421828E+02 -0.42048773251E+02  0.20850422903E+03  0.21321202390E+03  0.41800000000E+01 0.  1.
        -11    1    4    4    0    0 -0.24122377193E+02 -0.43774759408E+02  0.17324189540E+03  0.18030771743E+03  0.00000000000E+00 0. -1.
         11    1    4    4    0    0 -0.23265946395E+02  0.18252030613E+02  0.47519904639E+01  0.29950330490E+02  0.00000000000E+00 0.  1.
</event>
<event>
 8    1  0.6760442E-009  0.9764913E+02  0.7561462E-02  0.1285319E+00
         -2   -1    0    0    0  501 -0.00000000000E+00  0.00000000000E+00  0.16116219590E+03  0.16116219590E+03  0.00000000000E+00 0.  1.
          2   -1    0    0  501    0  0.00000000000E+00 -0.00000000000E+00 -0.13351926910E+03  0.13351926910E+03  0.00000000000E+00 0. -1.
         25    2    1    2    0    0  0.44881069263E+02 -0.21839018644E+02 -0.69674328877E+02  0.15163535453E+03  0.12509002968E+03 0.  0.
         23    2    1    2    0    0 -0.44881069263E+02  0.21839018644E+02  0.97317255669E+02  0.14304611047E+03  0.92197008393E+02 0.  0.
          5    1    3    3  502    0 -0.14701140484E+02 -0.44286745070E+02 -0.74106766490E+02  0.87673967402E+02  0.41800000000E+01 0. -1.
         -5    1    3    3    0  502  0.59582209747E+02  0.22447726425E+02  0.44324376134E+01  0.63961387127E+02  0.41800000000E+01 0. -1.
        -11    1    4    4    0    0  0.15503343577E+02  0.18537798884E+02  0.74648027666E+02  0.78462294664E+02  0.00000000000E+00 0.  1.
         11    1    4    4    0    0 -0.60384412841E+02  0.33012197608E+01  0.22669228002E+02  0.64583815807E+02  0.00000000000E+00 0. -1.
</event>
<event>
 8    1  0.6760442E-009  0.1734071E+03  0.7561462E-02  0.1174341E+00
          2   -1    0    0  501    0  0.00000000000E+00  0.00000000000E+00  0.24734336245E+03  0.24734336245E+03  0.00000000000E+00 0. -1.
         -2   -1    0    0    0  501 -0.00000000000E+00 -0.00000000000E+00 -0.20707558610E+03  0.20707558610E+03  0.00000000000E+00 0.  1.
         25    2    1    2    0    0 -0.89868010717E+02  0.11456361660E+03  0.15598351641E+03  0.24734415910E+03  0.12508874470E+03 0.  0.
         23    2    1    2    0    0  0.89868010717E+02 -0.11456361660E+03 -0.11571574006E+03  0.20707478945E+03  0.91042596231E+02 0.  0.
          5    1    3    3  502    0  0.30897536914E+02  0.29960741090E+02  0.24266388270E+02  0.49584612469E+02  0.41800000000E+01 0. -1.
         -5    1    3    3    0  502 -0.12076554763E+03  0.84602875510E+02  0.13171712814E+03  0.19775954663E+03  0.41800000000E+01 0. -1.
        -11    1    4    4    0    0  0.35599007822E+02 -0.80160311468E+01 -0.70228377486E+02  0.79142726245E+02  0.00000000000E+00 0.  1.
         11    1    4    4    0    0  0.54269002895E+02 -0.10654758545E+03 -0.45487362572E+02  0.12793206320E+03  0.00000000000E+00 0. -1.
</event>
<event>
 8    1  0.6760442E-009  0.1086594E+03  0.7561462E-02  0.1263073E+00
          1   -1    0    0  501    0  0.00000000000E+00  0.00000000000E+00  0.12560972694E+03  0.12560972694E+03  0.00000000000E+00 0. -1.
         -1   -1    0    0    0  501 -0.00000000000E+00 -0.00000000000E+00 -0.16731819761E+03  0.16731819761E+03  0.00000000000E+00 0.  1.
         25    2    1    2    0    0  0.49003515251E+02  0.82016040467E+01 -0.10659953445E+03  0.17169788222E+03  0.12509233069E+03 0.  0.
         23    2    1    2    0    0 -0.49003515251E+02 -0.82016040467E+01  0.64891063789E+02  0.12123004233E+03  0.89539165669E+02 0.  0.
          5    1    3    3  502    0 -0.72533821932E+01 -0.45241695671E+02 -0.74625633744E+02  0.87669151884E+02  0.41800000000E+01 0. -1.
         -5    1    3    3    0  502  0.56256897444E+02  0.53443299718E+02 -0.31973900707E+02  0.84028730332E+02  0.41800000000E+01 0. -1.
        -11    1    4    4    0    0  0.21101609334E+02 -0.10264662870E+02  0.40810277153E+02  0.47075683124E+02  0.00000000000E+00 0. -1.
         11    1    4    4    0    0 -0.70105124585E+02  0.20630588232E+01  0.24080786636E+02  0.74154359210E+02  0.00000000000E+00 0.  1.
</event>
<event>
 8    1  0.6760442E-009  0.1332075E+03  0.7561462E-02  0.1222772E+00
         -2   -1    0    0    0  501 -0.00000000000E+00  0.00000000000E+00  0.27807170140E+02  0.27807170140E+02  0.00000000000E+00 0. -1.
          2   -1    0    0  501    0  0.00000000000E+00 -0.00000000000E+00 -0.10493206779E+04  0.10493206779E+04  0.00000000000E+00 0.  1.
         25    2    1    2    0    0  0.12049261261E+03  0.79953387190E+01 -0.71333460376E+03  0.73421817535E+03  0.12509067496E+03 0.  0.
         23    2    1    2    0    0 -0.12049261261E+03 -0.79953387190E+01 -0.30817890399E+03  0.34290967268E+03  0.89612563951E+02 0.  0.
          5    1    3    3  502    0  0.58456913537E+02 -0.35185208469E+02 -0.54955836106E+03  0.55379334976E+03  0.41800000000E+01 0.  1.
         -5    1    3    3    0  502  0.62035699069E+02  0.43180547188E+02 -0.16377624270E+03  0.18042482559E+03  0.41800000000E+01 0.  1.
        -11    1    4    4    0    0 -0.78951562929E+02 -0.14615580120E+02 -0.28235652316E+03  0.29355096771E+03  0.00000000000E+00 0.  1.
         11    1    4    4    0    0 -0.41541049678E+02  0.66202414008E+01 -0.25822380827E+02  0.49358704968E+02  0.00000000000E+00 0. -1.
</event>
<event>
 7    1  0.6760442E-009  0.2134217E+03  0.7561462E-02  0.1138885E+00
         -1   -1    0    0    0  501 -0.00000000000E+00  0.00000000000E+00  0.11627402791E+03  0.11627402791E+03  0.00000000000E+00 0.  1.
          1   -1    0    0  501    0  0.00000000000E+00 -0.00000000000E+00 -0.45953013320E+03  0.45953013320E+03  0.00000000000E+00 0. -1.
         25    2    1    2    0    0  0.17394038585E+03 -0.11951645002E+02 -0.78149823879E+02  0.22836783444E+03  0.12508546352E+03 0.  0.
          5    1    3    3  502    0  0.25214549403E+02 -0.53436936774E+02 -0.31090168613E+02  0.66898061988E+02  0.41800000000E+01 0.  1.
         -5    1    3    3    0  502  0.14872583645E+03  0.41485291772E+02 -0.47059655266E+02  0.16146977245E+03  0.41800000000E+01 0.  1.
        -11    1    1    2    0    0 -0.14251393366E+03 -0.43848852029E+02 -0.23082535276E+03  0.27479680964E+03  0.00000000000E+00 0.  1.
         11    1    1    2    0    0 -0.31426452197E+02  0.55800497031E+02 -0.34280928644E+02  0.72639517037E+02  0.00000000000E+00 0. -1.
</event>
<event>
 8    1  0.6760442E-009  0.5941986E+02  0.7561462E-02  0.1400283E+00
         -2   -1    0    0    0  501 -0.00000000000E+00  0.00000000000E+00  0.34368610420E+02  0.34368610420E+02  0.00000000000E+00 0.  1.
          2   -1    0    0  501    0  0.00000000000E+00 -0.00000000000E+00 -0.41604061368E+03  0.41604061368E+03  0.00000000000E+00 0. -1.
         25    2    1    2    0    0 -0.68465736177E+01  0.14190624860E+02 -0.30620897852E+03  0.33115851713E+03  0.12511504921E+03 0.  0.
         23    2    1    2    0    0  0.68465736177E+01 -0.14190624860E+02 -0.75463024739E+02  0.11925070696E+03  0.90982490648E+02 0.  0.
          5    1    3    3  502    0 -0.11687231598E+01  0.22384269480E+02  0.18813057806E+01  0.22878661356E+02  0.41800000000E+01 0.  1.
         -5    1    3    3    0  502 -0.56778504579E+01 -0.81936446206E+01 -0.30809028430E+03  0.30827985578E+03  0.41800000000E+01 0.  1.
        -11    1    4    4    0    0  0.38761808636E+02  0.15397882115E+02 -0.14111899414E+02  0.44030878795E+02  0.00000000000E+00 0.  1.
         11    1    4    4    0    0 -0.31915235018E+02 -0.29588506975E+02 -0.61351125325E+02  0.75219828170E+02  0.00000000000E+00 0. -1.
</event>
<event>
 8    1  0.6760442E-009  0.1160248E+03  0.7561462E-02  0.1249803E+00
         -2   -1    0    0    0  501 -0.00000000000E+00  0.00000000000E+00  0.12709750202E+02  0.12709750202E+02  0.00000000000E+00 0.  1.
          2   -1    0    0  501    0  0.00000000000E+00 -0.00000000000E+00 -0.11141654282E+04  0.11141654282E+04  0.00000000000E+00 0. -1.
         25    2    1    2    0    0 -0.24281843782E+02  0.40018254558E+02 -0.65531811027E+03  0.66879009617E+03  0.12508916196E+03 0.  0.
         23    2    1    2    0    0  0.24281843782E+02 -0.40018254558E+02 -0.44613756777E+03  0.45808508228E+03  0.92801641146E+02 0.  0.
          5    1    3    3  502    0 -0.40502125599E+02  0.80236406167E+02 -0.44649984517E+03  0.45547545179E+03  0.41800000000E+01 0.  1.
         -5    1    3    3    0  502  0.16220281817E+02 -0.40218151609E+02 -0.20881826511E+03  0.21331464437E+03  0.41800000000E+01 0.  1.
        -11    1    4    4    0    0  0.50137508961E+02  0.85127195176E+00 -0.15362907999E+03  0.16160565797E+03  0.00000000000E+00 0.  1.
         11    1    4    4    0    0 -0.25855665178E+02 -0.40869526510E+02 -0.29250848778E+03  0.29647942431E+03  0.00000000000E+00 0. -1.
</event>
<event>
 8    1  0.6760442E-009  0.1176708E+03  0.7561462E-02  0.1246990E+00
         -1   -1    0    0    0  501 -0.00000000000E+00  0.00000000000E+00  0.43124959767E+02  0.43124959767E+02  0.00000000000E+00 0.  1.
          1   -1    0    0  501    0  0.00000000000E+00 -0.00000000000E+00 -0.48199477891E+03  0.48199477891E+03  0.00000000000E+00 0. -1.
         25    2    1    2    0    0  0.75534869543E+02  0.37750757795E+02 -0.31657706251E+03  0.35070215567E+03  0.12506130196E+03 0.  0.
         23    2    1    2    0    0 -0.75534869543E+02 -0.37750757795E+02 -0.12229275663E+03  0.17441758301E+03  0.91298076148E+02 0.  0.
          5    1    3    3  502    0  0.10757587288E+03  0.96866464787E+01 -0.22492940588E+03  0.24955382100E+03  0.41800000000E+01 0.  1.
         -5    1    3    3    0  502 -0.32041003342E+02  0.28064111316E+02 -0.91647656632E+02  0.10114833466E+03  0.41800000000E+01 0.  1.
        -11    1    4    4    0    0 -0.31739376692E+02 -0.15211858746E+02 -0.12005930478E+03  0.12511205115E+03  0.00000000000E+00 0. -1.
         11    1    4    4    0    0 -0.43795492852E+02 -0.22538899049E+02 -0.22334518459E+01  0.49305531856E+02  0.00000000000E+00 0.  1.
</event>
<event>
 8    1  0.6760442E-009  0.8698930E+02  0.7561462E-02  0.1310311E+00
          2   -1    0    0  501    0  0.00000000000E+00  0.00000000000E+00  0.59060672070E+02  0.59060672070E+02  0.00000000000E+00 0. -1.
         -2   -1    0    0    0  501 -0.00000000000E+00 -0.00000000000E+00 -0.29200606548E+03  0.29200606548E+03  0.00000000000E+00 0.  1.
         25    2    1    2    0    0 -0.37017722887E+02  0.49170724449E+02 -0.18585946150E+03  0.23232612458E+03  0.12507444496E+03 0.  0.
         23    2    1    2    0    0  0.37017722887E+02 -0.49170724449E+02 -0.47085931916E+02  0.11874061297E+03  0.89967639930E+02 0.  0.
          5    1    3    3  502    0 -0.22789466146E+01 -0.62832032177E+01  0.17211874785E+02  0.18931277663E+02  0.41800000000E+01 0.  1.
         -5    1    3    3    0  502 -0.34738776273E+02  0.55453927667E+02 -0.20307133628E+03  0.21339484691E+03  0.41800000000E+01 0.  1.
        -11    1    4    4    0    0 -0.20421793291E+02 -0.36317759546E+02 -0.42789372206E+02  0.59724029280E+02  0.00000000000E+00 0.  1.
         11    1    4    4    0    0  0.57439516179E+02 -0.12852964903E+02 -0.42965597101E+01  0.59016583694E+02  0.00000000000E+00 0. -1.
</event>
<event>
 8    1  0.6760442E-009  0.1184494E+03  0.7561462E-02  0.1245677E+00
          2   -1    0    0  501    0  0.00000000000E+00  0.00000000000E+00  0.41601591143E+02  0.41601591143E+02  0.00000000000E+00 0.  1.
         -2   -1    0    0    0  501 -0.00000000000E+00 -0.00000000000E+00 -0.41854893221E+03  0.41854893221E+03  0.00000000000E+00 0. -1.
         25    2    1    2    0    0 -0.56324099388E+02 -0.13005272832E+02 -0.12602696948E+03  0.18674011366E+03  0.12509009441E+03 0.  0.
         23    2    1    2    0    0  0.56324099388E+02  0.13005272832E+02 -0.25092037158E+03  0.27341040969E+03  0.91927569086E+02 0.  0.
          5    1    3    3  502    0 -0.49048628280E+02  0.49524929531E+02 -0.90588893623E+02  0.11437791146E+03  0.41800000000E+01 0.  1.
         -5    1    3    3    0  502 -0.72754711085E+01 -0.62530202363E+02 -0.35438075858E+02  0.72362202205E+02  0.41800000000E+01 0.  1.
        -11    1    4    4    0    0 -0.23419228471E+02  0.27705977815E+01 -0.96199524608E+02  0.99047892502E+02  0.00000000000E+00 0. -1.
         11    1    4    4    0    0  0.79743327859E+02  0.10234675051E+02 -0.15472084697E+03  0.17436251719E+03  0.00000000000E+00 0.  1.
</event>
<event>
 8    1  0.6760442E-009  0.7918109E+02  0.7561462E-02  0.1331392E+00
         -1   -1    0    0    0  501 -0.00000000000E+00  0.00000000000E+00  0.10404904550E+02  0.10404904550E+02  0.00000000000E+00 0.  1.
          1   -1    0    0  501    0  0.00000000000E+00 -0.00000000000E+00 -0.14075099961E+04  0.14075099961E+04  0.00000000000E+00 0. -1.
         25    2    1    2    0    0 -0.49070939333E+02  0.13929637445E+02 -0.84109141384E+03  0.85187128023E+03  0.12509164545E+03 0.  0.
         23    2    1    2    0    0  0.49070939333E+02 -0.13929637445E+02 -0.55601367774E+03  0.56604362045E+03  0.93017087302E+02 0.  0.
          5    1    3    3  502    0 -0.31433794811E+02  0.13210476888E+02 -0.82978595112E+03  0.83049671717E+03  0.41800000000E+01 0. -1.
         -5    1    3    3    0  502 -0.17637144522E+02  0.71916055690E+00 -0.11305462725E+02  0.21374563065E+02  0.41800000000E+01 0. -1.
        -11    1    4    4    0    0  0.57932815339E+02  0.27054530726E+02 -0.31791735578E+03  0.32428321547E+03  0.00000000000E+00 0. -1.
         11    1    4    4    0    0 -0.88618760066E+01 -0.40984168171E+02 -0.23809632196E+03  0.24176040499E+03  0.00000000000E+00 0.  1.
</event>
<event>
 8    1  0.6760442E-009  0.9502652E+02  0.7561462E-02  0.1291116E+00
         -2   -1    0    0    0  501 -0.00000000000E+00  0.00000000000E+00  0.39059995179E+02  0.39059995179E+02  0.00000000000E+00 0.  1.
          2   -1    0    0  501    0  0.00000000000E+00 -0.00000000000E+00 -0.35130421242E+03  0.35130421242E+03  0.00000000000E+00 0. -1.
         25    2    1    2    0    0 -0.21482245132E+02  0.22407887554E+02 -0.12837624170E+03  0.18191535292E+03  0.12509650640E+03 0.  0.
         23    2    1    2    0    0  0.21482245132E+02 -0.22407887554E+02 -0.18386797554E+03  0.20844885468E+03  0.93165939629E+02 0.  0.
          5    1    3    3  502    0 -0.70295951935E+02  0.21024259776E+02 -0.48012146988E+02  0.87784845025E+02  0.41800000000E+01 0.  1.
         -5    1    3    3    0  502  0.48813706803E+02  0.13836277776E+01 -0.80364094715E+02  0.94130507897E+02  0.41800000000E+01 0.  1.
        -11    1    4    4    0    0  0.29575252978E+02 -0.39084354882E+02 -0.18347435223E+03  0.18990818916E+03  0.00000000000E+00 0. -1.
         11    1    4    4    0    0 -0.80930078458E+01  0.16676467328E+02 -0.39362331394E+00  0.18540665518E+02  0.00000000000E+00 0.  1.
</event>
<event>
 8    1  0.6760442E-009  0.1090381E+03  0.7561462E-02  0.1262362E+00
         -2   -1    0    0    0  501 -0.00000000000E+00  0.00000000000E+00  0.32300872915E+02  0.32300872915E+02  0.00000000000E+00 0.  1.
          2   -1    0    0  501    0  0.00000000000E+00 -0.00000000000E+00 -0.46451725875E+03  0.46451725875E+03  0.00000000000E+00 0. -1.
         25    2    1    2    0    0 -0.27987594272E+02 -0.13344572942E+02 -0.33906728510E+03  0.36273406257E+03  0.12509193924E+03 0.  0.
         23    2    1    2    0    0  0.27987594272E+02  0.13344572942E+02 -0.93149100736E+02  0.13408406910E+03  0.91325788020E+02 0.  0.
          5    1    3    3  502    0 -0.73307524000E+02 -0.28371417830E+02 -0.24196325782E+03  0.25444571319E+03  0.41800000000E+01 0. -1.
         -5    1    3    3    0  502  0.45319929728E+02  0.15026844888E+02 -0.97104027277E+02  0.10828834938E+03  0.41800000000E+01 0. -1.
        -11    1    4    4    0    0  0.48899684888E+02 -0.19375327592E+02 -0.73996782583E+02  0.90786047023E+02  0.00000000000E+00 0. -1.
         11    1    4    4    0    0 -0.20912090616E+02  0.32719900534E+02 -0.19152318153E+02  0.43298022074E+02  0.00000000000E+00 0.  1.
</event>
<event>
 8    1  0.6760442E-009  0.8423595E+02  0.7561462E-02  0.1317443E+00
         -2   -1    0    0    0  501 -0.00000000000E+00  0.00000000000E+00  0.91214146412E+01  0.91214146412E+01  0.00000000000E+00 0.  1.
          2   -1    0    0  501    0  0.00000000000E+00 -0.00000000000E+00 -0.16552709836E+04  0.16552709836E+04  0.00000000000E+00 0. -1.
         25    2    1    2    0    0 -0.22898454165E+02  0.37368391446E+01 -0.12991665592E+04  0.13053808944E+04  0.12508887974E+03 0.  0.
         23    2    1    2    0    0  0.22898454165E+02 -0.37368391446E+01 -0.34698300979E+03  0.35901150384E+03  0.89183785729E+02 0.  0.
          5    1    3    3  502    0 -0.22432310299E+02 -0.35818557916E+02 -0.16062436306E+03  0.16614402200E+03  0.41800000000E+01 0.  1.
         -5    1    3    3    0  502 -0.46614386604E+00  0.39555397060E+02 -0.11385421961E+04  0.11392368724E+04  0.41800000000E+01 0.  1.
        -11    1    4    4    0    0  0.82713566726E+01 -0.43279517855E+02 -0.11351106064E+03  0.12176326578E+03  0.00000000000E+00 0. -1.
         11    1    4    4    0    0  0.14627097492E+02  0.39542678710E+02 -0.23347194915E+03  0.23724823806E+03  0.00000000000E+00 0.  1.
</event>
<event>
 7    1  0.6760442E-009  0.1672508E+03  0.7561462E-02  0.1180746E+00
          2   -1    0    0  501    0  0.00000000000E+00  0.00000000000E+00  0.19230899376E+03  0.19230899376E+03  0.00000000000E+00 0. -1.
         -2   -1    0    0    0  501 -0.00000000000E+00 -0.00000000000E+00 -0.16971048059E+03  0.16971048059E+03  0.00000000000E+00 0.  1.
         23    2    1    2    0    0  0.11929025428E+03 -0.80038540612E+02 -0.22894779528E+01  0.16986764292E+03  0.90628040095E+02 0.  0.
          5    1    1    2  502    0 -0.58381373700E+02 -0.29179345018E+02  0.94129754637E+01  0.66074923215E+02  0.41800000000E+01 0. -1.
         -5    1    1    2    0  502 -0.60908880584E+02  0.10921788563E+03  0.15475015665E+02  0.12607690822E+03  0.41800000000E+01 0. -1.
        -11    1    3    3    0    0  0.10940605445E+03 -0.76412166434E+02 -0.32944614951E+02  0.13745490745E+03  0.00000000000E+00 0.  1.
         11    1    3    3    0    0  0.98841998386E+01 -0.36263741785E+01  0.30655136998E+02  0.32412735468E+02  0.00000000000E+00 0. -1.
</event>
<event>
 8    1  0.6760442E-009  0.1032174E+03  0.7561462E-02  0.1273672E+00
         -4   -1    0    0    0  501 -0.00000000000E+00  0.00000000000E+00  0.54734639891E+03  0.54734639891E+03  0.00000000000E+00 0.  1.
          4   -1    0    0  501    0  0.00000000000E+00 -0.00000000000E+00 -0.26863599580E+02  0.26863599580E+02  0.00000000000E+00 0. -1.
         25    2    1    2    0    0 -0.10360842754E+01  0.13067872076E+02  0.16614317838E+03  0.20837053178E+03  0.12507149971E+03 0.  0.
         23    2    1    2    0    0  0.10360842754E+01 -0.13067872076E+02  0.35433962095E+03  0.36583946671E+03  0.90056125162E+02 0.  0.
          5    1    3    3  502    0  0.58037046071E+02 -0.63165194541E-01  0.47474936427E+02  0.75097567838E+02  0.41800000000E+01 0.  1.
         -5    1    3    3    0  502 -0.59073130346E+02  0.13131037270E+02  0.11866824195E+03  0.13327296394E+03  0.41800000000E+01 0.  1.
        -11    1    4    4    0    0 -0.42472419899E+02 -0.11966998879E+01  0.12264705879E+03  0.12979845752E+03  0.00000000000E+00 0. -1.
         11    1    4    4    0    0  0.43508504175E+02 -0.11871172188E+02  0.23169256215E+03  0.23604100920E+03  0.00000000000E+00 0.  1.
</event>
<event>
 8    1  0.6760442E-009  0.5145592E+02  0.7561462E-02  0.1437643E+00
          1   -1    0    0  501    0  0.00000000000E+00  0.00000000000E+00  0.32664181115E+02  0.32664181115E+02  0.00000000000E+00 0. -1.
         -1   -1    0    0    0  501 -0.00000000000E+00 -0.00000000000E+00 -0.35883346740E+03  0.35883346740E+03  0.00000000000E+00 0.  1.
         25    2    1    2    0    0 -0.13972612302E+00 -0.21103974014E+01 -0.20725771262E+03  0.24208828818E+03  0.12508599653E+03 0.  0.
         23    2    1    2    0    0  0.13972612302E+00  0.21103974014E+01 -0.11891157366E+03  0.14940936034E+03  0.90436283129E+02 0.  0.
          5    1    3    3  502    0 -0.79652455356E+01  0.40667186441E+01 -0.22287548285E+03  0.22309400842E+03  0.41800000000E+01 0.  1.
         -5    1    3    3    0  502  0.78255194126E+01 -0.61771160455E+01  0.15617770224E+02  0.18994279757E+02  0.41800000000E+01 0.  1.
        -11    1    4    4    0    0  0.36281276152E+02 -0.18392740026E+02 -0.90067587616E+02  0.98827092559E+02  0.00000000000E+00 0.  1.
         11    1    4    4    0    0 -0.36141550029E+02  0.20503137427E+02 -0.28843986043E+02  0.50582267779E+02  0.00000000000E+00 0. -1.
</event>
<event>
 8    1  0.6760442E-009  0.9155527E+02  0.7561462E-02  0.1299129E+00
          2   -1    0    0  501    0  0.00000000000E+00  0.00000000000E+00  0.11193890266E+03  0.11193890266E+03  0.00000000000E+00 0. -1.
         -2   -1    0    0    0  501 -0.00000000000E+00 -0.00000000000E+00 -0.14300011691E+03  0.14300011691E+03  0.00000000000E+00 0.  1.
         25    2    1    2    0    0 -0.48569492646E+02 -0.27569149201E+02 -0.49540753096E+02  0.14567432187E+03  0.12509064006E+03 0.  0.
         23    2    1    2    0    0  0.48569492646E+02  0.27569149201E+02  0.18479538851E+02  0.10926469770E+03  0.92077289298E+02 0.  0.
          5    1    3    3  502    0 -0.76639269749E+02 -0.24396304415E+02  0.85046263418E+01  0.80984927030E+02  0.41800000000E+01 0.  1.
         -5    1    3    3    0  502  0.28069777103E+02 -0.31728447862E+01 -0.58045379438E+02  0.64689394840E+02  0.41800000000E+01 0.  1.
        -11    1    4    4    0    0  0.23997873128E+02  0.39872727259E+02 -0.28692859761E+02  0.54671862005E+02  0.00000000000E+00 0.  1.
         11    1    4    4    0    0  0.24571619518E+02 -0.12303578058E+02  0.47172398612E+02  0.54592835699E+02  0.00000000000E+00 0. -1.
</event>
<event>
 8    1  0.6760442E-009  0.1298952E+03  0.7561462E-02  0.1227611E+00
         -2   -1    0    0    0  501 -0.00000000000E+00  0.00000000000E+00  0.43336465030E+02  0.43336465030E+02  0.00000000000E+00 0.  1.
          2   -1    0    0  501    0  0.00000000000E+00 -0.00000000000E+00 -0.65371355399E+03  0.65371355399E+03  0.00000000000E+00 0. -1.
         25    2    1    2    0    0 -0.24055875639E+02  0.68510422264E+02 -0.52797012945E+03  0.54742152324E+03  0.12508198674E+03 0.  0.
         23    2    1    2    0    0  0.24055875639E+02 -0.68510422264E+02 -0.82406959510E+02  0.14962849578E+03  0.10161405740E+03 0.  0.
          5    1    3    3  502    0 -0.62337525630E+02  0.81809558571E+02 -0.34847076597E+03  0.36335673670E+03  0.41800000000E+01 0. -1.
         -5    1    3    3    0  502  0.38281649991E+02 -0.13299136307E+02 -0.17949936348E+03  0.18406478654E+03  0.41800000000E+01 0. -1.
        -11    1    4    4    0    0  0.54643182469E+02 -0.65613248475E+02 -0.82745455956E+02  0.11890242322E+03  0.00000000000E+00 0. -1.
         11    1    4    4    0    0 -0.30587306830E+02 -0.28971737887E+01  0.33849644600E+00  0.30726072559E+02  0.00000000000E+00 0.  1.
</event>
<event>
 8    1  0.6760442E-009  0.9737557E+02  0.7561462E-02  0.1285914E+00
          4   -1    0    0  501    0  0.00000000000E+00  0.00000000000E+00  0.18752002744E+03  0.18752002744E+03  0.00000000000E+00 0. -1.
         -4   -1    0    0    0  501 -0.00000000000E+00 -0.00000000000E+00 -0.77607163893E+02  0.77607163893E+02  0.00000000000E+00 0.  1.
         25    2    1    2    0    0 -0.91006989171E+01  0.44268602838E+02  0.73277539790E+02  0.15186205538E+03  0.12509977661E+03 0.  0.
         23    2    1    2    0    0  0.91006989171E+01 -0.44268602838E+02  0.36635323761E+02  0.11326513596E+03  0.97181850975E+02 0.  0.
          5    1    3    3  502    0 -0.43475754563E+02  0.68171316884E+02  0.18958956124E+02  0.83152775648E+02  0.41800000000E+01 0.  1.
         -5    1    3    3    0  502  0.34375055646E+02 -0.23902714046E+02  0.54318583666E+02  0.68709279730E+02  0.41800000000E+01 0.  1.
        -11    1    4    4    0    0  0.21790766337E+01  0.13426882162E+02 -0.25059298654E+02  0.28513119587E+02  0.00000000000E+00 0.  1.
         11    1    4    4    0    0  0.69216222834E+01 -0.57695485000E+02  0.61694622414E+02  0.84752016373E+02  0.00000000000E+00 0. -1.
</event>
<event>
 8    1  0.6760442E-009  0.2790458E+03  0.7561462E-02  0.1096211E+00
         -1   -1    0    0    0  501 -0.00000000000E+00  0.00000000000E+00  0.15945878935E+03  0.15945878935E+03  0.00000000000E+00 0.  1.
          1   -1    0    0  501    0  0.00000000000E+00 -0.00000000000E+00 -0.54553471740E+03  0.54553471740E+03  0.00000000000E+00 0. -1.
         25    2    1    2    0    0  0.19241544475E+03 -0.19458507321E+03 -0.18239200969E+03  0.35185620758E+03  0.12509552958E+03 0.  0.
         23    2    1    2    0    0 -0.19241544475E+03  0.19458507321E+03 -0.20368391836E+03  0.35313729917E+03  0.91278471550E+02 0.  0.
          5    1    3    3  502    0  0.58186936683E+02 -0.54725530275E+02  0.76560015894E+01  0.80353531501E+02  0.41800000000E+01 0. -1.
         -5    1    3    3    0  502  0.13422850807E+03 -0.13985954294E+03 -0.19004801127E+03  0.27150267608E+03  0.41800000000E+01 0. -1.
        -11    1    4    4    0    0 -0.57001408318E+02  0.11180267535E+03 -0.60227674379E+02  0.13919903565E+03  0.00000000000E+00 0. -1.
         11    1    4    4    0    0 -0.13541403643E+03  0.82782397868E+02 -0.14345624398E+03  0.21393826352E+03  0.00000000000E+00 0.  1.
</event>
<event>
 8    1  0.6760442E-009  0.2201508E+03  0.7561462E-02  0.1133771E+00
          1   -1    0    0  501    0  0.00000000000E+00  0.00000000000E+00  0.80271837749E+03  0.80271837749E+03  0.00000000000E+00 0. -1.
         -1   -1    0    0    0  501 -0.00000000000E+00 -0.00000000000E+00 -0.71727710503E+02  0.71727710503E+02  0.00000000000E+00 0.  1.
         25    2    1    2    0    0  0.18165048927E+03  0.11083561935E+03  0.32402412781E+03  0.40734517441E+03  0.12512801822E+03 0.  0.
         23    2    1    2    0    0 -0.18165048927E+03 -0.11083561935E+03  0.40696653918E+03  0.46710091359E+03  0.85323295153E+02 0.  0.
          5    1    3    3  502    0  0.18313800543E+03  0.89564668264E+02  0.32704714734E+03  0.38540714552E+03  0.41800000000E+01 0.  1.
         -5    1    3    3    0  502 -0.14875161667E+01  0.21270951085E+02 -0.30230195285E+01  0.21938028888E+02  0.41800000000E+01 0.  1.
        -11    1    4    4    0    0 -0.87720714335E+02 -0.70064317317E+02  0.29361923168E+03  0.31435041831E+03  0.00000000000E+00 0.  1.
         11    1    4    4    0    0 -0.93929774931E+02 -0.40771302033E+02  0.11334730750E+03  0.15275049527E+03  0.00000000000E+00 0. -1.
</event>
<event>
 8    1  0.6760442E-009  0.1382786E+03  0.7561462E-02  0.1215664E+00
          1   -1    0    0  501    0  0.00000000000E+00  0.00000000000E+00  0.59846526528E+03  0.59846526528E+03  0.00000000000E+00 0. -1.
         -1   -1    0    0    0  501 -0.00000000000E+00 -0.00000000000E+00 -0.41900332782E+02  0.41900332782E+02  0.00000000000E+00 0.  1.
         25    2    1    2    0    0 -0.10930367803E+03 -0.19865605181E+02  0.23970358562E+03  0.29230936298E+03  0.12508004808E+03 0.  0.
         23    2    1    2    0    0  0.10930367803E+03  0.19865605181E+02  0.31686134688E+03  0.34805623509E+03  0.91652023084E+02 0.  0.
          5    1    3    3  502    0 -0.96644340284E+02 -0.63997590879E+02  0.20122274570E+03  0.23225823114E+03  0.41800000000E+01 0. -1.
         -5    1    3    3    0  502 -0.12659337744E+02  0.44131985698E+02  0.38480839921E+02  0.60051131836E+02  0.41800000000E+01 0. -1.
        -11    1    4    4    0    0  0.46990612989E+02 -0.52502551130E+01  0.36430235874E+02  0.59689571733E+02  0.00000000000E+00 0.  1.
         11    1    4    4    0    0  0.62313065039E+02  0.25115860294E+02  0.28043111101E+03  0.28836666336E+03  0.00000000000E+00 0. -1.
</event>
<event>
 8    1  0.6760442E-009  0.9988590E+02  0.7561462E-02  0.1280536E+00
         -2   -1    0    0    0  501 -0.00000000000E+00  0.00000000000E+00  0.21510231376E+03  0.21510231376E+03  0.00000000000E+00 0. -1.
          2   -1    0    0  501    0  0.00000000000E+00 -0.00000000000E+00 -0.64151689763E+02  0.64151689763E+02  0.00000000000E+00 0.  1.
         25    2    1    2    0    0  0.44243630952E+02 -0.14537934988E+02  0.82785876376E+02  0.15706655901E+03  0.12509017626E+03 0.  0.
         23    2    1    2    0    0 -0.44243630952E+02  0.14537934988E+02  0.68164747621E+02  0.12218744451E+03  0.90080454845E+02 0.  0.
          5    1    3    3  502    0 -0.20595178356E+02  0.41296076294E+02  0.18206356826E+02  0.49784245678E+02  0.41800000000E+01 0. -1.
         -5    1    3    3    0  502  0.64838809308E+02 -0.55834011282E+02  0.64579519550E+02  0.10728231333E+03  0.41800000000E+01 0. -1.
        -11    1    4    4    0    0 -0.12581702224E+02 -0.18264030111E+02 -0.15396430697E+02  0.26998594500E+02  0.00000000000E+00 0.  1.
         11    1    4    4    0    0 -0.31661928728E+02  0.32801965099E+02  0.83561178318E+02  0.95188850014E+02  0.00000000000E+00 0. -1.
</event>
<event>
 8    1  0.6760442E-009  0.1831290E+03  0.7561462E-02  0.1164809E+00
          1   -1    0    0  501    0  0.00000000000E+00  0.00000000000E+00  0.12404682107E+04  0.12404682107E+04  0.00000000000E+00 0. -1.
         -1   -1    0    0    0  501 -0.00000000000E+00 -0.00000000000E+00 -0.36581780860E+02  0.36581780860E+02  0.00000000000E+00 0.  1.
         25    2    1    2    0    0 -0.13211336046E+02 -0.16600165269E+03  0.39866744931E+03  0.44979326140E+03  0.12508858766E+03 0.  0.
         23    2    1    2    0    0  0.13211336046E+02  0.16600165269E+03  0.80521898052E+03  0.82725673016E+03  0.90801998290E+02 0.  0.
          5    1    3    3  502    0 -0.30638380260E+02 -0.14796457044E+03  0.20629949323E+03  0.25575218035E+03  0.41800000000E+01 0.  1.
         -5    1    3    3    0  502  0.17427044215E+02 -0.18037082257E+02  0.19236795608E+03  0.19404108105E+03  0.41800000000E+01 0.  1.
        -11    1    4    4    0    0 -0.38042823518E+02  0.49809219353E+02  0.26375300030E+03  0.27109750999E+03  0.00000000000E+00 0.  1.
         11    1    4    4    0    0  0.51254159564E+02  0.11619243334E+03  0.54146598022E+03  0.55615922017E+03  0.00000000000E+00 0. -1.
</event>
<event>
 8    1  0.6760442E-009  0.1418849E+03  0.7561462E-02  0.1210815E+00
         -1   -1    0    0    0  501 -0.00000000000E+00  0.00000000000E+00  0.27852076836E+02  0.27852076836E+02  0.00000000000E+00 0.  1.
          1   -1    0    0  501    0  0.00000000000E+00 -0.00000000000E+00 -0.89212340843E+03  0.89212340843E+03  0.00000000000E+00 0. -1.
         25    2    1    2    0    0 -0.95141604290E+02  0.54661803583E+02 -0.55238695850E+03  0.57690393505E+03  0.12508781205E+03 0.  0.
         23    2    1    2    0    0  0.95141604290E+02 -0.54661803583E+02 -0.31188437310E+03  0.34307155021E+03  0.91577228316E+02 0.  0.
          5    1    3    3  502    0 -0.78758039692E+02 -0.96481218562E+01 -0.15696720054E+03  0.17593205938E+03  0.41800000000E+01 0.  1.
         -5    1    3    3    0  502 -0.16383564597E+02  0.64309925439E+02 -0.39541975796E+03  0.40097187567E+03  0.41800000000E+01 0.  1.
        -11    1    4    4    0    0  0.98027602026E+02 -0.16331726452E+02 -0.17896914885E+03  0.20470977575E+03  0.00000000000E+00 0.  1.
         11    1    4    4    0    0 -0.28859977361E+01 -0.38330077131E+02 -0.13291522425E+03  0.13836177446E+03  0.00000000000E+00 0. -1.
</event>
<event>
 8    1  0.6760442E-009  0.9188612E+02  0.7561462E-02  0.1298347E+00
         -1   -1    0    0    0  501 -0.00000000000E+00  0.00000000000E+00  0.47597313598E+02  0.47597313598E+02  0.00000000000E+00 0.  1.
          1   -1    0    0  501    0  0.00000000000E+00 -0.00000000000E+00 -0.26906828286E+03  0.26906828286E+03  0.00000000000E+00 0. -1.
         25    2    1    2    0    0  0.26389146596E+02  0.18500148458E+02 -0.13565394301E+03  0.18731918331E+03  0.12509133315E+03 0.  0.
         23    2    1    2    0    0 -0.26389146596E+02 -0.18500148458E+02 -0.85817026252E+02  0.12934641315E+03  0.91253986484E+02 0.  0.
          5    1    3    3  502    0  0.39925535118E+02  0.53853796832E+02 -0.13317092770E+03  0.14915176222E+03  0.41800000000E+01 0. -1.
         -5    1    3    3    0  502 -0.13536388523E+02 -0.35353648374E+02 -0.24830153078E+01  0.38167421090E+02  0.41800000000E+01 0. -1.
        -11    1    4    4    0    0  0.12270713790E+02 -0.34544484715E+02 -0.32837641705E+01  0.36805909149E+02  0.00000000000E+00 0.  1.
         11    1    4    4    0    0 -0.38659860386E+02  0.16044336258E+02 -0.82533262081E+02  0.92540504001E+02  0.00000000000E+00 0. -1.
</event>
<event>
 8    1  0.6760442E-009  0.3429039E+03  0.7561462E-02  0.1065566E+00
          2   -1    0    0  501    0  0.00000000000E+00  0.00000000000E+00  0.54679358323E+03  0.54679358323E+03  0.00000000000E+00 0. -1.
         -2   -1    0    0    0  501 -0.00000000000E+00 -0.00000000000E+00 -0.23628338174E+03  0.23628338174E+03  0.00000000000E+00 0.  1.
         25    2    1    2    0    0 -0.15321891104E+03 -0.30169995476E+03  0.21429124330E+03  0.41960622331E+03  0.12509895395E+03 0.  0.
         23    2    1    2    0    0  0.15321891104E+03  0.30169995476E+03  0.96218958199E+02  0.36347074167E+03  0.91400189981E+02 0.  0.
          5    1    3    3  502    0 -0.59300274647E+02 -0.11236523414E+03  0.15419409015E+03  0.19983933110E+03  0.41800000000E+01 0. -1.
         -5    1    3    3    0  502 -0.93918636394E+02 -0.18933472062E+03  0.60097153146E+02  0.21976689220E+03  0.41800000000E+01 0. -1.
        -11    1    4    4    0    0  0.94709973002E+02  0.10195238118E+03  0.14675802249E+02  0.13992728893E+03  0.00000000000E+00 0. -1.
         11    1    4    4    0    0  0.58508938039E+02  0.19974757358E+03  0.81543155950E+02  0.22354345274E+03  0.00000000000E+00 0.  1.
</event>
<event>
 8    1  0.6760442E-009  0.2180540E+03  0.7561462E-02  0.1135342E+00
         -1   -1    0    0    0  501 -0.00000000000E+00  0.00000000000E+00  0.58799688529E+03  0.58799688529E+03  0.00000000000E+00 0.  1.
          1   -1    0    0  501    0  0.00000000000E+00 -0.00000000000E+00 -0.93365503658E+02  0.93365503658E+02  0.00000000000E+00 0. -1.
         25    2    1    2    0    0 -0.11587904999E+03 -0.17277524836E+03  0.26281339760E+03  0.35776765087E+03  0.12509024494E+03 0.  0.
         23    2    1    2    0    0  0.11587904999E+03  0.17277524836E+03  0.23181798404E+03  0.32359473808E+03  0.87719645008E+02 0.  0.
          5    1    3    3  502    0 -0.60861040079E+02 -0.15603250819E+03  0.12702907933E+03  0.21024763782E+03  0.41800000000E+01 0.  1.
         -5    1    3    3    0  502 -0.55018009912E+02 -0.16742740162E+02  0.13578431827E+03  0.14752001305E+03  0.41800000000E+01 0.  1.
        -11    1    4    4    0    0  0.49073287541E+02  0.10419273949E+03  0.18274359865E+03  0.21600818818E+03  0.00000000000E+00 0.  1.
         11    1    4    4    0    0  0.66805762450E+02  0.68582508870E+02  0.49074385386E+02  0.10758654991E+03  0.00000000000E+00 0. -1.
</event>
<event>
 8    1  0.6760442E-009  0.1023203E+03  0.7561462E-02  0.1275491E+00
         -2   -1    0    0    0  501 -0.00000000000E+00  0.00000000000E+00  0.58402656830E+02  0.58402656830E+02  0.00000000000E+00 0.  1.
          2   -1    0    0  501    0  0.00000000000E+00 -0.00000000000E+00 -0.39975059910E+03  0.39975059910E+03  0.00000000000E+00 0. -1.
         25    2    1    2    0    0 -0.60298819640E+02 -0.43064130034E+02 -0.29951866574E+03  0.33294415086E+03  0.12509959842E+03 0.  0.
         23    2    1    2    0    0  0.60298819640E+02  0.43064130034E+02 -0.41829276532E+02  0.12520910506E+03  0.91854040030E+02 0.  0.
          5    1    3    3  502    0 -0.56959900052E+02 -0.74738757191E+02 -0.27994974121E+03  0.29532971751E+03  0.41800000000E+01 0. -1.
         -5    1    3    3    0  502 -0.33389195887E+01  0.31674627157E+02 -0.19568924526E+02  0.37614433355E+02  0.41800000000E+01 0. -1.
        -11    1    4    4    0    0  0.44081127181E+02  0.15983705911E+02  0.23651861150E+02  0.52516998810E+02  0.00000000000E+00 0.  1.
         11    1    4    4    0    0  0.16217692459E+02  0.27080424124E+02 -0.65481137681E+02  0.72692106253E+02  0.00000000000E+00 0. -1.
</event>
<event>
 8    1  0.6760442E-009  0.9134435E+02  0.7561462E-02  0.1299628E+00
          1   -1    0    0  501    0  0.00000000000E+00  0.00000000000E+00  0.38424032755E+03  0.38424032755E+03  0.00000000000E+00 0. -1.
         -1   -1    0    0    0  501 -0.00000000000E+00 -0.00000000000E+00 -0.67276920251E+02  0.67276920251E+02  0.00000000000E+00 0.  1.
         25    2    1    2    0    0  0.28609968477E+02 -0.80332903013E+02  0.28490299113E+03  0.32262778775E+03  0.12508824672E+03 0.  0.
         23    2    1    2    0    0 -0.28609968477E+02  0.80332903013E+02  0.32060416166E+02  0.12888946005E+03  0.91174102820E+02 0.  0.
          5    1    3    3  502    0  0.37727765513E+02 -0.47258860187E+02  0.34289016838E+02  0.69641892798E+02  0.41800000000E+01 0. -1.
         -5    1    3    3    0  502 -0.91177970366E+01 -0.33074042826E+02  0.25061397429E+03  0.25298589495E+03  0.41800000000E+01 0. -1.
        -11    1    4    4    0    0 -0.86008581116E+01  0.58847649730E+01  0.48886048131E+02  0.49984506809E+02  0.00000000000E+00 0. -1.
         11    1    4    4    0    0 -0.20009110365E+02  0.74448138040E+02 -0.16825631966E+02  0.78904953243E+02  0.00000000000E+00 0.  1.
</event>
<event>
 8    1  0.6760442E-009  0.1397836E+03  0.7561462E-02  0.1213620E+00
          1   -1    0    0  501    0  0.00000000000E+00  0.00000000000E+00  0.35831156485E+03  0.35831156485E+03  0.00000000000E+00 0. -1.
         -1   -1    0    0    0  501 -0.00000000000E+00 -0.00000000000E+00 -0.74646002719E+02  0.74646002719E+02  0.00000000000E+00 0.  1.
         25    2    1    2    0    0  0.84654686682E+02  0.83673329518E+02  0.18313388993E+03  0.25169827054E+03  0.12508539364E+03 0.  0.
         23    2    1    2    0    0 -0.84654686682E+02 -0.83673329518E+02  0.10053167220E+03  0.18125929703E+03  0.92631925355E+02 0.  0.
          5    1    3    3  502    0  0.33090437014E+02 -0.19483619318E+01 -0.94165278529E+01  0.34711907651E+02  0.41800000000E+01 0. -1.
         -5    1    3    3    0  502  0.51564249668E+02  0.85621691450E+02  0.19255041778E+03  0.21698636289E+03  0.41800000000E+01 0. -1.
        -11    1    4    4    0    0 -0.29581792033E+02  0.14962573775E+02  0.54360783695E+01  0.33593332403E+02  0.00000000000E+00 0.  1.
         11    1    4    4    0    0 -0.55072894649E+02 -0.98635903293E+02  0.95095593835E+02  0.14766596463E+03  0.00000000000E+00 0. -1.
</event>
<event>
 8    1  0.6760442E-009  0.1605122E+03  0.7561462E-02  0.1188120E+00
          1   -1    0    0  501    0  0.00000000000E+00  0.00000000000E+00  0.37241560211E+03  0.37241560211E+03  0.00000000000E+00 0. -1.
         -1   -1    0    0    0  501 -0.00000000000E+00 -0.00000000000E+00 -0.90232851390E+02  0.90232851390E+02  0.00000000000E+00 0.  1.
         25    2    1    2    0    0  0.13598005158E+03  0.51348676246E+02  0.16873803978E+03  0.25543849745E+03  0.12509611877E+03 0.  0.
         23    2    1    2    0    0 -0.13598005158E+03 -0.51348676246E+02  0.11344471094E+03  0.20720995605E+03  0.94546298009E+02 0.  0.
          5    1    3    3  502    0 -0.16361225306E+01  0.25291866074E+01 -0.17787741528E+02  0.18518904679E+02  0.41800000000E+01 0. -1.
         -5    1    3    3    0  502  0.13761617411E+03  0.48819489639E+02  0.18652578131E+03  0.23691959277E+03  0.41800000000E+01 0. -1.
        -11    1    4    4    0    0 -0.14620007054E+03 -0.34705748166E+02  0.11240211382E+03  0.18765176464E+03  0.00000000000E+00 0. -1.
         11    1    4    4    0    0  0.10220018960E+02 -0.16642928080E+02  0.10425971240E+01  0.19558191414E+02  0.00000000000E+00 0.  1.
</event>
<event>
 7    1  0.6760442E-009  0.1098151E+03  0.7561462E-02  0.1260913E+00
         -2   -1    0    0    0  501 -0.00000000000E+00  0.00000000000E+00  0.43337677355E+02  0.43337677355E+02  0.00000000000E+00 0.  1.
          2   -1    0    0  501    0  0.00000000000E+00 -0.00000000000E+00 -0.31225605549E+03  0.31225605549E+03  0.00000000000E+00 0. -1.
         25    2    1    2    0    0  0.10202355889E+02 -0.73474141494E+02 -0.16362694293E+03  0.21890965559E+03  0.12508046739E+03 0.  0.
          5    1    3    3  502    0  0.67149148791E+02 -0.30327299849E+02 -0.80051310711E+02  0.10887808800E+03  0.41800000000E+01 0.  1.
         -5    1    3    3    0  502 -0.56946792902E+02 -0.43146841645E+02 -0.83575632221E+02  0.11003156759E+03  0.41800000000E+01 0.  1.
        -11    1    1    2    0    0 -0.21240649663E+01  0.27716211921E+02 -0.77980067051E+02  0.82786417440E+02  0.00000000000E+00 0. -1.
         11    1    1    2    0    0 -0.80782909225E+01  0.45757929573E+02 -0.27311368151E+02  0.53897659813E+02  0.00000000000E+00 0.  1.
</event>
<event>
 8    1  0.6760442E-009  0.1737162E+03  0.7561462E-02  0.1174027E+00
         -1   -1    0    0    0  501 -0.00000000000E+00  0.00000000000E+00  0.26917965764E+02  0.26917965764E+02  0.00000000000E+00 0.  1.
          1   -1    0    0  501    0  0.00000000000E+00 -0.00000000000E+00 -0.15047670152E+04  0.15047670152E+04  0.00000000000E+00 0. -1.
         25    2    1    2    0    0  0.16508646742E+03  0.70889370782E+01 -0.92841417822E+03  0.95126412150E+03  0.12508696086E+03 0.  0.
         23    2    1    2    0    0 -0.16508646742E+03 -0.70889370782E+01 -0.54943487121E+03  0.58042085946E+03  0.87783265149E+02 0.  0.
          5    1    3    3  502    0  0.15425574182E+02 -0.19538497946E+02 -0.26417125040E+02  0.36538173684E+02  0.41800000000E+01 0.  1.
         -5    1    3    3    0  502  0.14966089324E+03  0.26627435024E+02 -0.90199705318E+03  0.91472594781E+03  0.41800000000E+01 0.  1.
        -11    1    4    4    0    0 -0.83733843569E+01 -0.10426931032E+02 -0.56894477979E+01  0.14532868698E+02  0.00000000000E+00 0.  1.
         11    1    4    4    0    0 -0.15671308306E+03  0.33379939542E+01 -0.54374542342E+03  0.56588799076E+03  0.00000000000E+00 0. -1.
</event>
<event>
 8    1  0.6760442E-009  0.2014919E+03  0.7561462E-02  0.1148486E+00
          1   -1    0    0  501    0  0.00000000000E+00  0.00000000000E+00  0.61674564784E+03  0.61674564784E+03  0.00000000000E+00 0. -1.
         -1   -1    0    0    0  501 -0.00000000000E+00 -0.00000000000E+00 -0.85359088103E+02  0.85359088103E+02  0.00000000000E+00 0.  1.
         25    2    1    2    0    0 -0.64925880316E+02  0.18600638746E+03  0.21002581956E+03  0.31396275224E+03  0.12509204132E+03 0.  0.
         23    2    1    2    0    0  0.64925880316E+02 -0.18600638746E+03  0.32136074017E+03  0.38814198370E+03  0.92562022858E+02 0.  0.
          5    1    3    3  502    0  0.71861694799E+01  0.50696789505E+02  0.13247868702E+03  0.14209109899E+03  0.41800000000E+01 0.  1.
         -5    1    3    3    0  502 -0.72112049796E+02  0.13530959796E+03  0.77547132540E+02  0.17187165325E+03  0.41800000000E+01 0.  1.
        -11    1    4    4    0    0  0.32784909500E+01 -0.34547151965E+02  0.94516451511E+01  0.35966481728E+02  0.00000000000E+00 0.  1.
         11    1    4    4    0    0  0.61647389366E+02 -0.15145923550E+03  0.31190909502E+03  0.35217550197E+03  0.00000000000E+00 0. -1.
</event>
<event>
 8    1  0.6760442E-009  0.9743416E+02  0.7561462E-02  0.1285786E+00
         -1   -1    0    0    0  501 -0.00000000000E+00  0.00000000000E+00  0.51183667208E+02  0.51183667208E+02  0.00000000000E+00 0.  1.
          1   -1    0    0  501    0  0.00000000000E+00 -0.00000000000E+00 -0.38067163116E+03  0.38067163116E+03  0.00000000000E+00 0. -1.
         25    2    1    2    0    0 -0.52617861314E+02 -0.11185305432E+01 -0.72440354948E+02  0.15383567691E+03  0.12509164651E+03 0.  0.
         23    2    1    2    0    0  0.52617861314E+02  0.11185305432E+01 -0.25704760901E+03  0.27801962146E+03  0.91932291286E+02 0.  0.
          5    1    3    3  502    0 -0.19567074154E+02 -0.51243173536E+02  0.55864221939E+01  0.55293885176E+02  0.41800000000E+01 0.  1.
         -5    1    3    3    0  502 -0.33050787160E+02  0.50124642992E+02 -0.78026777142E+02  0.98541791734E+02  0.41800000000E+01 0.  1.
        -11    1    4    4    0    0 -0.10710423042E+02  0.11255780576E+02 -0.27745297728E+01  0.15783021687E+02  0.00000000000E+00 0.  1.
         11    1    4    4    0    0  0.63328284356E+02 -0.10137250032E+02 -0.25427307923E+03  0.26223659977E+03  0.00000000000E+00 0. -1.
</event>
<event>
 7    1  0.6760442E-009  0.1064029E+03  0.7561462E-02  0.1267380E+00
         -1   -1    0    0    0  501 -0.00000000000E+00  0.00000000000E+00  0.70726818491E+02  0.70726818491E+02  0.00000000000E+00 0.  1.
          1   -1    0    0  501    0  0.00000000000E+00 -0.00000000000E+00 -0.21960481192E+03  0.21960481192E+03  0.00000000000E+00 0. -1.
         23    2    1    2    0    0  0.42854284969E+02  0.28754848935E+02 -0.10574546861E+03  0.14841889118E+03  0.90458454837E+02 0.  0.
          5    1    1    2  502    0 -0.77542907011E+02 -0.51117888529E+02 -0.36615348696E+02  0.99920453940E+02  0.41800000000E+01 0.  1.
         -5    1    1    2    0  502  0.34688622043E+02  0.22363039594E+02 -0.65171761264E+01  0.41992285289E+02  0.41800000000E+01 0.  1.
        -11    1    3    3    0    0 -0.91377198640E+01  0.24544468484E+02  0.43897679236E+01  0.26555581709E+02  0.00000000000E+00 0.  1.
         11    1    3    3    0    0  0.51992004833E+02  0.42103804501E+01 -0.11013523653E+03  0.12186330947E+03  0.00000000000E+00 0. -1.
</event>
<event>
 8    1  0.6760442E-009  0.1704146E+03  0.7561462E-02  0.1177416E+00
         -1   -1    0    0    0  501 -0.00000000000E+00  0.00000000000E+00  0.36838158403E+02  0.36838158403E+02  0.00000000000E+00 0.  1.
          1   -1    0    0  501    0  0.00000000000E+00 -0.00000000000E+00 -0.89263930716E+03  0.89263930716E+03  0.00000000000E+00 0. -1.
         25    2    1    2    0    0 -0.42613493681E+02 -0.12879351592E+03 -0.48574085130E+03  0.51961079851E+03  0.12509007845E+03 0.  0.
         23    2    1    2    0    0  0.42613493681E+02  0.12879351592E+03 -0.37006029746E+03  0.40986666704E+03  0.11243834494E+03 0.  0.
          5    1    3    3  502    0  0.25175598256E+02  0.39389106027E+01 -0.15063178480E+03  0.15282909657E+03  0.41800000000E+01 0.  1.
         -5    1    3    3    0  502 -0.67789091937E+02 -0.13273242653E+03 -0.33510906649E+03  0.36678170195E+03  0.41800000000E+01 0.  1.
        -11    1    4    4    0    0 -0.55106436851E+01  0.11597381450E+03 -0.18664717753E+03  0.21981233296E+03  0.00000000000E+00 0.  1.
         11    1    4    4    0    0  0.48124137366E+02  0.12819701428E+02 -0.18341311993E+03  0.19005433408E+03  0.00000000000E+00 0. -1.
</event>
<event>
 8    1  0.6760442E-009  0.9700716E+02  0.7561462E-02  0.1286718E+00
         -2   -1    0    0    0  501 -0.00000000000E+00  0.00000000000E+00  0.40272973929E+02  0.40272973929E+02  0.00000000000E+00 0. -1.
          2   -1    0    0  501    0  0.00000000000E+00 -0.00000000000E+00 -0.33495141735E+03  0.33495141735E+03  0.00000000000E+00 0.  1.
         25    2    1    2    0    0  0.37889390827E+02  0.17708774142E+02 -0.18799047283E+03  0.22964561432E+03  0.12508990240E+03 0.  0.
         23    2    1    2    0    0 -0.37889390827E+02 -0.17708774142E+02 -0.10668797060E+03  0.14557877696E+03  0.89786695080E+02 0.  0.
          5    1    3    3  502    0  0.27747047563E+02  0.71588003390E+02 -0.10758593609E+03  0.13223822035E+03  0.41800000000E+01 0. -1.
         -5    1    3    3    0  502  0.10142343264E+02 -0.53879229248E+02 -0.80404536742E+02  0.97407393970E+02  0.41800000000E+01 0. -1.
        -11    1    4    4    0    0 -0.45347819132E+02 -0.27589022936E+01 -0.11729693617E+03  0.12578794647E+03  0.00000000000E+00 0.  1.
         11    1    4    4    0    0  0.74584283046E+01 -0.14949871848E+02  0.10608965575E+02  0.19790830494E+02  0.00000000000E+00 0. -1.
</event>
<event>
 8    1  0.6760442E-009  0.8496955E+02  0.7561462E-02  0.1315512E+00
          1   -1    0    0  501    0  0.00000000000E+00  0.00000000000E+00  0.14730118313E+03  0.14730118313E+03  0.00000000000E+00 0. -1.
         -1   -1    0    0    0  501 -0.00000000000E+00 -0.00000000000E+00 -0.10951704233E+03  0.10951704233E+03  0.00000000000E+00 0.  1.
         25    2    1    2    0    0 -0.54396350346E+02 -0.24927090702E+01  0.58892057000E+02  0.14859719228E+03  0.12509066570E+03 0.  0.
         23    2    1    2    0    0  0.54396350346E+02  0.24927090702E+01 -0.21107916197E+02  0.10822103318E+03  0.91110215487E+02 0.  0.
          5    1    3    3  502    0 -0.23282366032E+02  0.27531288048E+02  0.88750047894E+02  0.95885785134E+02  0.41800000000E+01 0. -1.
         -5    1    3    3    0  502 -0.31113984314E+02 -0.30023997118E+02 -0.29857990894E+02  0.52711407144E+02  0.41800000000E+01 0. -1.
        -11    1    4    4    0    0  0.37371625255E+02  0.36457626275E+02  0.16508060455E+02  0.54756852975E+02  0.00000000000E+00 0.  1.
         11    1    4    4    0    0  0.17024725090E+02 -0.33964917204E+02 -0.37615976652E+02  0.53464180201E+02  0.00000000000E+00 0. -1.
</event>
<event>
 8    1  0.6760442E-009  0.1238204E+03  0.7561462E-02  0.1236924E+00
          1   -1    0    0  501    0  0.00000000000E+00  0.00000000000E+00  0.60305400601E+03  0.60305400601E+03  0.00000000000E+00 0. -1.
         -1   -1    0    0    0  501 -0.00000000000E+00 -0.00000000000E+00 -0.29917826087E+02  0.29917826087E+02  0.00000000000E+00 0.  1.
         25    2    1    2    0    0 -0.54279286482E+01  0.69183132116E+02  0.22738967815E+03  0.26864169159E+03  0.12508606858E+03 0.  0.
         23    2    1    2    0    0  0.54279286482E+01 -0.69183132116E+02  0.34574650177E+03  0.36433014050E+03  0.91542556295E+02 0.  0.
          5    1    3    3  502    0  0.55651792295E+02  0.35102415817E+02  0.68944477664E+02  0.95394522810E+02  0.41800000000E+01 0. -1.
         -5    1    3    3    0  502 -0.61079720944E+02  0.34080716300E+02  0.15844520049E+03  0.17324716878E+03  0.41800000000E+01 0. -1.
        -11    1    4    4    0    0  0.41386558695E+02 -0.62662987616E+02  0.18884248097E+03  0.20322642514E+03  0.00000000000E+00 0.  1.
         11    1    4    4    0    0 -0.35958630047E+02 -0.65201445008E+01  0.15690402080E+03  0.16110371536E+03  0.00000000000E+00 0. -1.
</event>
<event>
 8    1  0.6760442E-009  0.7462859E+02  0.7561462E-02  0.1345025E+00
         -2   -1    0    0    0  501 -0.00000000000E+00  0.00000000000E+00  0.77243258365E+02  0.77243258365E+02  0.00000000000E+00 0.  1.
          2   -1    0    0  501    0  0.00000000000E+00 -0.00000000000E+00 -0.16008952871E+03  0.16008952871E+03  0.00000000000E+00 0. -1.
         25    2    1    2    0    0 -0.74545587886E+01  0.23092462731E+02 -0.37186808045E+02  0.13273712044E+03  0.12508977643E+03 0.  0.
         23    2    1    2    0    0  0.74545587886E+01 -0.23092462731E+02 -0.45659462298E+02  0.10459566664E+03  0.90921035519E+02 0.  0.
          5    1    3    3  502    0 -0.83394740861E+01  0.57316405922E+02 -0.65917729628E+02  0.87848373321E+02  0.41800000000E+01 0.  1.
         -5    1    3    3    0  502  0.88491529756E+00 -0.34223943191E+02  0.28730921583E+02  0.44888747116E+02  0.41800000000E+01 0.  1.
        -11    1    4    4    0    0  0.21591927635E+02  0.76118358754E+01  0.20223358665E+02  0.30547268619E+02  0.00000000000E+00 0.  1.
         11    1    4    4    0    0 -0.14137368847E+02 -0.30704298607E+02 -0.65882820962E+02  0.74048398016E+02  0.00000000000E+00 0. -1.
</event>
<event>
 8    1  0.6760442E-009  0.1022614E+03  0.7561462E-02  0.1275611E+00
          1   -1    0    0  501    0  0.00000000000E+00  0.00000000000E+00  0.60572213041E+03  0.60572213041E+03  0.00000000000E+00 0. -1.
         -1   -1    0    0    0  501 -0.00000000000E+00 -0.00000000000E+00 -0.29936785655E+02  0.29936785655E+02  0.00000000000E+00 0.  1.
         25    2    1    2    0    0 -0.35682522471E+02  0.42260329854E+02  0.44434087567E+03  0.46491471212E+03  0.12509075851E+03 0.  0.
         23    2    1    2    0    0  0.35682522471E+02 -0.42260329854E+02  0.13144446909E+03  0.17074420395E+03  0.93897586969E+02 0.  0.
          5    1    3    3  502    0 -0.33678947812E+02  0.68336629260E+02  0.42580651929E+03  0.43258852353E+03  0.41800000000E+01 0.  1.
         -5    1    3    3    0  502 -0.20035746591E+01 -0.26076299407E+02  0.18534356385E+02  0.32326188590E+02  0.41800000000E+01 0.  1.
        -11    1    4    4    0    0  0.19536645980E+02 -0.68333021152E+02  0.11688562101E+03  0.13679667654E+03  0.00000000000E+00 0. -1.
         11    1    4    4    0    0  0.16145876491E+02  0.26072691298E+02  0.14558848080E+02  0.33947527400E+02  0.00000000000E+00 0.  1.
</event>
<event>
 8    1  0.6760442E-009  0.1343813E+03  0.7561462E-02  0.1221096E+00
          1   -1    0    0  501    0  0.00000000000E+00  0.00000000000E+00  0.62425768136E+02  0.62425768136E+02  0.00000000000E+00 0. -1.
         -1   -1    0    0    0  501 -0.00000000000E+00 -0.00000000000E+00 -0.33512460842E+03  0.33512460842E+03  0.00000000000E+00 0.  1.
         25    2    1    2    0    0  0.76260209519E+02  0.56866457588E+02 -0.14547447462E+03  0.21414634821E+03  0.12508565918E+03 0.  0.
         23    2    1    2    0    0 -0.76260209519E+02 -0.56866457588E+02 -0.12722436567E+03  0.18340402834E+03  0.91660159494E+02 0.  0.
          5    1    3    3  502    0  0.75877743526E+02 -0.40704480533E+01 -0.26813691055E+02  0.80687340629E+02  0.41800000000E+01 0. -1.
         -5    1    3    3    0  502  0.38246599379E+00  0.60936905641E+02 -0.11866078356E+03  0.13345900758E+03  0.41800000000E+01 0. -1.
        -11    1    4    4    0    0 -0.95237810678E+02 -0.32362642850E+02 -0.10391823916E+03  0.14462566047E+03  0.00000000000E+00 0.  1.
         11    1    4    4    0    0  0.18977601159E+02 -0.24503814738E+02 -0.23306126506E+02  0.38778367877E+02  0.00000000000E+00 0. -1.
</event>
<event>
 8    1  0.6760442E-009  0.1349356E+03  0.7561462E-02  0.1220311E+00
         -2   -1    0    0    0  501 -0.00000000000E+00  0.00000000000E+00  0.35563864979E+02  0.35563864979E+02  0.00000000000E+00 0.  1.
          2   -1    0    0  501    0  0.00000000000E+00 -0.00000000000E+00 -0.60861356159E+03  0.60861356159E+03  0.00000000000E+00 0. -1.
         25    2    1    2    0    0 -0.56431989101E+02  0.74068482786E+02 -0.23910911315E+03  0.28546810346E+03  0.12509260796E+03 0.  0.
         23    2    1    2    0    0  0.56431989101E+02 -0.74068482786E+02 -0.33394058346E+03  0.35870932310E+03  0.92115990280E+02 0.  0.
          5    1    3    3  502    0  0.31785912621E+02  0.41236704987E+02 -0.42101401928E+02  0.67088080340E+02  0.41800000000E+01 0.  1.
         -5    1    3    3    0  502 -0.88217901722E+02  0.32831777799E+02 -0.19700771122E+03  0.21838002312E+03  0.41800000000E+01 0.  1.
        -11    1    4    4    0    0 -0.74512661894E+01 -0.56736280094E+02 -0.96267160713E+02  0.11199059371E+03  0.00000000000E+00 0.  1.
         11    1    4    4    0    0  0.63883255291E+02 -0.17332202692E+02 -0.23767342274E+03  0.24671872940E+03  0.00000000000E+00 0. -1.
</event>
<event>
 8    1  0.6760442E-009  0.1207376E+03  0.7561462E-02  0.1241885E+00
          2   -1    0    0  501    0  0.00000000000E+00  0.00000000000E+00  0.86891953618E+02  0.86891953618E+02  0.00000000000E+00 0. -1.
         -2   -1    0    0    0  501 -0.00000000000E+00 -0.00000000000E+00 -0.19733335714E+03  0.19733335714E+03  0.00000000000E+00 0.  1.
         25    2    1    2    0    0  0.29261136403E+01  0.60064128147E+02 -0.84884592005E+02  0.16269240029E+03  0.12508861468E+03 0.  0.
         23    2    1    2    0    0 -0.29261136403E+01 -0.60064128147E+02 -0.25556811517E+02  0.12153291047E+03  0.10247358723E+03 0.  0.
          5    1    3    3  502    0 -0.26631167450E+02  0.81790759109E+02 -0.90976538309E+02  0.12527230451E+03  0.41800000000E+01 0. -1.
         -5    1    3    3    0  502  0.29557281090E+02 -0.21726630962E+02  0.60919463034E+01  0.37420095780E+02  0.41800000000E+01 0. -1.
        -11    1    4    4    0    0  0.39182337159E+02 -0.65146363771E+02 -0.11725867308E+02  0.76920739869E+02  0.00000000000E+00 0. -1.
         11    1    4    4    0    0 -0.42108450800E+02  0.50822356234E+01 -0.13830944209E+02  0.44612170597E+02  0.00000000000E+00 0.  1.
</event>
<event>
 8    1  0.6760442E-009  0.1099478E+03  0.7561462E-02  0.1260667E+00
         -1   -1    0    0    0  501 -0.00000000000E+00  0.00000000000E+00  0.17061280527E+03  0.17061280527E+03  0.00000000000E+00 0.  1.
          1   -1    0    0  501    0  0.00000000000E+00 -0.00000000000E+00 -0.17340945037E+03  0.17340945037E+03  0.00000000000E+00 0. -1.
         25    2    1    2    0    0  0.19434881996E+02  0.62406012352E+02  0.11365131728E+03  0.18120077632E+03  0.12507947235E+03 0.  0.
         23    2    1    2    0    0 -0.19434881996E+02 -0.62406012352E+02 -0.11644796238E+03  0.16282147933E+03  0.93158366087E+02 0.  0.
          5    1    3    3  502    0  0.31643546465E+02  0.98086870475E+02  0.81266048731E+02  0.13131637852E+03  0.41800000000E+01 0.  1.
         -5    1    3    3    0  502 -0.12208664470E+02 -0.35680858122E+02  0.32385268544E+02  0.49884397793E+02  0.41800000000E+01 0.  1.
        -11    1    4    4    0    0 -0.29439319236E+02 -0.20887375168E+02  0.27526562278E+01  0.36201285541E+02  0.00000000000E+00 0.  1.
         11    1    4    4    0    0  0.10004437240E+02 -0.41518637184E+02 -0.11920061861E+03  0.12662019379E+03  0.00000000000E+00 0. -1.
</event>
<event>
 8    1  0.6760442E-009  0.1562580E+03  0.7561462E-02  0.1192987E+00
         -1   -1    0    0    0  501 -0.00000000000E+00  0.00000000000E+00  0.54698670037E+02  0.54698670037E+02  0.00000000000E+00 0.  1.
          1   -1    0    0  501    0  0.00000000000E+00 -0.00000000000E+00 -0.51862654570E+03  0.51862654570E+03  0.00000000000E+00 0. -1.
         25    2    1    2    0    0 -0.27920359098E+02 -0.12751844466E+03 -0.27542813237E+03  0.32946667698E+03  0.12508850850E+03 0.  0.
         23    2    1    2    0    0  0.27920359098E+02  0.12751844466E+03 -0.18849974329E+03  0.24385853876E+03  0.83032123439E+02 0.  0.
          5    1    3    3  502    0  0.32542536517E+02 -0.87465947635E+02 -0.87540586033E+02  0.12802396370E+03  0.41800000000E+01 0.  1.
         -5    1    3    3    0  502 -0.60462895616E+02 -0.40052497025E+02 -0.18788754634E+03  0.20144271328E+03  0.41800000000E+01 0.  1.
        -11    1    4    4    0    0  0.49822192161E+02  0.82218165383E+02 -0.15820921222E+03  0.18512761107E+03  0.00000000000E+00 0. -1.
         11    1    4    4    0    0 -0.21901833063E+02  0.45300279277E+02 -0.30290531078E+02  0.58730927688E+02  0.00000000000E+00 0.  1.
</event>
<event>
 8    1  0.6760442E-009  0.1196565E+03  0.7561462E-02  0.1243665E+00
         -1   -1    0    0    0  501 -0.00000000000E+00  0.00000000000E+00  0.19090462039E+02  0.19090462039E+02  0.00000000000E+00 0.  1.
          1   -1    0    0  501    0  0.00000000000E+00 -0.00000000000E+00 -0.80131455537E+03  0.80131455537E+03  0.00000000000E+00 0. -1.
         25    2    1    2    0    0 -0.53276886217E+02 -0.12970549477E+01 -0.50743053466E+03  0.52533187817E+03  0.12509086999E+03 0.  0.
         23    2    1    2    0    0  0.53276886217E+02  0.12970549477E+01 -0.27479355867E+03  0.29507313924E+03  0.93362458512E+02 0.  0.
          5    1    3    3  502    0  0.26939181156E+02 -0.37953147481E+02 -0.14723235055E+03  0.15447005643E+03  0.41800000000E+01 0. -1.
         -5    1    3    3    0  502 -0.80216067374E+02  0.36656092533E+02 -0.36019818411E+03  0.37086182174E+03  0.41800000000E+01 0. -1.
        -11    1    4    4    0    0  0.70746861212E+02  0.24833327426E+02 -0.22642371982E+03  0.23851522681E+03  0.00000000000E+00 0. -1.
         11    1    4    4    0    0 -0.17469974995E+02 -0.23536272479E+02 -0.48369838848E+02  0.56557912432E+02  0.00000000000E+00 0.  1.
</event>
<event>
 8    1  0.6760442E-009  0.1879741E+03  0.7561462E-02  0.1160301E+00
         -2   -1    0    0    0  501 -0.00000000000E+00  0.00000000000E+00  0.43306399347E+03  0.43306399347E+03  0.00000000000E+00 0. -1.
          2   -1    0    0  501    0  0.00000000000E+00 -0.00000000000E+00 -0.11643587210E+03  0.11643587210E+03  0.00000000000E+00 0.  1.
         25    2    1    2    0    0  0.68479038299E+02  0.14859543136E+03  0.31832636142E+02  0.20840292671E+03  0.12509389365E+03 0.  0.
         23    2    1    2    0    0 -0.68479038299E+02 -0.14859543136E+03  0.28479548523E+03  0.34109693886E+03  0.92025389872E+02 0.  0.
          5    1    3    3  502    0  0.18962677263E+02  0.15410153708E+03  0.31088103484E+02  0.15840078736E+03  0.41800000000E+01 0.  1.
         -5    1    3    3    0  502  0.49516361036E+02 -0.55061057148E+01  0.74453265840E+00  0.50002139347E+02  0.41800000000E+01 0.  1.
        -11    1    4    4    0    0 -0.57118408422E+01 -0.69137298753E+02  0.50350063511E+02  0.85718843321E+02  0.00000000000E+00 0.  1.
         11    1    4    4    0    0 -0.62767197457E+02 -0.79458132611E+02  0.23444542172E+03  0.25537809553E+03  0.00000000000E+00 0. -1.
</event>
<event>
 8    1  0.6760442E-009  0.1166469E+03  0.7561462E-02  0.1248733E+00
         -2   -1    0    0    0  501 -0.00000000000E+00  0.00000000000E+00  0.85384731999E+02  0.85384731999E+02  0.00000000000E+00 0.  1.
          2   -1    0    0  501    0  0.00000000000E+00 -0.00000000000E+00 -0.30209898091E+03  0.30209898091E+03  0.00000000000E+00 0. -1.
         25    2    1    2    0    0 -0.96981569669E+02  0.64004039283E+02 -0.89014664042E+02  0.19254553772E+03  0.12509289261E+03 0.  0.
         23    2    1    2    0    0  0.96981569669E+02 -0.64004039283E+02 -0.12769958487E+03  0.19493817519E+03  0.90508376800E+02 0.  0.
          5    1    3    3  502    0 -0.79608715785E+02  0.48629038101E+02 -0.12098105451E+03  0.15282741549E+03  0.41800000000E+01 0. -1.
         -5    1    3    3    0  502 -0.17372853883E+02  0.15375001182E+02  0.31966390470E+02  0.39718122225E+02  0.41800000000E+01 0. -1.
        -11    1    4    4    0    0  0.79868945616E+02 -0.50000162545E+02 -0.14066173812E+03  0.16930679047E+03  0.00000000000E+00 0. -1.
         11    1    4    4    0    0  0.17112624053E+02 -0.14003876738E+02  0.12962153253E+02  0.25631384719E+02  0.00000000000E+00 0.  1.
</event>
<event>
 8    1  0.6760442E-009  0.1233948E+03  0.7561462E-02  0.1237599E+00
          2   -1    0    0  501    0  0.00000000000E+00  0.00000000000E+00  0.31596390653E+03  0.31596390653E+03  0.00000000000E+00 0. -1.
         -2   -1    0    0    0  501 -0.00000000000E+00 -0.00000000000E+00 -0.66395663610E+02  0.66395663610E+02  0.00000000000E+00 0.  1.
         25    2    1    2    0    0 -0.34705468400E+02 -0.87564576790E+02  0.11463622050E+03  0.19406448126E+03  0.12509010828E+03 0.  0.
         23    2    1    2    0    0  0.34705468400E+02  0.87564576790E+02  0.13493202242E+03  0.18829508889E+03  0.91522484553E+02 0.  0.
          5    1    3    3  502    0 -0.55555911362E+02 -0.44030214550E+02  0.12569583842E+03  0.14436770857E+03  0.41800000000E+01 0.  1.
         -5    1    3    3    0  502  0.20850442963E+02 -0.43534362239E+02 -0.11059617919E+02  0.49696772690E+02  0.41800000000E+01 0.  1.
        -11    1    4    4    0    0 -0.24338109768E+02  0.34828982947E+01  0.99984320951E+01  0.26541341563E+02  0.00000000000E+00 0.  1.
         11    1    4    4    0    0  0.59043578168E+02  0.84081678495E+02  0.12493359033E+03  0.16175374732E+03  0.00000000000E+00 0. -1.
</event>
<event>
 8    1  0.6760442E-009  0.1287683E+03  0.7561462E-02  0.1229295E+00
          1   -1    0    0  501    0  0.00000000000E+00  0.00000000000E+00  0.11680262097E+04  0.11680262097E+04  0.00000000000E+00 0. -1.
         -1   -1    0    0    0  501 -0.00000000000E+00 -0.00000000000E+00 -0.16282677406E+02  0.16282677406E+02  0.00000000000E+00 0.  1.
         25    2    1    2    0    0 -0.51097960584E+02 -0.47968396818E+02  0.81241839968E+03  0.82497475333E+03  0.12509084230E+03 0.  0.
         23    2    1    2    0    0  0.51097960584E+02  0.47968396818E+02  0.33932513258E+03  0.35933413374E+03  0.95223449851E+02 0.  0.
          5    1    3    3  502    0 -0.32476512652E+02  0.40500104767E+02  0.33993194606E+03  0.34389850641E+03  0.41800000000E+01 0.  1.
         -5    1    3    3    0  502 -0.18621447933E+02 -0.88468501584E+02  0.47248645362E+03  0.48107624692E+03  0.41800000000E+01 0.  1.
        -11    1    4    4    0    0 -0.25858534323E+02  0.35634141086E+01  0.11776116433E+03  0.12061945756E+03  0.00000000000E+00 0. -1.
         11    1    4    4    0    0  0.76956494907E+02  0.44404982709E+02  0.22156396825E+03  0.23871467618E+03  0.00000000000E+00 0.  1.
</event>
<event>
 8    1  0.6760442E-009  0.1469088E+03  0.7561462E-02  0.1204324E+00
         -4   -1    0    0    0  501 -0.00000000000E+00  0.00000000000E+00  0.60835023875E+02  0.60835023875E+02  0.00000000000E+00 0.  1.
          4   -1    0    0  501    0  0.00000000000E+00 -0.00000000000E+00 -0.56236905124E+03  0.56236905124E+03  0.00000000000E+00 0. -1.
         25    2    1    2    0    0 -0.96304714565E+02 -0.88125309368E+02 -0.38675194901E+03  0.42692583818E+03  0.12509169855E+03 0.  0.
         23    2    1    2    0    0  0.96304714565E+02  0.88125309368E+02 -0.11478207836E+03  0.19627823693E+03  0.91156747329E+02 0.  0.
          5    1    3    3  502    0  0.14171734206E+02 -0.36189591366E+02 -0.19993900813E+03  0.20372433322E+03  0.41800000000E+01 0. -1.
         -5    1    3    3    0  502 -0.11047644877E+03 -0.51935718003E+02 -0.18681294088E+03  0.22320150496E+03  0.41800000000E+01 0. -1.
        -11    1    4    4    0    0  0.19732352971E+02  0.32181993480E+02  0.10471243623E+02  0.39175163064E+02  0.00000000000E+00 0.  1.
         11    1    4    4    0    0  0.76572361594E+02  0.55943315889E+02 -0.12525332198E+03  0.15710307387E+03  0.00000000000E+00 0. -1.
</event>
<event>
 7    1  0.6760442E-009  0.1231777E+03  0.7561462E-02  0.1237945E+00
         -2   -1    0    0    0  501 -0.00000000000E+00  0.00000000000E+00  0.31504446248E+02  0.31504446248E+02  0.00000000000E+00 0.  1.
          2   -1    0    0  501    0  0.00000000000E+00 -0.00000000000E+00 -0.13195045093E+04  0.13195045093E+04  0.00000000000E+00 0. -1.
         25    2    1    2    0    0  0.52626050677E+02 -0.86621323567E+01 -0.11068913549E+04  0.11152129143E+04  0.12508732475E+03 0.  0.
          5    1    3    3  502    0  0.28323835474E+02  0.47177192783E+02 -0.82225434260E+03  0.82410412175E+03  0.41800000000E+01 0. -1.
         -5    1    3    3    0  502  0.24302215203E+02 -0.55839325140E+02 -0.28463701235E+03  0.29110879254E+03  0.41800000000E+01 0. -1.
        -11    1    1    2    0    0 -0.90880196269E+02 -0.11478295353E+00 -0.17343719210E+03  0.19580521661E+03  0.00000000000E+00 0. -1.
         11    1    1    2    0    0  0.38254145592E+02  0.87769153102E+01 -0.76715160034E+01  0.39990824637E+02  0.00000000000E+00 0.  1.
</event>
<event>
 8    1  0.6760442E-009  0.1090883E+03  0.7561462E-02  0.1262268E+00
          1   -1    0    0  501    0  0.00000000000E+00  0.00000000000E+00  0.21043613147E+02  0.21043613147E+02  0.00000000000E+00 0. -1.
         -1   -1    0    0    0  501 -0.00000000000E+00 -0.00000000000E+00 -0.67616432524E+03  0.67616432524E+03  0.00000000000E+00 0.  1.
         25    2    1    2    0    0  0.43320468727E+02 -0.51444728739E+01 -0.45225275504E+03  0.47125688558E+03  0.12508944462E+03 0.  0.
         23    2    1    2    0    0 -0.43320468727E+02  0.51444728739E+01 -0.20286795706E+03  0.22595105281E+03  0.89416674359E+02 0.  0.
          5    1    3    3  502    0  0.45583512272E+02 -0.58378227268E+02 -0.19784767701E+03  0.21129848487E+03  0.41800000000E+01 0. -1.
         -5    1    3    3    0  502 -0.22630435454E+01  0.53233754394E+02 -0.25440507803E+03  0.25995840071E+03  0.41800000000E+01 0. -1.
        -11    1    4    4    0    0  0.10126056879E+02 -0.26545541630E+02 -0.11418739414E+03  0.11766887349E+03  0.00000000000E+00 0.  1.
         11    1    4    4    0    0 -0.53446525606E+02  0.31690014504E+02 -0.88680562922E+02  0.10828217932E+03  0.00000000000E+00 0. -1.
</event>
<event>
 8    1  0.6760442E-009  0.1253785E+03  0.7561462E-02  0.1234479E+00
         -2   -1    0    0    0  501 -0.00000000000E+00  0.00000000000E+00  0.57089922126E+02  0.57089922126E+02  0.00000000000E+00 0.  1.
          2   -1    0    0  501    0  0.00000000000E+00 -0.00000000000E+00 -0.32205701165E+03  0.32205701165E+03  0.00000000000E+00 0. -1.
         25    2    1    2    0    0 -0.45459621438E+02 -0.61636501707E+02 -0.18848193980E+03  0.23882729418E+03  0.12508956509E+03 0.  0.
         23    2    1    2    0    0  0.45459621438E+02  0.61636501707E+02 -0.76485149730E+02  0.14031963960E+03  0.89297186982E+02 0.  0.
          5    1    3    3  502    0 -0.81353408666E+02 -0.36365959200E+02 -0.73192389911E+02  0.11539262728E+03  0.41800000000E+01 0. -1.
         -5    1    3    3    0  502  0.35893787228E+02 -0.25270542507E+02 -0.11528954988E+03  0.12343466690E+03  0.41800000000E+01 0. -1.
        -11    1    4    4    0    0  0.59893172335E+02  0.62532988396E+01 -0.35225879445E+02  0.69765022908E+02  0.00000000000E+00 0.  1.
         11    1    4    4    0    0 -0.14433550897E+02  0.55383202868E+02 -0.41259270285E+02  0.70554616687E+02  0.00000000000E+00 0. -1.
</event>
<event>
 8    1  0.6760442E-009  0.1097375E+03  0.7561462E-02  0.1261057E+00
          1   -1    0    0  501    0  0.00000000000E+00  0.00000000000E+00  0.62866417674E+03  0.62866417674E+03  0.00000000000E+00 0. -1.
         -1   -1    0    0    0  501 -0.00000000000E+00 -0.00000000000E+00 -0.22338331482E+02  0.22338331482E+02  0.00000000000E+00 0.  1.
         25    2    1    2    0    0  0.11855243758E+02 -0.46106667477E+02  0.37712744554E+03  0.40017451903E+03  0.12509262132E+03 0.  0.
         23    2    1    2    0    0 -0.11855243758E+02  0.46106667477E+02  0.22919839972E+03  0.25082798919E+03  0.90091076915E+02 0.  0.
          5    1    3    3  502    0 -0.43493639060E+02  0.12966593700E+02  0.20372819082E+03  0.20876416677E+03  0.41800000000E+01 0.  1.
         -5    1    3    3    0  502  0.55348882818E+02 -0.59073261177E+02  0.17339925472E+03  0.19141035226E+03  0.41800000000E+01 0.  1.
        -11    1    4    4    0    0 -0.35741682963E+02 -0.53195066175E+01  0.42896313571E+02  0.56087955656E+02  0.00000000000E+00 0.  1.
         11    1    4    4    0    0  0.23886439205E+02  0.51426174094E+02  0.18630208615E+03  0.19474003354E+03  0.00000000000E+00 0. -1.
</event>
<event>
 8    1  0.6760442E-009  0.1614372E+03  0.7561462E-02  0.1187084E+00
         -2   -1    0    0    0  501 -0.00000000000E+00  0.00000000000E+00  0.19757619829E+03  0.19757619829E+03  0.00000000000E+00 0.  1.
          2   -1    0    0  501    0  0.00000000000E+00 -0.00000000000E+00 -0.15211169352E+03  0.15211169352E+03  0.00000000000E+00 0. -1.
         25    2    1    2    0    0 -0.13001015939E+03 -0.24504925723E+02  0.48181697459E+02  0.18833772400E+03  0.12508592799E+03 0.  0.
         23    2    1    2    0    0  0.13001015939E+03  0.24504925723E+02 -0.27171926900E+01  0.16135016781E+03  0.92322048215E+02 0.  0.
          5    1    3    3  502    0  0.13223520058E+01 -0.46731896788E+02  0.24630239568E+02  0.53006979667E+02  0.41800000000E+01 0. -1.
         -5    1    3    3    0  502 -0.13133251140E+03  0.22226971066E+02  0.23551457892E+02  0.13533074434E+03  0.41800000000E+01 0. -1.
        -11    1    4    4    0    0  0.12065013099E+02 -0.14111199617E+02  0.27910015093E+02  0.33521029790E+02  0.00000000000E+00 0.  1.
         11    1    4    4    0    0  0.11794514630E+03  0.38616125340E+02 -0.30627207783E+02  0.12782913802E+03  0.00000000000E+00 0. -1.
</event>
<event>
 8    1  0.6760442E-009  0.8113453E+02  0.7561462E-02  0.1325862E+00
          1   -1    0    0  501    0  0.00000000000E+00  0.00000000000E+00  0.10859488626E+03  0.10859488626E+03  0.00000000000E+00 0. -1.
         -1   -1    0    0    0  501 -0.00000000000E+00 -0.00000000000E+00 -0.16091260573E+03  0.16091260573E+03  0.00000000000E+00 0.  1.
         25    2    1    2    0    0 -0.36652562925E+02  0.17201477110E+02 -0.94594461762E+02  0.16197623255E+03  0.12509550964E+03 0.  0.
         23    2    1    2    0    0  0.36652562925E+02 -0.17201477110E+02  0.42276742297E+02  0.10753125944E+03  0.90201705273E+02 0.  0.
          5    1    3    3  502    0 -0.64350323713E+02  0.37440323044E+01 -0.10979090592E+03  0.12738326956E+03  0.41800000000E+01 0.  1.
         -5    1    3    3    0  502  0.27697760789E+02  0.13457444806E+02  0.15196444160E+02  0.34592962991E+02  0.41800000000E+01 0.  1.
        -11    1    4    4    0    0  0.34320139807E+02  0.12708390311E+02 -0.17562016712E+02  0.40593098079E+02  0.00000000000E+00 0.  1.
         11    1    4    4    0    0  0.23324231176E+01 -0.29909867422E+02  0.59838759010E+02  0.66938161363E+02  0.00000000000E+00 0. -1.
</event>
<event>
 7    1  0.6760442E-009  0.1321755E+03  0.7561462E-02  0.1224263E+00
          2   -1    0    0  501    0  0.00000000000E+00  0.00000000000E+00  0.18683622268E+03  0.18683622268E+03  0.00000000000E+00 0. -1.
         -2   -1    0    0    0  501 -0.00000000000E+00 -0.00000000000E+00 -0.11719860833E+03  0.11719860833E+03  0.00000000000E+00 0.  1.
         23    2    1    2    0    0  0.70397880459E+02  0.57095856316E+02  0.45729386790E+02  0.14747724124E+03  0.10696990926E+03 0.  0.
          5    1    1    2  502    0  0.12390336958E+02 -0.42396696033E+02 -0.32693568975E+02  0.55112087029E+02  0.41800000000E+01 0.  1.
         -5    1    1    2    0  502 -0.82788217417E+02 -0.14699160284E+02  0.56601796531E+02  0.10144550274E+03  0.41800000000E+01 0.  1.
        -11    1    3    3    0    0 -0.15398004548E+02  0.46941016060E+02  0.34723169104E+02  0.60384236398E+02  0.00000000000E+00 0.  1.
         11    1    3    3    0    0  0.85795885007E+02  0.10154840256E+02  0.11006217686E+02  0.87093004843E+02  0.00000000000E+00 0. -1.
</event>
<event>
 8    1  0.6760442E-009  0.1085493E+03  0.7561462E-02  0.1263280E+00
         -2   -1    0    0    0  501 -0.00000000000E+00  0.00000000000E+00  0.39969508023E+02  0.39969508023E+02  0.00000000000E+00 0. -1.
          2   -1    0    0  501    0  0.00000000000E+00 -0.00000000000E+00 -0.46458994195E+03  0.46458994195E+03  0.00000000000E+00 0.  1.
         25    2    1    2    0    0 -0.72305367658E+02 -0.40008021332E+02 -0.20481024100E+03  0.25381718198E+03  0.12508884476E+03 0.  0.
         23    2    1    2    0    0  0.72305367658E+02  0.40008021332E+02 -0.21981019293E+03  0.25074226800E+03  0.87900262139E+02 0.  0.
          5    1    3    3  502    0 -0.43077949155E+02 -0.71182641351E+02 -0.19154632709E+03  0.20887830418E+03  0.41800000000E+01 0. -1.
         -5    1    3    3    0  502 -0.29227418503E+02  0.31174620019E+02 -0.13263913911E+02  0.44938877800E+02  0.41800000000E+01 0. -1.
        -11    1    4    4    0    0  0.48904910202E+02  0.55741113257E+01 -0.32788221397E+02  0.59142441793E+02  0.00000000000E+00 0. -1.
         11    1    4    4    0    0  0.23400457457E+02  0.34433910006E+02 -0.18702197153E+03  0.19159982621E+03  0.00000000000E+00 0.  1.
</event>
<event>
 8    1  0.6760442E-009  0.1687804E+03  0.7561462E-02  0.1179126E+00
         -2   -1    0    0    0  501 -0.00000000000E+00  0.00000000000E+00  0.25145177544E+03  0.25145177544E+03  0.00000000000E+00 0.  1.
          2   -1    0    0  501    0  0.00000000000E+00 -0.00000000000E+00 -0.13457686031E+03  0.13457686031E+03  0.00000000000E+00 0. -1.
         25    2    1    2    0    0 -0.12599307304E+03  0.55635643248E+02  0.11447606841E+03  0.21845354912E+03  0.12509038184E+03 0.  0.
         23    2    1    2    0    0  0.12599307304E+03 -0.55635643248E+02  0.23988467177E+01  0.16757508664E+03  0.95425761420E+02 0.  0.
          5    1    3    3  502    0 -0.12954989373E+03 -0.51961766836E+00  0.78447476016E+02  0.15150882437E+03  0.41800000000E+01 0. -1.
         -5    1    3    3    0  502  0.35568206892E+01  0.56155260917E+02  0.36028592398E+02  0.66944724752E+02  0.41800000000E+01 0. -1.
        -11    1    4    4    0    0  0.52772846412E+02 -0.57799676665E+02  0.36987827225E+02  0.86567172206E+02  0.00000000000E+00 0.  1.
         11    1    4    4    0    0  0.73220226628E+02  0.21640334166E+01 -0.34588980507E+02  0.81007914432E+02  0.00000000000E+00 0. -1.
</event>
<event>
 8    1  0.6760442E-009  0.1611976E+03  0.7561462E-02  0.1187351E+00
         -1   -1    0    0    0  501 -0.00000000000E+00  0.00000000000E+00  0.18128662220E+03  0.18128662220E+03  0.00000000000E+00 0.  1.
          1   -1    0    0  501    0  0.00000000000E+00 -0.00000000000E+00 -0.16521468180E+03  0.16521468180E+03  0.00000000000E+00 0. -1.
         25    2    1    2    0    0 -0.91096575793E+02 -0.95922415722E+02  0.35220317352E+01  0.18209953126E+03  0.12509252024E+03 0.  0.
         23    2    1    2    0    0  0.91096575793E+02  0.95922415722E+02  0.12549908671E+02  0.16440177274E+03  0.96802617282E+02 0.  0.
          5    1    3    3  502    0  0.31501857834E+02 -0.15382200857E+02 -0.20050379412E+00  0.35305690079E+02  0.41800000000E+01 0.  1.
         -5    1    3    3    0  502 -0.12259843363E+03 -0.80540214865E+02  0.37225355294E+01  0.14679384118E+03  0.41800000000E+01 0.  1.
        -11    1    4    4    0    0  0.34471853791E+02  0.70082271118E+02  0.49069588931E+02  0.92236966487E+02  0.00000000000E+00 0.  1.
         11    1    4    4    0    0  0.56624722002E+02  0.25840144604E+02 -0.36519680260E+02  0.72164806251E+02  0.00000000000E+00 0. -1.
</event>
<event>
 8    1  0.6760442E-009  0.1366623E+03  0.7561462E-02  0.1217892E+00
         -1   -1    0    0    0  501 -0.00000000000E+00  0.00000000000E+00  0.12384353183E+03  0.12384353183E+03  0.00000000000E+00 0.  1.
          1   -1    0    0  501    0  0.00000000000E+00 -0.00000000000E+00 -0.21349930556E+03  0.21349930556E+03  0.00000000000E+00 0. -1.
         25    2    1    2    0    0 -0.14579210276E+02  0.11937584416E+03 -0.36796364463E+02  0.17738240283E+03  0.12508956333E+03 0.  0.
         23    2    1    2    0    0  0.14579210276E+02 -0.11937584416E+03 -0.52859409267E+02  0.15996043457E+03  0.91269260652E+02 0.  0.
          5    1    3    3  502    0 -0.19962893977E+02  0.45540127837E+02 -0.77968658686E+02  0.92568917659E+02  0.41800000000E+01 0.  1.
         -5    1    3    3    0  502  0.53836837016E+01  0.73835716318E+02  0.41172294223E+02  0.84813485166E+02  0.41800000000E+01 0.  1.
        -11    1    4    4    0    0  0.38375608748E+02 -0.13378976231E+02 -0.39801660969E+01  0.40835353236E+02  0.00000000000E+00 0.  1.
         11    1    4    4    0    0 -0.23796398473E+02 -0.10599686792E+03 -0.48879243170E+02  0.11912508133E+03  0.00000000000E+00 0. -1.
</event>
<event>
 8    1  0.6760442E-009  0.2296571E+03  0.7561462E-02  0.1126881E+00
          2   -1    0    0  501    0  0.00000000000E+00  0.00000000000E+00  0.54097733922E+03  0.54097733922E+03  0.00000000000E+00 0. -1.
         -2   -1    0    0    0  501 -0.00000000000E+00 -0.00000000000E+00 -0.11542892034E+03  0.11542892034E+03  0.00000000000E+00 0.  1.
         25    2    1    2    0    0  0.13437353976E+03  0.17518905633E+03  0.16450277036E+03  0.30242910991E+03  0.12511894908E+03 0.  0.
         23    2    1    2    0    0 -0.13437353976E+03 -0.17518905633E+03  0.26104564852E+03  0.35397714965E+03  0.91692629011E+02 0.  0.
          5    1    3    3  502    0  0.76281316012E+02  0.14974991843E+03  0.56939032052E+02  0.17749198014E+03  0.41800000000E+01 0. -1.
         -5    1    3    3    0  502  0.58092223745E+02  0.25439137901E+02  0.10756373831E+03  0.12493712977E+03  0.41800000000E+01 0. -1.
        -11    1    4    4    0    0 -0.13865575844E+03 -0.15930151982E+03  0.20040431726E+03  0.29114306439E+03  0.00000000000E+00 0.  1.
         11    1    4    4    0    0  0.42822186813E+01 -0.15887536511E+02  0.60641331257E+02  0.62834085255E+02  0.00000000000E+00 0. -1.
</event>
<event>
 8    1  0.6760442E-009  0.1078485E+03  0.7561462E-02  0.1264607E+00
         -2   -1    0    0    0  501 -0.00000000000E+00  0.00000000000E+00  0.96156238266E+02  0.96156238266E+02  0.00000000000E+00 0.  1.
          2   -1    0    0  501    0  0.00000000000E+00 -0.00000000000E+00 -0.17207123983E+03  0.17207123983E+03  0.00000000000E+00 0. -1.
         25    2    1    2    0    0 -0.64237202893E+02 -0.23759706434E+02 -0.47882594858E+02  0.15044113417E+03  0.12509536392E+03 0.  0.
         23    2    1    2    0    0  0.64237202893E+02  0.23759706434E+02 -0.28032406707E+02  0.11778634393E+03  0.91634410046E+02 0.  0.
          5    1    3    3  502    0 -0.29756800521E+02  0.32265179278E+02  0.26192092376E+02  0.51283594590E+02  0.41800000000E+01 0. -1.
         -5    1    3    3    0  502 -0.34480402372E+02 -0.56024885711E+02 -0.74074687234E+02  0.99157539580E+02  0.41800000000E+01 0. -1.
        -11    1    4    4    0    0  0.37274486480E+02 -0.28474396189E+02  0.97498931967E+01  0.47908652642E+02  0.00000000000E+00 0.  1.
         11    1    4    4    0    0  0.26962716413E+02  0.52234102623E+02 -0.37782299903E+02  0.69877691284E+02  0.00000000000E+00 0. -1.
</event>
<event>
 8    1  0.6760442E-009  0.8366345E+02  0.7561462E-02  0.1318965E+00
         -1   -1    0    0    0  501 -0.00000000000E+00  0.00000000000E+00  0.82431230710E+02  0.82431230710E+02  0.00000000000E+00 0.  1.
          1   -1    0    0  501    0  0.00000000000E+00 -0.00000000000E+00 -0.16317533203E+03  0.16317533203E+03  0.00000000000E+00 0. -1.
         25    2    1    2    0    0  0.35048093877E+02  0.56085003640E+01 -0.24263642654E+02  0.13223156372E+03  0.12504654305E+03 0.  0.
         23    2    1    2    0    0 -0.35048093877E+02 -0.56085003640E+01 -0.56480458670E+02  0.11337499902E+03  0.91673464156E+02 0.  0.
          5    1    3    3  502    0  0.64478308578E+02  0.43639277489E+02  0.51914441544E+00  0.77971666186E+02  0.41800000000E+01 0. -1.
         -5    1    3    3    0  502 -0.29430214701E+02 -0.38030777125E+02 -0.24782787069E+02  0.54259897539E+02  0.41800000000E+01 0. -1.
        -11    1    4    4    0    0 -0.74589786150E+01 -0.10689186610E+02  0.24457133710E+02  0.27713651179E+02  0.00000000000E+00 0.  1.
         11    1    4    4    0    0 -0.27589115262E+02  0.50806862460E+01 -0.80937592380E+02  0.85661347841E+02  0.00000000000E+00 0. -1.
</event>
<event>
 8    1  0.6760442E-009  0.1185427E+03  0.7561462E-02  0.1245521E+00
         -2   -1    0    0    0  501 -0.00000000000E+00  0.00000000000E+00  0.20550605525E+03  0.20550605525E+03  0.00000000000E+00 0.  1.
          2   -1    0    0  501    0  0.00000000000E+00 -0.00000000000E+00 -0.13518090160E+03  0.13518090160E+03  0.00000000000E+00 0. -1.
         25    2    1    2    0    0 -0.65756036542E+02  0.43096649326E+02  0.13942284183E+03  0.20314341592E+03  0.12508933241E+03 0.  0.
         23    2    1    2    0    0  0.65756036542E+02 -0.43096649326E+02 -0.69097688181E+02  0.13754354093E+03  0.89233164318E+02 0.  0.
          5    1    3    3  502    0 -0.18536993685E+02 -0.43136845779E+02  0.62275594768E+02  0.78103327089E+02  0.41800000000E+01 0.  1.
         -5    1    3    3    0  502 -0.47219042857E+02  0.86233495104E+02  0.77147247058E+02  0.12504008883E+03  0.41800000000E+01 0.  1.
        -11    1    4    4    0    0  0.58247096357E+02 -0.53247867786E+02 -0.12925299375E+02  0.79969513076E+02  0.00000000000E+00 0.  1.
         11    1    4    4    0    0  0.75089401854E+01  0.10151218460E+02 -0.56172388806E+02  0.57574027852E+02  0.00000000000E+00 0. -1.
</event>
<event>
 8    1  0.6760442E-009  0.1423552E+03  0.7561462E-02  0.1210195E+00
          1   -1    0    0  501    0  0.00000000000E+00  0.00000000000E+00  0.14737036442E+03  0.14737036442E+03  0.00000000000E+00 0. -1.
         -1   -1    0    0    0  501 -0.00000000000E+00 -0.00000000000E+00 -0.18566403979E+03  0.18566403979E+03  0.00000000000E+00 0.  1.
         25    2    1    2    0    0  0.11445846651E+03  0.93865666842E+01  0.28918123865E+02  0.17225738860E+03  0.12508997502E+03 0.  0.
         23    2    1    2    0    0 -0.11445846651E+03 -0.93865666842E+01 -0.67211799231E+02  0.16077701561E+03  0.90238431955E+02 0.  0.
          5    1    3    3  502    0  0.41806282401E+02  0.59339930356E+02  0.40510373280E+02  0.83231936936E+02  0.41800000000E+01 0.  1.
         -5    1    3    3    0  502  0.72652184107E+02 -0.49953363671E+02 -0.11592249415E+02  0.89025451665E+02  0.41800000000E+01 0.  1.
        -11    1    4    4    0    0 -0.23611554338E+01  0.97358673771E+01 -0.43468633617E+02  0.44608118960E+02  0.00000000000E+00 0.  1.
         11    1    4    4    0    0 -0.11209731107E+03 -0.19122434061E+02 -0.23743165613E+02  0.11616889665E+03  0.00000000000E+00 0. -1.
</event>
<event>
 8    1  0.6760442E-009  0.9383203E+02  0.7561462E-02  0.1293829E+00
         -2   -1    0    0    0  501 -0.00000000000E+00  0.00000000000E+00  0.17973827549E+02  0.17973827549E+02  0.00000000000E+00 0.  1.
          2   -1    0    0  501    0  0.00000000000E+00 -0.00000000000E+00 -0.71332556861E+03  0.71332556861E+03  0.00000000000E+00 0. -1.
         25    2    1    2    0    0 -0.31132110853E+02  0.82846071598E+01 -0.39814843409E+03  0.41857775892E+03  0.12508925472E+03 0.  0.
         23    2    1    2    0    0  0.31132110853E+02 -0.82846071598E+01 -0.29720330697E+03  0.31272163725E+03  0.91799638807E+02 0.  0.
          5    1    3    3  502    0 -0.65884335238E+02  0.16977673114E+01 -0.36146500029E+03  0.36744801929E+03  0.41800000000E+01 0.  1.
         -5    1    3    3    0  502  0.34752224385E+02  0.65868398484E+01 -0.36683433804E+02  0.51129739629E+02  0.41800000000E+01 0.  1.
        -11    1    4    4    0    0  0.49504078346E+02  0.19075598899E+02 -0.24724196719E+03  0.25286977397E+03  0.00000000000E+00 0. -1.
         11    1    4    4    0    0 -0.18371967493E+02 -0.27360206059E+02 -0.49961339778E+02  0.59851863275E+02  0.00000000000E+00 0.  1.
</event>
<event>
 8    1  0.6760442E-009  0.4874689E+02  0.7561462E-02  0.1452220E+00
         -2   -1    0    0    0  501 -0.00000000000E+00  0.00000000000E+00  0.29676116808E+02  0.29676116808E+02  0.00000000000E+00 0.  1.
          2   -1    0    0  501    0  0.00000000000E+00 -0.00000000000E+00 -0.43194706949E+03  0.43194706949E+03  0.00000000000E+00 0. -1.
         25    2    1    2    0    0 -0.29585467871E+02  0.30277101705E+02 -0.26197306513E+03  0.29337601601E+03  0.12509035583E+03 0.  0.
         23    2    1    2    0    0  0.29585467871E+02 -0.30277101705E+02 -0.14029788755E+03  0.16824717029E+03  0.82653555647E+02 0.  0.
          5    1    3    3  502    0 -0.33919101600E+02  0.29040353192E+02 -0.27517901747E+03  0.27880963330E+03  0.41800000000E+01 0. -1.
         -5    1    3    3    0  502  0.43336337297E+01  0.12367485134E+01  0.13205952337E+02  0.14566382712E+02  0.41800000000E+01 0. -1.
        -11    1    4    4    0    0  0.31255467798E+01 -0.16256571034E+02  0.69728232713E+01  0.17962889768E+02  0.00000000000E+00 0.  1.
         11    1    4    4    0    0  0.26459921091E+02 -0.14020530671E+02 -0.14727071082E+03  0.15028428052E+03  0.00000000000E+00 0. -1.
</event>
<event>
 8    1  0.6760442E-009  0.1004687E+03  0.7561462E-02  0.1279313E+00
          2   -1    0    0  501    0  0.00000000000E+00  0.00000000000E+00  0.62555474477E+03  0.62555474477E+03  0.00000000000E+00 0. -1.
         -2   -1    0    0    0  501 -0.00000000000E+00 -0.00000000000E+00 -0.18707342535E+02  0.18707342535E+02  0.00000000000E+00 0.  1.
         25    2    1    2    0    0  0.10700447486E+02 -0.46548442627E+01  0.35007561664E+03  0.37193731190E+03  0.12509300325E+03 0.  0.
         23    2    1    2    0    0 -0.10700447486E+02  0.46548442627E+01  0.25677178559E+03  0.27232477541E+03  0.89960359456E+02 0.  0.
          5    1    3    3  502    0  0.56649555132E+02 -0.35576588276E+02  0.23132631381E+03  0.24084061449E+03  0.41800000000E+01 0. -1.
         -5    1    3    3    0  502 -0.45949107646E+02  0.30921744013E+02  0.11874930284E+03  0.13109669741E+03  0.41800000000E+01 0. -1.
        -11    1    4    4    0    0 -0.97662937527E+01 -0.36205329973E+02  0.19279002233E+03  0.19640315456E+03  0.00000000000E+00 0. -1.
         11    1    4    4    0    0 -0.93415373362E+00  0.40860174235E+02  0.63981763264E+02  0.75921620847E+02  0.00000000000E+00 0.  1.
</event>
<event>
 8    1  0.6760442E-009  0.1170824E+03  0.7561462E-02  0.1247989E+00
         -1   -1    0    0    0  501 -0.00000000000E+00  0.00000000000E+00  0.41910456415E+03  0.41910456415E+03  0.00000000000E+00 0.  1.
          1   -1    0    0  501    0  0.00000000000E+00 -0.00000000000E+00 -0.70313454333E+02  0.70313454333E+02  0.00000000000E+00 0. -1.
         25    2    1    2    0    0 -0.93498175476E+01 -0.49796847327E+01  0.35703681533E+03  0.37846398315E+03  0.12508989846E+03 0.  0.
         23    2    1    2    0    0  0.93498175476E+01  0.49796847327E+01 -0.82457055121E+01  0.11095403533E+03  0.11013895745E+03 0.  0.
          5    1    3    3  502    0  0.31165916679E+02  0.48224977487E+02  0.14190121741E+03  0.15313520404E+03  0.41800000000E+01 0.  1.
         -5    1    3    3    0  502 -0.40515734227E+02 -0.53204662220E+02  0.21513559792E+03  0.22532877911E+03  0.41800000000E+01 0.  1.
        -11    1    4    4    0    0 -0.50057061233E+02  0.15027011743E+01  0.38545825432E+01  0.50227734337E+02  0.00000000000E+00 0.  1.
         11    1    4    4    0    0  0.59406878780E+02  0.34769835584E+01 -0.12100288055E+02  0.60726300991E+02  0.00000000000E+00 0. -1.
</event>
<event>
 8    1  0.6760442E-009  0.1535583E+03  0.7561462E-02  0.1196167E+00
         -3   -1    0    0    0  501 -0.00000000000E+00  0.00000000000E+00  0.68447553372E+02  0.68447553372E+02  0.00000000000E+00 0.  1.
          3   -1    0    0  501    0  0.00000000000E+00 -0.00000000000E+00 -0.46844546626E+03  0.46844546626E+03  0.00000000000E+00 0. -1.
         25    2    1    2    0    0  0.71941085807E+02 -0.94995233552E+02 -0.95629679136E+02  0.19749006366E+03  0.12513063369E+03 0.  0.
         23    2    1    2    0    0 -0.71941085807E+02  0.94995233552E+02 -0.30436823376E+03  0.33940295598E+03  0.91404215337E+02 0.  0.
          5    1    3    3  502    0  0.31715962747E+02  0.26330820959E+02 -0.41421630816E+02  0.58587014985E+02  0.41800000000E+01 0.  1.
         -5    1    3    3    0  502  0.40225123059E+02 -0.12132605451E+03 -0.54208048320E+02  0.13890304867E+03  0.41800000000E+01 0.  1.
        -11    1    4    4    0    0 -0.26946035732E+02  0.88280876367E+02 -0.13158025041E+03  0.16072636458E+03  0.00000000000E+00 0. -1.
         11    1    4    4    0    0 -0.44995050074E+02  0.67143571853E+01 -0.17278798335E+03  0.17867659140E+03  0.00000000000E+00 0.  1.
</event>
<event>
 8    1  0.6760442E-009  0.9729000E+02  0.7561462E-02  0.1286100E+00
         -2   -1    0    0    0  501 -0.00000000000E+00  0.00000000000E+00  0.84939245182E+01  0.84939245182E+01  0.00000000000E+00 0.  1.
          2   -1    0    0  501    0  0.00000000000E+00 -0.00000000000E+00 -0.23040112659E+04  0.23040112659E+04  0.00000000000E+00 0. -1.
         25    2    1    2    0    0 -0.38708376478E+02 -0.15693716768E+02 -0.18546756499E+04  0.18593584096E+04  0.12508915917E+03 0.  0.
         23    2    1    2    0    0  0.38708376478E+02  0.15693716768E+02 -0.44084169147E+03  0.45314678084E+03  0.96207987668E+02 0.  0.
          5    1    3    3  502    0 -0.87402525821E+00  0.34804604294E+02 -0.13851009053E+04  0.13855446996E+04  0.41800000000E+01 0. -1.
         -5    1    3    3    0  502 -0.37834351219E+02 -0.50498321062E+02 -0.46957474466E+03  0.47381371000E+03  0.41800000000E+01 0. -1.
        -11    1    4    4    0    0 -0.25242442125E+02  0.19964933201E+02 -0.73237315387E+02  0.79996773731E+02  0.00000000000E+00 0.  1.
         11    1    4    4    0    0  0.63950818603E+02 -0.42712164329E+01 -0.36760437609E+03  0.37315000711E+03  0.00000000000E+00 0. -1.
</event>
<event>
 8    1  0.6760442E-009  0.2414595E+03  0.7561462E-02  0.1118824E+00
         -2   -1    0    0    0  501 -0.00000000000E+00  0.00000000000E+00  0.96602552441E+02  0.96602552441E+02  0.00000000000E+00 0.  1.
          2   -1    0    0  501    0  0.00000000000E+00 -0.00000000000E+00 -0.74072930456E+03  0.74072930456E+03  0.00000000000E+00 0. -1.
         25    2    1    2    0    0 -0.22629803101E+03  0.24446646427E+02 -0.46664448316E+03  0.53405320440E+03  0.12508922458E+03 0.  0.
         23    2    1    2    0    0  0.22629803101E+03 -0.24446646427E+02 -0.17748226895E+03  0.30327865259E+03  0.93110407390E+02 0.  0.
          5    1    3    3  502    0 -0.23237946269E+03  0.19395864233E+02 -0.46985278210E+03  0.52455268894E+03  0.41800000000E+01 0.  1.
         -5    1    3    3    0  502  0.60814316725E+01  0.50507821934E+01  0.32082989396E+01  0.95005154617E+01  0.41800000000E+01 0.  1.
        -11    1    4    4    0    0  0.13891631757E+03 -0.53208939881E+02 -0.13889159346E+03  0.20351857238E+03  0.00000000000E+00 0. -1.
         11    1    4    4    0    0  0.87381713446E+02  0.28762293454E+02 -0.38590675497E+02  0.99760080216E+02  0.00000000000E+00 0.  1.
</event>
<event>
 8    1  0.6760442E-009  0.1007376E+03  0.7561462E-02  0.1278752E+00
          2   -1    0    0  501    0  0.00000000000E+00  0.00000000000E+00  0.89414022052E+03  0.89414022052E+03  0.00000000000E+00 0. -1.
         -2   -1    0    0    0  501 -0.00000000000E+00 -0.00000000000E+00 -0.20608168570E+02  0.20608168570E+02  0.00000000000E+00 0.  1.
         25    2    1    2    0    0 -0.64549690970E+01  0.19668591262E+02  0.76547660465E+03  0.77590631658E+03  0.12509060609E+03 0.  0.
         23    2    1    2    0    0  0.64549690970E+01 -0.19668591262E+02  0.10805544730E+03  0.13884207251E+03  0.84691329544E+02 0.  0.
          5    1    3    3  502    0 -0.57386393235E+02  0.40381846103E+02  0.37180968367E+03  0.37839635951E+03  0.41800000000E+01 0.  1.
         -5    1    3    3    0  502  0.50931424138E+02 -0.20713254840E+02  0.39366692098E+03  0.39750995706E+03  0.41800000000E+01 0.  1.
        -11    1    4    4    0    0  0.37812398252E+02  0.20936838859E+01  0.19905081098E+02  0.42782861374E+02  0.00000000000E+00 0. -1.
         11    1    4    4    0    0 -0.31357429155E+02 -0.21762275148E+02  0.88150366205E+02  0.96059211141E+02  0.00000000000E+00 0.  1.
</event>
<event>
 8    1  0.6760442E-009  0.7053939E+02  0.7561462E-02  0.1358268E+00
          2   -1    0    0  501    0  0.00000000000E+00  0.00000000000E+00  0.30568984490E+03  0.30568984490E+03  0.00000000000E+00 0. -1.
         -2   -1    0    0    0  501 -0.00000000000E+00 -0.00000000000E+00 -0.43287836817E+02  0.43287836817E+02  0.00000000000E+00 0.  1.
         25    2    1    2    0    0  0.29432310764E+01 -0.27197313851E+02  0.10825414143E+03  0.16767612680E+03  0.12509183775E+03 0.  0.
         23    2    1    2    0    0 -0.29432310764E+01  0.27197313851E+02  0.15414786665E+03  0.18130155492E+03  0.91434854032E+02 0.  0.
          5    1    3    3  502    0  0.21307813865E+02 -0.27388293199E+02 -0.18489345569E+02  0.39540736407E+02  0.41800000000E+01 0. -1.
         -5    1    3    3    0  502 -0.18364582789E+02  0.19097934790E+00  0.12674348700E+03  0.12813539039E+03  0.41800000000E+01 0. -1.
        -11    1    4    4    0    0  0.58795714581E+01 -0.29414682545E+02  0.21792381741E+02  0.37076957962E+02  0.00000000000E+00 0.  1.
         11    1    4    4    0    0 -0.88228025346E+01  0.56611996396E+02  0.13235548491E+03  0.14422459695E+03  0.00000000000E+00 0. -1.
</event>
<event>
 8    1  0.6760442E-009  0.1072283E+03  0.7561462E-02  0.1265790E+00
         -1   -1    0    0    0  501 -0.00000000000E+00  0.00000000000E+00  0.88052789962E+01  0.88052789962E+01  0.00000000000E+00 0.  1.
          1   -1    0    0  501    0  0.00000000000E+00 -0.00000000000E+00 -0.16993087322E+04  0.16993087322E+04  0.00000000000E+00 0. -1.
         25    2    1    2    0    0  0.17785969556E+02  0.41861038009E+02 -0.12102333632E+04  0.12175307987E+04  0.12509102806E+03 0.  0.
         23    2    1    2    0    0 -0.17785969556E+02 -0.41861038009E+02 -0.48027009004E+03  0.49058321247E+03  0.89128232114E+02 0.  0.
          5    1    3    3  502    0 -0.19822313504E+00  0.76798852117E+02 -0.10369624833E+04  0.10398109286E+04  0.41800000000E+01 0.  1.
         -5    1    3    3    0  502  0.17984192691E+02 -0.34937814108E+02 -0.17327087987E+03  0.17771987016E+03  0.41800000000E+01 0.  1.
        -11    1    4    4    0    0  0.83709563135E+01 -0.63518740840E+02 -0.35786148759E+03  0.36355129988E+03  0.00000000000E+00 0.  1.
         11    1    4    4    0    0 -0.26156925870E+02  0.21657702831E+02 -0.12240860245E+03  0.12703191259E+03  0.00000000000E+00 0. -1.
</event>
<event>
 8    1  0.6760442E-009  0.7551422E+02  0.7561462E-02  0.1342286E+00
          1   -1    0    0  501    0  0.00000000000E+00  0.00000000000E+00  0.21469847682E+02  0.21469847682E+02  0.00000000000E+00 0. -1.
         -1   -1    0    0    0  501 -0.00000000000E+00 -0.00000000000E+00 -0.10899926063E+04  0.10899926063E+04  0.00000000000E+00 0.  1.
         25    2    1    2    0    0 -0.19904881000E+01  0.71772886984E+02 -0.86572738077E+03  0.87765972345E+03  0.12508949994E+03 0.  0.
         23    2    1    2    0    0  0.19904881000E+01 -0.71772886984E+02 -0.20279537787E+03  0.23380273056E+03  0.91555678042E+02 0.  0.
          5    1    3    3  502    0 -0.58422748436E+01  0.17940939531E+02 -0.74615503591E+03  0.74640526492E+03  0.41800000000E+01 0.  1.
         -5    1    3    3    0  502  0.38517867435E+01  0.53831947453E+02 -0.11957234486E+03  0.13125445852E+03  0.41800000000E+01 0.  1.
        -11    1    4    4    0    0  0.15594615483E+02 -0.33475558074E+02 -0.18632641715E+03  0.18995088509E+03  0.00000000000E+00 0.  1.
         11    1    4    4    0    0 -0.13604127383E+02 -0.38297328910E+02 -0.16468960725E+02  0.43851845467E+02  0.00000000000E+00 0. -1.
</event>
<event>
 8    1  0.6760442E-009  0.7318365E+02  0.7561462E-02  0.1349590E+00
          1   -1    0    0  501    0  0.00000000000E+00  0.00000000000E+00  0.58183339332E+02  0.58183339332E+02  0.00000000000E+00 0. -1.
         -1   -1    0    0    0  501 -0.00000000000E+00 -0.00000000000E+00 -0.26570832371E+03  0.26570832371E+03  0.00000000000E+00 0.  1.
         25    2    1    2    0    0 -0.34578010959E+02 -0.37944359214E+02 -0.16471183374E+03  0.21310490356E+03  0.12509315934E+03 0.  0.
         23    2    1    2    0    0  0.34578010959E+02  0.37944359214E+02 -0.42813150644E+02  0.11078675948E+03  0.88347761543E+02 0.  0.
          5    1    3    3  502    0  0.68914903190E+01  0.75926990805E+01 -0.14899215597E+03  0.14940306777E+03  0.41800000000E+01 0.  1.
         -5    1    3    3    0  502 -0.41469501278E+02 -0.45537058294E+02 -0.15719677762E+02  0.63701835792E+02  0.41800000000E+01 0.  1.
        -11    1    4    4    0    0  0.29232998129E+02  0.51373617772E+02  0.64383848331E+01  0.59458133017E+02  0.00000000000E+00 0. -1.
         11    1    4    4    0    0  0.53450128298E+01 -0.13429258558E+02 -0.49251535478E+02  0.51328626462E+02  0.00000000000E+00 0.  1.
</event>
<event>
 8    1  0.6760442E-009  0.1053372E+03  0.7561462E-02  0.1269457E+00
          2   -1    0    0  501    0  0.00000000000E+00  0.00000000000E+00  0.17666392181E+03  0.17666392181E+03  0.00000000000E+00 0. -1.
         -2   -1    0    0    0  501 -0.00000000000E+00 -0.00000000000E+00 -0.76715721546E+02  0.76715721546E+02  0.00000000000E+00 0.  1.
         25    2    1    2    0    0 -0.19202558239E+02 -0.34734897342E+02  0.52470348189E+02  0.14133614923E+03  0.12509004078E+03 0.  0.
         23    2    1    2    0    0  0.19202558239E+02  0.34734897342E+02  0.47477852079E+02  0.11204349413E+03  0.93404211914E+02 0.  0.
          5    1    3    3  502    0 -0.65735695926E+02 -0.45798876934E+01  0.17169958125E+01  0.66049811240E+02  0.41800000000E+01 0.  1.
         -5    1    3    3    0  502  0.46533137688E+02 -0.30155009648E+02  0.50753352377E+02  0.75286337987E+02  0.41800000000E+01 0.  1.
        -11    1    4    4    0    0 -0.30747864854E+02  0.57241025448E+01  0.44252884274E+02  0.54189614408E+02  0.00000000000E+00 0. -1.
         11    1    4    4    0    0  0.49950423093E+02  0.29010794797E+02  0.32249678046E+01  0.57853879725E+02  0.00000000000E+00 0.  1.
</event>
<event>
 8    1  0.6760442E-009  0.9487377E+02  0.7561462E-02  0.1291461E+00
         -2   -1    0    0    0  501 -0.00000000000E+00  0.00000000000E+00  0.16987482693E+02  0.16987482693E+02  0.00000000000E+00 0.  1.
          2   -1    0    0  501    0  0.00000000000E+00 -0.00000000000E+00 -0.79082391406E+03  0.79082391406E+03  0.00000000000E+00 0. -1.
         25    2    1    2    0    0  0.39823741698E+02  0.25315526480E+02 -0.41294556192E+03  0.43404957217E+03  0.12509271645E+03 0.  0.
         23    2    1    2    0    0 -0.39823741698E+02 -0.25315526480E+02 -0.36089086945E+03  0.37376182459E+03  0.85022794484E+02 0.  0.
          5    1    3    3  502    0 -0.23788352141E+02  0.13830875845E+02 -0.31739054096E+03  0.31860854777E+03  0.41800000000E+01 0.  1.
         -5    1    3    3    0  502  0.63612093839E+02  0.11484650636E+02 -0.95555020959E+02  0.11544102439E+03  0.41800000000E+01 0.  1.
        -11    1    4    4    0    0  0.22582760130E+02 -0.26377442745E+02 -0.12095461039E+03  0.12584024919E+03  0.00000000000E+00 0.  1.
         11    1    4    4    0    0 -0.62406501829E+02  0.10619162654E+01 -0.23993625906E+03  0.24792157540E+03  0.00000000000E+00 0. -1.
</event>
<event>
 8    1  0.6760442E-009  0.1114824E+03  0.7561462E-02  0.1257849E+00
          2   -1    0    0  501    0  0.00000000000E+00  0.00000000000E+00  0.11787784886E+03  0.11787784886E+03  0.00000000000E+00 0. -1.
         -2   -1    0    0    0  501 -0.00000000000E+00 -0.00000000000E+00 -0.12787205485E+03  0.12787205485E+03  0.00000000000E+00 0.  1.
         25    2    1    2    0    0 -0.19443646513E+02 -0.45904353311E+02 -0.23078460820E+02  0.13662392983E+03  0.12509283675E+03 0.  0.
         23    2    1    2    0    0  0.19443646513E+02  0.45904353311E+02  0.13084254827E+02  0.10912597387E+03  0.96187397340E+02 0.  0.
          5    1    3    3  502    0  0.48406409712E+02 -0.37953528838E+02 -0.28591320157E+02  0.67960185703E+02  0.41800000000E+01 0. -1.
         -5    1    3    3    0  502 -0.67850056225E+02 -0.79508244732E+01  0.55128593362E+01  0.68663744127E+02  0.41800000000E+01 0. -1.
        -11    1    4    4    0    0 -0.29679774129E+02  0.77656977393E+01 -0.21971993816E+02  0.37735441776E+02  0.00000000000E+00 0.  1.
         11    1    4    4    0    0  0.49123420642E+02  0.38138655572E+02  0.35056248643E+02  0.71390532099E+02  0.00000000000E+00 0. -1.
</event>
<event>
 8    1  0.6760442E-009  0.1038811E+03  0.7561462E-02  0.1272340E+00
         -2   -1    0    0    0  501 -0.00000000000E+00  0.00000000000E+00  0.53032545790E+02  0.53032545790E+02  0.00000000000E+00 0.  1.
          2   -1    0    0  501    0  0.00000000000E+00 -0.00000000000E+00 -0.28799875946E+03  0.28799875946E+03  0.00000000000E+00 0. -1.
         25    2    1    2    0    0 -0.11763723662E+02  0.17038601956E+02 -0.21219231125E+03  0.24718976155E+03  0.12509397312E+03 0.  0.
         23    2    1    2    0    0  0.11763723662E+02 -0.17038601956E+02 -0.22773902425E+02  0.93841543703E+02  0.88650355566E+02 0.  0.
          5    1    3    3  502    0 -0.64625213612E+02  0.29002074575E+02 -0.10116376849E+03  0.12356827675E+03  0.41800000000E+01 0.  1.
         -5    1    3    3    0  502  0.52861489950E+02 -0.11963472619E+02 -0.11102854275E+03  0.12362148480E+03  0.41800000000E+01 0.  1.
        -11    1    4    4    0    0 -0.10443013804E+02  0.29275457069E+02  0.10308037216E+02  0.32746977802E+02  0.00000000000E+00 0.  1.
         11    1    4    4    0    0  0.22206737466E+02 -0.46314059025E+02 -0.33081939640E+02  0.61094565901E+02  0.00000000000E+00 0. -1.
</event>
<event>
 8    1  0.6760442E-009  0.1021795E+03  0.7561462E-02  0.1275778E+00
         -1   -1    0    0    0  501 -0.00000000000E+00  0.00000000000E+00  0.94674363321E+02  0.94674363321E+02  0.00000000000E+00 0.  1.
          1   -1    0    0  501    0  0.00000000000E+00 -0.00000000000E+00 -0.25362152856E+03  0.25362152856E+03  0.00000000000E+00 0. -1.
         25    2    1    2    0    0  0.33613314589E+02 -0.11022150468E+02  0.31169827203E+02  0.13367725981E+03  0.12508680564E+03 0.  0.
         23    2    1    2    0    0 -0.33613314589E+02  0.11022150468E+02 -0.19011699245E+03  0.21461863207E+03  0.93087827871E+02 0.  0.
          5    1    3    3  502    0 -0.34964121792E+02  0.56250813047E+01 -0.24862681129E+02  0.43471331534E+02  0.41800000000E+01 0. -1.
         -5    1    3    3    0  502  0.68577436381E+02 -0.16647231772E+02  0.56032508333E+02  0.90205928277E+02  0.41800000000E+01 0. -1.
        -11    1    4    4    0    0 -0.63800905963E+02  0.19387304841E+02 -0.11049828174E+03  0.12905926335E+03  0.00000000000E+00 0.  1.
         11    1    4    4    0    0  0.30187591374E+02 -0.83651543732E+01 -0.79618710710E+02  0.85559368720E+02  0.00000000000E+00 0. -1.
</event>
<event>
 8    1  0.6760442E-009  0.1377226E+03  0.7561462E-02  0.1216427E+00
          3   -1    0    0  501    0  0.00000000000E+00  0.00000000000E+00  0.10839171592E+04  0.10839171592E+04  0.00000000000E+00 0. -1.
         -3   -1    0    0    0  501 -0.00000000000E+00 -0.00000000000E+00 -0.25210856929E+02  0.25210856929E+02  0.00000000000E+00 0.  1.
         25    2    1    2    0    0 -0.92256349543E+02  0.75164681421E+02  0.67436022031E+03  0.69610919460E+03  0.12508133639E+03 0.  0.
         23    2    1    2    0    0  0.92256349543E+02 -0.75164681421E+02  0.38434608200E+03  0.41301882156E+03  0.93282757525E+02 0.  0.
          5    1    3    3  502    0 -0.68106615428E+02  0.25155752097E+02  0.59342271659E+03  0.59786228841E+03  0.41800000000E+01 0. -1.
         -5    1    3    3    0  502 -0.24149734115E+02  0.50008929324E+02  0.80937503714E+02  0.98246906198E+02  0.41800000000E+01 0. -1.
        -11    1    4    4    0    0  0.17765141916E+02 -0.70155600338E+02  0.23752849594E+03  0.24830866862E+03  0.00000000000E+00 0. -1.
         11    1    4    4    0    0  0.74491207627E+02 -0.50090810827E+01  0.14681758605E+03  0.16471015294E+03  0.00000000000E+00 0.  1.
</event>
<event>
 7    1  0.6760442E-009  0.8567219E+02  0.7561462E-02  0.1313684E+00
         -2   -1    0    0    0  501 -0.00000000000E+00  0.00000000000E+00  0.12688579936E+03  0.12688579936E+03  0.00000000000E+00 0.  1.
          2   -1    0    0  501    0  0.00000000000E+00 -0.00000000000E+00 -0.14582573892E+03  0.14582573892E+03  0.00000000000E+00 0. -1.
         23    2    1    2    0    0  0.52268715026E+02  0.15642687752E+01 -0.72266498766E+02  0.12784300219E+03  0.91580133532E+02 0.  0.
          5    1    1    2  502    0 -0.64467724381E+02 -0.12511557847E+02 -0.20661883744E+02  0.68971098342E+02  0.41800000000E+01 0.  1.
         -5    1    1    2    0  502  0.12199009356E+02  0.10947289072E+02  0.73988442944E+02  0.75897437747E+02  0.41800000000E+01 0.  1.
        -11    1    3    3    0    0  0.31144271118E+02  0.36387493765E+02 -0.72761311244E+02  0.87110411203E+02  0.00000000000E+00 0. -1.
         11    1    3    3    0    0  0.21124443907E+02 -0.34823224990E+02  0.49481247761E+00  0.40732590987E+02  0.00000000000E+00 0.  1.
</event>
<event>
 8    1  0.6760442E-009  0.1566973E+03  0.7561462E-02  0.1192477E+00
         -1   -1    0    0    0  501 -0.00000000000E+00  0.00000000000E+00  0.55853188294E+03  0.55853188294E+03  0.00000000000E+00 0.  1.
          1   -1    0    0  501    0  0.00000000000E+00 -0.00000000000E+00 -0.67959825676E+02  0.67959825676E+02  0.00000000000E+00 0. -1.
         25    2    1    2    0    0 -0.89439814402E+02  0.72140283801E+02  0.44083074348E+03  0.47242288061E+03  0.12509169748E+03 0.  0.
         23    2    1    2    0    0  0.89439814402E+02 -0.72140283801E+02  0.49741313781E+02  0.15406882801E+03  0.89773629308E+02 0.  0.
          5    1    3    3  502    0  0.98884761306E+01  0.67399254361E+02  0.14410254073E+03  0.15944734583E+03  0.41800000000E+01 0.  1.
         -5    1    3    3    0  502 -0.99328290533E+02  0.47410294398E+01  0.29672820276E+03  0.31297553478E+03  0.41800000000E+01 0.  1.
        -11    1    4    4    0    0  0.86531733125E+02 -0.91560075144E+02  0.45756546930E+02  0.13403227143E+03  0.00000000000E+00 0.  1.
         11    1    4    4    0    0  0.29080812766E+01  0.19419791343E+02  0.39847668516E+01  0.20036556575E+02  0.00000000000E+00 0. -1.
</event>
<event>
 8    1  0.6760442E-009  0.9152868E+02  0.7561462E-02  0.1299191E+00
          2   -1    0    0  501    0  0.00000000000E+00  0.00000000000E+00  0.15314131649E+03  0.15314131649E+03  0.00000000000E+00 0. -1.
         -2   -1    0    0    0  501 -0.00000000000E+00 -0.00000000000E+00 -0.89719255203E+02  0.89719255203E+02  0.00000000000E+00 0.  1.
         25    2    1    2    0    0  0.20345393355E+01  0.45912514019E+01 -0.98911186076E+01  0.12558800989E+03  0.12509714249E+03 0.  0.
         23    2    1    2    0    0 -0.20345393355E+01 -0.45912514019E+01  0.73313179896E+02  0.11727256181E+03  0.91393722251E+02 0.  0.
          5    1    3    3  502    0  0.58748157082E+02 -0.49919059610E+00  0.18617780866E+02  0.61771266104E+02  0.41800000000E+01 0. -1.
         -5    1    3    3    0  502 -0.56713617746E+02  0.50904419980E+01 -0.28508899474E+02  0.63816743781E+02  0.41800000000E+01 0. -1.
        -11    1    4    4    0    0 -0.23773651381E+02  0.22223862676E+02 -0.38200935810E+01  0.32767051853E+02  0.00000000000E+00 0.  1.
         11    1    4    4    0    0  0.21739112045E+02 -0.26815114077E+02  0.77133273477E+02  0.84505509955E+02  0.00000000000E+00 0. -1.
</event>
<event>
 8    1  0.6760442E-009  0.1436752E+03  0.7561462E-02  0.1208468E+00
         -2   -1    0    0    0  501 -0.00000000000E+00  0.00000000000E+00  0.37012690264E+03  0.37012690264E+03  0.00000000000E+00 0.  1.
          2   -1    0    0  501    0  0.00000000000E+00 -0.00000000000E+00 -0.71106370979E+02  0.71106370979E+02  0.00000000000E+00 0. -1.
         25    2    1    2    0    0 -0.46341338304E+02  0.10846186042E+03  0.12825800748E+03  0.21449909267E+03  0.12509296332E+03 0.  0.
         23    2    1    2    0    0  0.46341338304E+02 -0.10846186042E+03  0.17076252418E+03  0.22673418095E+03  0.91307471462E+02 0.  0.
          5    1    3    3  502    0 -0.60223399934E+02  0.11213237990E+03  0.53283484552E+02  0.13804756661E+03  0.41800000000E+01 0.  1.
         -5    1    3    3    0  502  0.13882061630E+02 -0.36705194798E+01  0.74974522929E+02  0.76451526059E+02  0.41800000000E+01 0.  1.
        -11    1    4    4    0    0 -0.20719488531E+02 -0.56590870802E+02  0.45651912353E+02  0.75603709992E+02  0.00000000000E+00 0. -1.
         11    1    4    4    0    0  0.67060826836E+02 -0.51870989617E+02  0.12511061183E+03  0.15113047096E+03  0.00000000000E+00 0.  1.
</event>
<event>
 8    1  0.6760442E-009  0.1002359E+03  0.7561462E-02  0.1279801E+00
          2   -1    0    0  501    0  0.00000000000E+00  0.00000000000E+00  0.55244818281E+03  0.55244818281E+03  0.00000000000E+00 0. -1.
         -2   -1    0    0    0  501 -0.00000000000E+00 -0.00000000000E+00 -0.24995836691E+02  0.24995836691E+02  0.00000000000E+00 0.  1.
         25    2    1    2    0    0  0.27631200247E+00 -0.48502572640E+02  0.38865731813E+03  0.41116112685E+03  0.12508551235E+03 0.  0.
         23    2    1    2    0    0 -0.27631200247E+00  0.48502572640E+02  0.13879502799E+03  0.16628289265E+03  0.77674736504E+02 0.  0.
          5    1    3    3  502    0  0.56348880033E+02 -0.12136969499E+02  0.10653841478E+03  0.12120399554E+03  0.41800000000E+01 0. -1.
         -5    1    3    3    0  502 -0.56072568030E+02 -0.36365603141E+02  0.28211890335E+03  0.28995713132E+03  0.41800000000E+01 0. -1.
        -11    1    4    4    0    0 -0.90583701617E+01  0.60318002847E+02  0.58036617624E+02  0.84193613313E+02  0.00000000000E+00 0.  1.
         11    1    4    4    0    0  0.87820581592E+01 -0.11815430207E+02  0.80758410368E+02  0.82089279334E+02  0.00000000000E+00 0. -1.
</event>
<event>
 8    1  0.6760442E-009  0.9422273E+02  0.7561462E-02  0.1292936E+00
         -1   -1    0    0    0  501 -0.00000000000E+00  0.00000000000E+00  0.20669447917E+03  0.20669447917E+03  0.00000000000E+00 0.  1.
          1   -1    0    0  501    0  0.00000000000E+00 -0.00000000000E+00 -0.76119607272E+02  0.76119607272E+02  0.00000000000E+00 0. -1.
         25    2    1    2    0    0  0.61851527942E+02 -0.55746435075E+00  0.82453797382E+02  0.16208677792E+03  0.12509025781E+03 0.  0.
         23    2    1    2    0    0 -0.61851527942E+02  0.55746435075E+00  0.48121074519E+02  0.12072730852E+03  0.91834214403E+02 0.  0.
          5    1    3    3  502    0  0.49341918696E+02 -0.22870790931E+02  0.11090894011E+03  0.12359596844E+03  0.41800000000E+01 0. -1.
         -5    1    3    3    0  502  0.12509609246E+02  0.22313326580E+02 -0.28455142731E+02  0.38490809479E+02  0.41800000000E+01 0. -1.
        -11    1    4    4    0    0  0.14880602166E+02 -0.23281120431E+02  0.24628307003E+02  0.37013462351E+02  0.00000000000E+00 0.  1.
         11    1    4    4    0    0 -0.76732130108E+02  0.23838584782E+02  0.23492767515E+02  0.83713846172E+02  0.00000000000E+00 0. -1.
</event>
<event>
 8    1  0.6760442E-009  0.1472755E+03  0.7561462E-02  0.1203861E+00
         -1   -1    0    0    0  501 -0.00000000000E+00  0.00000000000E+00  0.29333715999E+02  0.29333715999E+02  0.00000000000E+00 0.  1.
          1   -1    0    0  501    0  0.00000000000E+00 -0.00000000000E+00 -0.81159350424E+03  0.81159350424E+03  0.00000000000E+00 0. -1.
         25    2    1    2    0    0  0.94209664436E+02 -0.53126016004E+02 -0.46137529053E+03  0.49011577952E+03  0.12509390142E+03 0.  0.
         23    2    1    2    0    0 -0.94209664436E+02  0.53126016004E+02 -0.32088449771E+03  0.35081144072E+03  0.91673178298E+02 0.  0.
          5    1    3    3  502    0 -0.17540626933E+02 -0.44111951266E+02 -0.20147919947E+03  0.20703834924E+03  0.41800000000E+01 0.  1.
         -5    1    3    3    0  502  0.11175029137E+03 -0.90140647374E+01 -0.25989609106E+03  0.28307743028E+03  0.41800000000E+01 0.  1.
        -11    1    4    4    0    0 -0.25190420342E+02 -0.21454282100E+02 -0.38859666096E+02  0.51038388949E+02  0.00000000000E+00 0.  1.
         11    1    4    4    0    0 -0.69019244094E+02  0.74580298104E+02 -0.28202483162E+03  0.29977305177E+03  0.00000000000E+00 0. -1.
</event>
<event>
 8    1  0.6760442E-009  0.1376148E+03  0.7561462E-02  0.1216575E+00
         -3   -1    0    0    0  501 -0.00000000000E+00  0.00000000000E+00  0.48841839673E+02  0.48841839673E+02  0.00000000000E+00 0.  1.
          3   -1    0    0  501    0  0.00000000000E+00 -0.00000000000E+00 -0.56313532599E+03  0.56313532599E+03  0.00000000000E+00 0. -1.
         25    2    1    2    0    0 -0.14640601454E+02  0.98608989430E+02 -0.13888268918E+03  0.21183495353E+03  0.12509023213E+03 0.  0.
         23    2    1    2    0    0  0.14640601454E+02 -0.98608989430E+02 -0.37541079713E+03  0.40014221213E+03  0.96137626973E+02 0.  0.
          5    1    3    3  502    0 -0.15884022950E+01  0.11522044852E+03 -0.59837570707E+02  0.12990874508E+03  0.41800000000E+01 0.  1.
         -5    1    3    3    0  502 -0.13052199159E+02 -0.16611459093E+02 -0.79045118474E+02  0.81926208448E+02  0.41800000000E+01 0.  1.
        -11    1    4    4    0    0 -0.27856225283E+02 -0.91059370922E+02 -0.25093843348E+03  0.26839872525E+03  0.00000000000E+00 0. -1.
         11    1    4    4    0    0  0.42496826737E+02 -0.75496185083E+01 -0.12447236365E+03  0.13174348688E+03  0.00000000000E+00 0.  1.
</event>
<event>
 8    1  0.6760442E-009  0.8480036E+02  0.7561462E-02  0.1315955E+00
         -2   -1    0    0    0  501 -0.00000000000E+00  0.00000000000E+00  0.74134173275E+02  0.74134173275E+02  0.00000000000E+00 0.  1.
          2   -1    0    0  501    0  0.00000000000E+00 -0.00000000000E+00 -0.22833028448E+03  0.22833028448E+03  0.00000000000E+00 0. -1.
         25    2    1    2    0    0 -0.40658107585E+02  0.39823969049E+02 -0.35503076260E+02  0.14195328220E+03  0.12510489871E+03 0.  0.
         23    2    1    2    0    0  0.40658107585E+02 -0.39823969049E+02 -0.11869303494E+03  0.16051117555E+03  0.91851895518E+02 0.  0.
          5    1    3    3  502    0  0.31452550226E+02  0.54187213762E+01  0.25725588684E+02  0.41205627895E+02  0.41800000000E+01 0.  1.
         -5    1    3    3    0  502 -0.72110657811E+02  0.34405247673E+02 -0.61228664943E+02  0.10074765431E+03  0.41800000000E+01 0.  1.
        -11    1    4    4    0    0  0.25066282195E+02 -0.29470325925E+02 -0.13199577080E+03  0.13754890811E+03  0.00000000000E+00 0. -1.
         11    1    4    4    0    0  0.15591825390E+02 -0.10353643124E+02  0.13302735856E+02  0.22962267444E+02  0.00000000000E+00 0.  1.
</event>
<event>
 8    1  0.6760442E-009  0.9247252E+02  0.7561462E-02  0.1296972E+00
         -2   -1    0    0    0  501 -0.00000000000E+00  0.00000000000E+00  0.14062313293E+03  0.14062313293E+03  0.00000000000E+00 0.  1.
          2   -1    0    0  501    0  0.00000000000E+00 -0.00000000000E+00 -0.11624157125E+03  0.11624157125E+03  0.00000000000E+00 0. -1.
         25    2    1    2    0    0 -0.38501033334E+02  0.35557018676E+02  0.55389815997E+02  0.14649918293E+03  0.12508935902E+03 0.  0.
         23    2    1    2    0    0  0.38501033334E+02 -0.35557018676E+02 -0.31008254314E+02  0.11036552125E+03  0.92045669639E+02 0.  0.
          5    1    3    3  502    0 -0.48202898207E+02 -0.28773504912E+02 -0.64268039943E+01  0.56658716805E+02  0.41800000000E+01 0.  1.
         -5    1    3    3    0  502  0.97018648730E+01  0.64330523587E+02  0.61816619991E+02  0.89840466128E+02  0.41800000000E+01 0.  1.
        -11    1    4    4    0    0  0.39349688461E+02 -0.13819567800E+02  0.26137368318E+02  0.49219309816E+02  0.00000000000E+00 0.  1.
         11    1    4    4    0    0 -0.84865512723E+00 -0.21737450876E+02 -0.57145622633E+02  0.61146211430E+02  0.00000000000E+00 0. -1.
</event>
<event>
 8    1  0.6760442E-009  0.1416867E+03  0.7561462E-02  0.1211077E+00
          2   -1    0    0  501    0  0.00000000000E+00  0.00000000000E+00  0.83989169859E+02  0.83989169859E+02  0.00000000000E+00 0. -1.
         -2   -1    0    0    0  501 -0.00000000000E+00 -0.00000000000E+00 -0.27267692094E+03  0.27267692094E+03  0.00000000000E+00 0.  1.
         25    2    1    2    0    0 -0.78798391547E+02 -0.57577950846E+02 -0.54892301221E+02  0.16788424550E+03  0.12509016037E+03 0.  0.
         23    2    1    2    0    0  0.78798391547E+02  0.57577950846E+02 -0.13379544986E+03  0.18878184529E+03  0.90625359451E+02 0.  0.
          5    1    3    3  502    0  0.32314751403E+02 -0.15362263818E+00 -0.41652912111E+01  0.32849487196E+02  0.41800000000E+01 0. -1.
         -5    1    3    3    0  502 -0.11111314295E+03 -0.57424328208E+02 -0.50727010010E+02  0.13503475831E+03  0.41800000000E+01 0. -1.
        -11    1    4    4    0    0  0.88687988594E+01  0.54954802627E+02 -0.91237237117E+02  0.10687805837E+03  0.00000000000E+00 0.  1.
         11    1    4    4    0    0  0.69929592688E+02  0.26231482194E+01 -0.42558212739E+02  0.81903786919E+02  0.00000000000E+00 0. -1.
</event>
<event>
 8    1  0.6760442E-009  0.1281398E+03  0.7561462E-02  0.1230242E+00
         -2   -1    0    0    0  501 -0.00000000000E+00  0.00000000000E+00  0.83084105744E+02  0.83084105744E+02  0.00000000000E+00 0. -1.
          2   -1    0    0  501    0  0.00000000000E+00 -0.00000000000E+00 -0.22246972247E+03  0.22246972247E+03  0.00000000000E+00 0.  1.
         25    2    1    2    0    0 -0.49179973080E+02 -0.66573119029E+02 -0.11168797135E+03  0.18700907268E+03  0.12509012908E+03 0.  0.
         23    2    1    2    0    0  0.49179973080E+02  0.66573119029E+02 -0.27697645383E+02  0.11854475554E+03  0.80218760748E+02 0.  0.
          5    1    3    3  502    0  0.37517654645E+02 -0.44157201779E+02 -0.28485809201E+02  0.64701983005E+02  0.41800000000E+01 0. -1.
         -5    1    3    3    0  502 -0.86697627725E+02 -0.22415917250E+02 -0.83202162146E+02  0.12230708968E+03  0.41800000000E+01 0. -1.
        -11    1    4    4    0    0  0.51508091558E+02  0.10687266083E+02 -0.33412396108E+02  0.62319253573E+02  0.00000000000E+00 0.  1.
         11    1    4    4    0    0 -0.23281184773E+01  0.55885852946E+02  0.57147507251E+01  0.56225501963E+02  0.00000000000E+00 0. -1.
</event>
<event>
 8    1  0.6760442E-009  0.9112697E+02  0.7561462E-02  0.1300145E+00
         -3   -1    0    0    0  501 -0.00000000000E+00  0.00000000000E+00  0.16165777039E+03  0.16165777039E+03  0.00000000000E+00 0.  1.
          3   -1    0    0  501    0  0.00000000000E+00 -0.00000000000E+00 -0.12081391831E+03  0.12081391831E+03  0.00000000000E+00 0. -1.
         25    2    1    2    0    0  0.36933136199E+02 -0.66732612506E+02  0.66687225337E+02  0.16095178750E+03  0.12506395866E+03 0.  0.
         23    2    1    2    0    0 -0.36933136199E+02  0.66732612506E+02 -0.25843373253E+02  0.12151990120E+03  0.91004990662E+02 0.  0.
          5    1    3    3  502    0  0.36821972453E+02 -0.73866208013E+02  0.98214933020E+02  0.12835778048E+03  0.41800000000E+01 0.  1.
         -5    1    3    3    0  502  0.11116374596E+00  0.71335955066E+01 -0.31527707682E+02  0.32594007025E+02  0.41800000000E+01 0.  1.
        -11    1    4    4    0    0  0.12623211850E+02  0.16573593342E+02 -0.44022619617E+02  0.48703393224E+02  0.00000000000E+00 0. -1.
         11    1    4    4    0    0 -0.49556348050E+02  0.50159019165E+02  0.18179246364E+02  0.72816507977E+02  0.00000000000E+00 0.  1.
</event>
<event>
 7    1  0.6760442E-009  0.1589425E+03  0.7561462E-02  0.1189896E+00
         -2   -1    0    0    0  501 -0.00000000000E+00  0.00000000000E+00  0.12126863527E+03  0.12126863527E+03  0.00000000000E+00 0.  1.
          2   -1    0    0  501    0  0.00000000000E+00 -0.00000000000E+00 -0.40605332283E+03  0.40605332283E+03  0.00000000000E+00 0. -1.
         23    2    1    2    0    0 -0.14533634142E+03  0.12744970445E+02  0.13122092447E+02  0.17277895635E+03  0.91625826263E+02 0.  0.
          5    1    1    2  502    0  0.66393535440E+02  0.31474538278E+02 -0.22956478221E+03  0.24107303819E+03  0.41800000000E+01 0. -1.
         -5    1    1    2    0  502  0.78942805979E+02 -0.44219508723E+02 -0.68341997797E+02  0.11346996356E+03  0.41800000000E+01 0. -1.
        -11    1    3    3    0    0 -0.39273703554E+02 -0.18112793546E+02  0.40201346780E+02  0.59047822685E+02  0.00000000000E+00 0.  1.
         11    1    3    3    0    0 -0.10606263786E+03  0.30857763992E+02 -0.27079254333E+02  0.11373113366E+03  0.00000000000E+00 0. -1.
</event>
<event>
 8    1  0.6760442E-009  0.2173629E+03  0.7561462E-02  0.1135864E+00
          2   -1    0    0  501    0  0.00000000000E+00  0.00000000000E+00  0.14312083750E+04  0.14312083750E+04  0.00000000000E+00 0. -1.
         -2   -1    0    0    0  501 -0.00000000000E+00 -0.00000000000E+00 -0.40386191517E+02  0.40386191517E+02  0.00000000000E+00 0.  1.
         25    2    1    2    0    0 -0.18545158415E+03 -0.10606512258E+03  0.68208025196E+03  0.72561748639E+03  0.12508063860E+03 0.  0.
         23    2    1    2    0    0  0.18545158415E+03  0.10606512258E+03  0.70874193152E+03  0.74597708012E+03  0.92328642799E+02 0.  0.
          5    1    3    3  502    0 -0.14573364244E+03 -0.55918628279E+02  0.30008572756E+03  0.33828110176E+03  0.41800000000E+01 0. -1.
         -5    1    3    3    0  502 -0.39717941713E+02 -0.50146494304E+02  0.38199452440E+03  0.38733638463E+03  0.41800000000E+01 0. -1.
        -11    1    4    4    0    0  0.13465017974E+03  0.67082142931E+02  0.61010067394E+03  0.62837370819E+03  0.00000000000E+00 0. -1.
         11    1    4    4    0    0  0.50801404412E+02  0.38982979652E+02  0.98641257585E+02  0.11760337194E+03  0.00000000000E+00 0.  1.
</event>
<event>
 8    1  0.6760442E-009  0.1293615E+03  0.7561462E-02  0.1228406E+00
         -2   -1    0    0    0  501 -0.00000000000E+00  0.00000000000E+00  0.19914265879E+02  0.19914265879E+02  0.00000000000E+00 0.  1.
          2   -1    0    0  501    0  0.00000000000E+00 -0.00000000000E+00 -0.97072351195E+03  0.97072351195E+03  0.00000000000E+00 0. -1.
         25    2    1    2    0    0 -0.43501153029E+02  0.60737684756E+02 -0.36100739241E+03  0.38930116777E+03  0.12509054796E+03 0.  0.
         23    2    1    2    0    0  0.43501153029E+02 -0.60737684756E+02 -0.58980185366E+03  0.60133661006E+03  0.90322064579E+02 0.  0.
          5    1    3    3  502    0 -0.84933493931E+02  0.29037882066E+02 -0.18483831989E+03  0.20552268460E+03  0.41800000000E+01 0. -1.
         -5    1    3    3    0  502  0.41432340902E+02  0.31699802689E+02 -0.17616907251E+03  0.18377848316E+03  0.41800000000E+01 0. -1.
        -11    1    4    4    0    0 -0.27767540161E+02 -0.12368417297E+02 -0.12693503024E+03  0.13052400520E+03  0.00000000000E+00 0.  1.
         11    1    4    4    0    0  0.71268693190E+02 -0.48369267459E+02 -0.46286682342E+03  0.47081260486E+03  0.00000000000E+00 0. -1.
</event>
<event>
 8    1  0.6760442E-009  0.1141187E+03  0.7561462E-02  0.1253127E+00
          2   -1    0    0  501    0  0.00000000000E+00  0.00000000000E+00  0.10388589765E+04  0.10388589765E+04  0.00000000000E+00 0. -1.
         -2   -1    0    0    0  501 -0.00000000000E+00 -0.00000000000E+00 -0.16104579155E+02  0.16104579155E+02  0.00000000000E+00 0.  1.
         25    2    1    2    0    0 -0.28522801895E+02 -0.61849317896E+02  0.64636371312E+03  0.66187049347E+03  0.12509041583E+03 0.  0.
         23    2    1    2    0    0  0.28522801895E+02  0.61849317896E+02  0.37639068421E+03  0.39309306217E+03  0.90627369018E+02 0.  0.
          5    1    3    3  502    0 -0.30635919765E+02  0.23971903510E+02  0.37940723678E+03  0.38141910736E+03  0.41800000000E+01 0.  1.
         -5    1    3    3    0  502  0.21131178696E+01 -0.85821221406E+02  0.26695647634E+03  0.28045138611E+03  0.41800000000E+01 0.  1.
        -11    1    4    4    0    0 -0.23760624376E+02  0.39945847343E+02  0.91616255940E+02  0.10273157423E+03  0.00000000000E+00 0.  1.
         11    1    4    4    0    0  0.52283426271E+02  0.21903470553E+02  0.28477442827E+03  0.29036148794E+03  0.00000000000E+00 0. -1.
</event>
<event>
 8    1  0.6760442E-009  0.1096632E+03  0.7561462E-02  0.1261195E+00
         -1   -1    0    0    0  501 -0.00000000000E+00  0.00000000000E+00  0.28644371351E+02  0.28644371351E+02  0.00000000000E+00 0.  1.
          1   -1    0    0  501    0  0.00000000000E+00 -0.00000000000E+00 -0.67160821038E+03  0.67160821038E+03  0.00000000000E+00 0. -1.
         25    2    1    2    0    0  0.74657115813E+02  0.44817555283E+02 -0.35483496376E+03  0.38618385458E+03  0.12509124602E+03 0.  0.
         23    2    1    2    0    0 -0.74657115813E+02 -0.44817555283E+02 -0.28812887527E+03  0.31406872715E+03  0.89658342648E+02 0.  0.
          5    1    3    3  502    0 -0.22263918693E+02 -0.15187648047E+01 -0.96948106749E+01  0.24687050778E+02  0.41800000000E+01 0. -1.
         -5    1    3    3    0  502  0.96921034505E+02  0.46336320087E+02 -0.34514015308E+03  0.36149680380E+03  0.41800000000E+01 0. -1.
        -11    1    4    4    0    0 -0.34267767956E+02 -0.31607496265E+02 -0.25750040148E+03  0.26168639724E+03  0.00000000000E+00 0. -1.
         11    1    4    4    0    0 -0.40389347857E+02 -0.13210059018E+02 -0.30628473789E+02  0.52382329904E+02  0.00000000000E+00 0.  1.
</event>
<event>
 8    1  0.6760442E-009  0.1378747E+03  0.7561462E-02  0.1216218E+00
          2   -1    0    0  501    0  0.00000000000E+00  0.00000000000E+00  0.33793782441E+03  0.33793782441E+03  0.00000000000E+00 0. -1.
         -2   -1    0    0    0  501 -0.00000000000E+00 -0.00000000000E+00 -0.98102273602E+02  0.98102273602E+02  0.00000000000E+00 0.  1.
         25    2    1    2    0    0  0.58212494825E+02  0.92229694282E+02  0.23958718047E+03  0.29145237048E+03  0.12508979236E+03 0.  0.
         23    2    1    2    0    0 -0.58212494825E+02 -0.92229694282E+02  0.24837033989E+00  0.14458772753E+03  0.94923854767E+02 0.  0.
          5    1    3    3  502    0  0.67672592075E+02  0.40253009022E+02  0.22204364150E+03  0.23562838450E+03  0.41800000000E+01 0.  1.
         -5    1    3    3    0  502 -0.94600972491E+01  0.51976685260E+02  0.17543538966E+02  0.55823985974E+02  0.41800000000E+01 0.  1.
        -11    1    4    4    0    0 -0.75365705783E+02 -0.99878083457E+02  0.49738465107E+01  0.12522124545E+03  0.00000000000E+00 0.  1.
         11    1    4    4    0    0  0.17153210958E+02  0.76483891749E+01 -0.47254761708E+01  0.19366482080E+02  0.00000000000E+00 0. -1.
</event>
<event>
 8    1  0.6760442E-009  0.2305184E+03  0.7561462E-02  0.1126275E+00
          1   -1    0    0  501    0  0.00000000000E+00  0.00000000000E+00  0.15475774094E+03  0.15475774094E+03  0.00000000000E+00 0. -1.
         -1   -1    0    0    0  501 -0.00000000000E+00 -0.00000000000E+00 -0.35407402896E+03  0.35407402896E+03  0.00000000000E+00 0.  1.
         25    2    1    2    0    0 -0.17668117734E+03  0.10756823699E+03 -0.10831042378E+03  0.26488904755E+03  0.12509154879E+03 0.  0.
         23    2    1    2    0    0  0.17668117734E+03 -0.10756823699E+03 -0.91005864243E+02  0.24394272235E+03  0.91863052571E+02 0.  0.
          5    1    3    3  502    0 -0.61163510514E+02  0.10368566897E+03 -0.83594370900E+02  0.14661918092E+03  0.41800000000E+01 0. -1.
         -5    1    3    3    0  502 -0.11551766682E+03  0.38825680199E+01 -0.24716052876E+02  0.11826986663E+03  0.41800000000E+01 0. -1.
        -11    1    4    4    0    0  0.74121494284E+02 -0.96628498216E+02 -0.35693251424E+02  0.12690575550E+03  0.00000000000E+00 0.  1.
         11    1    4    4    0    0  0.10255968305E+03 -0.10939738772E+02 -0.55312612820E+02  0.11703696685E+03  0.00000000000E+00 0. -1.
</event>
<event>
 8    1  0.6760442E-009  0.1039464E+03  0.7561462E-02  0.1272209E+00
          1   -1    0    0  501    0  0.00000000000E+00  0.00000000000E+00  0.20422374075E+03  0.20422374075E+03  0.00000000000E+00 0. -1.
         -1   -1    0    0    0  501 -0.00000000000E+00 -0.00000000000E+00 -0.94689100491E+02  0.94689100491E+02  0.00000000000E+00 0.  1.
         25    2    1    2    0    0  0.47453743467E+02  0.58439647702E+02  0.47974951971E+02  0.15367609175E+03  0.12509074692E+03 0.  0.
         23    2    1    2    0    0 -0.47453743467E+02 -0.58439647702E+02  0.61559688288E+02  0.14523674949E+03  0.10787524271E+03 0.  0.
          5    1    3    3  502    0  0.30473898657E+02  0.17712033616E+02  0.87414881462E+02  0.94346216327E+02  0.41800000000E+01 0. -1.
         -5    1    3    3    0  502  0.16979844810E+02  0.40727614086E+02 -0.39439929491E+02  0.59329875419E+02  0.41800000000E+01 0. -1.
        -11    1    4    4    0    0 -0.80165604416E+02 -0.33243886227E+02  0.56690103711E+02  0.10366025256E+03  0.00000000000E+00 0. -1.
         11    1    4    4    0    0  0.32711860949E+02 -0.25195761475E+02  0.48695845771E+01  0.41576496931E+02  0.00000000000E+00 0.  1.
</event>
<event>
 8    1  0.6760442E-009  0.3982074E+03  0.7561462E-02  0.1044402E+00
         -1   -1    0    0    0  501 -0.00000000000E+00  0.00000000000E+00  0.19978762937E+03  0.19978762937E+03  0.00000000000E+00 0.  1.
          1   -1    0    0  501    0  0.00000000000E+00 -0.00000000000E+00 -0.92933154956E+03  0.92933154956E+03  0.00000000000E+00 0. -1.
         25    2    1    2    0    0 -0.39132978850E+03 -0.10172237446E+02 -0.17960358093E+03  0.44849405112E+03  0.12508792839E+03 0.  0.
         23    2    1    2    0    0  0.39132978850E+03  0.10172237446E+02 -0.54994033926E+03  0.68062512781E+03  0.87027065189E+02 0.  0.
          5    1    3    3  502    0 -0.38480351316E+03  0.81523038696E+01 -0.15060741146E+03  0.41332828186E+03  0.41800000000E+01 0. -1.
         -5    1    3    3    0  502 -0.65262753425E+01 -0.18324541315E+02 -0.28996169466E+02  0.35165769265E+02  0.41800000000E+01 0. -1.
        -11    1    4    4    0    0  0.19800312054E+03 -0.16836119701E+00 -0.35121217759E+03  0.40318142043E+03  0.00000000000E+00 0.  1.
         11    1    4    4    0    0  0.19332666796E+03  0.10340598643E+02 -0.19872816167E+03  0.27744370738E+03  0.00000000000E+00 0. -1.
</event>
<event>
 8    1  0.6760442E-009  0.7901595E+02  0.7561462E-02  0.1331867E+00
         -2   -1    0    0    0  501 -0.00000000000E+00  0.00000000000E+00  0.14677925594E+03  0.14677925594E+03  0.00000000000E+00 0.  1.
          2   -1    0    0  501    0  0.00000000000E+00 -0.00000000000E+00 -0.96138220106E+02  0.96138220106E+02  0.00000000000E+00 0. -1.
         25    2    1    2    0    0  0.22992662398E+01  0.49117981596E+02  0.46045867570E+02  0.14207316414E+03  0.12508676712E+03 0.  0.
         23    2    1    2    0    0 -0.22992662398E+01 -0.49117981596E+02  0.45951682647E+01  0.10084431190E+03  0.87923813217E+02 0.  0.
          5    1    3    3  502    0  0.26136550126E+02 -0.17610120283E+02 -0.25899896004E+02  0.41006250765E+02  0.41800000000E+01 0. -1.
         -5    1    3    3    0  502 -0.23837283886E+02  0.66728101879E+02  0.71945763574E+02  0.10106691338E+03  0.41800000000E+01 0. -1.
        -11    1    4    4    0    0 -0.10955852804E+02 -0.43687144885E+02  0.42294011884E+02  0.61784955937E+02  0.00000000000E+00 0.  1.
         11    1    4    4    0    0  0.86565865644E+01 -0.54308367110E+01 -0.37698843619E+02  0.39059355967E+02  0.00000000000E+00 0. -1.
</event>
<event>
 8    1  0.6760442E-009  0.1682104E+03  0.7561462E-02  0.1179727E+00
         -1   -1    0    0    0  501 -0.00000000000E+00  0.00000000000E+00  0.28323676586E+03  0.28323676586E+03  0.00000000000E+00 0.  1.
          1   -1    0    0  501    0  0.00000000000E+00 -0.00000000000E+00 -0.10649389033E+03  0.10649389033E+03  0.00000000000E+00 0. -1.
         25    2    1    2    0    0 -0.35082857844E+02 -0.13045462839E+03  0.84034537155E+02  0.20239244472E+03  0.12510667953E+03 0.  0.
         23    2    1    2    0    0  0.35082857844E+02  0.13045462839E+03  0.92708338372E+02  0.18733821147E+03  0.90838056391E+02 0.  0.
          5    1    3    3  502    0  0.44253815811E+02 -0.64471879060E+02  0.52988123837E+02  0.94552826881E+02  0.41800000000E+01 0.  1.
         -5    1    3    3    0  502 -0.79336673655E+02 -0.65982749331E+02  0.31046413318E+02  0.10783961784E+03  0.41800000000E+01 0.  1.
        -11    1    4    4    0    0  0.38702347997E+02  0.18628894864E+02  0.14846307935E+01  0.42978036169E+02  0.00000000000E+00 0. -1.
         11    1    4    4    0    0 -0.36194901529E+01  0.11182573353E+03  0.91223707579E+02  0.14436017530E+03  0.00000000000E+00 0.  1.
</event>
<event>
 8    1  0.6760442E-009  0.3958611E+03  0.7561462E-02  0.1045222E+00
         -1   -1    0    0    0  501 -0.00000000000E+00  0.00000000000E+00  0.14859969117E+03  0.14859969117E+03  0.00000000000E+00 0.  1.
          1   -1    0    0  501    0  0.00000000000E+00 -0.00000000000E+00 -0.10822411669E+04  0.10822411669E+04  0.00000000000E+00 0. -1.
         25    2    1    2    0    0 -0.14424381741E+03 -0.35546014724E+03 -0.41198473837E+03  0.57666077586E+03  0.12509208859E+03 0.  0.
         23    2    1    2    0    0  0.14424381741E+03  0.35546014724E+03 -0.52165673738E+03  0.65418008223E+03  0.93100124571E+02 0.  0.
          5    1    3    3  502    0  0.85993797149E+01  0.14575743183E+01  0.10977704242E+01  0.97340307313E+01  0.41800000000E+01 0. -1.
         -5    1    3    3    0  502 -0.15284319713E+03 -0.35691772156E+03 -0.41308250880E+03  0.56692674513E+03  0.41800000000E+01 0. -1.
        -11    1    4    4    0    0  0.12265053200E+01  0.10753992861E+03 -0.16368247080E+03  0.19585272990E+03  0.00000000000E+00 0. -1.
         11    1    4    4    0    0  0.14301731209E+03  0.24792021863E+03 -0.35797426658E+03  0.45832735233E+03  0.00000000000E+00 0.  1.
</event>
<event>
 8    1  0.6760442E-009  0.1160252E+03  0.7561462E-02  0.1249802E+00
         -2   -1    0    0    0  501 -0.00000000000E+00  0.00000000000E+00  0.26651518708E+02  0.26651518708E+02  0.00000000000E+00 0.  1.
          2   -1    0    0  501    0  0.00000000000E+00 -0.00000000000E+00 -0.70647246125E+03  0.70647246125E+03  0.00000000000E+00 0. -1.
         25    2    1    2    0    0  0.61257259815E+00 -0.84333453646E+02 -0.39091711422E+03  0.41901831337E+03  0.12509056759E+03 0.  0.
         23    2    1    2    0    0 -0.61257259815E+00  0.84333453646E+02 -0.28890382832E+03  0.31410566658E+03  0.89913520200E+02 0.  0.
          5    1    3    3  502    0  0.18601237173E+02 -0.88301976683E+02 -0.38976157327E+03  0.40009349096E+03  0.41800000000E+01 0. -1.
         -5    1    3    3    0  502 -0.17988664575E+02  0.39685230369E+01 -0.11555409477E+01  0.18924822407E+02  0.41800000000E+01 0. -1.
        -11    1    4    4    0    0 -0.22649401137E+02 -0.10856325010E+02 -0.48846327627E+02  0.54925575894E+02  0.00000000000E+00 0.  1.
         11    1    4    4    0    0  0.22036828538E+02  0.95189778657E+02 -0.24005750069E+03  0.25918009069E+03  0.00000000000E+00 0. -1.
</event>
<event>
 8    1  0.6760442E-009  0.1174749E+03  0.7561462E-02  0.1247322E+00
         -1   -1    0    0    0  501 -0.00000000000E+00  0.00000000000E+00  0.84134766852E+02  0.84134766852E+02  0.00000000000E+00 0.  1.
          1   -1    0    0  501    0  0.00000000000E+00 -0.00000000000E+00 -0.17675004096E+03  0.17675004096E+03  0.00000000000E+00 0. -1.
         25    2    1    2    0    0  0.41020214746E+02  0.37334357626E+02 -0.55768458560E+02  0.14776259861E+03  0.12508857782E+03 0.  0.
         23    2    1    2    0    0 -0.41020214746E+02 -0.37334357626E+02 -0.36846815549E+02  0.11312220920E+03  0.91446345584E+02 0.  0.
          5    1    3    3  502    0 -0.26355725220E+02 -0.28586157767E+02 -0.19830026067E+01  0.39156064244E+02  0.41800000000E+01 0. -1.
         -5    1    3    3    0  502  0.67375939966E+02  0.65920515393E+02 -0.53785455953E+02  0.10860653437E+03  0.41800000000E+01 0. -1.
        -11    1    4    4    0    0 -0.52827088051E+02 -0.57525081064E+02 -0.42699355500E+02  0.89011634877E+02  0.00000000000E+00 0.  1.
         11    1    4    4    0    0  0.11806873306E+02  0.20190723438E+02  0.58525399513E+01  0.24110574321E+02  0.00000000000E+00 0. -1.
</event>
<event>
 8    1  0.6760442E-009  0.1362439E+03  0.7561462E-02  0.1218474E+00
          2   -1    0    0  501    0  0.00000000000E+00  0.00000000000E+00  0.63739520207E+03  0.63739520207E+03  0.00000000000E+00 0. -1.
         -2   -1    0    0    0  501 -0.00000000000E+00 -0.00000000000E+00 -0.31428478544E+02  0.31428478544E+02  0.00000000000E+00 0.  1.
         25    2    1    2    0    0 -0.40260776753E+02  0.81772934834E+02  0.33251248536E+03  0.36676745028E+03  0.12508423821E+03 0.  0.
         23    2    1    2    0    0  0.40260776753E+02 -0.81772934834E+02  0.27345423816E+03  0.30205623033E+03  0.90293980405E+02 0.  0.
          5    1    3    3  502    0 -0.84545416659E+02  0.56692795699E+02  0.19367122569E+03  0.21883330785E+03  0.41800000000E+01 0. -1.
         -5    1    3    3    0  502  0.44284639907E+02  0.25080139135E+02  0.13884125967E+03  0.14793414243E+03  0.41800000000E+01 0. -1.
        -11    1    4    4    0    0  0.35151972547E+02 -0.97163678873E+02  0.18296391296E+03  0.21012433251E+03  0.00000000000E+00 0.  1.
         11    1    4    4    0    0  0.51088042058E+01  0.15390744039E+02  0.90490325198E+02  0.91931897821E+02  0.00000000000E+00 0. -1.
</event>
<event>
 8    1  0.6760442E-009  0.3995772E+03  0.7561462E-02  0.1043926E+00
         -1   -1    0    0    0  501 -0.00000000000E+00  0.00000000000E+00  0.85160981516E+03  0.85160981516E+03  0.00000000000E+00 0.  1.
          1   -1    0    0  501    0  0.00000000000E+00 -0.00000000000E+00 -0.22613224912E+03  0.22613224912E+03  0.00000000000E+00 0. -1.
         25    2    1    2    0    0  0.25867961557E+03  0.29658322258E+03  0.51202466178E+03  0.65779773909E+03  0.12510739328E+03 0.  0.
         23    2    1    2    0    0 -0.25867961557E+03 -0.29658322258E+03  0.11345290425E+03  0.41994432519E+03  0.92762726057E+02 0.  0.
          5    1    3    3  502    0  0.26700286527E+03  0.28878079063E+03  0.46407246417E+03  0.60833017310E+03  0.41800000000E+01 0. -1.
         -5    1    3    3    0  502 -0.83232496938E+01  0.78024319446E+01  0.47952197611E+02  0.49467565994E+02  0.41800000000E+01 0. -1.
        -11    1    4    4    0    0 -0.11618660024E+03 -0.14112599877E+03  0.10064187422E+03  0.20867357392E+03  0.00000000000E+00 0.  1.
         11    1    4    4    0    0 -0.14249301533E+03 -0.15545722381E+03  0.12811030036E+02  0.21127075127E+03  0.00000000000E+00 0. -1.
</event>
<event>
 8    1  0.6760442E-009  0.8339671E+02  0.7561462E-02  0.1319679E+00
         -1   -1    0    0    0  501 -0.00000000000E+00  0.00000000000E+00  0.57007328067E+02  0.57007328067E+02  0.00000000000E+00 0.  1.
          1   -1    0    0  501    0  0.00000000000E+00 -0.00000000000E+00 -0.24746568357E+03  0.24746568357E+03  0.00000000000E+00 0. -1.
         25    2    1    2    0    0 -0.46781306958E+02 -0.16893376004E+01 -0.11596273245E+03  0.17688030328E+03  0.12509173366E+03 0.  0.
         23    2    1    2    0    0  0.46781306958E+02  0.16893376004E+01 -0.74495623062E+02  0.12759270836E+03  0.92406476119E+02 0.  0.
          5    1    3    3  502    0  0.23617309328E+01  0.42456798611E+02 -0.10006554282E+03  0.10880598688E+03  0.41800000000E+01 0.  1.
         -5    1    3    3    0  502 -0.49143037890E+02 -0.44146136211E+02 -0.15897189625E+02  0.68074316401E+02  0.41800000000E+01 0.  1.
        -11    1    4    4    0    0  0.63425316464E+01  0.14193434627E+02 -0.82979325807E+02  0.84423040727E+02  0.00000000000E+00 0. -1.
         11    1    4    4    0    0  0.40438775311E+02 -0.12504097027E+02  0.84837027457E+01  0.43169667631E+02  0.00000000000E+00 0.  1.
</event>
<event>
 8    1  0.6760442E-009  0.1103726E+03  0.7561462E-02  0.1259881E+00
         -1   -1    0    0    0  501 -0.00000000000E+00  0.00000000000E+00  0.59324006469E+03  0.59324006469E+03  0.00000000000E+00 0.  1.
          1   -1    0    0  501    0  0.00000000000E+00 -0.00000000000E+00 -0.34894544427E+02  0.34894544427E+02  0.00000000000E+00 0. -1.
         25    2    1    2    0    0  0.70931820086E+02 -0.58137612878E+02  0.25770296164E+03  0.30078174563E+03  0.12509011526E+03 0.  0.
         23    2    1    2    0    0 -0.70931820086E+02  0.58137612878E+02  0.30064255862E+03  0.32735286348E+03  0.91447493380E+02 0.  0.
          5    1    3    3  502    0  0.44337793362E+02 -0.23314281026E+02  0.25132928867E+03  0.25630700217E+03  0.41800000000E+01 0. -1.
         -5    1    3    3    0  502  0.26594026725E+02 -0.34823331853E+02  0.63736729751E+01  0.44474743461E+02  0.41800000000E+01 0. -1.
        -11    1    4    4    0    0  0.89094547309E+01  0.44599522429E+02  0.76115043450E+02  0.88667895114E+02  0.00000000000E+00 0. -1.
         11    1    4    4    0    0 -0.79841274817E+02  0.13538090450E+02  0.22452751517E+03  0.23868496837E+03  0.00000000000E+00 0.  1.
</event>
<event>
 8    1  0.6760442E-009  0.1156102E+03  0.7561462E-02  0.1250520E+00
          2   -1    0    0  501    0  0.00000000000E+00  0.00000000000E+00  0.75250344732E+03  0.75250344732E+03  0.00000000000E+00 0. -1.
         -2   -1    0    0    0  501 -0.00000000000E+00 -0.00000000000E+00 -0.27932149478E+02  0.27932149478E+02  0.00000000000E+00 0.  1.
         25    2    1    2    0    0 -0.31031795654E+02  0.43080280263E+02  0.60908731689E+03  0.62406259793E+03  0.12509150110E+03 0.  0.
         23    2    1    2    0    0  0.31031795654E+02 -0.43080280263E+02  0.11548398095E+03  0.15637299887E+03  0.91088319943E+02 0.  0.
          5    1    3    3  502    0 -0.13014965801E+02  0.86208902248E+02  0.34717492714E+03  0.35797942203E+03  0.41800000000E+01 0.  1.
         -5    1    3    3    0  502 -0.18016829854E+02 -0.43128621985E+02  0.26191238975E+03  0.26608317590E+03  0.41800000000E+01 0.  1.
        -11    1    4    4    0    0  0.44486939858E+02  0.71039127341E+01  0.23701614507E+02  0.50905008833E+02  0.00000000000E+00 0.  1.
         11    1    4    4    0    0 -0.13455144203E+02 -0.50184192997E+02  0.91782366445E+02  0.10546799004E+03  0.00000000000E+00 0. -1.
</event>
<event>
 8    1  0.6760442E-009  0.9020626E+02  0.7561462E-02  0.1302353E+00
          2   -1    0    0  501    0  0.00000000000E+00  0.00000000000E+00  0.68134437669E+02  0.68134437669E+02  0.00000000000E+00 0. -1.
         -2   -1    0    0    0  501 -0.00000000000E+00 -0.00000000000E+00 -0.17998272092E+03  0.17998272092E+03  0.00000000000E+00 0.  1.
         25    2    1    2    0    0  0.29758960958E+02  0.16306832414E+01 -0.74225732764E+02  0.14848218145E+03  0.12509693809E+03 0.  0.
         23    2    1    2    0    0 -0.29758960958E+02 -0.16306832414E+01 -0.37622550490E+02  0.99634977139E+02  0.87312184024E+02 0.  0.
          5    1    3    3  502    0  0.40416063321E+02  0.58145166657E+02 -0.40673876525E+02  0.81768913479E+02  0.41800000000E+01 0.  1.
         -5    1    3    3    0  502 -0.10657102363E+02 -0.56514483416E+02 -0.33551856239E+02  0.66713267973E+02  0.41800000000E+01 0.  1.
        -11    1    4    4    0    0  0.11013943352E+02 -0.13249622585E+00 -0.54411607333E+02  0.55515290831E+02  0.00000000000E+00 0.  1.
         11    1    4    4    0    0 -0.40772904310E+02 -0.14981870155E+01  0.16789056844E+02  0.44119686308E+02  0.00000000000E+00 0. -1.
</event>
<event>
 8    1  0.6760442E-009  0.1827648E+03  0.7561462E-02  0.1165154E+00
          2   -1    0    0  501    0  0.00000000000E+00  0.00000000000E+00  0.94972374365E+03  0.94972374365E+03  0.00000000000E+00 0. -1.
         -2   -1    0    0    0  501 -0.00000000000E+00 -0.00000000000E+00 -0.36089059895E+02  0.36089059895E+02  0.00000000000E+00 0.  1.
         25    2    1    2    0    0  0.14844266729E+03 -0.17919593042E+01  0.43769520881E+03  0.47881374857E+03  0.12508826250E+03 0.  0.
         23    2    1    2    0    0 -0.14844266729E+03  0.17919593042E+01  0.47593947494E+03  0.50699905497E+03  0.92147823318E+02 0.  0.
          5    1    3    3  502    0  0.16582123971E+03  0.18318315375E+02  0.38618082288E+03  0.42069626166E+03  0.41800000000E+01 0. -1.
         -5    1    3    3    0  502 -0.17378572416E+02 -0.20110274679E+02  0.51514385933E+02  0.58117486912E+02  0.41800000000E+01 0. -1.
        -11    1    4    4    0    0 -0.11005925530E+03 -0.38018723812E+02  0.36352988425E+03  0.38172298827E+03  0.00000000000E+00 0. -1.
         11    1    4    4    0    0 -0.38383411995E+02  0.39810683116E+02  0.11240959069E+03  0.12527606669E+03  0.00000000000E+00 0.  1.
</event>
<event>
 8    1  0.6760442E-009  0.7577070E+02  0.7561462E-02  0.1341501E+00
         -1   -1    0    0    0  501 -0.00000000000E+00  0.00000000000E+00  0.14607847339E+02  0.14607847339E+02  0.00000000000E+00 0.  1.
          1   -1    0    0  501    0  0.00000000000E+00 -0.00000000000E+00 -0.11123973773E+04  0.11123973773E+04  0.00000000000E+00 0. -1.
         25    2    1    2    0    0 -0.16948991282E+02  0.18476818181E+02 -0.88157588310E+03  0.89075922473E+03  0.12508915883E+03 0.  0.
         23    2    1    2    0    0  0.16948991282E+02 -0.18476818181E+02 -0.21621364681E+03  0.23624599986E+03  0.91843183026E+02 0.  0.
          5    1    3    3  502    0  0.31526470177E+02  0.44827720430E+00 -0.72722424751E+03  0.72791943087E+03  0.41800000000E+01 0.  1.
         -5    1    3    3    0  502 -0.48475461459E+02  0.18028540976E+02 -0.15435163559E+03  0.16283979386E+03  0.41800000000E+01 0.  1.
        -11    1    4    4    0    0  0.35839540953E+01 -0.41269945924E+02 -0.20207716053E+03  0.20627949964E+03  0.00000000000E+00 0. -1.
         11    1    4    4    0    0  0.13365037187E+02  0.22793127743E+02 -0.14136486283E+02  0.29966500225E+02  0.00000000000E+00 0.  1.
</event>
<event>
 8    1  0.6760442E-009  0.6532102E+02  0.7561462E-02  0.1376768E+00
         -1   -1    0    0    0  501 -0.00000000000E+00  0.00000000000E+00  0.23338385946E+02  0.23338385946E+02  0.00000000000E+00 0.  1.
          1   -1    0    0  501    0  0.00000000000E+00 -0.00000000000E+00 -0.58737116536E+03  0.58737116536E+03  0.00000000000E+00 0. -1.
         25    2    1    2    0    0  0.23034812980E+02 -0.34933603391E+02 -0.28243640847E+03  0.31172019850E+03  0.12509275786E+03 0.  0.
         23    2    1    2    0    0 -0.23034812980E+02  0.34933603391E+02 -0.28159637095E+03  0.29898935281E+03  0.91362780754E+02 0.  0.
          5    1    3    3  502    0  0.97619375773E+01  0.49621029001E+01  0.10509427126E+02  0.15742882486E+02  0.41800000000E+01 0. -1.
         -5    1    3    3    0  502  0.13272875403E+02 -0.39895706291E+02 -0.29294583559E+03  0.29597731601E+03  0.41800000000E+01 0. -1.
        -11    1    4    4    0    0 -0.39806872706E+02  0.42532474576E+02 -0.27211060324E+03  0.27827644331E+03  0.00000000000E+00 0. -1.
         11    1    4    4    0    0  0.16772059726E+02 -0.75988711854E+01 -0.94857677102E+01  0.20712909496E+02  0.00000000000E+00 0.  1.
</event>
<event>
 8    1  0.6760442E-009  0.1283342E+03  0.7561462E-02  0.1229949E+00
         -1   -1    0    0    0  501 -0.00000000000E+00  0.00000000000E+00  0.50951490123E+03  0.50951490123E+03  0.00000000000E+00 0.  1.
          1   -1    0    0  501    0  0.00000000000E+00 -0.00000000000E+00 -0.36210335747E+02  0.36210335747E+02  0.00000000000E+00 0. -1.
         25    2    1    2    0    0  0.18684048366E+02  0.67946056642E+02  0.18134468430E+03  0.23129911507E+03  0.12509047058E+03 0.  0.
         23    2    1    2    0    0 -0.18684048366E+02 -0.67946056642E+02  0.29195988118E+03  0.31442612191E+03  0.93045438589E+02 0.  0.
          5    1    3    3  502    0  0.42269934335E+02  0.96800626902E+02  0.12641432035E+03  0.16478823231E+03  0.41800000000E+01 0.  1.
         -5    1    3    3    0  502 -0.23585885969E+02 -0.28854570260E+02  0.54930363954E+02  0.66510882763E+02  0.41800000000E+01 0.  1.
        -11    1    4    4    0    0  0.31547415614E+02 -0.34907636993E+01  0.11857079648E+03  0.12274550354E+03  0.00000000000E+00 0.  1.
         11    1    4    4    0    0 -0.50231463979E+02 -0.64455292942E+02  0.17338908470E+03  0.19168061836E+03  0.00000000000E+00 0. -1.
</event>
<event>
 8    1  0.6760442E-009  0.6148123E+02  0.7561462E-02  0.1391719E+00
          2   -1    0    0  501    0  0.00000000000E+00  0.00000000000E+00  0.17929678355E+03  0.17929678355E+03  0.00000000000E+00 0. -1.
         -2   -1    0    0    0  501 -0.00000000000E+00 -0.00000000000E+00 -0.82117103763E+02  0.82117103763E+02  0.00000000000E+00 0.  1.
         25    2    1    2    0    0  0.33937767932E+02  0.33272891339E+02  0.61092209918E+02  0.14710427007E+03  0.12509416761E+03 0.  0.
         23    2    1    2    0    0 -0.33937767932E+02 -0.33272891339E+02  0.36087469871E+02  0.11430961724E+03  0.97496285682E+02 0.  0.
          5    1    3    3  502    0  0.22059543129E+02  0.24355511464E+01 -0.37090593200E+02  0.43425106290E+02  0.41800000000E+01 0.  1.
         -5    1    3    3    0  502  0.11878224803E+02  0.30837340193E+02  0.98182803117E+02  0.10367916378E+03  0.41800000000E+01 0.  1.
        -11    1    4    4    0    0 -0.61812827580E+01 -0.38356390337E+02 -0.25563855241E+02  0.46507328788E+02  0.00000000000E+00 0.  1.
         11    1    4    4    0    0 -0.27756485174E+02  0.50834989976E+01  0.61651325113E+02  0.67802288453E+02  0.00000000000E+00 0. -1.
</event>
<event>
 8    1  0.6760442E-009  0.9540603E+02  0.7561462E-02  0.1290264E+00
         -3   -1    0    0    0  501 -0.00000000000E+00  0.00000000000E+00  0.25457155005E+02  0.25457155005E+02  0.00000000000E+00 0.  1.
          3   -1    0    0  501    0  0.00000000000E+00 -0.00000000000E+00 -0.58368855215E+03  0.58368855215E+03  0.00000000000E+00 0. -1.
         25    2    1    2    0    0  0.46600246050E+02  0.14275588654E+02 -0.37459712690E+03  0.39792945000E+03  0.12509781907E+03 0.  0.
         23    2    1    2    0    0 -0.46600246050E+02 -0.14275588654E+02 -0.18363427025E+03  0.21121625715E+03  0.92278853008E+02 0.  0.
          5    1    3    3  502    0 -0.13825660628E+02 -0.28665835403E+02 -0.25419216758E+02  0.40944938537E+02  0.41800000000E+01 0. -1.
         -5    1    3    3    0  502  0.60425906678E+02  0.42941424057E+02 -0.34917791014E+03  0.35698451147E+03  0.41800000000E+01 0. -1.
        -11    1    4    4    0    0 -0.36425962834E+02  0.24812999226E+02 -0.15642441658E+03  0.16251502639E+03  0.00000000000E+00 0. -1.
         11    1    4    4    0    0 -0.10174283215E+02 -0.39088587880E+02 -0.27209853666E+02  0.48701230764E+02  0.00000000000E+00 0.  1.
</event>
<event>
 8    1  0.6760442E-009  0.9078591E+02  0.7561462E-02  0.1300960E+00
         -2   -1    0    0    0  501 -0.00000000000E+00  0.00000000000E+00  0.24064570636E+02  0.24064570636E+02  0.00000000000E+00 0.  1.
          2   -1    0    0  501    0  0.00000000000E+00 -0.00000000000E+00 -0.51693216678E+03  0.51693216678E+03  0.00000000000E+00 0. -1.
         25    2    1    2    0    0 -0.11420643272E+02  0.11446405991E+02 -0.31748553374E+03  0.34162260885E+03  0.12508993340E+03 0.  0.
         23    2    1    2    0    0  0.11420643272E+02 -0.11446405991E+02 -0.17538206240E+03  0.19937412857E+03  0.93432992175E+02 0.  0.
          5    1    3    3  502    0  0.27789325263E+02 -0.27985502068E+02 -0.32623970384E+02  0.51353975193E+02  0.41800000000E+01 0.  1.
         -5    1    3    3    0  502 -0.39209968534E+02  0.39431908059E+02 -0.28486156336E+03  0.29026863365E+03  0.41800000000E+01 0.  1.
        -11    1    4    4    0    0  0.20620083605E+02 -0.45988920862E+02 -0.14115776982E+03  0.14988557193E+03  0.00000000000E+00 0.  1.
         11    1    4    4    0    0 -0.91994403329E+01  0.34542514871E+02 -0.34224292581E+02  0.49488556644E+02  0.00000000000E+00 0. -1.
</event>
<event>
 8    1  0.6760442E-009  0.6824011E+02  0.7561462E-02  0.1366182E+00
          1   -1    0    0  501    0  0.00000000000E+00  0.00000000000E+00  0.29972898098E+03  0.29972898098E+03  0.00000000000E+00 0. -1.
         -1   -1    0    0    0  501 -0.00000000000E+00 -0.00000000000E+00 -0.41124535675E+02  0.41124535675E+02  0.00000000000E+00 0.  1.
         25    2    1    2    0    0 -0.11369411268E+02  0.54809226120E+01  0.11763029398E+03  0.17216555712E+03  0.12507913085E+03 0.  0.
         23    2    1    2    0    0  0.11369411268E+02 -0.54809226120E+01  0.14097415133E+03  0.16868795953E+03  0.91774791329E+02 0.  0.
          5    1    3    3  502    0 -0.26286649036E+02 -0.14235385467E+02  0.13712279694E+03  0.14040572623E+03  0.41800000000E+01 0. -1.
         -5    1    3    3    0  502  0.14917237768E+02  0.19716308079E+02 -0.19492502961E+02  0.31759830896E+02  0.41800000000E+01 0. -1.
        -11    1    4    4    0    0 -0.23343904225E+02 -0.30516831429E+02  0.27047267170E+02  0.46986908031E+02  0.00000000000E+00 0.  1.
         11    1    4    4    0    0  0.34713315493E+02  0.25035908817E+02  0.11392688416E+03  0.12170105150E+03  0.00000000000E+00 0. -1.
</event>
<event>
 8    1  0.6760442E-009  0.1780768E+03  0.7561462E-02  0.1169677E+00
          1   -1    0    0  501    0  0.00000000000E+00  0.00000000000E+00  0.66891448372E+03  0.66891448372E+03  0.00000000000E+00 0.  1.
         -1   -1    0    0    0  501 -0.00000000000E+00 -0.00000000000E+00 -0.54680079994E+02  0.54680079994E+02  0.00000000000E+00 0. -1.
         25    2    1    2    0    0  0.15293164257E+02 -0.14966027651E+03  0.39827272071E+03  0.44373578992E+03  0.12509281336E+03 0.  0.
         23    2    1    2    0    0 -0.15293164257E+02  0.14966027651E+03  0.21596168302E+03  0.27985877380E+03  0.95128363283E+02 0.  0.
          5    1    3    3  502    0  0.42935620695E+02 -0.15984436897E+03  0.34648773270E+03  0.38401160286E+03  0.41800000000E+01 0. -1.
         -5    1    3    3    0  502 -0.27642456439E+02  0.10184092460E+02  0.51784988004E+02  0.59724187058E+02  0.41800000000E+01 0. -1.
        -11    1    4    4    0    0  0.18668696842E+02  0.92358520618E+02  0.18233297943E+03  0.20524115562E+03  0.00000000000E+00 0.  1.
         11    1    4    4    0    0 -0.33961861099E+02  0.57301755893E+02  0.33628703596E+02  0.74617618183E+02  0.00000000000E+00 0. -1.
</event>
<event>
 8    1  0.6760442E-009  0.1017675E+03  0.7561462E-02  0.1276623E+00
          2   -1    0    0  501    0  0.00000000000E+00  0.00000000000E+00  0.59950231584E+03  0.59950231584E+03  0.00000000000E+00 0. -1.
         -2   -1    0    0    0  501 -0.00000000000E+00 -0.00000000000E+00 -0.35760588604E+02  0.35760588604E+02  0.00000000000E+00 0.  1.
         25    2    1    2    0    0  0.73606571413E+02 -0.50221352810E+02  0.21681833562E+03  0.26570155762E+03  0.12508803071E+03 0.  0.
         23    2    1    2    0    0 -0.73606571413E+02  0.50221352810E+02  0.34692339161E+03  0.36956134682E+03  0.90992514980E+02 0.  0.
          5    1    3    3  502    0  0.54813480401E+00 -0.35401554382E+02  0.17802827825E+03  0.18156296638E+03  0.41800000000E+01 0. -1.
         -5    1    3    3    0  502  0.73058436609E+02 -0.14819798427E+02  0.38790057373E+02  0.84138591242E+02  0.41800000000E+01 0. -1.
        -11    1    4    4    0    0 -0.55868023661E+02  0.22329549610E+02  0.32350389277E+03  0.32905108037E+03  0.00000000000E+00 0. -1.
         11    1    4    4    0    0 -0.17738547752E+02  0.27891803199E+02  0.23419498843E+02  0.40510266454E+02  0.00000000000E+00 0.  1.
</event>
<event>
 8    1  0.6760442E-009  0.9525232E+02  0.7561462E-02  0.1290609E+00
          2   -1    0    0  501    0  0.00000000000E+00  0.00000000000E+00  0.32261933583E+03  0.32261933583E+03  0.00000000000E+00 0. -1.
         -2   -1    0    0    0  501 -0.00000000000E+00 -0.00000000000E+00 -0.48880945597E+02  0.48880945597E+02  0.00000000000E+00 0.  1.
         25    2    1    2    0    0  0.58318051971E+02 -0.33578250511E+01  0.18913460216E+03  0.23416190137E+03  0.12509047982E+03 0.  0.
         23    2    1    2    0    0 -0.58318051971E+02  0.33578250511E+01  0.84603788068E+02  0.13733838006E+03  0.91059098976E+02 0.  0.
          5    1    3    3  502    0  0.54805427995E+02  0.46297721742E+02  0.53418484780E+02  0.89543960670E+02  0.41800000000E+01 0. -1.
         -5    1    3    3    0  502  0.35126239765E+01 -0.49655546793E+02  0.13571611738E+03  0.14461794070E+03  0.41800000000E+01 0. -1.
        -11    1    4    4    0    0 -0.34094190774E+02  0.19782351234E+02  0.97642190474E+02  0.10529839802E+03  0.00000000000E+00 0. -1.
         11    1    4    4    0    0 -0.24223861198E+02 -0.16424526183E+02 -0.13038402406E+02  0.32039982037E+02  0.00000000000E+00 0.  1.
</event>
<event>
 8    1  0.6760442E-009  0.8390356E+02  0.7561462E-02  0.1318325E+00
          3   -1    0    0  501    0  0.00000000000E+00  0.00000000000E+00  0.20516819600E+03  0.20516819600E+03  0.00000000000E+00 0. -1.
         -3   -1    0    0    0  501 -0.00000000000E+00 -0.00000000000E+00 -0.63050231285E+02  0.63050231285E+02  0.00000000000E+00 0.  1.
         25    2    1    2    0    0  0.19156713519E+02 -0.30494695824E+02  0.72833342686E+02  0.14916049787E+03  0.12508897702E+03 0.  0.
         23    2    1    2    0    0 -0.19156713519E+02  0.30494695824E+02  0.69284622033E+02  0.11905792942E+03  0.89875055278E+02 0.  0.
          5    1    3    3  502    0  0.46379357037E+02 -0.16589379815E+02  0.97726130007E+02  0.10951767514E+03  0.41800000000E+01 0.  1.
         -5    1    3    3    0  502 -0.27222643518E+02 -0.13905316008E+02 -0.24892787320E+02  0.39642822730E+02  0.41800000000E+01 0.  1.
        -11    1    4    4    0    0  0.14913014442E+02 -0.21011273146E+02  0.46637833201E+02  0.53281883268E+02  0.00000000000E+00 0. -1.
         11    1    4    4    0    0 -0.34069727961E+02  0.51505968970E+02  0.22646788832E+02  0.65776046151E+02  0.00000000000E+00 0.  1.
</event>
<event>
 8    1  0.6760442E-009  0.1285301E+03  0.7561462E-02  0.1229653E+00
         -1   -1    0    0    0  501 -0.00000000000E+00  0.00000000000E+00  0.49062431916E+02  0.49062431916E+02  0.00000000000E+00 0.  1.
          1   -1    0    0  501    0  0.00000000000E+00 -0.00000000000E+00 -0.63252051790E+03  0.63252051790E+03  0.00000000000E+00 0. -1.
         25    2    1    2    0    0 -0.10582114321E+03 -0.39725622789E+02 -0.16330522436E+03  0.23471885883E+03  0.12509239358E+03 0.  0.
         23    2    1    2    0    0  0.10582114321E+03  0.39725622789E+02 -0.42015286163E+03  0.44686409098E+03  0.10189626696E+03 0.  0.
          5    1    3    3  502    0 -0.93418906433E+02 -0.91699991098E+01 -0.31983103111E+02  0.99255086758E+02  0.41800000000E+01 0. -1.
         -5    1    3    3    0  502 -0.12402236780E+02 -0.30555623679E+02 -0.13132212124E+03  0.13546377207E+03  0.41800000000E+01 0. -1.
        -11    1    4    4    0    0  0.26330782872E+02  0.42865172345E+02 -0.28995044850E+03  0.29428217022E+03  0.00000000000E+00 0. -1.
         11    1    4    4    0    0  0.79490360340E+02 -0.31395495559E+01 -0.13020241313E+03  0.15258192076E+03  0.00000000000E+00 0.  1.
</event>
<event>
 8    1  0.6760442E-009  0.1592694E+03  0.7561462E-02  0.1189524E+00
          2   -1    0    0  501    0  0.00000000000E+00  0.00000000000E+00  0.11206698424E+03  0.11206698424E+03  0.00000000000E+00 0. -1.
         -2   -1    0    0    0  501 -0.00000000000E+00 -0.00000000000E+00 -0.37359116865E+03  0.37359116865E+03  0.00000000000E+00 0.  1.
         25    2    1    2    0    0  0.10554477787E+03  0.11580555494E+03 -0.49953525120E+02  0.20662372490E+03  0.12508949728E+03 0.  0.
         23    2    1    2    0    0 -0.10554477787E+03 -0.11580555494E+03 -0.21157065929E+03  0.27903442799E+03  0.92452373890E+02 0.  0.
          5    1    3    3  502    0  0.89958804347E+02  0.10341864300E+03  0.15570777316E+02  0.13801421559E+03  0.41800000000E+01 0. -1.
         -5    1    3    3    0  502  0.15585973524E+02  0.12386911942E+02 -0.65524302436E+02  0.68609509311E+02  0.41800000000E+01 0. -1.
        -11    1    4    4    0    0 -0.82639654753E+02 -0.10972580011E+03 -0.21495322609E+03  0.25509596851E+03  0.00000000000E+00 0.  1.
         11    1    4    4    0    0 -0.22905123118E+02 -0.60797548340E+01  0.33825667942E+01  0.23938459474E+02  0.00000000000E+00 0. -1.
</event>
<event>
 8    1  0.6760442E-009  0.1149762E+03  0.7561462E-02  0.1251623E+00
         -1   -1    0    0    0  501 -0.00000000000E+00  0.00000000000E+00  0.96826011769E+02  0.96826011769E+02  0.00000000000E+00 0.  1.
          1   -1    0    0  501    0  0.00000000000E+00 -0.00000000000E+00 -0.19732921166E+03  0.19732921166E+03  0.00000000000E+00 0. -1.
         25    2    1    2    0    0  0.65055554153E+02 -0.56296187347E+02 -0.50649612573E+02  0.16005293160E+03  0.12510024709E+03 0.  0.
         23    2    1    2    0    0 -0.65055554153E+02  0.56296187347E+02 -0.49853587315E+02  0.13410229183E+03  0.89980879470E+02 0.  0.
          5    1    3    3  502    0  0.23634094135E+02 -0.82487178160E+02  0.46636541974E+01  0.86034452615E+02  0.41800000000E+01 0.  1.
         -5    1    3    3    0  502  0.41421460018E+02  0.26190990813E+02 -0.55313266771E+02  0.74018478981E+02  0.41800000000E+01 0.  1.
        -11    1    4    4    0    0  0.18162082416E+01  0.17407245374E+02 -0.53868852737E+02  0.56640657650E+02  0.00000000000E+00 0. -1.
         11    1    4    4    0    0 -0.66871762395E+02  0.38888941973E+02  0.40152654212E+01  0.77461634181E+02  0.00000000000E+00 0.  1.
</event>
<event>
 8    1  0.6760442E-009  0.1018780E+03  0.7561462E-02  0.1276396E+00
          2   -1    0    0  501    0  0.00000000000E+00  0.00000000000E+00  0.69679911387E+03  0.69679911387E+03  0.00000000000E+00 0. -1.
         -2   -1    0    0    0  501 -0.00000000000E+00 -0.00000000000E+00 -0.24728003846E+02  0.24728003846E+02  0.00000000000E+00 0.  1.
         25    2    1    2    0    0  0.33712853527E+01  0.71143530378E+02  0.32923641330E+03  0.35932809465E+03  0.12508915335E+03 0.  0.
         23    2    1    2    0    0 -0.33712853527E+01 -0.71143530378E+02  0.34283469673E+03  0.36219902306E+03  0.92626861922E+02 0.  0.
          5    1    3    3  502    0  0.35300737964E+02  0.57196711537E+02  0.67850045310E+02  0.95596584458E+02  0.41800000000E+01 0.  1.
         -5    1    3    3    0  502 -0.31929452611E+02  0.13946818841E+02  0.26138636799E+03  0.26373151020E+03  0.41800000000E+01 0.  1.
        -11    1    4    4    0    0  0.33338575667E+02 -0.46060547089E+02  0.97502394505E+02  0.11287050793E+03  0.00000000000E+00 0.  1.
         11    1    4    4    0    0 -0.36709861020E+02 -0.25082983289E+02  0.24533230222E+03  0.24932851514E+03  0.00000000000E+00 0. -1.
</event>
<event>
 8    1  0.6760442E-009  0.2992707E+03  0.7561462E-02  0.1085606E+00
          1   -1    0    0  501    0  0.00000000000E+00  0.00000000000E+00  0.11666478037E+03  0.11666478037E+03  0.00000000000E+00 0. -1.
         -1   -1    0    0    0  501 -0.00000000000E+00 -0.00000000000E+00 -0.92423201122E+03  0.92423201122E+03  0.00000000000E+00 0.  1.
         25    2    1    2    0    0  0.29074081279E+03 -0.13056992943E+02 -0.57908192977E+03  0.66006484955E+03  0.12509603884E+03 0.  0.
         23    2    1    2    0    0 -0.29074081279E+03  0.13056992943E+02 -0.22848530108E+03  0.38083194205E+03  0.90148377611E+02 0.  0.
          5    1    3    3  502    0  0.16953604727E+03  0.25313296646E+02 -0.43660270246E+03  0.46906569530E+03  0.41800000000E+01 0. -1.
         -5    1    3    3    0  502  0.12120476552E+03 -0.38370289589E+02 -0.14247922731E+03  0.19099915425E+03  0.41800000000E+01 0. -1.
        -11    1    4    4    0    0 -0.24845380916E+03  0.37131886266E+02 -0.21415233644E+03  0.33010497644E+03  0.00000000000E+00 0.  1.
         11    1    4    4    0    0 -0.42287003633E+02 -0.24074893323E+02 -0.14332964634E+02  0.50726965609E+02  0.00000000000E+00 0. -1.
</event>
<event>
 8    1  0.6760442E-009  0.1091729E+03  0.7561462E-02  0.1262109E+00
         -3   -1    0    0    0  501 -0.00000000000E+00  0.00000000000E+00  0.41696157678E+03  0.41696157678E+03  0.00000000000E+00 0.  1.
          3   -1    0    0  501    0  0.00000000000E+00 -0.00000000000E+00 -0.30612935188E+02  0.30612935188E+02  0.00000000000E+00 0. -1.
         25    2    1    2    0    0 -0.16417974071E+02 -0.25723577989E+02  0.23747225176E+03  0.27014014213E+03  0.12510545031E+03 0.  0.
         23    2    1    2    0    0  0.16417974071E+02  0.25723577989E+02  0.14887638984E+03  0.17743436984E+03  0.91583425430E+02 0.  0.
          5    1    3    3  502    0  0.22869628242E+02 -0.66919831924E+02  0.14675146956E+03  0.16295628254E+03  0.41800000000E+01 0.  1.
         -5    1    3    3    0  502 -0.39287602313E+02  0.41196253935E+02  0.90720782196E+02  0.10718385959E+03  0.41800000000E+01 0.  1.
        -11    1    4    4    0    0  0.45963903992E+02 -0.68204927044E+01  0.45198625986E+02  0.64823725455E+02  0.00000000000E+00 0.  1.
         11    1    4    4    0    0 -0.29545929921E+02  0.32544070693E+02  0.10367776385E+03  0.11261064439E+03  0.00000000000E+00 0. -1.
</event>
<event>
 8    1  0.6760442E-009  0.1172364E+03  0.7561462E-02  0.1247727E+00
          2   -1    0    0  501    0  0.00000000000E+00  0.00000000000E+00  0.61889341160E+03  0.61889341160E+03  0.00000000000E+00 0. -1.
         -2   -1    0    0    0  501 -0.00000000000E+00 -0.00000000000E+00 -0.30012525184E+02  0.30012525184E+02  0.00000000000E+00 0.  1.
         25    2    1    2    0    0 -0.55330992479E+02 -0.20518123352E+02  0.46001884830E+03  0.48036182249E+03  0.12509047764E+03 0.  0.
         23    2    1    2    0    0  0.55330992479E+02  0.20518123352E+02  0.12886203811E+03  0.16854411429E+03  0.91209547099E+02 0.  0.
          5    1    3    3  502    0 -0.60654097043E+02  0.35334377600E+02  0.15510777052E+03  0.17030364237E+03  0.41800000000E+01 0. -1.
         -5    1    3    3    0  502  0.53231045635E+01 -0.55852500952E+02  0.30491107778E+03  0.31005818011E+03  0.41800000000E+01 0. -1.
        -11    1    4    4    0    0 -0.19045438982E+02 -0.16146763658E+02  0.38622433217E+02  0.45990641116E+02  0.00000000000E+00 0. -1.
         11    1    4    4    0    0  0.74376431461E+02  0.36664887011E+02  0.90239604896E+02  0.12255347318E+03  0.00000000000E+00 0.  1.
</event>
<event>
 8    1  0.6760442E-009  0.1097361E+03  0.7561462E-02  0.1261059E+00
         -2   -1    0    0    0  501 -0.00000000000E+00  0.00000000000E+00  0.83112516945E+02  0.83112516945E+02  0.00000000000E+00 0.  1.
          2   -1    0    0  501    0  0.00000000000E+00 -0.00000000000E+00 -0.20359255121E+03  0.20359255121E+03  0.00000000000E+00 0. -1.
         25    2    1    2    0    0 -0.54774209253E+02 -0.82581504438E+01 -0.94911384523E+02  0.16651066118E+03  0.12509683580E+03 0.  0.
         23    2    1    2    0    0  0.54774209253E+02  0.82581504438E+01 -0.25568649743E+02  0.12019440698E+03  0.10355929978E+03 0.  0.
          5    1    3    3  502    0  0.14605838502E+02  0.30860038624E+02  0.89655492799E+01  0.35546110562E+02  0.41800000000E+01 0.  1.
         -5    1    3    3    0  502 -0.69380047755E+02 -0.39118189068E+02 -0.10387693380E+03  0.13096455062E+03  0.41800000000E+01 0.  1.
        -11    1    4    4    0    0  0.79878042112E+02  0.69463517049E+01  0.53361320212E+01  0.80356877233E+02  0.00000000000E+00 0.  1.
         11    1    4    4    0    0 -0.25103832859E+02  0.13117987389E+01 -0.30904781764E+02  0.39837529743E+02  0.00000000000E+00 0. -1.
</event>
<event>
 8    1  0.6760442E-009  0.1118867E+03  0.7561462E-02  0.1257115E+00
          3   -1    0    0  501    0  0.00000000000E+00  0.00000000000E+00  0.85594538770E+02  0.85594538770E+02  0.00000000000E+00 0. -1.
         -3   -1    0    0    0  501 -0.00000000000E+00 -0.00000000000E+00 -0.22572563367E+03  0.22572563367E+03  0.00000000000E+00 0.  1.
         25    2    1    2    0    0 -0.58703791707E+02  0.44982880008E+02 -0.27406648243E+02  0.14787580578E+03  0.12508610999E+03 0.  0.
         23    2    1    2    0    0  0.58703791707E+02 -0.44982880008E+02 -0.11272444665E+03  0.16344436665E+03  0.92399488435E+02 0.  0.
          5    1    3    3  502    0 -0.80404187393E+02  0.55511586837E+02  0.14972847763E+02  0.98934464135E+02  0.41800000000E+01 0. -1.
         -5    1    3    3    0  502  0.21700395686E+02 -0.10528706829E+02 -0.42379496006E+02  0.48941341647E+02  0.41800000000E+01 0. -1.
        -11    1    4    4    0    0  0.62134866613E+02 -0.60647534838E+01 -0.10710699306E+03  0.12397350864E+03  0.00000000000E+00 0.  1.
         11    1    4    4    0    0 -0.34310749059E+01 -0.38918126524E+02 -0.56174535972E+01  0.39470858011E+02  0.00000000000E+00 0. -1.
</event>
<event>
 8    1  0.6760442E-009  0.1501387E+03  0.7561462E-02  0.1200303E+00
         -1   -1    0    0    0  501 -0.00000000000E+00  0.00000000000E+00  0.39852301718E+02  0.39852301718E+02  0.00000000000E+00 0.  1.
          1   -1    0    0  501    0  0.00000000000E+00 -0.00000000000E+00 -0.61899521056E+03  0.61899521056E+03  0.00000000000E+00 0. -1.
         25    2    1    2    0    0  0.20189997539E+02  0.11080644825E+03 -0.27089895934E+03  0.31893484399E+03  0.12508990194E+03 0.  0.
         23    2    1    2    0    0 -0.20189997539E+02 -0.11080644825E+03 -0.30824394950E+03  0.33991266828E+03  0.88547076080E+02 0.  0.
          5    1    3    3  502    0  0.69663785860E+02  0.66548253333E+02 -0.19811373055E+03  0.22033664179E+03  0.41800000000E+01 0.  1.
         -5    1    3    3    0  502 -0.49473788321E+02  0.44258194915E+02 -0.72785228791E+02  0.98598202205E+02  0.41800000000E+01 0.  1.
        -11    1    4    4    0    0 -0.37182135754E+02 -0.15103077625E+02 -0.50862720460E+02  0.64789123359E+02  0.00000000000E+00 0.  1.
         11    1    4    4    0    0  0.16992138216E+02 -0.95703370622E+02 -0.25738122904E+03  0.27512354492E+03  0.00000000000E+00 0. -1.
</event>
<event>
 8    1  0.6760442E-009  0.9408127E+02  0.7561462E-02  0.1293259E+00
          1   -1    0    0  501    0  0.00000000000E+00  0.00000000000E+00  0.11368721999E+03  0.11368721999E+03  0.00000000000E+00 0. -1.
         -1   -1    0    0    0  501 -0.00000000000E+00 -0.00000000000E+00 -0.14487308880E+03  0.14487308880E+03  0.00000000000E+00 0.  1.
         25    2    1    2    0    0  0.25996531403E+02 -0.17758781248E+02  0.43208025250E+02  0.13603777329E+03  0.12509255917E+03 0.  0.
         23    2    1    2    0    0 -0.25996531403E+02  0.17758781248E+02 -0.74393894055E+02  0.12252253550E+03  0.92120173017E+02 0.  0.
          5    1    3    3  502    0 -0.59127454337E+00  0.35702053440E+02  0.63388616072E+02  0.72873693971E+02  0.41800000000E+01 0.  1.
         -5    1    3    3    0  502  0.26587805947E+02 -0.53460834688E+02 -0.20180590822E+02  0.63164079321E+02  0.41800000000E+01 0.  1.
        -11    1    4    4    0    0 -0.20360499271E+02  0.52944222140E+02 -0.63749904284E+02  0.85332824193E+02  0.00000000000E+00 0.  1.
         11    1    4    4    0    0 -0.56360321327E+01 -0.35185440892E+02 -0.10643989771E+02  0.37189711309E+02  0.00000000000E+00 0. -1.
</event>
<event>
 8    1  0.6760442E-009  0.1696159E+03  0.7561462E-02  0.1178249E+00
         -2   -1    0    0    0  501 -0.00000000000E+00  0.00000000000E+00  0.37878596306E+03  0.37878596306E+03  0.00000000000E+00 0.  1.
          2   -1    0    0  501    0  0.00000000000E+00 -0.00000000000E+00 -0.18301000804E+03  0.18301000804E+03  0.00000000000E+00 0. -1.
         25    2    1    2    0    0  0.11848745870E+03  0.65370379825E+02 -0.11069527154E+03  0.21498837397E+03  0.12511591975E+03 0.  0.
         23    2    1    2    0    0 -0.11848745870E+03 -0.65370379825E+02  0.30647122657E+03  0.34680759713E+03  0.89656746996E+02 0.  0.
          5    1    3    3  502    0 -0.11793182777E+01  0.64040302307E+02 -0.32242598784E+02  0.71830416173E+02  0.41800000000E+01 0.  1.
         -5    1    3    3    0  502  0.11966677698E+03  0.13300775176E+01 -0.78452672759E+02  0.14315795780E+03  0.41800000000E+01 0.  1.
        -11    1    4    4    0    0 -0.11572665801E+03 -0.79821336370E+02  0.23502941054E+03  0.27386662618E+03  0.00000000000E+00 0. -1.
         11    1    4    4    0    0 -0.27608006879E+01  0.14450956545E+02  0.71441816027E+02  0.72940970948E+02  0.00000000000E+00 0.  1.
</event>
<event>
 8    1  0.6760442E-009  0.1181885E+03  0.7561462E-02  0.1246116E+00
         -1   -1    0    0    0  501 -0.00000000000E+00  0.00000000000E+00  0.49538763480E+02  0.49538763480E+02  0.00000000000E+00 0.  1.
          1   -1    0    0  501    0  0.00000000000E+00 -0.00000000000E+00 -0.35734304189E+03  0.35734304189E+03  0.00000000000E+00 0. -1.
         25    2    1    2    0    0  0.16454927811E+02 -0.75216821820E+02 -0.19243312607E+03  0.24208831487E+03  0.12509160346E+03 0.  0.
         23    2    1    2    0    0 -0.16454927811E+02  0.75216821820E+02 -0.11537115234E+03  0.16479349050E+03  0.88983463541E+02 0.  0.
          5    1    3    3  502    0 -0.39172968733E+01  0.29833623670E+02 -0.85564183839E+02  0.90796983828E+02  0.41800000000E+01 0.  1.
         -5    1    3    3    0  502  0.20372224685E+02 -0.10505044549E+03 -0.10686894223E+03  0.15129133104E+03  0.41800000000E+01 0.  1.
        -11    1    4    4    0    0 -0.21766050833E+02 -0.16784567357E+01 -0.74330083266E+02  0.77469603486E+02  0.00000000000E+00 0. -1.
         11    1    4    4    0    0  0.53111230212E+01  0.76895278556E+02 -0.41041069074E+02  0.87323887010E+02  0.00000000000E+00 0.  1.
</event>
<event>
 8    1  0.6760442E-009  0.6482509E+02  0.7561462E-02  0.1378631E+00
         -1   -1    0    0    0  501 -0.00000000000E+00  0.00000000000E+00  0.29689503415E+02  0.29689503415E+02  0.00000000000E+00 0.  1.
          1   -1    0    0  501    0  0.00000000000E+00 -0.00000000000E+00 -0.46404473912E+03  0.46404473912E+03  0.00000000000E+00 0. -1.
         25    2    1    2    0    0  0.12888229411E+02  0.33801545439E+02 -0.31484164514E+03  0.34070806409E+03  0.12509225593E+03 0.  0.
         23    2    1    2    0    0 -0.12888229411E+02 -0.33801545439E+02 -0.11951359057E+03  0.15302617844E+03  0.88458250194E+02 0.  0.
          5    1    3    3  502    0 -0.11226350400E+02  0.50820463412E+02 -0.30481876438E+03  0.30925830945E+03  0.41800000000E+01 0.  1.
         -5    1    3    3    0  502  0.24114579811E+02 -0.17018917973E+02 -0.10022880756E+02  0.31449754642E+02  0.41800000000E+01 0.  1.
        -11    1    4    4    0    0  0.98583034674E+01 -0.54028308213E+01  0.12076097658E+02  0.16498753371E+02  0.00000000000E+00 0.  1.
         11    1    4    4    0    0 -0.22746532878E+02 -0.28398714618E+02 -0.13158968823E+03  0.13652742507E+03  0.00000000000E+00 0. -1.
</event>
<event>
 8    1  0.6760442E-009  0.1455499E+03  0.7561462E-02  0.1206050E+00
         -2   -1    0    0    0  501 -0.00000000000E+00  0.00000000000E+00  0.49000373413E+02  0.49000373413E+02  0.00000000000E+00 0.  1.
          2   -1    0    0  501    0  0.00000000000E+00 -0.00000000000E+00 -0.49637835226E+03  0.49637835226E+03  0.00000000000E+00 0. -1.
         25    2    1    2    0    0 -0.97416279647E+02  0.56724999064E+02 -0.26260634623E+03  0.31195814945E+03  0.12509251325E+03 0.  0.
         23    2    1    2    0    0  0.97416279647E+02 -0.56724999064E+02 -0.18477163262E+03  0.23342057622E+03  0.87389656848E+02 0.  0.
          5    1    3    3  502    0 -0.10989216539E+02 -0.37335324633E+02 -0.45439585107E+02  0.59974308169E+02  0.41800000000E+01 0. -1.
         -5    1    3    3    0  502 -0.86427063108E+02  0.94060323697E+02 -0.21716676112E+03  0.25198384128E+03  0.41800000000E+01 0. -1.
        -11    1    4    4    0    0  0.30779781839E+02 -0.47893621329E+02 -0.29276036134E+02  0.64017811785E+02  0.00000000000E+00 0.  1.
         11    1    4    4    0    0  0.66636497808E+02 -0.88313777355E+01 -0.15549559648E+03  0.16940276443E+03  0.00000000000E+00 0. -1.
</event>
<event>
 8    1  0.6760442E-009  0.1870662E+03  0.7561462E-02  0.1161134E+00
          4   -1    0    0  501    0  0.00000000000E+00  0.00000000000E+00  0.50524671427E+03  0.50524671427E+03  0.00000000000E+00 0. -1.
         -4   -1    0    0    0  501 -0.00000000000E+00 -0.00000000000E+00 -0.93210951891E+02  0.93210951891E+02  0.00000000000E+00 0.  1.
         25    2    1    2    0    0 -0.12317180901E+03 -0.12537963374E+03  0.12169018122E+03  0.24769296553E+03  0.12510778503E+03 0.  0.
         23    2    1    2    0    0  0.12317180901E+03  0.12537963374E+03  0.29034558116E+03  0.35076470063E+03  0.88566199068E+02 0.  0.
          5    1    3    3  502    0 -0.29564617853E+02 -0.45392668730E+02 -0.21824804048E+02  0.58552160293E+02  0.41800000000E+01 0.  1.
         -5    1    3    3    0  502 -0.93607191160E+02 -0.79986965012E+02  0.14351498527E+03  0.18914080524E+03  0.41800000000E+01 0.  1.
        -11    1    4    4    0    0  0.56711756352E+02  0.23395289771E+01  0.76598375051E+02  0.95336287765E+02  0.00000000000E+00 0. -1.
         11    1    4    4    0    0  0.66460052661E+02  0.12304010477E+03  0.21374720611E+03  0.25542841286E+03  0.00000000000E+00 0.  1.
</event>
<event>
 8    1  0.6760442E-009  0.1506461E+03  0.7561462E-02  0.1199681E+00
          2   -1    0    0  501    0  0.00000000000E+00  0.00000000000E+00  0.12038269832E+03  0.12038269832E+03  0.00000000000E+00 0. -1.
         -2   -1    0    0    0  501 -0.00000000000E+00 -0.00000000000E+00 -0.23254369148E+03  0.23254369148E+03  0.00000000000E+00 0.  1.
         25    2    1    2    0    0 -0.39449679635E+02  0.11067719443E+03 -0.63646416806E+01  0.17173847069E+03  0.12509146677E+03 0.  0.
         23    2    1    2    0    0  0.39449679635E+02 -0.11067719443E+03 -0.10579635148E+03  0.18118791911E+03  0.88489973747E+02 0.  0.
          5    1    3    3  502    0  0.77767045013E+01 -0.25440247408E+02  0.40188595886E+01  0.27226952703E+02  0.41800000000E+01 0. -1.
         -5    1    3    3    0  502 -0.47226384136E+02  0.13611744184E+03 -0.10383501269E+02  0.14451151798E+03  0.41800000000E+01 0. -1.
        -11    1    4    4    0    0  0.33600917904E+02 -0.19476705187E+02 -0.75509692698E+02  0.84912174747E+02  0.00000000000E+00 0. -1.
         11    1    4    4    0    0  0.58487617314E+01 -0.91200489245E+02 -0.30286658786E+02  0.96275744364E+02  0.00000000000E+00 0.  1.
</event>
<event>
 8    1  0.6760442E-009  0.9789928E+02  0.7561462E-02  0.1284777E+00
         -3   -1    0    0    0  501 -0.00000000000E+00  0.00000000000E+00  0.87379205796E+02  0.87379205796E+02  0.00000000000E+00 0.  1.
          3   -1    0    0  501    0  0.00000000000E+00 -0.00000000000E+00 -0.17054562633E+03  0.17054562633E+03  0.00000000000E+00 0. -1.
         25    2    1    2    0    0  0.50552541240E+02 -0.19538594672E+02 -0.36092051352E+02  0.14102284296E+03  0.12508992748E+03 0.  0.
         23    2    1    2    0    0 -0.50552541240E+02  0.19538594672E+02 -0.47074369180E+02  0.11690198917E+03  0.92264634231E+02 0.  0.
          5    1    3    3  502    0  0.74479106961E+01  0.51192918280E+02 -0.24103870114E+02  0.57224603190E+02  0.41800000000E+01 0.  1.
         -5    1    3    3    0  502  0.43104630544E+02 -0.70731512952E+02 -0.11988181238E+02  0.83798239768E+02  0.41800000000E+01 0.  1.
        -11    1    4    4    0    0 -0.35863308277E+02  0.26611805989E+02  0.19230003488E+02  0.48622609275E+02  0.00000000000E+00 0.  1.
         11    1    4    4    0    0 -0.14689232963E+02 -0.70732113169E+01 -0.66304372668E+02  0.68279379891E+02  0.00000000000E+00 0. -1.
</event>
<event>
 8    1  0.6760442E-009  0.1399679E+03  0.7561462E-02  0.1213372E+00
          2   -1    0    0  501    0  0.00000000000E+00  0.00000000000E+00  0.32670199193E+03  0.32670199193E+03  0.00000000000E+00 0. -1.
         -2   -1    0    0    0  501 -0.00000000000E+00 -0.00000000000E+00 -0.67548433941E+02  0.67548433941E+02  0.00000000000E+00 0.  1.
         25    2    1    2    0    0 -0.18179207901E+02  0.94919613137E+02  0.10061630116E+03  0.18738290892E+03  0.12509395645E+03 0.  0.
         23    2    1    2    0    0  0.18179207901E+02 -0.94919613137E+02  0.15853725683E+03  0.20686751695E+03  0.91213437647E+02 0.  0.
          5    1    3    3  502    0  0.38301923840E+02  0.81836193537E+02  0.28665904637E+02  0.94886281575E+02  0.41800000000E+01 0. -1.
         -5    1    3    3    0  502 -0.56481131741E+02  0.13083419600E+02  0.71950396520E+02  0.92496627347E+02  0.41800000000E+01 0. -1.
        -11    1    4    4    0    0  0.33451804436E+01  0.17573564268E+02  0.12023858598E+02  0.21554432697E+02  0.00000000000E+00 0. -1.
         11    1    4    4    0    0  0.14834027457E+02 -0.11249317741E+03  0.14651339824E+03  0.18531308425E+03  0.00000000000E+00 0.  1.
</event>
<event>
 8    1  0.6760442E-009  0.1092496E+03  0.7561462E-02  0.1261966E+00
          4   -1    0    0  501    0  0.00000000000E+00  0.00000000000E+00  0.23534751521E+03  0.23534751521E+03  0.00000000000E+00 0. -1.
         -4   -1    0    0    0  501 -0.00000000000E+00 -0.00000000000E+00 -0.75706666111E+02  0.75706666111E+02  0.00000000000E+00 0.  1.
         25    2    1    2    0    0  0.66690344518E-02 -0.25749256495E+02  0.17350124343E+03  0.21543695410E+03  0.12508946983E+03 0.  0.
         23    2    1    2    0    0 -0.66690344518E-02  0.25749256495E+02 -0.13860394337E+02  0.95617227222E+02  0.91035813590E+02 0.  0.
          5    1    3    3  502    0 -0.50829360981E+02 -0.46387192339E+02  0.12167205738E+03  0.13984619229E+03  0.41800000000E+01 0. -1.
         -5    1    3    3    0  502  0.50836030015E+02  0.20637935843E+02  0.51829186049E+02  0.75590761804E+02  0.41800000000E+01 0. -1.
        -11    1    4    4    0    0 -0.26059002254E+02 -0.25865617732E+02 -0.72247765653E+01  0.37420571555E+02  0.00000000000E+00 0.  1.
         11    1    4    4    0    0  0.26052333219E+02  0.51614874227E+02 -0.66356177713E+01  0.58196655667E+02  0.00000000000E+00 0. -1.
</event>
<event>
 8    1  0.6760442E-009  0.1120191E+03  0.7561462E-02  0.1256876E+00
         -2   -1    0    0    0  501 -0.00000000000E+00  0.00000000000E+00  0.16060349755E+02  0.16060349755E+02  0.00000000000E+00 0.  1.
          2   -1    0    0  501    0  0.00000000000E+00 -0.00000000000E+00 -0.11774017136E+04  0.11774017136E+04  0.00000000000E+00 0. -1.
         25    2    1    2    0    0 -0.51540484967E+02 -0.22422586444E+02 -0.88180215702E+03  0.89240150683E+03  0.12508481641E+03 0.  0.
         23    2    1    2    0    0  0.51540484967E+02  0.22422586444E+02 -0.27953920680E+03  0.30106055650E+03  0.96623478347E+02 0.  0.
          5    1    3    3  502    0  0.32234379663E+02 -0.35132456278E+02 -0.43424373069E+03  0.43687347684E+03  0.41800000000E+01 0. -1.
         -5    1    3    3    0  502 -0.83774864630E+02  0.12709869834E+02 -0.44755842633E+03  0.45552803000E+03  0.41800000000E+01 0. -1.
        -11    1    4    4    0    0  0.59363177008E+02 -0.80246362895E+01 -0.25276985537E+03  0.25977101716E+03  0.00000000000E+00 0. -1.
         11    1    4    4    0    0 -0.78226920408E+01  0.30447222733E+02 -0.26769351430E+02  0.41289539340E+02  0.00000000000E+00 0.  1.
</event>
<event>
 8    1  0.6760442E-009  0.1051259E+03  0.7561462E-02  0.1269872E+00
          1   -1    0    0  501    0  0.00000000000E+00  0.00000000000E+00  0.14714512950E+03  0.14714512950E+03  0.00000000000E+00 0. -1.
         -1   -1    0    0    0  501 -0.00000000000E+00 -0.00000000000E+00 -0.13866832943E+03  0.13866832943E+03  0.00000000000E+00 0.  1.
         25    2    1    2    0    0 -0.74910734764E+02 -0.14084434882E+02  0.54639987740E+02  0.15634232979E+03  0.12508959323E+03 0.  0.
         23    2    1    2    0    0  0.74910734764E+02  0.14084434882E+02 -0.46163187672E+02  0.12947112914E+03  0.93924139046E+02 0.  0.
          5    1    3    3  502    0 -0.70609705460E+02  0.37067740518E+02 -0.18758820136E+01  0.79879529453E+02  0.41800000000E+01 0. -1.
         -5    1    3    3    0  502 -0.43010293043E+01 -0.51152175400E+02  0.56515869754E+02  0.76462800337E+02  0.41800000000E+01 0. -1.
        -11    1    4    4    0    0  0.74365886116E+01  0.83392216659E+01 -0.59425122546E+02  0.60466442410E+02  0.00000000000E+00 0.  1.
         11    1    4    4    0    0  0.67474146153E+02  0.57452132160E+01  0.13261934873E+02  0.69004686729E+02  0.00000000000E+00 0. -1.
</event>
<event>
 8    1  0.6760442E-009  0.1182715E+03  0.7561462E-02  0.1245976E+00
         -2   -1    0    0    0  501 -0.00000000000E+00  0.00000000000E+00  0.43667573642E+02  0.43667573642E+02  0.00000000000E+00 0.  1.
          2   -1    0    0  501    0  0.00000000000E+00 -0.00000000000E+00 -0.35491966961E+03  0.35491966961E+03  0.00000000000E+00 0. -1.
         25    2    1    2    0    0 -0.55387553905E+02 -0.67310995863E+01 -0.22155257405E+03  0.26047284916E+03  0.12508986072E+03 0.  0.
         23    2    1    2    0    0  0.55387553905E+02  0.67310995863E+01 -0.89699521922E+02  0.13811439409E+03  0.88974675007E+02 0.  0.
          5    1    3    3  502    0 -0.16740207813E+02  0.58428765843E+02 -0.10518240154E+03  0.12155231479E+03  0.41800000000E+01 0.  1.
         -5    1    3    3    0  502 -0.38647346092E+02 -0.65159865430E+02 -0.11637017251E+03  0.13892053438E+03  0.41800000000E+01 0.  1.
        -11    1    4    4    0    0  0.46020123881E+02  0.42577683733E+02 -0.34292514036E+02  0.71461090622E+02  0.00000000000E+00 0.  1.
         11    1    4    4    0    0  0.93674300247E+01 -0.35846584147E+02 -0.55407007886E+02  0.66653303468E+02  0.00000000000E+00 0. -1.
</event>
<event>
 8    1  0.6760442E-009  0.1292584E+03  0.7561462E-02  0.1228560E+00
         -4   -1    0    0    0  501 -0.00000000000E+00  0.00000000000E+00  0.28340521372E+03  0.28340521372E+03  0.00000000000E+00 0.  1.
          4   -1    0    0  501    0  0.00000000000E+00 -0.00000000000E+00 -0.87290456936E+02  0.87290456936E+02  0.00000000000E+00 0. -1.
         25    2    1    2    0    0 -0.90669953324E+02  0.64419150174E+02  0.14346156405E+03  0.22045159964E+03  0.12508724986E+03 0.  0.
         23    2    1    2    0    0  0.90669953324E+02 -0.64419150174E+02  0.52653192734E+02  0.15024407102E+03  0.86197765791E+02 0.  0.
          5    1    3    3  502    0 -0.86235010678E+02  0.86112112640E+02  0.15328447014E+03  0.19587080997E+03  0.41800000000E+01 0.  1.
         -5    1    3    3    0  502 -0.44349426461E+01 -0.21692962466E+02 -0.98229060888E+01  0.24580789671E+02  0.41800000000E+01 0.  1.
        -11    1    4    4    0    0  0.41457440358E+01 -0.12428163600E+02  0.47385869581E+02  0.49163676429E+02  0.00000000000E+00 0.  1.
         11    1    4    4    0    0  0.86524209288E+02 -0.51990986574E+02  0.52673231528E+01  0.10108039459E+03  0.00000000000E+00 0. -1.
</event>
<event>
 8    1  0.6760442E-009  0.1897025E+03  0.7561462E-02  0.1158730E+00
         -2   -1    0    0    0  501 -0.00000000000E+00  0.00000000000E+00  0.12455566039E+03  0.12455566039E+03  0.00000000000E+00 0.  1.
          2   -1    0    0  501    0  0.00000000000E+00 -0.00000000000E+00 -0.45052183507E+03  0.45052183507E+03  0.00000000000E+00 0. -1.
         25    2    1    2    0    0 -0.15908781884E+03  0.77374169393E+02 -0.31228765464E+03  0.38008769459E+03  0.12508948857E+03 0.  0.
         23    2    1    2    0    0  0.15908781884E+03 -0.77374169393E+02 -0.13678520046E+02  0.19498980086E+03  0.80859287261E+02 0.  0.
          5    1    3    3  502    0  0.83516412691E+01 -0.99195586746E+01 -0.77843324814E+02  0.79026597891E+02  0.41800000000E+01 0. -1.
         -5    1    3    3    0  502 -0.16743946011E+03  0.87293728067E+02 -0.23444432982E+03  0.30106109670E+03  0.41800000000E+01 0. -1.
        -11    1    4    4    0    0  0.77217769895E+02 -0.37731071084E+02  0.33836956881E+02  0.92364264538E+02  0.00000000000E+00 0.  1.
         11    1    4    4    0    0  0.81870048948E+02 -0.39643098309E+02 -0.47515476927E+02  0.10262553632E+03  0.00000000000E+00 0. -1.
</event>
<event>
 7    1  0.6760442E-009  0.1036484E+03  0.7561462E-02  0.1272806E+00
         -1   -1    0    0    0  501 -0.00000000000E+00  0.00000000000E+00  0.92905195696E+02  0.92905195696E+02  0.00000000000E+00 0.  1.
          1   -1    0    0  501    0  0.00000000000E+00 -0.00000000000E+00 -0.15496250929E+03  0.15496250929E+03  0.00000000000E+00 0. -1.
         23    2    1    2    0    0 -0.37234234875E+00 -0.39771453719E+01 -0.76753902742E+02  0.12196175390E+03  0.94697156791E+02 0.  0.
          5    1    1    2  502    0  0.51461316942E+02 -0.30129690848E+02  0.22438093125E+02  0.63851435654E+02  0.41800000000E+01 0.  1.
         -5    1    1    2    0  502 -0.51088974593E+02  0.34106836220E+02 -0.77415039808E+01  0.62054515435E+02  0.41800000000E+01 0.  1.
        -11    1    3    3    0    0  0.32232420824E+02 -0.30151719096E+02 -0.64929873779E+02  0.78510786684E+02  0.00000000000E+00 0. -1.
         11    1    3    3    0    0 -0.32604763173E+02  0.26174573724E+02 -0.11824028963E+02  0.43450967218E+02  0.00000000000E+00 0.  1.
</event>
<event>
 8    1  0.6760442E-009  0.1245449E+03  0.7561462E-02  0.1235782E+00
         -2   -1    0    0    0  501 -0.00000000000E+00  0.00000000000E+00  0.19002927796E+02  0.19002927796E+02  0.00000000000E+00 0.  1.
          2   -1    0    0  501    0  0.00000000000E+00 -0.00000000000E+00 -0.13241415534E+04  0.13241415534E+04  0.00000000000E+00 0. -1.
         25    2    1    2    0    0  0.85190730196E+02  0.42769526386E+02 -0.96987839074E+03  0.98254672126E+03  0.12508906326E+03 0.  0.
         23    2    1    2    0    0 -0.85190730196E+02 -0.42769526386E+02 -0.33526023483E+03  0.36059775989E+03  0.92437148835E+02 0.  0.
          5    1    3    3  502    0  0.51933734083E+02 -0.18678340996E+02 -0.74437651102E+03  0.74643141394E+03  0.41800000000E+01 0. -1.
         -5    1    3    3    0  502  0.33256996113E+02  0.61447867382E+02 -0.22550187972E+03  0.23611530733E+03  0.41800000000E+01 0. -1.
        -11    1    4    4    0    0 -0.27470973863E+02  0.23295227844E+02 -0.16701046054E+03  0.17085027356E+03  0.00000000000E+00 0. -1.
         11    1    4    4    0    0 -0.57719756333E+02 -0.66064754229E+02 -0.16824977429E+03  0.18974748633E+03  0.00000000000E+00 0.  1.
</event>
<event>
 8    1  0.6760442E-009  0.1469949E+03  0.7561462E-02  0.1204215E+00
         -1   -1    0    0    0  501 -0.00000000000E+00  0.00000000000E+00  0.27229602532E+02  0.27229602532E+02  0.00000000000E+00 0.  1.
          1   -1    0    0  501    0  0.00000000000E+00 -0.00000000000E+00 -0.10281709498E+04  0.10281709498E+04  0.00000000000E+00 0. -1.
         25    2    1    2    0    0 -0.46308895705E+02  0.10067913913E+03 -0.72903972362E+03  0.74794849476E+03  0.12508888565E+03 0.  0.
         23    2    1    2    0    0  0.46308895705E+02 -0.10067913913E+03 -0.27190162368E+03  0.30745205761E+03  0.91189209288E+02 0.  0.
          5    1    3    3  502    0 -0.72609055976E+02  0.33276178362E+02 -0.22642518081E+03  0.24013582398E+03  0.41800000000E+01 0. -1.
         -5    1    3    3    0  502  0.26300160271E+02  0.67402960768E+02 -0.50261454282E+03  0.50781267078E+03  0.41800000000E+01 0. -1.
        -11    1    4    4    0    0 -0.47236863372E+01 -0.89076515063E+02 -0.14581592008E+03  0.17093630772E+03  0.00000000000E+00 0. -1.
         11    1    4    4    0    0  0.51032582042E+02 -0.11602624067E+02 -0.12608570360E+03  0.13651574989E+03  0.00000000000E+00 0.  1.
</event>
<event>
 8    1  0.6760442E-009  0.1003875E+03  0.7561462E-02  0.1279483E+00
          2   -1    0    0  501    0  0.00000000000E+00  0.00000000000E+00  0.12491741770E+03  0.12491741770E+03  0.00000000000E+00 0.  1.
         -2   -1    0    0    0  501 -0.00000000000E+00 -0.00000000000E+00 -0.10185572974E+03  0.10185572974E+03  0.00000000000E+00 0. -1.
         25    2    1    2    0    0 -0.33000610269E+02 -0.77134133947E+01  0.17815713345E+01  0.12960983462E+03  0.12508796189E+03 0.  0.
         23    2    1    2    0    0  0.33000610269E+02  0.77134133947E+01  0.21280116625E+02  0.97163312818E+02  0.88539985147E+02 0.  0.
          5    1    3    3  502    0  0.39545776769E+01  0.55710350941E+02 -0.12966203177E+01  0.56021741412E+02  0.41800000000E+01 0. -1.
         -5    1    3    3    0  502 -0.36955187946E+02 -0.63423764336E+02  0.30781916521E+01  0.73588093212E+02  0.41800000000E+01 0. -1.
        -11    1    4    4    0    0  0.39462877373E+02  0.29016789328E+02  0.43645762123E+02  0.65606747403E+02  0.00000000000E+00 0.  1.
         11    1    4    4    0    0 -0.64622671041E+01 -0.21303375933E+02 -0.22365645498E+02  0.31556565415E+02  0.00000000000E+00 0. -1.
</event>
<event>
 8    1  0.6760442E-009  0.1590919E+03  0.7561462E-02  0.1189726E+00
         -2   -1    0    0    0  501 -0.00000000000E+00  0.00000000000E+00  0.59243182734E+02  0.59243182734E+02  0.00000000000E+00 0.  1.
          2   -1    0    0  501    0  0.00000000000E+00 -0.00000000000E+00 -0.50558261979E+03  0.50558261979E+03  0.00000000000E+00 0. -1.
         25    2    1    2    0    0  0.12900507323E+03 -0.34096787920E+02 -0.21581810946E+03  0.28289533108E+03  0.12508961633E+03 0.  0.
         23    2    1    2    0    0 -0.12900507323E+03  0.34096787920E+02 -0.23052132760E+03  0.28193047144E+03  0.92411083667E+02 0.  0.
          5    1    3    3  502    0  0.49561581266E+02  0.27359706831E+02 -0.15620630833E+02  0.58875974753E+02  0.41800000000E+01 0. -1.
         -5    1    3    3    0  502  0.79443491964E+02 -0.61456494751E+02 -0.20019747862E+03  0.22401935633E+03  0.41800000000E+01 0. -1.
        -11    1    4    4    0    0 -0.48002121869E+02 -0.30854833171E+02 -0.10015613965E+03  0.11527131796E+03  0.00000000000E+00 0.  1.
         11    1    4    4    0    0 -0.81002951361E+02  0.64951621091E+02 -0.13036518794E+03  0.16665915348E+03  0.00000000000E+00 0. -1.
</event>
<event>
 8    1  0.6760442E-009  0.9078344E+02  0.7561462E-02  0.1300966E+00
         -1   -1    0    0    0  501 -0.00000000000E+00  0.00000000000E+00  0.20478132863E+03  0.20478132863E+03  0.00000000000E+00 0.  1.
          1   -1    0    0  501    0  0.00000000000E+00 -0.00000000000E+00 -0.62055034794E+02  0.62055034794E+02  0.00000000000E+00 0. -1.
         25    2    1    2    0    0  0.21319792201E+02 -0.17059073504E+02  0.99652259617E+02  0.16224598099E+03  0.12509052711E+03 0.  0.
         23    2    1    2    0    0 -0.21319792201E+02  0.17059073504E+02  0.43074034223E+02  0.10459038244E+03  0.91313909930E+02 0.  0.
          5    1    3    3  502    0  0.51086442577E+02 -0.22956235131E+02  0.11500209596E+03  0.12798346699E+03  0.41800000000E+01 0.  1.
         -5    1    3    3    0  502 -0.29766650376E+02  0.58971616267E+01 -0.15349836344E+02  0.34262514001E+02  0.41800000000E+01 0.  1.
        -11    1    4    4    0    0  0.14184712155E+02 -0.31541455414E+02  0.21122285459E+02  0.40524318768E+02  0.00000000000E+00 0.  1.
         11    1    4    4    0    0 -0.35504504357E+02  0.48600528919E+02  0.21951748764E+02  0.64066063673E+02  0.00000000000E+00 0. -1.
</event>
<event>
 8    1  0.6760442E-009  0.1885736E+03  0.7561462E-02  0.1159754E+00
          1   -1    0    0  501    0  0.00000000000E+00  0.00000000000E+00  0.17966779272E+03  0.17966779272E+03  0.00000000000E+00 0. -1.
         -1   -1    0    0    0  501 -0.00000000000E+00 -0.00000000000E+00 -0.28520423875E+03  0.28520423875E+03  0.00000000000E+00 0.  1.
         25    2    1    2    0    0  0.16939404310E+03 -0.52703304881E+02  0.35350077663E+02  0.21993150639E+03  0.12509300271E+03 0.  0.
         23    2    1    2    0    0 -0.16939404310E+03  0.52703304881E+02 -0.14088652369E+03  0.24494052509E+03  0.93138971910E+02 0.  0.
          5    1    3    3  502    0  0.65869045851E+02 -0.68035687116E+02  0.60194814775E+02  0.11228746167E+03  0.41800000000E+01 0.  1.
         -5    1    3    3    0  502  0.10352499725E+03  0.15332382235E+02 -0.24844737112E+02  0.10764404472E+03  0.41800000000E+01 0.  1.
        -11    1    4    4    0    0 -0.61912836244E+02  0.14860587837E+02 -0.10963723751E+03  0.12678470023E+03  0.00000000000E+00 0. -1.
         11    1    4    4    0    0 -0.10748120686E+03  0.37842717045E+02 -0.31249286175E+02  0.11815582486E+03  0.00000000000E+00 0.  1.
</event>
<event>
 8    1  0.6760442E-009  0.1102315E+03  0.7561462E-02  0.1260142E+00
          2   -1    0    0  501    0  0.00000000000E+00  0.00000000000E+00  0.82934216961E+03  0.82934216961E+03  0.00000000000E+00 0.  1.
         -2   -1    0    0    0  501 -0.00000000000E+00 -0.00000000000E+00 -0.22253452380E+02  0.22253452380E+02  0.00000000000E+00 0. -1.
         25    2    1    2    0    0 -0.62747821344E+02  0.41708851630E+02  0.54196320679E+03  0.56129225244E+03  0.12509179731E+03 0.  0.
         23    2    1    2    0    0  0.62747821344E+02 -0.41708851630E+02  0.26512551044E+03  0.29030336954E+03  0.91145996589E+02 0.  0.
          5    1    3    3  502    0 -0.73298495417E+02  0.49473976972E+02  0.19612669181E+03  0.21518247017E+03  0.41800000000E+01 0. -1.
         -5    1    3    3    0  502  0.10550674074E+02 -0.77651253418E+01  0.34583651497E+03  0.34610978227E+03  0.41800000000E+01 0. -1.
        -11    1    4    4    0    0  0.46213422507E+02  0.22838852062E+02  0.11052545054E+03  0.12195560176E+03  0.00000000000E+00 0. -1.
         11    1    4    4    0    0  0.16534398837E+02 -0.64547703692E+02  0.15460005990E+03  0.16834776778E+03  0.00000000000E+00 0.  1.
</event>
<event>
 8    1  0.6760442E-009  0.9510956E+02  0.7561462E-02  0.1290930E+00
         -2   -1    0    0    0  501 -0.00000000000E+00  0.00000000000E+00  0.42689717386E+02  0.42689717386E+02  0.00000000000E+00 0.  1.
          2   -1    0    0  501    0  0.00000000000E+00 -0.00000000000E+00 -0.34708095337E+03  0.34708095337E+03  0.00000000000E+00 0. -1.
         25    2    1    2    0    0 -0.26001868235E+02  0.19973445864E+02 -0.24174218547E+03  0.27415652275E+03  0.12508988386E+03 0.  0.
         23    2    1    2    0    0  0.26001868235E+02 -0.19973445864E+02 -0.62649050521E+02  0.11561414800E+03  0.91469623353E+02 0.  0.
          5    1    3    3  502    0 -0.53982498142E+02  0.40993548593E+02 -0.22520965360E+03  0.23522636249E+03  0.41800000000E+01 0. -1.
         -5    1    3    3    0  502  0.27980629907E+02 -0.21020102729E+02 -0.16532531863E+02  0.38930160269E+02  0.41800000000E+01 0. -1.
        -11    1    4    4    0    0 -0.80313596205E+01  0.27500384609E+02 -0.47164737135E+02  0.55184112931E+02  0.00000000000E+00 0. -1.
         11    1    4    4    0    0  0.34033227856E+02 -0.47473830472E+02 -0.15484313386E+02  0.60430035074E+02  0.00000000000E+00 0.  1.
</event>
<event>
 8    1  0.6760442E-009  0.1542340E+03  0.7561462E-02  0.1195365E+00
          1   -1    0    0  501    0  0.00000000000E+00  0.00000000000E+00  0.34816820408E+04  0.34816820408E+04  0.00000000000E+00 0. -1.
         -1   -1    0    0    0  501 -0.00000000000E+00 -0.00000000000E+00 -0.13093458545E+02  0.13093458545E+02  0.00000000000E+00 0.  1.
         25    2    1    2    0    0  0.39614006873E+02 -0.10718228339E+03  0.29750274550E+04  0.29798481333E+04  0.12509687479E+03 0.  0.
         23    2    1    2    0    0 -0.39614006873E+02  0.10718228339E+03  0.49356112722E+03  0.51492736602E+03  0.92142794385E+02 0.  0.
          5    1    3    3  502    0  0.65157638942E+02 -0.11203703106E+02  0.15096414132E+04  0.15110942094E+04  0.41800000000E+01 0. -1.
         -5    1    3    3    0  502 -0.25543632069E+02 -0.95978580281E+02  0.14653860418E+04  0.14687539239E+04  0.41800000000E+01 0. -1.
        -11    1    4    4    0    0  0.18657724925E+02  0.72806318828E+02  0.19961129535E+03  0.21329214704E+03  0.00000000000E+00 0. -1.
         11    1    4    4    0    0 -0.58271731797E+02  0.34375964559E+02  0.29394983188E+03  0.30163521898E+03  0.00000000000E+00 0.  1.
</event>
<event>
 8    1  0.6760442E-009  0.1796416E+03  0.7561462E-02  0.1168150E+00
          1   -1    0    0  501    0  0.00000000000E+00  0.00000000000E+00  0.55866371970E+03  0.55866371970E+03  0.00000000000E+00 0. -1.
         -1   -1    0    0    0  501 -0.00000000000E+00 -0.00000000000E+00 -0.67160394613E+02  0.67160394613E+02  0.00000000000E+00 0.  1.
         25    2    1    2    0    0  0.14128440432E+03  0.70558805463E+02  0.21502284688E+03  0.29465450525E+03  0.12508646950E+03 0.  0.
         23    2    1    2    0    0 -0.14128440432E+03 -0.70558805463E+02  0.27648047821E+03  0.33116960907E+03  0.91060568892E+02 0.  0.
          5    1    3    3  502    0  0.75047353790E+01 -0.31598094996E+02  0.28928690266E+02  0.43693273865E+02  0.41800000000E+01 0.  1.
         -5    1    3    3    0  502  0.13377966894E+03  0.10215690046E+03  0.18609415662E+03  0.25096123139E+03  0.41800000000E+01 0.  1.
        -11    1    4    4    0    0 -0.58894422022E+02 -0.34219000237E+02  0.20554657781E+03  0.21653842286E+03  0.00000000000E+00 0. -1.
         11    1    4    4    0    0 -0.82389982294E+02 -0.36339805226E+02  0.70933900394E+02  0.11463118621E+03  0.00000000000E+00 0.  1.
</event>
<event>
 8    1  0.6760442E-009  0.1169559E+03  0.7561462E-02  0.1248205E+00
          1   -1    0    0  501    0  0.00000000000E+00  0.00000000000E+00  0.91723308082E+03  0.91723308082E+03  0.00000000000E+00 0. -1.
         -1   -1    0    0    0  501 -0.00000000000E+00 -0.00000000000E+00 -0.20919114994E+02  0.20919114994E+02  0.00000000000E+00 0.  1.
         25    2    1    2    0    0  0.35640032947E+02 -0.40333902867E+02  0.70792815695E+03  0.72090942785E+03  0.12510432478E+03 0.  0.
         23    2    1    2    0    0 -0.35640032947E+02  0.40333902867E+02  0.18838580887E+03  0.21724276796E+03  0.93851859763E+02 0.  0.
          5    1    3    3  502    0  0.71790451860E+02 -0.56551676492E+02  0.39503593600E+03  0.40549084358E+03  0.41800000000E+01 0. -1.
         -5    1    3    3    0  502 -0.36150418912E+02  0.16217773625E+02  0.31289222096E+03  0.31541858427E+03  0.41800000000E+01 0. -1.
        -11    1    4    4    0    0  0.22725223024E+02  0.37874004229E+02  0.48223397078E+02  0.65393975132E+02  0.00000000000E+00 0.  1.
         11    1    4    4    0    0 -0.58365255971E+02  0.24598986378E+01  0.14016241179E+03  0.15184879283E+03  0.00000000000E+00 0. -1.
</event>
<event>
 8    1  0.6760442E-009  0.1115904E+03  0.7561462E-02  0.1257653E+00
         -1   -1    0    0    0  501 -0.00000000000E+00  0.00000000000E+00  0.32159672530E+02  0.32159672530E+02  0.00000000000E+00 0.  1.
          1   -1    0    0  501    0  0.00000000000E+00 -0.00000000000E+00 -0.58856733175E+03  0.58856733175E+03  0.00000000000E+00 0. -1.
         25    2    1    2    0    0  0.61010292959E+02  0.57197253149E+02 -0.35727288709E+03  0.38766651453E+03  0.12509048336E+03 0.  0.
         23    2    1    2    0    0 -0.61010292959E+02 -0.57197253149E+02 -0.19913477213E+03  0.23306048974E+03  0.87571415391E+02 0.  0.
          5    1    3    3  502    0 -0.11651697145E+02  0.24922776339E+02 -0.26214274657E+03  0.26361562701E+03  0.41800000000E+01 0.  1.
         -5    1    3    3    0  502  0.72661990105E+02  0.32274476810E+02 -0.95130140520E+02  0.12405088752E+03  0.41800000000E+01 0.  1.
        -11    1    4    4    0    0 -0.63099119348E+02 -0.47829100248E+01 -0.73947209250E+02  0.97327102324E+02  0.00000000000E+00 0.  1.
         11    1    4    4    0    0  0.20888263888E+01 -0.52414343124E+02 -0.12518756288E+03  0.13573338742E+03  0.00000000000E+00 0. -1.
</event>
<event>
 8    1  0.6760442E-009  0.9457852E+02  0.7561462E-02  0.1292128E+00
         -2   -1    0    0    0  501 -0.00000000000E+00  0.00000000000E+00  0.13353278190E+02  0.13353278190E+02  0.00000000000E+00 0.  1.
          2   -1    0    0  501    0  0.00000000000E+00 -0.00000000000E+00 -0.12539898562E+04  0.12539898562E+04  0.00000000000E+00 0. -1.
         25    2    1    2    0    0 -0.52206854581E+02 -0.41142554099E+02 -0.79094631550E+03  0.80353039519E+03  0.12508699601E+03 0.  0.
         23    2    1    2    0    0  0.52206854581E+02  0.41142554099E+02 -0.44969026254E+03  0.46381273923E+03  0.92101354082E+02 0.  0.
          5    1    3    3  502    0 -0.24063067293E+02 -0.43465345979E+02 -0.75920463348E+03  0.76083994073E+03  0.41800000000E+01 0. -1.
         -5    1    3    3    0  502 -0.28143787287E+02  0.23227918796E+01 -0.31741682023E+02  0.42690454467E+02  0.41800000000E+01 0. -1.
        -11    1    4    4    0    0  0.48665484408E+02 -0.17714403598E+02 -0.15965882984E+03  0.16784835838E+03  0.00000000000E+00 0.  1.
         11    1    4    4    0    0  0.35413701726E+01  0.58856957697E+02 -0.29003143271E+03  0.29596438085E+03  0.00000000000E+00 0. -1.
</event>
<event>
 8    1  0.6760442E-009  0.1115032E+03  0.7561462E-02  0.1257811E+00
         -2   -1    0    0    0  501 -0.00000000000E+00  0.00000000000E+00  0.17088823556E+02  0.17088823556E+02  0.00000000000E+00 0.  1.
          2   -1    0    0  501    0  0.00000000000E+00 -0.00000000000E+00 -0.13181580513E+04  0.13181580513E+04  0.00000000000E+00 0. -1.
         25    2    1    2    0    0  0.13074210066E+02 -0.74853604978E+02 -0.10127772797E+04  0.10232983646E+04  0.12509087760E+03 0.  0.
         23    2    1    2    0    0 -0.13074210066E+02  0.74853604978E+02 -0.28829194810E+03  0.31194851027E+03  0.91791222743E+02 0.  0.
          5    1    3    3  502    0  0.55266978698E+02  0.44991065613E+01 -0.43956991001E+03  0.44307319834E+03  0.41800000000E+01 0. -1.
         -5    1    3    3    0  502 -0.42192768632E+02 -0.79352711539E+02 -0.57320736967E+03  0.58022516630E+03  0.41800000000E+01 0. -1.
        -11    1    4    4    0    0  0.25469874150E+01  0.26341275512E+02 -0.88615841594E+01  0.27908378926E+02  0.00000000000E+00 0.  1.
         11    1    4    4    0    0 -0.15621197481E+02  0.48512329466E+02 -0.27943036395E+03  0.28404013135E+03  0.00000000000E+00 0. -1.
</event>
<event>
 8    1  0.6760442E-009  0.2194291E+03  0.7561462E-02  0.1134309E+00
          1   -1    0    0  501    0  0.00000000000E+00  0.00000000000E+00  0.60172168272E+03  0.60172168272E+03  0.00000000000E+00 0. -1.
         -1   -1    0    0    0  501 -0.00000000000E+00 -0.00000000000E+00 -0.99703027904E+02  0.99703027904E+02  0.00000000000E+00 0.  1.
         25    2    1    2    0    0  0.37534121301E+02 -0.19867557298E+03  0.13764968424E+03  0.27472510239E+03  0.12508258372E+03 0.  0.
         23    2    1    2    0    0 -0.37534121301E+02  0.19867557298E+03  0.36436897058E+03  0.42669960824E+03  0.91798776625E+02 0.  0.
          5    1    3    3  502    0  0.82554890072E+02 -0.12531358486E+03  0.72603232737E+02  0.16675582817E+03  0.41800000000E+01 0.  1.
         -5    1    3    3    0  502 -0.45020768770E+02 -0.73361988124E+02  0.65046451502E+02  0.10796927422E+03  0.41800000000E+01 0.  1.
        -11    1    4    4    0    0 -0.12180277242E+02  0.97472791467E+02  0.26499718053E+03  0.28261778061E+03  0.00000000000E+00 0.  1.
         11    1    4    4    0    0 -0.25353844060E+02  0.10120278151E+03  0.99371790052E+02  0.14408182763E+03  0.00000000000E+00 0. -1.
</event>
<event>
 8    1  0.6760442E-009  0.9395997E+02  0.7561462E-02  0.1293536E+00
          2   -1    0    0  501    0  0.00000000000E+00  0.00000000000E+00  0.16764777202E+03  0.16764777202E+03  0.00000000000E+00 0. -1.
         -2   -1    0    0    0  501 -0.00000000000E+00 -0.00000000000E+00 -0.11503394477E+03  0.11503394477E+03  0.00000000000E+00 0.  1.
         25    2    1    2    0    0  0.20388040489E+02 -0.35277635368E+02  0.10626305096E+03  0.16911018376E+03  0.12508490917E+03 0.  0.
         23    2    1    2    0    0 -0.20388040489E+02  0.35277635368E+02 -0.53649223707E+02  0.11357153303E+03  0.91433419259E+02 0.  0.
          5    1    3    3  502    0 -0.76343840602E+00  0.37380600607E+02  0.80848062255E+02  0.89172718420E+02  0.41800000000E+01 0. -1.
         -5    1    3    3    0  502  0.21151478895E+02 -0.72658235975E+02  0.25414988700E+02  0.79937465340E+02  0.41800000000E+01 0. -1.
        -11    1    4    4    0    0  0.13985746613E+02  0.37540148222E+02 -0.65806310880E+02  0.77041121412E+02  0.00000000000E+00 0.  1.
         11    1    4    4    0    0 -0.34373787102E+02 -0.22625128544E+01  0.12157087172E+02  0.36530411614E+02  0.00000000000E+00 0. -1.
</event>
<event>
 8    1  0.6760442E-009  0.2344487E+03  0.7561462E-02  0.1123547E+00
         -1   -1    0    0    0  501 -0.00000000000E+00  0.00000000000E+00  0.92200764784E+02  0.92200764784E+02  0.00000000000E+00 0.  1.
          1   -1    0    0  501    0  0.00000000000E+00 -0.00000000000E+00 -0.61206328740E+03  0.61206328740E+03  0.00000000000E+00 0. -1.
         25    2    1    2    0    0 -0.13762685519E+03  0.15799444735E+03 -0.23438165146E+03  0.33835736107E+03  0.12509016182E+03 0.  0.
         23    2    1    2    0    0  0.13762685519E+03 -0.15799444735E+03 -0.28548087116E+03  0.36590669112E+03  0.92113962829E+02 0.  0.
          5    1    3    3  502    0 -0.12391422276E+03  0.48691079104E+02 -0.11650467812E+03  0.17696431338E+03  0.41800000000E+01 0.  1.
         -5    1    3    3    0  502 -0.13712632428E+02  0.10930336824E+03 -0.11787697334E+03  0.16139304769E+03  0.41800000000E+01 0.  1.
        -11    1    4    4    0    0  0.14503122780E+03 -0.12446162538E+03 -0.26203516887E+03  0.32432573588E+03  0.00000000000E+00 0. -1.
         11    1    4    4    0    0 -0.74043726093E+01 -0.33532821971E+02 -0.23445702284E+02  0.41580955240E+02  0.00000000000E+00 0.  1.
</event>
<event>
 8    1  0.6760442E-009  0.2202937E+03  0.7561462E-02  0.1133664E+00
          2   -1    0    0  501    0  0.00000000000E+00  0.00000000000E+00  0.18437777906E+04  0.18437777906E+04  0.00000000000E+00 0. -1.
         -2   -1    0    0    0  501 -0.00000000000E+00 -0.00000000000E+00 -0.32723102415E+02  0.32723102415E+02  0.00000000000E+00 0.  1.
         25    2    1    2    0    0  0.31300710833E+02 -0.21624286184E+03  0.79477409302E+03  0.83369891144E+03  0.12508919298E+03 0.  0.
         23    2    1    2    0    0 -0.31300710833E+02  0.21624286184E+03  0.10162805952E+04  0.10428019816E+04  0.82879520252E+02 0.  0.
          5    1    3    3  502    0  0.21506115819E+02 -0.86373533636E+02  0.13904426577E+03  0.16514745101E+03  0.41800000000E+01 0. -1.
         -5    1    3    3    0  502  0.97945950142E+01 -0.12986932821E+03  0.65572982724E+03  0.66855146043E+03  0.41800000000E+01 0. -1.
        -11    1    4    4    0    0 -0.37943902911E+02  0.15524304976E+03  0.86342169067E+03  0.87808721673E+03  0.00000000000E+00 0. -1.
         11    1    4    4    0    0  0.66431920778E+01  0.60999812084E+02  0.15285890450E+03  0.16471476485E+03  0.00000000000E+00 0.  1.
</event>
<event>
 8    1  0.6760442E-009  0.1249469E+03  0.7561462E-02  0.1235152E+00
         -1   -1    0    0    0  501 -0.00000000000E+00  0.00000000000E+00  0.57650472920E+03  0.57650472920E+03  0.00000000000E+00 0.  1.
          1   -1    0    0  501    0  0.00000000000E+00 -0.00000000000E+00 -0.30714087608E+02  0.30714087608E+02  0.00000000000E+00 0. -1.
         25    2    1    2    0    0  0.46997787523E+02 -0.55867274924E+02  0.34849238362E+03  0.37739274688E+03  0.12509356305E+03 0.  0.
         23    2    1    2    0    0 -0.46997787523E+02  0.55867274924E+02  0.19729825797E+03  0.22982606993E+03  0.92539047865E+02 0.  0.
          5    1    3    3  502    0  0.13435990340E+02 -0.93299975895E+02  0.23101889114E+03  0.24954480921E+03  0.41800000000E+01 0. -1.
         -5    1    3    3    0  502  0.33561797183E+02  0.37432700971E+02  0.11747349248E+03  0.12784793767E+03  0.41800000000E+01 0. -1.
        -11    1    4    4    0    0 -0.55899872006E+02  0.80801521335E+01  0.15644803522E+03  0.16633121256E+03  0.00000000000E+00 0.  1.
         11    1    4    4    0    0  0.89020844830E+01  0.47787122791E+02  0.40850222754E+02  0.63494857365E+02  0.00000000000E+00 0. -1.
</event>
<event>
 8    1  0.6760442E-009  0.1810184E+03  0.7561462E-02  0.1166821E+00
         -1   -1    0    0    0  501 -0.00000000000E+00  0.00000000000E+00  0.40074829723E+02  0.40074829723E+02  0.00000000000E+00 0.  1.
          1   -1    0    0  501    0  0.00000000000E+00 -0.00000000000E+00 -0.90008318256E+03  0.90008318256E+03  0.00000000000E+00 0. -1.
         25    2    1    2    0    0  0.12515830578E+03  0.81415045869E+02 -0.34967587255E+03  0.40026781938E+03  0.12509236663E+03 0.  0.
         23    2    1    2    0    0 -0.12515830578E+03 -0.81415045869E+02 -0.51033248029E+03  0.53989019290E+03  0.93536991378E+02 0.  0.
          5    1    3    3  502    0  0.97376303587E+02 -0.66688495755E+01 -0.22281171828E+03  0.24328820821E+03  0.41800000000E+01 0. -1.
         -5    1    3    3    0  502  0.27782002192E+02  0.88083895445E+02 -0.12686415428E+03  0.15697961117E+03  0.41800000000E+01 0. -1.
        -11    1    4    4    0    0 -0.32585913087E+02 -0.71760598657E+02 -0.29410161420E+03  0.30447854559E+03  0.00000000000E+00 0.  1.
         11    1    4    4    0    0 -0.92572392693E+02 -0.96544472120E+01 -0.21623086609E+03  0.23541164731E+03  0.00000000000E+00 0. -1.
</event>
<event>
 8    1  0.6760442E-009  0.9282884E+02  0.7561462E-02  0.1296142E+00
          2   -1    0    0  501    0  0.00000000000E+00  0.00000000000E+00  0.21302765016E+03  0.21302765016E+03  0.00000000000E+00 0. -1.
         -2   -1    0    0    0  501 -0.00000000000E+00 -0.00000000000E+00 -0.10158736286E+03  0.10158736286E+03  0.00000000000E+00 0.  1.
         25    2    1    2    0    0  0.74771063305E+02  0.16440646109E+02  0.12987443137E+03  0.19589710420E+03  0.12508917122E+03 0.  0.
         23    2    1    2    0    0 -0.74771063305E+02 -0.16440646109E+02 -0.18434144077E+02  0.11871790882E+03  0.88843218390E+02 0.  0.
          5    1    3    3  502    0  0.25102216042E+02  0.42158932031E+02 -0.53191653320E+01  0.49530422167E+02  0.41800000000E+01 0. -1.
         -5    1    3    3    0  502  0.49668847263E+02 -0.25718285922E+02  0.13519359671E+03  0.14636668203E+03  0.41800000000E+01 0. -1.
        -11    1    4    4    0    0 -0.60745407580E+02 -0.22854912618E+02 -0.51093026660E+02  0.82600538413E+02  0.00000000000E+00 0.  1.
         11    1    4    4    0    0 -0.14025655725E+02  0.64142665089E+01  0.32658882583E+02  0.36117370405E+02  0.00000000000E+00 0. -1.
</event>
<event>
 8    1  0.6760442E-009  0.9617773E+02  0.7561462E-02  0.1288545E+00
          1   -1    0    0  501    0  0.00000000000E+00  0.00000000000E+00  0.20052051619E+03  0.20052051619E+03  0.00000000000E+00 0. -1.
         -1   -1    0    0    0  501 -0.00000000000E+00 -0.00000000000E+00 -0.79136872918E+02  0.79136872918E+02  0.00000000000E+00 0.  1.
         25    2    1    2    0    0 -0.38292465079E+02  0.39720639469E+02  0.10349394616E+03  0.17147121613E+03  0.12508932404E+03 0.  0.
         23    2    1    2    0    0  0.38292465079E+02 -0.39720639469E+02  0.17889697111E+02  0.10818617297E+03  0.91324502071E+02 0.  0.
          5    1    3    3  502    0  0.33336072568E+02  0.53633713364E+02  0.42004426158E+02  0.75958627952E+02  0.41800000000E+01 0.  1.
         -5    1    3    3    0  502 -0.71628537647E+02 -0.13913073896E+02  0.61489519999E+02  0.95512588178E+02  0.41800000000E+01 0.  1.
        -11    1    4    4    0    0  0.10352432381E+02 -0.17283997286E+02  0.53804172867E+02  0.57452575541E+02  0.00000000000E+00 0. -1.
         11    1    4    4    0    0  0.27940032699E+02 -0.22436642183E+02 -0.35914475756E+02  0.50733597433E+02  0.00000000000E+00 0.  1.
</event>
<event>
 8    1  0.6760442E-009  0.1540318E+03  0.7561462E-02  0.1195604E+00
         -1   -1    0    0    0  501 -0.00000000000E+00  0.00000000000E+00  0.35808477950E+02  0.35808477950E+02  0.00000000000E+00 0.  1.
          1   -1    0    0  501    0  0.00000000000E+00 -0.00000000000E+00 -0.67793474368E+03  0.67793474368E+03  0.00000000000E+00 0. -1.
         25    2    1    2    0    0  0.92277778564E+02 -0.61284848963E+02 -0.37450629014E+03  0.41008963424E+03  0.12509007005E+03 0.  0.
         23    2    1    2    0    0 -0.92277778564E+02  0.61284848963E+02 -0.26761997559E+03  0.30365358739E+03  0.91181295626E+02 0.  0.
          5    1    3    3  502    0  0.47403228736E+02 -0.97066406451E+02 -0.26901733112E+03  0.28992542178E+03  0.41800000000E+01 0. -1.
         -5    1    3    3    0  502  0.44874549828E+02  0.35781557488E+02 -0.10548895903E+03  0.12016421245E+03  0.41800000000E+01 0. -1.
        -11    1    4    4    0    0 -0.38658111137E+02  0.77322165251E+02 -0.18003506171E+03  0.19971427150E+03  0.00000000000E+00 0.  1.
         11    1    4    4    0    0 -0.53619667427E+02 -0.16037316288E+02 -0.87584913876E+02  0.10393931589E+03  0.00000000000E+00 0. -1.
</event>
<event>
 8    1  0.6760442E-009  0.1512266E+03  0.7561462E-02  0.1198974E+00
         -2   -1    0    0    0  501 -0.00000000000E+00  0.00000000000E+00  0.18587346620E+02  0.18587346620E+02  0.00000000000E+00 0.  1.
          2   -1    0    0  501    0  0.00000000000E+00 -0.00000000000E+00 -0.14332347226E+04  0.14332347226E+04  0.00000000000E+00 0. -1.
         25    2    1    2    0    0  0.78391491259E+02  0.87632571111E+02 -0.64055398420E+03  0.66316012816E+03  0.12508899026E+03 0.  0.
         23    2    1    2    0    0 -0.78391491259E+02 -0.87632571111E+02 -0.77409339176E+03  0.78866194104E+03  0.94564182742E+02 0.  0.
          5    1    3    3  502    0 -0.22457379497E+02  0.17415613541E+02 -0.29475808599E+03  0.29615441773E+03  0.41800000000E+01 0. -1.
         -5    1    3    3    0  502  0.10084887076E+03  0.70216957570E+02 -0.34579589821E+03  0.36700571042E+03  0.41800000000E+01 0. -1.
        -11    1    4    4    0    0  0.18609458158E+02 -0.36848431239E+02 -0.19842682669E+03  0.20267541629E+03  0.00000000000E+00 0. -1.
         11    1    4    4    0    0 -0.97000949418E+02 -0.50784139872E+02 -0.57566656507E+03  0.58598652475E+03  0.00000000000E+00 0.  1.
</event>
<event>
 8    1  0.6760442E-009  0.2828264E+03  0.7561462E-02  0.1094155E+00
          1   -1    0    0  501    0  0.00000000000E+00  0.00000000000E+00  0.86946507895E+03  0.86946507895E+03  0.00000000000E+00 0. -1.
         -1   -1    0    0    0  501 -0.00000000000E+00 -0.00000000000E+00 -0.11692242515E+03  0.11692242515E+03  0.00000000000E+00 0.  1.
         25    2    1    2    0    0  0.23465141109E+02  0.26481664248E+03  0.16967157003E+03  0.33928721350E+03  0.12509558178E+03 0.  0.
         23    2    1    2    0    0 -0.23465141109E+02 -0.26481664248E+03  0.58287108376E+03  0.64710029061E+03  0.91222907387E+02 0.  0.
          5    1    3    3  502    0 -0.29226405150E+02  0.71095582993E+01  0.22965921831E+02  0.38074066538E+02  0.41800000000E+01 0. -1.
         -5    1    3    3    0  502  0.52691546259E+02  0.25770708419E+03  0.14670564820E+03  0.30121314696E+03  0.41800000000E+01 0. -1.
        -11    1    4    4    0    0 -0.43174989058E+02 -0.17316563072E+03  0.45334495342E+03  0.48720843808E+03  0.00000000000E+00 0.  1.
         11    1    4    4    0    0  0.19709847949E+02 -0.91651011762E+02  0.12952613034E+03  0.15989185253E+03  0.00000000000E+00 0. -1.
</event>
<event>
 8    1  0.6760442E-009  0.1265778E+03  0.7561462E-02  0.1232624E+00
          2   -1    0    0  501    0  0.00000000000E+00  0.00000000000E+00  0.12974404810E+03  0.12974404810E+03  0.00000000000E+00 0. -1.
         -2   -1    0    0    0  501 -0.00000000000E+00 -0.00000000000E+00 -0.18389928302E+03  0.18389928302E+03  0.00000000000E+00 0.  1.
         25    2    1    2    0    0 -0.10330921136E+03  0.36500982123E+02 -0.36017032199E+02  0.17014673913E+03  0.12509025294E+03 0.  0.
         23    2    1    2    0    0  0.10330921136E+03 -0.36500982123E+02 -0.18138202720E+02  0.14349659199E+03  0.90868931242E+02 0.  0.
          5    1    3    3  502    0 -0.78750252824E+02  0.34747689190E+02 -0.81273999885E+02  0.11845648856E+03  0.41800000000E+01 0. -1.
         -5    1    3    3    0  502 -0.24558958540E+02  0.17532929331E+01  0.45256967685E+02  0.51690250577E+02  0.41800000000E+01 0. -1.
        -11    1    4    4    0    0 -0.58431257794E+01 -0.32244422511E+02 -0.83938580671E+01  0.33827529546E+02  0.00000000000E+00 0. -1.
         11    1    4    4    0    0  0.10915233714E+03 -0.42565596119E+01 -0.97443446531E+01  0.10966906244E+03  0.00000000000E+00 0.  1.
</event>
<event>
 8    1  0.6760442E-009  0.8209106E+02  0.7561462E-02  0.1323220E+00
          1   -1    0    0  501    0  0.00000000000E+00  0.00000000000E+00  0.25415567912E+03  0.25415567912E+03  0.00000000000E+00 0. -1.
         -1   -1    0    0    0  501 -0.00000000000E+00 -0.00000000000E+00 -0.61322309869E+02  0.61322309869E+02  0.00000000000E+00 0.  1.
         25    2    1    2    0    0  0.45736571358E+02 -0.25390709743E+02  0.14626878853E+03  0.19944275750E+03  0.12508530258E+03 0.  0.
         23    2    1    2    0    0 -0.45736571358E+02  0.25390709743E+02  0.46564580730E+02  0.11603523150E+03  0.92516985842E+02 0.  0.
          5    1    3    3  502    0 -0.28859940896E+02 -0.17946454802E+02  0.11161305385E+03  0.11674723816E+03  0.41800000000E+01 0. -1.
         -5    1    3    3    0  502  0.74596512255E+02 -0.74442549414E+01  0.34655734674E+02  0.82695519334E+02  0.41800000000E+01 0. -1.
        -11    1    4    4    0    0 -0.21254215339E+02  0.21199166074E+02 -0.25764841609E+02  0.39559744376E+02  0.00000000000E+00 0.  1.
         11    1    4    4    0    0 -0.24482356020E+02  0.41915436685E+01  0.72329422339E+02  0.76475487122E+02  0.00000000000E+00 0. -1.
</event>
<event>
 8    1  0.6760442E-009  0.1209756E+03  0.7561462E-02  0.1241496E+00
          2   -1    0    0  501    0  0.00000000000E+00  0.00000000000E+00  0.40636134250E+03  0.40636134250E+03  0.00000000000E+00 0.  1.
         -2   -1    0    0    0  501 -0.00000000000E+00 -0.00000000000E+00 -0.52047831987E+02  0.52047831987E+02  0.00000000000E+00 0. -1.
         25    2    1    2    0    0  0.69970263861E+02 -0.57547116091E+02  0.14073515747E+03  0.20896654947E+03  0.12511245282E+03 0.  0.
         23    2    1    2    0    0 -0.69970263861E+02  0.57547116091E+02  0.21357835304E+03  0.24944262502E+03  0.91642795112E+02 0.  0.
          5    1    3    3  502    0  0.28203397975E+02 -0.71974558682E+02  0.19460335619E+02  0.79824468788E+02  0.41800000000E+01 0. -1.
         -5    1    3    3    0  502  0.41766865886E+02  0.14427442592E+02  0.12127482186E+03  0.12914208068E+03  0.41800000000E+01 0. -1.
        -11    1    4    4    0    0 -0.37242692246E+01  0.53660417668E+02  0.14194757747E+03  0.15179731669E+03  0.00000000000E+00 0.  1.
         11    1    4    4    0    0 -0.66245994637E+02  0.38866984231E+01  0.71630775567E+02  0.97645308327E+02  0.00000000000E+00 0. -1.
</event>
<event>
 8    1  0.6760442E-009  0.1006368E+03  0.7561462E-02  0.1278962E+00
         -2   -1    0    0    0  501 -0.00000000000E+00  0.00000000000E+00  0.10698636663E+03  0.10698636663E+03  0.00000000000E+00 0.  1.
          2   -1    0    0  501    0  0.00000000000E+00 -0.00000000000E+00 -0.11471093983E+03  0.11471093983E+03  0.00000000000E+00 0. -1.
         25    2    1    2    0    0  0.60218810946E+02 -0.74056546065E+01 -0.94148814327E+01  0.13934865411E+03  0.12509299940E+03 0.  0.
         23    2    1    2    0    0 -0.60218810946E+02  0.74056546065E+01  0.16903082376E+01  0.82348652348E+02  0.55653342126E+02 0.  0.
          5    1    3    3  502    0  0.27592353192E+02 -0.64929269635E+02  0.71852534039E+01  0.71036950078E+02  0.41800000000E+01 0. -1.
         -5    1    3    3    0  502  0.32626457754E+02  0.57523615028E+02 -0.16600134837E+02  0.68311704034E+02  0.41800000000E+01 0. -1.
        -11    1    4    4    0    0 -0.46068962528E+02 -0.38879852505E+01  0.25216793602E+02  0.52662628279E+02  0.00000000000E+00 0.  1.
         11    1    4    4    0    0 -0.14149848418E+02  0.11293639857E+02 -0.23526485364E+02  0.29686024069E+02  0.00000000000E+00 0. -1.
</event>
<event>
 8    1  0.6760442E-009  0.1145613E+03  0.7561462E-02  0.1252349E+00
         -2   -1    0    0    0  501 -0.00000000000E+00  0.00000000000E+00  0.23211979581E+02  0.23211979581E+02  0.00000000000E+00 0.  1.
          2   -1    0    0  501    0  0.00000000000E+00 -0.00000000000E+00 -0.65109397163E+03  0.65109397163E+03  0.00000000000E+00 0. -1.
         25    2    1    2    0    0  0.33929591719E+02  0.44964257704E+02 -0.33374846860E+03  0.36084630198E+03  0.12509600991E+03 0.  0.
         23    2    1    2    0    0 -0.33929591719E+02 -0.44964257704E+02 -0.29413352344E+03  0.31345964923E+03  0.92571164054E+02 0.  0.
          5    1    3    3  502    0  0.79485075368E+02  0.31049033130E+02 -0.17003323892E+03  0.19029107810E+03  0.41800000000E+01 0.  1.
         -5    1    3    3    0  502 -0.45555483650E+02  0.13915224573E+02 -0.16371522968E+03  0.17055522388E+03  0.41800000000E+01 0.  1.
        -11    1    4    4    0    0  0.19677743159E+02 -0.36681503310E+02 -0.59356758702E+02  0.72498076282E+02  0.00000000000E+00 0.  1.
         11    1    4    4    0    0 -0.53607334878E+02 -0.82827543934E+01 -0.23477676474E+03  0.24096157294E+03  0.00000000000E+00 0. -1.
</event>
<event>
 8    1  0.6760442E-009  0.1291109E+03  0.7561462E-02  0.1228781E+00
          1   -1    0    0  501    0  0.00000000000E+00  0.00000000000E+00  0.11200275367E+03  0.11200275367E+03  0.00000000000E+00 0. -1.
         -1   -1    0    0    0  501 -0.00000000000E+00 -0.00000000000E+00 -0.26999140319E+03  0.26999140319E+03  0.00000000000E+00 0.  1.
         25    2    1    2    0    0  0.59981631534E+02 -0.64582239805E+02 -0.19802449490E+03  0.25025884645E+03  0.12508847999E+03 0.  0.
         23    2    1    2    0    0 -0.59981631534E+02  0.64582239805E+02  0.40035845385E+02  0.13173531041E+03  0.89345740095E+02 0.  0.
          5    1    3    3  502    0  0.77120040571E+02 -0.78667742589E+02 -0.97315013256E+02  0.14705032671E+03  0.41800000000E+01 0.  1.
         -5    1    3    3    0  502 -0.17138409037E+02  0.14085502784E+02 -0.10070948164E+03  0.10320851973E+03  0.41800000000E+01 0.  1.
        -11    1    4    4    0    0 -0.29783771150E+02  0.84254538777E+02  0.26136254652E+02  0.93107487002E+02  0.00000000000E+00 0.  1.
         11    1    4    4    0    0 -0.30197860384E+02 -0.19672298972E+02  0.13899590734E+02  0.38627823407E+02  0.00000000000E+00 0. -1.
</event>
<event>
 8    1  0.6760442E-009  0.1141878E+03  0.7561462E-02  0.1253005E+00
          1   -1    0    0  501    0  0.00000000000E+00  0.00000000000E+00  0.64013398405E+03  0.64013398405E+03  0.00000000000E+00 0. -1.
         -1   -1    0    0    0  501 -0.00000000000E+00 -0.00000000000E+00 -0.33492315452E+02  0.33492315452E+02  0.00000000000E+00 0.  1.
         25    2    1    2    0    0  0.58046747241E+02 -0.41232519424E+02  0.48503829432E+03  0.50594238160E+03  0.12508397587E+03 0.  0.
         23    2    1    2    0    0 -0.58046747241E+02  0.41232519424E+02  0.12160337428E+03  0.16768391790E+03  0.90889879324E+02 0.  0.
          5    1    3    3  502    0  0.80391309666E+02 -0.54422015760E+02  0.23178453016E+03  0.25132858829E+03  0.41800000000E+01 0. -1.
         -5    1    3    3    0  502 -0.22344562426E+02  0.13189496335E+02  0.25325376416E+03  0.25461379331E+03  0.41800000000E+01 0. -1.
        -11    1    4    4    0    0 -0.50187249766E+02  0.63715301589E+02  0.11859556499E+03  0.14367779137E+03  0.00000000000E+00 0.  1.
         11    1    4    4    0    0 -0.78594974750E+01 -0.22482782165E+02  0.30078092818E+01  0.24006126533E+02  0.00000000000E+00 0. -1.
</event>
<event>
 8    1  0.6760442E-009  0.9808390E+02  0.7561462E-02  0.1284378E+00
          1   -1    0    0  501    0  0.00000000000E+00  0.00000000000E+00  0.68955941971E+03  0.68955941971E+03  0.00000000000E+00 0. -1.
         -1   -1    0    0    0  501 -0.00000000000E+00 -0.00000000000E+00 -0.18084342987E+02  0.18084342987E+02  0.00000000000E+00 0.  1.
         25    2    1    2    0    0 -0.53415276250E+01  0.27900976962E+02  0.32077121033E+03  0.34546863378E+03  0.12508961234E+03 0.  0.
         23    2    1    2    0    0  0.53415276250E+01 -0.27900976962E+02  0.35070386640E+03  0.36217512892E+03  0.85852348083E+02 0.  0.
          5    1    3    3  502    0  0.26931446023E+02 -0.29925516810E+02  0.22708663805E+03  0.23066567348E+03  0.41800000000E+01 0. -1.
         -5    1    3    3    0  502 -0.32272973648E+02  0.57826493773E+02  0.93684572278E+02  0.11480296030E+03  0.41800000000E+01 0. -1.
        -11    1    4    4    0    0 -0.23036068285E+02 -0.48887117362E+02  0.18380711062E+03  0.19158722453E+03  0.00000000000E+00 0.  1.
         11    1    4    4    0    0  0.28377595910E+02  0.20986140399E+02  0.16689675577E+03  0.17058790439E+03  0.00000000000E+00 0. -1.
</event>
<event>
 8    1  0.6760442E-009  0.2737094E+03  0.7561462E-02  0.1099175E+00
          2   -1    0    0  501    0  0.00000000000E+00  0.00000000000E+00  0.12229940194E+04  0.12229940194E+04  0.00000000000E+00 0. -1.
         -2   -1    0    0    0  501 -0.00000000000E+00 -0.00000000000E+00 -0.68068484290E+02  0.68068484290E+02  0.00000000000E+00 0.  1.
         25    2    1    2    0    0  0.23848601593E+03 -0.10735050812E+03  0.71269730466E+03  0.76940502731E+03  0.12508771557E+03 0.  0.
         23    2    1    2    0    0 -0.23848601593E+03  0.10735050812E+03  0.44222823042E+03  0.52165747635E+03  0.90338272443E+02 0.  0.
          5    1    3    3  502    0 -0.10319146651E+02  0.57597057663E+01  0.12310776392E+02  0.17569479602E+02  0.41800000000E+01 0. -1.
         -5    1    3    3    0  502  0.24880516258E+03 -0.11311021389E+03  0.70038652827E+03  0.75183554770E+03  0.41800000000E+01 0. -1.
        -11    1    4    4    0    0 -0.13577383969E+03  0.62292158925E+02  0.33358858530E+03  0.36550812967E+03  0.00000000000E+00 0. -1.
         11    1    4    4    0    0 -0.10271217624E+03  0.45058349197E+02  0.10863964512E+03  0.15614934669E+03  0.00000000000E+00 0.  1.
</event>
<event>
 8    1  0.6760442E-009  0.1067591E+03  0.7561462E-02  0.1266692E+00
          2   -1    0    0  501    0  0.00000000000E+00  0.00000000000E+00  0.11488687510E+04  0.11488687510E+04  0.00000000000E+00 0. -1.
         -2   -1    0    0    0  501 -0.00000000000E+00 -0.00000000000E+00 -0.10876924013E+02  0.10876924013E+02  0.00000000000E+00 0.  1.
         25    2    1    2    0    0  0.77823520178E+01  0.51584262333E+01  0.75586377592E+03  0.76620170720E+03  0.12509130268E+03 0.  0.
         23    2    1    2    0    0 -0.77823520178E+01 -0.51584262333E+01  0.38212805107E+03  0.39354396781E+03  0.93636706605E+02 0.  0.
          5    1    3    3  502    0 -0.38964691237E+02 -0.42262497223E+02  0.30066852706E+03  0.30614277943E+03  0.41800000000E+01 0.  1.
         -5    1    3    3    0  502  0.46747043254E+02  0.47420923457E+02  0.45519524886E+03  0.46005892777E+03  0.41800000000E+01 0.  1.
        -11    1    4    4    0    0  0.30290189487E+02  0.26036870610E+02  0.23581166728E+03  0.23917055972E+03  0.00000000000E+00 0.  1.
         11    1    4    4    0    0 -0.38072541505E+02 -0.31195296844E+02  0.14631638379E+03  0.15437340809E+03  0.00000000000E+00 0. -1.
</event>
<event>
 8    1  0.6760442E-009  0.9866160E+02  0.7561462E-02  0.1283136E+00
         -1   -1    0    0    0  501 -0.00000000000E+00  0.00000000000E+00  0.21843020507E+03  0.21843020507E+03  0.00000000000E+00 0.  1.
          1   -1    0    0  501    0  0.00000000000E+00 -0.00000000000E+00 -0.71090622106E+02  0.71090622106E+02  0.00000000000E+00 0. -1.
         25    2    1    2    0    0  0.53496521548E+02 -0.35557646382E+02  0.77011591729E+02  0.16032608102E+03  0.12508973963E+03 0.  0.
         23    2    1    2    0    0 -0.53496521548E+02  0.35557646382E+02  0.70327991233E+02  0.12919474616E+03  0.87287066908E+02 0.  0.
          5    1    3    3  502    0 -0.15378584058E+02  0.16692814020E+02 -0.19840746655E+02  0.30434824057E+02  0.41800000000E+01 0. -1.
         -5    1    3    3    0  502  0.68875105607E+02 -0.52250460402E+02  0.96852338384E+02  0.12989125696E+03  0.41800000000E+01 0. -1.
        -11    1    4    4    0    0 -0.47101386296E+02  0.51933547099E+02  0.82156068824E+02  0.10800580332E+03  0.00000000000E+00 0.  1.
         11    1    4    4    0    0 -0.63951352524E+01 -0.16375900717E+02 -0.11828077591E+02  0.21188942840E+02  0.00000000000E+00 0. -1.
</event>
<event>
 8    1  0.6760442E-009  0.1089313E+03  0.7561462E-02  0.1262562E+00
         -2   -1    0    0    0  501 -0.00000000000E+00  0.00000000000E+00  0.44739075383E+02  0.44739075383E+02  0.00000000000E+00 0. -1.
          2   -1    0    0  501    0  0.00000000000E+00 -0.00000000000E+00 -0.56788210427E+03  0.56788210427E+03  0.00000000000E+00 0.  1.
         25    2    1    2    0    0  0.82170244686E+02 -0.92411250335E+01 -0.12195989268E+03  0.19328710915E+03  0.12509333970E+03 0.  0.
         23    2    1    2    0    0 -0.82170244686E+02  0.92411250335E+01 -0.40118313621E+03  0.41933407051E+03  0.89754144221E+02 0.  0.
          5    1    3    3  502    0  0.95666247730E+02  0.10868543673E+02 -0.34375097598E+02  0.10231947972E+03  0.41800000000E+01 0.  1.
         -5    1    3    3    0  502 -0.13496003043E+02 -0.20109668706E+02 -0.87584795079E+02  0.90967629422E+02  0.41800000000E+01 0.  1.
        -11    1    4    4    0    0 -0.51340441618E+02  0.30265472484E+02 -0.35495827562E+03  0.35992668309E+03  0.00000000000E+00 0.  1.
         11    1    4    4    0    0 -0.30829803069E+02 -0.21024347450E+02 -0.46224860591E+02  0.59407387416E+02  0.00000000000E+00 0. -1.
</event>
<event>
 8    1  0.6760442E-009  0.1434523E+03  0.7561462E-02  0.1208758E+00
         -2   -1    0    0    0  501 -0.00000000000E+00  0.00000000000E+00  0.49307717893E+02  0.49307717893E+02  0.00000000000E+00 0.  1.
          2   -1    0    0  501    0  0.00000000000E+00 -0.00000000000E+00 -0.58028039711E+03  0.58028039711E+03  0.00000000000E+00 0. -1.
         25    2    1    2    0    0 -0.51661772495E+02  0.99416978089E+02 -0.40243490726E+03  0.43606633619E+03  0.12508925096E+03 0.  0.
         23    2    1    2    0    0  0.51661772495E+02 -0.99416978089E+02 -0.12853777195E+03  0.19352177881E+03  0.91520739650E+02 0.  0.
          5    1    3    3  502    0  0.22923381085E+02  0.34331810471E+01 -0.10673211588E+02  0.25858421801E+02  0.41800000000E+01 0.  1.
         -5    1    3    3    0  502 -0.74585153580E+02  0.95983797041E+02 -0.39176169567E+03  0.41020791439E+03  0.41800000000E+01 0.  1.
        -11    1    4    4    0    0  0.31753549059E+02 -0.11316134614E+03 -0.90054268720E+02  0.14806603072E+03  0.00000000000E+00 0.  1.
         11    1    4    4    0    0  0.19908223436E+02  0.13744368053E+02 -0.38483503231E+02  0.45455748091E+02  0.00000000000E+00 0. -1.
</event>
<event>
 8    1  0.6760442E-009  0.1365873E+03  0.7561462E-02  0.1217996E+00
          2   -1    0    0  501    0  0.00000000000E+00  0.00000000000E+00  0.14537962639E+04  0.14537962639E+04  0.00000000000E+00 0. -1.
         -2   -1    0    0    0  501 -0.00000000000E+00 -0.00000000000E+00 -0.16678410743E+02  0.16678410743E+02  0.00000000000E+00 0.  1.
         25    2    1    2    0    0  0.94671619941E+02 -0.14220981272E+02  0.10383043172E+04  0.10501846694E+04  0.12508809975E+03 0.  0.
         23    2    1    2    0    0 -0.94671619941E+02  0.14220981272E+02  0.39881353599E+03  0.42029000532E+03  0.91795970254E+02 0.  0.
          5    1    3    3  502    0  0.62336091567E+02  0.42189801114E+02  0.78585948315E+03  0.78946714136E+03  0.41800000000E+01 0. -1.
         -5    1    3    3    0  502  0.32335528374E+02 -0.56410782387E+02  0.25244483406E+03  0.26071752801E+03  0.41800000000E+01 0. -1.
        -11    1    4    4    0    0 -0.41865619758E+02 -0.39317372497E+02  0.17344663771E+03  0.18270829765E+03  0.00000000000E+00 0. -1.
         11    1    4    4    0    0 -0.52806000183E+02  0.53538353770E+02  0.22536689828E+03  0.23758170767E+03  0.00000000000E+00 0.  1.
</event>
<event>
 8    1  0.6760442E-009  0.9440094E+02  0.7561462E-02  0.1292531E+00
         -2   -1    0    0    0  501 -0.00000000000E+00  0.00000000000E+00  0.86143119684E+02  0.86143119684E+02  0.00000000000E+00 0.  1.
          2   -1    0    0  501    0  0.00000000000E+00 -0.00000000000E+00 -0.19424424919E+03  0.19424424919E+03  0.00000000000E+00 0. -1.
         25    2    1    2    0    0 -0.70280258192E+02  0.68096679855E+01 -0.69111202203E+02  0.15940913341E+03  0.12509687156E+03 0.  0.
         23    2    1    2    0    0  0.70280258192E+02 -0.68096679855E+01 -0.38989927302E+02  0.12097823547E+03  0.90165585210E+02 0.  0.
          5    1    3    3  502    0 -0.31777428517E+02  0.44007030905E+02 -0.87153572544E+02  0.10276011551E+03  0.41800000000E+01 0. -1.
         -5    1    3    3    0  502 -0.38502829675E+02 -0.37197362919E+02  0.18042370341E+02  0.56649017896E+02  0.41800000000E+01 0. -1.
        -11    1    4    4    0    0  0.48482301954E+02 -0.22850322495E+02 -0.64447814248E+02  0.83822381272E+02  0.00000000000E+00 0. -1.
         11    1    4    4    0    0  0.21797956238E+02  0.16040654509E+02  0.25457886946E+02  0.37155854195E+02  0.00000000000E+00 0.  1.
</event>
<event>
 8    1  0.6760442E-009  0.1716431E+03  0.7561462E-02  0.1176145E+00
          3   -1    0    0  501    0  0.00000000000E+00  0.00000000000E+00  0.16592205064E+03  0.16592205064E+03  0.00000000000E+00 0. -1.
         -3   -1    0    0    0  501 -0.00000000000E+00 -0.00000000000E+00 -0.22304979695E+03  0.22304979695E+03  0.00000000000E+00 0.  1.
         25    2    1    2    0    0  0.57624489279E+02  0.14746590476E+03 -0.37253613923E+02  0.20519004873E+03  0.12509336320E+03 0.  0.
         23    2    1    2    0    0 -0.57624489279E+02 -0.14746590476E+03 -0.19874132385E+02  0.18378179886E+03  0.91181103444E+02 0.  0.
          5    1    3    3  502    0 -0.22244365067E+02  0.54470699676E+02  0.29059220580E+02  0.65755453014E+02  0.41800000000E+01 0.  1.
         -5    1    3    3    0  502  0.79868854347E+02  0.92995205081E+02 -0.66312834502E+02  0.13943459572E+03  0.41800000000E+01 0.  1.
        -11    1    4    4    0    0 -0.23759313553E+01 -0.46414085846E+02  0.33056485071E+02  0.57031952623E+02  0.00000000000E+00 0. -1.
         11    1    4    4    0    0 -0.55248557924E+02 -0.10105181891E+03 -0.52930617456E+02  0.12674984624E+03  0.00000000000E+00 0.  1.
</event>
<event>
 8    1  0.6760442E-009  0.1086761E+03  0.7561462E-02  0.1263041E+00
         -1   -1    0    0    0  501 -0.00000000000E+00  0.00000000000E+00  0.50841823950E+02  0.50841823950E+02  0.00000000000E+00 0.  1.
          1   -1    0    0  501    0  0.00000000000E+00 -0.00000000000E+00 -0.37244996601E+03  0.37244996601E+03  0.00000000000E+00 0. -1.
         25    2    1    2    0    0 -0.59588166939E+02 -0.53275713603E+02 -0.15622117814E+03  0.21550590798E+03  0.12509471842E+03 0.  0.
         23    2    1    2    0    0  0.59588166939E+02  0.53275713603E+02 -0.16538696392E+03  0.20778588198E+03  0.97124011528E+02 0.  0.
          5    1    3    3  502    0 -0.62386403964E+02 -0.63723981156E+02 -0.38515280125E+02  0.97230182439E+02  0.41800000000E+01 0. -1.
         -5    1    3    3    0  502  0.27982370256E+01  0.10448267554E+02 -0.11770589801E+03  0.11827572554E+03  0.41800000000E+01 0. -1.
        -11    1    4    4    0    0  0.63416217241E+02  0.35145037534E+00 -0.12808230598E+03  0.14292241683E+03  0.00000000000E+00 0.  1.
         11    1    4    4    0    0 -0.38280503018E+01  0.52924263227E+02 -0.37304657941E+02  0.64863465151E+02  0.00000000000E+00 0. -1.
</event>
<event>
 8    1  0.6760442E-009  0.1089964E+03  0.7561462E-02  0.1262440E+00
         -3   -1    0    0    0  501 -0.00000000000E+00  0.00000000000E+00  0.51825435986E+03  0.51825435986E+03  0.00000000000E+00 0.  1.
          3   -1    0    0  501    0  0.00000000000E+00 -0.00000000000E+00 -0.28589861044E+02  0.28589861044E+02  0.00000000000E+00 0. -1.
         25    2    1    2    0    0 -0.19691593079E+02  0.35140648555E+02  0.33966839904E+03  0.36420439549E+03  0.12509035281E+03 0.  0.
         23    2    1    2    0    0  0.19691593079E+02 -0.35140648555E+02  0.14999609978E+03  0.18263982542E+03  0.96103339495E+02 0.  0.
          5    1    3    3  502    0 -0.63789033364E+02  0.21412459870E+02  0.10345919306E+03  0.12348607712E+03  0.41800000000E+01 0.  1.
         -5    1    3    3    0  502  0.44097440285E+02  0.13728188685E+02  0.23620920598E+03  0.24071831836E+03  0.41800000000E+01 0.  1.
        -11    1    4    4    0    0  0.58818915268E+02 -0.23932683436E+02  0.90914392146E+02  0.11089573855E+03  0.00000000000E+00 0.  1.
         11    1    4    4    0    0 -0.39127322189E+02 -0.11207965120E+02  0.59081707632E+02  0.71744086868E+02  0.00000000000E+00 0. -1.
</event>
<event>
 8    1  0.6760442E-009  0.1216527E+03  0.7561462E-02  0.1240395E+00
          1   -1    0    0  501    0  0.00000000000E+00  0.00000000000E+00  0.14763796196E+03  0.14763796196E+03  0.00000000000E+00 0. -1.
         -1   -1    0    0    0  501 -0.00000000000E+00 -0.00000000000E+00 -0.12718891186E+03  0.12718891186E+03  0.00000000000E+00 0.  1.
         25    2    1    2    0    0 -0.46873825877E+02 -0.64557664839E+02  0.34547765924E+02  0.15233293822E+03  0.12508768242E+03 0.  0.
         23    2    1    2    0    0  0.46873825877E+02  0.64557664839E+02 -0.14098715824E+02  0.12249393560E+03  0.91875692262E+02 0.  0.
          5    1    3    3  502    0  0.32176351284E+01 -0.73957198512E+02 -0.20770859958E+02  0.76999489679E+02  0.41800000000E+01 0.  1.
         -5    1    3    3    0  502 -0.50091461005E+02  0.93995336729E+01  0.55318625882E+02  0.75333448536E+02  0.41800000000E+01 0.  1.
        -11    1    4    4    0    0 -0.14720517675E+02  0.53444375391E+02 -0.21523021204E+02  0.59466253820E+02  0.00000000000E+00 0. -1.
         11    1    4    4    0    0  0.61594343552E+02  0.11113289447E+02  0.74243053800E+01  0.63027681778E+02  0.00000000000E+00 0.  1.
</event>
<event>
 8    1  0.6760442E-009  0.1133150E+03  0.7561462E-02  0.1254551E+00
          1   -1    0    0  501    0  0.00000000000E+00  0.00000000000E+00  0.34266435840E+03  0.34266435840E+03  0.00000000000E+00 0. -1.
         -1   -1    0    0    0  501 -0.00000000000E+00 -0.00000000000E+00 -0.48466474693E+02  0.48466474693E+02  0.00000000000E+00 0.  1.
         25    2    1    2    0    0  0.11421795183E+02  0.63852428694E+02  0.12796802234E+03  0.19034371152E+03  0.12508926300E+03 0.  0.
         23    2    1    2    0    0 -0.11421795183E+02 -0.63852428694E+02  0.16622986137E+03  0.20078712158E+03  0.92062540294E+02 0.  0.
          5    1    3    3  502    0  0.45966445134E+02 -0.11339032814E+02  0.84082975516E+02  0.96586266700E+02  0.41800000000E+01 0. -1.
         -5    1    3    3    0  502 -0.34544649951E+02  0.75191461508E+02  0.43885046824E+02  0.93757444817E+02  0.41800000000E+01 0. -1.
        -11    1    4    4    0    0  0.95035975628E+01 -0.72852713468E+02  0.68540104351E+02  0.10047677409E+03  0.00000000000E+00 0.  1.
         11    1    4    4    0    0 -0.20925392745E+02  0.90002847745E+01  0.97689757019E+02  0.10031034749E+03  0.00000000000E+00 0. -1.
</event>
<event>
 8    1  0.6760442E-009  0.2603304E+03  0.7561462E-02  0.1106945E+00
         -1   -1    0    0    0  501 -0.00000000000E+00  0.00000000000E+00  0.10650078030E+03  0.10650078030E+03  0.00000000000E+00 0.  1.
          1   -1    0    0  501    0  0.00000000000E+00 -0.00000000000E+00 -0.70958662616E+03  0.70958662616E+03  0.00000000000E+00 0. -1.
         25    2    1    2    0    0  0.24630246421E+03  0.42930486148E+02 -0.25743560206E+03  0.38003657386E+03  0.12508708065E+03 0.  0.
         23    2    1    2    0    0 -0.24630246421E+03 -0.42930486148E+02 -0.34565024379E+03  0.43605083260E+03  0.90323347247E+02 0.  0.
          5    1    3    3  502    0  0.13296523760E+03  0.74427480853E+02 -0.19269937850E+03  0.24570251767E+03  0.41800000000E+01 0. -1.
         -5    1    3    3    0  502  0.11333722661E+03 -0.31496994705E+02 -0.64736223563E+02  0.13433405619E+03  0.41800000000E+01 0. -1.
        -11    1    4    4    0    0 -0.68399971006E+02 -0.19174362522E+02 -0.39798136249E+02  0.81425449711E+02  0.00000000000E+00 0.  1.
         11    1    4    4    0    0 -0.17790249320E+03 -0.23756123626E+02 -0.30585210754E+03  0.35462538288E+03  0.00000000000E+00 0. -1.
</event>
<event>
 7    1  0.6760442E-009  0.1107623E+03  0.7561462E-02  0.1259165E+00
          3   -1    0    0  501    0  0.00000000000E+00  0.00000000000E+00  0.51236891344E+03  0.51236891344E+03  0.00000000000E+00 0. -1.
         -3   -1    0    0    0  501 -0.00000000000E+00 -0.00000000000E+00 -0.33588548643E+02  0.33588548643E+02  0.00000000000E+00 0.  1.
         23    2    1    2    0    0  0.56391315545E+02  0.31543842678E+02  0.28699040435E+03  0.30799816055E+03  0.91238041587E+02 0.  0.
          5    1    1    2  502    0  0.16315698537E+02  0.17633944678E+02  0.12559689838E+03  0.12794221862E+03  0.41800000000E+01 0.  1.
         -5    1    1    2    0  502 -0.72707014082E+02 -0.49177787356E+02  0.66193062060E+02  0.11001708290E+03  0.41800000000E+01 0.  1.
        -11    1    3    3    0    0  0.11492883600E+02 -0.30548434866E+02  0.11831245549E+03  0.12273194519E+03  0.00000000000E+00 0.  1.
         11    1    3    3    0    0  0.44898431945E+02  0.62092277543E+02  0.16867794887E+03  0.18526621536E+03  0.00000000000E+00 0. -1.
</event>
<event>
 8    1  0.6760442E-009  0.1302061E+03  0.7561462E-02  0.1227150E+00
         -2   -1    0    0    0  501 -0.00000000000E+00  0.00000000000E+00  0.70509536918E+02  0.70509536918E+02  0.00000000000E+00 0.  1.
          2   -1    0    0  501    0  0.00000000000E+00 -0.00000000000E+00 -0.33914970974E+03  0.33914970974E+03  0.00000000000E+00 0. -1.
         25    2    1    2    0    0  0.93734641586E+02 -0.56132290116E+02 -0.14200999430E+03  0.21852475188E+03  0.12509680922E+03 0.  0.
         23    2    1    2    0    0 -0.93734641586E+02  0.56132290116E+02 -0.12663017852E+03  0.19113449478E+03  0.92521218942E+02 0.  0.
          5    1    3    3  502    0 -0.11840599378E+02 -0.34012428672E+02 -0.93296586630E+02  0.10009380887E+03  0.41800000000E+01 0. -1.
         -5    1    3    3    0  502  0.10557524096E+03 -0.22119861444E+02 -0.48713407671E+02  0.11843094301E+03  0.41800000000E+01 0. -1.
        -11    1    4    4    0    0 -0.19361065636E+02 -0.49294195415E+01 -0.83189454278E+02  0.85554867440E+02  0.00000000000E+00 0.  1.
         11    1    4    4    0    0 -0.74373575950E+02  0.61061709658E+02 -0.43440724244E+02  0.10557962734E+03  0.00000000000E+00 0. -1.
</event>
<event>
 8    1  0.6760442E-009  0.8316482E+02  0.7561462E-02  0.1320303E+00
         -2   -1    0    0    0  501 -0.00000000000E+00  0.00000000000E+00  0.51753766527E+03  0.51753766527E+03  0.00000000000E+00 0.  1.
          2   -1    0    0  501    0  0.00000000000E+00 -0.00000000000E+00 -0.26709389248E+02  0.26709389248E+02  0.00000000000E+00 0. -1.
         25    2    1    2    0    0 -0.33083856764E+01  0.81223520526E+01  0.17257394143E+03  0.21332094889E+03  0.12508854445E+03 0.  0.
         23    2    1    2    0    0  0.33083856764E+01 -0.81223520526E+01  0.31825433459E+03  0.33092610563E+03  0.90273738628E+02 0.  0.
          5    1    3    3  502    0 -0.11574165681E+02 -0.33620703405E+02  0.28264163097E+00  0.35803146439E+02  0.41800000000E+01 0.  1.
         -5    1    3    3    0  502  0.82657800050E+01  0.41743055457E+02  0.17229129980E+03  0.17751780245E+03  0.41800000000E+01 0.  1.
        -11    1    4    4    0    0 -0.17169022256E+02 -0.43570669880E+02  0.21075871106E+03  0.21589908033E+03  0.00000000000E+00 0.  1.
         11    1    4    4    0    0  0.20477407932E+02  0.35448317827E+02  0.10749562352E+03  0.11502702530E+03  0.00000000000E+00 0. -1.
</event>
<event>
 8    1  0.6760442E-009  0.1672167E+03  0.7561462E-02  0.1180782E+00
         -2   -1    0    0    0  501 -0.00000000000E+00  0.00000000000E+00  0.53634641888E+02  0.53634641888E+02  0.00000000000E+00 0.  1.
          2   -1    0    0  501    0  0.00000000000E+00 -0.00000000000E+00 -0.74607594486E+03  0.74607594486E+03  0.00000000000E+00 0. -1.
         25    2    1    2    0    0  0.17998592962E+01 -0.14299135285E+03 -0.18746870408E+03  0.26691252927E+03  0.12509203328E+03 0.  0.
         23    2    1    2    0    0 -0.17998592962E+01  0.14299135285E+03 -0.50497259889E+03  0.53279805747E+03  0.91796938615E+02 0.  0.
          5    1    3    3  502    0 -0.39023043393E+02 -0.19732689925E+02 -0.68981151953E+01  0.44466092257E+02  0.41800000000E+01 0. -1.
         -5    1    3    3    0  502  0.40822902689E+02 -0.12325866292E+03 -0.18057058889E+03  0.22244643701E+03  0.41800000000E+01 0. -1.
        -11    1    4    4    0    0 -0.36626992613E+02  0.56253829111E+02 -0.30152774048E+03  0.30890938502E+03  0.00000000000E+00 0. -1.
         11    1    4    4    0    0  0.34827133317E+02  0.86737523736E+02 -0.20344485841E+03  0.22388867245E+03  0.00000000000E+00 0.  1.
</event>
<event>
 8    1  0.6760442E-009  0.1154580E+03  0.7561462E-02  0.1250784E+00
         -2   -1    0    0    0  501 -0.00000000000E+00  0.00000000000E+00  0.73198696491E+02  0.73198696491E+02  0.00000000000E+00 0. -1.
          2   -1    0    0  501    0  0.00000000000E+00 -0.00000000000E+00 -0.30261062313E+03  0.30261062313E+03  0.00000000000E+00 0.  1.
         25    2    1    2    0    0 -0.39332145292E+02 -0.94176146991E+02 -0.11709293531E+03  0.19943547669E+03  0.12509032556E+03 0.  0.
         23    2    1    2    0    0  0.39332145292E+02  0.94176146991E+02 -0.11231899134E+03  0.17637384293E+03  0.89866636416E+02 0.  0.
          5    1    3    3  502    0 -0.55040563155E+02 -0.88831125238E+02 -0.27385202251E+02  0.10811037927E+03  0.41800000000E+01 0.  1.
         -5    1    3    3    0  502  0.15708417863E+02 -0.53450217532E+01 -0.89707733054E+02  0.91325097422E+02  0.41800000000E+01 0.  1.
        -11    1    4    4    0    0  0.47320017173E+02  0.79892179092E+02 -0.38091968612E+02  0.10036404923E+03  0.00000000000E+00 0. -1.
         11    1    4    4    0    0 -0.79878718809E+01  0.14283967899E+02 -0.74227022724E+02  0.76009793702E+02  0.00000000000E+00 0.  1.
</event>
<event>
 8    1  0.6760442E-009  0.7614024E+02  0.7561462E-02  0.1340376E+00
         -2   -1    0    0    0  501 -0.00000000000E+00  0.00000000000E+00  0.98453402660E+02  0.98453402660E+02  0.00000000000E+00 0.  1.
          2   -1    0    0  501    0  0.00000000000E+00 -0.00000000000E+00 -0.20775859010E+03  0.20775859010E+03  0.00000000000E+00 0. -1.
         25    2    1    2    0    0 -0.16495900576E+02  0.28605757227E+02 -0.15214258876E+03  0.19971229530E+03  0.12508888638E+03 0.  0.
         23    2    1    2    0    0  0.16495900576E+02 -0.28605757227E+02  0.42837401326E+02  0.10649969746E+03  0.91742784585E+02 0.  0.
          5    1    3    3  502    0  0.20360581767E+02  0.16393388454E+02 -0.15801916141E+03  0.16022117291E+03  0.41800000000E+01 0. -1.
         -5    1    3    3    0  502 -0.36856482344E+02  0.12212368773E+02  0.58765726483E+01  0.39491122393E+02  0.41800000000E+01 0. -1.
        -11    1    4    4    0    0 -0.29325710714E+02  0.52407186835E+01  0.39447199095E+02  0.49432215788E+02  0.00000000000E+00 0.  1.
         11    1    4    4    0    0  0.45821611290E+02 -0.33846475910E+02  0.33902022310E+01  0.57067481668E+02  0.00000000000E+00 0. -1.
</event>
<event>
 8    1  0.6760442E-009  0.7416116E+02  0.7561462E-02  0.1346488E+00
          2   -1    0    0  501    0  0.00000000000E+00  0.00000000000E+00  0.13290765377E+04  0.13290765377E+04  0.00000000000E+00 0. -1.
         -2   -1    0    0    0  501 -0.00000000000E+00 -0.00000000000E+00 -0.11194090370E+02  0.11194090370E+02  0.00000000000E+00 0.  1.
         25    2    1    2    0    0  0.23772849726E+02  0.11484250982E+02  0.99055538735E+03  0.99877193635E+03  0.12509344119E+03 0.  0.
         23    2    1    2    0    0 -0.23772849726E+02 -0.11484250982E+02  0.32732705993E+03  0.34149869167E+03  0.93708675398E+02 0.  0.
          5    1    3    3  502    0 -0.64970712717E+01  0.18705376276E+02  0.93291344686E+03  0.93313293521E+03  0.41800000000E+01 0. -1.
         -5    1    3    3    0  502  0.30269920998E+02 -0.72211252939E+01  0.57641940496E+02  0.65639001150E+02  0.41800000000E+01 0. -1.
        -11    1    4    4    0    0  0.17774575860E+02 -0.41688337404E+02  0.17354690785E+03  0.17936661408E+03  0.00000000000E+00 0. -1.
         11    1    4    4    0    0 -0.41547425587E+02  0.30204086422E+02  0.15378015208E+03  0.16213207759E+03  0.00000000000E+00 0.  1.
</event>
<event>
 8    1  0.6760442E-009  0.1820498E+03  0.7561462E-02  0.1165834E+00
         -2   -1    0    0    0  501 -0.00000000000E+00  0.00000000000E+00  0.53916317752E+02  0.53916317752E+02  0.00000000000E+00 0.  1.
          2   -1    0    0  501    0  0.00000000000E+00 -0.00000000000E+00 -0.87555796619E+03  0.87555796619E+03  0.00000000000E+00 0. -1.
         25    2    1    2    0    0  0.16776710612E+03 -0.67526250141E+02 -0.53471128382E+03  0.57816403996E+03  0.12510756855E+03 0.  0.
         23    2    1    2    0    0 -0.16776710612E+03  0.67526250141E+02 -0.28693036461E+03  0.35131024397E+03  0.91565588680E+02 0.  0.
          5    1    3    3  502    0  0.77304054833E+01 -0.95319882772E+01  0.36898086972E+01  0.13479801841E+02  0.41800000000E+01 0. -1.
         -5    1    3    3    0  502  0.16003670064E+03 -0.57994261863E+02 -0.53840109252E+03  0.56468423812E+03  0.41800000000E+01 0. -1.
        -11    1    4    4    0    0 -0.10597956409E+03  0.41412693252E+02 -0.95773031917E+02  0.14872509139E+03  0.00000000000E+00 0.  1.
         11    1    4    4    0    0 -0.61787542032E+02  0.26113556888E+02 -0.19115733270E+03  0.20258515258E+03  0.00000000000E+00 0. -1.
</event>
<event>
 8    1  0.6760442E-009  0.6114256E+02  0.7561462E-02  0.1393099E+00
          1   -1    0    0  501    0  0.00000000000E+00  0.00000000000E+00  0.45010955508E+03  0.45010955508E+03  0.00000000000E+00 0. -1.
         -1   -1    0    0    0  501 -0.00000000000E+00 -0.00000000000E+00 -0.31986607438E+02  0.31986607438E+02  0.00000000000E+00 0.  1.
         25    2    1    2    0    0  0.23711143264E+02  0.55741245560E+01  0.29789224567E+03  0.32400724048E+03  0.12509041801E+03 0.  0.
         23    2    1    2    0    0 -0.23711143264E+02 -0.55741245560E+01  0.12023070197E+03  0.15808892203E+03  0.99716580331E+02 0.  0.
          5    1    3    3  502    0 -0.21207913379E+02 -0.40568768361E+01  0.26830382068E+03  0.26920372663E+03  0.41800000000E+01 0.  1.
         -5    1    3    3    0  502  0.44919056642E+02  0.96310013921E+01  0.29588424986E+02  0.54803513853E+02  0.41800000000E+01 0.  1.
        -11    1    4    4    0    0 -0.23332637014E+01  0.20393651416E+02 -0.10531045644E+02  0.23070501944E+02  0.00000000000E+00 0.  1.
         11    1    4    4    0    0 -0.21377879562E+02 -0.25967775972E+02  0.13076174762E+03  0.13501842009E+03  0.00000000000E+00 0. -1.
</event>
<event>
 8    1  0.6760442E-009  0.1447045E+03  0.7561462E-02  0.1207135E+00
         -2   -1    0    0    0  501 -0.00000000000E+00  0.00000000000E+00  0.19667902481E+02  0.19667902481E+02  0.00000000000E+00 0.  1.
          2   -1    0    0  501    0  0.00000000000E+00 -0.00000000000E+00 -0.24442567277E+04  0.24442567277E+04  0.00000000000E+00 0. -1.
         25    2    1    2    0    0 -0.91845114739E+02  0.36831980393E+02 -0.21877301666E+04  0.21935365837E+04  0.12508933646E+03 0.  0.
         23    2    1    2    0    0  0.91845114739E+02 -0.36831980393E+02 -0.23685865856E+03  0.27038804647E+03  0.84944403329E+02 0.  0.
          5    1    3    3  502    0 -0.11780747571E+03  0.52847854102E+01 -0.16903521047E+04  0.16944657685E+04  0.41800000000E+01 0. -1.
         -5    1    3    3    0  502  0.25962360967E+02  0.31547194983E+02 -0.49737806191E+03  0.49907081518E+03  0.41800000000E+01 0. -1.
        -11    1    4    4    0    0  0.59450677873E+02 -0.64513025142E+02 -0.16366517186E+03  0.18569491645E+03  0.00000000000E+00 0.  1.
         11    1    4    4    0    0  0.32394436866E+02  0.27681044749E+02 -0.73193486699E+02  0.84693130025E+02  0.00000000000E+00 0. -1.
</event>
<event>
 8    1  0.6760442E-009  0.2260902E+03  0.7561462E-02  0.1129422E+00
         -1   -1    0    0    0  501 -0.00000000000E+00  0.00000000000E+00  0.92104477038E+02  0.92104477038E+02  0.00000000000E+00 0.  1.
          1   -1    0    0  501    0  0.00000000000E+00 -0.00000000000E+00 -0.85225983346E+03  0.85225983346E+03  0.00000000000E+00 0. -1.
         25    2    1    2    0    0 -0.14300910137E+03  0.14846067169E+03 -0.12754466965E+03  0.27277668551E+03  0.12508918135E+03 0.  0.
         23    2    1    2    0    0  0.14300910137E+03 -0.14846067169E+03 -0.63261068677E+03  0.67158762499E+03  0.91331719102E+02 0.  0.
          5    1    3    3  502    0  0.95961671029E+01  0.42390247064E+02 -0.61655354721E+02  0.75550477398E+02  0.41800000000E+01 0. -1.
         -5    1    3    3    0  502 -0.15260526847E+03  0.10607042462E+03 -0.65889314932E+02  0.19722620811E+03  0.41800000000E+01 0. -1.
        -11    1    4    4    0    0  0.40870177115E+02 -0.10302106378E+03 -0.36811400088E+03  0.38443676802E+03  0.00000000000E+00 0.  1.
         11    1    4    4    0    0  0.10213892425E+03 -0.45439607906E+02 -0.26449668589E+03  0.28715085698E+03  0.00000000000E+00 0. -1.
</event>
<event>
 8    1  0.6760442E-009  0.1235751E+03  0.7561462E-02  0.1237313E+00
          2   -1    0    0  501    0  0.00000000000E+00  0.00000000000E+00  0.11617443685E+03  0.11617443685E+03  0.00000000000E+00 0. -1.
         -2   -1    0    0    0  501 -0.00000000000E+00 -0.00000000000E+00 -0.16297589301E+03  0.16297589301E+03  0.00000000000E+00 0.  1.
         25    2    1    2    0    0 -0.32363740293E+02 -0.53651340245E+02 -0.85166924540E+02  0.16379806347E+03  0.12510204860E+03 0.  0.
         23    2    1    2    0    0  0.32363740293E+02  0.53651340245E+02  0.38365468382E+02  0.11535226640E+03  0.88928950309E+02 0.  0.
          5    1    3    3  502    0 -0.85067965529E+01 -0.93064672833E+02 -0.53920772031E+02  0.10797370501E+03  0.41800000000E+01 0.  1.
         -5    1    3    3    0  502 -0.23856943740E+02  0.39413332588E+02 -0.31246152509E+02  0.55824358455E+02  0.41800000000E+01 0.  1.
        -11    1    4    4    0    0  0.23667477360E+02 -0.21329199042E+02  0.30189269679E+01  0.32003095732E+02  0.00000000000E+00 0.  1.
         11    1    4    4    0    0  0.86962629328E+01  0.74980539287E+02  0.35346541414E+02  0.83349170666E+02  0.00000000000E+00 0. -1.
</event>
<event>
 8    1  0.6760442E-009  0.1098650E+03  0.7561462E-02  0.1260820E+00
          2   -1    0    0  501    0  0.00000000000E+00  0.00000000000E+00  0.23813920419E+02  0.23813920419E+02  0.00000000000E+00 0. -1.
         -2   -1    0    0    0  501 -0.00000000000E+00 -0.00000000000E+00 -0.57735567836E+03  0.57735567836E+03  0.00000000000E+00 0.  1.
         25    2    1    2    0    0  0.29498654591E+02  0.13559558426E+02 -0.23869140383E+03  0.27143100378E+03  0.12508865379E+03 0.  0.
         23    2    1    2    0    0 -0.29498654591E+02 -0.13559558426E+02 -0.31485035412E+03  0.32973859500E+03  0.92427070143E+02 0.  0.
          5    1    3    3  502    0 -0.22781371340E+01 -0.50823289904E+02 -0.59798793480E+02  0.78622927999E+02  0.41800000000E+01 0. -1.
         -5    1    3    3    0  502  0.31776791725E+02  0.64382848330E+02 -0.17889261035E+03  0.19280807579E+03  0.41800000000E+01 0. -1.
        -11    1    4    4    0    0 -0.44249419998E+02  0.28203616774E+02 -0.14479445273E+03  0.15400937865E+03  0.00000000000E+00 0. -1.
         11    1    4    4    0    0  0.14750765407E+02 -0.41763175200E+02 -0.17005590138E+03  0.17572921635E+03  0.00000000000E+00 0.  1.
</event>
<event>
 8    1  0.6760442E-009  0.1714416E+03  0.7561462E-02  0.1176353E+00
          2   -1    0    0  501    0  0.00000000000E+00  0.00000000000E+00  0.10691414525E+04  0.10691414525E+04  0.00000000000E+00 0. -1.
         -2   -1    0    0    0  501 -0.00000000000E+00 -0.00000000000E+00 -0.33222604522E+02  0.33222604522E+02  0.00000000000E+00 0.  1.
         25    2    1    2    0    0 -0.81945103361E+02  0.11531318330E+03  0.43300508103E+03  0.47239114103E+03  0.12509140547E+03 0.  0.
         23    2    1    2    0    0  0.81945103361E+02 -0.11531318330E+03  0.60291376695E+03  0.62997291599E+03  0.11553672272E+03 0.  0.
          5    1    3    3  502    0 -0.56885530189E+02  0.12137970394E+03  0.21903190070E+03  0.25682959720E+03  0.41800000000E+01 0.  1.
         -5    1    3    3    0  502 -0.25059573172E+02 -0.60665206365E+01  0.21397318033E+03  0.21556154383E+03  0.41800000000E+01 0.  1.
        -11    1    4    4    0    0  0.72362302949E+01  0.23728758776E+02  0.81765672061E+02  0.85446135954E+02  0.00000000000E+00 0.  1.
         11    1    4    4    0    0  0.74708873066E+02 -0.13904194208E+03  0.52114809488E+03  0.54452678003E+03  0.00000000000E+00 0. -1.
</event>
<event>
 8    1  0.6760442E-009  0.1186652E+03  0.7561462E-02  0.1245315E+00
          1   -1    0    0  501    0  0.00000000000E+00  0.00000000000E+00  0.11759161604E+03  0.11759161604E+03  0.00000000000E+00 0. -1.
         -1   -1    0    0    0  501 -0.00000000000E+00 -0.00000000000E+00 -0.22021211377E+03  0.22021211377E+03  0.00000000000E+00 0.  1.
         25    2    1    2    0    0  0.12829627580E+02 -0.93954789916E+02 -0.13058214225E+03  0.20419348987E+03  0.12510469031E+03 0.  0.
         23    2    1    2    0    0 -0.12829627580E+02  0.93954789916E+02  0.27961644522E+02  0.13361023994E+03  0.89876252478E+02 0.  0.
          5    1    3    3  502    0  0.57737154858E+02 -0.71205801481E+02 -0.39221763603E+02  0.99798117997E+02  0.41800000000E+01 0.  1.
         -5    1    3    3    0  502 -0.44907527279E+02 -0.22748988435E+02 -0.91360378651E+02  0.10439537187E+03  0.41800000000E+01 0.  1.
        -11    1    4    4    0    0 -0.59067110169E+00  0.25590833540E+02 -0.32609782222E+02  0.41456453661E+02  0.00000000000E+00 0.  1.
         11    1    4    4    0    0 -0.12238956478E+02  0.68363956376E+02  0.60571426744E+02  0.92153786275E+02  0.00000000000E+00 0. -1.
</event>
<event>
 8    1  0.6760442E-009  0.9571911E+02  0.7561462E-02  0.1289565E+00
          1   -1    0    0  501    0  0.00000000000E+00  0.00000000000E+00  0.21854548043E+03  0.21854548043E+03  0.00000000000E+00 0. -1.
         -1   -1    0    0    0  501 -0.00000000000E+00 -0.00000000000E+00 -0.58841157351E+02  0.58841157351E+02  0.00000000000E+00 0.  1.
         25    2    1    2    0    0  0.17459663473E+02  0.20491646111E+02  0.12458639879E+03  0.17858796050E+03  0.12508853450E+03 0.  0.
         23    2    1    2    0    0 -0.17459663473E+02 -0.20491646111E+02  0.35117924292E+02  0.98798677280E+02  0.88335511640E+02 0.  0.
          5    1    3    3  502    0  0.40278299314E+02 -0.31948391500E+02  0.10671271838E+03  0.11852475598E+03  0.41800000000E+01 0. -1.
         -5    1    3    3    0  502 -0.22818635841E+02  0.52440037612E+02  0.17873680403E+02  0.60063204522E+02  0.41800000000E+01 0. -1.
        -11    1    4    4    0    0  0.27708655216E+02  0.83321718263E+01  0.34745808176E+02  0.45215769893E+02  0.00000000000E+00 0. -1.
         11    1    4    4    0    0 -0.45168318689E+02 -0.28823817938E+02  0.37211611668E+00  0.53582907387E+02  0.00000000000E+00 0.  1.
</event>
<event>
 8    1  0.6760442E-009  0.6433297E+02  0.7561462E-02  0.1380498E+00
          1   -1    0    0  501    0  0.00000000000E+00  0.00000000000E+00  0.61329720330E+02  0.61329720330E+02  0.00000000000E+00 0. -1.
         -1   -1    0    0    0  501 -0.00000000000E+00 -0.00000000000E+00 -0.24772649248E+03  0.24772649248E+03  0.00000000000E+00 0.  1.
         25    2    1    2    0    0  0.42514803526E+02 -0.15187641448E+02 -0.15051210635E+03  0.20084582845E+03  0.12508788782E+03 0.  0.
         23    2    1    2    0    0 -0.42514803526E+02  0.15187641448E+02 -0.35884665804E+02  0.10821038436E+03  0.91562028545E+02 0.  0.
          5    1    3    3  502    0 -0.16665006685E+02 -0.15699341678E+02  0.13170935862E+02  0.26742059165E+02  0.41800000000E+01 0. -1.
         -5    1    3    3    0  502  0.59179810211E+02  0.51170023006E+00 -0.16368304221E+03  0.17410376929E+03  0.41800000000E+01 0. -1.
        -11    1    4    4    0    0 -0.10419094640E+02  0.80914251860E+01 -0.63760586365E+02  0.65110990380E+02  0.00000000000E+00 0.  1.
         11    1    4    4    0    0 -0.32095708886E+02  0.70962162620E+01  0.27875920561E+02  0.43099393978E+02  0.00000000000E+00 0. -1.
</event>
<event>
 8    1  0.6760442E-009  0.1254272E+03  0.7561462E-02  0.1234403E+00
         -1   -1    0    0    0  501 -0.00000000000E+00  0.00000000000E+00  0.88504389176E+02  0.88504389176E+02  0.00000000000E+00 0.  1.
          1   -1    0    0  501    0  0.00000000000E+00 -0.00000000000E+00 -0.26797068956E+03  0.26797068956E+03  0.00000000000E+00 0. -1.
         25    2    1    2    0    0 -0.39873551008E+02 -0.10142814560E+03 -0.90830918679E+02  0.18914358995E+03  0.12508985987E+03 0.  0.
         23    2    1    2    0    0  0.39873551008E+02  0.10142814560E+03 -0.88635381700E+02  0.16733148878E+03  0.90917696061E+02 0.  0.
          5    1    3    3  502    0  0.65938079237E+01 -0.18632696851E+02  0.29534293370E+02  0.35782713421E+02  0.41800000000E+01 0.  1.
         -5    1    3    3    0  502 -0.46467358932E+02 -0.82795448749E+02 -0.12036521205E+03  0.15336087653E+03  0.41800000000E+01 0.  1.
        -11    1    4    4    0    0  0.62318519529E+02  0.92340191212E+02 -0.89799803609E+02  0.14308848143E+03  0.00000000000E+00 0. -1.
         11    1    4    4    0    0 -0.22444968521E+02  0.90879543884E+01  0.11644219092E+01  0.24243007347E+02  0.00000000000E+00 0.  1.
</event>
<event>
 8    1  0.6760442E-009  0.7303350E+02  0.7561462E-02  0.1350071E+00
         -2   -1    0    0    0  501 -0.00000000000E+00  0.00000000000E+00  0.34159502944E+02  0.34159502944E+02  0.00000000000E+00 0. -1.
          2   -1    0    0  501    0  0.00000000000E+00 -0.00000000000E+00 -0.39136083392E+03  0.39136083392E+03  0.00000000000E+00 0.  1.
         25    2    1    2    0    0 -0.25169925353E+02 -0.30877409359E+02 -0.17102731535E+03  0.21560349572E+03  0.12509030827E+03 0.  0.
         23    2    1    2    0    0  0.25169925353E+02  0.30877409359E+02 -0.18617401563E+03  0.20991684114E+03  0.88415929263E+02 0.  0.
          5    1    3    3  502    0 -0.43608220205E+02  0.77507433553E+01 -0.57929816273E+01  0.44864038251E+02  0.41800000000E+01 0. -1.
         -5    1    3    3    0  502  0.18438294852E+02 -0.38628152715E+02 -0.16523433372E+03  0.17073945747E+03  0.41800000000E+01 0. -1.
        -11    1    4    4    0    0 -0.68341941425E+01  0.25146503830E+02 -0.58788776000E+01  0.26713555852E+02  0.00000000000E+00 0. -1.
         11    1    4    4    0    0  0.32004119496E+02  0.57309055299E+01 -0.18029513803E+03  0.18320328529E+03  0.00000000000E+00 0.  1.
</event>
<event>
 8    1  0.6760442E-009  0.1101798E+03  0.7561462E-02  0.1260237E+00
          2   -1    0    0  501    0  0.00000000000E+00  0.00000000000E+00  0.28188376179E+03  0.28188376179E+03  0.00000000000E+00 0. -1.
         -2   -1    0    0    0  501 -0.00000000000E+00 -0.00000000000E+00 -0.54376790471E+02  0.54376790471E+02  0.00000000000E+00 0.  1.
         25    2    1    2    0    0  0.37117722930E+02 -0.21433074728E+02  0.18267692975E+03  0.22551184258E+03  0.12509048097E+03 0.  0.
         23    2    1    2    0    0 -0.37117722930E+02  0.21433074728E+02  0.44830041564E+02  0.11074870968E+03  0.91752068216E+02 0.  0.
          5    1    3    3  502    0 -0.21949383437E+01 -0.67612889493E+02  0.12234445701E+03  0.13986407381E+03  0.41800000000E+01 0.  1.
         -5    1    3    3    0  502  0.39312661273E+02  0.46179814766E+02  0.60332472739E+02  0.85647768768E+02  0.41800000000E+01 0.  1.
        -11    1    4    4    0    0 -0.50287636974E+02  0.43236301576E+02  0.52013564356E+02  0.84283065223E+02  0.00000000000E+00 0. -1.
         11    1    4    4    0    0  0.13169914044E+02 -0.21803226849E+02 -0.71835227919E+01  0.26465644459E+02  0.00000000000E+00 0.  1.
</event>
<event>
 8    1  0.6760442E-009  0.2314110E+03  0.7561462E-02  0.1125651E+00
         -2   -1    0    0    0  501 -0.00000000000E+00  0.00000000000E+00  0.26897414473E+03  0.26897414473E+03  0.00000000000E+00 0. -1.
          2   -1    0    0  501    0  0.00000000000E+00 -0.00000000000E+00 -0.23722131935E+03  0.23722131935E+03  0.00000000000E+00 0.  1.
         25    2    1    2    0    0 -0.20699941891E+03 -0.75317602106E+02  0.82860703796E+02  0.26652328741E+03  0.12508903183E+03 0.  0.
         23    2    1    2    0    0  0.20699941891E+03  0.75317602106E+02 -0.51107878416E+02  0.23967217667E+03  0.79430701974E+02 0.  0.
          5    1    3    3  502    0 -0.74189873842E+02 -0.60408499035E+02  0.91612689656E+02  0.13252804021E+03  0.41800000000E+01 0.  1.
         -5    1    3    3    0  502 -0.13280954507E+03 -0.14909103071E+02 -0.87519858596E+01  0.13399524720E+03  0.41800000000E+01 0.  1.
        -11    1    4    4    0    0  0.15007847351E+03  0.89431188674E+02 -0.46830939477E+02  0.18087184029E+03  0.00000000000E+00 0.  1.
         11    1    4    4    0    0  0.56920945401E+02 -0.14113586567E+02 -0.42769389392E+01  0.58800336376E+02  0.00000000000E+00 0. -1.
</event>
<event>
 8    1  0.6760442E-009  0.4646675E+02  0.7561462E-02  0.1465387E+00
          1   -1    0    0  501    0  0.00000000000E+00  0.00000000000E+00  0.53089418364E+02  0.53089418364E+02  0.00000000000E+00 0. -1.
         -1   -1    0    0    0  501 -0.00000000000E+00 -0.00000000000E+00 -0.24630793977E+03  0.24630793977E+03  0.00000000000E+00 0.  1.
         25    2    1    2    0    0 -0.12622717375E+02 -0.44926052746E+01 -0.65632255552E+02  0.14189234176E+03  0.12508527965E+03 0.  0.
         23    2    1    2    0    0  0.12622717375E+02  0.44926052746E+01 -0.12758626586E+03  0.15750501638E+03  0.91378654257E+02 0.  0.
          5    1    3    3  502    0  0.20719520654E+02  0.20783384414E+01 -0.94654177499E+02  0.97007750952E+02  0.41800000000E+01 0. -1.
         -5    1    3    3    0  502 -0.33342238030E+02 -0.65709437159E+01  0.29021921947E+02  0.44884590804E+02  0.41800000000E+01 0. -1.
        -11    1    4    4    0    0  0.24690619457E+02  0.56589139291E+01 -0.13873838726E+03  0.14103187617E+03  0.00000000000E+00 0.  1.
         11    1    4    4    0    0 -0.12067902081E+02 -0.11663086546E+01  0.11152121406E+02  0.16473140210E+02  0.00000000000E+00 0. -1.
</event>
<event>
 8    1  0.6760442E-009  0.1590631E+03  0.7561462E-02  0.1189759E+00
          1   -1    0    0  501    0  0.00000000000E+00  0.00000000000E+00  0.60814730490E+02  0.60814730490E+02  0.00000000000E+00 0. -1.
         -1   -1    0    0    0  501 -0.00000000000E+00 -0.00000000000E+00 -0.42620611954E+03  0.42620611954E+03  0.00000000000E+00 0.  1.
         25    2    1    2    0    0  0.83673054828E+02 -0.81357469277E+02 -0.23000516682E+03  0.28665461949E+03  0.12509307015E+03 0.  0.
         23    2    1    2    0    0 -0.83673054828E+02  0.81357469277E+02 -0.13538622223E+03  0.20036623054E+03  0.90537170600E+02 0.  0.
          5    1    3    3  502    0 -0.18941379540E+02 -0.63224489114E+02 -0.10170677241E+03  0.12131715393E+03  0.41800000000E+01 0.  1.
         -5    1    3    3    0  502  0.10261443437E+03 -0.18132980164E+02 -0.12829839441E+03  0.16533746556E+03  0.41800000000E+01 0.  1.
        -11    1    4    4    0    0  0.18770742032E+02  0.23415986286E+02 -0.27164665148E+02  0.40479231747E+02  0.00000000000E+00 0.  1.
         11    1    4    4    0    0 -0.10244379686E+03  0.57941482991E+02 -0.10822155708E+03  0.15988699880E+03  0.00000000000E+00 0. -1.
</event>
<event>
 8    1  0.6760442E-009  0.9842790E+02  0.7561462E-02  0.1283637E+00
          2   -1    0    0  501    0  0.00000000000E+00  0.00000000000E+00  0.35285487218E+03  0.35285487218E+03  0.00000000000E+00 0. -1.
         -2   -1    0    0    0  501 -0.00000000000E+00 -0.00000000000E+00 -0.44838134195E+02  0.44838134195E+02  0.00000000000E+00 0.  1.
         25    2    1    2    0    0  0.13514118589E+01 -0.21787236434E+01  0.19747820869E+03  0.23377266083E+03  0.12508173684E+03 0.  0.
         23    2    1    2    0    0 -0.13514118589E+01  0.21787236434E+01  0.11053852929E+03  0.16392034555E+03  0.12101462753E+03 0.  0.
          5    1    3    3  502    0  0.17303729824E+02 -0.40608275604E+02  0.18484395954E+03  0.19008738225E+03  0.41800000000E+01 0.  1.
         -5    1    3    3    0  502 -0.15952317965E+02  0.38429551960E+02  0.12634249149E+02  0.43685278572E+02  0.41800000000E+01 0.  1.
        -11    1    4    4    0    0  0.53996627837E+02 -0.74861845495E+01  0.87718525523E+02  0.10327738618E+03  0.00000000000E+00 0. -1.
         11    1    4    4    0    0 -0.55348039696E+02  0.96649081930E+01  0.22820003771E+02  0.60642959366E+02  0.00000000000E+00 0.  1.
</event>
<event>
 8    1  0.6760442E-009  0.1303582E+03  0.7561462E-02  0.1226925E+00
          4   -1    0    0  501    0  0.00000000000E+00  0.00000000000E+00  0.96851285353E+02  0.96851285353E+02  0.00000000000E+00 0. -1.
         -4   -1    0    0    0  501 -0.00000000000E+00 -0.00000000000E+00 -0.18084388148E+03  0.18084388148E+03  0.00000000000E+00 0.  1.
         25    2    1    2    0    0  0.71302599330E+02  0.10810293222E+02 -0.69958928321E+02  0.16044641472E+03  0.12509147547E+03 0.  0.
         23    2    1    2    0    0 -0.71302599330E+02 -0.10810293222E+02 -0.14033667806E+02  0.11724875211E+03  0.91375067325E+02 0.  0.
          5    1    3    3  502    0  0.88904453357E+02  0.49330362546E+02 -0.51670172235E+02  0.11412609515E+03  0.41800000000E+01 0.  1.
         -5    1    3    3    0  502 -0.17601854028E+02 -0.38520069324E+02 -0.18288756086E+02  0.46320319571E+02  0.41800000000E+01 0.  1.
        -11    1    4    4    0    0 -0.33622901358E+02  0.40565328185E+02 -0.57740246066E+01  0.53003629183E+02  0.00000000000E+00 0.  1.
         11    1    4    4    0    0 -0.37679697972E+02 -0.51375621406E+02 -0.82596431989E+01  0.64245122927E+02  0.00000000000E+00 0. -1.
</event>
<event>
 8    1  0.6760442E-009  0.1011468E+03  0.7561462E-02  0.1277903E+00
         -2   -1    0    0    0  501 -0.00000000000E+00  0.00000000000E+00  0.13085796827E+02  0.13085796827E+02  0.00000000000E+00 0.  1.
          2   -1    0    0  501    0  0.00000000000E+00 -0.00000000000E+00 -0.99557640416E+03  0.99557640416E+03  0.00000000000E+00 0. -1.
         25    2    1    2    0    0  0.94581771717E+01  0.25282107851E+01 -0.72115273578E+03  0.73198741521E+03  0.12509379972E+03 0.  0.
         23    2    1    2    0    0 -0.94581771717E+01 -0.25282107851E+01 -0.26133787155E+03  0.27667478578E+03  0.90308388397E+02 0.  0.
          5    1    3    3  502    0 -0.53394097671E+02 -0.21303580191E+02 -0.36495967406E+03  0.36948316374E+03  0.41800000000E+01 0. -1.
         -5    1    3    3    0  502  0.62852274843E+02  0.23831790976E+02 -0.35619306172E+03  0.36250425147E+03  0.41800000000E+01 0. -1.
        -11    1    4    4    0    0 -0.43286956077E+02  0.96303648102E+00 -0.69780036461E+02  0.82121504456E+02  0.00000000000E+00 0.  1.
         11    1    4    4    0    0  0.33828778905E+02 -0.34912472661E+01 -0.19155783509E+03  0.19455328133E+03  0.00000000000E+00 0. -1.
</event>
<event>
 8    1  0.6760442E-009  0.1292071E+03  0.7561462E-02  0.1228637E+00
         -1   -1    0    0    0  501 -0.00000000000E+00  0.00000000000E+00  0.19833379252E+02  0.19833379252E+02  0.00000000000E+00 0.  1.
          1   -1    0    0  501    0  0.00000000000E+00 -0.00000000000E+00 -0.95619847280E+03  0.95619847280E+03  0.00000000000E+00 0. -1.
         25    2    1    2    0    0 -0.78550386740E+02  0.49784744832E+01 -0.62219156493E+03  0.63950341105E+03  0.12508925135E+03 0.  0.
         23    2    1    2    0    0  0.78550386740E+02 -0.49784744832E+01 -0.31417352861E+03  0.33652844100E+03  0.91386197301E+02 0.  0.
          5    1    3    3  502    0 -0.74306746204E+02 -0.49972455934E+02 -0.32101483965E+03  0.33329677250E+03  0.41800000000E+01 0. -1.
         -5    1    3    3    0  502 -0.42436405364E+01  0.54950930417E+02 -0.30117672528E+03  0.30620663854E+03  0.41800000000E+01 0. -1.
        -11    1    4    4    0    0  0.37926041484E+02 -0.43361559856E+02 -0.21611297090E+03  0.22365917305E+03  0.00000000000E+00 0. -1.
         11    1    4    4    0    0  0.40624345256E+02  0.38383085373E+02 -0.98060557710E+02  0.11286926796E+03  0.00000000000E+00 0.  1.
</event>
<event>
 8    1  0.6760442E-009  0.8552768E+02  0.7561462E-02  0.1314058E+00
         -1   -1    0    0    0  501 -0.00000000000E+00  0.00000000000E+00  0.11748259637E+03  0.11748259637E+03  0.00000000000E+00 0.  1.
          1   -1    0    0  501    0  0.00000000000E+00 -0.00000000000E+00 -0.11500744723E+03  0.11500744723E+03  0.00000000000E+00 0. -1.
         25    2    1    2    0    0 -0.42235249590E+01 -0.13193242006E+02  0.31702971416E+02  0.12978716363E+03  0.12509088556E+03 0.  0.
         23    2    1    2    0    0  0.42235249590E+01  0.13193242006E+02 -0.29227822274E+02  0.10270287997E+03  0.97476746774E+02 0.  0.
          5    1    3    3  502    0  0.24815299498E+02 -0.42002906593E+02  0.61788626367E+02  0.78837491080E+02  0.41800000000E+01 0. -1.
         -5    1    3    3    0  502 -0.29038824457E+02  0.28809664586E+02 -0.30085654951E+02  0.50949672553E+02  0.41800000000E+01 0. -1.
        -11    1    4    4    0    0 -0.32182443217E+02 -0.14433585438E+02 -0.42388903082E+02  0.55143967436E+02  0.00000000000E+00 0. -1.
         11    1    4    4    0    0  0.36405968176E+02  0.27626827444E+02  0.13161080808E+02  0.47558912535E+02  0.00000000000E+00 0.  1.
</event>
<event>
 8    1  0.6760442E-009  0.1402482E+03  0.7561462E-02  0.1212995E+00
         -1   -1    0    0    0  501 -0.00000000000E+00  0.00000000000E+00  0.92825561812E+02  0.92825561812E+02  0.00000000000E+00 0.  1.
          1   -1    0    0  501    0  0.00000000000E+00 -0.00000000000E+00 -0.28509940015E+03  0.28509940015E+03  0.00000000000E+00 0. -1.
         25    2    1    2    0    0  0.52039022387E+02  0.88527677574E+02 -0.17678510190E+03  0.23967750176E+03  0.12508846089E+03 0.  0.
         23    2    1    2    0    0 -0.52039022387E+02 -0.88527677574E+02 -0.15488736436E+02  0.13824746020E+03  0.91253765663E+02 0.  0.
          5    1    3    3  502    0 -0.37517598331E+01  0.87475295730E+02 -0.15793765280E+03  0.18063160753E+03  0.41800000000E+01 0. -1.
         -5    1    3    3    0  502  0.55790782221E+02  0.10523818433E+01 -0.18847449098E+02  0.59045894233E+02  0.41800000000E+01 0. -1.
        -11    1    4    4    0    0  0.23403597550E+02 -0.42755385322E+01 -0.71751174677E+01  0.24849364553E+02  0.00000000000E+00 0.  1.
         11    1    4    4    0    0 -0.75442619937E+02 -0.84252139041E+02 -0.83136189684E+01  0.11339809565E+03  0.00000000000E+00 0. -1.
</event>
<event>
 8    1  0.6760442E-009  0.1120742E+03  0.7561462E-02  0.1256776E+00
         -2   -1    0    0    0  501 -0.00000000000E+00  0.00000000000E+00  0.26004646418E+02  0.26004646418E+02  0.00000000000E+00 0. -1.
          2   -1    0    0  501    0  0.00000000000E+00 -0.00000000000E+00 -0.71097441077E+03  0.71097441077E+03  0.00000000000E+00 0.  1.
         25    2    1    2    0    0  0.20643408657E+02  0.24560764128E+02 -0.58185600783E+03  0.59601415848E+03  0.12508829601E+03 0.  0.
         23    2    1    2    0    0 -0.20643408657E+02 -0.24560764128E+02 -0.10311375652E+03  0.14096489871E+03  0.90605046380E+02 0.  0.
          5    1    3    3  502    0  0.48528944960E+02 -0.37170135260E+02 -0.27678378556E+03  0.28348441545E+03  0.41800000000E+01 0.  1.
         -5    1    3    3    0  502 -0.27885536302E+02  0.61730899388E+02 -0.30507222227E+03  0.31252974303E+03  0.41800000000E+01 0.  1.
        -11    1    4    4    0    0 -0.24591794953E+02  0.30854402550E+02 -0.53534100528E+02  0.66503010872E+02  0.00000000000E+00 0.  1.
         11    1    4    4    0    0  0.39483862955E+01 -0.55415166678E+02 -0.49579655992E+02  0.74461887839E+02  0.00000000000E+00 0. -1.
</event>
<event>
 8    1  0.6760442E-009  0.1279927E+03  0.7561462E-02  0.1230465E+00
         -1   -1    0    0    0  501 -0.00000000000E+00  0.00000000000E+00  0.47331692687E+03  0.47331692687E+03  0.00000000000E+00 0.  1.
          1   -1    0    0  501    0  0.00000000000E+00 -0.00000000000E+00 -0.36047835594E+02  0.36047835594E+02  0.00000000000E+00 0. -1.
         25    2    1    2    0    0 -0.52727888887E+02 -0.39493210922E+02  0.24683702575E+03  0.28445726433E+03  0.12508986358E+03 0.  0.
         23    2    1    2    0    0  0.52727888887E+02  0.39493210922E+02  0.19043206553E+03  0.22490749814E+03  0.99895280988E+02 0.  0.
          5    1    3    3  502    0 -0.52611307581E+02 -0.80132681022E+02  0.13692276529E+03  0.16719602958E+03  0.41800000000E+01 0.  1.
         -5    1    3    3    0  502 -0.11658130552E+00  0.40639470100E+02  0.10991426046E+03  0.11726123474E+03  0.41800000000E+01 0.  1.
        -11    1    4    4    0    0  0.18500916555E+02 -0.33663492662E+02  0.52217779104E+02  0.64824463794E+02  0.00000000000E+00 0. -1.
         11    1    4    4    0    0  0.34226972332E+02  0.73156703585E+02  0.13821428642E+03  0.16008303435E+03  0.00000000000E+00 0.  1.
</event>
<event>
 8    1  0.6760442E-009  0.1229391E+03  0.7561462E-02  0.1238326E+00
          2   -1    0    0  501    0  0.00000000000E+00  0.00000000000E+00  0.37243826645E+03  0.37243826645E+03  0.00000000000E+00 0. -1.
         -2   -1    0    0    0  501 -0.00000000000E+00 -0.00000000000E+00 -0.10544271751E+03  0.10544271751E+03  0.00000000000E+00 0.  1.
         25    2    1    2    0    0 -0.18566782024E+02  0.10015365965E+03  0.29660049361E+03  0.33763142423E+03  0.12509054672E+03 0.  0.
         23    2    1    2    0    0  0.18566782024E+02 -0.10015365965E+03 -0.29604944669E+02  0.14024955973E+03  0.91749688388E+02 0.  0.
          5    1    3    3  502    0  0.24680448841E+02  0.43537033706E+02  0.23659420697E+02  0.55514308486E+02  0.41800000000E+01 0.  1.
         -5    1    3    3    0  502 -0.43247230865E+02  0.56616625945E+02  0.27294107292E+03  0.28211711574E+03  0.41800000000E+01 0.  1.
        -11    1    4    4    0    0  0.44869161656E+02 -0.46960164558E+02  0.14209260283E+02  0.66486102313E+02  0.00000000000E+00 0. -1.
         11    1    4    4    0    0 -0.26302379632E+02 -0.53193495094E+02 -0.43814204952E+02  0.73763457417E+02  0.00000000000E+00 0.  1.
</event>
<event>
 8    1  0.6760442E-009  0.1531672E+03  0.7561462E-02  0.1196634E+00
         -2   -1    0    0    0  501 -0.00000000000E+00  0.00000000000E+00  0.59480416869E+02  0.59480416869E+02  0.00000000000E+00 0.  1.
          2   -1    0    0  501    0  0.00000000000E+00 -0.00000000000E+00 -0.51474124965E+03  0.51474124965E+03  0.00000000000E+00 0. -1.
         25    2    1    2    0    0  0.18300875187E+01 -0.11578443371E+03 -0.36097301648E+03  0.39919498821E+03  0.12508291521E+03 0.  0.
         23    2    1    2    0    0 -0.18300875187E+01  0.11578443371E+03 -0.94287816294E+02  0.17502667830E+03  0.91294915010E+02 0.  0.
          5    1    3    3  502    0 -0.34218651098E+02  0.35303102693E+01 -0.15146230559E+03  0.15537593632E+03  0.41800000000E+01 0.  1.
         -5    1    3    3    0  502  0.36048738617E+02 -0.11931474398E+03 -0.20951071089E+03  0.24381905189E+03  0.41800000000E+01 0.  1.
        -11    1    4    4    0    0 -0.45325088536E+02  0.73215221579E+02 -0.48170497690E+02  0.98667264933E+02  0.00000000000E+00 0.  1.
         11    1    4    4    0    0  0.43495001018E+02  0.42569212127E+02 -0.46117318604E+02  0.76359413368E+02  0.00000000000E+00 0. -1.
</event>
<event>
 8    1  0.6760442E-009  0.8893517E+02  0.7561462E-02  0.1305451E+00
          1   -1    0    0  501    0  0.00000000000E+00  0.00000000000E+00  0.54963198908E+02  0.54963198908E+02  0.00000000000E+00 0. -1.
         -1   -1    0    0    0  501 -0.00000000000E+00 -0.00000000000E+00 -0.24387501599E+03  0.24387501599E+03  0.00000000000E+00 0.  1.
         25    2    1    2    0    0  0.17934286758E+02  0.28138256900E+02 -0.75925796894E+02  0.15008389687E+03  0.12508816620E+03 0.  0.
         23    2    1    2    0    0 -0.17934286758E+02 -0.28138256900E+02 -0.11298602019E+03  0.14875431803E+03  0.90821837856E+02 0.  0.
          5    1    3    3  502    0  0.56105122595E+02  0.10101282714E+02 -0.88926005838E+02  0.10571247612E+03  0.41800000000E+01 0.  1.
         -5    1    3    3    0  502 -0.38170835838E+02  0.18036974187E+02  0.13000208945E+02  0.44371420745E+02  0.41800000000E+01 0.  1.
        -11    1    4    4    0    0 -0.17686933039E+02  0.21954379175E+02 -0.88722714040E+02  0.93094265945E+02  0.00000000000E+00 0.  1.
         11    1    4    4    0    0 -0.24735371838E+00 -0.50092636076E+02 -0.24263306153E+02  0.55660052087E+02  0.00000000000E+00 0. -1.
</event>
<event>
 8    1  0.6760442E-009  0.9559163E+02  0.7561462E-02  0.1289849E+00
          3   -1    0    0  501    0  0.00000000000E+00  0.00000000000E+00  0.32817752107E+03  0.32817752107E+03  0.00000000000E+00 0. -1.
         -3   -1    0    0    0  501 -0.00000000000E+00 -0.00000000000E+00 -0.41355521423E+02  0.41355521423E+02  0.00000000000E+00 0.  1.
         25    2    1    2    0    0 -0.36437429952E+02 -0.75617720840E+01  0.12797956732E+03  0.18278856530E+03  0.12509205912E+03 0.  0.
         23    2    1    2    0    0  0.36437429952E+02  0.75617720840E+01  0.15884243232E+03  0.18674447719E+03  0.90871969030E+02 0.  0.
          5    1    3    3  502    0  0.11040360419E+02  0.31100615764E+02 -0.74612212295E+01  0.34092229046E+02  0.41800000000E+01 0.  1.
         -5    1    3    3    0  502 -0.47477790371E+02 -0.38662387848E+02  0.13544078855E+03  0.14869633626E+03  0.41800000000E+01 0.  1.
        -11    1    4    4    0    0  0.18308974721E+02  0.48463902044E+02  0.10204250143E+03  0.11444055424E+03  0.00000000000E+00 0.  1.
         11    1    4    4    0    0  0.18128455232E+02 -0.40902129960E+02  0.56799930895E+02  0.72303922950E+02  0.00000000000E+00 0. -1.
</event>
<event>
 8    1  0.6760442E-009  0.9737695E+02  0.7561462E-02  0.1285911E+00
          2   -1    0    0  501    0  0.00000000000E+00  0.00000000000E+00  0.60960781490E+02  0.60960781490E+02  0.00000000000E+00 0. -1.
         -2   -1    0    0    0  501 -0.00000000000E+00 -0.00000000000E+00 -0.19381793964E+03  0.19381793964E+03  0.00000000000E+00 0.  1.
         25    2    1    2    0    0 -0.19626810268E+01 -0.29414608910E+01 -0.74392435208E+02  0.14558443129E+03  0.12509231754E+03 0.  0.
         23    2    1    2    0    0  0.19626810268E+01  0.29414608910E+01 -0.58464722943E+02  0.10919428985E+03  0.92156197822E+02 0.  0.
          5    1    3    3  502    0 -0.97572020143E+00 -0.63006521558E+02 -0.25855341472E+02  0.68240346360E+02  0.41800000000E+01 0. -1.
         -5    1    3    3    0  502 -0.98696082537E+00  0.60065060667E+02 -0.48537093736E+02  0.77344084925E+02  0.41800000000E+01 0. -1.
        -11    1    4    4    0    0 -0.30309827996E+02 -0.15677818257E+02 -0.63012513764E+02  0.71659308881E+02  0.00000000000E+00 0.  1.
         11    1    4    4    0    0  0.32272509023E+02  0.18619279148E+02  0.45477908207E+01  0.37534980964E+02  0.00000000000E+00 0. -1.
</event>
<event>
 8    1  0.6760442E-009  0.6588782E+02  0.7561462E-02  0.1374663E+00
         -2   -1    0    0    0  501 -0.00000000000E+00  0.00000000000E+00  0.16233281534E+02  0.16233281534E+02  0.00000000000E+00 0. -1.
          2   -1    0    0  501    0  0.00000000000E+00 -0.00000000000E+00 -0.96029924242E+03  0.96029924242E+03  0.00000000000E+00 0.  1.
         25    2    1    2    0    0 -0.17132516901E+02  0.27147756576E+02 -0.75885726344E+03  0.76976633169E+03  0.12508131476E+03 0.  0.
         23    2    1    2    0    0  0.17132516901E+02 -0.27147756576E+02 -0.18520869745E+03  0.20676619227E+03  0.86136361849E+02 0.  0.
          5    1    3    3  502    0 -0.60779041730E+01 -0.33290420408E+01  0.18952182748E+01  0.83119006463E+01  0.41800000000E+01 0. -1.
         -5    1    3    3    0  502 -0.11054612728E+02  0.30476798616E+02 -0.76075248171E+03  0.76145443104E+03  0.41800000000E+01 0. -1.
        -11    1    4    4    0    0 -0.34625271132E+02 -0.15532181853E+02 -0.92014504942E+02  0.99533045738E+02  0.00000000000E+00 0. -1.
         11    1    4    4    0    0  0.51757788033E+02 -0.11615574722E+02 -0.93194192505E+02  0.10723314653E+03  0.00000000000E+00 0.  1.
</event>
<event>
 8    1  0.6760442E-009  0.9194538E+02  0.7561462E-02  0.1298208E+00
         -2   -1    0    0    0  501 -0.00000000000E+00  0.00000000000E+00  0.57192780995E+02  0.57192780995E+02  0.00000000000E+00 0. -1.
          2   -1    0    0  501    0  0.00000000000E+00 -0.00000000000E+00 -0.31277603517E+03  0.31277603517E+03  0.00000000000E+00 0.  1.
         25    2    1    2    0    0 -0.67121000729E+02  0.91427440482E+00 -0.81841627051E+02  0.16386440296E+03  0.12508967184E+03 0.  0.
         23    2    1    2    0    0  0.67121000729E+02 -0.91427440482E+00 -0.17374162712E+03  0.20610441320E+03  0.88242911963E+02 0.  0.
          5    1    3    3  502    0 -0.21233756180E+02 -0.16041901625E+02 -0.10584047737E+03  0.10921489852E+03  0.41800000000E+01 0. -1.
         -5    1    3    3    0  502 -0.45887244549E+02  0.16956176030E+02  0.23998850322E+02  0.54649504432E+02  0.41800000000E+01 0. -1.
        -11    1    4    4    0    0  0.15036141417E+02  0.39282502487E+02 -0.45452480647E+02  0.61928414701E+02  0.00000000000E+00 0. -1.
         11    1    4    4    0    0  0.52084859312E+02 -0.40196776892E+02 -0.12828914647E+03  0.14417599850E+03  0.00000000000E+00 0.  1.
</event>
<event>
 8    1  0.6760442E-009  0.1378643E+03  0.7561462E-02  0.1216232E+00
         -1   -1    0    0    0  501 -0.00000000000E+00  0.00000000000E+00  0.72230399419E+02  0.72230399419E+02  0.00000000000E+00 0.  1.
          1   -1    0    0  501    0  0.00000000000E+00 -0.00000000000E+00 -0.63136161206E+03  0.63136161206E+03  0.00000000000E+00 0. -1.
         25    2    1    2    0    0 -0.11470855750E+01  0.13290018973E+03 -0.84441658098E+02  0.20110207590E+03  0.12509146682E+03 0.  0.
         23    2    1    2    0    0  0.11470855750E+01 -0.13290018973E+03 -0.47468955454E+03  0.50248993558E+03  0.97479156400E+02 0.  0.
          5    1    3    3  502    0 -0.77304064349E+01  0.11027011620E+03 -0.11678921173E+03  0.16086158673E+03  0.41800000000E+01 0. -1.
         -5    1    3    3    0  502  0.65833208599E+01  0.22630073538E+02  0.32347553634E+02  0.40240489162E+02  0.41800000000E+01 0. -1.
        -11    1    4    4    0    0 -0.22852426539E+02 -0.52280669776E+02 -0.33188076092E+03  0.33674967157E+03  0.00000000000E+00 0. -1.
         11    1    4    4    0    0  0.23999512114E+02 -0.80619519959E+02 -0.14280879362E+03  0.16574026402E+03  0.00000000000E+00 0.  1.
</event>
<event>
 8    1  0.6760442E-009  0.2727353E+03  0.7561462E-02  0.1099724E+00
         -1   -1    0    0    0  501 -0.00000000000E+00  0.00000000000E+00  0.12803665049E+04  0.12803665049E+04  0.00000000000E+00 0.  1.
          1   -1    0    0  501    0  0.00000000000E+00 -0.00000000000E+00 -0.64251974515E+02  0.64251974515E+02  0.00000000000E+00 0. -1.
         25    2    1    2    0    0 -0.26132313254E+03  0.40719145655E+02  0.65902506872E+03  0.72104798503E+03  0.12509327353E+03 0.  0.
         23    2    1    2    0    0  0.26132313254E+03 -0.40719145655E+02  0.55708946168E+03  0.62357049440E+03  0.92431946641E+02 0.  0.
          5    1    3    3  502    0 -0.72057722374E+02  0.42334866417E+00  0.34259325106E+03  0.35011441366E+03  0.41800000000E+01 0.  1.
         -5    1    3    3    0  502 -0.18926541016E+03  0.40295796991E+02  0.31643181766E+03  0.37093357137E+03  0.41800000000E+01 0.  1.
        -11    1    4    4    0    0  0.10568269675E+03 -0.62190436891E+02  0.22725830045E+03  0.25823016469E+03  0.00000000000E+00 0. -1.
         11    1    4    4    0    0  0.15564043578E+03  0.21471291236E+02  0.32983116123E+03  0.36534032971E+03  0.00000000000E+00 0.  1.
</event>
<event>
 8    1  0.6760442E-009  0.1163364E+03  0.7561462E-02  0.1249266E+00
          1   -1    0    0  501    0  0.00000000000E+00  0.00000000000E+00  0.24538838542E+03  0.24538838542E+03  0.00000000000E+00 0. -1.
         -1   -1    0    0    0  501 -0.00000000000E+00 -0.00000000000E+00 -0.79398444450E+02  0.79398444450E+02  0.00000000000E+00 0.  1.
         25    2    1    2    0    0 -0.95399643353E+01  0.44769458636E+02  0.17762440603E+03  0.22202073101E+03  0.12508980788E+03 0.  0.
         23    2    1    2    0    0  0.95399643353E+01 -0.44769458636E+02 -0.11634465064E+02  0.10276609885E+03  0.91269901666E+02 0.  0.
          5    1    3    3  502    0  0.55846216577E+02  0.11710075898E+02  0.99906585316E+02  0.11512916213E+03  0.41800000000E+01 0.  1.
         -5    1    3    3    0  502 -0.65386180913E+02  0.33059382738E+02  0.77717820715E+02  0.10689156888E+03  0.41800000000E+01 0.  1.
        -11    1    4    4    0    0  0.62822098718E+01 -0.73192931775E+02 -0.71843128002E+01  0.73812504178E+02  0.00000000000E+00 0. -1.
         11    1    4    4    0    0  0.32577544635E+01  0.28423473139E+02 -0.44501522637E+01  0.28953594675E+02  0.00000000000E+00 0.  1.
</event>
<event>
 8    1  0.6760442E-009  0.8296615E+02  0.7561462E-02  0.1320839E+00
          3   -1    0    0  501    0  0.00000000000E+00  0.00000000000E+00  0.28533310896E+03  0.28533310896E+03  0.00000000000E+00 0. -1.
         -3   -1    0    0    0  501 -0.00000000000E+00 -0.00000000000E+00 -0.84778827192E+02  0.84778827192E+02  0.00000000000E+00 0.  1.
         25    2    1    2    0    0  0.33950462293E+02  0.44972198350E+02 -0.59129247769E+01  0.13732210526E+03  0.12508902989E+03 0.  0.
         23    2    1    2    0    0 -0.33950462293E+02 -0.44972198350E+02  0.20646720654E+03  0.23278983089E+03  0.91582015019E+02 0.  0.
          5    1    3    3  502    0 -0.14667423384E+02  0.84260183727E+01  0.51015865112E+02  0.53909386821E+02  0.41800000000E+01 0. -1.
         -5    1    3    3    0  502  0.48617885678E+02  0.36546179978E+02 -0.56928789889E+02  0.83412718436E+02  0.41800000000E+01 0. -1.
        -11    1    4    4    0    0  0.10710437810E+02 -0.41373015965E+02  0.16919210930E+03  0.17450618836E+03  0.00000000000E+00 0. -1.
         11    1    4    4    0    0 -0.44660900103E+02 -0.35991823852E+01  0.37275097243E+02  0.58283642528E+02  0.00000000000E+00 0.  1.
</event>
<event>
 8    1  0.6760442E-009  0.1111370E+03  0.7561462E-02  0.1258479E+00
         -2   -1    0    0    0  501 -0.00000000000E+00  0.00000000000E+00  0.25320636115E+02  0.25320636115E+02  0.00000000000E+00 0.  1.
          2   -1    0    0  501    0  0.00000000000E+00 -0.00000000000E+00 -0.12466336132E+04  0.12466336132E+04  0.00000000000E+00 0. -1.
         25    2    1    2    0    0  0.32117662789E+02  0.62011155992E+02 -0.10882996360E+04  0.10976921192E+04  0.12511979480E+03 0.  0.
         23    2    1    2    0    0 -0.32117662789E+02 -0.62011155992E+02 -0.13301334104E+03  0.17426213009E+03  0.88305228384E+02 0.  0.
          5    1    3    3  502    0 -0.24689428972E+02  0.71529540246E+02 -0.80542212419E+03  0.80897979799E+03  0.41800000000E+01 0.  1.
         -5    1    3    3    0  502  0.56807091761E+02 -0.95183842547E+01 -0.28287751183E+03  0.28871232120E+03  0.41800000000E+01 0.  1.
        -11    1    4    4    0    0 -0.41818607121E+02 -0.21385290934E+02 -0.15363884413E+02  0.49418372232E+02  0.00000000000E+00 0.  1.
         11    1    4    4    0    0  0.97009443316E+01 -0.40625865058E+02 -0.11764945663E+03  0.12484375786E+03  0.00000000000E+00 0. -1.
</event>
<event>
 8    1  0.6760442E-009  0.1185114E+03  0.7561462E-02  0.1245573E+00
          2   -1    0    0  501    0  0.00000000000E+00  0.00000000000E+00  0.13211007858E+03  0.13211007858E+03  0.00000000000E+00 0. -1.
         -2   -1    0    0    0  501 -0.00000000000E+00 -0.00000000000E+00 -0.12243368112E+03  0.12243368112E+03  0.00000000000E+00 0.  1.
         25    2    1    2    0    0  0.62648219561E+02  0.17004883127E+02  0.23057363409E+02  0.14280528990E+03  0.12509094033E+03 0.  0.
         23    2    1    2    0    0 -0.62648219561E+02 -0.17004883127E+02 -0.13380965946E+02  0.11173846980E+03  0.89958156494E+02 0.  0.
          5    1    3    3  502    0  0.57912765767E+02 -0.46176229678E+02 -0.28170107135E+01  0.74239750642E+02  0.41800000000E+01 0.  1.
         -5    1    3    3    0  502  0.47354537945E+01  0.63181112806E+02  0.25874374122E+02  0.68565539261E+02  0.41800000000E+01 0.  1.
        -11    1    4    4    0    0 -0.57997515832E+02  0.20525958292E+02 -0.32262899699E+02  0.69468852758E+02  0.00000000000E+00 0.  1.
         11    1    4    4    0    0 -0.46507037295E+01 -0.37530841419E+02  0.18881933753E+02  0.42269617045E+02  0.00000000000E+00 0. -1.
</event>
<event>
 8    1  0.6760442E-009  0.1065002E+03  0.7561462E-02  0.1267192E+00
          2   -1    0    0  501    0  0.00000000000E+00  0.00000000000E+00  0.70393837097E+03  0.70393837097E+03  0.00000000000E+00 0. -1.
         -2   -1    0    0    0  501 -0.00000000000E+00 -0.00000000000E+00 -0.30266233060E+02  0.30266233060E+02  0.00000000000E+00 0.  1.
         25    2    1    2    0    0 -0.37360180732E+02 -0.43600769297E+02  0.56267027986E+03  0.57926239840E+03  0.12510104787E+03 0.  0.
         23    2    1    2    0    0  0.37360180732E+02  0.43600769297E+02  0.11100185805E+03  0.15494220563E+03  0.91590744108E+02 0.  0.
          5    1    3    3  502    0 -0.37907266349E+02  0.18770153063E+02  0.43538142044E+03  0.43745140661E+03  0.41800000000E+01 0. -1.
         -5    1    3    3    0  502  0.54708561641E+00 -0.62370922359E+02  0.12728885943E+03  0.14181099179E+03  0.41800000000E+01 0. -1.
        -11    1    4    4    0    0 -0.60934366608E+01  0.60904924165E+02  0.66506181176E+02  0.90385905386E+02  0.00000000000E+00 0. -1.
         11    1    4    4    0    0  0.43453617393E+02 -0.17304154868E+02  0.44495676873E+02  0.64556300240E+02  0.00000000000E+00 0.  1.
</event>
<event>
 8    1  0.6760442E-009  0.8894573E+02  0.7561462E-02  0.1305425E+00
          1   -1    0    0  501    0  0.00000000000E+00  0.00000000000E+00  0.92836762098E+03  0.92836762098E+03  0.00000000000E+00 0. -1.
         -1   -1    0    0    0  501 -0.00000000000E+00 -0.00000000000E+00 -0.20829523140E+02  0.20829523140E+02  0.00000000000E+00 0.  1.
         25    2    1    2    0    0  0.49794252055E+02 -0.10885786648E+02  0.73297148910E+03  0.74531301942E+03  0.12508527171E+03 0.  0.
         23    2    1    2    0    0 -0.49794252055E+02  0.10885786648E+02  0.17456660874E+03  0.20388412470E+03  0.92180624474E+02 0.  0.
          5    1    3    3  502    0  0.35483311670E+02  0.25638555453E+02  0.81155708152E+02  0.92304508549E+02  0.41800000000E+01 0.  1.
         -5    1    3    3    0  502  0.14310940385E+02 -0.36524342100E+02  0.65181578095E+03  0.65300851087E+03  0.41800000000E+01 0.  1.
        -11    1    4    4    0    0 -0.51315894616E+02  0.40153453728E+02  0.15633169961E+03  0.16936711957E+03  0.00000000000E+00 0. -1.
         11    1    4    4    0    0  0.15216425615E+01 -0.29267667080E+02  0.18234909128E+02  0.34517005132E+02  0.00000000000E+00 0.  1.
</event>
<event>
 8    1  0.6760442E-009  0.1155944E+03  0.7561462E-02  0.1250547E+00
          1   -1    0    0  501    0  0.00000000000E+00  0.00000000000E+00  0.39235373738E+03  0.39235373738E+03  0.00000000000E+00 0. -1.
         -1   -1    0    0    0  501 -0.00000000000E+00 -0.00000000000E+00 -0.65224725557E+02  0.65224725557E+02  0.00000000000E+00 0.  1.
         25    2    1    2    0    0 -0.56863083227E+02 -0.74872388144E+02  0.71838432096E+02  0.17218356616E+03  0.12508851022E+03 0.  0.
         23    2    1    2    0    0  0.56863083227E+02  0.74872388144E+02  0.25529057973E+03  0.28539489678E+03  0.86241998294E+02 0.  0.
          5    1    3    3  502    0  0.50247639334E+01  0.24128550312E+00  0.74447092112E+02  0.74733850397E+02  0.41800000000E+01 0.  1.
         -5    1    3    3    0  502 -0.61887847161E+02 -0.75113673647E+02 -0.26086600153E+01  0.97449715762E+02  0.41800000000E+01 0.  1.
        -11    1    4    4    0    0  0.21606901045E+02 -0.17855173626E+02  0.65366520280E+02  0.71122762682E+02  0.00000000000E+00 0.  1.
         11    1    4    4    0    0  0.35256182182E+02  0.92727561770E+02  0.18992405945E+03  0.21427213410E+03  0.00000000000E+00 0. -1.
</event>
<event>
 8    1  0.6760442E-009  0.2592581E+03  0.7561462E-02  0.1107590E+00
          2   -1    0    0  501    0  0.00000000000E+00  0.00000000000E+00  0.74666780106E+03  0.74666780106E+03  0.00000000000E+00 0.  1.
         -2   -1    0    0    0  501 -0.00000000000E+00 -0.00000000000E+00 -0.99800485801E+02  0.99800485801E+02  0.00000000000E+00 0. -1.
         25    2    1    2    0    0  0.87901086968E+02 -0.23042546673E+03  0.39797970870E+03  0.48462151631E+03  0.12509064202E+03 0.  0.
         23    2    1    2    0    0 -0.87901086968E+02  0.23042546673E+03  0.24888760656E+03  0.36184677055E+03  0.90363420996E+02 0.  0.
          5    1    3    3  502    0  0.68396508079E+02 -0.48406389250E+02  0.71202205038E+02  0.11003857160E+03  0.41800000000E+01 0. -1.
         -5    1    3    3    0  502  0.19504578889E+02 -0.18201907748E+03  0.32677750366E+03  0.37458294471E+03  0.41800000000E+01 0. -1.
        -11    1    4    4    0    0 -0.14765922337E-01  0.57802496659E+02  0.18163988171E+02  0.60589267237E+02  0.00000000000E+00 0. -1.
         11    1    4    4    0    0 -0.87886321046E+02  0.17262297007E+03  0.23072361838E+03  0.30125750331E+03  0.00000000000E+00 0.  1.
</event>
<event>
 8    1  0.6760442E-009  0.1168825E+03  0.7561462E-02  0.1248330E+00
         -1   -1    0    0    0  501 -0.00000000000E+00  0.00000000000E+00  0.32940768580E+02  0.32940768580E+02  0.00000000000E+00 0.  1.
          1   -1    0    0  501    0  0.00000000000E+00 -0.00000000000E+00 -0.23035827506E+04  0.23035827506E+04  0.00000000000E+00 0. -1.
         25    2    1    2    0    0  0.72126611914E+02  0.48221057702E+02 -0.21671056768E+04  0.21724463166E+04  0.12509382709E+03 0.  0.
         23    2    1    2    0    0 -0.72126611914E+02 -0.48221057702E+02 -0.10353630524E+03  0.16407720259E+03  0.93134544371E+02 0.  0.
          5    1    3    3  502    0  0.25758316687E+02  0.84005679918E+02 -0.99888028069E+03  0.10027460958E+04  0.41800000000E+01 0. -1.
         -5    1    3    3    0  502  0.46368295226E+02 -0.35784622215E+02 -0.11682253961E+04  0.11697002208E+04  0.41800000000E+01 0. -1.
        -11    1    4    4    0    0 -0.61113526816E+02 -0.37452463457E+02 -0.12109626083E+03  0.14071906256E+03  0.00000000000E+00 0. -1.
         11    1    4    4    0    0 -0.11013085098E+02 -0.10768594245E+02  0.17559955594E+02  0.23358140034E+02  0.00000000000E+00 0.  1.
</event>
<event>
 8    1  0.6760442E-009  0.1092901E+03  0.7561462E-02  0.1261890E+00
          1   -1    0    0  501    0  0.00000000000E+00  0.00000000000E+00  0.15390901409E+04  0.15390901409E+04  0.00000000000E+00 0. -1.
         -1   -1    0    0    0  501 -0.00000000000E+00 -0.00000000000E+00 -0.16957443839E+02  0.16957443839E+02  0.00000000000E+00 0.  1.
         25    2    1    2    0    0  0.77480101040E+02  0.40321685327E+00  0.12278980288E+04  0.12366828030E+04  0.12508979753E+03 0.  0.
         23    2    1    2    0    0 -0.77480101040E+02 -0.40321685327E+00  0.29423466824E+03  0.31936478172E+03  0.97038627215E+02 0.  0.
          5    1    3    3  502    0  0.84509851307E+01  0.26521083108E+02  0.90473182552E+03  0.90516956174E+03  0.41800000000E+01 0.  1.
         -5    1    3    3    0  502  0.69029115909E+02 -0.26117866255E+02  0.32316620330E+03  0.33151324127E+03  0.41800000000E+01 0.  1.
        -11    1    4    4    0    0 -0.79623928817E+02 -0.31288195984E+02  0.25741543661E+03  0.27125933764E+03  0.00000000000E+00 0. -1.
         11    1    4    4    0    0  0.21438277771E+01  0.30884979131E+02  0.36819231624E+02  0.48105444087E+02  0.00000000000E+00 0.  1.
</event>
<event>
 8    1  0.6760442E-009  0.1327105E+03  0.7561462E-02  0.1223488E+00
          1   -1    0    0  501    0  0.00000000000E+00  0.00000000000E+00  0.30825439016E+03  0.30825439016E+03  0.00000000000E+00 0.  1.
         -1   -1    0    0    0  501 -0.00000000000E+00 -0.00000000000E+00 -0.10520088698E+03  0.10520088698E+03  0.00000000000E+00 0. -1.
         25    2    1    2    0    0  0.37938598332E+02 -0.10937797483E+03  0.10308409934E+02  0.17075632877E+03  0.12509429195E+03 0.  0.
         23    2    1    2    0    0 -0.37938598332E+02  0.10937797483E+03  0.19274509324E+03  0.24269894837E+03  0.91374120798E+02 0.  0.
          5    1    3    3  502    0  0.63458010075E+02 -0.45123474107E+02  0.48333237844E+02  0.91742145378E+02  0.41800000000E+01 0.  1.
         -5    1    3    3    0  502 -0.25519411743E+02 -0.64254500724E+02 -0.38024827910E+02  0.79014183389E+02  0.41800000000E+01 0.  1.
        -11    1    4    4    0    0 -0.39883984029E+02  0.86868146023E+02  0.19767573864E+03  0.21957346065E+03  0.00000000000E+00 0.  1.
         11    1    4    4    0    0  0.19453856976E+01  0.22509828808E+02 -0.49306453964E+01  0.23125487725E+02  0.00000000000E+00 0. -1.
</event>
<event>
 8    1  0.6760442E-009  0.9952710E+02  0.7561462E-02  0.1281294E+00
          2   -1    0    0  501    0  0.00000000000E+00  0.00000000000E+00  0.65111443269E+03  0.65111443269E+03  0.00000000000E+00 0. -1.
         -2   -1    0    0    0  501 -0.00000000000E+00 -0.00000000000E+00 -0.22811257149E+02  0.22811257149E+02  0.00000000000E+00 0.  1.
         25    2    1    2    0    0 -0.44724372223E+02 -0.54296132294E+01  0.45705669069E+03  0.47600282637E+03  0.12509245396E+03 0.  0.
         23    2    1    2    0    0  0.44724372223E+02  0.54296132294E+01  0.17124648485E+03  0.19792286347E+03  0.88421440498E+02 0.  0.
          5    1    3    3  502    0 -0.14690097242E+02 -0.47678017459E+02  0.73465128070E+02  0.88902135790E+02  0.41800000000E+01 0.  1.
         -5    1    3    3    0  502 -0.30034274981E+02  0.42248404230E+02  0.38359156262E+03  0.38710069058E+03  0.41800000000E+01 0.  1.
        -11    1    4    4    0    0  0.31575973633E+02 -0.39270962143E+02  0.10977403866E+03  0.12078737575E+03  0.00000000000E+00 0. -1.
         11    1    4    4    0    0  0.13148398590E+02  0.44700575372E+02  0.61472446197E+02  0.77135487718E+02  0.00000000000E+00 0.  1.
</event>
<event>
 8    1  0.6760442E-009  0.1357781E+03  0.7561462E-02  0.1219125E+00
          2   -1    0    0  501    0  0.00000000000E+00  0.00000000000E+00  0.74885654355E+03  0.74885654355E+03  0.00000000000E+00 0. -1.
         -2   -1    0    0    0  501 -0.00000000000E+00 -0.00000000000E+00 -0.26114518412E+02  0.26114518412E+02  0.00000000000E+00 0.  1.
         25    2    1    2    0    0 -0.40059871259E+02 -0.74499630239E+02  0.32868729542E+03  0.36171523939E+03  0.12509031954E+03 0.  0.
         23    2    1    2    0    0  0.40059871259E+02  0.74499630239E+02  0.39405472972E+03  0.41325582258E+03  0.91357849630E+02 0.  0.
          5    1    3    3  502    0  0.44436819654E+02 -0.23683302919E+02  0.86239882823E+02  0.99951586118E+02  0.41800000000E+01 0. -1.
         -5    1    3    3    0  502 -0.84496690913E+02 -0.50816327320E+02  0.24244741260E+03  0.26176365327E+03  0.41800000000E+01 0. -1.
        -11    1    4    4    0    0 -0.23169810832E+02 -0.18078483949E+01  0.48652737489E+02  0.53918432052E+02  0.00000000000E+00 0.  1.
         11    1    4    4    0    0  0.63229682091E+02  0.76307478634E+02  0.34540199223E+03  0.35933739052E+03  0.00000000000E+00 0. -1.
</event>
<event>
 8    1  0.6760442E-009  0.1804045E+03  0.7561462E-02  0.1167412E+00
         -1   -1    0    0    0  501 -0.00000000000E+00  0.00000000000E+00  0.35756695694E+03  0.35756695694E+03  0.00000000000E+00 0.  1.
          1   -1    0    0  501    0  0.00000000000E+00 -0.00000000000E+00 -0.21781560578E+03  0.21781560578E+03  0.00000000000E+00 0. -1.
         25    2    1    2    0    0 -0.38905817382E+00  0.14806144961E+03  0.28738158845E+03  0.34663878602E+03  0.12509167187E+03 0.  0.
         23    2    1    2    0    0  0.38905817382E+00 -0.14806144961E+03 -0.14763023728E+03  0.22874377669E+03  0.92772216689E+02 0.  0.
          5    1    3    3  502    0  0.55378364072E+02  0.40420096915E+02  0.72416606888E+02  0.99810744887E+02  0.41800000000E+01 0. -1.
         -5    1    3    3    0  502 -0.55767422245E+02  0.10764135269E+03  0.21496498156E+03  0.24682804114E+03  0.41800000000E+01 0. -1.
        -11    1    4    4    0    0 -0.34364146911E+02 -0.12368304565E+03 -0.13024127365E+03  0.18286929687E+03  0.00000000000E+00 0.  1.
         11    1    4    4    0    0  0.34753205085E+02 -0.24378403960E+02 -0.17388963632E+02  0.45874479828E+02  0.00000000000E+00 0. -1.
</event>
<event>
 8    1  0.6760442E-009  0.1074472E+03  0.7561462E-02  0.1265372E+00
          1   -1    0    0  501    0  0.00000000000E+00  0.00000000000E+00  0.28705709157E+03  0.28705709157E+03  0.00000000000E+00 0. -1.
         -1   -1    0    0    0  501 -0.00000000000E+00 -0.00000000000E+00 -0.48742532335E+02  0.48742532335E+02  0.00000000000E+00 0.  1.
         25    2    1    2    0    0 -0.37844878668E+02 -0.38105869909E+01  0.92588197583E+02  0.16021252931E+03  0.12509486322E+03 0.  0.
         23    2    1    2    0    0  0.37844878668E+02  0.38105869909E+01  0.14572636165E+03  0.17558709459E+03  0.90265718254E+02 0.  0.
          5    1    3    3  502    0 -0.22813197142E+02 -0.58714672043E+02  0.16784410016E+02  0.65322610913E+02  0.41800000000E+01 0. -1.
         -5    1    3    3    0  502 -0.15031681526E+02  0.54904085052E+02  0.75803787566E+02  0.94889918402E+02  0.41800000000E+01 0. -1.
        -11    1    4    4    0    0 -0.27545752636E+02 -0.69697731630E+01  0.66371546667E+02  0.72197842303E+02  0.00000000000E+00 0.  1.
         11    1    4    4    0    0  0.65390631303E+02  0.10780360154E+02  0.79354814985E+02  0.10338925229E+03  0.00000000000E+00 0. -1.
</event>
<event>
 8    1  0.6760442E-009  0.1164117E+03  0.7561462E-02  0.1249137E+00
         -3   -1    0    0    0  501 -0.00000000000E+00  0.00000000000E+00  0.82600506636E+03  0.82600506636E+03  0.00000000000E+00 0.  1.
          3   -1    0    0  501    0  0.00000000000E+00 -0.00000000000E+00 -0.18275208667E+02  0.18275208667E+02  0.00000000000E+00 0. -1.
         25    2    1    2    0    0 -0.12549981702E+02  0.48933990001E+02  0.52222653755E+03  0.53937027654E+03  0.12509077213E+03 0.  0.
         23    2    1    2    0    0  0.12549981702E+02 -0.48933990001E+02  0.28550332013E+03  0.30490999848E+03  0.94371202956E+02 0.  0.
          5    1    3    3  502    0 -0.51423984479E+02 -0.12391829431E+02  0.12920370496E+03  0.13967481302E+03  0.41800000000E+01 0. -1.
         -5    1    3    3    0  502  0.38874002777E+02  0.61325819431E+02  0.39302283259E+03  0.39969546352E+03  0.41800000000E+01 0. -1.
        -11    1    4    4    0    0 -0.22483462129E+01 -0.76081387340E+02  0.20128136992E+03  0.21519205942E+03  0.00000000000E+00 0.  1.
         11    1    4    4    0    0  0.14798327915E+02  0.27147397340E+02  0.84221950210E+02  0.89717939057E+02  0.00000000000E+00 0. -1.
</event>
<event>
 8    1  0.6760442E-009  0.2282437E+03  0.7561462E-02  0.1127882E+00
         -2   -1    0    0    0  501 -0.00000000000E+00  0.00000000000E+00  0.57017883307E+02  0.57017883307E+02  0.00000000000E+00 0.  1.
          2   -1    0    0  501    0  0.00000000000E+00 -0.00000000000E+00 -0.14266562962E+04  0.14266562962E+04  0.00000000000E+00 0. -1.
         25    2    1    2    0    0 -0.86104128875E+02  0.19059867120E+03 -0.28341882826E+03  0.37378526631E+03  0.12508964235E+03 0.  0.
         23    2    1    2    0    0  0.86104128875E+02 -0.19059867120E+03 -0.10862195846E+04  0.11098889132E+04  0.90766949513E+02 0.  0.
          5    1    3    3  502    0  0.25996178461E+02  0.69424446900E+02 -0.57288951665E+02  0.93781935920E+02  0.41800000000E+01 0. -1.
         -5    1    3    3    0  502 -0.11210030734E+03  0.12117422430E+03 -0.22612987659E+03  0.28000333039E+03  0.41800000000E+01 0. -1.
        -11    1    4    4    0    0  0.32758064223E+02 -0.13930309977E+03 -0.86128469911E+03  0.87309207836E+03  0.00000000000E+00 0. -1.
         11    1    4    4    0    0  0.53346064653E+02 -0.51295571437E+02 -0.22493488551E+03  0.23679683483E+03  0.00000000000E+00 0.  1.
</event>
<event>
 8    1  0.6760442E-009  0.7947625E+02  0.7561462E-02  0.1330544E+00
         -1   -1    0    0    0  501 -0.00000000000E+00  0.00000000000E+00  0.89894465298E+02  0.89894465298E+02  0.00000000000E+00 0.  1.
          1   -1    0    0  501    0  0.00000000000E+00 -0.00000000000E+00 -0.13871424205E+03  0.13871424205E+03  0.00000000000E+00 0. -1.
         25    2    1    2    0    0 -0.93281730200E+01 -0.24941176402E+02 -0.31623015365E+02  0.13174080446E+03  0.12508615978E+03 0.  0.
         23    2    1    2    0    0  0.93281730200E+01  0.24941176402E+02 -0.17196761389E+02  0.96867902887E+02  0.91534610477E+02 0.  0.
          5    1    3    3  502    0  0.46266356467E+02 -0.47425108277E+02 -0.69119696960E+01  0.66745519407E+02  0.41800000000E+01 0. -1.
         -5    1    3    3    0  502 -0.55594529487E+02  0.22483931875E+02 -0.24711045669E+02  0.64995285056E+02  0.41800000000E+01 0. -1.
        -11    1    4    4    0    0  0.14979939053E+02  0.16422280314E+02  0.36211740015E+02  0.42489763234E+02  0.00000000000E+00 0.  1.
         11    1    4    4    0    0 -0.56517660329E+01  0.85188960884E+01 -0.53408501404E+02  0.54378139653E+02  0.00000000000E+00 0. -1.
</event>
<event>
 8    1  0.6760442E-009  0.1825898E+03  0.7561462E-02  0.1165320E+00
          2   -1    0    0  501    0  0.00000000000E+00  0.00000000000E+00  0.17155651295E+04  0.17155651295E+04  0.00000000000E+00 0. -1.
         -2   -1    0    0    0  501 -0.00000000000E+00 -0.00000000000E+00 -0.26495395997E+02  0.26495395997E+02  0.00000000000E+00 0.  1.
         25    2    1    2    0    0  0.14637674548E+03 -0.10150809701E+03  0.10578404328E+04  0.10800020715E+04  0.12509215687E+03 0.  0.
         23    2    1    2    0    0 -0.14637674548E+03  0.10150809701E+03  0.63122930067E+03  0.66205845400E+03  0.90227053154E+02 0.  0.
          5    1    3    3  502    0  0.97217338207E+02 -0.96091000922E+02  0.45463199240E+03  0.47475510763E+03  0.41800000000E+01 0. -1.
         -5    1    3    3    0  502  0.49159407277E+02 -0.54170960844E+01  0.60320844041E+03  0.60524696384E+03  0.41800000000E+01 0. -1.
        -11    1    4    4    0    0 -0.67768924078E+02  0.37731317370E+02  0.13576944272E+03  0.15636374566E+03  0.00000000000E+00 0.  1.
         11    1    4    4    0    0 -0.78607821406E+02  0.63776779636E+02  0.49545985795E+03  0.50569470834E+03  0.00000000000E+00 0. -1.
</event>
<event>
 7    1  0.6760442E-009  0.1611578E+03  0.7561462E-02  0.1187396E+00
         -1   -1    0    0    0  501 -0.00000000000E+00  0.00000000000E+00  0.42581465818E+03  0.42581465818E+03  0.00000000000E+00 0.  1.
          1   -1    0    0  501    0  0.00000000000E+00 -0.00000000000E+00 -0.81089533224E+02  0.81089533224E+02  0.00000000000E+00 0. -1.
         23    2    1    2    0    0 -0.26819506704E+01  0.14323393466E+03  0.97546213252E+02  0.19499693605E+03  0.89361000734E+02 0.  0.
          5    1    1    2  502    0  0.31832676789E+02 -0.18124832885E+02  0.43021115610E+01  0.37118855620E+02  0.41800000000E+01 0. -1.
         -5    1    1    2    0  502 -0.29150726118E+02 -0.12510910177E+03  0.24287680014E+03  0.27478839973E+03  0.41800000000E+01 0. -1.
        -11    1    3    3    0    0  0.22829358825E+02  0.12082525814E+03  0.42082871535E+02  0.12996495953E+03  0.00000000000E+00 0. -1.
         11    1    3    3    0    0 -0.25511309495E+02  0.22408676515E+02  0.55463341717E+02  0.65031976517E+02  0.00000000000E+00 0.  1.
</event>
<event>
 8    1  0.6760442E-009  0.1767363E+03  0.7561462E-02  0.1171000E+00
         -1   -1    0    0    0  501 -0.00000000000E+00  0.00000000000E+00  0.54899799391E+02  0.54899799391E+02  0.00000000000E+00 0.  1.
          1   -1    0    0  501    0  0.00000000000E+00 -0.00000000000E+00 -0.83920588849E+03  0.83920588849E+03  0.00000000000E+00 0. -1.
         25    2    1    2    0    0 -0.18849969793E+02 -0.14418290648E+03 -0.17077912963E+03  0.25682228217E+03  0.12509253223E+03 0.  0.
         23    2    1    2    0    0  0.18849969793E+02  0.14418290648E+03 -0.61352695947E+03  0.63728340572E+03  0.92578492752E+02 0.  0.
          5    1    3    3  502    0  0.45602073401E+02 -0.82929631011E+02 -0.12465784077E+03  0.15656922579E+03  0.41800000000E+01 0.  1.
         -5    1    3    3    0  502 -0.64452043194E+02 -0.61253275468E+02 -0.46121288859E+02  0.10025305638E+03  0.41800000000E+01 0.  1.
        -11    1    4    4    0    0 -0.12034574610E+02  0.13762774925E+03 -0.44973123796E+03  0.47047254409E+03  0.00000000000E+00 0.  1.
         11    1    4    4    0    0  0.30884544403E+02  0.65551572293E+01 -0.16379572152E+03  0.16681086163E+03  0.00000000000E+00 0. -1.
</event>
<event>
 8    1  0.6760442E-009  0.1155167E+03  0.7561462E-02  0.1250682E+00
         -3   -1    0    0    0  501 -0.00000000000E+00  0.00000000000E+00  0.52669989611E+03  0.52669989611E+03  0.00000000000E+00 0.  1.
          3   -1    0    0  501    0  0.00000000000E+00 -0.00000000000E+00 -0.28991107657E+02  0.28991107657E+02  0.00000000000E+00 0. -1.
         25    2    1    2    0    0 -0.41665892587E+01 -0.57367093416E+02  0.27773359196E+03  0.30998644075E+03  0.12508917408E+03 0.  0.
         23    2    1    2    0    0  0.41665892587E+01  0.57367093416E+02  0.21997519649E+03  0.24570456302E+03  0.93130560733E+02 0.  0.
          5    1    3    3  502    0  0.51459648553E+02 -0.51830878868E+02  0.10195961596E+03  0.12549012360E+03  0.41800000000E+01 0. -1.
         -5    1    3    3    0  502 -0.55626237812E+02 -0.55362145478E+01  0.17577397600E+03  0.18449631715E+03  0.41800000000E+01 0. -1.
        -11    1    4    4    0    0  0.40429275062E+02  0.90881973040E+01  0.13669962284E+03  0.14284225039E+03  0.00000000000E+00 0.  1.
         11    1    4    4    0    0 -0.36262685804E+02  0.48278896112E+02  0.83275573650E+02  0.10286231262E+03  0.00000000000E+00 0. -1.
</event>
<event>
 8    1  0.6760442E-009  0.2885467E+03  0.7561462E-02  0.1091110E+00
         -1   -1    0    0    0  501 -0.00000000000E+00  0.00000000000E+00  0.47442522440E+03  0.47442522440E+03  0.00000000000E+00 0.  1.
          1   -1    0    0  501    0  0.00000000000E+00 -0.00000000000E+00 -0.28553726758E+03  0.28553726758E+03  0.00000000000E+00 0. -1.
         25    2    1    2    0    0 -0.11786534456E+03 -0.25000463084E+03  0.31979863436E+03  0.44081011698E+03  0.12509131786E+03 0.  0.
         23    2    1    2    0    0  0.11786534456E+03  0.25000463084E+03 -0.13091067754E+03  0.31915237499E+03  0.91247345592E+02 0.  0.
          5    1    3    3  502    0 -0.11371649113E+03 -0.25542327335E+03  0.26439252289E+03  0.38482901071E+03  0.41800000000E+01 0.  1.
         -5    1    3    3    0  502 -0.41488534293E+01  0.54186425051E+01  0.55406111465E+02  0.55981106269E+02  0.41800000000E+01 0.  1.
        -11    1    4    4    0    0  0.38211102026E+01  0.10461231421E+03 -0.63616610920E+02  0.12249657282E+03  0.00000000000E+00 0. -1.
         11    1    4    4    0    0  0.11404423436E+03  0.14539231664E+03 -0.67294066618E+02  0.19665580218E+03  0.00000000000E+00 0.  1.
</event>
<event>
 8    1  0.6760442E-009  0.1981780E+03  0.7561462E-02  0.1151285E+00
         -2   -1    0    0    0  501 -0.00000000000E+00  0.00000000000E+00  0.73484111719E+02  0.73484111719E+02  0.00000000000E+00 0.  1.
          2   -1    0    0  501    0  0.00000000000E+00 -0.00000000000E+00 -0.64592984896E+03  0.64592984896E+03  0.00000000000E+00 0. -1.
         25    2    1    2    0    0 -0.18449641785E+03 -0.48198374815E+01 -0.25305623508E+03  0.33726434984E+03  0.12509046538E+03 0.  0.
         23    2    1    2    0    0  0.18449641785E+03  0.48198374815E+01 -0.31938950216E+03  0.38214961083E+03  0.99832419276E+02 0.  0.
          5    1    3    3  502    0 -0.11279592039E+03 -0.53233501448E+02 -0.94305718168E+02  0.15642175747E+03  0.41800000000E+01 0. -1.
         -5    1    3    3    0  502 -0.71700497463E+02  0.48413663967E+02 -0.15875051691E+03  0.18084259237E+03  0.41800000000E+01 0. -1.
        -11    1    4    4    0    0  0.14526445441E+03 -0.10927111363E+01 -0.15252950213E+03  0.21063761476E+03  0.00000000000E+00 0.  1.
         11    1    4    4    0    0  0.39231963437E+02  0.59125486177E+01 -0.16686000003E+03  0.17151199607E+03  0.00000000000E+00 0. -1.
</event>
<event>
 8    1  0.6760442E-009  0.1031553E+03  0.7561462E-02  0.1273797E+00
         -2   -1    0    0    0  501 -0.00000000000E+00  0.00000000000E+00  0.33034452835E+02  0.33034452835E+02  0.00000000000E+00 0.  1.
          2   -1    0    0  501    0  0.00000000000E+00 -0.00000000000E+00 -0.50094223463E+03  0.50094223463E+03  0.00000000000E+00 0. -1.
         25    2    1    2    0    0  0.51865390730E+02 -0.45935621193E+01 -0.34102383350E+03  0.36695345593E+03  0.12508582747E+03 0.  0.
         23    2    1    2    0    0 -0.51865390730E+02  0.45935621193E+01 -0.12688394829E+03  0.16702323153E+03  0.95321057324E+02 0.  0.
          5    1    3    3  502    0  0.82780907395E+02 -0.23699262492E+02 -0.15494373392E+03  0.17731149640E+03  0.41800000000E+01 0. -1.
         -5    1    3    3    0  502 -0.30915516665E+02  0.19105700373E+02 -0.18608009958E+03  0.18964195954E+03  0.41800000000E+01 0. -1.
        -11    1    4    4    0    0  0.14135516400E+02 -0.81262809732E+01 -0.87736486570E+02  0.89238670665E+02  0.00000000000E+00 0. -1.
         11    1    4    4    0    0 -0.66000907131E+02  0.12719843092E+02 -0.39147461723E+02  0.77784560870E+02  0.00000000000E+00 0.  1.
</event>
<event>
 8    1  0.6760442E-009  0.1123196E+03  0.7561462E-02  0.1256334E+00
         -2   -1    0    0    0  501 -0.00000000000E+00  0.00000000000E+00  0.11617692378E+02  0.11617692378E+02  0.00000000000E+00 0.  1.
          2   -1    0    0  501    0  0.00000000000E+00 -0.00000000000E+00 -0.20699400626E+04  0.20699400626E+04  0.00000000000E+00 0. -1.
         25    2    1    2    0    0 -0.25856587920E+02 -0.44525024538E+02 -0.17562664123E+04  0.17614680520E+04  0.12508775485E+03 0.  0.
         23    2    1    2    0    0  0.25856587920E+02  0.44525024538E+02 -0.30205595793E+03  0.32008970295E+03  0.92566599087E+02 0.  0.
          5    1    3    3  502    0 -0.46720978745E+00  0.35103671964E+02 -0.99276583793E+03  0.99339517183E+03  0.41800000000E+01 0.  1.
         -5    1    3    3    0  502 -0.25389378133E+02 -0.79628696502E+02 -0.76350057434E+03  0.76807288016E+03  0.41800000000E+01 0.  1.
        -11    1    4    4    0    0 -0.10889540188E+02  0.63374216590E+02 -0.17157265144E+03  0.18322676697E+03  0.00000000000E+00 0. -1.
         11    1    4    4    0    0  0.36746128108E+02 -0.18849192052E+02 -0.13048330649E+03  0.13686293598E+03  0.00000000000E+00 0.  1.
</event>
<event>
 8    1  0.6760442E-009  0.1104711E+03  0.7561462E-02  0.1259700E+00
         -1   -1    0    0    0  501 -0.00000000000E+00  0.00000000000E+00  0.35641351070E+02  0.35641351070E+02  0.00000000000E+00 0.  1.
          1   -1    0    0  501    0  0.00000000000E+00 -0.00000000000E+00 -0.35930663269E+03  0.35930663269E+03  0.00000000000E+00 0. -1.
         25    2    1    2    0    0 -0.16795713411E+02  0.71605129929E+01 -0.21889988390E+03  0.25278037374E+03  0.12508952490E+03 0.  0.
         23    2    1    2    0    0  0.16795713411E+02 -0.71605129929E+01 -0.10476539772E+03  0.14216761002E+03  0.94352911159E+02 0.  0.
          5    1    3    3  502    0 -0.38201146695E+02 -0.50585583345E+02 -0.93909711368E+02  0.11337872437E+03  0.41800000000E+01 0. -1.
         -5    1    3    3    0  502  0.21405433284E+02  0.57746096338E+02 -0.12499017253E+03  0.13940164937E+03  0.41800000000E+01 0. -1.
        -11    1    4    4    0    0 -0.26391098848E+01 -0.49253656014E+02 -0.60591715796E+02  0.78129658612E+02  0.00000000000E+00 0. -1.
         11    1    4    4    0    0  0.19434823295E+02  0.42093143021E+02 -0.44173681922E+02  0.64037951407E+02  0.00000000000E+00 0.  1.
</event>
<event>
 8    1  0.6760442E-009  0.2097111E+03  0.7561462E-02  0.1141795E+00
          1   -1    0    0  501    0  0.00000000000E+00  0.00000000000E+00  0.38434548216E+02  0.38434548216E+02  0.00000000000E+00 0. -1.
         -1   -1    0    0    0  501 -0.00000000000E+00 -0.00000000000E+00 -0.14191959913E+04  0.14191959913E+04  0.00000000000E+00 0.  1.
         25    2    1    2    0    0 -0.70295426559E+02 -0.18359694699E+03 -0.90628847350E+03  0.93576460714E+03  0.12508923552E+03 0.  0.
         23    2    1    2    0    0  0.70295426559E+02  0.18359694699E+03 -0.47447296960E+03  0.52186593239E+03  0.92575194140E+02 0.  0.
          5    1    3    3  502    0 -0.31886244220E+02 -0.16786680541E+03 -0.52317495839E+03  0.55038668808E+03  0.41800000000E+01 0. -1.
         -5    1    3    3    0  502 -0.38409182339E+02 -0.15730141578E+02 -0.38311351510E+03  0.38537791906E+03  0.41800000000E+01 0. -1.
        -11    1    4    4    0    0  0.33275156934E+02  0.19503432535E+02 -0.16688677567E+03  0.17128577245E+03  0.00000000000E+00 0.  1.
         11    1    4    4    0    0  0.37020269625E+02  0.16409351445E+03 -0.30758619393E+03  0.35058015994E+03  0.00000000000E+00 0. -1.
</event>
<event>
 8    1  0.6760442E-009  0.1036185E+03  0.7561462E-02  0.1272866E+00
          2   -1    0    0  501    0  0.00000000000E+00  0.00000000000E+00  0.11288075822E+03  0.11288075822E+03  0.00000000000E+00 0. -1.
         -2   -1    0    0    0  501 -0.00000000000E+00 -0.00000000000E+00 -0.13703416577E+03  0.13703416577E+03  0.00000000000E+00 0.  1.
         25    2    1    2    0    0  0.27300447019E+02 -0.52319899512E+02 -0.27088319920E+02  0.14093845898E+03  0.12508871192E+03 0.  0.
         23    2    1    2    0    0 -0.27300447019E+02  0.52319899512E+02  0.29349123618E+01  0.10897646501E+03  0.91567297237E+02 0.  0.
          5    1    3    3  502    0  0.15977704293E+02  0.19674410413E+02  0.36156867049E+02  0.44352687567E+02  0.41800000000E+01 0.  1.
         -5    1    3    3    0  502  0.11322742726E+02 -0.71994309926E+02 -0.63245186969E+02  0.96585771412E+02  0.41800000000E+01 0.  1.
        -11    1    4    4    0    0  0.13751570180E+02  0.64325615971E+02 -0.27048670517E+01  0.65834693424E+02  0.00000000000E+00 0. -1.
         11    1    4    4    0    0 -0.41052017199E+02 -0.12005716459E+02  0.56397794136E+01  0.43141771587E+02  0.00000000000E+00 0.  1.
</event>
<event>
 8    1  0.6760442E-009  0.1193425E+03  0.7561462E-02  0.1244186E+00
         -1   -1    0    0    0  501 -0.00000000000E+00  0.00000000000E+00  0.42045617270E+02  0.42045617270E+02  0.00000000000E+00 0.  1.
          1   -1    0    0  501    0  0.00000000000E+00 -0.00000000000E+00 -0.50582868909E+03  0.50582868909E+03  0.00000000000E+00 0. -1.
         25    2    1    2    0    0  0.33522840904E+01 -0.97984748590E+02 -0.24885012774E+03  0.29527227540E+03  0.12508829592E+03 0.  0.
         23    2    1    2    0    0 -0.33522840904E+01  0.97984748590E+02 -0.21493294408E+03  0.25260203096E+03  0.89439179513E+02 0.  0.
          5    1    3    3  502    0  0.24162780753E+02 -0.58973580251E+02 -0.24206002713E+03  0.25034426751E+03  0.41800000000E+01 0. -1.
         -5    1    3    3    0  502 -0.20810496663E+02 -0.39011168339E+02 -0.67901006153E+01  0.44928007889E+02  0.41800000000E+01 0. -1.
        -11    1    4    4    0    0 -0.35398557205E+02  0.90948894500E+02 -0.17947027501E+03  0.20428984036E+03  0.00000000000E+00 0.  1.
         11    1    4    4    0    0  0.32046273115E+02  0.70358540899E+01 -0.35462669074E+02  0.48312190606E+02  0.00000000000E+00 0. -1.
</event>
<event>
 8    1  0.6760442E-009  0.2850750E+03  0.7561462E-02  0.1092949E+00
          1   -1    0    0  501    0  0.00000000000E+00  0.00000000000E+00  0.13448858202E+04  0.13448858202E+04  0.00000000000E+00 0. -1.
         -1   -1    0    0    0  501 -0.00000000000E+00 -0.00000000000E+00 -0.12001069381E+03  0.12001069381E+03  0.00000000000E+00 0.  1.
         25    2    1    2    0    0 -0.27664404901E+03 -0.13672412267E+02  0.12788486152E+03  0.32972881845E+03  0.12509073188E+03 0.  0.
         23    2    1    2    0    0  0.27664404901E+03  0.13672412267E+02  0.10969902648E+04  0.11351676955E+04  0.92191057678E+02 0.  0.
          5    1    3    3  502    0 -0.92481032496E+02 -0.41393807017E+02 -0.39951519261E+01  0.10148705469E+03  0.41800000000E+01 0. -1.
         -5    1    3    3    0  502 -0.18416301652E+03  0.27721394750E+02  0.13188001345E+03  0.22824176376E+03  0.41800000000E+01 0. -1.
        -11    1    4    4    0    0  0.10220927708E+03 -0.21661555769E+02  0.27614004162E+03  0.29524444433E+03  0.00000000000E+00 0.  1.
         11    1    4    4    0    0  0.17443477193E+03  0.35333968036E+02  0.82085022322E+03  0.83992325121E+03  0.00000000000E+00 0. -1.
</event>
<event>
 8    1  0.6760442E-009  0.1970164E+03  0.7561462E-02  0.1152281E+00
         -1   -1    0    0    0  501 -0.00000000000E+00  0.00000000000E+00  0.75657786609E+02  0.75657786609E+02  0.00000000000E+00 0.  1.
          1   -1    0    0  501    0  0.00000000000E+00 -0.00000000000E+00 -0.76767476007E+03  0.76767476007E+03  0.00000000000E+00 0. -1.
         25    2    1    2    0    0 -0.76024896181E+01  0.18480527218E+03 -0.54724749581E+03  0.59104572967E+03  0.12507776149E+03 0.  0.
         23    2    1    2    0    0  0.76024896181E+01 -0.18480527218E+03 -0.14476947764E+03  0.25228681700E+03  0.92085014535E+02 0.  0.
          5    1    3    3  502    0  0.19974152181E+02  0.66489825000E+02 -0.36769395518E+03  0.37421408400E+03  0.41800000000E+01 0. -1.
         -5    1    3    3    0  502 -0.27576641799E+02  0.11831544718E+03 -0.17955354063E+03  0.21683164568E+03  0.41800000000E+01 0. -1.
        -11    1    4    4    0    0  0.43506078517E+02 -0.13266939197E+03 -0.76578610111E+02  0.15924267632E+03  0.00000000000E+00 0.  1.
         11    1    4    4    0    0 -0.35903588899E+02 -0.52135880209E+02 -0.68190867534E+02  0.93044140686E+02  0.00000000000E+00 0. -1.
</event>
<event>
 8    1  0.6760442E-009  0.9454079E+02  0.7561462E-02  0.1292214E+00
         -1   -1    0    0    0  501 -0.00000000000E+00  0.00000000000E+00  0.90864579671E+02  0.90864579671E+02  0.00000000000E+00 0.  1.
          1   -1    0    0  501    0  0.00000000000E+00 -0.00000000000E+00 -0.13333656540E+03  0.13333656540E+03  0.00000000000E+00 0. -1.
         25    2    1    2    0    0  0.11387373874E+02 -0.21363148546E+02 -0.60675125259E+01  0.12755626180E+03  0.12509088223E+03 0.  0.
         23    2    1    2    0    0 -0.11387373874E+02  0.21363148546E+02 -0.36404473206E+02  0.96644883277E+02  0.86191016903E+02 0.  0.
          5    1    3    3  502    0 -0.27408041001E+01 -0.68347225764E+02  0.20599508896E+02  0.71558839031E+02  0.41800000000E+01 0. -1.
         -5    1    3    3    0  502  0.14128177974E+02  0.46984077218E+02 -0.26667021422E+02  0.55997422766E+02  0.41800000000E+01 0. -1.
        -11    1    4    4    0    0  0.50717637636E+01  0.43462075957E+02 -0.49558475024E+02  0.66111400536E+02  0.00000000000E+00 0. -1.
         11    1    4    4    0    0 -0.16459137638E+02 -0.22098927411E+02  0.13154001818E+02  0.30533482741E+02  0.00000000000E+00 0.  1.
</event>
<event>
 8    1  0.6760442E-009  0.7698269E+02  0.7561462E-02  0.1337839E+00
         -1   -1    0    0    0  501 -0.00000000000E+00  0.00000000000E+00  0.35857089837E+02  0.35857089837E+02  0.00000000000E+00 0.  1.
          1   -1    0    0  501    0  0.00000000000E+00 -0.00000000000E+00 -0.37231967045E+03  0.37231967045E+03  0.00000000000E+00 0. -1.
         25    2    1    2    0    0 -0.26780945117E+02 -0.38536099900E+01 -0.14376476402E+03  0.19247863636E+03  0.12509056219E+03 0.  0.
         23    2    1    2    0    0  0.26780945117E+02  0.38536099900E+01 -0.19269781660E+03  0.21569812393E+03  0.93065368501E+02 0.  0.
          5    1    3    3  502    0  0.10689395048E+02  0.12093979729E+02  0.18631210489E+02  0.25002438210E+02  0.41800000000E+01 0. -1.
         -5    1    3    3    0  502 -0.37470340164E+02 -0.15947589719E+02 -0.16239597451E+03  0.16747619815E+03  0.41800000000E+01 0. -1.
        -11    1    4    4    0    0  0.24451606891E+02 -0.42988110140E+02 -0.11048366757E+03  0.12104750924E+03  0.00000000000E+00 0. -1.
         11    1    4    4    0    0  0.23293382258E+01  0.46841720130E+02 -0.82214149022E+02  0.94650614687E+02  0.00000000000E+00 0.  1.
</event>
<event>
 8    1  0.6760442E-009  0.1947016E+03  0.7561462E-02  0.1154288E+00
         -1   -1    0    0    0  501 -0.00000000000E+00  0.00000000000E+00  0.36040908232E+02  0.36040908232E+02  0.00000000000E+00 0.  1.
          1   -1    0    0  501    0  0.00000000000E+00 -0.00000000000E+00 -0.12433917192E+04  0.12433917192E+04  0.00000000000E+00 0. -1.
         25    2    1    2    0    0 -0.80251447707E+02 -0.15151024478E+03 -0.44855300806E+03  0.49623428509E+03  0.12511201191E+03 0.  0.
         23    2    1    2    0    0  0.80251447707E+02  0.15151024478E+03 -0.75879780295E+03  0.78319834238E+03  0.90718733558E+02 0.  0.
          5    1    3    3  502    0  0.33304489551E+02 -0.39158056564E+02 -0.91048614977E+02  0.10464160314E+03  0.41800000000E+01 0. -1.
         -5    1    3    3    0  502 -0.11355593726E+03 -0.11235218822E+03 -0.35750439308E+03  0.39159268195E+03  0.41800000000E+01 0. -1.
        -11    1    4    4    0    0  0.55869652998E+01  0.58463193561E+02 -0.12296298220E+03  0.13626831684E+03  0.00000000000E+00 0.  1.
         11    1    4    4    0    0  0.74664482407E+02  0.93047051221E+02 -0.63583482074E+03  0.64693002554E+03  0.00000000000E+00 0. -1.
</event>
<event>
 8    1  0.6760442E-009  0.1131478E+03  0.7561462E-02  0.1254849E+00
          1   -1    0    0  501    0  0.00000000000E+00  0.00000000000E+00  0.21939772270E+03  0.21939772270E+03  0.00000000000E+00 0. -1.
         -1   -1    0    0    0  501 -0.00000000000E+00 -0.00000000000E+00 -0.88667911997E+02  0.88667911997E+02  0.00000000000E+00 0.  1.
         25    2    1    2    0    0 -0.13968914364E+02  0.75202943237E+02  0.24304169225E+02  0.14862698940E+03  0.12509466854E+03 0.  0.
         23    2    1    2    0    0  0.13968914364E+02 -0.75202943237E+02  0.10642564147E+03  0.15943864529E+03  0.90794554953E+02 0.  0.
          5    1    3    3  502    0  0.24309140226E+02 -0.23054573115E+02  0.26734943981E+02  0.43065964167E+02  0.41800000000E+01 0. -1.
         -5    1    3    3    0  502 -0.38278054590E+02  0.98257516352E+02 -0.24307747555E+01  0.10556102524E+03  0.41800000000E+01 0. -1.
        -11    1    4    4    0    0  0.28832770917E+02 -0.51500875865E+02  0.11054864382E+02  0.60048971016E+02  0.00000000000E+00 0.  1.
         11    1    4    4    0    0 -0.14863856553E+02 -0.23702067372E+02  0.95370777092E+02  0.99389674275E+02  0.00000000000E+00 0. -1.
</event>
<event>
 8    1  0.6760442E-009  0.1663965E+03  0.7561462E-02  0.1181659E+00
         -1   -1    0    0    0  501 -0.00000000000E+00  0.00000000000E+00  0.17927113512E+03  0.17927113512E+03  0.00000000000E+00 0.  1.
          1   -1    0    0  501    0  0.00000000000E+00 -0.00000000000E+00 -0.22840137772E+03  0.22840137772E+03  0.00000000000E+00 0. -1.
         25    2    1    2    0    0 -0.13450231997E+03  0.54306479245E+02  0.64455035302E+02  0.20209944462E+03  0.12509862580E+03 0.  0.
         23    2    1    2    0    0  0.13450231997E+03 -0.54306479245E+02 -0.11358527790E+03  0.20557306823E+03  0.91206377299E+02 0.  0.
          5    1    3    3  502    0 -0.14897740347E+03  0.20171440295E+02  0.34626063282E+02  0.15432948651E+03  0.41800000000E+01 0.  1.
         -5    1    3    3    0  502  0.14475083500E+02  0.34135038950E+02  0.29828972020E+02  0.47769958115E+02  0.41800000000E+01 0.  1.
        -11    1    4    4    0    0  0.26930730261E+02 -0.95280048472E+01  0.14819513016E+02  0.32181750648E+02  0.00000000000E+00 0. -1.
         11    1    4    4    0    0  0.10757158970E+03 -0.44778474398E+02 -0.12840479092E+03  0.17339131758E+03  0.00000000000E+00 0.  1.
</event>
<event>
 8    1  0.6760442E-009  0.3350290E+03  0.7561462E-02  0.1068933E+00
          1   -1    0    0  501    0  0.00000000000E+00  0.00000000000E+00  0.73968946130E+03  0.73968946130E+03  0.00000000000E+00 0. -1.
         -1   -1    0    0    0  501 -0.00000000000E+00 -0.00000000000E+00 -0.17311064139E+03  0.17311064139E+03  0.00000000000E+00 0.  1.
         25    2    1    2    0    0  0.32673961525E+03  0.60781294461E+01  0.41030339431E+03  0.53925178863E+03  0.12509155177E+03 0.  0.
         23    2    1    2    0    0 -0.32673961525E+03 -0.60781294461E+01  0.15627542561E+03  0.37354831406E+03  0.91217402180E+02 0.  0.
          5    1    3    3  502    0  0.30540979569E+03 -0.70162300256E+01  0.30791792142E+03  0.43376870510E+03  0.41800000000E+01 0. -1.
         -5    1    3    3    0  502  0.21329819555E+02  0.13094359472E+02  0.10238547289E+03  0.10548308353E+03  0.41800000000E+01 0. -1.
        -11    1    4    4    0    0 -0.10201250823E+03  0.40329427433E+02  0.55289530113E+02  0.12284114414E+03  0.00000000000E+00 0. -1.
         11    1    4    4    0    0 -0.22472710702E+03 -0.46407556879E+02  0.10098589549E+03  0.25070716993E+03  0.00000000000E+00 0.  1.
</event>
<event>
 8    1  0.6760442E-009  0.4057183E+03  0.7561462E-02  0.1041817E+00
         -1   -1    0    0    0  501 -0.00000000000E+00  0.00000000000E+00  0.40024139728E+03  0.40024139728E+03  0.00000000000E+00 0.  1.
          1   -1    0    0  501    0  0.00000000000E+00 -0.00000000000E+00 -0.53993597348E+03  0.53993597348E+03  0.00000000000E+00 0. -1.
         25    2    1    2    0    0 -0.29011994150E+03 -0.26994079783E+03  0.14895744981E+03  0.44144477786E+03  0.12509018850E+03 0.  0.
         23    2    1    2    0    0  0.29011994150E+03  0.26994079783E+03 -0.28865202601E+03  0.49873259290E+03  0.91523725384E+02 0.  0.
          5    1    3    3  502    0 -0.25675216485E+03 -0.27430199661E+03  0.15595483006E+03  0.40682015795E+03  0.41800000000E+01 0.  1.
         -5    1    3    3    0  502 -0.33367776653E+02  0.43611987777E+01 -0.69973802529E+01  0.34624619911E+02  0.41800000000E+01 0.  1.
        -11    1    4    4    0    0  0.12273029183E+03  0.15946784419E+03 -0.18325149216E+03  0.27216507352E+03  0.00000000000E+00 0.  1.
         11    1    4    4    0    0  0.16738964966E+03  0.11047295364E+03 -0.10540053385E+03  0.22656751938E+03  0.00000000000E+00 0. -1.
</event>
<event>
 8    1  0.6760442E-009  0.1296518E+03  0.7561462E-02  0.1227973E+00
         -2   -1    0    0    0  501 -0.00000000000E+00  0.00000000000E+00  0.30857324494E+02  0.30857324494E+02  0.00000000000E+00 0.  1.
          2   -1    0    0  501    0  0.00000000000E+00 -0.00000000000E+00 -0.68657815698E+03  0.68657815698E+03  0.00000000000E+00 0. -1.
         25    2    1    2    0    0  0.43715333418E+02 -0.74798710751E+02 -0.25363104272E+03  0.29577519238E+03  0.12509348939E+03 0.  0.
         23    2    1    2    0    0 -0.43715333418E+02  0.74798710751E+02 -0.40208978977E+03  0.42166028910E+03  0.92818763526E+02 0.  0.
          5    1    3    3  502    0 -0.57942428958E+01 -0.87506590422E+02 -0.21286820793E+03  0.23026359453E+03  0.41800000000E+01 0. -1.
         -5    1    3    3    0  502  0.49509576314E+02  0.12707879671E+02 -0.40762834793E+02  0.65511597850E+02  0.41800000000E+01 0. -1.
        -11    1    4    4    0    0 -0.39915223584E+02 -0.50928824017E+01 -0.20587141710E+03  0.20976702053E+03  0.00000000000E+00 0. -1.
         11    1    4    4    0    0 -0.38001098341E+01  0.79891593152E+02 -0.19621837267E+03  0.21189326857E+03  0.00000000000E+00 0.  1.
</event>
<event>
 8    1  0.6760442E-009  0.8140726E+02  0.7561462E-02  0.1325105E+00
          1   -1    0    0  501    0  0.00000000000E+00  0.00000000000E+00  0.10330279685E+04  0.10330279685E+04  0.00000000000E+00 0. -1.
         -1   -1    0    0    0  501 -0.00000000000E+00 -0.00000000000E+00 -0.17612475395E+02  0.17612475395E+02  0.00000000000E+00 0.  1.
         25    2    1    2    0    0 -0.36123147880E+02  0.44496451583E+01  0.83425174914E+03  0.84436206396E+03  0.12508650193E+03 0.  0.
         23    2    1    2    0    0  0.36123147880E+02 -0.44496451583E+01  0.18116374399E+03  0.20627837996E+03  0.91683077751E+02 0.  0.
          5    1    3    3  502    0 -0.53491238448E+02 -0.29520172145E+02  0.20526417484E+03  0.21420459152E+03  0.41800000000E+01 0.  1.
         -5    1    3    3    0  502  0.17368090568E+02  0.33969817304E+02  0.62898757430E+03  0.63015747245E+03  0.41800000000E+01 0.  1.
        -11    1    4    4    0    0 -0.10117573961E+02  0.10515750623E+02 -0.37641956584E+01  0.15070351123E+02  0.00000000000E+00 0.  1.
         11    1    4    4    0    0  0.46240721841E+02 -0.14965395781E+02  0.18492793965E+03  0.19120802884E+03  0.00000000000E+00 0. -1.
</event>
<event>
 8    1  0.6760442E-009  0.1907862E+03  0.7561462E-02  0.1157754E+00
          2   -1    0    0  501    0  0.00000000000E+00  0.00000000000E+00  0.46422116932E+03  0.46422116932E+03  0.00000000000E+00 0. -1.
         -2   -1    0    0    0  501 -0.00000000000E+00 -0.00000000000E+00 -0.86385203885E+02  0.86385203885E+02  0.00000000000E+00 0.  1.
         25    2    1    2    0    0  0.14054072836E+02 -0.16752540310E+03  0.25993576294E+03  0.33387787954E+03  0.12508221274E+03 0.  0.
         23    2    1    2    0    0 -0.14054072836E+02  0.16752540310E+03  0.11790020250E+03  0.21672849366E+03  0.69343381573E+02 0.  0.
          5    1    3    3  502    0  0.61970192601E+02 -0.61742337178E+02  0.74193740741E+02  0.11478068015E+03  0.41800000000E+01 0. -1.
         -5    1    3    3    0  502 -0.47916119765E+02 -0.10578306593E+03  0.18574202220E+03  0.21909719939E+03  0.41800000000E+01 0. -1.
        -11    1    4    4    0    0  0.17186752847E+02  0.11792637607E+03  0.56660590040E+02  0.13195619391E+03  0.00000000000E+00 0.  1.
         11    1    4    4    0    0 -0.31240825683E+02  0.49599027033E+02  0.61239612458E+02  0.84772299757E+02  0.00000000000E+00 0. -1.
</event>
<event>
 8    1  0.6760442E-009  0.1047615E+03  0.7561462E-02  0.1270590E+00
          2   -1    0    0  501    0  0.00000000000E+00  0.00000000000E+00  0.31303311095E+03  0.31303311095E+03  0.00000000000E+00 0. -1.
         -2   -1    0    0    0  501 -0.00000000000E+00 -0.00000000000E+00 -0.67355515306E+02  0.67355515306E+02  0.00000000000E+00 0.  1.
         25    2    1    2    0    0 -0.13498528081E+02 -0.45335153548E+02  0.24489446521E+03  0.27902572064E+03  0.12507824463E+03 0.  0.
         23    2    1    2    0    0  0.13498528081E+02  0.45335153548E+02  0.78313043690E+00  0.10136290562E+03  0.89645629757E+02 0.  0.
          5    1    3    3  502    0 -0.60869116777E+02 -0.46588986705E+01  0.17409125795E+03  0.18453182167E+03  0.41800000000E+01 0.  1.
         -5    1    3    3    0  502  0.47370588696E+02 -0.40676254878E+02  0.70803207261E+02  0.94493898971E+02  0.41800000000E+01 0.  1.
        -11    1    4    4    0    0 -0.29452231921E+02  0.22835686127E+02 -0.26497941437E+02  0.45727928297E+02  0.00000000000E+00 0.  1.
         11    1    4    4    0    0  0.42950760001E+02  0.22499467422E+02  0.27281071874E+02  0.55634977321E+02  0.00000000000E+00 0. -1.
</event>
<event>
 8    1  0.6760442E-009  0.1088141E+03  0.7561462E-02  0.1262782E+00
         -3   -1    0    0    0  501 -0.00000000000E+00  0.00000000000E+00  0.99960260170E+01  0.99960260170E+01  0.00000000000E+00 0.  1.
          3   -1    0    0  501    0  0.00000000000E+00 -0.00000000000E+00 -0.12537847530E+04  0.12537847530E+04  0.00000000000E+00 0. -1.
         25    2    1    2    0    0 -0.26374891490E+01 -0.22101533171E+02 -0.81852081622E+03  0.82832260452E+03  0.12508627606E+03 0.  0.
         23    2    1    2    0    0  0.26374891490E+01  0.22101533171E+02 -0.42526791072E+03  0.43545817446E+03  0.90970279165E+02 0.  0.
          5    1    3    3  502    0 -0.17445847689E+02  0.48525750292E+02 -0.43339890827E+03  0.43647587806E+03  0.41800000000E+01 0. -1.
         -5    1    3    3    0  502  0.14808358540E+02 -0.70627283463E+02 -0.38512190795E+03  0.39184672646E+03  0.41800000000E+01 0. -1.
        -11    1    4    4    0    0 -0.37090162153E+02  0.35835512527E+02 -0.24101574758E+03  0.24647201599E+03  0.00000000000E+00 0.  1.
         11    1    4    4    0    0  0.39727651302E+02 -0.13733979356E+02 -0.18425216314E+03  0.18898615846E+03  0.00000000000E+00 0. -1.
</event>
<event>
 8    1  0.6760442E-009  0.1010429E+03  0.7561462E-02  0.1278118E+00
          4   -1    0    0  501    0  0.00000000000E+00  0.00000000000E+00  0.70415348847E+02  0.70415348847E+02  0.00000000000E+00 0. -1.
         -4   -1    0    0    0  501 -0.00000000000E+00 -0.00000000000E+00 -0.25528183653E+03  0.25528183653E+03  0.00000000000E+00 0.  1.
         25    2    1    2    0    0 -0.30138758486E+02  0.61296320580E+02 -0.99501756846E+02  0.17381889798E+03  0.12508727354E+03 0.  0.
         23    2    1    2    0    0  0.30138758486E+02 -0.61296320580E+02 -0.85364730840E+02  0.15187828740E+03  0.10542434838E+03 0.  0.
          5    1    3    3  502    0 -0.36281573997E+02 -0.23264823586E+02 -0.73025537898E+02  0.84898799835E+02  0.41800000000E+01 0.  1.
         -5    1    3    3    0  502  0.61428155106E+01  0.84561144166E+02 -0.26476218948E+02  0.88920098149E+02  0.41800000000E+01 0.  1.
        -11    1    4    4    0    0 -0.53976105279E+01 -0.11681433869E+02  0.23661065140E+02  0.26933920996E+02  0.00000000000E+00 0. -1.
         11    1    4    4    0    0  0.35536369014E+02 -0.49614886711E+02 -0.10902579598E+03  0.12494436640E+03  0.00000000000E+00 0.  1.
</event>
<event>
 8    1  0.6760442E-009  0.1396108E+03  0.7561462E-02  0.1213854E+00
         -1   -1    0    0    0  501 -0.00000000000E+00  0.00000000000E+00  0.42859639399E+02  0.42859639399E+02  0.00000000000E+00 0.  1.
          1   -1    0    0  501    0  0.00000000000E+00 -0.00000000000E+00 -0.66618552386E+03  0.66618552386E+03  0.00000000000E+00 0. -1.
         25    2    1    2    0    0 -0.58957816193E+02  0.82915106611E+02 -0.16454772713E+03  0.23037674820E+03  0.12508618074E+03 0.  0.
         23    2    1    2    0    0  0.58957816193E+02 -0.82915106611E+02 -0.45877815733E+03  0.47866841506E+03  0.91077521597E+02 0.  0.
          5    1    3    3  502    0 -0.15163656538E+02  0.99554857317E+02 -0.64056477499E+02  0.11942282363E+03  0.41800000000E+01 0.  1.
         -5    1    3    3    0  502 -0.43794159655E+02 -0.16639750706E+02 -0.10049124963E+03  0.11095392457E+03  0.41800000000E+01 0.  1.
        -11    1    4    4    0    0  0.57377664634E+02 -0.97323950180E+01 -0.14040061677E+03  0.15198437123E+03  0.00000000000E+00 0. -1.
         11    1    4    4    0    0  0.15801515594E+01 -0.73182711593E+02 -0.31837754057E+03  0.32668404383E+03  0.00000000000E+00 0.  1.
</event>
<event>
 8    1  0.6760442E-009  0.1567030E+03  0.7561462E-02  0.1192470E+00
          1   -1    0    0  501    0  0.00000000000E+00  0.00000000000E+00  0.12228163633E+03  0.12228163633E+03  0.00000000000E+00 0. -1.
         -1   -1    0    0    0  501 -0.00000000000E+00 -0.00000000000E+00 -0.31575591561E+03  0.31575591561E+03  0.00000000000E+00 0.  1.
         25    2    1    2    0    0  0.68757314908E+02  0.10929489720E+03 -0.21343102428E+03  0.27905789158E+03  0.12509021474E+03 0.  0.
         23    2    1    2    0    0 -0.68757314908E+02 -0.10929489720E+03  0.19956744997E+02  0.15897966036E+03  0.90572169179E+02 0.  0.
          5    1    3    3  502    0  0.24102081586E+02 -0.16475194461E+02 -0.98692715068E+02  0.10300517840E+03  0.41800000000E+01 0. -1.
         -5    1    3    3    0  502  0.44655233321E+02  0.12577009166E+03 -0.11473830921E+03  0.17605271319E+03  0.41800000000E+01 0. -1.
        -11    1    4    4    0    0  0.22191485904E+01 -0.68469443143E+02  0.33046715701E+02  0.76059678433E+02  0.00000000000E+00 0.  1.
         11    1    4    4    0    0 -0.70976463498E+02 -0.40825454060E+02 -0.13089970704E+02  0.82919981928E+02  0.00000000000E+00 0. -1.
</event>
<event>
 8    1  0.6760442E-009  0.1274824E+03  0.7561462E-02  0.1231240E+00
          1   -1    0    0  501    0  0.00000000000E+00  0.00000000000E+00  0.52531823407E+03  0.52531823407E+03  0.00000000000E+00 0. -1.
         -1   -1    0    0    0  501 -0.00000000000E+00 -0.00000000000E+00 -0.35452752255E+02  0.35452752255E+02  0.00000000000E+00 0.  1.
         25    2    1    2    0    0 -0.40709861456E+01 -0.78571958370E+02  0.27065610050E+03  0.30836990920E+03  0.12508857100E+03 0.  0.
         23    2    1    2    0    0  0.40709861456E+01  0.78571958370E+02  0.21920938132E+03  0.25240107712E+03  0.97280138286E+02 0.  0.
          5    1    3    3  502    0  0.45966934968E+02 -0.64443272114E+02  0.22669336235E+03  0.24015255020E+03  0.41800000000E+01 0.  1.
         -5    1    3    3    0  502 -0.50037921113E+02 -0.14128686256E+02  0.43962738145E+02  0.68217359007E+02  0.41800000000E+01 0.  1.
        -11    1    4    4    0    0 -0.40779121691E+02  0.64898326994E+02  0.15475954898E+03  0.17269987728E+03  0.00000000000E+00 0. -1.
         11    1    4    4    0    0  0.44850107836E+02  0.13673631376E+02  0.64449832342E+02  0.79701199846E+02  0.00000000000E+00 0.  1.
</event>
<event>
 8    1  0.6760442E-009  0.1605332E+03  0.7561462E-02  0.1188096E+00
         -2   -1    0    0    0  501 -0.00000000000E+00  0.00000000000E+00  0.11740578711E+03  0.11740578711E+03  0.00000000000E+00 0.  1.
          2   -1    0    0  501    0  0.00000000000E+00 -0.00000000000E+00 -0.27849442882E+03  0.27849442882E+03  0.00000000000E+00 0. -1.
         25    2    1    2    0    0 -0.96151115946E+01 -0.13449237594E+03 -0.14475906546E+03  0.23406169965E+03  0.12509613366E+03 0.  0.
         23    2    1    2    0    0  0.96151115946E+01  0.13449237594E+03 -0.16329576253E+02  0.16183851627E+03  0.88002276858E+02 0.  0.
          5    1    3    3  502    0 -0.79305163385E+01 -0.15618137202E+03 -0.14281669307E+03  0.21182444211E+03  0.41800000000E+01 0.  1.
         -5    1    3    3    0  502 -0.16845952561E+01  0.21688996085E+02 -0.19423723807E+01  0.22237257538E+02  0.41800000000E+01 0.  1.
        -11    1    4    4    0    0  0.26873991775E+02  0.56084353993E+02 -0.44808976893E+02  0.76651879343E+02  0.00000000000E+00 0. -1.
         11    1    4    4    0    0 -0.17258880180E+02  0.78408021944E+02  0.28479400640E+02  0.85186636928E+02  0.00000000000E+00 0.  1.
</event>
<event>
 8    1  0.6760442E-009  0.1309550E+03  0.7561462E-02  0.1226046E+00
          1   -1    0    0  501    0  0.00000000000E+00  0.00000000000E+00  0.10612979664E+04  0.10612979664E+04  0.00000000000E+00 0. -1.
         -1   -1    0    0    0  501 -0.00000000000E+00 -0.00000000000E+00 -0.17804094349E+02  0.17804094349E+02  0.00000000000E+00 0.  1.
         25    2    1    2    0    0  0.23206695334E+02  0.79464399399E+02  0.66833367039E+03  0.68496038896E+03  0.12509075899E+03 0.  0.
         23    2    1    2    0    0 -0.23206695334E+02 -0.79464399399E+02  0.37516020165E+03  0.39414167178E+03  0.88030330287E+02 0.  0.
          5    1    3    3  502    0  0.32094304567E+02  0.10763786884E+03  0.59939097208E+03  0.60983847452E+03  0.41800000000E+01 0.  1.
         -5    1    3    3    0  502 -0.88876092327E+01 -0.28173469446E+02  0.68942698306E+02  0.75121914434E+02  0.41800000000E+01 0.  1.
        -11    1    4    4    0    0 -0.56137278665E+02 -0.55560315091E+02  0.22054652871E+03  0.23426291638E+03  0.00000000000E+00 0. -1.
         11    1    4    4    0    0  0.32930583331E+02 -0.23904084307E+02  0.15461367295E+03  0.15987875539E+03  0.00000000000E+00 0.  1.
</event>
<event>
 8    1  0.6760442E-009  0.1072232E+03  0.7561462E-02  0.1265800E+00
          2   -1    0    0  501    0  0.00000000000E+00  0.00000000000E+00  0.78967279014E+03  0.78967279014E+03  0.00000000000E+00 0. -1.
         -2   -1    0    0    0  501 -0.00000000000E+00 -0.00000000000E+00 -0.14871818302E+02  0.14871818302E+02  0.00000000000E+00 0.  1.
         25    2    1    2    0    0 -0.16723600648E+02  0.15613137581E+01  0.48187635479E+03  0.49813185201E+03  0.12509358162E+03 0.  0.
         23    2    1    2    0    0  0.16723600648E+02 -0.15613137581E+01  0.29292461704E+03  0.30641275643E+03  0.88327965630E+02 0.  0.
          5    1    3    3  502    0  0.21194765027E+02 -0.53420985775E+02  0.26372475395E+03  0.26994673184E+03  0.41800000000E+01 0.  1.
         -5    1    3    3    0  502 -0.37918365675E+02  0.54982299533E+02  0.21815160084E+03  0.22818512017E+03  0.41800000000E+01 0.  1.
        -11    1    4    4    0    0  0.21377324495E+02 -0.43096539233E+02  0.15883961631E+03  0.16596483183E+03  0.00000000000E+00 0.  1.
         11    1    4    4    0    0 -0.46537238467E+01  0.41535225475E+02  0.13408500073E+03  0.14044792459E+03  0.00000000000E+00 0. -1.
</event>
<event>
 8    1  0.6760442E-009  0.2354293E+03  0.7561462E-02  0.1122876E+00
         -2   -1    0    0    0  501 -0.00000000000E+00  0.00000000000E+00  0.10554838991E+03  0.10554838991E+03  0.00000000000E+00 0.  1.
          2   -1    0    0  501    0  0.00000000000E+00 -0.00000000000E+00 -0.82489634742E+03  0.82489634742E+03  0.00000000000E+00 0. -1.
         25    2    1    2    0    0 -0.29838800605E+02 -0.23327450119E+03 -0.14260501017E+03  0.30214047376E+03  0.12508129369E+03 0.  0.
         23    2    1    2    0    0  0.29838800605E+02  0.23327450119E+03 -0.57674294735E+03  0.62830426357E+03  0.82622475007E+02 0.  0.
          5    1    3    3  502    0 -0.16781723733E+02 -0.12995302394E+03 -0.14807454828E+03  0.19776996468E+03  0.41800000000E+01 0. -1.
         -5    1    3    3    0  502 -0.13057076871E+02 -0.10332147725E+03  0.54695381114E+01  0.10437050908E+03  0.41800000000E+01 0. -1.
        -11    1    4    4    0    0  0.81817658115E+01  0.11508554927E+03 -0.18032679942E+03  0.21407797536E+03  0.00000000000E+00 0.  1.
         11    1    4    4    0    0  0.21657034793E+02  0.11818895193E+03 -0.39641614792E+03  0.41422628821E+03  0.00000000000E+00 0. -1.
</event>
<event>
 8    1  0.6760442E-009  0.7813542E+02  0.7561462E-02  0.1334428E+00
         -1   -1    0    0    0  501 -0.00000000000E+00  0.00000000000E+00  0.23581376256E+02  0.23581376256E+02  0.00000000000E+00 0.  1.
          1   -1    0    0  501    0  0.00000000000E+00 -0.00000000000E+00 -0.49151368368E+03  0.49151368368E+03  0.00000000000E+00 0. -1.
         25    2    1    2    0    0 -0.32692703225E+01 -0.18694015936E+01 -0.33039490793E+03  0.35330176092E+03  0.12508859378E+03 0.  0.
         23    2    1    2    0    0  0.32692703225E+01  0.18694015936E+01 -0.13753739949E+03  0.16179329901E+03  0.85125510601E+02 0.  0.
          5    1    3    3  502    0  0.38387511059E+02 -0.15372279026E+02 -0.34103704360E+02  0.53762840502E+02  0.41800000000E+01 0. -1.
         -5    1    3    3    0  502 -0.41656781381E+02  0.13502877433E+02 -0.29629120357E+03  0.29953892042E+03  0.41800000000E+01 0. -1.
        -11    1    4    4    0    0  0.33338527829E+02  0.16592282742E+02 -0.11636928817E+03  0.12218253768E+03  0.00000000000E+00 0. -1.
         11    1    4    4    0    0 -0.30069257507E+02 -0.14722881149E+02 -0.21168111320E+02  0.39610761331E+02  0.00000000000E+00 0.  1.
</event>
<event>
 8    1  0.6760442E-009  0.9802445E+02  0.7561462E-02  0.1284506E+00
          1   -1    0    0  501    0  0.00000000000E+00  0.00000000000E+00  0.18461438928E+03  0.18461438928E+03  0.00000000000E+00 0. -1.
         -1   -1    0    0    0  501 -0.00000000000E+00 -0.00000000000E+00 -0.72649583795E+02  0.72649583795E+02  0.00000000000E+00 0.  1.
         25    2    1    2    0    0  0.28666929967E+02 -0.34641931929E+02  0.64740656420E+02  0.14785254300E+03  0.12508863081E+03 0.  0.
         23    2    1    2    0    0 -0.28666929967E+02  0.34641931929E+02  0.47224149068E+02  0.10941143007E+03  0.87857182141E+02 0.  0.
          5    1    3    3  502    0  0.65893413791E+02 -0.17914466647E+02 -0.31981415940E+01  0.68487740552E+02  0.41800000000E+01 0. -1.
         -5    1    3    3    0  502 -0.37226483824E+02 -0.16727465282E+02  0.67938798014E+02  0.79364802452E+02  0.41800000000E+01 0. -1.
        -11    1    4    4    0    0 -0.53492427130E+02  0.16906516747E+02  0.36517176994E+01  0.56219259253E+02  0.00000000000E+00 0.  1.
         11    1    4    4    0    0  0.24825497163E+02  0.17735415182E+02  0.43572431368E+02  0.53192170819E+02  0.00000000000E+00 0. -1.
</event>
<event>
 8    1  0.6760442E-009  0.1044203E+03  0.7561462E-02  0.1271266E+00
          3   -1    0    0  501    0  0.00000000000E+00  0.00000000000E+00  0.70814878163E+02  0.70814878163E+02  0.00000000000E+00 0. -1.
         -3   -1    0    0    0  501 -0.00000000000E+00 -0.00000000000E+00 -0.17011825840E+03  0.17011825840E+03  0.00000000000E+00 0.  1.
         25    2    1    2    0    0  0.21617937901E+01  0.17681578952E+02 -0.31183806209E+02  0.13010847019E+03  0.12505387902E+03 0.  0.
         23    2    1    2    0    0 -0.21617937901E+01 -0.17681578952E+02 -0.68119574024E+02  0.11082466637E+03  0.85583402151E+02 0.  0.
          5    1    3    3  502    0 -0.43190188799E+01  0.71578194440E+02 -0.16104620647E+02  0.73613334726E+02  0.41800000000E+01 0.  1.
         -5    1    3    3    0  502  0.64808126700E+01 -0.53896615488E+02 -0.15079185562E+02  0.56495135464E+02  0.41800000000E+01 0.  1.
        -11    1    4    4    0    0 -0.41252157947E+02 -0.54801191693E+01 -0.16099405845E+02  0.44620209659E+02  0.00000000000E+00 0.  1.
         11    1    4    4    0    0  0.39090364157E+02 -0.12201459783E+02 -0.52020168179E+02  0.66204456709E+02  0.00000000000E+00 0. -1.
</event>
<event>
 8    1  0.6760442E-009  0.2428375E+03  0.7561462E-02  0.1117917E+00
         -2   -1    0    0    0  501 -0.00000000000E+00  0.00000000000E+00  0.10194558049E+03  0.10194558049E+03  0.00000000000E+00 0.  1.
          2   -1    0    0  501    0  0.00000000000E+00 -0.00000000000E+00 -0.67930416598E+03  0.67930416598E+03  0.00000000000E+00 0. -1.
         25    2    1    2    0    0  0.23304919777E+03  0.27216139309E+02 -0.23850846520E+03  0.35719218963E+03  0.12508927030E+03 0.  0.
         23    2    1    2    0    0 -0.23304919777E+03 -0.27216139309E+02 -0.33885012030E+03  0.42405755684E+03  0.99763523739E+02 0.  0.
          5    1    3    3  502    0  0.17926523059E+03 -0.20595484866E+01 -0.23514655115E+03  0.29572223041E+03  0.41800000000E+01 0. -1.
         -5    1    3    3    0  502  0.53783967172E+02  0.29275687796E+02 -0.33619140447E+01  0.61469959221E+02  0.41800000000E+01 0. -1.
        -11    1    4    4    0    0 -0.19318877047E+03 -0.49330256911E+02 -0.31449807281E+03  0.37237670857E+03  0.00000000000E+00 0.  1.
         11    1    4    4    0    0 -0.39860427292E+02  0.22114117602E+02 -0.24352047493E+02  0.51680848274E+02  0.00000000000E+00 0. -1.
</event>
<event>
 8    1  0.6760442E-009  0.1368409E+03  0.7561462E-02  0.1217644E+00
          2   -1    0    0  501    0  0.00000000000E+00  0.00000000000E+00  0.76021962639E+02  0.76021962639E+02  0.00000000000E+00 0. -1.
         -2   -1    0    0    0  501 -0.00000000000E+00 -0.00000000000E+00 -0.28983096722E+03  0.28983096722E+03  0.00000000000E+00 0.  1.
         25    2    1    2    0    0 -0.89310827654E+02  0.40188168208E+02 -0.14481106950E+03  0.21496184111E+03  0.12508730745E+03 0.  0.
         23    2    1    2    0    0  0.89310827654E+02 -0.40188168208E+02 -0.68997935084E+02  0.15089108875E+03  0.91738175358E+02 0.  0.
          5    1    3    3  502    0 -0.10124499493E+03  0.10876604534E+00 -0.53827410923E+02  0.11474067890E+03  0.41800000000E+01 0. -1.
         -5    1    3    3    0  502  0.11934167277E+02  0.40079402163E+02 -0.90983658574E+02  0.10022116221E+03  0.41800000000E+01 0. -1.
        -11    1    4    4    0    0 -0.10221246290E+02 -0.28293677110E+02 -0.16521596702E+01  0.30128652006E+02  0.00000000000E+00 0. -1.
         11    1    4    4    0    0  0.99532073944E+02 -0.11894491098E+02 -0.67345775414E+02  0.12076243674E+03  0.00000000000E+00 0.  1.
</event>
<event>
 8    1  0.6760442E-009  0.1376724E+03  0.7561462E-02  0.1216496E+00
         -1   -1    0    0    0  501 -0.00000000000E+00  0.00000000000E+00  0.45868032302E+03  0.45868032302E+03  0.00000000000E+00 0.  1.
          1   -1    0    0  501    0  0.00000000000E+00 -0.00000000000E+00 -0.44057452812E+02  0.44057452812E+02  0.00000000000E+00 0. -1.
         25    2    1    2    0    0  0.89470232419E+02  0.13270310251E+02  0.24750561419E+03  0.29169760367E+03  0.12508972502E+03 0.  0.
         23    2    1    2    0    0 -0.89470232419E+02 -0.13270310251E+02  0.16711725602E+03  0.21104017216E+03  0.91808242468E+02 0.  0.
          5    1    3    3  502    0  0.11873597801E+03  0.25204987210E+02  0.20878302402E+03  0.24153953584E+03  0.41800000000E+01 0. -1.
         -5    1    3    3    0  502 -0.29265745589E+02 -0.11934676959E+02  0.38722590170E+02  0.50158067830E+02  0.41800000000E+01 0. -1.
        -11    1    4    4    0    0  0.11235591822E+02  0.13736197997E+02  0.52627903771E+01  0.18509960064E+02  0.00000000000E+00 0. -1.
         11    1    4    4    0    0 -0.10070582424E+03 -0.27006508247E+02  0.16185446564E+03  0.19253021210E+03  0.00000000000E+00 0.  1.
</event>
<event>
 8    1  0.6760442E-009  0.9015910E+02  0.7561462E-02  0.1302467E+00
         -1   -1    0    0    0  501 -0.00000000000E+00  0.00000000000E+00  0.58118913443E+02  0.58118913443E+02  0.00000000000E+00 0.  1.
          1   -1    0    0  501    0  0.00000000000E+00 -0.00000000000E+00 -0.23804977009E+03  0.23804977009E+03  0.00000000000E+00 0. -1.
         25    2    1    2    0    0 -0.38211872882E+02  0.25112885876E+02 -0.98103710009E+02  0.16541566035E+03  0.12508876250E+03 0.  0.
         23    2    1    2    0    0  0.38211872882E+02 -0.25112885876E+02 -0.81827146643E+02  0.13075302319E+03  0.91158471244E+02 0.  0.
          5    1    3    3  502    0  0.40348437649E+01 -0.18519921648E+02 -0.10255495691E+03  0.10437556730E+03  0.41800000000E+01 0.  1.
         -5    1    3    3    0  502 -0.42246716647E+02  0.43632807524E+02  0.44512469041E+01  0.61040093045E+02  0.41800000000E+01 0.  1.
        -11    1    4    4    0    0 -0.27718233341E+02 -0.19442740340E+02 -0.40273744916E+02  0.52614590572E+02  0.00000000000E+00 0. -1.
         11    1    4    4    0    0  0.65930106224E+02 -0.56701455362E+01 -0.41553401727E+02  0.78138432619E+02  0.00000000000E+00 0.  1.
</event>
<event>
 8    1  0.6760442E-009  0.2040917E+03  0.7561462E-02  0.1146332E+00
          1   -1    0    0  501    0  0.00000000000E+00  0.00000000000E+00  0.27667158263E+03  0.27667158263E+03  0.00000000000E+00 0. -1.
         -1   -1    0    0    0  501 -0.00000000000E+00 -0.00000000000E+00 -0.16173757776E+03  0.16173757776E+03  0.00000000000E+00 0.  1.
         25    2    1    2    0    0  0.10480067487E+03  0.14657938100E+03  0.77239036598E+02  0.23255684336E+03  0.12509244674E+03 0.  0.
         23    2    1    2    0    0 -0.10480067487E+03 -0.14657938100E+03  0.37694968274E+02  0.20585231704E+03  0.92117150462E+02 0.  0.
          5    1    3    3  502    0  0.11721847444E+03  0.15889461364E+03  0.57158914482E+02  0.20560224439E+03  0.41800000000E+01 0. -1.
         -5    1    3    3    0  502 -0.12417799575E+02 -0.12315232637E+02  0.20080122117E+02  0.26954598966E+02  0.41800000000E+01 0. -1.
        -11    1    4    4    0    0 -0.92571508788E+02 -0.15305073280E+03  0.15291886819E+02  0.17952117662E+03  0.00000000000E+00 0.  1.
         11    1    4    4    0    0 -0.12229166081E+02  0.64713518041E+01  0.22403081455E+02  0.26331140422E+02  0.00000000000E+00 0. -1.
</event>
<event>
 8    1  0.6760442E-009  0.1397424E+03  0.7561462E-02  0.1213676E+00
         -1   -1    0    0    0  501 -0.00000000000E+00  0.00000000000E+00  0.63138037027E+02  0.63138037027E+02  0.00000000000E+00 0.  1.
          1   -1    0    0  501    0  0.00000000000E+00 -0.00000000000E+00 -0.46523019221E+03  0.46523019221E+03  0.00000000000E+00 0. -1.
         25    2    1    2    0    0  0.54963268592E+02 -0.88442666860E+02 -0.34217027834E+03  0.37890751803E+03  0.12508933458E+03 0.  0.
         23    2    1    2    0    0 -0.54963268592E+02  0.88442666860E+02 -0.59921876846E+02  0.14946071121E+03  0.88908979606E+02 0.  0.
          5    1    3    3  502    0 -0.21510377538E+02 -0.57270551452E+02 -0.23872842644E+03  0.24647788216E+03  0.41800000000E+01 0. -1.
         -5    1    3    3    0  502  0.76473646130E+02 -0.31172115407E+02 -0.10344185190E+03  0.13242963587E+03  0.41800000000E+01 0. -1.
        -11    1    4    4    0    0 -0.36617059382E+02 -0.78523997963E+01 -0.71308302912E+01  0.38122407597E+02  0.00000000000E+00 0.  1.
         11    1    4    4    0    0 -0.18346209210E+02  0.96295066656E+02 -0.52791046555E+02  0.11133830361E+03  0.00000000000E+00 0. -1.
</event>
<event>
 8    1  0.6760442E-009  0.1240786E+03  0.7561462E-02  0.1236516E+00
         -2   -1    0    0    0  501 -0.00000000000E+00  0.00000000000E+00  0.11475503475E+03  0.11475503475E+03  0.00000000000E+00 0.  1.
          2   -1    0    0  501    0  0.00000000000E+00 -0.00000000000E+00 -0.15534739552E+03  0.15534739552E+03  0.00000000000E+00 0. -1.
         25    2    1    2    0    0 -0.58657178817E+02  0.51933329358E+02 -0.11147689783E+02  0.14802976875E+03  0.12510318191E+03 0.  0.
         23    2    1    2    0    0  0.58657178817E+02 -0.51933329358E+02 -0.29444670979E+02  0.12207266152E+03  0.88865126553E+02 0.  0.
          5    1    3    3  502    0  0.35665833974E+02  0.33985693079E+02 -0.15528713304E+02  0.51823666253E+02  0.41800000000E+01 0. -1.
         -5    1    3    3    0  502 -0.94323012791E+02  0.17947636279E+02  0.43810235208E+01  0.96206102494E+02  0.41800000000E+01 0. -1.
        -11    1    4    4    0    0  0.41042949539E+02 -0.67567815342E+02  0.62553746427E+01  0.79303613340E+02  0.00000000000E+00 0.  1.
         11    1    4    4    0    0  0.17614229278E+02  0.15634485984E+02 -0.35700045622E+02  0.42769048183E+02  0.00000000000E+00 0. -1.
</event>
<event>
 8    1  0.6760442E-009  0.1478742E+03  0.7561462E-02  0.1203110E+00
         -2   -1    0    0    0  501 -0.00000000000E+00  0.00000000000E+00  0.11160221172E+03  0.11160221172E+03  0.00000000000E+00 0.  1.
          2   -1    0    0  501    0  0.00000000000E+00 -0.00000000000E+00 -0.20059987695E+03  0.20059987695E+03  0.00000000000E+00 0. -1.
         25    2    1    2    0    0 -0.98656896442E+02  0.18254225697E+02 -0.29942582055E+02  0.16312770563E+03  0.12509072768E+03 0.  0.
         23    2    1    2    0    0  0.98656896442E+02 -0.18254225697E+02 -0.59055083178E+02  0.14907438304E+03  0.93108908585E+02 0.  0.
          5    1    3    3  502    0 -0.67583365935E+02 -0.50131723952E+02 -0.73148600017E+01  0.84567610078E+02  0.41800000000E+01 0. -1.
         -5    1    3    3    0  502 -0.31073530507E+02  0.68385949650E+02 -0.22627722053E+02  0.78560095551E+02  0.41800000000E+01 0. -1.
        -11    1    4    4    0    0  0.97029735440E+02  0.19087828076E+02 -0.36451119395E+02  0.10539354271E+03  0.00000000000E+00 0.  1.
         11    1    4    4    0    0  0.16271610019E+01 -0.37342053774E+02 -0.22603963782E+02  0.43680840327E+02  0.00000000000E+00 0. -1.
</event>
<event>
 8    1  0.6760442E-009  0.1116117E+03  0.7561462E-02  0.1257614E+00
         -2   -1    0    0    0  501 -0.00000000000E+00  0.00000000000E+00  0.98019234804E+02  0.98019234804E+02  0.00000000000E+00 0.  1.
          2   -1    0    0  501    0  0.00000000000E+00 -0.00000000000E+00 -0.15862426393E+03  0.15862426393E+03  0.00000000000E+00 0. -1.
         25    2    1    2    0    0  0.59539672991E+02 -0.11808907885E+02 -0.32522856262E+02  0.14276390589E+03  0.12505748150E+03 0.  0.
         23    2    1    2    0    0 -0.59539672991E+02  0.11808907885E+02 -0.28082172866E+02  0.11387959285E+03  0.92171200865E+02 0.  0.
          5    1    3    3  502    0  0.24631977139E+02 -0.67490374611E+02 -0.26289512463E+02  0.76617855807E+02  0.41800000000E+01 0.  1.
         -5    1    3    3    0  502  0.34907695852E+02  0.55681466726E+02 -0.62333437993E+01  0.66146050082E+02  0.41800000000E+01 0.  1.
        -11    1    4    4    0    0 -0.13798137249E+02  0.32420366297E+02 -0.48301895543E+02  0.59787472395E+02  0.00000000000E+00 0. -1.
         11    1    4    4    0    0 -0.45741535742E+02 -0.20611458412E+02  0.20219722677E+02  0.54092120452E+02  0.00000000000E+00 0.  1.
</event>
<event>
 8    1  0.6760442E-009  0.1528274E+03  0.7561462E-02  0.1197041E+00
          3   -1    0    0  501    0  0.00000000000E+00  0.00000000000E+00  0.31333692800E+03  0.31333692800E+03  0.00000000000E+00 0. -1.
         -3   -1    0    0    0  501 -0.00000000000E+00 -0.00000000000E+00 -0.95388397890E+02  0.95388397890E+02  0.00000000000E+00 0.  1.
         25    2    1    2    0    0  0.11763127541E+03  0.41859264056E+01  0.39375435727E+02  0.17621828280E+03  0.12509124398E+03 0.  0.
         23    2    1    2    0    0 -0.11763127541E+03 -0.41859264056E+01  0.17857309438E+03  0.23250704309E+03  0.91195044360E+02 0.  0.
          5    1    3    3  502    0  0.12648809836E+03  0.34055176151E+02  0.53750972839E+02  0.14165321574E+03  0.41800000000E+01 0. -1.
         -5    1    3    3    0  502 -0.88568229521E+01 -0.29869249745E+02 -0.14375537112E+02  0.34565067054E+02  0.41800000000E+01 0. -1.
        -11    1    4    4    0    0 -0.36903461215E+01 -0.26754194864E+02  0.63490398233E+02  0.68995914843E+02  0.00000000000E+00 0.  1.
         11    1    4    4    0    0 -0.11394092929E+03  0.22568268459E+02  0.11508269615E+03  0.16351112825E+03  0.00000000000E+00 0. -1.
</event>
<event>
 8    1  0.6760442E-009  0.1040451E+03  0.7561462E-02  0.1272012E+00
         -2   -1    0    0    0  501 -0.00000000000E+00  0.00000000000E+00  0.70613392986E+01  0.70613392986E+01  0.00000000000E+00 0.  1.
          2   -1    0    0  501    0  0.00000000000E+00 -0.00000000000E+00 -0.19903901418E+04  0.19903901418E+04  0.00000000000E+00 0. -1.
         25    2    1    2    0    0  0.23779926824E+02  0.11416515323E+02 -0.14712326620E+04  0.14767767067E+04  0.12509226229E+03 0.  0.
         23    2    1    2    0    0 -0.23779926824E+02 -0.11416515323E+02 -0.51209614051E+03  0.52067477437E+03  0.90354533908E+02 0.  0.
          5    1    3    3  502    0 -0.14222226401E+02 -0.44172923610E+02 -0.29943997055E+03  0.30304337522E+03  0.41800000000E+01 0.  1.
         -5    1    3    3    0  502  0.38002153225E+02  0.55589438933E+02 -0.11717926914E+04  0.11737333315E+04  0.41800000000E+01 0.  1.
        -11    1    4    4    0    0 -0.54464364077E+02  0.11582317316E+02 -0.31478086338E+03  0.31966781035E+03  0.00000000000E+00 0. -1.
         11    1    4    4    0    0  0.30684437253E+02 -0.22998832639E+02 -0.19731527713E+03  0.20100696401E+03  0.00000000000E+00 0.  1.
</event>
<event>
 8    1  0.6760442E-009  0.1110477E+03  0.7561462E-02  0.1258642E+00
         -2   -1    0    0    0  501 -0.00000000000E+00  0.00000000000E+00  0.71795159547E+02  0.71795159547E+02  0.00000000000E+00 0.  1.
          2   -1    0    0  501    0  0.00000000000E+00 -0.00000000000E+00 -0.24617999130E+03  0.24617999130E+03  0.00000000000E+00 0. -1.
         25    2    1    2    0    0  0.18232997807E+02 -0.71620097026E+02 -0.11898521357E+03  0.18779417241E+03  0.12508912677E+03 0.  0.
         23    2    1    2    0    0 -0.18232997807E+02  0.71620097026E+02 -0.55399618185E+02  0.13018097844E+03  0.91739244301E+02 0.  0.
          5    1    3    3  502    0 -0.50094378474E+02 -0.16836296757E+02 -0.22985990512E+02  0.57781794737E+02  0.41800000000E+01 0.  1.
         -5    1    3    3    0  502  0.68327376280E+02 -0.54783800269E+02 -0.95999223059E+02  0.13001237768E+03  0.41800000000E+01 0.  1.
        -11    1    4    4    0    0  0.62127396613E+01  0.44343974428E+02 -0.75961367593E+02  0.88176615771E+02  0.00000000000E+00 0. -1.
         11    1    4    4    0    0 -0.24445737468E+02  0.27276122598E+02  0.20561749408E+02  0.42004362667E+02  0.00000000000E+00 0.  1.
</event>
<event>
 8    1  0.6760442E-009  0.1174295E+03  0.7561462E-02  0.1247399E+00
         -4   -1    0    0    0  501 -0.00000000000E+00  0.00000000000E+00  0.82713219923E+02  0.82713219923E+02  0.00000000000E+00 0. -1.
          4   -1    0    0  501    0  0.00000000000E+00 -0.00000000000E+00 -0.25324242253E+03  0.25324242253E+03  0.00000000000E+00 0.  1.
         25    2    1    2    0    0  0.63040520517E+02 -0.73570295566E+01 -0.17367024067E+03  0.22324506882E+03  0.12509506444E+03 0.  0.
         23    2    1    2    0    0 -0.63040520517E+02  0.73570295566E+01  0.31410380661E+01  0.11271057363E+03  0.93089065832E+02 0.  0.
          5    1    3    3  502    0  0.39007966453E+02  0.58021527712E+02 -0.78023493361E+02  0.10484873409E+03  0.41800000000E+01 0. -1.
         -5    1    3    3    0  502  0.24032554064E+02 -0.65378557269E+02 -0.95646747313E+02  0.11839633473E+03  0.41800000000E+01 0. -1.
        -11    1    4    4    0    0 -0.19340249143E+02  0.37332863644E+02 -0.28682150751E+02  0.50896500042E+02  0.00000000000E+00 0.  1.
         11    1    4    4    0    0 -0.43700271373E+02 -0.29975834087E+02  0.31823188817E+02  0.61814073590E+02  0.00000000000E+00 0. -1.
</event>
<event>
 8    1  0.6760442E-009  0.1077271E+03  0.7561462E-02  0.1264838E+00
          2   -1    0    0  501    0  0.00000000000E+00  0.00000000000E+00  0.39299238283E+03  0.39299238283E+03  0.00000000000E+00 0. -1.
         -2   -1    0    0    0  501 -0.00000000000E+00 -0.00000000000E+00 -0.36801690798E+02  0.36801690798E+02  0.00000000000E+00 0.  1.
         25    2    1    2    0    0  0.15616108923E+02 -0.19825115461E+02  0.11377568342E+03  0.17096758066E+03  0.12509240360E+03 0.  0.
         23    2    1    2    0    0 -0.15616108923E+02  0.19825115461E+02  0.24241500861E+03  0.25882649296E+03  0.87116123644E+02 0.  0.
          5    1    3    3  502    0 -0.53395000678E+02  0.29676662873E+01  0.36986754489E+02  0.65156162780E+02  0.41800000000E+01 0. -1.
         -5    1    3    3    0  502  0.69011109601E+02 -0.22792781749E+02  0.76788928933E+02  0.10581141788E+03  0.41800000000E+01 0. -1.
        -11    1    4    4    0    0 -0.13183697973E+02 -0.33310564349E+02  0.12277785473E+03  0.12789763564E+03  0.00000000000E+00 0. -1.
         11    1    4    4    0    0 -0.24324109501E+01  0.53135679810E+02  0.11963715388E+03  0.13092885733E+03  0.00000000000E+00 0.  1.
</event>
<event>
 8    1  0.6760442E-009  0.1172013E+03  0.7561462E-02  0.1247787E+00
          1   -1    0    0  501    0  0.00000000000E+00  0.00000000000E+00  0.13593030045E+03  0.13593030045E+03  0.00000000000E+00 0. -1.
         -1   -1    0    0    0  501 -0.00000000000E+00 -0.00000000000E+00 -0.11677990961E+03  0.11677990961E+03  0.00000000000E+00 0.  1.
         25    2    1    2    0    0  0.11666740501E+02 -0.57668827183E+02  0.34042375933E+02  0.14237185569E+03  0.12509618487E+03 0.  0.
         23    2    1    2    0    0 -0.11666740501E+02  0.57668827183E+02 -0.14891985099E+02  0.11033835438E+03  0.92146485357E+02 0.  0.
          5    1    3    3  502    0  0.18928192271E+01  0.39133809447E+02  0.19310055623E+02  0.43879248565E+02  0.41800000000E+01 0. -1.
         -5    1    3    3    0  502  0.97739212739E+01 -0.96802636631E+02  0.14732320310E+02  0.98492607121E+02  0.41800000000E+01 0. -1.
        -11    1    4    4    0    0  0.32822942042E+02  0.15428792033E+02 -0.30102131946E+02  0.47133125247E+02  0.00000000000E+00 0.  1.
         11    1    4    4    0    0 -0.44489682543E+02  0.42240035150E+02  0.15210146847E+02  0.63205229130E+02  0.00000000000E+00 0. -1.
</event>
<event>
 8    1  0.6760442E-009  0.1841824E+03  0.7561462E-02  0.1163816E+00
         -2   -1    0    0    0  501 -0.00000000000E+00  0.00000000000E+00  0.72801929434E+02  0.72801929434E+02  0.00000000000E+00 0. -1.
          2   -1    0    0  501    0  0.00000000000E+00 -0.00000000000E+00 -0.51693410030E+03  0.51693410030E+03  0.00000000000E+00 0.  1.
         25    2    1    2    0    0  0.15580772686E+03  0.33779935864E+02 -0.25753824131E+03  0.32770523487E+03  0.12509054084E+03 0.  0.
         23    2    1    2    0    0 -0.15580772686E+03 -0.33779935864E+02 -0.18659392956E+03  0.26203079487E+03  0.91791672252E+02 0.  0.
          5    1    3    3  502    0  0.46150113360E+02 -0.32308947114E+02 -0.15056054075E+03  0.16080935874E+03  0.41800000000E+01 0.  1.
         -5    1    3    3    0  502  0.10965761350E+03  0.66088882978E+02 -0.10697770056E+03  0.16689587613E+03  0.41800000000E+01 0.  1.
        -11    1    4    4    0    0 -0.65391502074E+02 -0.60919369201E+02 -0.84774192039E+02  0.12318231092E+03  0.00000000000E+00 0. -1.
         11    1    4    4    0    0 -0.90416224787E+02  0.27139433338E+02 -0.10181973752E+03  0.13884848395E+03  0.00000000000E+00 0.  1.
</event>
<event>
 8    1  0.6760442E-009  0.9971510E+02  0.7561462E-02  0.1280896E+00
         -1   -1    0    0    0  501 -0.00000000000E+00  0.00000000000E+00  0.24944704944E+03  0.24944704944E+03  0.00000000000E+00 0.  1.
          1   -1    0    0  501    0  0.00000000000E+00 -0.00000000000E+00 -0.53150487630E+02  0.53150487630E+02  0.00000000000E+00 0. -1.
         25    2    1    2    0    0  0.63760997728E+01  0.18206364630E+02  0.14030528304E+03  0.18895686627E+03  0.12508796305E+03 0.  0.
         23    2    1    2    0    0 -0.63760997728E+01 -0.18206364630E+02  0.55991278765E+02  0.11364067080E+03  0.96989960305E+02 0.  0.
          5    1    3    3  502    0  0.54384814961E+02  0.30359095331E+02  0.32794871979E+02  0.70514954413E+02  0.41800000000E+01 0. -1.
         -5    1    3    3    0  502 -0.48008715188E+02 -0.12152730701E+02  0.10751041106E+03  0.11844191186E+03  0.41800000000E+01 0. -1.
        -11    1    4    4    0    0 -0.23115951580E+02  0.29077739046E+02  0.51195346690E+02  0.63252080188E+02  0.00000000000E+00 0.  1.
         11    1    4    4    0    0  0.16739851807E+02 -0.47284103676E+02  0.47959320753E+01  0.50388590608E+02  0.00000000000E+00 0. -1.
</event>
<event>
 8    1  0.6760442E-009  0.9816803E+02  0.7561462E-02  0.1284196E+00
         -2   -1    0    0    0  501 -0.00000000000E+00  0.00000000000E+00  0.69230695207E+02  0.69230695207E+02  0.00000000000E+00 0. -1.
          2   -1    0    0  501    0  0.00000000000E+00 -0.00000000000E+00 -0.22597039141E+03  0.22597039141E+03  0.00000000000E+00 0.  1.
         25    2    1    2    0    0 -0.39591321291E+02 -0.32219121790E+02 -0.12730203789E+03  0.18563109102E+03  0.12509016177E+03 0.  0.
         23    2    1    2    0    0  0.39591321291E+02  0.32219121790E+02 -0.29437658311E+02  0.10956999559E+03  0.92376748573E+02 0.  0.
          5    1    3    3  502    0 -0.77211621009E+02 -0.33323808183E+02 -0.46007010475E+02  0.95949090791E+02  0.41800000000E+01 0. -1.
         -5    1    3    3    0  502  0.37620299718E+02  0.11046863921E+01 -0.81295027415E+02  0.89682000230E+02  0.41800000000E+01 0. -1.
        -11    1    4    4    0    0 -0.13662209945E+02  0.66367784443E+01  0.24988067726E+02  0.29242201308E+02  0.00000000000E+00 0. -1.
         11    1    4    4    0    0  0.53253531236E+02  0.25582343346E+02 -0.54425726036E+02  0.80327794285E+02  0.00000000000E+00 0.  1.
</event>
<event>
 8    1  0.6760442E-009  0.1224479E+03  0.7561462E-02  0.1239113E+00
         -3   -1    0    0    0  501 -0.00000000000E+00  0.00000000000E+00  0.89497919104E+02  0.89497919104E+02  0.00000000000E+00 0.  1.
          3   -1    0    0  501    0  0.00000000000E+00 -0.00000000000E+00 -0.25110562891E+03  0.25110562891E+03  0.00000000000E+00 0. -1.
         25    2    1    2    0    0 -0.16533415469E+01  0.88370663730E+02 -0.14750411714E+03  0.21264521424E+03  0.12509362422E+03 0.  0.
         23    2    1    2    0    0  0.16533415469E+01 -0.88370663730E+02 -0.14103592665E+02  0.12795833377E+03  0.91445700333E+02 0.  0.
          5    1    3    3  502    0 -0.52837728444E+02  0.71224864471E+02 -0.12655702614E+03  0.15459288513E+03  0.41800000000E+01 0.  1.
         -5    1    3    3    0  502  0.51184386897E+02  0.17145799259E+02 -0.20947090997E+02  0.58052329114E+02  0.41800000000E+01 0.  1.
        -11    1    4    4    0    0 -0.20940063634E+02 -0.16577032633E+02 -0.40229866042E+02  0.48287952925E+02  0.00000000000E+00 0. -1.
         11    1    4    4    0    0  0.22593405181E+02 -0.71793631097E+02  0.26126273378E+02  0.79670380847E+02  0.00000000000E+00 0.  1.
</event>
<event>
 8    1  0.6760442E-009  0.1212585E+03  0.7561462E-02  0.1241035E+00
          2   -1    0    0  501    0  0.00000000000E+00  0.00000000000E+00  0.54477676702E+02  0.54477676702E+02  0.00000000000E+00 0. -1.
         -2   -1    0    0    0  501 -0.00000000000E+00 -0.00000000000E+00 -0.29142882542E+03  0.29142882542E+03  0.00000000000E+00 0.  1.
         25    2    1    2    0    0  0.55706716596E+02  0.20998161673E+02 -0.93772638977E+02  0.16728307884E+03  0.12508460968E+03 0.  0.
         23    2    1    2    0    0 -0.55706716596E+02 -0.20998161673E+02 -0.14317850974E+03  0.17862342328E+03  0.88668374439E+02 0.  0.
          5    1    3    3  502    0  0.90051508426E+02  0.39080914264E+02 -0.56674388464E+02  0.11342861516E+03  0.41800000000E+01 0. -1.
         -5    1    3    3    0  502 -0.34344791830E+02 -0.18082752591E+02 -0.37098250513E+02  0.53854463680E+02  0.41800000000E+01 0. -1.
        -11    1    4    4    0    0 -0.65379559697E+02 -0.44984097952E+02 -0.93685847877E+02  0.12278067432E+03  0.00000000000E+00 0. -1.
         11    1    4    4    0    0  0.96728431013E+01  0.23985936280E+02 -0.49492661864E+02  0.55842748959E+02  0.00000000000E+00 0.  1.
</event>
<event>
 8    1  0.6760442E-009  0.1079741E+03  0.7561462E-02  0.1264368E+00
          1   -1    0    0  501    0  0.00000000000E+00  0.00000000000E+00  0.51351533220E+02  0.51351533220E+02  0.00000000000E+00 0. -1.
         -1   -1    0    0    0  501 -0.00000000000E+00 -0.00000000000E+00 -0.45331375170E+03  0.45331375170E+03  0.00000000000E+00 0.  1.
         25    2    1    2    0    0  0.69504460658E+02 -0.69851888373E+01 -0.35005853711E+03  0.37824283118E+03  0.12508795714E+03 0.  0.
         23    2    1    2    0    0 -0.69504460658E+02  0.69851888373E+01 -0.51903681366E+02  0.12642245374E+03  0.91700500298E+02 0.  0.
          5    1    3    3  502    0  0.48113626545E+02  0.41086043931E+02 -0.29590457776E+03  0.30262183596E+03  0.41800000000E+01 0.  1.
         -5    1    3    3    0  502  0.21390834112E+02 -0.48071232768E+02 -0.54153959357E+02  0.75620995219E+02  0.41800000000E+01 0.  1.
        -11    1    4    4    0    0 -0.80726869231E+02 -0.79060345202E+01 -0.64742792545E+02  0.10378324520E+03  0.00000000000E+00 0.  1.
         11    1    4    4    0    0  0.11222408574E+02  0.14891223358E+02  0.12839111179E+02  0.22639208536E+02  0.00000000000E+00 0. -1.
</event>
<event>
 8    1  0.6760442E-009  0.8318060E+02  0.7561462E-02  0.1320260E+00
          2   -1    0    0  501    0  0.00000000000E+00  0.00000000000E+00  0.24375767665E+03  0.24375767665E+03  0.00000000000E+00 0. -1.
         -2   -1    0    0    0  501 -0.00000000000E+00 -0.00000000000E+00 -0.65024121921E+02  0.65024121921E+02  0.00000000000E+00 0.  1.
         25    2    1    2    0    0  0.19238692315E+02  0.41722728915E+02  0.15604021079E+03  0.20520025739E+03  0.12509070652E+03 0.  0.
         23    2    1    2    0    0 -0.19238692315E+02 -0.41722728915E+02  0.22693343936E+02  0.10358154118E+03  0.90017967234E+02 0.  0.
          5    1    3    3  502    0  0.71141128469E+01 -0.34983653778E+02  0.63324844447E+01  0.36497114852E+02  0.41800000000E+01 0. -1.
         -5    1    3    3    0  502  0.12124579468E+02  0.76706382693E+02  0.14970772635E+03  0.16870314254E+03  0.41800000000E+01 0. -1.
        -11    1    4    4    0    0  0.53569883273E+01 -0.16789808593E+02 -0.33219806965E+02  0.37605193409E+02  0.00000000000E+00 0.  1.
         11    1    4    4    0    0 -0.24595680643E+02 -0.24932920321E+02  0.55913150901E+02  0.65976347775E+02  0.00000000000E+00 0. -1.
</event>
<event>
 8    1  0.6760442E-009  0.1483545E+03  0.7561462E-02  0.1202510E+00
         -2   -1    0    0    0  501 -0.00000000000E+00  0.00000000000E+00  0.31665960734E+02  0.31665960734E+02  0.00000000000E+00 0.  1.
          2   -1    0    0  501    0  0.00000000000E+00 -0.00000000000E+00 -0.91832710531E+03  0.91832710531E+03  0.00000000000E+00 0. -1.
         25    2    1    2    0    0  0.12511262709E+03 -0.18708908112E+02 -0.57335465552E+03  0.60032098999E+03  0.12508611957E+03 0.  0.
         23    2    1    2    0    0 -0.12511262709E+03  0.18708908112E+02 -0.31330648905E+03  0.34967207605E+03  0.90035615125E+02 0.  0.
          5    1    3    3  502    0  0.63233985644E+02  0.22671275763E+02 -0.45833637838E+03  0.46325180176E+03  0.41800000000E+01 0. -1.
         -5    1    3    3    0  502  0.61878641447E+02 -0.41380183874E+02 -0.11501827714E+03  0.13706918823E+03  0.41800000000E+01 0. -1.
        -11    1    4    4    0    0 -0.10825505220E+02 -0.29035278711E+02 -0.73584546709E+02  0.79843124234E+02  0.00000000000E+00 0. -1.
         11    1    4    4    0    0 -0.11428712187E+03  0.47744186822E+02 -0.23972194234E+03  0.26982895182E+03  0.00000000000E+00 0.  1.
</event>
<event>
 8    1  0.6760442E-009  0.9810019E+02  0.7561462E-02  0.1284342E+00
         -2   -1    0    0    0  501 -0.00000000000E+00  0.00000000000E+00  0.29772075522E+03  0.29772075522E+03  0.00000000000E+00 0.  1.
          2   -1    0    0  501    0  0.00000000000E+00 -0.00000000000E+00 -0.49683816982E+02  0.49683816982E+02  0.00000000000E+00 0. -1.
         25    2    1    2    0    0  0.26517896912E+02 -0.10015896287E+02  0.70154599899E+02  0.14618066188E+03  0.12507438181E+03 0.  0.
         23    2    1    2    0    0 -0.26517896912E+02  0.10015896287E+02  0.17788233834E+03  0.20122391032E+03  0.89696258316E+02 0.  0.
          5    1    3    3  502    0  0.15410700620E+02 -0.54422752870E+02  0.81067116054E+02  0.98937735111E+02  0.41800000000E+01 0. -1.
         -5    1    3    3    0  502  0.11107196292E+02  0.44406856583E+02 -0.10912516156E+02  0.47242926771E+02  0.41800000000E+01 0. -1.
        -11    1    4    4    0    0 -0.16378446923E+01 -0.38743428848E+02  0.63225631974E+02  0.74170185066E+02  0.00000000000E+00 0. -1.
         11    1    4    4    0    0 -0.24880052219E+02  0.48759325136E+02  0.11465670637E+03  0.12705372525E+03  0.00000000000E+00 0.  1.
</event>
<event>
 8    1  0.6760442E-009  0.1281354E+03  0.7561462E-02  0.1230249E+00
          2   -1    0    0  501    0  0.00000000000E+00  0.00000000000E+00  0.56928794183E+03  0.56928794183E+03  0.00000000000E+00 0. -1.
         -2   -1    0    0    0  501 -0.00000000000E+00 -0.00000000000E+00 -0.31546540734E+02  0.31546540734E+02  0.00000000000E+00 0.  1.
         25    2    1    2    0    0  0.66001723868E+02  0.23917110503E+02  0.21800510970E+03  0.26096375035E+03  0.12509034900E+03 0.  0.
         23    2    1    2    0    0 -0.66001723868E+02 -0.23917110503E+02  0.31973629140E+03  0.33987073222E+03  0.91392356645E+02 0.  0.
          5    1    3    3  502    0  0.10020784646E+03  0.33563979458E+02  0.14302045390E+03  0.17787769912E+03  0.41800000000E+01 0.  1.
         -5    1    3    3    0  502 -0.34206122596E+02 -0.96468689548E+01  0.74984655800E+02  0.83086051231E+02  0.41800000000E+01 0.  1.
        -11    1    4    4    0    0 -0.11541076986E+02  0.33592043305E+02  0.84630508754E+02  0.91782050769E+02  0.00000000000E+00 0.  1.
         11    1    4    4    0    0 -0.54460646881E+02 -0.57509153808E+02  0.23510578264E+03  0.24808868145E+03  0.00000000000E+00 0. -1.
</event>
<event>
 8    1  0.6760442E-009  0.1034927E+03  0.7561462E-02  0.1273118E+00
          3   -1    0    0  501    0  0.00000000000E+00  0.00000000000E+00  0.55965229219E+02  0.55965229219E+02  0.00000000000E+00 0. -1.
         -3   -1    0    0    0  501 -0.00000000000E+00 -0.00000000000E+00 -0.22897572335E+03  0.22897572335E+03  0.00000000000E+00 0.  1.
         25    2    1    2    0    0 -0.29411223049E+02 -0.11099222515E+02 -0.10960030788E+03  0.16925376987E+03  0.12508556410E+03 0.  0.
         23    2    1    2    0    0  0.29411223049E+02  0.11099222515E+02 -0.63410186254E+02  0.11568718270E+03  0.91512074284E+02 0.  0.
          5    1    3    3  502    0 -0.64639370985E+02 -0.29209786884E+02 -0.10814098748E+03  0.12939631179E+03  0.41800000000E+01 0. -1.
         -5    1    3    3    0  502  0.35228147936E+02  0.18110564369E+02 -0.14593204043E+01  0.39857458083E+02  0.41800000000E+01 0. -1.
        -11    1    4    4    0    0  0.62063925727E+02  0.15686249611E+01 -0.34375016236E+02  0.70965013930E+02  0.00000000000E+00 0. -1.
         11    1    4    4    0    0 -0.32652702678E+02  0.95305975540E+01 -0.29035170018E+02  0.44722168774E+02  0.00000000000E+00 0.  1.
</event>
<event>
 8    1  0.6760442E-009  0.9061122E+02  0.7561462E-02  0.1301378E+00
         -1   -1    0    0    0  501 -0.00000000000E+00  0.00000000000E+00  0.11218324906E+03  0.11218324906E+03  0.00000000000E+00 0.  1.
          1   -1    0    0  501    0  0.00000000000E+00 -0.00000000000E+00 -0.18749800928E+03  0.18749800928E+03  0.00000000000E+00 0. -1.
         25    2    1    2    0    0  0.73411133133E+02 -0.29776178636E+02 -0.96768771055E+02  0.17688174473E+03  0.12508853379E+03 0.  0.
         23    2    1    2    0    0 -0.73411133133E+02  0.29776178636E+02  0.21454010832E+02  0.12279951361E+03  0.91343476401E+02 0.  0.
          5    1    3    3  502    0  0.65588463368E+02 -0.23036722313E+02  0.92728543919E+01  0.70256639049E+02  0.41800000000E+01 0. -1.
         -5    1    3    3    0  502  0.78226697656E+01 -0.67394563224E+01 -0.10604162545E+03  0.10662510568E+03  0.41800000000E+01 0. -1.
        -11    1    4    4    0    0  0.53735812498E+01  0.20405247606E+02 -0.23520844756E+02  0.31598728508E+02  0.00000000000E+00 0. -1.
         11    1    4    4    0    0 -0.78784714383E+02  0.93709310299E+01  0.44974855588E+02  0.91200785106E+02  0.00000000000E+00 0.  1.
</event>
<event>
 8    1  0.6760442E-009  0.2829124E+03  0.7561462E-02  0.1094109E+00
         -2   -1    0    0    0  501 -0.00000000000E+00  0.00000000000E+00  0.12057384613E+03  0.12057384613E+03  0.00000000000E+00 0.  1.
          2   -1    0    0  501    0  0.00000000000E+00 -0.00000000000E+00 -0.70514670570E+03  0.70514670570E+03  0.00000000000E+00 0. -1.
         25    2    1    2    0    0  0.91178397059E+02  0.25429891264E+03 -0.30998410841E+03  0.42978873017E+03  0.12508704190E+03 0.  0.
         23    2    1    2    0    0 -0.91178397059E+02 -0.25429891264E+03 -0.27458875117E+03  0.39593182166E+03  0.91551013517E+02 0.  0.
          5    1    3    3  502    0  0.10818149843E+03  0.17411867015E+03 -0.26849543555E+03  0.33782809121E+03  0.41800000000E+01 0.  1.
         -5    1    3    3    0  502 -0.17003101368E+02  0.80180242490E+02 -0.41488672854E+02  0.91960638956E+02  0.41800000000E+01 0.  1.
        -11    1    4    4    0    0 -0.96804833679E+02 -0.18145601566E+03 -0.23691850577E+03  0.31373211474E+03  0.00000000000E+00 0. -1.
         11    1    4    4    0    0  0.56264366199E+01 -0.72842896983E+02 -0.37670245396E+02  0.82199706922E+02  0.00000000000E+00 0.  1.
</event>
<event>
 8    1  0.6760442E-009  0.1348456E+03  0.7561462E-02  0.1220438E+00
         -1   -1    0    0    0  501 -0.00000000000E+00  0.00000000000E+00  0.43680237946E+02  0.43680237946E+02  0.00000000000E+00 0.  1.
          1   -1    0    0  501    0  0.00000000000E+00 -0.00000000000E+00 -0.49082318233E+03  0.49082318233E+03  0.00000000000E+00 0. -1.
         25    2    1    2    0    0  0.18300408795E+02 -0.95834579808E+02 -0.23594390624E+03  0.28431725697E+03  0.12509038360E+03 0.  0.
         23    2    1    2    0    0 -0.18300408795E+02  0.95834579808E+02 -0.21119903815E+03  0.25018616331E+03  0.92026686068E+02 0.  0.
          5    1    3    3  502    0  0.58838653604E+02 -0.89297067993E+02 -0.11772001362E+03  0.15909565524E+03  0.41800000000E+01 0. -1.
         -5    1    3    3    0  502 -0.40538244809E+02 -0.65375118149E+01 -0.11822389262E+03  0.12522160173E+03  0.41800000000E+01 0. -1.
        -11    1    4    4    0    0  0.13886156998E+02  0.86886499946E+02 -0.19307498873E+03  0.21217926502E+03  0.00000000000E+00 0. -1.
         11    1    4    4    0    0 -0.32186565792E+02  0.89480798625E+01 -0.18124049414E+02  0.38006898293E+02  0.00000000000E+00 0.  1.
</event>
<event>
 8    1  0.6760442E-009  0.1517459E+03  0.7561462E-02  0.1198344E+00
         -1   -1    0    0    0  501 -0.00000000000E+00  0.00000000000E+00  0.66477862671E+02  0.66477862671E+02  0.00000000000E+00 0.  1.
          1   -1    0    0  501    0  0.00000000000E+00 -0.00000000000E+00 -0.56651891263E+03  0.56651891263E+03  0.00000000000E+00 0. -1.
         25    2    1    2    0    0 -0.84518672670E+02 -0.83416361712E+02 -0.85806801657E+02  0.19264438399E+03  0.12508939221E+03 0.  0.
         23    2    1    2    0    0  0.84518672670E+02  0.83416361712E+02 -0.41423424830E+03  0.44035239131E+03  0.90656056781E+02 0.  0.
          5    1    3    3  502    0 -0.93901862985E+02 -0.10654264081E+03 -0.53988812436E+02  0.15199065251E+03  0.41800000000E+01 0. -1.
         -5    1    3    3    0  502  0.93831903157E+01  0.23126279097E+02 -0.31817989221E+02  0.40653731483E+02  0.41800000000E+01 0. -1.
        -11    1    4    4    0    0  0.42671653575E+02  0.84044018354E+02 -0.18828697508E+03  0.21056175347E+03  0.00000000000E+00 0.  1.
         11    1    4    4    0    0  0.41847019095E+02 -0.62765664155E+00 -0.22594727323E+03  0.22979063784E+03  0.00000000000E+00 0. -1.
</event>
<event>
 8    1  0.6760442E-009  0.1252444E+03  0.7561462E-02  0.1234688E+00
         -2   -1    0    0    0  501 -0.00000000000E+00  0.00000000000E+00  0.72945734305E+02  0.72945734305E+02  0.00000000000E+00 0.  1.
          2   -1    0    0  501    0  0.00000000000E+00 -0.00000000000E+00 -0.38225386642E+03  0.38225386642E+03  0.00000000000E+00 0. -1.
         25    2    1    2    0    0  0.93497740475E+02 -0.48974538092E+02 -0.68293174121E+02  0.17734462979E+03  0.12508727845E+03 0.  0.
         23    2    1    2    0    0 -0.93497740475E+02  0.48974538092E+02 -0.24101495799E+03  0.27785497093E+03  0.89301971082E+02 0.  0.
          5    1    3    3  502    0  0.35178972331E+02  0.12632892211E+01  0.34093264311E+02  0.49183117686E+02  0.41800000000E+01 0.  1.
         -5    1    3    3    0  502  0.58318768144E+02 -0.50237827313E+02 -0.10238643843E+03  0.12816151211E+03  0.41800000000E+01 0.  1.
        -11    1    4    4    0    0 -0.16312446067E+02 -0.25776125371E+02 -0.45929975248E+02  0.55136804062E+02  0.00000000000E+00 0.  1.
         11    1    4    4    0    0 -0.77185294408E+02  0.74750663463E+02 -0.19508498275E+03  0.22271816687E+03  0.00000000000E+00 0. -1.
</event>
<event>
 8    1  0.6760442E-009  0.1229051E+03  0.7561462E-02  0.1238380E+00
         -2   -1    0    0    0  501 -0.00000000000E+00  0.00000000000E+00  0.10768514806E+03  0.10768514806E+03  0.00000000000E+00 0. -1.
          2   -1    0    0  501    0  0.00000000000E+00 -0.00000000000E+00 -0.18812016048E+03  0.18812016048E+03  0.00000000000E+00 0.  1.
         25    2    1    2    0    0  0.47149523759E+02  0.58303950288E+02 -0.10018204333E+03  0.17693876063E+03  0.12509378481E+03 0.  0.
         23    2    1    2    0    0 -0.47149523759E+02 -0.58303950288E+02  0.19747030904E+02  0.11886654791E+03  0.90093744356E+02 0.  0.
          5    1    3    3  502    0 -0.30154263982E+02 -0.17526911353E+02 -0.39019002085E+02  0.52501687416E+02  0.41800000000E+01 0.  1.
         -5    1    3    3    0  502  0.77303787741E+02  0.75830861640E+02 -0.61163041249E+02  0.12443707322E+03  0.41800000000E+01 0.  1.
        -11    1    4    4    0    0  0.86294214995E+01 -0.43853041611E+02 -0.19899570067E+02  0.48923910951E+02  0.00000000000E+00 0.  1.
         11    1    4    4    0    0 -0.55778945258E+02 -0.14450908677E+02  0.39646600972E+02  0.69942636956E+02  0.00000000000E+00 0. -1.
</event>
<event>
 8    1  0.6760442E-009  0.1187659E+03  0.7561462E-02  0.1245147E+00
         -2   -1    0    0    0  501 -0.00000000000E+00  0.00000000000E+00  0.87470120251E+02  0.87470120251E+02  0.00000000000E+00 0.  1.
          2   -1    0    0  501    0  0.00000000000E+00 -0.00000000000E+00 -0.23834954355E+03  0.23834954355E+03  0.00000000000E+00 0. -1.
         25    2    1    2    0    0  0.90623193909E+02  0.44080001370E+01 -0.10913331771E+03  0.18918183575E+03  0.12509073589E+03 0.  0.
         23    2    1    2    0    0 -0.90623193909E+02 -0.44080001370E+01 -0.41746105588E+02  0.13663782805E+03  0.93247868517E+02 0.  0.
          5    1    3    3  502    0 -0.12672902270E+01 -0.39792254797E+02 -0.36567858808E+00  0.40032932533E+02  0.41800000000E+01 0. -1.
         -5    1    3    3    0  502  0.91890484136E+02  0.44200254934E+02 -0.10876763912E+03  0.14914890322E+03  0.41800000000E+01 0. -1.
        -11    1    4    4    0    0 -0.62104960337E+02  0.10939225164E+02 -0.69601664581E+02  0.93920628501E+02  0.00000000000E+00 0. -1.
         11    1    4    4    0    0 -0.28518233572E+02 -0.15347225301E+02  0.27855558992E+02  0.42717199549E+02  0.00000000000E+00 0.  1.
</event>
<event>
 8    1  0.6760442E-009  0.1069553E+03  0.7561462E-02  0.1266314E+00
         -1   -1    0    0    0  501 -0.00000000000E+00  0.00000000000E+00  0.13377887806E+03  0.13377887806E+03  0.00000000000E+00 0.  1.
          1   -1    0    0  501    0  0.00000000000E+00 -0.00000000000E+00 -0.26968135272E+03  0.26968135272E+03  0.00000000000E+00 0. -1.
         25    2    1    2    0    0  0.21579455189E+01  0.58912680369E+02 -0.22305575660E+03  0.26244381457E+03  0.12509006602E+03 0.  0.
         23    2    1    2    0    0 -0.21579455189E+01 -0.58912680369E+02  0.87153281943E+02  0.14101641621E+03  0.93885965139E+02 0.  0.
          5    1    3    3  502    0 -0.11069787799E+02  0.78593313588E+02 -0.22466738887E+03  0.23831147090E+03  0.41800000000E+01 0.  1.
         -5    1    3    3    0  502  0.13227733318E+02 -0.19680633219E+02  0.16116322631E+01  0.24132343674E+02  0.41800000000E+01 0.  1.
        -11    1    4    4    0    0  0.45016725555E+02 -0.37305446352E+02  0.52874088711E+02  0.78828111510E+02  0.00000000000E+00 0.  1.
         11    1    4    4    0    0 -0.47174671074E+02 -0.21607234017E+02  0.34279193233E+02  0.62188304700E+02  0.00000000000E+00 0. -1.
</event>
<event>
 8    1  0.6760442E-009  0.1309683E+03  0.7561462E-02  0.1226026E+00
         -2   -1    0    0    0  501 -0.00000000000E+00  0.00000000000E+00  0.30444224745E+02  0.30444224745E+02  0.00000000000E+00 0.  1.
          2   -1    0    0  501    0  0.00000000000E+00 -0.00000000000E+00 -0.80094735832E+03  0.80094735832E+03  0.00000000000E+00 0. -1.
         25    2    1    2    0    0  0.51029826866E+02 -0.98771341075E+02 -0.40156305723E+03  0.43504000938E+03  0.12508836791E+03 0.  0.
         23    2    1    2    0    0 -0.51029826866E+02  0.98771341075E+02 -0.36894007635E+03  0.39635157368E+03  0.92833016634E+02 0.  0.
          5    1    3    3  502    0 -0.27992990404E+02 -0.35375963789E+02 -0.24041383223E+03  0.24464535445E+03  0.41800000000E+01 0.  1.
         -5    1    3    3    0  502  0.79022817270E+02 -0.63395377286E+02 -0.16114922500E+03  0.19039465494E+03  0.41800000000E+01 0.  1.
        -11    1    4    4    0    0 -0.43315616700E+02  0.51295635500E+02 -0.84752679837E+02  0.10812262303E+03  0.00000000000E+00 0.  1.
         11    1    4    4    0    0 -0.77142101659E+01  0.47475705575E+02 -0.28418739651E+03  0.28822895065E+03  0.00000000000E+00 0. -1.
</event>
<event>
 8    1  0.6760442E-009  0.1109669E+03  0.7561462E-02  0.1258790E+00
         -2   -1    0    0    0  501 -0.00000000000E+00  0.00000000000E+00  0.29124885259E+02  0.29124885259E+02  0.00000000000E+00 0.  1.
          2   -1    0    0  501    0  0.00000000000E+00 -0.00000000000E+00 -0.52592561509E+03  0.52592561509E+03  0.00000000000E+00 0. -1.
         25    2    1    2    0    0 -0.19437299518E+02  0.47443770215E+02 -0.33166165675E+03  0.35815526399E+03  0.12508804348E+03 0.  0.
         23    2    1    2    0    0  0.19437299518E+02 -0.47443770215E+02 -0.16513907309E+03  0.19689523636E+03  0.94170593590E+02 0.  0.
          5    1    3    3  502    0 -0.64825664918E+02  0.23126292751E+02 -0.26496804888E+03  0.27379322778E+03  0.41800000000E+01 0. -1.
         -5    1    3    3    0  502  0.45388365399E+02  0.24317477464E+02 -0.66693607867E+02  0.84362036214E+02  0.41800000000E+01 0. -1.
        -11    1    4    4    0    0  0.34440072420E+02  0.14658186109E+02 -0.32092892329E+02  0.49304510406E+02  0.00000000000E+00 0.  1.
         11    1    4    4    0    0 -0.15002772902E+02 -0.62101956324E+02 -0.13304618076E+03  0.14759072596E+03  0.00000000000E+00 0. -1.
</event>
<event>
 8    1  0.6760442E-009  0.9792321E+02  0.7561462E-02  0.1284725E+00
         -2   -1    0    0    0  501 -0.00000000000E+00  0.00000000000E+00  0.88812118302E+01  0.88812118302E+01  0.00000000000E+00 0.  1.
          2   -1    0    0  501    0  0.00000000000E+00 -0.00000000000E+00 -0.22749506223E+04  0.22749506223E+04  0.00000000000E+00 0. -1.
         25    2    1    2    0    0  0.38560551551E+02 -0.15824418198E+02 -0.18873425571E+04  0.18919427441E+04  0.12509232780E+03 0.  0.
         23    2    1    2    0    0 -0.38560551551E+02  0.15824418198E+02 -0.37872685336E+03  0.39188909010E+03  0.91682610860E+02 0.  0.
          5    1    3    3  502    0 -0.28039462721E+02 -0.10904309679E+02 -0.13721908598E+03  0.14054061831E+03  0.41800000000E+01 0.  1.
         -5    1    3    3    0  502  0.66600014272E+02 -0.49201085190E+01 -0.17501234712E+04  0.17514021258E+04  0.41800000000E+01 0.  1.
        -11    1    4    4    0    0  0.69889922365E+01  0.44296190041E+02 -0.13290107280E+03  0.14026294456E+03  0.00000000000E+00 0.  1.
         11    1    4    4    0    0 -0.45549543787E+02 -0.28471771843E+02 -0.24582578056E+03  0.25162614554E+03  0.00000000000E+00 0. -1.
</event>
<event>
 8    1  0.6760442E-009  0.1580650E+03  0.7561462E-02  0.1190899E+00
          2   -1    0    0  501    0  0.00000000000E+00  0.00000000000E+00  0.16209184915E+04  0.16209184915E+04  0.00000000000E+00 0.  1.
         -2   -1    0    0    0  501 -0.00000000000E+00 -0.00000000000E+00 -0.16046002171E+02  0.16046002171E+02  0.00000000000E+00 0. -1.
         25    2    1    2    0    0  0.85157223905E+01  0.11774730745E+03  0.91021313572E+03  0.92632158983E+03  0.12508712728E+03 0.  0.
         23    2    1    2    0    0 -0.85157223905E+01 -0.11774730745E+03  0.69465935358E+03  0.71064290381E+03  0.92329698796E+02 0.  0.
          5    1    3    3  502    0  0.25088946847E+02 -0.17654394753E+02  0.99640902121E+02  0.10434037897E+03  0.41800000000E+01 0. -1.
         -5    1    3    3    0  502 -0.16573224456E+02  0.13540170220E+03  0.81057223360E+03  0.82198121086E+03  0.41800000000E+01 0. -1.
        -11    1    4    4    0    0  0.31645549337E+02 -0.92032054724E+01  0.11990275647E+03  0.12434955083E+03  0.00000000000E+00 0.  1.
         11    1    4    4    0    0 -0.40161271727E+02 -0.10854410198E+03  0.57475659711E+03  0.58629335298E+03  0.00000000000E+00 0. -1.
</event>
<event>
 8    1  0.6760442E-009  0.1178391E+03  0.7561462E-02  0.1246705E+00
          1   -1    0    0  501    0  0.00000000000E+00  0.00000000000E+00  0.78928826608E+03  0.78928826608E+03  0.00000000000E+00 0. -1.
         -1   -1    0    0    0  501 -0.00000000000E+00 -0.00000000000E+00 -0.23414176738E+02  0.23414176738E+02  0.00000000000E+00 0.  1.
         25    2    1    2    0    0 -0.33675274205E+02 -0.26234255070E+02  0.21773178647E+03  0.25470965289E+03  0.12509043211E+03 0.  0.
         23    2    1    2    0    0  0.33675274205E+02  0.26234255070E+02  0.54814230287E+03  0.55799278993E+03  0.95256019129E+02 0.  0.
          5    1    3    3  502    0  0.15559280932E+02 -0.65987035208E+02  0.12680280760E+03  0.14384993727E+03  0.41800000000E+01 0.  1.
         -5    1    3    3    0  502 -0.49234555137E+02  0.39752780138E+02  0.90928978875E+02  0.11085971562E+03  0.41800000000E+01 0.  1.
        -11    1    4    4    0    0 -0.28157710225E+02  0.31533509684E+02  0.21379157863E+03  0.21793131480E+03  0.00000000000E+00 0.  1.
         11    1    4    4    0    0  0.61832984429E+02 -0.52992546143E+01  0.33435072425E+03  0.34006147513E+03  0.00000000000E+00 0. -1.
</event>
<event>
 8    1  0.6760442E-009  0.1384754E+03  0.7561462E-02  0.1215395E+00
         -1   -1    0    0    0  501 -0.00000000000E+00  0.00000000000E+00  0.36647833177E+03  0.36647833177E+03  0.00000000000E+00 0.  1.
          1   -1    0    0  501    0  0.00000000000E+00 -0.00000000000E+00 -0.69090549836E+02  0.69090549836E+02  0.00000000000E+00 0. -1.
         25    2    1    2    0    0 -0.21696674046E+02  0.94045074237E+02  0.72277958723E+02  0.17374511098E+03  0.12509212053E+03 0.  0.
         23    2    1    2    0    0  0.21696674046E+02 -0.94045074237E+02  0.22510982321E+03  0.26182377062E+03  0.92531252587E+02 0.  0.
          5    1    3    3  502    0 -0.38454895093E+02  0.11689286679E+03  0.76256994122E+02  0.14482859806E+03  0.41800000000E+01 0.  1.
         -5    1    3    3    0  502  0.16758221047E+02 -0.22847792549E+02 -0.39790353985E+01  0.28916512925E+02  0.41800000000E+01 0.  1.
        -11    1    4    4    0    0  0.37483220853E+02 -0.10114935915E+03  0.21776616816E+03  0.24301911179E+03  0.00000000000E+00 0.  1.
         11    1    4    4    0    0 -0.15786546808E+02  0.71042849100E+01  0.73436550454E+01  0.18804658828E+02  0.00000000000E+00 0. -1.
</event>
<event>
 8    1  0.6760442E-009  0.2303326E+03  0.7561462E-02  0.1126406E+00
          1   -1    0    0  501    0  0.00000000000E+00  0.00000000000E+00  0.52846640885E+03  0.52846640885E+03  0.00000000000E+00 0. -1.
         -1   -1    0    0    0  501 -0.00000000000E+00 -0.00000000000E+00 -0.13706119419E+03  0.13706119419E+03  0.00000000000E+00 0.  1.
         25    2    1    2    0    0  0.20020606450E+03  0.51700267370E+02  0.32577259539E+02  0.24385414705E+03  0.12509269078E+03 0.  0.
         23    2    1    2    0    0 -0.20020606450E+03 -0.51700267370E+02  0.35882795512E+03  0.42167345598E+03  0.79344919127E+02 0.  0.
          5    1    3    3  502    0  0.57155326947E+02 -0.41177599010E+02  0.16638464275E+02  0.72502668586E+02  0.41800000000E+01 0. -1.
         -5    1    3    3    0  502  0.14305073756E+03  0.92877866380E+02  0.15938795265E+02  0.17135147847E+03  0.41800000000E+01 0. -1.
        -11    1    4    4    0    0 -0.13901194655E+03 -0.69966863380E+02  0.27872205533E+03  0.31922667085E+03  0.00000000000E+00 0.  1.
         11    1    4    4    0    0 -0.61194117955E+02  0.18266596010E+02  0.80105899790E+02  0.10244678513E+03  0.00000000000E+00 0. -1.
</event>
<event>
 8    1  0.6760442E-009  0.1281693E+03  0.7561462E-02  0.1230198E+00
          4   -1    0    0  501    0  0.00000000000E+00  0.00000000000E+00  0.68949163112E+02  0.68949163112E+02  0.00000000000E+00 0. -1.
         -4   -1    0    0    0  501 -0.00000000000E+00 -0.00000000000E+00 -0.48606935900E+03  0.48606935900E+03  0.00000000000E+00 0.  1.
         25    2    1    2    0    0 -0.10335571488E+03  0.64305606845E+01 -0.37092564777E+03  0.40491612237E+03  0.12508986398E+03 0.  0.
         23    2    1    2    0    0  0.10335571488E+03 -0.64305606845E+01 -0.46194548122E+02  0.15010239975E+03  0.98351605087E+02 0.  0.
          5    1    3    3  502    0 -0.12251545708E+03  0.65323476673E+01 -0.21352732670E+03  0.24630083321E+03  0.41800000000E+01 0. -1.
         -5    1    3    3    0  502  0.19159742195E+02 -0.10178698283E+00 -0.15739832107E+03  0.15861528916E+03  0.41800000000E+01 0. -1.
        -11    1    4    4    0    0  0.55787853872E+02 -0.27196826297E+02 -0.69524827388E+02  0.93196854151E+02  0.00000000000E+00 0. -1.
         11    1    4    4    0    0  0.47567861012E+02  0.20766265612E+02  0.23330279266E+02  0.56905545595E+02  0.00000000000E+00 0.  1.
</event>
<event>
 8    1  0.6760442E-009  0.1061220E+03  0.7561462E-02  0.1267925E+00
         -2   -1    0    0    0  501 -0.00000000000E+00  0.00000000000E+00  0.15909240558E+02  0.15909240558E+02  0.00000000000E+00 0. -1.
          2   -1    0    0  501    0  0.00000000000E+00 -0.00000000000E+00 -0.88458005925E+03  0.88458005925E+03  0.00000000000E+00 0.  1.
         25    2    1    2    0    0  0.19124385802E+02  0.43148265123E+02 -0.48228369611E+03  0.50046828013E+03  0.12507366216E+03 0.  0.
         23    2    1    2    0    0 -0.19124385802E+02 -0.43148265123E+02 -0.38638712258E+03  0.40002101968E+03  0.92164487591E+02 0.  0.
          5    1    3    3  502    0  0.47707237563E+02 -0.14478991912E+02 -0.34726801595E+03  0.35085348656E+03  0.41800000000E+01 0.  1.
         -5    1    3    3    0  502 -0.28582851761E+02  0.57627257036E+02 -0.13501568016E+03  0.14961479358E+03  0.41800000000E+01 0.  1.
        -11    1    4    4    0    0  0.19072565968E+02 -0.54631746597E+02 -0.15989073003E+03  0.17003951323E+03  0.00000000000E+00 0.  1.
         11    1    4    4    0    0 -0.38196951770E+02  0.11483481474E+02 -0.22649639255E+03  0.22998150645E+03  0.00000000000E+00 0. -1.
</event>
<event>
 8    1  0.6760442E-009  0.1024199E+03  0.7561462E-02  0.1275288E+00
         -1   -1    0    0    0  501 -0.00000000000E+00  0.00000000000E+00  0.66841679788E+02  0.66841679788E+02  0.00000000000E+00 0.  1.
          1   -1    0    0  501    0  0.00000000000E+00 -0.00000000000E+00 -0.24564632284E+03  0.24564632284E+03  0.00000000000E+00 0. -1.
         25    2    1    2    0    0  0.62108757769E+02  0.21259277719E+01 -0.13221230567E+03  0.19231883974E+03  0.12507767581E+03 0.  0.
         23    2    1    2    0    0 -0.62108757769E+02 -0.21259277719E+01 -0.46592337379E+02  0.12016916289E+03  0.91693862650E+02 0.  0.
          5    1    3    3  502    0 -0.32742530184E+02  0.10310450141E+02 -0.75337523352E+01  0.35392209442E+02  0.41800000000E+01 0.  1.
         -5    1    3    3    0  502  0.94851287953E+02 -0.81845223691E+01 -0.12467855334E+03  0.15692663029E+03  0.41800000000E+01 0.  1.
        -11    1    4    4    0    0 -0.11297763102E+02  0.17218913422E+02 -0.60617486771E+02  0.64020388416E+02  0.00000000000E+00 0. -1.
         11    1    4    4    0    0 -0.50810994667E+02 -0.19344841194E+02  0.14025149392E+02  0.56148774477E+02  0.00000000000E+00 0.  1.
</event>
<event>
 8    1  0.6760442E-009  0.9538906E+02  0.7561462E-02  0.1290302E+00
         -1   -1    0    0    0  501 -0.00000000000E+00  0.00000000000E+00  0.19464166769E+02  0.19464166769E+02  0.00000000000E+00 0.  1.
          1   -1    0    0  501    0  0.00000000000E+00 -0.00000000000E+00 -0.73838561881E+03  0.73838561881E+03  0.00000000000E+00 0. -1.
         25    2    1    2    0    0  0.23543567471E+01  0.37897382095E+02 -0.54013657008E+03  0.55572925290E+03  0.12508290703E+03 0.  0.
         23    2    1    2    0    0 -0.23543567471E+01 -0.37897382095E+02 -0.17878488196E+03  0.20212053268E+03  0.86295545338E+02 0.  0.
          5    1    3    3  502    0  0.32473288460E+02  0.53822076945E+02 -0.49515690337E+03  0.49914843663E+03  0.41800000000E+01 0. -1.
         -5    1    3    3    0  502 -0.30118931713E+02 -0.15924694850E+02 -0.44979666706E+02  0.56580816277E+02  0.41800000000E+01 0. -1.
        -11    1    4    4    0    0  0.21875277794E+02  0.20655648064E+02 -0.45628630833E+02  0.54654876518E+02  0.00000000000E+00 0.  1.
         11    1    4    4    0    0 -0.24229634542E+02 -0.58553030159E+02 -0.13315625113E+03  0.14746565616E+03  0.00000000000E+00 0. -1.
</event>
<event>
 8    1  0.6760442E-009  0.9573513E+02  0.7561462E-02  0.1289529E+00
          2   -1    0    0  501    0  0.00000000000E+00  0.00000000000E+00  0.24036572645E+03  0.24036572645E+03  0.00000000000E+00 0. -1.
         -2   -1    0    0    0  501 -0.00000000000E+00 -0.00000000000E+00 -0.82771487375E+02  0.82771487375E+02  0.00000000000E+00 0.  1.
         25    2    1    2    0    0  0.33275397803E+02  0.79756981822E+02  0.10319704929E+03  0.18375821427E+03  0.12509605143E+03 0.  0.
         23    2    1    2    0    0 -0.33275397803E+02 -0.79756981822E+02  0.54397189785E+02  0.13937899955E+03  0.94863180484E+02 0.  0.
          5    1    3    3  502    0  0.85237764457E+01  0.59229342218E+02  0.12903484939E+03  0.14229629124E+03  0.41800000000E+01 0. -1.
         -5    1    3    3    0  502  0.24751621357E+02  0.20527639604E+02 -0.25837800099E+02  0.41461923031E+02  0.41800000000E+01 0. -1.
        -11    1    4    4    0    0 -0.84637335774E+01 -0.72798863720E+02 -0.61793748838E+01  0.73549262532E+02  0.00000000000E+00 0.  1.
         11    1    4    4    0    0 -0.24811664225E+02 -0.69581181018E+01  0.60576564669E+02  0.65829737021E+02  0.00000000000E+00 0. -1.
</event>
<event>
 8    1  0.6760442E-009  0.1210302E+03  0.7561462E-02  0.1241407E+00
          2   -1    0    0  501    0  0.00000000000E+00  0.00000000000E+00  0.15746646085E+04  0.15746646085E+04  0.00000000000E+00 0. -1.
         -2   -1    0    0    0  501 -0.00000000000E+00 -0.00000000000E+00 -0.15156611176E+02  0.15156611176E+02  0.00000000000E+00 0.  1.
         25    2    1    2    0    0 -0.98540200453E+02  0.19398423475E+02  0.10064909600E+04  0.10191947066E+04  0.12508927799E+03 0.  0.
         23    2    1    2    0    0  0.98540200453E+02 -0.19398423475E+02  0.55301703727E+03  0.57062651302E+03  0.98490120878E+02 0.  0.
          5    1    3    3  502    0 -0.18501922086E+00  0.15634732899E+02  0.62433628174E+03  0.62454603049E+03  0.41800000000E+01 0. -1.
         -5    1    3    3    0  502 -0.98355181232E+02  0.37636905762E+01  0.38215467827E+03  0.39464867612E+03  0.41800000000E+01 0. -1.
        -11    1    4    4    0    0  0.19226156579E+02  0.28741703535E+02  0.62650701058E+02  0.71560051439E+02  0.00000000000E+00 0.  1.
         11    1    4    4    0    0  0.79314043874E+02 -0.48140127010E+02  0.49036633621E+03  0.49906646158E+03  0.00000000000E+00 0. -1.
</event>
<event>
 8    1  0.6760442E-009  0.6582908E+02  0.7561462E-02  0.1374880E+00
         -2   -1    0    0    0  501 -0.00000000000E+00  0.00000000000E+00  0.89434407113E+02  0.89434407113E+02  0.00000000000E+00 0.  1.
          2   -1    0    0  501    0  0.00000000000E+00 -0.00000000000E+00 -0.12989150442E+03  0.12989150442E+03  0.00000000000E+00 0. -1.
         25    2    1    2    0    0  0.19002179044E+01  0.12610525798E+02 -0.22264151774E+02  0.12769283650E+03  0.12508849608E+03 0.  0.
         23    2    1    2    0    0 -0.19002179044E+01 -0.12610525798E+02 -0.18192945536E+02  0.91633075036E+02  0.88898824426E+02 0.  0.
          5    1    3    3  502    0 -0.13049862648E+02  0.21376320307E+02 -0.71209988740E+02  0.75601460841E+02  0.41800000000E+01 0. -1.
         -5    1    3    3    0  502  0.14950080553E+02 -0.87657945086E+01  0.48945836965E+02  0.52091375660E+02  0.41800000000E+01 0. -1.
        -11    1    4    4    0    0 -0.39723789727E+01  0.37789058866E+02  0.38488039803E-01  0.37997292614E+02  0.00000000000E+00 0.  1.
         11    1    4    4    0    0  0.20721610683E+01 -0.50399584664E+02 -0.18231433576E+02  0.53635782422E+02  0.00000000000E+00 0. -1.
</event>
<event>
 7    1  0.6760442E-009  0.7729332E+02  0.7561462E-02  0.1336913E+00
          2   -1    0    0  501    0  0.00000000000E+00  0.00000000000E+00  0.38949574178E+03  0.38949574178E+03  0.00000000000E+00 0. -1.
         -2   -1    0    0    0  501 -0.00000000000E+00 -0.00000000000E+00 -0.27064496741E+02  0.27064496741E+02  0.00000000000E+00 0.  1.
         25    2    1    2    0    0 -0.21185881284E+02 -0.32490737393E+02  0.18006521764E+03  0.22264750778E+03  0.12507573921E+03 0.  0.
          5    1    3    3  502    0 -0.49908418616E+02 -0.36785908204E+02  0.18290148420E+03  0.19316955923E+03  0.41800000000E+01 0.  1.
         -5    1    3    3    0  502  0.28722537332E+02  0.42951708117E+01 -0.28362665599E+01  0.29477948556E+02  0.41800000000E+01 0.  1.
        -11    1    1    2    0    0  0.37383956207E+02  0.26543790218E+02  0.10381344872E+03  0.11348729055E+03  0.00000000000E+00 0.  1.
         11    1    1    2    0    0 -0.16198074923E+02  0.59469471742E+01  0.78552578679E+02  0.80425440185E+02  0.00000000000E+00 0. -1.
</event>
<event>
 8    1  0.6760442E-009  0.1049434E+03  0.7561462E-02  0.1270231E+00
          1   -1    0    0  501    0  0.00000000000E+00  0.00000000000E+00  0.99693886712E+02  0.99693886712E+02  0.00000000000E+00 0. -1.
         -1   -1    0    0    0  501 -0.00000000000E+00 -0.00000000000E+00 -0.28986035387E+03  0.28986035387E+03  0.00000000000E+00 0.  1.
         25    2    1    2    0    0  0.60629299076E+01  0.10036239459E+03 -0.19665453204E+03  0.25383200214E+03  0.12509320913E+03 0.  0.
         23    2    1    2    0    0 -0.60629299076E+01 -0.10036239459E+03  0.64880648763E+01  0.13572223845E+03  0.90934381048E+02 0.  0.
          5    1    3    3  502    0 -0.11078493172E+02  0.59304205398E+02 -0.20007287883E+03  0.20901280112E+03  0.41800000000E+01 0. -1.
         -5    1    3    3    0  502  0.17141423080E+02  0.41058189191E+02  0.34183467942E+01  0.44819201015E+02  0.41800000000E+01 0. -1.
        -11    1    4    4    0    0  0.11891639229E+02 -0.36779619941E+02 -0.39466490011E+02  0.55242695086E+02  0.00000000000E+00 0.  1.
         11    1    4    4    0    0 -0.17954569136E+02 -0.63582774647E+02  0.45954554887E+02  0.80479543361E+02  0.00000000000E+00 0. -1.
</event>
<event>
 8    1  0.6760442E-009  0.1010762E+03  0.7561462E-02  0.1278049E+00
          2   -1    0    0  501    0  0.00000000000E+00  0.00000000000E+00  0.25001104210E+03  0.25001104210E+03  0.00000000000E+00 0. -1.
         -2   -1    0    0    0  501 -0.00000000000E+00 -0.00000000000E+00 -0.54244348192E+02  0.54244348192E+02  0.00000000000E+00 0.  1.
         25    2    1    2    0    0 -0.19218176088E+01 -0.43427580783E+02  0.12006646316E+03  0.17874934143E+03  0.12508286586E+03 0.  0.
         23    2    1    2    0    0  0.19218176088E+01  0.43427580783E+02  0.75700230754E+02  0.12550604886E+03  0.90175358106E+02 0.  0.
          5    1    3    3  502    0  0.40455045985E+02 -0.48815163536E+02  0.15043575413E+02  0.65294046420E+02  0.41800000000E+01 0.  1.
         -5    1    3    3    0  502 -0.42376863594E+02  0.53875827533E+01  0.10502288774E+03  0.11345529501E+03  0.41800000000E+01 0.  1.
        -11    1    4    4    0    0  0.26697312988E+02 -0.16127287485E+02  0.84333316050E+01  0.32310323496E+02  0.00000000000E+00 0.  1.
         11    1    4    4    0    0 -0.24775495379E+02  0.59554868268E+02  0.67266899149E+02  0.93195725368E+02  0.00000000000E+00 0. -1.
</event>
<event>
 8    1  0.6760442E-009  0.1185332E+03  0.7561462E-02  0.1245537E+00
          1   -1    0    0  501    0  0.00000000000E+00  0.00000000000E+00  0.92519671966E+02  0.92519671966E+02  0.00000000000E+00 0. -1.
         -1   -1    0    0    0  501 -0.00000000000E+00 -0.00000000000E+00 -0.23836813131E+03  0.23836813131E+03  0.00000000000E+00 0.  1.
         25    2    1    2    0    0  0.17481172098E+02  0.10056208124E+03 -0.89105032468E+02  0.18440362496E+03  0.12508663608E+03 0.  0.
         23    2    1    2    0    0 -0.17481172098E+02 -0.10056208124E+03 -0.56743426874E+02  0.14648417831E+03  0.88427792247E+02 0.  0.
          5    1    3    3  502    0 -0.85366230367E+01 -0.65880491281E+01 -0.71783893360E+02  0.72709532182E+02  0.41800000000E+01 0. -1.
         -5    1    3    3    0  502  0.26017795135E+02  0.10715013037E+03 -0.17321139108E+02  0.11169409278E+03  0.41800000000E+01 0. -1.
        -11    1    4    4    0    0 -0.36663584466E+02 -0.60530696983E+02 -0.70618895368E+02  0.99976057564E+02  0.00000000000E+00 0.  1.
         11    1    4    4    0    0  0.19182412368E+02 -0.40031384257E+02  0.13875468493E+02  0.46508120750E+02  0.00000000000E+00 0. -1.
</event>
<event>
 8    1  0.6760442E-009  0.1049668E+03  0.7561462E-02  0.1270185E+00
          4   -1    0    0  501    0  0.00000000000E+00  0.00000000000E+00  0.20778727651E+03  0.20778727651E+03  0.00000000000E+00 0. -1.
         -4   -1    0    0    0  501 -0.00000000000E+00 -0.00000000000E+00 -0.56452756068E+02  0.56452756068E+02  0.00000000000E+00 0.  1.
         25    2    1    2    0    0  0.62538013021E+01 -0.60647659111E+01  0.95994572404E+02  0.15791856526E+03  0.12508966347E+03 0.  0.
         23    2    1    2    0    0 -0.62538013021E+01  0.60647659111E+01  0.55339948033E+02  0.10632146731E+03  0.90365110232E+02 0.  0.
          5    1    3    3  502    0 -0.44084247007E+02  0.35017490786E+02  0.64104115416E+02  0.85419292367E+02  0.41800000000E+01 0. -1.
         -5    1    3    3    0  502  0.50338048309E+02 -0.41082256697E+02  0.31890456988E+02  0.72499272892E+02  0.41800000000E+01 0. -1.
        -11    1    4    4    0    0  0.38871272829E+02  0.16215046577E+02  0.38607609279E+02  0.57135375041E+02  0.00000000000E+00 0. -1.
         11    1    4    4    0    0 -0.45125074131E+02 -0.10150280665E+02  0.16732338754E+02  0.49186092273E+02  0.00000000000E+00 0.  1.
</event>
<event>
 8    1  0.6760442E-009  0.1054185E+03  0.7561462E-02  0.1269297E+00
          1   -1    0    0  501    0  0.00000000000E+00  0.00000000000E+00  0.19370832005E+02  0.19370832005E+02  0.00000000000E+00 0. -1.
         -1   -1    0    0    0  501 -0.00000000000E+00 -0.00000000000E+00 -0.74839986378E+03  0.74839986378E+03  0.00000000000E+00 0.  1.
         25    2    1    2    0    0 -0.30305160726E+02  0.32327259402E+02 -0.49756536396E+03  0.51495849668E+03  0.12508999732E+03 0.  0.
         23    2    1    2    0    0  0.30305160726E+02 -0.32327259402E+02 -0.23146366781E+03  0.25281219910E+03  0.91515703722E+02 0.  0.
          5    1    3    3  502    0 -0.33860230242E+02  0.78007509030E+02 -0.35884638186E+03  0.36880873746E+03  0.41800000000E+01 0.  1.
         -5    1    3    3    0  502  0.35550695156E+01 -0.45680249628E+02 -0.13871898210E+03  0.14614975922E+03  0.41800000000E+01 0.  1.
        -11    1    4    4    0    0 -0.15454452715E+02 -0.30143794780E+02 -0.18305563011E+03  0.18616350928E+03  0.00000000000E+00 0.  1.
         11    1    4    4    0    0  0.45759613441E+02 -0.21834646224E+01 -0.48408037702E+02  0.66648689816E+02  0.00000000000E+00 0. -1.
</event>
<event>
 8    1  0.6760442E-009  0.1349742E+03  0.7561462E-02  0.1220256E+00
         -2   -1    0    0    0  501 -0.00000000000E+00  0.00000000000E+00  0.14670709926E+02  0.14670709926E+02  0.00000000000E+00 0.  1.
          2   -1    0    0  501    0  0.00000000000E+00 -0.00000000000E+00 -0.13495472309E+04  0.13495472309E+04  0.00000000000E+00 0. -1.
         25    2    1    2    0    0  0.71891210103E+02 -0.24511274167E+02 -0.90344209359E+03  0.91521802480E+03  0.12508903945E+03 0.  0.
         23    2    1    2    0    0 -0.71891210103E+02  0.24511274167E+02 -0.43143442740E+03  0.44899991604E+03  0.98468831676E+02 0.  0.
          5    1    3    3  502    0  0.42226594272E+02  0.50251306761E+02 -0.41561527542E+03  0.42078712986E+03  0.41800000000E+01 0. -1.
         -5    1    3    3    0  502  0.29664615831E+02 -0.74762580928E+02 -0.48782681817E+03  0.49443089493E+03  0.41800000000E+01 0. -1.
        -11    1    4    4    0    0 -0.13120356813E+02 -0.36582229902E+02 -0.15900560988E+03  0.16368624647E+03  0.00000000000E+00 0.  1.
         11    1    4    4    0    0 -0.58770853290E+02  0.61093504069E+02 -0.27242881751E+03  0.28531366957E+03  0.00000000000E+00 0. -1.
</event>
<event>
 8    1  0.6760442E-009  0.1713102E+03  0.7561462E-02  0.1176488E+00
          2   -1    0    0  501    0  0.00000000000E+00  0.00000000000E+00  0.66013506192E+03  0.66013506192E+03  0.00000000000E+00 0. -1.
         -2   -1    0    0    0  501 -0.00000000000E+00 -0.00000000000E+00 -0.55736929081E+02  0.55736929081E+02  0.00000000000E+00 0.  1.
         25    2    1    2    0    0  0.88119656221E+02 -0.10070462827E+03  0.16118169044E+03  0.24399561905E+03  0.12509128193E+03 0.  0.
         23    2    1    2    0    0 -0.88119656221E+02  0.10070462827E+03  0.44321644240E+03  0.47187637195E+03  0.91214031956E+02 0.  0.
          5    1    3    3  502    0 -0.30216946352E+02 -0.91128170612E+01  0.41675694833E+02  0.52444668189E+02  0.41800000000E+01 0.  1.
         -5    1    3    3    0  502  0.11833660257E+03 -0.91591811210E+02  0.11950599560E+03  0.19155095086E+03  0.41800000000E+01 0.  1.
        -11    1    4    4    0    0 -0.66695679147E+02  0.94667978144E+01  0.16174359505E+03  0.17521108531E+03  0.00000000000E+00 0.  1.
         11    1    4    4    0    0 -0.21423977074E+02  0.91237830457E+02  0.28147284735E+03  0.29666528664E+03  0.00000000000E+00 0. -1.
</event>
<event>
 8    1  0.6760442E-009  0.1116414E+03  0.7561462E-02  0.1257560E+00
         -1   -1    0    0    0  501 -0.00000000000E+00  0.00000000000E+00  0.57283320371E+03  0.57283320371E+03  0.00000000000E+00 0.  1.
          1   -1    0    0  501    0  0.00000000000E+00 -0.00000000000E+00 -0.47610285588E+02  0.47610285588E+02  0.00000000000E+00 0. -1.
         25    2    1    2    0    0  0.86048518409E+02  0.62987675707E+02  0.17973739015E+03  0.24356689280E+03  0.12508999577E+03 0.  0.
         23    2    1    2    0    0 -0.86048518409E+02 -0.62987675707E+02  0.34548552797E+03  0.37687659649E+03  0.10631991411E+03 0.  0.
          5    1    3    3  502    0  0.18054373553E+02  0.15483326670E+02  0.15505818744E+03  0.15692739628E+03  0.41800000000E+01 0.  1.
         -5    1    3    3    0  502  0.67994144856E+02  0.47504349037E+02  0.24679202706E+02  0.86639496526E+02  0.41800000000E+01 0.  1.
        -11    1    4    4    0    0 -0.19356565207E+02 -0.41870740606E+02  0.27018995307E+03  0.27409933651E+03  0.00000000000E+00 0.  1.
         11    1    4    4    0    0 -0.66691953202E+02 -0.21116935101E+02  0.75295574903E+02  0.10277725998E+03  0.00000000000E+00 0. -1.
</event>
<event>
 8    1  0.6760442E-009  0.1142803E+03  0.7561462E-02  0.1252843E+00
         -2   -1    0    0    0  501 -0.00000000000E+00  0.00000000000E+00  0.67468262091E+02  0.67468262091E+02  0.00000000000E+00 0.  1.
          2   -1    0    0  501    0  0.00000000000E+00 -0.00000000000E+00 -0.29438247218E+03  0.29438247218E+03  0.00000000000E+00 0. -1.
         25    2    1    2    0    0 -0.41550622161E+02 -0.72383641387E+02 -0.16313926806E+03  0.22187298028E+03  0.12508937945E+03 0.  0.
         23    2    1    2    0    0  0.41550622161E+02  0.72383641387E+02 -0.63774942030E+02  0.13997775399E+03  0.92523957113E+02 0.  0.
          5    1    3    3  502    0 -0.78581146012E+02 -0.31477759662E+02 -0.56889278574E+02  0.10207697232E+03  0.41800000000E+01 0.  1.
         -5    1    3    3    0  502  0.37030523851E+02 -0.40905881725E+02 -0.10624998949E+03  0.11979600796E+03  0.41800000000E+01 0.  1.
        -11    1    4    4    0    0 -0.18566636090E+01  0.21532178180E+02  0.22255405227E+02  0.31022330002E+02  0.00000000000E+00 0.  1.
         11    1    4    4    0    0  0.43407285770E+02  0.50851463207E+02 -0.86030347256E+02  0.10895542399E+03  0.00000000000E+00 0. -1.
</event>
<event>
 8    1  0.6760442E-009  0.1168245E+03  0.7561462E-02  0.1248430E+00
         -2   -1    0    0    0  501 -0.00000000000E+00  0.00000000000E+00  0.17247975378E+02  0.17247975378E+02  0.00000000000E+00 0.  1.
          2   -1    0    0  501    0  0.00000000000E+00 -0.00000000000E+00 -0.90161191485E+03  0.90161191485E+03  0.00000000000E+00 0. -1.
         25    2    1    2    0    0 -0.51024740220E+02  0.31172384437E+02 -0.60416877608E+03  0.61987390329E+03  0.12509398200E+03 0.  0.
         23    2    1    2    0    0  0.51024740220E+02 -0.31172384437E+02 -0.28019516339E+03  0.29898598693E+03  0.85487128430E+02 0.  0.
          5    1    3    3  502    0 -0.16445742187E+02  0.77894749508E+02 -0.31893665231E+03  0.32874931943E+03  0.41800000000E+01 0.  1.
         -5    1    3    3    0  502 -0.34578998033E+02 -0.46722365071E+02 -0.28523212376E+03  0.29112458386E+03  0.41800000000E+01 0.  1.
        -11    1    4    4    0    0  0.41779394295E+02  0.18090524477E+02 -0.74822640540E+02  0.87585457702E+02  0.00000000000E+00 0.  1.
         11    1    4    4    0    0  0.92453459253E+01 -0.49262908914E+02 -0.20537252285E+03  0.21140052923E+03  0.00000000000E+00 0. -1.
</event>
<event>
 8    1  0.6760442E-009  0.1238366E+03  0.7561462E-02  0.1236899E+00
         -3   -1    0    0    0  501 -0.00000000000E+00  0.00000000000E+00  0.20386174560E+03  0.20386174560E+03  0.00000000000E+00 0.  1.
          3   -1    0    0  501    0  0.00000000000E+00 -0.00000000000E+00 -0.13407046209E+03  0.13407046209E+03  0.00000000000E+00 0. -1.
         25    2    1    2    0    0 -0.37098730914E+02  0.55392392758E+02  0.14589704280E+03  0.20341451795E+03  0.12508751338E+03 0.  0.
         23    2    1    2    0    0  0.37098730914E+02 -0.55392392758E+02 -0.76105759282E+02  0.13451768974E+03  0.88646992318E+02 0.  0.
          5    1    3    3  502    0 -0.66165586015E+02  0.78688124655E+02  0.11878645383E+03  0.15715406373E+03  0.41800000000E+01 0. -1.
         -5    1    3    3    0  502  0.29066855101E+02 -0.23295731896E+02  0.27110588973E+02  0.46260454219E+02  0.41800000000E+01 0. -1.
        -11    1    4    4    0    0  0.29402438356E+02  0.17354636619E+02 -0.91452542331E+01  0.35345756018E+02  0.00000000000E+00 0.  1.
         11    1    4    4    0    0  0.76962925572E+01 -0.72747029377E+02 -0.66960505049E+02  0.99171933725E+02  0.00000000000E+00 0. -1.
</event>
<event>
 8    1  0.6760442E-009  0.1556049E+03  0.7561462E-02  0.1193750E+00
          2   -1    0    0  501    0  0.00000000000E+00  0.00000000000E+00  0.24199270764E+04  0.24199270764E+04  0.00000000000E+00 0. -1.
         -2   -1    0    0    0  501 -0.00000000000E+00 -0.00000000000E+00 -0.17286924787E+02  0.17286924787E+02  0.00000000000E+00 0.  1.
         25    2    1    2    0    0 -0.10036699818E+03 -0.56966308673E+02  0.20260202924E+04  0.20331561722E+04  0.12508837125E+03 0.  0.
         23    2    1    2    0    0  0.10036699818E+03  0.56966308673E+02  0.37661985926E+03  0.40405782905E+03  0.90008422835E+02 0.  0.
          5    1    3    3  502    0 -0.26804437757E+02 -0.82719492678E+02  0.81865386717E+03  0.82326946924E+03  0.41800000000E+01 0. -1.
         -5    1    3    3    0  502 -0.73562560421E+02  0.25753184005E+02  0.12073664252E+04  0.12098867029E+04  0.41800000000E+01 0. -1.
        -11    1    4    4    0    0 -0.84909955321E+01  0.33743876395E+02  0.10016335958E+03  0.10603511118E+03  0.00000000000E+00 0. -1.
         11    1    4    4    0    0  0.10885799371E+03  0.23222432278E+02  0.27645649967E+03  0.29802271787E+03  0.00000000000E+00 0.  1.
</event>
<event>
 8    1  0.6760442E-009  0.1239572E+03  0.7561462E-02  0.1236708E+00
         -1   -1    0    0    0  501 -0.00000000000E+00  0.00000000000E+00  0.48283761814E+03  0.48283761814E+03  0.00000000000E+00 0.  1.
          1   -1    0    0  501    0  0.00000000000E+00 -0.00000000000E+00 -0.44136664598E+02  0.44136664598E+02  0.00000000000E+00 0. -1.
         25    2    1    2    0    0  0.54868821212E+02  0.78440459741E+02  0.20215506300E+03  0.25627536371E+03  0.12508756646E+03 0.  0.
         23    2    1    2    0    0 -0.54868821212E+02 -0.78440459741E+02  0.23654589055E+03  0.27069891903E+03  0.90335226605E+02 0.  0.
          5    1    3    3  502    0  0.17254103328E+02 -0.12400873175E+02  0.13596052501E+03  0.13767433493E+03  0.41800000000E+01 0.  1.
         -5    1    3    3    0  502  0.37614717884E+02  0.90841332917E+02  0.66194537986E+02  0.11860102878E+03  0.41800000000E+01 0.  1.
        -11    1    4    4    0    0 -0.35866680154E+02  0.10124831824E+02  0.42328759796E+02  0.56397294887E+02  0.00000000000E+00 0. -1.
         11    1    4    4    0    0 -0.19002141059E+02 -0.88565291565E+02  0.19421713075E+03  0.21430162415E+03  0.00000000000E+00 0.  1.
</event>
<event>
 8    1  0.6760442E-009  0.1389685E+03  0.7561462E-02  0.1214724E+00
         -4   -1    0    0    0  501 -0.00000000000E+00  0.00000000000E+00  0.54880287164E+02  0.54880287164E+02  0.00000000000E+00 0.  1.
          4   -1    0    0  501    0  0.00000000000E+00 -0.00000000000E+00 -0.38011503391E+03  0.38011503391E+03  0.00000000000E+00 0. -1.
         25    2    1    2    0    0  0.81922659727E+02 -0.40129742979E+02 -0.21952159483E+03  0.26862382613E+03  0.12508921183E+03 0.  0.
         23    2    1    2    0    0 -0.81922659727E+02  0.40129742979E+02 -0.10571315191E+03  0.16637149495E+03  0.90457091462E+02 0.  0.
          5    1    3    3  502    0  0.41468206267E+02  0.42103960600E+02 -0.58246509757E+02  0.83081188774E+02  0.41800000000E+01 0.  1.
         -5    1    3    3    0  502  0.40454453459E+02 -0.82233703580E+02 -0.16127508508E+03  0.18554263735E+03  0.41800000000E+01 0.  1.
        -11    1    4    4    0    0 -0.54115700321E+02 -0.22361225962E+02 -0.36147280409E+02  0.68812493987E+02  0.00000000000E+00 0.  1.
         11    1    4    4    0    0 -0.27806959406E+02  0.62490968941E+02 -0.69565871505E+02  0.97559000962E+02  0.00000000000E+00 0. -1.
</event>
<event>
 8    1  0.6760442E-009  0.1594862E+03  0.7561462E-02  0.1189278E+00
          2   -1    0    0  501    0  0.00000000000E+00  0.00000000000E+00  0.28190580084E+03  0.28190580084E+03  0.00000000000E+00 0. -1.
         -2   -1    0    0    0  501 -0.00000000000E+00 -0.00000000000E+00 -0.11986880178E+03  0.11986880178E+03  0.00000000000E+00 0.  1.
         25    2    1    2    0    0 -0.95633446542E+02 -0.74834039359E+02 -0.70089909978E+01  0.17447900083E+03  0.12509159136E+03 0.  0.
         23    2    1    2    0    0  0.95633446542E+02  0.74834039359E+02  0.16904599006E+03  0.22729560180E+03  0.91328277658E+02 0.  0.
          5    1    3    3  502    0  0.26231753297E+02 -0.34192107826E+01  0.16163020175E+02  0.31281168530E+02  0.41800000000E+01 0.  1.
         -5    1    3    3    0  502 -0.12186519984E+03 -0.71414828576E+02 -0.23172011173E+02  0.14319783230E+03  0.41800000000E+01 0.  1.
        -11    1    4    4    0    0  0.11146200102E+03  0.51747704525E+02  0.12646161272E+03  0.17633531151E+03  0.00000000000E+00 0.  1.
         11    1    4    4    0    0 -0.15828554480E+02  0.23086334833E+02  0.42584377338E+02  0.50960290288E+02  0.00000000000E+00 0. -1.
</event>
<event>
 8    1  0.6760442E-009  0.1606977E+03  0.7561462E-02  0.1187911E+00
          2   -1    0    0  501    0  0.00000000000E+00  0.00000000000E+00  0.16215308594E+03  0.16215308594E+03  0.00000000000E+00 0. -1.
         -2   -1    0    0    0  501 -0.00000000000E+00 -0.00000000000E+00 -0.16387347535E+03  0.16387347535E+03  0.00000000000E+00 0.  1.
         25    2    1    2    0    0  0.94929457760E+02  0.78329164760E+02  0.13869278542E+02  0.17603183736E+03  0.12509113028E+03 0.  0.
         23    2    1    2    0    0 -0.94929457760E+02 -0.78329164760E+02 -0.15589667949E+02  0.14999472393E+03  0.84310850170E+02 0.  0.
          5    1    3    3  502    0  0.44901091567E+02 -0.30390999146E+02 -0.57528457316E+01  0.54683530308E+02  0.41800000000E+01 0. -1.
         -5    1    3    3    0  502  0.50028366193E+02  0.10872016391E+03  0.19622124273E+02  0.12134830705E+03  0.41800000000E+01 0. -1.
        -11    1    4    4    0    0 -0.17060379698E+02 -0.66313953743E+02 -0.19222775157E+02  0.71120405659E+02  0.00000000000E+00 0.  1.
         11    1    4    4    0    0 -0.77869078062E+02 -0.12015211017E+02  0.36331072082E+01  0.78874318267E+02  0.00000000000E+00 0. -1.
</event>
<event>
 8    1  0.6760442E-009  0.1253110E+03  0.7561462E-02  0.1234584E+00
          1   -1    0    0  501    0  0.00000000000E+00  0.00000000000E+00  0.39518678425E+03  0.39518678425E+03  0.00000000000E+00 0. -1.
         -1   -1    0    0    0  501 -0.00000000000E+00 -0.00000000000E+00 -0.57848986841E+02  0.57848986841E+02  0.00000000000E+00 0.  1.
         25    2    1    2    0    0  0.46291765815E+02  0.89604233715E+02  0.23210758948E+03  0.28229986553E+03  0.12508970661E+03 0.  0.
         23    2    1    2    0    0 -0.46291765815E+02 -0.89604233715E+02  0.10523020793E+03  0.17073590556E+03  0.88912915295E+02 0.  0.
          5    1    3    3  502    0  0.28803703640E+02  0.99142873546E+02  0.85015239246E+02  0.13380592671E+03  0.41800000000E+01 0.  1.
         -5    1    3    3    0  502  0.17488062175E+02 -0.95386398313E+01  0.14709235023E+03  0.14849393882E+03  0.41800000000E+01 0.  1.
        -11    1    4    4    0    0 -0.67616458024E+02 -0.59621686597E+02  0.46504895354E+02  0.10143685819E+03  0.00000000000E+00 0.  1.
         11    1    4    4    0    0  0.21324692209E+02 -0.29982547118E+02  0.58725312575E+02  0.69299047370E+02  0.00000000000E+00 0. -1.
</event>
<event>
 7    1  0.6760442E-009  0.2526204E+03  0.7561462E-02  0.1111660E+00
         -2   -1    0    0    0  501 -0.00000000000E+00  0.00000000000E+00  0.49654289149E+02  0.49654289149E+02  0.00000000000E+00 0. -1.
          2   -1    0    0  501    0  0.00000000000E+00 -0.00000000000E+00 -0.18054385431E+04  0.18054385431E+04  0.00000000000E+00 0.  1.
         23    2    1    2    0    0  0.14176420184E+03 -0.19909607975E+03 -0.44670009843E+03  0.51753622704E+03  0.92555013178E+02 0.  0.
          5    1    1    2  502    0 -0.10163043271E+03  0.19542082996E+03 -0.90427999457E+03  0.93072972802E+03  0.41800000000E+01 0.  1.
         -5    1    1    2    0  502 -0.40133769125E+02  0.36752497914E+01 -0.40480416098E+03  0.40682687722E+03  0.41800000000E+01 0.  1.
        -11    1    3    3    0    0  0.73281590423E+02 -0.10157710544E+03 -0.31982027231E+03  0.34347213340E+03  0.00000000000E+00 0.  1.
         11    1    3    3    0    0  0.68482611413E+02 -0.97518974312E+02 -0.12687982613E+03  0.17406409364E+03  0.00000000000E+00 0. -1.
</event>
<event>
 8    1  0.6760442E-009  0.1019173E+03  0.7561462E-02  0.1276315E+00
          1   -1    0    0  501    0  0.00000000000E+00  0.00000000000E+00  0.15049714340E+03  0.15049714340E+03  0.00000000000E+00 0. -1.
         -1   -1    0    0    0  501 -0.00000000000E+00 -0.00000000000E+00 -0.73687376234E+02  0.73687376234E+02  0.00000000000E+00 0.  1.
         25    2    1    2    0    0  0.35715804112E+01 -0.38373425962E+01  0.62080947133E+02  0.13974957354E+03  0.12509363662E+03 0.  0.
         23    2    1    2    0    0 -0.35715804112E+01  0.38373425962E+01  0.14728820029E+02  0.84434946092E+02  0.82974939574E+02 0.  0.
          5    1    3    3  502    0 -0.54210441785E+02 -0.27352308893E+02  0.42492389631E+02  0.74229349835E+02  0.41800000000E+01 0.  1.
         -5    1    3    3    0  502  0.57782022196E+02  0.23514966297E+02  0.19588557502E+02  0.65520223703E+02  0.41800000000E+01 0.  1.
        -11    1    4    4    0    0 -0.69476525743E+01  0.41780500702E+02 -0.29145008220E+01  0.42454380578E+02  0.00000000000E+00 0.  1.
         11    1    4    4    0    0  0.33760721631E+01 -0.37943158105E+02  0.17643320851E+02  0.41980565515E+02  0.00000000000E+00 0. -1.
</event>
<event>
 8    1  0.6760442E-009  0.9798632E+02  0.7561462E-02  0.1284588E+00
         -4   -1    0    0    0  501 -0.00000000000E+00  0.00000000000E+00  0.12291968905E+02  0.12291968905E+02  0.00000000000E+00 0.  1.
          4   -1    0    0  501    0  0.00000000000E+00 -0.00000000000E+00 -0.10046195072E+04  0.10046195072E+04  0.00000000000E+00 0. -1.
         25    2    1    2    0    0 -0.25908444058E+02  0.12335932578E+02 -0.56888127730E+03  0.58318061422E+03  0.12510115280E+03 0.  0.
         23    2    1    2    0    0  0.25908444058E+02 -0.12335932578E+02 -0.42344626099E+03  0.43373086188E+03  0.89399675030E+02 0.  0.
          5    1    3    3  502    0 -0.39228464672E+02  0.49613645133E+02 -0.15601633099E+03  0.16840117030E+03  0.41800000000E+01 0. -1.
         -5    1    3    3    0  502  0.13320020614E+02 -0.37277712555E+02 -0.41286494632E+03  0.41477944392E+03  0.41800000000E+01 0. -1.
        -11    1    4    4    0    0  0.27918447994E+02  0.35353704056E+02 -0.23900810567E+03  0.24321636192E+03  0.00000000000E+00 0.  1.
         11    1    4    4    0    0 -0.20100039362E+01 -0.47689636634E+02 -0.18443815532E+03  0.19051449996E+03  0.00000000000E+00 0. -1.
</event>
<event>
 8    1  0.6760442E-009  0.1053280E+03  0.7561462E-02  0.1269475E+00
         -2   -1    0    0    0  501 -0.00000000000E+00  0.00000000000E+00  0.45519181711E+02  0.45519181711E+02  0.00000000000E+00 0.  1.
          2   -1    0    0  501    0  0.00000000000E+00 -0.00000000000E+00 -0.46027045873E+03  0.46027045873E+03  0.00000000000E+00 0. -1.
         25    2    1    2    0    0  0.11674918944E+02  0.37222361809E+02 -0.74698685324E+02  0.15082786369E+03  0.12508933977E+03 0.  0.
         23    2    1    2    0    0 -0.11674918944E+02 -0.37222361809E+02 -0.34005259169E+03  0.35496177675E+03  0.94022815774E+02 0.  0.
          5    1    3    3  502    0  0.67833790017E+02  0.24982483942E+02 -0.32320862412E+02  0.79294754675E+02  0.41800000000E+01 0.  1.
         -5    1    3    3    0  502 -0.56158871073E+02  0.12239877867E+02 -0.42377822912E+02  0.71533109013E+02  0.41800000000E+01 0.  1.
        -11    1    4    4    0    0  0.11721573652E+02  0.17523599975E+02 -0.18826111446E+02  0.28264718593E+02  0.00000000000E+00 0.  1.
         11    1    4    4    0    0 -0.23396492596E+02 -0.54745961783E+02 -0.32122648025E+03  0.32669705816E+03  0.00000000000E+00 0. -1.
</event>
<event>
 8    1  0.6760442E-009  0.1029009E+03  0.7561462E-02  0.1274311E+00
         -1   -1    0    0    0  501 -0.00000000000E+00  0.00000000000E+00  0.10801275480E+03  0.10801275480E+03  0.00000000000E+00 0.  1.
          1   -1    0    0  501    0  0.00000000000E+00 -0.00000000000E+00 -0.16175376805E+03  0.16175376805E+03  0.00000000000E+00 0. -1.
         25    2    1    2    0    0 -0.41308186451E+02 -0.58462803334E+02 -0.66636672691E+02  0.15877616333E+03  0.12508060702E+03 0.  0.
         23    2    1    2    0    0  0.41308186451E+02  0.58462803334E+02  0.12895659440E+02  0.11099035952E+03  0.83834934437E+02 0.  0.
          5    1    3    3  502    0 -0.15494849362E+02 -0.83788938727E+02 -0.82853701755E+02  0.11892386180E+03  0.41800000000E+01 0.  1.
         -5    1    3    3    0  502 -0.25813337088E+02  0.25326135393E+02  0.16217029064E+02  0.39852301530E+02  0.41800000000E+01 0.  1.
        -11    1    4    4    0    0  0.13141602145E+02  0.53990495345E+02  0.42444911827E+02  0.69923142339E+02  0.00000000000E+00 0.  1.
         11    1    4    4    0    0  0.28166584306E+02  0.44723079885E+01 -0.29549252387E+02  0.41067217179E+02  0.00000000000E+00 0. -1.
</event>
<event>
 8    1  0.6760442E-009  0.1080998E+03  0.7561462E-02  0.1264130E+00
         -1   -1    0    0    0  501 -0.00000000000E+00  0.00000000000E+00  0.11062344133E+03  0.11062344133E+03  0.00000000000E+00 0.  1.
          1   -1    0    0  501    0  0.00000000000E+00 -0.00000000000E+00 -0.16643556366E+03  0.16643556366E+03  0.00000000000E+00 0. -1.
         25    2    1    2    0    0 -0.18846821962E+02 -0.44399367217E+02  0.37951892398E+02  0.13933673993E+03  0.12509146434E+03 0.  0.
         23    2    1    2    0    0  0.18846821962E+02  0.44399367217E+02 -0.93764014729E+02  0.13772226505E+03  0.88595853882E+02 0.  0.
          5    1    3    3  502    0  0.28532570517E+02  0.20162411824E+02  0.46918241495E+02  0.58646604470E+02  0.41800000000E+01 0. -1.
         -5    1    3    3    0  502 -0.47379392479E+02 -0.64561779041E+02 -0.89663490969E+01  0.80690135461E+02  0.41800000000E+01 0. -1.
        -11    1    4    4    0    0  0.51437912695E+02  0.81555991276E+01 -0.50648918758E+02  0.72647681524E+02  0.00000000000E+00 0.  1.
         11    1    4    4    0    0 -0.32591090733E+02  0.36243768089E+02 -0.43115095972E+02  0.65074583526E+02  0.00000000000E+00 0. -1.
</event>
<event>
 8    1  0.6760442E-009  0.1142817E+03  0.7561462E-02  0.1252840E+00
          2   -1    0    0  501    0  0.00000000000E+00  0.00000000000E+00  0.60642042537E+03  0.60642042537E+03  0.00000000000E+00 0. -1.
         -2   -1    0    0    0  501 -0.00000000000E+00 -0.00000000000E+00 -0.26325320455E+02  0.26325320455E+02  0.00000000000E+00 0.  1.
         25    2    1    2    0    0 -0.52686199793E+02 -0.26967473791E+02  0.26073505494E+03  0.29518274330E+03  0.12508798014E+03 0.  0.
         23    2    1    2    0    0  0.52686199793E+02  0.26967473791E+02  0.31936004998E+03  0.33756300253E+03  0.91950306479E+02 0.  0.
          5    1    3    3  502    0  0.41234668678E+02 -0.11683915086E+02  0.76749047367E+02  0.88003979708E+02  0.41800000000E+01 0. -1.
         -5    1    3    3    0  502 -0.93920868471E+02 -0.15283558704E+02  0.18398600757E+03  0.20717876359E+03  0.41800000000E+01 0. -1.
        -11    1    4    4    0    0 -0.32099291881E+01 -0.18143474903E+02  0.12157266447E+02  0.22074611082E+02  0.00000000000E+00 0.  1.
         11    1    4    4    0    0  0.55896128981E+02  0.45110948694E+02  0.30720278353E+03  0.31548839144E+03  0.00000000000E+00 0. -1.
</event>
<event>
 8    1  0.6760442E-009  0.1267848E+03  0.7561462E-02  0.1232306E+00
         -2   -1    0    0    0  501 -0.00000000000E+00  0.00000000000E+00  0.16715283255E+02  0.16715283255E+02  0.00000000000E+00 0.  1.
          2   -1    0    0  501    0  0.00000000000E+00 -0.00000000000E+00 -0.14818441714E+04  0.14818441714E+04  0.00000000000E+00 0. -1.
         25    2    1    2    0    0  0.82582570907E+02 -0.56669862071E+02 -0.10639373393E+04  0.10759374134E+04  0.12508917316E+03 0.  0.
         23    2    1    2    0    0 -0.82582570907E+02  0.56669862071E+02 -0.40119154885E+03  0.42262204129E+03  0.87311950110E+02 0.  0.
          5    1    3    3  502    0  0.95930151428E+02 -0.39914915013E+02 -0.10321702310E+04  0.10373951284E+04  0.41800000000E+01 0.  1.
         -5    1    3    3    0  502 -0.13347580521E+02 -0.16754947058E+02 -0.31767108350E+02  0.38542284956E+02  0.41800000000E+01 0.  1.
        -11    1    4    4    0    0 -0.61642841812E+02 -0.57577973601E+01 -0.25291953031E+03  0.26038679112E+03  0.00000000000E+00 0.  1.
         11    1    4    4    0    0 -0.20939729095E+02  0.62427659431E+02 -0.14827201854E+03  0.16223525017E+03  0.00000000000E+00 0. -1.
</event>
<event>
 8    1  0.6760442E-009  0.1201954E+03  0.7561462E-02  0.1242775E+00
         -2   -1    0    0    0  501 -0.00000000000E+00  0.00000000000E+00  0.10194125702E+02  0.10194125702E+02  0.00000000000E+00 0.  1.
          2   -1    0    0  501    0  0.00000000000E+00 -0.00000000000E+00 -0.23566697408E+04  0.23566697408E+04  0.00000000000E+00 0. -1.
         25    2    1    2    0    0  0.61606332479E+02  0.14588132552E+02 -0.17559467194E+04  0.17615344805E+04  0.12508673394E+03 0.  0.
         23    2    1    2    0    0 -0.61606332479E+02 -0.14588132552E+02 -0.59052889573E+03  0.60532938597E+03  0.11700912366E+03 0.  0.
          5    1    3    3  502    0 -0.24980051681E+02  0.15629401469E+02 -0.13367651485E+03  0.13694949505E+03  0.41800000000E+01 0. -1.
         -5    1    3    3    0  502  0.86586384161E+02 -0.10412689172E+01 -0.16222702045E+04  0.16245849855E+04  0.41800000000E+01 0. -1.
        -11    1    4    4    0    0  0.11021651824E+02  0.34537561214E+02 -0.87455763010E+02  0.94672226271E+02  0.00000000000E+00 0.  1.
         11    1    4    4    0    0 -0.72627984304E+02 -0.49125693766E+02 -0.50307313272E+03  0.51065715970E+03  0.00000000000E+00 0. -1.
</event>
<event>
 8    1  0.6760442E-009  0.8799010E+02  0.7561462E-02  0.1307793E+00
          1   -1    0    0  501    0  0.00000000000E+00  0.00000000000E+00  0.58753873868E+02  0.58753873868E+02  0.00000000000E+00 0. -1.
         -1   -1    0    0    0  501 -0.00000000000E+00 -0.00000000000E+00 -0.21111832788E+03  0.21111832788E+03  0.00000000000E+00 0.  1.
         25    2    1    2    0    0  0.21729232951E+02 -0.87967167942E+01 -0.10098727924E+03  0.16246607741E+03  0.12508898413E+03 0.  0.
         23    2    1    2    0    0 -0.21729232951E+02  0.87967167942E+01 -0.51377174763E+02  0.10740612433E+03  0.91361478020E+02 0.  0.
          5    1    3    3  502    0 -0.36840598145E+02 -0.13658996731E+02  0.63509246926E+01  0.40020051322E+02  0.41800000000E+01 0. -1.
         -5    1    3    3    0  502  0.58569831096E+02  0.48622799365E+01 -0.10733820394E+03  0.12244602609E+03  0.41800000000E+01 0. -1.
        -11    1    4    4    0    0 -0.47429899471E+02 -0.61335636604E+01 -0.59744099819E+02  0.76528252497E+02  0.00000000000E+00 0.  1.
         11    1    4    4    0    0  0.25700666520E+02  0.14930280455E+02  0.83669250566E+01  0.30877871833E+02  0.00000000000E+00 0. -1.
</event>
<event>
 8    1  0.6760442E-009  0.1141847E+03  0.7561462E-02  0.1253011E+00
          1   -1    0    0  501    0  0.00000000000E+00  0.00000000000E+00  0.59948212523E+03  0.59948212523E+03  0.00000000000E+00 0.  1.
         -1   -1    0    0    0  501 -0.00000000000E+00 -0.00000000000E+00 -0.30123643028E+02  0.30123643028E+02  0.00000000000E+00 0. -1.
         25    2    1    2    0    0 -0.22234167705E+02 -0.71418259502E+02  0.31502135114E+03  0.34710596763E+03  0.12509666299E+03 0.  0.
         23    2    1    2    0    0  0.22234167705E+02  0.71418259502E+02  0.25433713107E+03  0.28249980063E+03  0.97590138387E+02 0.  0.
          5    1    3    3  502    0  0.30334200268E+02 -0.49412059903E+02  0.52147359692E+02  0.78093116807E+02  0.41800000000E+01 0.  1.
         -5    1    3    3    0  502 -0.52568367973E+02 -0.22006199599E+02  0.26287399144E+03  0.26901285083E+03  0.41800000000E+01 0.  1.
        -11    1    4    4    0    0  0.78983492593E+01  0.89597673088E+02  0.23724303908E+03  0.25372108019E+03  0.00000000000E+00 0. -1.
         11    1    4    4    0    0  0.14335818445E+02 -0.18179413586E+02  0.17094091992E+02  0.28778720435E+02  0.00000000000E+00 0.  1.
</event>
<event>
 8    1  0.6760442E-009  0.2833066E+03  0.7561462E-02  0.1093897E+00
         -2   -1    0    0    0  501 -0.00000000000E+00  0.00000000000E+00  0.89980311217E+02  0.89980311217E+02  0.00000000000E+00 0. -1.
          2   -1    0    0  501    0  0.00000000000E+00 -0.00000000000E+00 -0.13381585842E+04  0.13381585842E+04  0.00000000000E+00 0.  1.
         25    2    1    2    0    0 -0.26489169278E+03 -0.84908664473E+02 -0.27095479501E+03  0.40797218145E+03  0.12509080578E+03 0.  0.
         23    2    1    2    0    0  0.26489169278E+03  0.84908664473E+02 -0.97722347800E+03  0.10201667140E+04  0.91636827644E+02 0.  0.
          5    1    3    3  502    0 -0.88639529292E+02 -0.39455136599E+02 -0.17982393206E+03  0.20437170278E+03  0.41800000000E+01 0. -1.
         -5    1    3    3    0  502 -0.17625216349E+03 -0.45453527873E+02 -0.91130862951E+02  0.20360047867E+03  0.41800000000E+01 0. -1.
        -11    1    4    4    0    0  0.12665687574E+03  0.28756968873E+01 -0.33565917141E+03  0.35877195147E+03  0.00000000000E+00 0. -1.
         11    1    4    4    0    0  0.13823481704E+03  0.82032967585E+02 -0.64156430658E+03  0.66139476252E+03  0.00000000000E+00 0.  1.
</event>
<event>
 8    1  0.6760442E-009  0.8228083E+02  0.7561462E-02  0.1322701E+00
          2   -1    0    0  501    0  0.00000000000E+00  0.00000000000E+00  0.13090562957E+03  0.13090562957E+03  0.00000000000E+00 0.  1.
         -2   -1    0    0    0  501 -0.00000000000E+00 -0.00000000000E+00 -0.14488261359E+03  0.14488261359E+03  0.00000000000E+00 0. -1.
         25    2    1    2    0    0 -0.77351207521E+02  0.26374022156E+02  0.13485861759E+02  0.15002561654E+03  0.12508804420E+03 0.  0.
         23    2    1    2    0    0  0.77351207521E+02 -0.26374022156E+02 -0.27462845779E+02  0.12576262663E+03  0.91559991309E+02 0.  0.
          5    1    3    3  502    0 -0.35905035046E+02  0.15017629421E+02  0.69221658873E+02  0.79522394281E+02  0.41800000000E+01 0.  1.
         -5    1    3    3    0  502 -0.41446172476E+02  0.11356392735E+02 -0.55735797114E+02  0.70503222258E+02  0.41800000000E+01 0.  1.
        -11    1    4    4    0    0  0.48300919047E+02 -0.21137359001E+02 -0.61303250249E+02  0.80857004752E+02  0.00000000000E+00 0. -1.
         11    1    4    4    0    0  0.29050288474E+02 -0.52366631546E+01  0.33840404470E+02  0.44905621877E+02  0.00000000000E+00 0.  1.
</event>
<event>
 8    1  0.6760442E-009  0.1058357E+03  0.7561462E-02  0.1268482E+00
         -2   -1    0    0    0  501 -0.00000000000E+00  0.00000000000E+00  0.67642701750E+02  0.67642701750E+02  0.00000000000E+00 0.  1.
          2   -1    0    0  501    0  0.00000000000E+00 -0.00000000000E+00 -0.25664257989E+03  0.25664257989E+03  0.00000000000E+00 0. -1.
         25    2    1    2    0    0 -0.23406127668E+02 -0.63117146042E+02 -0.67590733309E+02  0.15731403527E+03  0.12509027751E+03 0.  0.
         23    2    1    2    0    0  0.23406127668E+02  0.63117146042E+02 -0.12140914483E+03  0.16697124637E+03  0.92777129340E+02 0.  0.
          5    1    3    3  502    0  0.40426376999E+02 -0.31140188671E+02  0.95925488676E+01  0.52091196008E+02  0.41800000000E+01 0. -1.
         -5    1    3    3    0  502 -0.63832504668E+02 -0.31976957371E+02 -0.77183282177E+02  0.10522283926E+03  0.41800000000E+01 0. -1.
        -11    1    4    4    0    0  0.38699487413E+02  0.20748958134E+02 -0.11288930682E+03  0.12112871329E+03  0.00000000000E+00 0. -1.
         11    1    4    4    0    0 -0.15293359745E+02  0.42368187908E+02 -0.85198380078E+01  0.45842533074E+02  0.00000000000E+00 0.  1.
</event>
<event>
 8    1  0.6760442E-009  0.2266326E+03  0.7561462E-02  0.1129033E+00
         -1   -1    0    0    0  501 -0.00000000000E+00  0.00000000000E+00  0.24130079835E+03  0.24130079835E+03  0.00000000000E+00 0.  1.
          1   -1    0    0  501    0  0.00000000000E+00 -0.00000000000E+00 -0.23637013647E+03  0.23637013647E+03  0.00000000000E+00 0. -1.
         25    2    1    2    0    0 -0.19748261965E+03  0.72641057285E+02 -0.27078490750E+02  0.24628635397E+03  0.12509042819E+03 0.  0.
         23    2    1    2    0    0  0.19748261965E+03 -0.72641057285E+02  0.32009152637E+02  0.23138458084E+03  0.90764145635E+02 0.  0.
          5    1    3    3  502    0 -0.48207799259E+02 -0.22447562587E+02 -0.43026405913E+02  0.68531955913E+02  0.41800000000E+01 0. -1.
         -5    1    3    3    0  502 -0.14927482039E+03  0.95088619872E+02  0.15947915163E+02  0.17775439806E+03  0.41800000000E+01 0. -1.
        -11    1    4    4    0    0  0.16179055604E+03 -0.25547798693E+02  0.47032701212E+02  0.17041405172E+03  0.00000000000E+00 0.  1.
         11    1    4    4    0    0  0.35692063612E+02 -0.47093258592E+02 -0.15023548575E+02  0.60970529122E+02  0.00000000000E+00 0. -1.
</event>
<event>
 8    1  0.6760442E-009  0.1084241E+03  0.7561462E-02  0.1263516E+00
         -2   -1    0    0    0  501 -0.00000000000E+00  0.00000000000E+00  0.27715725339E+02  0.27715725339E+02  0.00000000000E+00 0. -1.
          2   -1    0    0  501    0  0.00000000000E+00 -0.00000000000E+00 -0.44515159121E+03  0.44515159121E+03  0.00000000000E+00 0.  1.
         25    2    1    2    0    0 -0.22953522797E+02 -0.14835815655E+02 -0.22995165121E+03  0.26319659008E+03  0.12509083700E+03 0.  0.
         23    2    1    2    0    0  0.22953522797E+02  0.14835815655E+02 -0.18748421466E+03  0.20967072647E+03  0.89802656731E+02 0.  0.
          5    1    3    3  502    0  0.39823826903E+02 -0.39384788902E+02 -0.71273455492E+02  0.90744017124E+02  0.41800000000E+01 0. -1.
         -5    1    3    3    0  502 -0.62777349699E+02  0.24548973246E+02 -0.15867819571E+03  0.17245257295E+03  0.41800000000E+01 0. -1.
        -11    1    4    4    0    0 -0.33237045745E+02 -0.48886661258E+01 -0.80498889114E+02  0.87227698668E+02  0.00000000000E+00 0. -1.
         11    1    4    4    0    0  0.56190568542E+02  0.19724481781E+02 -0.10698532555E+03  0.12244302780E+03  0.00000000000E+00 0.  1.
</event>
<event>
 8    1  0.6760442E-009  0.2483452E+03  0.7561462E-02  0.1114355E+00
          2   -1    0    0  501    0  0.00000000000E+00  0.00000000000E+00  0.17475176757E+04  0.17475176757E+04  0.00000000000E+00 0. -1.
         -2   -1    0    0    0  501 -0.00000000000E+00 -0.00000000000E+00 -0.41829392581E+02  0.41829392581E+02  0.00000000000E+00 0.  1.
         25    2    1    2    0    0  0.22838601934E+03  0.70785412518E+02  0.10978419214E+04  0.11305188414E+04  0.12508084508E+03 0.  0.
         23    2    1    2    0    0 -0.22838601934E+03 -0.70785412518E+02  0.60784636173E+03  0.65882822695E+03  0.86062097888E+02 0.  0.
          5    1    3    3  502    0  0.22472085346E+03  0.55319500674E+02  0.10856622343E+04  0.11100629119E+04  0.41800000000E+01 0.  1.
         -5    1    3    3    0  502  0.36651658790E+01  0.15465911845E+02  0.12179687164E+02  0.20455929447E+02  0.41800000000E+01 0.  1.
        -11    1    4    4    0    0 -0.12036100954E+03 -0.72947963526E+02  0.40877772821E+03  0.43232789533E+03  0.00000000000E+00 0.  1.
         11    1    4    4    0    0 -0.10802500980E+03  0.21625510078E+01  0.19906863352E+03  0.22650033162E+03  0.00000000000E+00 0. -1.
</event>
<event>
 8    1  0.6760442E-009  0.9668007E+02  0.7561462E-02  0.1287436E+00
          2   -1    0    0  501    0  0.00000000000E+00  0.00000000000E+00  0.66772537779E+03  0.66772537779E+03  0.00000000000E+00 0.  1.
         -2   -1    0    0    0  501 -0.00000000000E+00 -0.00000000000E+00 -0.22335120025E+02  0.22335120025E+02  0.00000000000E+00 0. -1.
         25    2    1    2    0    0  0.21265827348E+02  0.23606208315E+02  0.46288083692E+03  0.48053683339E+03  0.12508992993E+03 0.  0.
         23    2    1    2    0    0 -0.21265827348E+02 -0.23606208315E+02  0.18250942084E+03  0.20952366442E+03  0.97882525378E+02 0.  0.
          5    1    3    3  502    0  0.21180650363E+02 -0.31610575027E+02  0.45332357477E+02  0.59332482147E+02  0.41800000000E+01 0.  1.
         -5    1    3    3    0  502  0.85176984980E-01  0.55216783341E+02  0.41754847944E+03  0.42120435124E+03  0.41800000000E+01 0.  1.
        -11    1    4    4    0    0  0.30085812443E+02  0.16713620893E+02  0.39987197914E+02  0.52758669720E+02  0.00000000000E+00 0. -1.
         11    1    4    4    0    0 -0.51351639791E+02 -0.40319829207E+02  0.14252222292E+03  0.15676499470E+03  0.00000000000E+00 0.  1.
</event>
<event>
 8    1  0.6760442E-009  0.1490077E+03  0.7561462E-02  0.1201698E+00
         -2   -1    0    0    0  501 -0.00000000000E+00  0.00000000000E+00  0.47916623100E+02  0.47916623100E+02  0.00000000000E+00 0.  1.
          2   -1    0    0  501    0  0.00000000000E+00 -0.00000000000E+00 -0.71089681840E+03  0.71089681840E+03  0.00000000000E+00 0. -1.
         25    2    1    2    0    0  0.10165932212E+03 -0.41617509830E+02 -0.55606153178E+03  0.58044685687E+03  0.12508993417E+03 0.  0.
         23    2    1    2    0    0 -0.10165932212E+03  0.41617509830E+02 -0.10691866352E+03  0.17836658463E+03  0.91194314537E+02 0.  0.
          5    1    3    3  502    0  0.45787301589E+02 -0.76560488064E+02 -0.41765031522E+03  0.42709161022E+03  0.41800000000E+01 0.  1.
         -5    1    3    3    0  502  0.55872020531E+02  0.34942978233E+02 -0.13841121656E+03  0.15335524665E+03  0.41800000000E+01 0.  1.
        -11    1    4    4    0    0  0.13255010866E+02  0.22601050721E+02 -0.17213443555E+02  0.31349728002E+02  0.00000000000E+00 0.  1.
         11    1    4    4    0    0 -0.11491433299E+03  0.19016459109E+02 -0.89705219965E+02  0.14701685662E+03  0.00000000000E+00 0. -1.
</event>
<event>
 8    1  0.6760442E-009  0.2229843E+03  0.7561462E-02  0.1131678E+00
          2   -1    0    0  501    0  0.00000000000E+00  0.00000000000E+00  0.74020765834E+03  0.74020765834E+03  0.00000000000E+00 0. -1.
         -2   -1    0    0    0  501 -0.00000000000E+00 -0.00000000000E+00 -0.89468764691E+02  0.89468764691E+02  0.00000000000E+00 0.  1.
         25    2    1    2    0    0  0.13751491823E+03 -0.15875588805E+03  0.17458013643E+03  0.30039792704E+03  0.12508759254E+03 0.  0.
         23    2    1    2    0    0 -0.13751491823E+03  0.15875588805E+03  0.47615875723E+03  0.52927849600E+03  0.96409436881E+02 0.  0.
          5    1    3    3  502    0  0.48363187193E+02  0.55689821220E+01  0.72281455728E+02  0.87247307577E+02  0.41800000000E+01 0. -1.
         -5    1    3    3    0  502  0.89151731034E+02 -0.16432487017E+03  0.10229868070E+03  0.21315061946E+03  0.41800000000E+01 0. -1.
        -11    1    4    4    0    0 -0.78252483962E+02  0.86046812819E+02  0.36884514768E+03  0.38674830085E+03  0.00000000000E+00 0.  1.
         11    1    4    4    0    0 -0.59262434265E+02  0.72709075230E+02  0.10731360954E+03  0.14253019515E+03  0.00000000000E+00 0. -1.
</event>
<event>
 8    1  0.6760442E-009  0.6843145E+02  0.7561462E-02  0.1365510E+00
          1   -1    0    0  501    0  0.00000000000E+00  0.00000000000E+00  0.63334247651E+03  0.63334247651E+03  0.00000000000E+00 0. -1.
         -1   -1    0    0    0  501 -0.00000000000E+00 -0.00000000000E+00 -0.18606138172E+02  0.18606138172E+02  0.00000000000E+00 0.  1.
         25    2    1    2    0    0 -0.14669052920E+02 -0.34294171245E+00  0.38279948815E+03  0.40298893183E+03  0.12509729145E+03 0.  0.
         23    2    1    2    0    0  0.14669052920E+02  0.34294171245E+00  0.23193685019E+03  0.24895968285E+03  0.89280022889E+02 0.  0.
          5    1    3    3  502    0 -0.26460468641E+02  0.19057975618E+02  0.18041301870E+02  0.37500984101E+02  0.41800000000E+01 0.  1.
         -5    1    3    3    0  502  0.11791415721E+02 -0.19400917331E+02  0.36475818628E+03  0.36548794773E+03  0.41800000000E+01 0.  1.
        -11    1    4    4    0    0  0.36947762104E+02  0.27293368326E+02  0.73216532162E+02  0.86433359653E+02  0.00000000000E+00 0.  1.
         11    1    4    4    0    0 -0.22278709184E+02 -0.26950426614E+02  0.15872031802E+03  0.16252632319E+03  0.00000000000E+00 0. -1.
</event>
<event>
 8    1  0.6760442E-009  0.7206724E+02  0.7561462E-02  0.1353201E+00
          2   -1    0    0  501    0  0.00000000000E+00  0.00000000000E+00  0.29804179746E+02  0.29804179746E+02  0.00000000000E+00 0. -1.
         -2   -1    0    0    0  501 -0.00000000000E+00 -0.00000000000E+00 -0.49261640007E+03  0.49261640007E+03  0.00000000000E+00 0.  1.
         25    2    1    2    0    0  0.37201744737E+02 -0.18274800736E+02 -0.33134605061E+03  0.35658960655E+03  0.12509198252E+03 0.  0.
         23    2    1    2    0    0 -0.37201744737E+02  0.18274800736E+02 -0.13146616972E+03  0.16583097327E+03  0.92187958878E+02 0.  0.
          5    1    3    3  502    0  0.28371199814E+02 -0.17222528693E+02 -0.34110455142E+03  0.34274090487E+03  0.41800000000E+01 0. -1.
         -5    1    3    3    0  502  0.88305449228E+01 -0.10522720424E+01  0.97585008091E+01  0.13848701677E+02  0.41800000000E+01 0. -1.
        -11    1    4    4    0    0  0.24290910486E+02 -0.17293547534E+02 -0.33986233929E+02  0.45212600182E+02  0.00000000000E+00 0. -1.
         11    1    4    4    0    0 -0.61492655223E+02  0.35568348270E+02 -0.97479935786E+02  0.12061837309E+03  0.00000000000E+00 0.  1.
</event>
<event>
 8    1  0.6760442E-009  0.1134258E+03  0.7561462E-02  0.1254354E+00
         -1   -1    0    0    0  501 -0.00000000000E+00  0.00000000000E+00  0.55497765501E+02  0.55497765501E+02  0.00000000000E+00 0.  1.
          1   -1    0    0  501    0  0.00000000000E+00 -0.00000000000E+00 -0.43737519144E+03  0.43737519144E+03  0.00000000000E+00 0. -1.
         25    2    1    2    0    0 -0.18910318490E+02  0.96397212563E+02 -0.11140904214E+03  0.19419131998E+03  0.12509305077E+03 0.  0.
         23    2    1    2    0    0  0.18910318490E+02 -0.96397212563E+02 -0.27046838380E+03  0.29868163695E+03  0.80047179110E+02 0.  0.
          5    1    3    3  502    0  0.18718545259E+02 -0.30878332228E+01 -0.81272202338E+02  0.83561725231E+02  0.41800000000E+01 0. -1.
         -5    1    3    3    0  502 -0.37628863749E+02  0.99485045785E+02 -0.30136839798E+02  0.11062959475E+03  0.41800000000E+01 0. -1.
        -11    1    4    4    0    0  0.23000898381E+02 -0.58456174404E+02 -0.67705950134E+02  0.92359413899E+02  0.00000000000E+00 0.  1.
         11    1    4    4    0    0 -0.40905798904E+01 -0.37941038158E+02 -0.20276243367E+03  0.20632222305E+03  0.00000000000E+00 0. -1.
</event>
<event>
 8    1  0.6760442E-009  0.9404654E+02  0.7561462E-02  0.1293338E+00
         -1   -1    0    0    0  501 -0.00000000000E+00  0.00000000000E+00  0.47865207247E+02  0.47865207247E+02  0.00000000000E+00 0.  1.
          1   -1    0    0  501    0  0.00000000000E+00 -0.00000000000E+00 -0.31838373475E+03  0.31838373475E+03  0.00000000000E+00 0. -1.
         25    2    1    2    0    0  0.14752925883E+02  0.49583480886E+02 -0.10907911553E+03  0.17384363997E+03  0.12508871778E+03 0.  0.
         23    2    1    2    0    0 -0.14752925883E+02 -0.49583480886E+02 -0.16143941197E+03  0.19240530202E+03  0.90999703902E+02 0.  0.
          5    1    3    3  502    0 -0.24669819835E+02  0.58149725701E+01  0.19566583602E+02  0.32291446399E+02  0.41800000000E+01 0. -1.
         -5    1    3    3    0  502  0.39422745718E+02  0.43768508316E+02 -0.12864569914E+03  0.14155219358E+03  0.41800000000E+01 0. -1.
        -11    1    4    4    0    0  0.21203962168E+02 -0.61831112238E+02 -0.86840198576E+02  0.10869183291E+03  0.00000000000E+00 0.  1.
         11    1    4    4    0    0 -0.35956888051E+02  0.12247631352E+02 -0.74599213397E+02  0.83713469116E+02  0.00000000000E+00 0. -1.
</event>
<event>
 8    1  0.6760442E-009  0.1460419E+03  0.7561462E-02  0.1205423E+00
         -2   -1    0    0    0  501 -0.00000000000E+00  0.00000000000E+00  0.12995482274E+03  0.12995482274E+03  0.00000000000E+00 0. -1.
          2   -1    0    0  501    0  0.00000000000E+00 -0.00000000000E+00 -0.21904989639E+03  0.21904989639E+03  0.00000000000E+00 0.  1.
         25    2    1    2    0    0 -0.11721900132E+03  0.35220209263E+02 -0.86752352403E+02  0.19533479912E+03  0.12509578605E+03 0.  0.
         23    2    1    2    0    0  0.11721900132E+03 -0.35220209263E+02 -0.23427212484E+01  0.15366992002E+03  0.92888096998E+02 0.  0.
          5    1    3    3  502    0 -0.14602586836E+01  0.25377939483E+02 -0.74035889782E+02  0.78389779586E+02  0.41800000000E+01 0.  1.
         -5    1    3    3    0  502 -0.11575874264E+03  0.98422697794E+01 -0.12716462622E+02  0.11694501953E+03  0.41800000000E+01 0.  1.
        -11    1    4    4    0    0  0.77048176388E+02  0.22027720483E+02  0.15208062255E+02  0.81565477452E+02  0.00000000000E+00 0. -1.
         11    1    4    4    0    0  0.40170824934E+02 -0.57247929746E+02 -0.17550783503E+02  0.72104442565E+02  0.00000000000E+00 0.  1.
</event>
<event>
 8    1  0.6760442E-009  0.9355663E+02  0.7561462E-02  0.1294460E+00
         -2   -1    0    0    0  501 -0.00000000000E+00  0.00000000000E+00  0.14231752597E+03  0.14231752597E+03  0.00000000000E+00 0.  1.
          2   -1    0    0  501    0  0.00000000000E+00 -0.00000000000E+00 -0.99334910795E+02  0.99334910795E+02  0.00000000000E+00 0. -1.
         25    2    1    2    0    0  0.12835129850E+02 -0.50127585993E+02  0.61796231476E+01  0.13551074774E+03  0.12508980604E+03 0.  0.
         23    2    1    2    0    0 -0.12835129850E+02  0.50127585993E+02  0.36802992024E+02  0.10614168902E+03  0.85053409638E+02 0.  0.
          5    1    3    3  502    0  0.48896868480E+02 -0.10525921677E+02  0.46436541266E+02  0.68377800046E+02  0.41800000000E+01 0.  1.
         -5    1    3    3    0  502 -0.36061738630E+02 -0.39601664316E+02 -0.40256918119E+02  0.67132947693E+02  0.41800000000E+01 0.  1.
        -11    1    4    4    0    0 -0.38271618190E+02  0.18204771062E+02 -0.10500343595E+02  0.43662199486E+02  0.00000000000E+00 0. -1.
         11    1    4    4    0    0  0.25436488340E+02  0.31922814930E+02  0.47303335620E+02  0.62479489538E+02  0.00000000000E+00 0.  1.
</event>
<event>
 8    1  0.6760442E-009  0.1192516E+03  0.7561462E-02  0.1244337E+00
          2   -1    0    0  501    0  0.00000000000E+00  0.00000000000E+00  0.36513108802E+02  0.36513108802E+02  0.00000000000E+00 0.  1.
         -2   -1    0    0    0  501 -0.00000000000E+00 -0.00000000000E+00 -0.74162092660E+03  0.74162092660E+03  0.00000000000E+00 0. -1.
         25    2    1    2    0    0  0.54659746558E+02 -0.10106225141E+03 -0.48718611181E+03  0.51594514648E+03  0.12509124701E+03 0.  0.
         23    2    1    2    0    0 -0.54659746558E+02  0.10106225141E+03 -0.21792170599E+03  0.26218888893E+03  0.89732251629E+02 0.  0.
          5    1    3    3  502    0  0.82505672623E+01 -0.23227522365E+02 -0.35351493606E+03  0.35439790077E+03  0.41800000000E+01 0.  1.
         -5    1    3    3    0  502  0.46409179295E+02 -0.77834729041E+02 -0.13367117575E+03  0.16154724571E+03  0.41800000000E+01 0.  1.
        -11    1    4    4    0    0 -0.40124391022E+02  0.29603310330E+02 -0.16422924746E+03  0.17163207293E+03  0.00000000000E+00 0. -1.
         11    1    4    4    0    0 -0.14535355535E+02  0.71458941076E+02 -0.53692458528E+02  0.90556815994E+02  0.00000000000E+00 0.  1.
</event>
<event>
 8    1  0.6760442E-009  0.8758941E+02  0.7561462E-02  0.1308797E+00
         -2   -1    0    0    0  501 -0.00000000000E+00  0.00000000000E+00  0.21758330518E+02  0.21758330518E+02  0.00000000000E+00 0. -1.
          2   -1    0    0  501    0  0.00000000000E+00 -0.00000000000E+00 -0.66538624130E+03  0.66538624130E+03  0.00000000000E+00 0.  1.
         25    2    1    2    0    0  0.38754355917E+02 -0.53944719156E+01 -0.46206034922E+03  0.48028977703E+03  0.12508998029E+03 0.  0.
         23    2    1    2    0    0 -0.38754355917E+02  0.53944719156E+01 -0.18156756157E+03  0.20685479480E+03  0.91055621935E+02 0.  0.
          5    1    3    3  502    0  0.36099768200E+02  0.50167023174E+02 -0.34622316375E+03  0.35172130302E+03  0.41800000000E+01 0. -1.
         -5    1    3    3    0  502  0.26545877174E+01 -0.55561495090E+02 -0.11583718546E+03  0.12856847401E+03  0.41800000000E+01 0. -1.
        -11    1    4    4    0    0 -0.26412354953E+02 -0.17330304162E+02 -0.17796264458E+03  0.18074472275E+03  0.00000000000E+00 0.  1.
         11    1    4    4    0    0 -0.12342000964E+02  0.22724776078E+02 -0.36049169877E+01  0.26110072043E+02  0.00000000000E+00 0. -1.
</event>
<event>
 8    1  0.6760442E-009  0.9760316E+02  0.7561462E-02  0.1285418E+00
          4   -1    0    0  501    0  0.00000000000E+00  0.00000000000E+00  0.17477157248E+03  0.17477157248E+03  0.00000000000E+00 0. -1.
         -4   -1    0    0    0  501 -0.00000000000E+00 -0.00000000000E+00 -0.92956821060E+02  0.92956821060E+02  0.00000000000E+00 0.  1.
         25    2    1    2    0    0 -0.10013148475E+02  0.53422566712E+02  0.86875710353E+02  0.16170585080E+03  0.12508860602E+03 0.  0.
         23    2    1    2    0    0  0.10013148475E+02 -0.53422566712E+02 -0.50609589370E+01  0.10602254274E+03  0.90889672060E+02 0.  0.
          5    1    3    3  502    0  0.29794727059E+02  0.32629541260E+02  0.10430103414E+03  0.11335162481E+03  0.41800000000E+01 0.  1.
         -5    1    3    3    0  502 -0.39807875534E+02  0.20793025451E+02 -0.17425323788E+02  0.48354225990E+02  0.41800000000E+01 0.  1.
        -11    1    4    4    0    0  0.45512576315E+02 -0.53471443743E+02 -0.63100646403E+01  0.70501112152E+02  0.00000000000E+00 0.  1.
         11    1    4    4    0    0 -0.35499427840E+02  0.48877031759E-01  0.12491057033E+01  0.35521430588E+02  0.00000000000E+00 0. -1.
</event>
<event>
 8    1  0.6760442E-009  0.9889345E+02  0.7561462E-02  0.1282640E+00
         -3   -1    0    0    0  501 -0.00000000000E+00  0.00000000000E+00  0.37705612454E+03  0.37705612454E+03  0.00000000000E+00 0.  1.
          3   -1    0    0  501    0  0.00000000000E+00 -0.00000000000E+00 -0.36832801531E+02  0.36832801531E+02  0.00000000000E+00 0. -1.
         25    2    1    2    0    0 -0.14214979077E+02 -0.41761491508E+02  0.18934749598E+03  0.23118534250E+03  0.12509236807E+03 0.  0.
         23    2    1    2    0    0  0.14214979077E+02  0.41761491508E+02  0.15087582703E+03  0.18270358357E+03  0.93118185472E+02 0.  0.
          5    1    3    3  502    0 -0.59226398077E+02 -0.19858261953E+00  0.45579372271E+02  0.74851568059E+02  0.41800000000E+01 0. -1.
         -5    1    3    3    0  502  0.45011419000E+02 -0.41562908889E+02  0.14376812371E+03  0.15633377444E+03  0.41800000000E+01 0. -1.
        -11    1    4    4    0    0 -0.25600012793E+01 -0.16335176467E+02 -0.35052971967E+01  0.16902032576E+02  0.00000000000E+00 0.  1.
         11    1    4    4    0    0  0.16774980356E+02  0.58096667975E+02  0.15438112423E+03  0.16580155100E+03  0.00000000000E+00 0. -1.
</event>
<event>
 8    1  0.6760442E-009  0.1328933E+03  0.7561462E-02  0.1223225E+00
         -2   -1    0    0    0  501 -0.00000000000E+00  0.00000000000E+00  0.24927852245E+02  0.24927852245E+02  0.00000000000E+00 0. -1.
          2   -1    0    0  501    0  0.00000000000E+00 -0.00000000000E+00 -0.81115116320E+03  0.81115116320E+03  0.00000000000E+00 0.  1.
         25    2    1    2    0    0  0.65957574517E+02  0.63477778704E+02 -0.45343796202E+03  0.47920080753E+03  0.12509036138E+03 0.  0.
         23    2    1    2    0    0 -0.65957574517E+02 -0.63477778704E+02 -0.33278534893E+03  0.35687820791E+03  0.90753164097E+02 0.  0.
          5    1    3    3  502    0  0.34321673213E+02 -0.33806519993E+02 -0.20220336112E+03  0.20790509781E+03  0.41800000000E+01 0. -1.
         -5    1    3    3    0  502  0.31635901303E+02  0.97284298697E+02 -0.25123460090E+03  0.27129570972E+03  0.41800000000E+01 0. -1.
        -11    1    4    4    0    0 -0.10438836496E+02  0.15390381156E+02 -0.12553875612E+02  0.22437311167E+02  0.00000000000E+00 0. -1.
         11    1    4    4    0    0 -0.55518738020E+02 -0.78868159860E+02 -0.32023147332E+03  0.33444089675E+03  0.00000000000E+00 0.  1.
</event>
<event>
 8    1  0.6760442E-009  0.5336581E+02  0.7561462E-02  0.1427989E+00
          1   -1    0    0  501    0  0.00000000000E+00  0.00000000000E+00  0.41310326096E+02  0.41310326096E+02  0.00000000000E+00 0. -1.
         -1   -1    0    0    0  501 -0.00000000000E+00 -0.00000000000E+00 -0.32637415021E+03  0.32637415021E+03  0.00000000000E+00 0.  1.
         25    2    1    2    0    0 -0.16104194567E+02  0.87757223261E+01 -0.22052258032E+03  0.25419230861E+03  0.12508862034E+03 0.  0.
         23    2    1    2    0    0  0.16104194567E+02 -0.87757223261E+01 -0.64541243787E+02  0.11349216769E+03  0.91534373833E+02 0.  0.
          5    1    3    3  502    0 -0.35861396952E+02  0.11192635282E+02 -0.54851804208E+01  0.38195215409E+02  0.41800000000E+01 0. -1.
         -5    1    3    3    0  502  0.19757202385E+02 -0.24169129560E+01 -0.21503739990E+03  0.21599709320E+03  0.41800000000E+01 0. -1.
        -11    1    4    4    0    0  0.40069087162E+01 -0.26683523584E+02  0.15134675759E+02  0.30937423271E+02  0.00000000000E+00 0. -1.
         11    1    4    4    0    0  0.12097285851E+02  0.17907801258E+02 -0.79675919547E+02  0.82554744422E+02  0.00000000000E+00 0.  1.
</event>
<event>
 8    1  0.6760442E-009  0.1193742E+03  0.7561462E-02  0.1244133E+00
          1   -1    0    0  501    0  0.00000000000E+00  0.00000000000E+00  0.63613404068E+03  0.63613404068E+03  0.00000000000E+00 0. -1.
         -1   -1    0    0    0  501 -0.00000000000E+00 -0.00000000000E+00 -0.30287638740E+02  0.30287638740E+02  0.00000000000E+00 0.  1.
         25    2    1    2    0    0 -0.10218616234E+02 -0.56996581993E+02  0.30917214585E+03  0.33852124319E+03  0.12512468121E+03 0.  0.
         23    2    1    2    0    0  0.10218616234E+02  0.56996581993E+02  0.29667425609E+03  0.32790043623E+03  0.12708285239E+03 0.  0.
          5    1    3    3  502    0 -0.51553747507E+02  0.14376611622E+02  0.97375328131E+02  0.11119308779E+03  0.41800000000E+01 0. -1.
         -5    1    3    3    0  502  0.41335131273E+02 -0.71373193615E+02  0.21179681772E+03  0.22732815540E+03  0.41800000000E+01 0. -1.
        -11    1    4    4    0    0 -0.37004906794E+02  0.17582137776E+02  0.24249405232E+03  0.24593060018E+03  0.00000000000E+00 0. -1.
         11    1    4    4    0    0  0.47223523028E+02  0.39414444218E+02  0.54180203771E+02  0.81969836042E+02  0.00000000000E+00 0.  1.
</event>
<event>
 8    1  0.6760442E-009  0.1348173E+03  0.7561462E-02  0.1220478E+00
          2   -1    0    0  501    0  0.00000000000E+00  0.00000000000E+00  0.57033352965E+03  0.57033352965E+03  0.00000000000E+00 0. -1.
         -2   -1    0    0    0  501 -0.00000000000E+00 -0.00000000000E+00 -0.38338245657E+02  0.38338245657E+02  0.00000000000E+00 0.  1.
         25    2    1    2    0    0  0.25767626414E+02  0.92581850541E+02  0.34764595573E+03  0.38175924446E+03  0.12508813121E+03 0.  0.
         23    2    1    2    0    0 -0.25767626414E+02 -0.92581850541E+02  0.18434932826E+03  0.22691253085E+03  0.90935428776E+02 0.  0.
          5    1    3    3  502    0  0.72208663086E+02  0.77272840579E+02  0.20172347005E+03  0.22780477099E+03  0.41800000000E+01 0.  1.
         -5    1    3    3    0  502 -0.46441036672E+02  0.15309009962E+02  0.14592248569E+03  0.15395447347E+03  0.41800000000E+01 0.  1.
        -11    1    4    4    0    0  0.61000079353E+01 -0.80347879945E+02  0.67299228139E+02  0.10498656112E+03  0.00000000000E+00 0.  1.
         11    1    4    4    0    0 -0.31867634349E+02 -0.12233970596E+02  0.11705010012E+03  0.12192596973E+03  0.00000000000E+00 0. -1.
</event>
<event>
 8    1  0.6760442E-009  0.1339849E+03  0.7561462E-02  0.1221660E+00
         -1   -1    0    0    0  501 -0.00000000000E+00  0.00000000000E+00  0.27672930309E+03  0.27672930309E+03  0.00000000000E+00 0.  1.
          1   -1    0    0  501    0  0.00000000000E+00 -0.00000000000E+00 -0.81664472746E+02  0.81664472746E+02  0.00000000000E+00 0. -1.
         25    2    1    2    0    0  0.70760294488E+02 -0.63545486974E+02  0.56324383197E+02  0.16692802355E+03  0.12508989053E+03 0.  0.
         23    2    1    2    0    0 -0.70760294488E+02  0.63545486974E+02  0.13874044714E+03  0.19146575229E+03  0.91461327531E+02 0.  0.
          5    1    3    3  502    0  0.92399362290E+01  0.37026781406E+02  0.21121871059E+02  0.43817402934E+02  0.41800000000E+01 0.  1.
         -5    1    3    3    0  502  0.61520358259E+02 -0.10057226838E+03  0.35202512138E+02  0.12311062062E+03  0.41800000000E+01 0.  1.
        -11    1    4    4    0    0 -0.97602266615E+01 -0.11379771672E+02  0.73193225506E+02  0.74712846873E+02  0.00000000000E+00 0.  1.
         11    1    4    4    0    0 -0.61000067826E+02  0.74925258645E+02  0.65547221638E+02  0.11675290541E+03  0.00000000000E+00 0. -1.
</event>
<event>
 8    1  0.6760442E-009  0.3446807E+03  0.7561462E-02  0.1064820E+00
          3   -1    0    0  501    0  0.00000000000E+00  0.00000000000E+00  0.90197161541E+02  0.90197161541E+02  0.00000000000E+00 0. -1.
         -3   -1    0    0    0  501 -0.00000000000E+00 -0.00000000000E+00 -0.13894951549E+04  0.13894951549E+04  0.00000000000E+00 0.  1.
         25    2    1    2    0    0  0.23333874405E+02  0.33275274267E+03 -0.56164280871E+03  0.66509841184E+03  0.12507755754E+03 0.  0.
         23    2    1    2    0    0 -0.23333874405E+02 -0.33275274267E+03 -0.73765518469E+03  0.81459390465E+03  0.90328293115E+02 0.  0.
          5    1    3    3  502    0 -0.44256008780E+02  0.21813078977E+03 -0.36835554095E+03  0.43039855100E+03  0.41800000000E+01 0.  1.
         -5    1    3    3    0  502  0.67589883185E+02  0.11462195291E+03 -0.19328726777E+03  0.23469986084E+03  0.41800000000E+01 0.  1.
        -11    1    4    4    0    0 -0.37144162059E+01 -0.87698232718E+02 -0.30047094315E+03  0.31302965449E+03  0.00000000000E+00 0. -1.
         11    1    4    4    0    0 -0.19619458199E+02 -0.24505450995E+03 -0.43718424154E+03  0.50156425016E+03  0.00000000000E+00 0.  1.
</event>
<event>
 8    1  0.6760442E-009  0.1444498E+03  0.7561462E-02  0.1207464E+00
         -1   -1    0    0    0  501 -0.00000000000E+00  0.00000000000E+00  0.83132110299E+02  0.83132110299E+02  0.00000000000E+00 0.  1.
          1   -1    0    0  501    0  0.00000000000E+00 -0.00000000000E+00 -0.38271184083E+03  0.38271184083E+03  0.00000000000E+00 0. -1.
         25    2    1    2    0    0  0.10672867303E+03  0.74944004907E+02 -0.88004301016E+02  0.20099767317E+03  0.12509074348E+03 0.  0.
         23    2    1    2    0    0 -0.10672867303E+03 -0.74944004907E+02 -0.21157542951E+03  0.26484627795E+03  0.91497404628E+02 0.  0.
          5    1    3    3  502    0  0.82923444307E+02  0.68223489843E+02  0.20829022870E+01  0.10748280357E+03  0.41800000000E+01 0. -1.
         -5    1    3    3    0  502  0.23805228725E+02  0.67205150639E+01 -0.90087203303E+02  0.93514869600E+02  0.41800000000E+01 0. -1.
        -11    1    4    4    0    0 -0.12021790279E+03 -0.54827836924E+02 -0.19480067228E+03  0.23538423434E+03  0.00000000000E+00 0.  1.
         11    1    4    4    0    0  0.13489229760E+02 -0.20116167984E+02 -0.16774757232E+02  0.29462043616E+02  0.00000000000E+00 0. -1.
</event>
<event>
 8    1  0.6760442E-009  0.9590244E+02  0.7561462E-02  0.1289156E+00
         -2   -1    0    0    0  501 -0.00000000000E+00  0.00000000000E+00  0.75584364622E+02  0.75584364622E+02  0.00000000000E+00 0.  1.
          2   -1    0    0  501    0  0.00000000000E+00 -0.00000000000E+00 -0.17724083036E+03  0.17724083036E+03  0.00000000000E+00 0. -1.
         25    2    1    2    0    0 -0.13645112675E+02 -0.25491403315E+02 -0.83478201030E+02  0.15312565730E+03  0.12507140414E+03 0.  0.
         23    2    1    2    0    0  0.13645112675E+02  0.25491403315E+02 -0.18178264704E+02  0.99699537675E+02  0.93667218183E+02 0.  0.
          5    1    3    3  502    0  0.19866531751E+02  0.25794318806E+02 -0.85604897406E+02  0.91682587368E+02  0.41800000000E+01 0. -1.
         -5    1    3    3    0  502 -0.33511644425E+02 -0.51285722121E+02  0.21266963769E+01  0.61443069935E+02  0.41800000000E+01 0. -1.
        -11    1    4    4    0    0  0.36553079161E+02 -0.23524356973E+02 -0.12876333519E+02  0.45335669533E+02  0.00000000000E+00 0.  1.
         11    1    4    4    0    0 -0.22907966486E+02  0.49015760287E+02 -0.53019311855E+01  0.54363868142E+02  0.00000000000E+00 0. -1.
</event>
<event>
 8    1  0.6760442E-009  0.4126986E+03  0.7561462E-02  0.1039469E+00
          2   -1    0    0  501    0  0.00000000000E+00  0.00000000000E+00  0.16061270911E+04  0.16061270911E+04  0.00000000000E+00 0. -1.
         -2   -1    0    0    0  501 -0.00000000000E+00 -0.00000000000E+00 -0.11961418925E+03  0.11961418925E+03  0.00000000000E+00 0.  1.
         25    2    1    2    0    0  0.32990151336E+03 -0.23168330971E+03  0.48823795424E+03  0.64539575015E+03  0.12508880781E+03 0.  0.
         23    2    1    2    0    0 -0.32990151336E+03  0.23168330971E+03  0.99827494760E+03  0.10803455302E+04  0.89896769005E+02 0.  0.
          5    1    3    3  502    0  0.33755801004E+03 -0.21130376803E+03  0.44780194276E+03  0.59928185762E+03  0.41800000000E+01 0. -1.
         -5    1    3    3    0  502 -0.76564966815E+01 -0.20379541681E+02  0.40436011479E+02  0.46113892536E+02  0.41800000000E+01 0. -1.
        -11    1    4    4    0    0 -0.11839668336E+03  0.10615206010E+03  0.29230145108E+03  0.33275542489E+03  0.00000000000E+00 0. -1.
         11    1    4    4    0    0 -0.21150483000E+03  0.12553124961E+03  0.70597349652E+03  0.74759010530E+03  0.00000000000E+00 0.  1.
</event>
<event>
 8    1  0.6760442E-009  0.1613119E+03  0.7561462E-02  0.1187224E+00
          1   -1    0    0  501    0  0.00000000000E+00  0.00000000000E+00  0.51468394891E+03  0.51468394891E+03  0.00000000000E+00 0. -1.
         -1   -1    0    0    0  501 -0.00000000000E+00 -0.00000000000E+00 -0.77015857276E+02  0.77015857276E+02  0.00000000000E+00 0.  1.
         25    2    1    2    0    0 -0.12235597892E+03  0.44447610662E+02  0.39701239514E+03  0.43613346891E+03  0.12508790965E+03 0.  0.
         23    2    1    2    0    0  0.12235597892E+03 -0.44447610662E+02  0.40655696488E+02  0.15556633727E+03  0.74842661391E+02 0.  0.
          5    1    3    3  502    0  0.14143527942E+02  0.39424146735E+02  0.12164362027E+03  0.12872041594E+03  0.41800000000E+01 0. -1.
         -5    1    3    3    0  502 -0.13649950686E+03  0.50234639271E+01  0.27536877487E+03  0.30741305297E+03  0.41800000000E+01 0. -1.
        -11    1    4    4    0    0  0.59982314093E+02 -0.54080418241E+02  0.44729819470E+02  0.92321863017E+02  0.00000000000E+00 0. -1.
         11    1    4    4    0    0  0.62373664822E+02  0.96328075787E+01 -0.40741229818E+01  0.63244474251E+02  0.00000000000E+00 0.  1.
</event>
<event>
 8    1  0.6760442E-009  0.1408221E+03  0.7561462E-02  0.1212227E+00
          1   -1    0    0  501    0  0.00000000000E+00  0.00000000000E+00  0.14401050271E+03  0.14401050271E+03  0.00000000000E+00 0. -1.
         -1   -1    0    0    0  501 -0.00000000000E+00 -0.00000000000E+00 -0.16046042802E+03  0.16046042802E+03  0.00000000000E+00 0.  1.
         25    2    1    2    0    0  0.60318784734E+02 -0.74144242363E+02  0.35790966983E+02  0.16144229347E+03  0.12508755468E+03 0.  0.
         23    2    1    2    0    0 -0.60318784734E+02  0.74144242363E+02 -0.52240892293E+02  0.14302863725E+03  0.92694960918E+02 0.  0.
          5    1    3    3  502    0  0.51535111441E+02 -0.10929903799E+03  0.28979184987E+02  0.12433588774E+03  0.41800000000E+01 0.  1.
         -5    1    3    3    0  502  0.87836732934E+01  0.35154795630E+02  0.68117819962E+01  0.37106405731E+02  0.41800000000E+01 0.  1.
        -11    1    4    4    0    0 -0.66131777046E+02  0.19000063103E+02 -0.30021377904E+01  0.68872542893E+02  0.00000000000E+00 0. -1.
         11    1    4    4    0    0  0.58129923116E+01  0.55144179260E+02 -0.49238754503E+02  0.74156094361E+02  0.00000000000E+00 0.  1.
</event>
<event>
 8    1  0.6760442E-009  0.1583899E+03  0.7561462E-02  0.1190527E+00
         -2   -1    0    0    0  501 -0.00000000000E+00  0.00000000000E+00  0.42671433563E+02  0.42671433563E+02  0.00000000000E+00 0. -1.
          2   -1    0    0  501    0  0.00000000000E+00 -0.00000000000E+00 -0.83333508962E+03  0.83333508962E+03  0.00000000000E+00 0.  1.
         25    2    1    2    0    0  0.13460801232E+03 -0.44447595666E+02 -0.27719465931E+03  0.33552719326E+03  0.12508681996E+03 0.  0.
         23    2    1    2    0    0 -0.13460801232E+03  0.44447595666E+02 -0.51346899674E+03  0.54047932992E+03  0.91501856308E+02 0.  0.
          5    1    3    3  502    0  0.10912087888E+03  0.13463655923E+02 -0.23465541790E+03  0.25917035669E+03  0.41800000000E+01 0. -1.
         -5    1    3    3    0  502  0.25487133441E+02 -0.57911251590E+02 -0.42539241411E+02  0.76356836574E+02  0.41800000000E+01 0. -1.
        -11    1    4    4    0    0 -0.66487890314E+02  0.33143081240E+02 -0.40598245008E+03  0.41272370076E+03  0.00000000000E+00 0.  1.
         11    1    4    4    0    0 -0.68120122004E+02  0.11304514426E+02 -0.10748654666E+03  0.12775562916E+03  0.00000000000E+00 0. -1.
</event>
<event>
 8    1  0.6760442E-009  0.6986489E+02  0.7561462E-02  0.1360553E+00
          1   -1    0    0  501    0  0.00000000000E+00  0.00000000000E+00  0.34439827243E+03  0.34439827243E+03  0.00000000000E+00 0. -1.
         -1   -1    0    0    0  501 -0.00000000000E+00 -0.00000000000E+00 -0.35577189604E+02  0.35577189604E+02  0.00000000000E+00 0.  1.
         25    2    1    2    0    0 -0.64016149874E+01  0.24862660291E+02  0.18642195767E+03  0.22597544217E+03  0.12511043766E+03 0.  0.
         23    2    1    2    0    0  0.64016149874E+01 -0.24862660291E+02  0.12239912515E+03  0.15400001986E+03  0.89862827288E+02 0.  0.
          5    1    3    3  502    0 -0.35408743741E+01 -0.29004842342E+02  0.16526581889E+03  0.16788115429E+03  0.41800000000E+01 0. -1.
         -5    1    3    3    0  502 -0.28607406133E+01  0.53867502633E+02  0.21156138779E+02  0.58094287884E+02  0.41800000000E+01 0. -1.
        -11    1    4    4    0    0 -0.25843385271E+00  0.15347178170E+02 -0.80498228748E+01  0.17332117994E+02  0.00000000000E+00 0.  1.
         11    1    4    4    0    0  0.66600488401E+01 -0.40209838461E+02  0.13044894803E+03  0.13666790187E+03  0.00000000000E+00 0. -1.
</event>
<event>
 8    1  0.6760442E-009  0.1066516E+03  0.7561462E-02  0.1266899E+00
         -2   -1    0    0    0  501 -0.00000000000E+00  0.00000000000E+00  0.46690447796E+02  0.46690447796E+02  0.00000000000E+00 0.  1.
          2   -1    0    0  501    0  0.00000000000E+00 -0.00000000000E+00 -0.32802905184E+03  0.32802905184E+03  0.00000000000E+00 0. -1.
         25    2    1    2    0    0 -0.28754790337E+01  0.50737823720E+02 -0.19110179134E+03  0.23400357366E+03  0.12512067254E+03 0.  0.
         23    2    1    2    0    0  0.28754790337E+01 -0.50737823720E+02 -0.90236812701E+02  0.14071592597E+03  0.95266438584E+02 0.  0.
          5    1    3    3  502    0 -0.58102109152E+02  0.10611622129E+02 -0.51193170395E+02  0.78273077793E+02  0.41800000000E+01 0.  1.
         -5    1    3    3    0  502  0.55226630119E+02  0.40126201591E+02 -0.13990862095E+03  0.15573049587E+03  0.41800000000E+01 0.  1.
        -11    1    4    4    0    0  0.23567910387E+01 -0.68194496466E+02 -0.24185276403E+02  0.72394553710E+02  0.00000000000E+00 0.  1.
         11    1    4    4    0    0  0.51868799497E+00  0.17456672746E+02 -0.66051536297E+02  0.68321372262E+02  0.00000000000E+00 0. -1.
</event>
<event>
 8    1  0.6760442E-009  0.1552426E+03  0.7561462E-02  0.1194175E+00
          1   -1    0    0  501    0  0.00000000000E+00  0.00000000000E+00  0.16135345381E+04  0.16135345381E+04  0.00000000000E+00 0. -1.
         -1   -1    0    0    0  501 -0.00000000000E+00 -0.00000000000E+00 -0.21210464324E+02  0.21210464324E+02  0.00000000000E+00 0.  1.
         25    2    1    2    0    0  0.32840980191E+02  0.12869993949E+03  0.11378350838E+04  0.11523693178E+04  0.12507662572E+03 0.  0.
         23    2    1    2    0    0 -0.32840980191E+02 -0.12869993949E+03  0.45448898995E+03  0.48237568459E+03  0.92107842728E+02 0.  0.
          5    1    3    3  502    0  0.73287297990E+02  0.75339207318E+02  0.86660529239E+03  0.87296576646E+03  0.41800000000E+01 0. -1.
         -5    1    3    3    0  502 -0.40446317799E+02  0.53360732172E+02  0.27122979144E+03  0.27940355139E+03  0.41800000000E+01 0. -1.
        -11    1    4    4    0    0  0.25206687978E+01 -0.67358440670E+02  0.34819023630E+03  0.35465469679E+03  0.00000000000E+00 0. -1.
         11    1    4    4    0    0 -0.35361648989E+02 -0.61341498820E+02  0.10629875365E+03  0.12772098780E+03  0.00000000000E+00 0.  1.
</event>
<event>
 8    1  0.6760442E-009  0.1001134E+03  0.7561462E-02  0.1280058E+00
         -2   -1    0    0    0  501 -0.00000000000E+00  0.00000000000E+00  0.31998721462E+02  0.31998721462E+02  0.00000000000E+00 0. -1.
          2   -1    0    0  501    0  0.00000000000E+00 -0.00000000000E+00 -0.68214257527E+03  0.68214257527E+03  0.00000000000E+00 0.  1.
         25    2    1    2    0    0  0.71999330176E+01  0.96489480474E+02 -0.46738634172E+03  0.49341401463E+03  0.12508132769E+03 0.  0.
         23    2    1    2    0    0 -0.71999330176E+01 -0.96489480474E+02 -0.18275751210E+03  0.22072728210E+03  0.77189157002E+02 0.  0.
          5    1    3    3  502    0 -0.38502651535E+01  0.17871726724E+01 -0.30500947567E+03  0.30506765016E+03  0.41800000000E+01 0.  1.
         -5    1    3    3    0  502  0.11050198171E+02  0.94702307801E+02 -0.16237686604E+03  0.18834636447E+03  0.41800000000E+01 0.  1.
        -11    1    4    4    0    0  0.67248359426E+01 -0.20402268851E+02 -0.11773083028E+03  0.11967466060E+03  0.00000000000E+00 0.  1.
         11    1    4    4    0    0 -0.13924768960E+02 -0.76087211623E+02 -0.65026681818E+02  0.10105262150E+03  0.00000000000E+00 0. -1.
</event>
<event>
 8    1  0.6760442E-009  0.1735119E+03  0.7561462E-02  0.1174234E+00
         -1   -1    0    0    0  501 -0.00000000000E+00  0.00000000000E+00  0.30498070355E+03  0.30498070355E+03  0.00000000000E+00 0.  1.
          1   -1    0    0  501    0  0.00000000000E+00 -0.00000000000E+00 -0.12097385438E+03  0.12097385438E+03  0.00000000000E+00 0. -1.
         25    2    1    2    0    0 -0.32053733487E+02  0.15357486924E+03  0.77855773347E+02  0.21522378580E+03  0.12508826578E+03 0.  0.
         23    2    1    2    0    0  0.32053733487E+02 -0.15357486924E+03  0.10615107582E+03  0.21073077214E+03  0.92340268215E+02 0.  0.
          5    1    3    3  502    0 -0.59198037823E+02  0.36159714969E+02  0.62868519436E+02  0.93711556410E+02  0.41800000000E+01 0.  1.
         -5    1    3    3    0  502  0.27144304336E+02  0.11741515427E+03  0.14987253911E+02  0.12151222939E+03  0.41800000000E+01 0.  1.
        -11    1    4    4    0    0  0.32194872061E+01 -0.23039007239E+02  0.67764197904E+02  0.71645987117E+02  0.00000000000E+00 0.  1.
         11    1    4    4    0    0  0.28834246281E+02 -0.13053586200E+03  0.38386877916E+02  0.13908478502E+03  0.00000000000E+00 0. -1.
</event>
<event>
 8    1  0.6760442E-009  0.1148835E+03  0.7561462E-02  0.1251785E+00
         -1   -1    0    0    0  501 -0.00000000000E+00  0.00000000000E+00  0.53130637729E+02  0.53130637729E+02  0.00000000000E+00 0.  1.
          1   -1    0    0  501    0  0.00000000000E+00 -0.00000000000E+00 -0.33367122984E+03  0.33367122984E+03  0.00000000000E+00 0. -1.
         25    2    1    2    0    0  0.77282816044E+01  0.70094478066E+02 -0.11085824526E+03  0.18141144179E+03  0.12509036125E+03 0.  0.
         23    2    1    2    0    0 -0.77282816044E+01 -0.70094478066E+02 -0.16968234685E+03  0.20539042578E+03  0.91761462379E+02 0.  0.
          5    1    3    3  502    0 -0.28952008258E+02 -0.22513411563E+02 -0.57517865710E+02  0.68343615344E+02  0.41800000000E+01 0.  1.
         -5    1    3    3    0  502  0.36680289863E+02  0.92607889629E+02 -0.53340379548E+02  0.11306782644E+03  0.41800000000E+01 0.  1.
        -11    1    4    4    0    0  0.16420680793E+02 -0.66797275246E+02 -0.54786561879E+02  0.87937944600E+02  0.00000000000E+00 0.  1.
         11    1    4    4    0    0 -0.24148962397E+02 -0.32972028197E+01 -0.11489578497E+03  0.11745248118E+03  0.00000000000E+00 0. -1.
</event>
<event>
 8    1  0.6760442E-009  0.6569912E+02  0.7561462E-02  0.1375361E+00
         -2   -1    0    0    0  501 -0.00000000000E+00  0.00000000000E+00  0.12058965670E+03  0.12058965670E+03  0.00000000000E+00 0.  1.
          2   -1    0    0  501    0  0.00000000000E+00 -0.00000000000E+00 -0.10700611826E+03  0.10700611826E+03  0.00000000000E+00 0. -1.
         25    2    1    2    0    0  0.31363587575E+02  0.35485674191E+01 -0.46931047386E+01  0.12909698115E+03  0.12509092035E+03 0.  0.
         23    2    1    2    0    0 -0.31363587575E+02 -0.35485674191E+01  0.18276643179E+02  0.98498793803E+02  0.91497047704E+02 0.  0.
          5    1    3    3  502    0  0.81165474292E+01  0.99083229311E+01  0.59183100143E+02  0.60697322413E+02  0.41800000000E+01 0.  1.
         -5    1    3    3    0  502  0.23247040146E+02 -0.63597555120E+01 -0.63876204882E+02  0.68399658741E+02  0.41800000000E+01 0.  1.
        -11    1    4    4    0    0 -0.62299651692E+02 -0.49520272521E+01 -0.85713142743E-01  0.62496212058E+02  0.00000000000E+00 0. -1.
         11    1    4    4    0    0  0.30936064118E+02  0.14034598330E+01  0.18362356322E+02  0.36002581745E+02  0.00000000000E+00 0.  1.
</event>
<event>
 8    1  0.6760442E-009  0.8840046E+02  0.7561462E-02  0.1306772E+00
          1   -1    0    0  501    0  0.00000000000E+00  0.00000000000E+00  0.31580487117E+02  0.31580487117E+02  0.00000000000E+00 0. -1.
         -1   -1    0    0    0  501 -0.00000000000E+00 -0.00000000000E+00 -0.39939659271E+03  0.39939659271E+03  0.00000000000E+00 0.  1.
         25    2    1    2    0    0 -0.26273383085E+02  0.81264938821E+01 -0.18160618939E+03  0.22222354668E+03  0.12508463580E+03 0.  0.
         23    2    1    2    0    0  0.26273383085E+02 -0.81264938821E+01 -0.18620991620E+03  0.20875353314E+03  0.90263913868E+02 0.  0.
          5    1    3    3  502    0  0.12210843816E+00 -0.51730403151E+02 -0.12597728435E+03  0.13624902969E+03  0.41800000000E+01 0.  1.
         -5    1    3    3    0  502 -0.26395491523E+02  0.59856897033E+02 -0.55628905044E+02  0.85974516989E+02  0.41800000000E+01 0.  1.
        -11    1    4    4    0    0 -0.31307594220E+01 -0.25169618882E+02 -0.69475938348E+01  0.26297916824E+02  0.00000000000E+00 0. -1.
         11    1    4    4    0    0  0.29404142507E+02  0.17043125000E+02 -0.17926232236E+03  0.18245561632E+03  0.00000000000E+00 0.  1.
</event>
<event>
 8    1  0.6760442E-009  0.1205359E+03  0.7561462E-02  0.1242216E+00
          1   -1    0    0  501    0  0.00000000000E+00  0.00000000000E+00  0.69025398954E+03  0.69025398954E+03  0.00000000000E+00 0. -1.
         -1   -1    0    0    0  501 -0.00000000000E+00 -0.00000000000E+00 -0.46525111090E+02  0.46525111090E+02  0.00000000000E+00 0.  1.
         25    2    1    2    0    0 -0.23021883749E+02  0.85601678294E+02  0.57697483662E+03  0.59699712868E+03  0.12509178671E+03 0.  0.
         23    2    1    2    0    0  0.23021883749E+02 -0.85601678294E+02  0.66754041831E+02  0.13978197195E+03  0.85001430125E+02 0.  0.
          5    1    3    3  502    0 -0.34383767050E+02 -0.11086731496E+02  0.54545562448E+02  0.65557988335E+02  0.41800000000E+01 0.  1.
         -5    1    3    3    0  502  0.11361883301E+02  0.96688409790E+02  0.52242927417E+03  0.53143914034E+03  0.41800000000E+01 0.  1.
        -11    1    4    4    0    0 -0.16339700575E+02 -0.55077419521E+02  0.12150007468E+01  0.57462893965E+02  0.00000000000E+00 0.  1.
         11    1    4    4    0    0  0.39361584324E+02 -0.30524258773E+02  0.65539041084E+02  0.82319077985E+02  0.00000000000E+00 0. -1.
</event>
<event>
 8    1  0.6760442E-009  0.1231145E+03  0.7561462E-02  0.1238046E+00
         -1   -1    0    0    0  501 -0.00000000000E+00  0.00000000000E+00  0.73423798260E+02  0.73423798260E+02  0.00000000000E+00 0.  1.
          1   -1    0    0  501    0  0.00000000000E+00 -0.00000000000E+00 -0.25816783049E+03  0.25816783049E+03  0.00000000000E+00 0. -1.
         25    2    1    2    0    0  0.83325333919E+02 -0.14191474423E+02 -0.10673689906E+03  0.18489117075E+03  0.12508984844E+03 0.  0.
         23    2    1    2    0    0 -0.83325333919E+02  0.14191474423E+02 -0.78007133173E+02  0.14670045800E+03  0.91057137733E+02 0.  0.
          5    1    3    3  502    0 -0.94246366997E+01  0.31208340294E+02 -0.66135384009E+02  0.73852188179E+02  0.41800000000E+01 0. -1.
         -5    1    3    3    0  502  0.92749970619E+02 -0.45399814716E+02 -0.40601515046E+02  0.11103898257E+03  0.41800000000E+01 0. -1.
        -11    1    4    4    0    0 -0.59743075884E+02  0.42388671708E+02 -0.16566303827E+02  0.75103109309E+02  0.00000000000E+00 0.  1.
         11    1    4    4    0    0 -0.23582258035E+02 -0.28197197286E+02 -0.61440829346E+02  0.71597348690E+02  0.00000000000E+00 0. -1.
</event>
<event>
 8    1  0.6760442E-009  0.3998543E+03  0.7561462E-02  0.1043830E+00
          2   -1    0    0  501    0  0.00000000000E+00  0.00000000000E+00  0.28354463443E+04  0.28354463443E+04  0.00000000000E+00 0.  1.
         -2   -1    0    0    0  501 -0.00000000000E+00 -0.00000000000E+00 -0.62234211642E+02  0.62234211642E+02  0.00000000000E+00 0. -1.
         25    2    1    2    0    0 -0.38918187655E+03 -0.37043006713E+02  0.10295471413E+04  0.11083543957E+04  0.12508969932E+03 0.  0.
         23    2    1    2    0    0  0.38918187655E+03  0.37043006713E+02  0.17436649913E+04  0.17893261602E+04  0.92118338850E+02 0.  0.
          5    1    3    3  502    0 -0.31729422199E+03  0.14178243608E+02  0.86675537656E+03  0.92312458590E+03  0.41800000000E+01 0.  1.
         -5    1    3    3    0  502 -0.71887654559E+02 -0.51221250321E+02  0.16279176477E+03  0.18522980980E+03  0.41800000000E+01 0.  1.
        -11    1    4    4    0    0  0.19624717540E+03 -0.46998077739E+01  0.69243379448E+03  0.71972189197E+03  0.00000000000E+00 0. -1.
         11    1    4    4    0    0  0.19293470114E+03  0.41742814487E+02  0.10512311968E+04  0.10696042682E+04  0.00000000000E+00 0.  1.
</event>
<event>
 8    1  0.6760442E-009  0.1398471E+03  0.7561462E-02  0.1213535E+00
          2   -1    0    0  501    0  0.00000000000E+00  0.00000000000E+00  0.19038654792E+03  0.19038654792E+03  0.00000000000E+00 0. -1.
         -2   -1    0    0    0  501 -0.00000000000E+00 -0.00000000000E+00 -0.26307542083E+03  0.26307542083E+03  0.00000000000E+00 0.  1.
         25    2    1    2    0    0  0.10184091045E+03 -0.36724493883E+02  0.12816984393E+03  0.20927289916E+03  0.12508947973E+03 0.  0.
         23    2    1    2    0    0 -0.10184091045E+03  0.36724493883E+02 -0.20085871683E+03  0.24418906959E+03  0.86970213786E+02 0.  0.
          5    1    3    3  502    0  0.44824496188E+02  0.37672905404E+02  0.91130076524E+02  0.10840039902E+03  0.41800000000E+01 0. -1.
         -5    1    3    3    0  502  0.57016414261E+02 -0.74397399287E+02  0.37039767401E+02  0.10087250014E+03  0.41800000000E+01 0. -1.
        -11    1    4    4    0    0 -0.24680446006E+02 -0.19697662061E+02 -0.10156894886E+03  0.10636434401E+03  0.00000000000E+00 0.  1.
         11    1    4    4    0    0 -0.77160464444E+02  0.56422155944E+02 -0.99289767976E+02  0.13782472557E+03  0.00000000000E+00 0. -1.
</event>
<event>
 8    1  0.6760442E-009  0.1074155E+03  0.7561462E-02  0.1265432E+00
          3   -1    0    0  501    0  0.00000000000E+00  0.00000000000E+00  0.12856097520E+02  0.12856097520E+02  0.00000000000E+00 0. -1.
         -3   -1    0    0    0  501 -0.00000000000E+00 -0.00000000000E+00 -0.95571155390E+03  0.95571155390E+03  0.00000000000E+00 0.  1.
         25    2    1    2    0    0  0.97489095878E+01 -0.10172035040E+02 -0.51250002630E+03  0.52773323820E+03  0.12509029623E+03 0.  0.
         23    2    1    2    0    0 -0.97489095878E+01  0.10172035040E+02 -0.43035543008E+03  0.44083441322E+03  0.94502233535E+02 0.  0.
          5    1    3    3  502    0 -0.22427447790E+02  0.49069554189E+02 -0.16244358553E+03  0.17121974899E+03  0.41800000000E+01 0.  1.
         -5    1    3    3    0  502  0.32176357378E+02 -0.59241589229E+02 -0.35005644077E+03  0.35651348922E+03  0.41800000000E+01 0.  1.
        -11    1    4    4    0    0  0.13767231488E+02 -0.37537177958E+02 -0.23453779588E+03  0.23792131911E+03  0.00000000000E+00 0.  1.
         11    1    4    4    0    0 -0.23516141076E+02  0.47709212998E+02 -0.19581763420E+03  0.20291309411E+03  0.00000000000E+00 0. -1.
</event>
<event>
 8    1  0.6760442E-009  0.1067496E+03  0.7561462E-02  0.1266710E+00
          2   -1    0    0  501    0  0.00000000000E+00  0.00000000000E+00  0.71353147851E+02  0.71353147851E+02  0.00000000000E+00 0. -1.
         -2   -1    0    0    0  501 -0.00000000000E+00 -0.00000000000E+00 -0.20675445694E+03  0.20675445694E+03  0.00000000000E+00 0.  1.
         25    2    1    2    0    0 -0.22718973393E+02  0.12415711770E+02 -0.25207036591E+02  0.13020296273E+03  0.12508842936E+03 0.  0.
         23    2    1    2    0    0  0.22718973393E+02 -0.12415711770E+02 -0.11019427250E+03  0.14790464206E+03  0.95198234230E+02 0.  0.
          5    1    3    3  502    0 -0.10594547361E+02  0.62367012061E+02 -0.41904653561E+02  0.75995796050E+02  0.41800000000E+01 0.  1.
         -5    1    3    3    0  502 -0.12124426033E+02 -0.49951300290E+02  0.16697616970E+02  0.54207166683E+02  0.41800000000E+01 0.  1.
        -11    1    4    4    0    0  0.53520055083E+02  0.16781285958E+02 -0.59002245284E+02  0.81408063501E+02  0.00000000000E+00 0.  1.
         11    1    4    4    0    0 -0.30801081690E+02 -0.29196997728E+02 -0.51192027214E+02  0.66496578558E+02  0.00000000000E+00 0. -1.
</event>
<event>
 8    1  0.6760442E-009  0.9391137E+02  0.7561462E-02  0.1293647E+00
         -1   -1    0    0    0  501 -0.00000000000E+00  0.00000000000E+00  0.16126115904E+02  0.16126115904E+02  0.00000000000E+00 0.  1.
          1   -1    0    0  501    0  0.00000000000E+00 -0.00000000000E+00 -0.76007028121E+03  0.76007028121E+03  0.00000000000E+00 0. -1.
         25    2    1    2    0    0  0.17432993933E+01 -0.20201474293E+02 -0.46663317503E+03  0.48353387930E+03  0.12508938299E+03 0.  0.
         23    2    1    2    0    0 -0.17432993933E+01  0.20201474293E+02 -0.27731099027E+03  0.29266251781E+03  0.91317168973E+02 0.  0.
          5    1    3    3  502    0  0.39414483695E+02 -0.44316596468E+02 -0.39154400741E+03  0.39603237795E+03  0.41800000000E+01 0. -1.
         -5    1    3    3    0  502 -0.37671184301E+02  0.24115122175E+02 -0.75089167614E+02  0.87501501343E+02  0.41800000000E+01 0. -1.
        -11    1    4    4    0    0  0.19442037128E+02  0.46071738691E+02 -0.95477513460E+02  0.10778011640E+03  0.00000000000E+00 0.  1.
         11    1    4    4    0    0 -0.21185336521E+02 -0.25870264398E+02 -0.18183347681E+03  0.18488240142E+03  0.00000000000E+00 0. -1.
</event>
<event>
 8    1  0.6760442E-009  0.1031816E+03  0.7561462E-02  0.1273744E+00
          1   -1    0    0  501    0  0.00000000000E+00  0.00000000000E+00  0.44929412171E+03  0.44929412171E+03  0.00000000000E+00 0. -1.
         -1   -1    0    0    0  501 -0.00000000000E+00 -0.00000000000E+00 -0.28054858624E+02  0.28054858624E+02  0.00000000000E+00 0.  1.
         25    2    1    2    0    0  0.20362715196E+02  0.16006275721E+02  0.22115641898E+03  0.25539833376E+03  0.12508919298E+03 0.  0.
         23    2    1    2    0    0 -0.20362715196E+02 -0.16006275721E+02  0.20008284411E+03  0.22195064657E+03  0.92510020950E+02 0.  0.
          5    1    3    3  502    0 -0.30541942329E+02  0.44671581552E+02  0.47481728443E+02  0.72113434085E+02  0.41800000000E+01 0.  1.
         -5    1    3    3    0  502  0.50904657526E+02 -0.28665305830E+02  0.17367469054E+03  0.18328489968E+03  0.41800000000E+01 0.  1.
        -11    1    4    4    0    0 -0.15049578542E+02  0.37157167633E+02  0.11167209410E+03  0.11864991159E+03  0.00000000000E+00 0. -1.
         11    1    4    4    0    0 -0.53131366540E+01 -0.53163443355E+02  0.88410750007E+02  0.10330073498E+03  0.00000000000E+00 0.  1.
</event>
<event>
 8    1  0.6760442E-009  0.1020296E+03  0.7561462E-02  0.1276085E+00
          3   -1    0    0  501    0  0.00000000000E+00  0.00000000000E+00  0.18052640843E+03  0.18052640843E+03  0.00000000000E+00 0. -1.
         -3   -1    0    0    0  501 -0.00000000000E+00 -0.00000000000E+00 -0.92444633997E+02  0.92444633997E+02  0.00000000000E+00 0.  1.
         25    2    1    2    0    0  0.62361126106E+02 -0.32630080809E+02  0.51780918807E+02  0.15258675274E+03  0.12509125204E+03 0.  0.
         23    2    1    2    0    0 -0.62361126106E+02  0.32630080809E+02  0.36300855630E+02  0.12038428969E+03  0.90669690974E+02 0.  0.
          5    1    3    3  502    0  0.53214594538E+02 -0.47435326267E+02 -0.23523521122E+02  0.75184650667E+02  0.41800000000E+01 0. -1.
         -5    1    3    3    0  502  0.91465315680E+01  0.14805245458E+02  0.75304439929E+02  0.77402102077E+02  0.41800000000E+01 0. -1.
        -11    1    4    4    0    0 -0.85099963161E+02  0.16026176248E+02  0.28557756129E+02  0.91183263213E+02  0.00000000000E+00 0. -1.
         11    1    4    4    0    0  0.22738837055E+02  0.16603904561E+02  0.77430995011E+01  0.29201026474E+02  0.00000000000E+00 0.  1.
</event>
<event>
 8    1  0.6760442E-009  0.1059291E+03  0.7561462E-02  0.1268300E+00
          2   -1    0    0  501    0  0.00000000000E+00  0.00000000000E+00  0.17681742559E+03  0.17681742559E+03  0.00000000000E+00 0.  1.
         -2   -1    0    0    0  501 -0.00000000000E+00 -0.00000000000E+00 -0.88781159368E+02  0.88781159368E+02  0.00000000000E+00 0. -1.
         25    2    1    2    0    0  0.59671582805E+01 -0.95565423235E+00  0.11700611714E+03  0.17138986225E+03  0.12509010026E+03 0.  0.
         23    2    1    2    0    0 -0.59671582805E+01  0.95565423235E+00 -0.28969850918E+02  0.94208722706E+02  0.89439985011E+02 0.  0.
          5    1    3    3  502    0 -0.40455309123E+02 -0.44064246902E+02  0.71279997119E+02  0.93148270411E+02  0.41800000000E+01 0. -1.
         -5    1    3    3    0  502  0.46422467403E+02  0.43108592670E+02  0.45726120021E+02  0.78241591842E+02  0.41800000000E+01 0. -1.
        -11    1    4    4    0    0  0.74737314485E+01 -0.42379135469E+02 -0.21915548900E+02  0.48292225756E+02  0.00000000000E+00 0. -1.
         11    1    4    4    0    0 -0.13440889729E+02  0.43334789702E+02 -0.70543020174E+01  0.45916496950E+02  0.00000000000E+00 0.  1.
</event>
<event>
 8    1  0.6760442E-009  0.9233851E+02  0.7561462E-02  0.1297285E+00
          2   -1    0    0  501    0  0.00000000000E+00  0.00000000000E+00  0.29012811865E+03  0.29012811865E+03  0.00000000000E+00 0. -1.
         -2   -1    0    0    0  501 -0.00000000000E+00 -0.00000000000E+00 -0.72002561821E+02  0.72002561821E+02  0.00000000000E+00 0.  1.
         25    2    1    2    0    0 -0.71580766964E+01 -0.71718027678E+02  0.39638932219E+02  0.14970500374E+03  0.12508249134E+03 0.  0.
         23    2    1    2    0    0  0.71580766964E+01  0.71718027678E+02  0.17848662461E+03  0.21242567673E+03  0.89846977771E+02 0.  0.
          5    1    3    3  502    0 -0.53185126262E-01 -0.27938479541E+02 -0.45533933910E+02  0.53585193897E+02  0.41800000000E+01 0.  1.
         -5    1    3    3    0  502 -0.71048915701E+01 -0.43779548137E+02  0.85172866129E+02  0.96119809841E+02  0.41800000000E+01 0.  1.
        -11    1    4    4    0    0 -0.28978762810E+02 -0.27467557497E+01  0.71210348262E+02  0.76930014044E+02  0.00000000000E+00 0. -1.
         11    1    4    4    0    0  0.36136839506E+02  0.74464783428E+02  0.10727627635E+03  0.13549566269E+03  0.00000000000E+00 0.  1.
</event>
<event>
 8    1  0.6760442E-009  0.8782414E+02  0.7561462E-02  0.1308208E+00
         -1   -1    0    0    0  501 -0.00000000000E+00  0.00000000000E+00  0.29813499985E+03  0.29813499985E+03  0.00000000000E+00 0.  1.
          1   -1    0    0  501    0  0.00000000000E+00 -0.00000000000E+00 -0.50465658987E+02  0.50465658987E+02  0.00000000000E+00 0. -1.
         25    2    1    2    0    0  0.24902237051E+02  0.20055553168E+02  0.20358468295E+03  0.24107301819E+03  0.12508849007E+03 0.  0.
         23    2    1    2    0    0 -0.24902237051E+02 -0.20055553168E+02  0.44084657914E+02  0.10752764064E+03  0.92716718102E+02 0.  0.
          5    1    3    3  502    0  0.53040528001E+02  0.46399575859E+02  0.18513000186E+03  0.19813330926E+03  0.41800000000E+01 0.  1.
         -5    1    3    3    0  502 -0.28138290950E+02 -0.26344022691E+02  0.18454681087E+02  0.42939708931E+02  0.41800000000E+01 0.  1.
        -11    1    4    4    0    0 -0.36257017474E+02  0.70117734299E+01 -0.16315923601E+02  0.40372585323E+02  0.00000000000E+00 0. -1.
         11    1    4    4    0    0  0.11354780422E+02 -0.27067326598E+02  0.60400581514E+02  0.67155055319E+02  0.00000000000E+00 0.  1.
</event>
<event>
 8    1  0.6760442E-009  0.1532567E+03  0.7561462E-02  0.1196527E+00
         -2   -1    0    0    0  501 -0.00000000000E+00  0.00000000000E+00  0.88120293969E+02  0.88120293969E+02  0.00000000000E+00 0.  1.
          2   -1    0    0  501    0  0.00000000000E+00 -0.00000000000E+00 -0.34064756633E+03  0.34064756633E+03  0.00000000000E+00 0. -1.
         25    2    1    2    0    0  0.58640624775E+02 -0.10947813494E+03 -0.19693794005E+03  0.26430205615E+03  0.12508732851E+03 0.  0.
         23    2    1    2    0    0 -0.58640624775E+02  0.10947813494E+03 -0.55589332317E+02  0.16446580415E+03  0.92383125968E+02 0.  0.
          5    1    3    3  502    0  0.76605853495E+01 -0.12277915118E+03 -0.14503010796E+03  0.19022252535E+03  0.41800000000E+01 0. -1.
         -5    1    3    3    0  502  0.50980039425E+02  0.13301016246E+02 -0.51907832085E+02  0.74079530808E+02  0.41800000000E+01 0. -1.
        -11    1    4    4    0    0 -0.10000248881E+02  0.61300390127E+02  0.17291544126E+02  0.64472787327E+02  0.00000000000E+00 0.  1.
         11    1    4    4    0    0 -0.48640375894E+02  0.48177744811E+02 -0.72880876444E+02  0.99993016823E+02  0.00000000000E+00 0. -1.
</event>
<event>
 8    1  0.6760442E-009  0.1005752E+03  0.7561462E-02  0.1279091E+00
          2   -1    0    0  501    0  0.00000000000E+00  0.00000000000E+00  0.91953539794E+02  0.91953539794E+02  0.00000000000E+00 0. -1.
         -2   -1    0    0    0  501 -0.00000000000E+00 -0.00000000000E+00 -0.20315049511E+03  0.20315049511E+03  0.00000000000E+00 0.  1.
         25    2    1    2    0    0  0.24931790620E+02 -0.24683581810E+02 -0.14125769869E+03  0.19192392447E+03  0.12510068725E+03 0.  0.
         23    2    1    2    0    0 -0.24931790620E+02  0.24683581810E+02  0.30060743379E+02  0.10318011043E+03  0.92258406129E+02 0.  0.
          5    1    3    3  502    0 -0.15153543784E+02  0.33271868313E+02 -0.10760147863E+03  0.11371982111E+03  0.41800000000E+01 0.  1.
         -5    1    3    3    0  502  0.40085334404E+02 -0.57955450123E+02 -0.33656220061E+02  0.78204103358E+02  0.41800000000E+01 0.  1.
        -11    1    4    4    0    0  0.35793644320E+01  0.53267963929E+02  0.93201667935E+00  0.53396221645E+02  0.00000000000E+00 0.  1.
         11    1    4    4    0    0 -0.28511155052E+02 -0.28584382119E+02  0.29128726700E+02  0.49783888786E+02  0.00000000000E+00 0. -1.
</event>
<event>
 8    1  0.6760442E-009  0.2966159E+03  0.7561462E-02  0.1086945E+00
         -1   -1    0    0    0  501 -0.00000000000E+00  0.00000000000E+00  0.81975563365E+03  0.81975563365E+03  0.00000000000E+00 0.  1.
          1   -1    0    0  501    0  0.00000000000E+00 -0.00000000000E+00 -0.15972058270E+03  0.15972058270E+03  0.00000000000E+00 0. -1.
         25    2    1    2    0    0 -0.28650465220E+03 -0.42562050897E+02  0.81411588293E+02  0.32583462891E+03  0.12507563625E+03 0.  0.
         23    2    1    2    0    0  0.28650465220E+03  0.42562050897E+02  0.57862346266E+03  0.65364158743E+03  0.92443330624E+02 0.  0.
          5    1    3    3  502    0 -0.18402196524E+03  0.69276401396E+01  0.10131624072E+03  0.21022494838E+03  0.41800000000E+01 0.  1.
         -5    1    3    3    0  502 -0.10248268696E+03 -0.49489691036E+02 -0.19904652424E+02  0.11560968053E+03  0.41800000000E+01 0.  1.
        -11    1    4    4    0    0  0.12950464269E+03  0.47844506468E+02  0.19341653318E+03  0.23763523431E+03  0.00000000000E+00 0. -1.
         11    1    4    4    0    0  0.15700000950E+03 -0.52824555710E+01  0.38520692947E+03  0.41600635312E+03  0.00000000000E+00 0.  1.
</event>
<event>
 8    1  0.6760442E-009  0.8075309E+02  0.7561462E-02  0.1326928E+00
         -1   -1    0    0    0  501 -0.00000000000E+00  0.00000000000E+00  0.11150108364E+02  0.11150108364E+02  0.00000000000E+00 0.  1.
          1   -1    0    0  501    0  0.00000000000E+00 -0.00000000000E+00 -0.11539715397E+04  0.11539715397E+04  0.00000000000E+00 0. -1.
         25    2    1    2    0    0  0.84260647649E+01 -0.10276508730E+02 -0.81650912061E+03  0.82614241769E+03  0.12509014780E+03 0.  0.
         23    2    1    2    0    0 -0.84260647649E+01  0.10276508730E+02 -0.32631231074E+03  0.33897923038E+03  0.90832754510E+02 0.  0.
          5    1    3    3  502    0  0.31163774420E+02  0.17595746154E+02 -0.74607486053E+03  0.74694441629E+03  0.41800000000E+01 0. -1.
         -5    1    3    3    0  502 -0.22737709655E+02 -0.27872254885E+02 -0.70434260083E+02  0.79198001402E+02  0.41800000000E+01 0. -1.
        -11    1    4    4    0    0  0.36231576384E+02 -0.13505687367E+02 -0.10330307875E+03  0.11030256932E+03  0.00000000000E+00 0.  1.
         11    1    4    4    0    0 -0.44657641149E+02  0.23782196097E+02 -0.22300923198E+03  0.22867666106E+03  0.00000000000E+00 0. -1.
</event>
<event>
 8    1  0.6760442E-009  0.1053819E+03  0.7561462E-02  0.1269369E+00
         -2   -1    0    0    0  501 -0.00000000000E+00  0.00000000000E+00  0.84609137973E+02  0.84609137973E+02  0.00000000000E+00 0.  1.
          2   -1    0    0  501    0  0.00000000000E+00 -0.00000000000E+00 -0.19543709062E+03  0.19543709062E+03  0.00000000000E+00 0. -1.
         25    2    1    2    0    0 -0.67820441321E+02  0.97610971731E+01 -0.66425926526E+02  0.15733507679E+03  0.12508809454E+03 0.  0.
         23    2    1    2    0    0  0.67820441321E+02 -0.97610971731E+01 -0.44402026119E+02  0.12271115180E+03  0.91605652522E+02 0.  0.
          5    1    3    3  502    0  0.12063718879E+02 -0.18773355837E+02  0.24165808789E+02  0.33157667545E+02  0.41800000000E+01 0. -1.
         -5    1    3    3    0  502 -0.79884160199E+02  0.28534453010E+02 -0.90591735315E+02  0.12417740924E+03  0.41800000000E+01 0. -1.
        -11    1    4    4    0    0  0.46544056770E+01  0.28767003333E+02 -0.38780340228E+02  0.48508955474E+02  0.00000000000E+00 0. -1.
         11    1    4    4    0    0  0.63166035644E+02 -0.38528100506E+02 -0.56216858908E+01  0.74202196327E+02  0.00000000000E+00 0.  1.
</event>
<event>
 8    1  0.6760442E-009  0.1141259E+03  0.7561462E-02  0.1253115E+00
         -2   -1    0    0    0  501 -0.00000000000E+00  0.00000000000E+00  0.34384184610E+03  0.34384184610E+03  0.00000000000E+00 0. -1.
          2   -1    0    0  501    0  0.00000000000E+00 -0.00000000000E+00 -0.74448672581E+02  0.74448672581E+02  0.00000000000E+00 0.  1.
         25    2    1    2    0    0 -0.24698328415E+02  0.14469774290E+02  0.28406040774E+03  0.31169890277E+03  0.12508600619E+03 0.  0.
         23    2    1    2    0    0  0.24698328415E+02 -0.14469774290E+02 -0.14667234219E+02  0.10659161592E+03  0.10162314220E+03 0.  0.
          5    1    3    3  502    0 -0.71412094122E+02 -0.11127965701E+02  0.13237269201E+03  0.15087584564E+03  0.41800000000E+01 0.  1.
         -5    1    3    3    0  502  0.46713765707E+02  0.25597739991E+02  0.15168771573E+03  0.16082305712E+03  0.41800000000E+01 0.  1.
        -11    1    4    4    0    0  0.62870916701E+02 -0.48371239867E+01 -0.21525408021E+02  0.66629521428E+02  0.00000000000E+00 0.  1.
         11    1    4    4    0    0 -0.38172588286E+02 -0.96326503032E+01  0.68581738015E+01  0.39962094492E+02  0.00000000000E+00 0. -1.
</event>
<event>
 8    1  0.6760442E-009  0.1211751E+03  0.7561462E-02  0.1241171E+00
          2   -1    0    0  501    0  0.00000000000E+00  0.00000000000E+00  0.11500277397E+03  0.11500277397E+03  0.00000000000E+00 0. -1.
         -2   -1    0    0    0  501 -0.00000000000E+00 -0.00000000000E+00 -0.17980252739E+03  0.17980252739E+03  0.00000000000E+00 0.  1.
         25    2    1    2    0    0 -0.37574548444E+02 -0.40065803477E+02  0.42893987051E+02  0.14319415515E+03  0.12509019404E+03 0.  0.
         23    2    1    2    0    0  0.37574548444E+02  0.40065803477E+02 -0.10769374047E+03  0.15161114621E+03  0.91492527679E+02 0.  0.
          5    1    3    3  502    0  0.67706418421E+01  0.42085535359E+02  0.88449348639E+01  0.43734873387E+02  0.41800000000E+01 0.  1.
         -5    1    3    3    0  502 -0.44345190286E+02 -0.82151338836E+02  0.34049052187E+02  0.99459281764E+02  0.41800000000E+01 0.  1.
        -11    1    4    4    0    0  0.67704711530E+02  0.31954257297E+02 -0.68152035187E+02  0.10124081402E+03  0.00000000000E+00 0. -1.
         11    1    4    4    0    0 -0.30130163086E+02  0.81115461802E+01 -0.39541705282E+02  0.50370332197E+02  0.00000000000E+00 0.  1.
</event>
<event>
 8    1  0.6760442E-009  0.1127857E+03  0.7561462E-02  0.1255497E+00
         -1   -1    0    0    0  501 -0.00000000000E+00  0.00000000000E+00  0.12138399024E+03  0.12138399024E+03  0.00000000000E+00 0.  1.
          1   -1    0    0  501    0  0.00000000000E+00 -0.00000000000E+00 -0.12065169679E+03  0.12065169679E+03  0.00000000000E+00 0. -1.
         25    2    1    2    0    0 -0.29250557481E+02  0.37475897541E+02  0.25170224051E+02  0.13616840627E+03  0.12509299212E+03 0.  0.
         23    2    1    2    0    0  0.29250557481E+02 -0.37475897541E+02 -0.24437930605E+02  0.10586728075E+03  0.91381785235E+02 0.  0.
          5    1    3    3  502    0  0.40321276651E+02  0.34742731167E+02 -0.15286476536E+02  0.55533876910E+02  0.41800000000E+01 0.  1.
         -5    1    3    3    0  502 -0.69571834133E+02  0.27331663737E+01  0.40456700586E+02  0.80634529361E+02  0.41800000000E+01 0.  1.
        -11    1    4    4    0    0 -0.27664251826E+02  0.88514894929E+01 -0.12035014016E+02  0.31440439846E+02  0.00000000000E+00 0. -1.
         11    1    4    4    0    0  0.56914809307E+02 -0.46327387034E+02 -0.12402916589E+02  0.74426840909E+02  0.00000000000E+00 0.  1.
</event>
<event>
 8    1  0.6760442E-009  0.1056640E+03  0.7561462E-02  0.1268817E+00
          1   -1    0    0  501    0  0.00000000000E+00  0.00000000000E+00  0.53245095840E+03  0.53245095840E+03  0.00000000000E+00 0. -1.
         -1   -1    0    0    0  501 -0.00000000000E+00 -0.00000000000E+00 -0.28759752484E+02  0.28759752484E+02  0.00000000000E+00 0.  1.
         25    2    1    2    0    0 -0.40754974122E+02  0.96887416296E+01  0.36584685257E+03  0.38890293102E+03  0.12508689215E+03 0.  0.
         23    2    1    2    0    0  0.40754974122E+02 -0.96887416296E+01  0.13784435335E+03  0.17230777987E+03  0.94520186332E+02 0.  0.
          5    1    3    3  502    0 -0.73459432034E+02  0.27702379304E+02  0.32055975894E+03  0.33006020879E+03  0.41800000000E+01 0. -1.
         -5    1    3    3    0  502  0.32704457912E+02 -0.18013637674E+02  0.45287093629E+02  0.58842722226E+02  0.41800000000E+01 0. -1.
        -11    1    4    4    0    0  0.64331540026E+01  0.36796226274E+02  0.23330949106E+02  0.44041808825E+02  0.00000000000E+00 0.  1.
         11    1    4    4    0    0  0.34321820120E+02 -0.46484967903E+02  0.11451340424E+03  0.12826597105E+03  0.00000000000E+00 0. -1.
</event>
<event>
 8    1  0.6760442E-009  0.8058314E+02  0.7561462E-02  0.1327405E+00
         -2   -1    0    0    0  501 -0.00000000000E+00  0.00000000000E+00  0.18015936635E+03  0.18015936635E+03  0.00000000000E+00 0. -1.
          2   -1    0    0  501    0  0.00000000000E+00 -0.00000000000E+00 -0.25858351000E+03  0.25858351000E+03  0.00000000000E+00 0.  1.
         25    2    1    2    0    0 -0.61884514922E+02  0.45889342847E+02  0.13119267628E+03  0.19696226826E+03  0.12508833612E+03 0.  0.
         23    2    1    2    0    0  0.61884514922E+02 -0.45889342847E+02 -0.20961681993E+03  0.24178060809E+03  0.92645163267E+02 0.  0.
          5    1    3    3  502    0 -0.38723268453E+02  0.29258351515E+02 -0.12594652417E+02  0.50315408401E+02  0.41800000000E+01 0.  1.
         -5    1    3    3    0  502 -0.23161246469E+02  0.16630991332E+02  0.14378732870E+03  0.14664685985E+03  0.41800000000E+01 0.  1.
        -11    1    4    4    0    0  0.16127845396E+02 -0.31969216932E+02 -0.18414372225E+03  0.18759277350E+03  0.00000000000E+00 0.  1.
         11    1    4    4    0    0  0.45756669526E+02 -0.13920125915E+02 -0.25473097687E+02  0.54187834588E+02  0.00000000000E+00 0. -1.
</event>
<event>
 8    1  0.6760442E-009  0.1283558E+03  0.7561462E-02  0.1229916E+00
         -2   -1    0    0    0  501 -0.00000000000E+00  0.00000000000E+00  0.66478441784E+02  0.66478441784E+02  0.00000000000E+00 0.  1.
          2   -1    0    0  501    0  0.00000000000E+00 -0.00000000000E+00 -0.34466126275E+03  0.34466126275E+03  0.00000000000E+00 0. -1.
         25    2    1    2    0    0 -0.19906833316E+02  0.72696582646E+02 -0.25334428006E+03  0.29242281877E+03  0.12508679210E+03 0.  0.
         23    2    1    2    0    0  0.19906833316E+02 -0.72696582646E+02 -0.24838540912E+02  0.11871688577E+03  0.88293095485E+02 0.  0.
          5    1    3    3  502    0  0.50238333991E+02  0.46321023952E+02 -0.14807877734E+03  0.16313897192E+03  0.41800000000E+01 0. -1.
         -5    1    3    3    0  502 -0.70145167306E+02  0.26375558694E+02 -0.10526550272E+03  0.12928384685E+03  0.41800000000E+01 0. -1.
        -11    1    4    4    0    0  0.50962094958E+02 -0.26261651898E+02 -0.25747243437E+02  0.62846877627E+02  0.00000000000E+00 0. -1.
         11    1    4    4    0    0 -0.31055261642E+02 -0.46434930748E+02  0.90870252534E+00  0.55870008139E+02  0.00000000000E+00 0.  1.
</event>
<event>
 8    1  0.6760442E-009  0.1142523E+03  0.7561462E-02  0.1252892E+00
          2   -1    0    0  501    0  0.00000000000E+00  0.00000000000E+00  0.15817076642E+03  0.15817076642E+03  0.00000000000E+00 0. -1.
         -2   -1    0    0    0  501 -0.00000000000E+00 -0.00000000000E+00 -0.11060547101E+03  0.11060547101E+03  0.00000000000E+00 0.  1.
         25    2    1    2    0    0  0.56454554270E+02  0.98809229235E+01  0.23441635682E+02  0.13957828430E+03  0.12509131796E+03 0.  0.
         23    2    1    2    0    0 -0.56454554270E+02 -0.98809229235E+01  0.24123659728E+02  0.12919795313E+03  0.11324933024E+03 0.  0.
          5    1    3    3  502    0  0.45351102533E+02 -0.51161034979E+02 -0.95928974552E+01  0.69164080871E+02  0.41800000000E+01 0. -1.
         -5    1    3    3    0  502  0.11103451737E+02  0.61041957903E+02  0.33034533137E+02  0.70414203430E+02  0.41800000000E+01 0. -1.
        -11    1    4    4    0    0  0.11250326333E+02 -0.25911034745E+02  0.47952210854E+02  0.55653985391E+02  0.00000000000E+00 0. -1.
         11    1    4    4    0    0 -0.67704880603E+02  0.16030111821E+02 -0.23828551126E+02  0.73543967742E+02  0.00000000000E+00 0.  1.
</event>
<event>
 7    1  0.6760442E-009  0.1271957E+03  0.7561462E-02  0.1231677E+00
         -1   -1    0    0    0  501 -0.00000000000E+00  0.00000000000E+00  0.20791262623E+03  0.20791262623E+03  0.00000000000E+00 0.  1.
          1   -1    0    0  501    0  0.00000000000E+00 -0.00000000000E+00 -0.95859685823E+02  0.95859685823E+02  0.00000000000E+00 0. -1.
         25    2    1    2    0    0 -0.35547165339E+02  0.10885348645E+02  0.85798176254E+02  0.15617637656E+03  0.12509053429E+03 0.  0.
          5    1    3    3  502    0 -0.76906533445E+02  0.32416235613E+02  0.58170751639E+02  0.10181716930E+03  0.41800000000E+01 0. -1.
         -5    1    3    3    0  502  0.41359368105E+02 -0.21530886968E+02  0.27627424615E+02  0.54359207266E+02  0.41800000000E+01 0. -1.
        -11    1    1    2    0    0 -0.12778006638E+02  0.46942759422E+02 -0.26693857298E+02  0.55492901647E+02  0.00000000000E+00 0. -1.
         11    1    1    2    0    0  0.48325171978E+02 -0.57828108067E+02  0.52948621452E+02  0.92103033842E+02  0.00000000000E+00 0.  1.
</event>
<event>
 8    1  0.6760442E-009  0.1274389E+03  0.7561462E-02  0.1231306E+00
         -1   -1    0    0    0  501 -0.00000000000E+00  0.00000000000E+00  0.38985271198E+03  0.38985271198E+03  0.00000000000E+00 0.  1.
          1   -1    0    0  501    0  0.00000000000E+00 -0.00000000000E+00 -0.10190893905E+03  0.10190893905E+03  0.00000000000E+00 0. -1.
         25    2    1    2    0    0  0.54699518469E+02  0.55930126126E+02 -0.31206331788E+02  0.15080059738E+03  0.12508704448E+03 0.  0.
         23    2    1    2    0    0 -0.54699518469E+02 -0.55930126126E+02  0.31915010472E+03  0.34096105366E+03  0.90980406925E+02 0.  0.
          5    1    3    3  502    0  0.77793632899E+02  0.13385890435E+01  0.99027121727E+01  0.78544110210E+02  0.41800000000E+01 0. -1.
         -5    1    3    3    0  502 -0.23094114430E+02  0.54591537082E+02 -0.41109043961E+02  0.72256487166E+02  0.41800000000E+01 0. -1.
        -11    1    4    4    0    0  0.23791597723E+02 -0.60858128398E+01  0.98609345217E+02  0.10162125862E+03  0.00000000000E+00 0.  1.
         11    1    4    4    0    0 -0.78491116193E+02 -0.49844313286E+02  0.22054075950E+03  0.23933979504E+03  0.00000000000E+00 0. -1.
</event>
<event>
 8    1  0.6760442E-009  0.4163141E+03  0.7561462E-02  0.1038273E+00
          2   -1    0    0  501    0  0.00000000000E+00  0.00000000000E+00  0.23858189959E+03  0.23858189959E+03  0.00000000000E+00 0. -1.
         -2   -1    0    0    0  501 -0.00000000000E+00 -0.00000000000E+00 -0.84850655785E+03  0.84850655785E+03  0.00000000000E+00 0.  1.
         25    2    1    2    0    0 -0.33146761744E+03 -0.24115687500E+03 -0.12720299884E+03  0.44705052150E+03  0.12508455575E+03 0.  0.
         23    2    1    2    0    0  0.33146761744E+03  0.24115687500E+03 -0.48272165942E+03  0.64003793594E+03  0.92741248606E+02 0.  0.
          5    1    3    3  502    0 -0.96547076727E+02 -0.95786158232E+02 -0.10112637551E+03  0.16952976835E+03  0.41800000000E+01 0.  1.
         -5    1    3    3    0  502 -0.23492054072E+03 -0.14537071676E+03 -0.26076623330E+02  0.27752075315E+03  0.41800000000E+01 0.  1.
        -11    1    4    4    0    0  0.12052271399E+03  0.14469876732E+03 -0.21726425383E+03  0.28751906692E+03  0.00000000000E+00 0. -1.
         11    1    4    4    0    0  0.21094490345E+03  0.96458107678E+02 -0.26545740560E+03  0.35251886902E+03  0.00000000000E+00 0.  1.
</event>
<event>
 8    1  0.6760442E-009  0.1794235E+03  0.7561462E-02  0.1168362E+00
          1   -1    0    0  501    0  0.00000000000E+00  0.00000000000E+00  0.73471935819E+03  0.73471935819E+03  0.00000000000E+00 0. -1.
         -1   -1    0    0    0  501 -0.00000000000E+00 -0.00000000000E+00 -0.47386531274E+02  0.47386531274E+02  0.00000000000E+00 0.  1.
         25    2    1    2    0    0 -0.78006647945E+02  0.12687772690E+03  0.42278949015E+03  0.46538176261E+03  0.12508492027E+03 0.  0.
         23    2    1    2    0    0  0.78006647945E+02 -0.12687772690E+03  0.26454333676E+03  0.31672412685E+03  0.90266277196E+02 0.  0.
          5    1    3    3  502    0 -0.96880397604E+02  0.40225298950E+02  0.24903787002E+03  0.27026139055E+03  0.41800000000E+01 0. -1.
         -5    1    3    3    0  502  0.18873749659E+02  0.86652427950E+02  0.17375162013E+03  0.19512037206E+03  0.41800000000E+01 0. -1.
        -11    1    4    4    0    0 -0.13304653896E+02 -0.24651466346E+02  0.14421754300E+02  0.31507072307E+02  0.00000000000E+00 0.  1.
         11    1    4    4    0    0  0.91311301841E+02 -0.10222626055E+03  0.25012158246E+03  0.28521705454E+03  0.00000000000E+00 0. -1.
</event>
<event>
 8    1  0.6760442E-009  0.1412045E+03  0.7561462E-02  0.1211717E+00
          1   -1    0    0  501    0  0.00000000000E+00  0.00000000000E+00  0.14959051659E+03  0.14959051659E+03  0.00000000000E+00 0. -1.
         -1   -1    0    0    0  501 -0.00000000000E+00 -0.00000000000E+00 -0.17172580331E+03  0.17172580331E+03  0.00000000000E+00 0.  1.
         25    2    1    2    0    0 -0.10574912318E+03 -0.86832064740E+01 -0.40384266416E+02  0.16892083490E+03  0.12508031164E+03 0.  0.
         23    2    1    2    0    0  0.10574912318E+03  0.86832064740E+01  0.18248979698E+02  0.15239548500E+03  0.10785677290E+03 0.  0.
          5    1    3    3  502    0 -0.83579591681E+02 -0.62483135485E+02 -0.15850191819E+02  0.10563328711E+03  0.41800000000E+01 0. -1.
         -5    1    3    3    0  502 -0.22169531503E+02  0.53799929011E+02 -0.24534074597E+02  0.63287547788E+02  0.41800000000E+01 0. -1.
        -11    1    4    4    0    0  0.64418742511E+02  0.32266221194E+02  0.56325125067E+02  0.91451643674E+02  0.00000000000E+00 0. -1.
         11    1    4    4    0    0  0.41330380673E+02 -0.23583014720E+02 -0.38076145369E+02  0.60943841329E+02  0.00000000000E+00 0.  1.
</event>
<event>
 8    1  0.6760442E-009  0.6087343E+02  0.7561462E-02  0.1394202E+00
          1   -1    0    0  501    0  0.00000000000E+00  0.00000000000E+00  0.23844133438E+03  0.23844133438E+03  0.00000000000E+00 0. -1.
         -1   -1    0    0    0  501 -0.00000000000E+00 -0.00000000000E+00 -0.49412352036E+02  0.49412352036E+02  0.00000000000E+00 0.  1.
         25    2    1    2    0    0  0.24732741084E+01 -0.15234777826E+02  0.12211813390E+03  0.17549515619E+03  0.12508995035E+03 0.  0.
         23    2    1    2    0    0 -0.24732741084E+01  0.15234777826E+02  0.66910848444E+02  0.11235853023E+03  0.88933470277E+02 0.  0.
          5    1    3    3  502    0  0.52621148058E+01  0.64606104198E+01 -0.25010160198E+02  0.26691006957E+02  0.41800000000E+01 0.  1.
         -5    1    3    3    0  502 -0.27888406974E+01 -0.21695388246E+02  0.14712829410E+03  0.14880414923E+03  0.41800000000E+01 0.  1.
        -11    1    4    4    0    0 -0.44997533718E+02  0.39823061328E-01  0.30651639821E+02  0.54445409818E+02  0.00000000000E+00 0. -1.
         11    1    4    4    0    0  0.42524259610E+02  0.15194954765E+02  0.36259208624E+02  0.57913120411E+02  0.00000000000E+00 0.  1.
</event>
<event>
 8    1  0.6760442E-009  0.1581271E+03  0.7561462E-02  0.1190828E+00
          2   -1    0    0  501    0  0.00000000000E+00  0.00000000000E+00  0.17134533375E+03  0.17134533375E+03  0.00000000000E+00 0. -1.
         -2   -1    0    0    0  501 -0.00000000000E+00 -0.00000000000E+00 -0.17863382904E+03  0.17863382904E+03  0.00000000000E+00 0.  1.
         25    2    1    2    0    0  0.13467782737E+03 -0.27997291542E+02 -0.10187000532E+02  0.18620680767E+03  0.12508890728E+03 0.  0.
         23    2    1    2    0    0 -0.13467782737E+03  0.27997291542E+02  0.28985052351E+01  0.16377235512E+03  0.88831399014E+02 0.  0.
          5    1    3    3  502    0 -0.47335378605E+01 -0.11288085273E+02  0.36067033132E+02  0.38316191470E+02  0.41800000000E+01 0.  1.
         -5    1    3    3    0  502  0.13941136523E+03 -0.16709206269E+02 -0.46254033664E+02  0.14789061620E+03  0.41800000000E+01 0.  1.
        -11    1    4    4    0    0 -0.11480118906E+03 -0.14712356858E+02  0.98301575276E+01  0.11615678392E+03  0.00000000000E+00 0. -1.
         11    1    4    4    0    0 -0.19876638305E+02  0.42709648401E+02 -0.69316522925E+01  0.47615571196E+02  0.00000000000E+00 0.  1.
</event>
<event>
 8    1  0.6760442E-009  0.9223061E+02  0.7561462E-02  0.1297538E+00
          2   -1    0    0  501    0  0.00000000000E+00  0.00000000000E+00  0.10406297391E+03  0.10406297391E+03  0.00000000000E+00 0. -1.
         -2   -1    0    0    0  501 -0.00000000000E+00 -0.00000000000E+00 -0.11444564402E+03  0.11444564402E+03  0.00000000000E+00 0.  1.
         25    2    1    2    0    0 -0.19583796661E+02 -0.63731203846E+01 -0.98837297834E+01  0.12715527912E+03  0.12508651062E+03 0.  0.
         23    2    1    2    0    0  0.19583796661E+02  0.63731203846E+01 -0.49894033092E+00  0.91353338810E+02  0.89000234916E+02 0.  0.
          5    1    3    3  502    0 -0.70161720005E+02 -0.10996758613E+02  0.11177793923E+02  0.72013964833E+02  0.41800000000E+01 0. -1.
         -5    1    3    3    0  502  0.50577923344E+02  0.46236382287E+01 -0.21061523706E+02  0.55141314285E+02  0.41800000000E+01 0. -1.
        -11    1    4    4    0    0  0.20171274082E+02 -0.24356275429E+02 -0.33628465211E+02  0.46162561923E+02  0.00000000000E+00 0.  1.
         11    1    4    4    0    0 -0.58747742154E+00  0.30729395813E+02  0.33129524880E+02  0.45190776886E+02  0.00000000000E+00 0. -1.
</event>
<event>
 8    1  0.6760442E-009  0.7486005E+02  0.7561462E-02  0.1344305E+00
         -2   -1    0    0    0  501 -0.00000000000E+00  0.00000000000E+00  0.30975146902E+03  0.30975146902E+03  0.00000000000E+00 0.  1.
          2   -1    0    0  501    0  0.00000000000E+00 -0.00000000000E+00 -0.41526862295E+02  0.41526862295E+02  0.00000000000E+00 0. -1.
         25    2    1    2    0    0 -0.51898154143E+02 -0.51792349130E+01  0.17336829329E+03  0.22005172624E+03  0.12508378882E+03 0.  0.
         23    2    1    2    0    0  0.51898154143E+02  0.51792349130E+01  0.94856313442E+02  0.13122660508E+03  0.74178560271E+02 0.  0.
          5    1    3    3  502    0 -0.51790719001E+02 -0.13977477690E+02  0.80012156115E+01  0.54397980739E+02  0.41800000000E+01 0.  1.
         -5    1    3    3    0  502 -0.10743514189E+00  0.87982427771E+01  0.16536707768E+03  0.16565374550E+03  0.41800000000E+01 0.  1.
        -11    1    4    4    0    0  0.14073195704E+02  0.35182534224E+02  0.62558552449E+02  0.73139852586E+02  0.00000000000E+00 0.  1.
         11    1    4    4    0    0  0.37824958439E+02 -0.30003299311E+02  0.32297760993E+02  0.58086752497E+02  0.00000000000E+00 0. -1.
</event>
<event>
 8    1  0.6760442E-009  0.1092633E+03  0.7561462E-02  0.1261940E+00
         -1   -1    0    0    0  501 -0.00000000000E+00  0.00000000000E+00  0.36831861341E+02  0.36831861341E+02  0.00000000000E+00 0.  1.
          1   -1    0    0  501    0  0.00000000000E+00 -0.00000000000E+00 -0.88603855831E+03  0.88603855831E+03  0.00000000000E+00 0. -1.
         25    2    1    2    0    0  0.82128515588E+02  0.61515135475E+02 -0.70407486440E+03  0.72242520484E+03  0.12509019523E+03 0.  0.
         23    2    1    2    0    0 -0.82128515588E+02 -0.61515135475E+02 -0.14513183257E+03  0.20044521481E+03  0.92659755827E+02 0.  0.
          5    1    3    3  502    0  0.33871280726E+02  0.17866782618E+02 -0.41399376626E+02  0.56549680496E+02  0.41800000000E+01 0. -1.
         -5    1    3    3    0  502  0.48257234863E+02  0.43648352857E+02 -0.66267548778E+03  0.66587552435E+03  0.41800000000E+01 0. -1.
        -11    1    4    4    0    0 -0.50956676479E+02 -0.62328389319E+01 -0.11646778868E+02  0.52641035485E+02  0.00000000000E+00 0.  1.
         11    1    4    4    0    0 -0.31171839110E+02 -0.55282296543E+02 -0.13348505370E+03  0.14780417932E+03  0.00000000000E+00 0. -1.
</event>
<event>
 8    1  0.6760442E-009  0.1425533E+03  0.7561462E-02  0.1209934E+00
          2   -1    0    0  501    0  0.00000000000E+00  0.00000000000E+00  0.18920131108E+03  0.18920131108E+03  0.00000000000E+00 0. -1.
         -2   -1    0    0    0  501 -0.00000000000E+00 -0.00000000000E+00 -0.16512664749E+03  0.16512664749E+03  0.00000000000E+00 0.  1.
         25    2    1    2    0    0 -0.13496419174E+03  0.71402165249E+01 -0.17711356078E+02  0.18500658413E+03  0.12508968100E+03 0.  0.
         23    2    1    2    0    0  0.13496419174E+03 -0.71402165249E+01  0.41786019673E+02  0.16932137444E+03  0.93044831449E+02 0.  0.
          5    1    3    3  502    0 -0.90077496405E+02 -0.21462185227E+00 -0.71035761935E+02  0.11479352462E+03  0.41800000000E+01 0.  1.
         -5    1    3    3    0  502 -0.44886695335E+02  0.73548383772E+01  0.53324405857E+02  0.70213059509E+02  0.41800000000E+01 0.  1.
        -11    1    4    4    0    0 -0.33356762529E+00  0.12530278536E+02 -0.16478288760E+02  0.20703940398E+02  0.00000000000E+00 0.  1.
         11    1    4    4    0    0  0.13529775936E+03 -0.19670495061E+02  0.58264308433E+02  0.14861743405E+03  0.00000000000E+00 0. -1.
</event>
<event>
 8    1  0.6760442E-009  0.1684241E+03  0.7561462E-02  0.1179501E+00
         -1   -1    0    0    0  501 -0.00000000000E+00  0.00000000000E+00  0.13374182989E+04  0.13374182989E+04  0.00000000000E+00 0.  1.
          1   -1    0    0  501    0  0.00000000000E+00 -0.00000000000E+00 -0.28484743214E+02  0.28484743214E+02  0.00000000000E+00 0. -1.
         25    2    1    2    0    0  0.11968045960E+03  0.95404996930E+02  0.86420710939E+03  0.88652581965E+03  0.12509426500E+03 0.  0.
         23    2    1    2    0    0 -0.11968045960E+03 -0.95404996930E+02  0.44472644628E+03  0.47937722245E+03  0.92711291294E+02 0.  0.
          5    1    3    3  502    0  0.10207222062E+03  0.45281064993E+02  0.30571411410E+03  0.32549609065E+03  0.41800000000E+01 0.  1.
         -5    1    3    3    0  502  0.17608238981E+02  0.50123931936E+02  0.55849299529E+03  0.56102972900E+03  0.41800000000E+01 0.  1.
        -11    1    4    4    0    0 -0.99398596505E+01 -0.53386426575E+02  0.84282259671E+02  0.10026171078E+03  0.00000000000E+00 0. -1.
         11    1    4    4    0    0 -0.10974059995E+03 -0.42018570354E+02  0.36044418661E+03  0.37911551167E+03  0.00000000000E+00 0.  1.
</event>
<event>
 8    1  0.6760442E-009  0.1825264E+03  0.7561462E-02  0.1165380E+00
         -1   -1    0    0    0  501 -0.00000000000E+00  0.00000000000E+00  0.28086755674E+02  0.28086755674E+02  0.00000000000E+00 0.  1.
          1   -1    0    0  501    0  0.00000000000E+00 -0.00000000000E+00 -0.14919492198E+04  0.14919492198E+04  0.00000000000E+00 0. -1.
         25    2    1    2    0    0 -0.15457332036E+03 -0.16176310523E+02 -0.10488375278E+04  0.10676433934E+04  0.12509065277E+03 0.  0.
         23    2    1    2    0    0  0.15457332036E+03  0.16176310523E+02 -0.41502493631E+03  0.45239258204E+03  0.90877753772E+02 0.  0.
          5    1    3    3  502    0 -0.28255968057E+02  0.47160839411E+02 -0.38432118412E+03  0.38825608749E+03  0.41800000000E+01 0. -1.
         -5    1    3    3    0  502 -0.12631735230E+03 -0.63337149934E+02 -0.66451634367E+03  0.67938730593E+03  0.41800000000E+01 0. -1.
        -11    1    4    4    0    0  0.39973320098E+02 -0.24568415338E+02 -0.19924140754E+03  0.20469150405E+03  0.00000000000E+00 0. -1.
         11    1    4    4    0    0  0.11460000026E+03  0.40744725861E+02 -0.21578352877E+03  0.24770107798E+03  0.00000000000E+00 0.  1.
</event>
<event>
 8    1  0.6760442E-009  0.2471981E+03  0.7561462E-02  0.1115088E+00
         -2   -1    0    0    0  501 -0.00000000000E+00  0.00000000000E+00  0.52147148637E+02  0.52147148637E+02  0.00000000000E+00 0.  1.
          2   -1    0    0  501    0  0.00000000000E+00 -0.00000000000E+00 -0.13399263019E+04  0.13399263019E+04  0.00000000000E+00 0. -1.
         25    2    1    2    0    0  0.17447778194E+03 -0.16703940812E+03 -0.65517441418E+03  0.70939833359E+03  0.12509125650E+03 0.  0.
         23    2    1    2    0    0 -0.17447778194E+03  0.16703940812E+03 -0.63260473904E+03  0.68267511690E+03  0.86671212795E+02 0.  0.
          5    1    3    3  502    0  0.44137418882E+02 -0.85010517277E+02 -0.12646546574E+03  0.15870061821E+03  0.41800000000E+01 0.  1.
         -5    1    3    3    0  502  0.13034036306E+03 -0.82028890841E+02 -0.52870894844E+03  0.55069771539E+03  0.41800000000E+01 0.  1.
        -11    1    4    4    0    0 -0.42367464122E+02  0.20201171028E+02 -0.55403493326E+02  0.72612921713E+02  0.00000000000E+00 0.  1.
         11    1    4    4    0    0 -0.13211031782E+03  0.14683823709E+03 -0.57720124571E+03  0.61006219519E+03  0.00000000000E+00 0. -1.
</event>
<event>
 8    1  0.6760442E-009  0.1319431E+03  0.7561462E-02  0.1224601E+00
         -1   -1    0    0    0  501 -0.00000000000E+00  0.00000000000E+00  0.22053614739E+03  0.22053614739E+03  0.00000000000E+00 0.  1.
          1   -1    0    0  501    0  0.00000000000E+00 -0.00000000000E+00 -0.92843309944E+02  0.92843309944E+02  0.00000000000E+00 0. -1.
         25    2    1    2    0    0 -0.79188154604E+02  0.15548552531E+02  0.15980845172E+02  0.14972070457E+03  0.12509348763E+03 0.  0.
         23    2    1    2    0    0  0.79188154604E+02 -0.15548552531E+02  0.11171199228E+03  0.16365875277E+03  0.88272854405E+02 0.  0.
          5    1    3    3  502    0 -0.31334567854E+02  0.67776390870E+02  0.23433124430E+02  0.78371410747E+02  0.41800000000E+01 0.  1.
         -5    1    3    3    0  502 -0.47853586750E+02 -0.52227838339E+02 -0.74522792580E+01  0.71349293819E+02  0.41800000000E+01 0.  1.
        -11    1    4    4    0    0  0.90314936019E+02  0.94206540736E+01  0.95941802035E+02  0.13209983258E+03  0.00000000000E+00 0. -1.
         11    1    4    4    0    0 -0.11126781415E+02 -0.24969206604E+02  0.15770190243E+02  0.31558920188E+02  0.00000000000E+00 0.  1.
</event>
<event>
 8    1  0.6760442E-009  0.1614270E+03  0.7561462E-02  0.1187095E+00
          2   -1    0    0  501    0  0.00000000000E+00  0.00000000000E+00  0.15416188624E+04  0.15416188624E+04  0.00000000000E+00 0. -1.
         -2   -1    0    0    0  501 -0.00000000000E+00 -0.00000000000E+00 -0.19920920375E+02  0.19920920375E+02  0.00000000000E+00 0.  1.
         25    2    1    2    0    0  0.15005610455E+02 -0.13399080415E+03  0.95189528902E+03  0.96950059838E+03  0.12509222617E+03 0.  0.
         23    2    1    2    0    0 -0.15005610455E+02  0.13399080415E+03  0.56980265299E+03  0.59203918439E+03  0.87502163123E+02 0.  0.
          5    1    3    3  502    0 -0.20983029913E+02  0.20321458139E+01  0.29905626796E+02  0.36827110598E+02  0.41800000000E+01 0.  1.
         -5    1    3    3    0  502  0.35988640368E+02 -0.13602294997E+03  0.92198966223E+03  0.93267348778E+03  0.41800000000E+01 0.  1.
        -11    1    4    4    0    0 -0.23996060021E+01 -0.12922710788E+02  0.53745901232E+02  0.55329706870E+02  0.00000000000E+00 0.  1.
         11    1    4    4    0    0 -0.12606004453E+02  0.14691351494E+03  0.51605675176E+03  0.53670947752E+03  0.00000000000E+00 0. -1.
</event>
<event>
 8    1  0.6760442E-009  0.1267043E+03  0.7561462E-02  0.1232430E+00
          2   -1    0    0  501    0  0.00000000000E+00  0.00000000000E+00  0.85402972887E+02  0.85402972887E+02  0.00000000000E+00 0.  1.
         -2   -1    0    0    0  501 -0.00000000000E+00 -0.00000000000E+00 -0.25531387345E+03  0.25531387345E+03  0.00000000000E+00 0. -1.
         25    2    1    2    0    0  0.37325208061E+02  0.87117245285E+02 -0.12601064423E+03  0.20126959924E+03  0.12509269977E+03 0.  0.
         23    2    1    2    0    0 -0.37325208061E+02 -0.87117245285E+02 -0.43900256327E+02  0.13944724709E+03  0.92388942160E+02 0.  0.
          5    1    3    3  502    0  0.73734683141E+01  0.11527576833E+03 -0.94639299821E+02  0.14938855468E+03  0.41800000000E+01 0.  1.
         -5    1    3    3    0  502  0.29951739747E+02 -0.28158523048E+02 -0.31371344410E+02  0.51881044556E+02  0.41800000000E+01 0.  1.
        -11    1    4    4    0    0 -0.17091851125E+02 -0.61639081012E+02 -0.72105571928E+02  0.96388387195E+02  0.00000000000E+00 0. -1.
         11    1    4    4    0    0 -0.20233356936E+02 -0.25478164274E+02  0.28205315601E+02  0.43058859899E+02  0.00000000000E+00 0.  1.
</event>
<event>
 8    1  0.6760442E-009  0.1204699E+03  0.7561462E-02  0.1242324E+00
          4   -1    0    0  501    0  0.00000000000E+00  0.00000000000E+00  0.36719113404E+03  0.36719113404E+03  0.00000000000E+00 0. -1.
         -4   -1    0    0    0  501 -0.00000000000E+00 -0.00000000000E+00 -0.42367558321E+02  0.42367558321E+02  0.00000000000E+00 0.  1.
         25    2    1    2    0    0  0.20601162211E+02  0.54821762270E+02  0.15216407118E+03  0.20550144221E+03  0.12508838750E+03 0.  0.
         23    2    1    2    0    0 -0.20601162211E+02 -0.54821762270E+02  0.17265950454E+03  0.20405725015E+03  0.91641820860E+02 0.  0.
          5    1    3    3  502    0 -0.42607606471E+02  0.59962800345E+02  0.93213171592E+02  0.11881545906E+03  0.41800000000E+01 0. -1.
         -5    1    3    3    0  502  0.63208768682E+02 -0.51410380746E+01  0.58950899589E+02  0.86685983141E+02  0.41800000000E+01 0. -1.
        -11    1    4    4    0    0  0.24400950240E+02  0.86600226325E+01  0.20026862188E+02  0.32733432049E+02  0.00000000000E+00 0.  1.
         11    1    4    4    0    0 -0.45002112451E+02 -0.63481784903E+02  0.15263264235E+03  0.17132381810E+03  0.00000000000E+00 0. -1.
</event>
<event>
 8    1  0.6760442E-009  0.7762076E+02  0.7561462E-02  0.1335942E+00
         -4   -1    0    0    0  501 -0.00000000000E+00  0.00000000000E+00  0.79832193335E+02  0.79832193335E+02  0.00000000000E+00 0. -1.
          4   -1    0    0  501    0  0.00000000000E+00 -0.00000000000E+00 -0.17245509916E+03  0.17245509916E+03  0.00000000000E+00 0.  1.
         25    2    1    2    0    0  0.14340278171E+02  0.27697512261E+02 -0.82466099921E+02  0.15304004861E+03  0.12509117906E+03 0.  0.
         23    2    1    2    0    0 -0.14340278171E+02 -0.27697512261E+02 -0.10156805906E+02  0.99247243884E+02  0.93669946882E+02 0.  0.
          5    1    3    3  502    0  0.50019342544E+01  0.45026673971E+02 -0.10994139276E+03  0.11898320452E+03  0.41800000000E+01 0. -1.
         -5    1    3    3    0  502  0.93383439164E+01 -0.17329161710E+02  0.27475292843E+02  0.34056844092E+02  0.41800000000E+01 0. -1.
        -11    1    4    4    0    0 -0.21452872203E+02  0.26987735635E+02 -0.24466575443E+02  0.42275015250E+02  0.00000000000E+00 0.  1.
         11    1    4    4    0    0  0.71125940325E+01 -0.54685247896E+02  0.14309769537E+02  0.56972228634E+02  0.00000000000E+00 0. -1.
</event>
<event>
 8    1  0.6760442E-009  0.4426414E+02  0.7561462E-02  0.1478988E+00
          1   -1    0    0  501    0  0.00000000000E+00  0.00000000000E+00  0.12386491851E+03  0.12386491851E+03  0.00000000000E+00 0. -1.
         -1   -1    0    0    0  501 -0.00000000000E+00 -0.00000000000E+00 -0.10477508282E+03  0.10477508282E+03  0.00000000000E+00 0.  1.
         25    2    1    2    0    0  0.89603450716E+01 -0.24469677639E+02  0.32311733918E+02  0.13179678859E+03  0.12508913792E+03 0.  0.
         23    2    1    2    0    0 -0.89603450716E+01  0.24469677639E+02 -0.13221898226E+02  0.96843212743E+02  0.92329498830E+02 0.  0.
          5    1    3    3  502    0  0.16570807992E+02 -0.13271401848E+02 -0.46729182097E+02  0.51495734231E+02  0.41800000000E+01 0. -1.
         -5    1    3    3    0  502 -0.76104629201E+01 -0.11198275791E+02  0.79040916015E+02  0.80301054358E+02  0.41800000000E+01 0. -1.
        -11    1    4    4    0    0  0.17188685895E+02  0.19691721763E+02 -0.47048571792E+02  0.53821770097E+02  0.00000000000E+00 0.  1.
         11    1    4    4    0    0 -0.26149030967E+02  0.47779558761E+01  0.33826673565E+02  0.43021442646E+02  0.00000000000E+00 0. -1.
</event>
<event>
 8    1  0.6760442E-009  0.2020170E+03  0.7561462E-02  0.1148048E+00
          2   -1    0    0  501    0  0.00000000000E+00  0.00000000000E+00  0.53643345177E+03  0.53643345177E+03  0.00000000000E+00 0. -1.
         -2   -1    0    0    0  501 -0.00000000000E+00 -0.00000000000E+00 -0.89860098719E+02  0.89860098719E+02  0.00000000000E+00 0.  1.
         25    2    1    2    0    0  0.17945890731E+03 -0.53009378729E+02  0.18217095398E+03  0.28956762488E+03  0.12509060419E+03 0.  0.
         23    2    1    2    0    0 -0.17945890731E+03  0.53009378729E+02  0.26440239907E+03  0.33672592561E+03  0.91979490621E+02 0.  0.
          5    1    3    3  502    0  0.33715234887E+02  0.20037085865E+02 -0.67298250332E+01  0.40012058413E+02  0.41800000000E+01 0.  1.
         -5    1    3    3    0  502  0.14574367243E+03 -0.73046464594E+02  0.18890077901E+03  0.24955556646E+03  0.41800000000E+01 0.  1.
        -11    1    4    4    0    0 -0.40285722928E+02  0.47428641947E+02  0.12516473225E+03  0.13978063438E+03  0.00000000000E+00 0.  1.
         11    1    4    4    0    0 -0.13917318439E+03  0.55807367820E+01  0.13923766683E+03  0.19694529123E+03  0.00000000000E+00 0. -1.
</event>
<event>
 8    1  0.6760442E-009  0.1089259E+03  0.7561462E-02  0.1262572E+00
          2   -1    0    0  501    0  0.00000000000E+00  0.00000000000E+00  0.31537600898E+03  0.31537600898E+03  0.00000000000E+00 0. -1.
         -2   -1    0    0    0  501 -0.00000000000E+00 -0.00000000000E+00 -0.52599400211E+02  0.52599400211E+02  0.00000000000E+00 0.  1.
         25    2    1    2    0    0  0.41185570199E+02 -0.12397788777E+02  0.68047636191E+02  0.14875474219E+03  0.12509011221E+03 0.  0.
         23    2    1    2    0    0 -0.41185570199E+02  0.12397788777E+02  0.19472897258E+03  0.21922066701E+03  0.91040494947E+02 0.  0.
          5    1    3    3  502    0 -0.38098169556E+02  0.62620709529E+01 -0.51400465800E+01  0.39173671452E+02  0.41800000000E+01 0.  1.
         -5    1    3    3    0  502  0.79283739755E+02 -0.18659859730E+02  0.73187682771E+02  0.10958107074E+03  0.41800000000E+01 0.  1.
        -11    1    4    4    0    0 -0.47946529342E+02  0.44040112610E+02  0.15405566232E+03  0.16724696795E+03  0.00000000000E+00 0. -1.
         11    1    4    4    0    0  0.67609591431E+01 -0.31642323833E+02  0.40673310262E+02  0.51973699058E+02  0.00000000000E+00 0.  1.
</event>
<event>
 8    1  0.6760442E-009  0.2230282E+03  0.7561462E-02  0.1131645E+00
         -1   -1    0    0    0  501 -0.00000000000E+00  0.00000000000E+00  0.23756606733E+02  0.23756606733E+02  0.00000000000E+00 0.  1.
          1   -1    0    0  501    0  0.00000000000E+00 -0.00000000000E+00 -0.25219450400E+04  0.25219450400E+04  0.00000000000E+00 0. -1.
         25    2    1    2    0    0  0.16636673811E+03 -0.11950378752E+03 -0.17146089292E+04  0.17313261359E+04  0.12508941579E+03 0.  0.
         23    2    1    2    0    0 -0.16636673811E+03  0.11950378752E+03 -0.78357950409E+03  0.81437551087E+03  0.85156248692E+02 0.  0.
          5    1    3    3  502    0  0.16261826856E+03 -0.50819960874E+02 -0.11600910758E+04  0.11725425989E+04  0.41800000000E+01 0.  1.
         -5    1    3    3    0  502  0.37484695409E+01 -0.68683826643E+02 -0.55451785342E+03  0.55878353700E+03  0.41800000000E+01 0.  1.
        -11    1    4    4    0    0 -0.10851994226E+03  0.61204194593E+02 -0.31666345806E+03  0.34029145886E+03  0.00000000000E+00 0. -1.
         11    1    4    4    0    0 -0.57846795842E+02  0.58299592924E+02 -0.46691604603E+03  0.47408405200E+03  0.00000000000E+00 0.  1.
</event>
<event>
 8    1  0.6760442E-009  0.2112114E+03  0.7561462E-02  0.1140610E+00
         -1   -1    0    0    0  501 -0.00000000000E+00  0.00000000000E+00  0.35658973635E+03  0.35658973635E+03  0.00000000000E+00 0.  1.
          1   -1    0    0  501    0  0.00000000000E+00 -0.00000000000E+00 -0.22338928781E+03  0.22338928781E+03  0.00000000000E+00 0. -1.
         25    2    1    2    0    0 -0.36180072869E+02 -0.19675345281E+03  0.23920571404E+03  0.33598761661E+03  0.12508951202E+03 0.  0.
         23    2    1    2    0    0  0.36180072869E+02  0.19675345281E+03 -0.10600526550E+03  0.24399140756E+03  0.90960275844E+02 0.  0.
          5    1    3    3  502    0 -0.44403682259E+02 -0.11512809607E+03  0.56730004954E+02  0.13587468994E+03  0.41800000000E+01 0. -1.
         -5    1    3    3    0  502  0.82236093903E+01 -0.81625356742E+02  0.18247570909E+03  0.20011292667E+03  0.41800000000E+01 0. -1.
        -11    1    4    4    0    0 -0.20001752010E+02  0.12021606539E+03 -0.39644600920E+02  0.12815485493E+03  0.00000000000E+00 0. -1.
         11    1    4    4    0    0  0.56181824879E+02  0.76537387428E+02 -0.66360664580E+02  0.11583655263E+03  0.00000000000E+00 0.  1.
</event>
<event>
 8    1  0.6760442E-009  0.1255896E+03  0.7561462E-02  0.1234151E+00
         -2   -1    0    0    0  501 -0.00000000000E+00  0.00000000000E+00  0.32571584366E+02  0.32571584366E+02  0.00000000000E+00 0. -1.
          2   -1    0    0  501    0  0.00000000000E+00 -0.00000000000E+00 -0.54422598948E+03  0.54422598948E+03  0.00000000000E+00 0.  1.
         25    2    1    2    0    0  0.54740733577E+02 -0.53828109500E+02 -0.31770894522E+03  0.34996986505E+03  0.12508364917E+03 0.  0.
         23    2    1    2    0    0 -0.54740733577E+02  0.53828109500E+02 -0.19394545989E+03  0.22682770879E+03  0.89117645710E+02 0.  0.
          5    1    3    3  502    0  0.88275260646E+02 -0.35762292396E+02 -0.28166572121E+03  0.29736259702E+03  0.41800000000E+01 0.  1.
         -5    1    3    3    0  502 -0.33534527069E+02 -0.18065817103E+02 -0.36043224009E+02  0.52607268037E+02  0.41800000000E+01 0.  1.
        -11    1    4    4    0    0  0.23465023618E+02  0.24700894175E+02 -0.60600998474E+02  0.69521381764E+02  0.00000000000E+00 0.  1.
         11    1    4    4    0    0 -0.78205757195E+02  0.29127215325E+02 -0.13334446142E+03  0.15730632702E+03  0.00000000000E+00 0. -1.
</event>
<event>
 7    1  0.6760442E-009  0.9290638E+02  0.7561462E-02  0.1295962E+00
          2   -1    0    0  501    0  0.00000000000E+00  0.00000000000E+00  0.48975275363E+03  0.48975275363E+03  0.00000000000E+00 0. -1.
         -2   -1    0    0    0  501 -0.00000000000E+00 -0.00000000000E+00 -0.27583644982E+02  0.27583644982E+02  0.00000000000E+00 0.  1.
         25    2    1    2    0    0 -0.27264025307E+02  0.69918663790E+02  0.28242724684E+03  0.31787168565E+03  0.12508122223E+03 0.  0.
          5    1    3    3  502    0  0.26760036413E+02  0.76654417456E+01  0.19732446225E+03  0.19932203678E+03  0.41800000000E+01 0.  1.
         -5    1    3    3    0  502 -0.54024061719E+02  0.62253222044E+02  0.85102784595E+02  0.11854964886E+03  0.41800000000E+01 0.  1.
        -11    1    1    2    0    0  0.83325127162E+01 -0.26132463529E+02  0.23553631046E+02  0.36153975629E+02  0.00000000000E+00 0.  1.
         11    1    1    2    0    0  0.18931512590E+02 -0.43786200261E+02  0.15618823076E+03  0.16331073734E+03  0.00000000000E+00 0. -1.
</event>
<event>
 8    1  0.6760442E-009  0.8425115E+02  0.7561462E-02  0.1317403E+00
          1   -1    0    0  501    0  0.00000000000E+00  0.00000000000E+00  0.11289300348E+03  0.11289300348E+03  0.00000000000E+00 0. -1.
         -1   -1    0    0    0  501 -0.00000000000E+00 -0.00000000000E+00 -0.11363991506E+03  0.11363991506E+03  0.00000000000E+00 0.  1.
         25    2    1    2    0    0  0.99796136413E+01  0.20769245850E+02 -0.24676141552E+02  0.12956624677E+03  0.12509015180E+03 0.  0.
         23    2    1    2    0    0 -0.99796136413E+01 -0.20769245850E+02  0.23929229978E+02  0.96966671770E+02  0.91098699910E+02 0.  0.
          5    1    3    3  502    0 -0.55321732315E+02  0.24070379439E+02 -0.20726266003E+02  0.63929083640E+02  0.41800000000E+01 0. -1.
         -5    1    3    3    0  502  0.65301345956E+02 -0.33011335891E+01 -0.39498755492E+01  0.65637163128E+02  0.41800000000E+01 0. -1.
        -11    1    4    4    0    0  0.52697852274E+01 -0.25890750508E+02 -0.30416703583E+02  0.40289917536E+02  0.00000000000E+00 0.  1.
         11    1    4    4    0    0 -0.15249398869E+02  0.51215046584E+01  0.54345933561E+02  0.56676754234E+02  0.00000000000E+00 0. -1.
</event>
<event>
 8    1  0.6760442E-009  0.1045534E+03  0.7561462E-02  0.1271002E+00
          1   -1    0    0  501    0  0.00000000000E+00  0.00000000000E+00  0.47019412844E+02  0.47019412844E+02  0.00000000000E+00 0. -1.
         -1   -1    0    0    0  501 -0.00000000000E+00 -0.00000000000E+00 -0.42068755832E+03  0.42068755832E+03  0.00000000000E+00 0.  1.
         25    2    1    2    0    0  0.40262816906E+02  0.62876165984E+02 -0.12486347116E+03  0.19183793573E+03  0.12504559360E+03 0.  0.
         23    2    1    2    0    0 -0.40262816906E+02 -0.62876165984E+02 -0.24880467431E+03  0.27586903543E+03  0.92873311985E+02 0.  0.
          5    1    3    3  502    0  0.15625051297E+02 -0.67002398416E+01  0.21582078293E+02  0.27790177139E+02  0.41800000000E+01 0.  1.
         -5    1    3    3    0  502  0.24637765609E+02  0.69576405826E+02 -0.14644554946E+03  0.16404775859E+03  0.41800000000E+01 0.  1.
        -11    1    4    4    0    0 -0.64758848810E+02 -0.19115848431E+02 -0.12078155164E+03  0.13837379585E+03  0.00000000000E+00 0.  1.
         11    1    4    4    0    0  0.24496031903E+02 -0.43760317553E+02 -0.12802312266E+03  0.13749523958E+03  0.00000000000E+00 0. -1.
</event>
<event>
 8    1  0.6760442E-009  0.8322211E+02  0.7561462E-02  0.1320148E+00
          2   -1    0    0  501    0  0.00000000000E+00  0.00000000000E+00  0.11340325131E+03  0.11340325131E+03  0.00000000000E+00 0. -1.
         -2   -1    0    0    0  501 -0.00000000000E+00 -0.00000000000E+00 -0.12371389903E+03  0.12371389903E+03  0.00000000000E+00 0.  1.
         25    2    1    2    0    0  0.12896123879E+02 -0.42258666921E+02 -0.26504052513E+02  0.13527960600E+03  0.12508398003E+03 0.  0.
         23    2    1    2    0    0 -0.12896123879E+02  0.42258666921E+02  0.16193404788E+02  0.10183754434E+03  0.90313643140E+02 0.  0.
          5    1    3    3  502    0  0.36859561698E+02 -0.59889731861E+01  0.40533753355E+02  0.55271626079E+02  0.41800000000E+01 0. -1.
         -5    1    3    3    0  502 -0.23963437819E+02 -0.36269693735E+02 -0.67037805869E+02  0.80007979923E+02  0.41800000000E+01 0. -1.
        -11    1    4    4    0    0  0.18934752976E+02 -0.11909075825E+02 -0.19416151455E+02  0.29619890185E+02  0.00000000000E+00 0.  1.
         11    1    4    4    0    0 -0.31830876855E+02  0.54167742746E+02  0.35609556243E+02  0.72217654153E+02  0.00000000000E+00 0. -1.
</event>
<event>
 8    1  0.6760442E-009  0.1306910E+03  0.7561462E-02  0.1226434E+00
         -2   -1    0    0    0  501 -0.00000000000E+00  0.00000000000E+00  0.16201800497E+03  0.16201800497E+03  0.00000000000E+00 0.  1.
          2   -1    0    0  501    0  0.00000000000E+00 -0.00000000000E+00 -0.13732625755E+03  0.13732625755E+03  0.00000000000E+00 0. -1.
         25    2    1    2    0    0 -0.91023890572E+02 -0.44813874610E+02  0.32770973454E+02  0.16437332288E+03  0.12510403895E+03 0.  0.
         23    2    1    2    0    0  0.91023890572E+02  0.44813874610E+02 -0.80792260427E+01  0.13497093964E+03  0.88646763287E+02 0.  0.
          5    1    3    3  502    0 -0.10708262265E+03  0.47935681700E+01  0.32418514073E+02  0.11206292350E+03  0.41800000000E+01 0. -1.
         -5    1    3    3    0  502  0.16058732079E+02 -0.49607442780E+02  0.35245938173E+00  0.52310399375E+02  0.41800000000E+01 0. -1.
        -11    1    4    4    0    0  0.16264372378E+02  0.11706108666E+02  0.36651916397E+02  0.41772308585E+02  0.00000000000E+00 0.  1.
         11    1    4    4    0    0  0.74759518194E+02  0.33107765945E+02 -0.44731142440E+02  0.93198631054E+02  0.00000000000E+00 0. -1.
</event>
<event>
 8    1  0.6760442E-009  0.1144452E+03  0.7561462E-02  0.1252553E+00
         -2   -1    0    0    0  501 -0.00000000000E+00  0.00000000000E+00  0.17824258655E+03  0.17824258655E+03  0.00000000000E+00 0.  1.
          2   -1    0    0  501    0  0.00000000000E+00 -0.00000000000E+00 -0.82736237845E+02  0.82736237845E+02  0.00000000000E+00 0. -1.
         25    2    1    2    0    0  0.35784761599E+02 -0.40288200910E+02  0.79470314237E+02  0.15768915580E+03  0.12508657289E+03 0.  0.
         23    2    1    2    0    0 -0.35784761599E+02  0.40288200910E+02  0.16036034464E+02  0.10328966859E+03  0.86648213721E+02 0.  0.
          5    1    3    3  502    0  0.67924692960E+02 -0.65575813150E+02  0.48531837232E+02  0.10623917737E+03  0.41800000000E+01 0. -1.
         -5    1    3    3    0  502 -0.32139931361E+02  0.25287612240E+02  0.30938477005E+02  0.51449978426E+02  0.41800000000E+01 0. -1.
        -11    1    4    4    0    0 -0.41542517235E+02  0.59866474619E+02 -0.61720195611E+01  0.73129127897E+02  0.00000000000E+00 0. -1.
         11    1    4    4    0    0  0.57577556362E+01 -0.19578273709E+02  0.22208054025E+02  0.30160540694E+02  0.00000000000E+00 0.  1.
</event>
<event>
 8    1  0.6760442E-009  0.7721069E+02  0.7561462E-02  0.1337159E+00
          2   -1    0    0  501    0  0.00000000000E+00  0.00000000000E+00  0.29155265034E+02  0.29155265034E+02  0.00000000000E+00 0.  1.
         -2   -1    0    0    0  501 -0.00000000000E+00 -0.00000000000E+00 -0.46426598578E+03  0.46426598578E+03  0.00000000000E+00 0. -1.
         25    2    1    2    0    0  0.23397252075E+02  0.32194663333E+02 -0.24347014996E+03  0.27660184466E+03  0.12508772441E+03 0.  0.
         23    2    1    2    0    0 -0.23397252075E+02 -0.32194663333E+02 -0.19164057079E+03  0.21681940615E+03  0.93277107379E+02 0.  0.
          5    1    3    3  502    0 -0.10468106065E+02  0.14430882797E+02 -0.23686243389E+03  0.23756918279E+03  0.41800000000E+01 0.  1.
         -5    1    3    3    0  502  0.33865358139E+02  0.17763780535E+02 -0.66077160635E+01  0.39032661867E+02  0.41800000000E+01 0.  1.
        -11    1    4    4    0    0 -0.36118744100E+02  0.21786580438E+02 -0.54700531099E+02  0.69075081361E+02  0.00000000000E+00 0.  1.
         11    1    4    4    0    0  0.12721492025E+02 -0.53981243770E+02 -0.13694003969E+03  0.14774432479E+03  0.00000000000E+00 0. -1.
</event>
<event>
 8    1  0.6760442E-009  0.6682897E+02  0.7561462E-02  0.1371221E+00
          2   -1    0    0  501    0  0.00000000000E+00  0.00000000000E+00  0.49484219472E+02  0.49484219472E+02  0.00000000000E+00 0. -1.
         -2   -1    0    0    0  501 -0.00000000000E+00 -0.00000000000E+00 -0.26876492539E+03  0.26876492539E+03  0.00000000000E+00 0.  1.
         25    2    1    2    0    0  0.33617188198E+02 -0.33559013668E+02 -0.12279807089E+03  0.18161020103E+03  0.12508627488E+03 0.  0.
         23    2    1    2    0    0 -0.33617188198E+02  0.33559013668E+02 -0.96482635034E+02  0.13663894384E+03  0.84291039670E+02 0.  0.
          5    1    3    3  502    0 -0.87284067584E+00 -0.96265760339E+01 -0.13676562423E+03  0.13717048221E+03  0.41800000000E+01 0. -1.
         -5    1    3    3    0  502  0.34490028874E+02 -0.23932437635E+02  0.13967553344E+02  0.44439718825E+02  0.41800000000E+01 0. -1.
        -11    1    4    4    0    0  0.17071786248E+02  0.23847412968E+02 -0.75372844529E+02  0.80877751473E+02  0.00000000000E+00 0.  1.
         11    1    4    4    0    0 -0.50688974446E+02  0.97116007004E+01 -0.21109790505E+02  0.55761192362E+02  0.00000000000E+00 0. -1.
</event>
<event>
 8    1  0.6760442E-009  0.1618925E+03  0.7561462E-02  0.1186577E+00
         -1   -1    0    0    0  501 -0.00000000000E+00  0.00000000000E+00  0.91952025589E+03  0.91952025589E+03  0.00000000000E+00 0.  1.
          1   -1    0    0  501    0  0.00000000000E+00 -0.00000000000E+00 -0.42078076715E+02  0.42078076715E+02  0.00000000000E+00 0. -1.
         25    2    1    2    0    0  0.14356211054E+03  0.39290346257E+02  0.29287379654E+03  0.35153379793E+03  0.12508852665E+03 0.  0.
         23    2    1    2    0    0 -0.14356211054E+03 -0.39290346257E+02  0.58456838263E+03  0.61006453466E+03  0.91130300090E+02 0.  0.
          5    1    3    3  502    0  0.73716198424E+02  0.29761694439E+02  0.26313020176E+03  0.27490873366E+03  0.41800000000E+01 0. -1.
         -5    1    3    3    0  502  0.69845912111E+02  0.95286518183E+01  0.29743594780E+02  0.76625064271E+02  0.41800000000E+01 0. -1.
        -11    1    4    4    0    0 -0.44284543184E+02 -0.57552020215E+02  0.27667875693E+03  0.28604980394E+03  0.00000000000E+00 0.  1.
         11    1    4    4    0    0 -0.99277567352E+02  0.18261673958E+02  0.30788962570E+03  0.32401473073E+03  0.00000000000E+00 0. -1.
</event>
<event>
 8    1  0.6760442E-009  0.1284244E+03  0.7561462E-02  0.1229813E+00
          2   -1    0    0  501    0  0.00000000000E+00  0.00000000000E+00  0.11697366249E+04  0.11697366249E+04  0.00000000000E+00 0. -1.
         -2   -1    0    0    0  501 -0.00000000000E+00 -0.00000000000E+00 -0.20035777698E+02  0.20035777698E+02  0.00000000000E+00 0.  1.
         25    2    1    2    0    0  0.10923089703E+02  0.10036124253E+03  0.77248087904E+03  0.78902854971E+03  0.12509057071E+03 0.  0.
         23    2    1    2    0    0 -0.10923089703E+02 -0.10036124253E+03  0.37721996816E+03  0.40074385289E+03  0.90050199095E+02 0.  0.
          5    1    3    3  502    0 -0.52012074054E+02  0.55131274166E+02  0.49924588462E+03  0.50498380068E+03  0.41800000000E+01 0. -1.
         -5    1    3    3    0  502  0.62935163756E+02  0.45229968366E+02  0.27323499442E+03  0.28404474903E+03  0.41800000000E+01 0. -1.
        -11    1    4    4    0    0  0.61562705335E+01 -0.44120275042E+02  0.44840335080E+02  0.63207230494E+02  0.00000000000E+00 0.  1.
         11    1    4    4    0    0 -0.17079360236E+02 -0.56240967490E+02  0.33237963308E+03  0.33753662239E+03  0.00000000000E+00 0. -1.
</event>
<event>
 8    1  0.6760442E-009  0.1164777E+03  0.7561462E-02  0.1249023E+00
          3   -1    0    0  501    0  0.00000000000E+00  0.00000000000E+00  0.42868976184E+03  0.42868976184E+03  0.00000000000E+00 0. -1.
         -3   -1    0    0    0  501 -0.00000000000E+00 -0.00000000000E+00 -0.37989296274E+02  0.37989296274E+02  0.00000000000E+00 0.  1.
         25    2    1    2    0    0  0.16332667957E+02  0.65510496008E+02  0.20218983512E+03  0.24715717240E+03  0.12509019670E+03 0.  0.
         23    2    1    2    0    0 -0.16332667957E+02 -0.65510496008E+02  0.18851063045E+03  0.21952188572E+03  0.89973437126E+02 0.  0.
          5    1    3    3  502    0  0.30031982602E+02 -0.28447521129E+02  0.96167454740E+02  0.10477038316E+03  0.41800000000E+01 0.  1.
         -5    1    3    3    0  502 -0.13699314645E+02  0.93958017138E+02  0.10602238038E+03  0.14238678923E+03  0.41800000000E+01 0.  1.
        -11    1    4    4    0    0 -0.27232163924E+02  0.26017531059E+01  0.11703600068E+03  0.12019062079E+03  0.00000000000E+00 0. -1.
         11    1    4    4    0    0  0.10899495967E+02 -0.68112249114E+02  0.71474629769E+02  0.99331264929E+02  0.00000000000E+00 0.  1.
</event>
<event>
 8    1  0.6760442E-009  0.1293340E+03  0.7561462E-02  0.1228447E+00
         -2   -1    0    0    0  501 -0.00000000000E+00  0.00000000000E+00  0.24184441751E+03  0.24184441751E+03  0.00000000000E+00 0.  1.
          2   -1    0    0  501    0  0.00000000000E+00 -0.00000000000E+00 -0.12398855460E+03  0.12398855460E+03  0.00000000000E+00 0. -1.
         25    2    1    2    0    0 -0.93155372313E+02 -0.26741619404E+02 -0.33201627417E+02  0.16169036278E+03  0.12509351603E+03 0.  0.
         23    2    1    2    0    0  0.93155372313E+02  0.26741619404E+02  0.15105749032E+03  0.20414260933E+03  0.97276934383E+02 0.  0.
          5    1    3    3  502    0 -0.40454609294E+02  0.25675273033E+02  0.35976937300E+02  0.60063362176E+02  0.41800000000E+01 0.  1.
         -5    1    3    3    0  502 -0.52700763020E+02 -0.52416892437E+02 -0.69178564717E+02  0.10162700060E+03  0.41800000000E+01 0.  1.
        -11    1    4    4    0    0  0.10203603549E+03 -0.59877907697E+01  0.12441219520E+03  0.16101428661E+03  0.00000000000E+00 0.  1.
         11    1    4    4    0    0 -0.88806631786E+01  0.32729410174E+02  0.26645295122E+02  0.43128322724E+02  0.00000000000E+00 0. -1.
</event>
<event>
 8    1  0.6760442E-009  0.7469593E+02  0.7561462E-02  0.1344815E+00
          2   -1    0    0  501    0  0.00000000000E+00  0.00000000000E+00  0.51278784720E+03  0.51278784720E+03  0.00000000000E+00 0. -1.
         -2   -1    0    0    0  501 -0.00000000000E+00 -0.00000000000E+00 -0.24734681578E+02  0.24734681578E+02  0.00000000000E+00 0.  1.
         25    2    1    2    0    0  0.19623905620E+02 -0.29140040482E+02  0.28364030090E+03  0.31198381665E+03  0.12509133432E+03 0.  0.
         23    2    1    2    0    0 -0.19623905620E+02  0.29140040482E+02  0.20441286472E+03  0.22553871214E+03  0.88593745693E+02 0.  0.
          5    1    3    3  502    0 -0.29433269560E+01  0.85917386296E+01  0.26307787002E+03  0.26326777098E+03  0.41800000000E+01 0. -1.
         -5    1    3    3    0  502  0.22567232576E+02 -0.37731779112E+02  0.20562430884E+02  0.48716045662E+02  0.41800000000E+01 0. -1.
        -11    1    4    4    0    0 -0.23375203502E+02 -0.28843241687E+02  0.75367628245E+02  0.84015546877E+02  0.00000000000E+00 0. -1.
         11    1    4    4    0    0  0.37512978822E+01  0.57983282169E+02  0.12904523648E+03  0.14152316526E+03  0.00000000000E+00 0.  1.
</event>
<event>
 8    1  0.6760442E-009  0.1275560E+03  0.7561462E-02  0.1231128E+00
          2   -1    0    0  501    0  0.00000000000E+00  0.00000000000E+00  0.52456801766E+03  0.52456801766E+03  0.00000000000E+00 0.  1.
         -2   -1    0    0    0  501 -0.00000000000E+00 -0.00000000000E+00 -0.47068651981E+02  0.47068651981E+02  0.00000000000E+00 0. -1.
         25    2    1    2    0    0  0.20573833492E+02  0.10835167706E+03  0.30368126869E+03  0.34645440095E+03  0.12507985625E+03 0.  0.
         23    2    1    2    0    0 -0.20573833492E+02 -0.10835167706E+03  0.17381809699E+03  0.22518226868E+03  0.91274063915E+02 0.  0.
          5    1    3    3  502    0  0.43734912559E+02  0.66083928167E+02  0.28286880534E+03  0.29378914475E+03  0.41800000000E+01 0.  1.
         -5    1    3    3    0  502 -0.23161079068E+02  0.42267748893E+02  0.20812463346E+02  0.52665256199E+02  0.41800000000E+01 0.  1.
        -11    1    4    4    0    0  0.13051495915E+02 -0.86038705059E+02  0.63536905639E+02  0.10774942548E+03  0.00000000000E+00 0. -1.
         11    1    4    4    0    0 -0.33625329407E+02 -0.22312972001E+02  0.11028119135E+03  0.11743284320E+03  0.00000000000E+00 0.  1.
</event>
<event>
 8    1  0.6760442E-009  0.1036267E+03  0.7561462E-02  0.1272849E+00
          2   -1    0    0  501    0  0.00000000000E+00  0.00000000000E+00  0.10774847602E+03  0.10774847602E+03  0.00000000000E+00 0. -1.
         -2   -1    0    0    0  501 -0.00000000000E+00 -0.00000000000E+00 -0.14110940332E+03  0.14110940332E+03  0.00000000000E+00 0.  1.
         25    2    1    2    0    0  0.20678835810E+02 -0.47366068362E+02 -0.48617089965E+02  0.14381331726E+03  0.12508992806E+03 0.  0.
         23    2    1    2    0    0 -0.20678835810E+02  0.47366068362E+02  0.15256162670E+02  0.10504456209E+03  0.90169012650E+02 0.  0.
          5    1    3    3  502    0 -0.41041980947E+02  0.15269905633E+02 -0.16212142172E+01  0.44019483796E+02  0.41800000000E+01 0.  1.
         -5    1    3    3    0  502  0.61720816758E+02 -0.62635973995E+02 -0.46995875748E+02  0.99793833461E+02  0.41800000000E+01 0.  1.
        -11    1    4    4    0    0 -0.10366899331E+02 -0.11490299210E+02 -0.27510040632E+02  0.31564250557E+02  0.00000000000E+00 0.  1.
         11    1    4    4    0    0 -0.10311936479E+02  0.58856367572E+02  0.42766203302E+02  0.73480311531E+02  0.00000000000E+00 0. -1.
</event>
<event>
 8    1  0.6760442E-009  0.1138684E+03  0.7561462E-02  0.1253569E+00
          2   -1    0    0  501    0  0.00000000000E+00  0.00000000000E+00  0.20881602878E+03  0.20881602878E+03  0.00000000000E+00 0. -1.
         -2   -1    0    0    0  501 -0.00000000000E+00 -0.00000000000E+00 -0.73854182999E+02  0.73854182999E+02  0.00000000000E+00 0.  1.
         25    2    1    2    0    0 -0.33923023547E+02  0.45444277371E+02  0.10086655609E+03  0.17040350674E+03  0.12508932448E+03 0.  0.
         23    2    1    2    0    0  0.33923023547E+02 -0.45444277371E+02  0.34095289684E+02  0.11226670503E+03  0.90693827838E+02 0.  0.
          5    1    3    3  502    0 -0.47378612602E+02  0.83868256938E+02  0.70433926917E+02  0.11940279693E+03  0.41800000000E+01 0.  1.
         -5    1    3    3    0  502  0.13455589055E+02 -0.38423979567E+02  0.30432629176E+02  0.51000709810E+02  0.41800000000E+01 0.  1.
        -11    1    4    4    0    0 -0.17163099241E+02 -0.33934702640E+02  0.44855470030E+02  0.58806030392E+02  0.00000000000E+00 0. -1.
         11    1    4    4    0    0  0.51086122788E+02 -0.11509574731E+02 -0.10760180346E+02  0.53460674641E+02  0.00000000000E+00 0.  1.
</event>
<event>
 8    1  0.6760442E-009  0.9543894E+02  0.7561462E-02  0.1290191E+00
         -2   -1    0    0    0  501 -0.00000000000E+00  0.00000000000E+00  0.27954854120E+02  0.27954854120E+02  0.00000000000E+00 0.  1.
          2   -1    0    0  501    0  0.00000000000E+00 -0.00000000000E+00 -0.10261248011E+04  0.10261248011E+04  0.00000000000E+00 0. -1.
         25    2    1    2    0    0 -0.17799841752E+02 -0.41847930214E+02 -0.89171532025E+03  0.90159605999E+03  0.12510459379E+03 0.  0.
         23    2    1    2    0    0  0.17799841752E+02  0.41847930214E+02 -0.10645462673E+03  0.15248359523E+03  0.99250066160E+02 0.  0.
          5    1    3    3  502    0 -0.33520329063E+01 -0.68008964515E+02 -0.24909981029E+03  0.25827242064E+03  0.41800000000E+01 0. -1.
         -5    1    3    3    0  502 -0.14447808845E+02  0.26161034302E+02 -0.64261550996E+03  0.64332363934E+03  0.41800000000E+01 0. -1.
        -11    1    4    4    0    0 -0.31251053882E+02  0.62372588545E+01 -0.22687168096E+01  0.31948064772E+02  0.00000000000E+00 0.  1.
         11    1    4    4    0    0  0.49050895633E+02  0.35610671359E+02 -0.10418590992E+03  0.12053553046E+03  0.00000000000E+00 0. -1.
</event>
<event>
 8    1  0.6760442E-009  0.6811183E+02  0.7561462E-02  0.1366634E+00
         -1   -1    0    0    0  501 -0.00000000000E+00  0.00000000000E+00  0.11926968671E+03  0.11926968671E+03  0.00000000000E+00 0.  1.
          1   -1    0    0  501    0  0.00000000000E+00 -0.00000000000E+00 -0.12649604312E+03  0.12649604312E+03  0.00000000000E+00 0. -1.
         25    2    1    2    0    0  0.60437942831E+01 -0.37490089215E+02  0.32334879040E+02  0.13467288076E+03  0.12509678721E+03 0.  0.
         23    2    1    2    0    0 -0.60437942831E+01  0.37490089215E+02 -0.39561235453E+02  0.11109284906E+03  0.96615193027E+02 0.  0.
          5    1    3    3  502    0 -0.14655217320E+02 -0.30188105500E+02 -0.43795218052E+02  0.55331642237E+02  0.41800000000E+01 0.  1.
         -5    1    3    3    0  502  0.20699011603E+02 -0.73019837151E+01  0.76130097092E+02  0.79341238525E+02  0.41800000000E+01 0.  1.
        -11    1    4    4    0    0 -0.37461365291E+02  0.29400790333E+02 -0.56988515466E+02  0.74266084162E+02  0.00000000000E+00 0. -1.
         11    1    4    4    0    0  0.31417571008E+02  0.80892988825E+01  0.17427280013E+02  0.36826764902E+02  0.00000000000E+00 0.  1.
</event>
<event>
 8    1  0.6760442E-009  0.1391689E+03  0.7561462E-02  0.1214452E+00
         -2   -1    0    0    0  501 -0.00000000000E+00  0.00000000000E+00  0.49112003639E+02  0.49112003639E+02  0.00000000000E+00 0.  1.
          2   -1    0    0  501    0  0.00000000000E+00 -0.00000000000E+00 -0.48992616965E+03  0.48992616965E+03  0.00000000000E+00 0. -1.
         25    2    1    2    0    0  0.99529678389E+02 -0.46818020196E+01 -0.15366720130E+03  0.22178780887E+03  0.12509255477E+03 0.  0.
         23    2    1    2    0    0 -0.99529678389E+02  0.46818020196E+01 -0.28714696471E+03  0.31725036442E+03  0.90919405134E+02 0.  0.
          5    1    3    3  502    0  0.78562019167E+02 -0.50568137579E+02 -0.14168176228E+03  0.16976548989E+03  0.41800000000E+01 0. -1.
         -5    1    3    3    0  502  0.20967659221E+02  0.45886335560E+02 -0.11985439026E+02  0.52022318989E+02  0.41800000000E+01 0. -1.
        -11    1    4    4    0    0 -0.59814046510E+02  0.47063286024E+02 -0.14672524933E+03  0.16529056791E+03  0.00000000000E+00 0.  1.
         11    1    4    4    0    0 -0.39715631879E+02 -0.42381484005E+02 -0.14042171538E+03  0.15195979650E+03  0.00000000000E+00 0. -1.
</event>
<event>
 8    1  0.6760442E-009  0.1706001E+03  0.7561462E-02  0.1177223E+00
         -1   -1    0    0    0  501 -0.00000000000E+00  0.00000000000E+00  0.30983470809E+02  0.30983470809E+02  0.00000000000E+00 0.  1.
          1   -1    0    0  501    0  0.00000000000E+00 -0.00000000000E+00 -0.10693932573E+04  0.10693932573E+04  0.00000000000E+00 0. -1.
         25    2    1    2    0    0 -0.96036428891E+02 -0.10381471405E+03 -0.65646920451E+03  0.68307182685E+03  0.12503924842E+03 0.  0.
         23    2    1    2    0    0  0.96036428891E+02  0.10381471405E+03 -0.38194058202E+03  0.41730490130E+03  0.90908096032E+02 0.  0.
          5    1    3    3  502    0 -0.10447120301E+03 -0.11793618904E+03 -0.46772078537E+03  0.49356193371E+03  0.41800000000E+01 0. -1.
         -5    1    3    3    0  502  0.84347741229E+01  0.14121474990E+02 -0.18874841914E+03  0.18950989314E+03  0.41800000000E+01 0. -1.
        -11    1    4    4    0    0  0.96665050888E+02  0.42993332901E+02 -0.21478350484E+03  0.23942538021E+03  0.00000000000E+00 0.  1.
         11    1    4    4    0    0 -0.62862199736E+00  0.60821381145E+02 -0.16715707719E+03  0.17787952109E+03  0.00000000000E+00 0. -1.
</event>
<event>
 8    1  0.6760442E-009  0.2127861E+03  0.7561462E-02  0.1139378E+00
         -2   -1    0    0    0  501 -0.00000000000E+00  0.00000000000E+00  0.17021544411E+02  0.17021544411E+02  0.00000000000E+00 0.  1.
          2   -1    0    0  501    0  0.00000000000E+00 -0.00000000000E+00 -0.31198826537E+04  0.31198826537E+04  0.00000000000E+00 0. -1.
         25    2    1    2    0    0 -0.97337314449E+02 -0.17197022725E+03 -0.19089831476E+04  0.19232555757E+04  0.12508812663E+03 0.  0.
         23    2    1    2    0    0  0.97337314449E+02  0.17197022725E+03 -0.11938779617E+04  0.12136486225E+04  0.92466640823E+02 0.  0.
          5    1    3    3  502    0  0.41586631034E+01  0.21386339001E+01 -0.35848302903E+01  0.72243783107E+01  0.41800000000E+01 0.  1.
         -5    1    3    3    0  502 -0.10149597755E+03 -0.17410886115E+03 -0.19053983174E+04  0.19160311973E+04  0.41800000000E+01 0.  1.
        -11    1    4    4    0    0  0.19347854280E+01  0.95332074119E+02 -0.56165256892E+03  0.56968899930E+03  0.00000000000E+00 0.  1.
         11    1    4    4    0    0  0.95402529021E+02  0.76638153132E+02 -0.63222539274E+03  0.64395962318E+03  0.00000000000E+00 0. -1.
</event>
<event>
 8    1  0.6760442E-009  0.1127420E+03  0.7561462E-02  0.1255575E+00
          1   -1    0    0  501    0  0.00000000000E+00  0.00000000000E+00  0.35662127692E+03  0.35662127692E+03  0.00000000000E+00 0. -1.
         -1   -1    0    0    0  501 -0.00000000000E+00 -0.00000000000E+00 -0.38634119066E+02  0.38634119066E+02  0.00000000000E+00 0.  1.
         25    2    1    2    0    0  0.12455944250E+02  0.35290444701E+02  0.21601713938E+03  0.25240903606E+03  0.12508537462E+03 0.  0.
         23    2    1    2    0    0 -0.12455944250E+02 -0.35290444701E+02  0.10197001847E+03  0.14284635992E+03  0.92771934559E+02 0.  0.
          5    1    3    3  502    0 -0.18718920231E+02  0.73788525877E+02  0.96632493103E+02  0.12308718718E+03  0.41800000000E+01 0. -1.
         -5    1    3    3    0  502  0.31174864481E+02 -0.38498081176E+02  0.11938464628E+03  0.12932184888E+03  0.41800000000E+01 0. -1.
        -11    1    4    4    0    0 -0.31587258176E+02  0.22417248937E+02  0.46796470859E+02  0.60746996748E+02  0.00000000000E+00 0. -1.
         11    1    4    4    0    0  0.19131313926E+02 -0.57707693638E+02  0.55173547610E+02  0.82099363173E+02  0.00000000000E+00 0.  1.
</event>
<event>
 8    1  0.6760442E-009  0.1242751E+03  0.7561462E-02  0.1236207E+00
         -1   -1    0    0    0  501 -0.00000000000E+00  0.00000000000E+00  0.26238358618E+02  0.26238358618E+02  0.00000000000E+00 0.  1.
          1   -1    0    0  501    0  0.00000000000E+00 -0.00000000000E+00 -0.76813819407E+03  0.76813819407E+03  0.00000000000E+00 0. -1.
         25    2    1    2    0    0 -0.55266952368E+02  0.28773427472E+02 -0.58708467462E+03  0.60348326346E+03  0.12506513482E+03 0.  0.
         23    2    1    2    0    0  0.55266952368E+02 -0.28773427472E+02 -0.15481516083E+03  0.19089328923E+03  0.92683157568E+02 0.  0.
          5    1    3    3  502    0 -0.89696853014E+02 -0.67649494871E+01 -0.38337309724E+03  0.39380667093E+03  0.41800000000E+01 0. -1.
         -5    1    3    3    0  502  0.34429900646E+02  0.35538376959E+02 -0.20371157738E+03  0.20967659253E+03  0.41800000000E+01 0. -1.
        -11    1    4    4    0    0  0.78117677386E+02 -0.90161678866E+01 -0.12938217339E+03  0.15140478723E+03  0.00000000000E+00 0. -1.
         11    1    4    4    0    0 -0.22850725019E+02 -0.19757259585E+02 -0.25432987436E+02  0.39488501999E+02  0.00000000000E+00 0.  1.
</event>
<event>
 8    1  0.6760442E-009  0.1208599E+03  0.7561462E-02  0.1241685E+00
         -2   -1    0    0    0  501 -0.00000000000E+00  0.00000000000E+00  0.72771713686E+02  0.72771713686E+02  0.00000000000E+00 0.  1.
          2   -1    0    0  501    0  0.00000000000E+00 -0.00000000000E+00 -0.24784646342E+03  0.24784646342E+03  0.00000000000E+00 0. -1.
         25    2    1    2    0    0  0.33189012586E+02  0.78748099247E+02 -0.97402175880E+02  0.18010446642E+03  0.12509061222E+03 0.  0.
         23    2    1    2    0    0 -0.33189012586E+02 -0.78748099247E+02 -0.77672573854E+02  0.14051371069E+03  0.80051861131E+02 0.  0.
          5    1    3    3  502    0 -0.15102569409E+02 -0.29166184981E+02 -0.18849394953E+02  0.38098898136E+02  0.41800000000E+01 0. -1.
         -5    1    3    3    0  502  0.48291581994E+02  0.10791428423E+03 -0.78552780927E+02  0.14200556828E+03  0.41800000000E+01 0. -1.
        -11    1    4    4    0    0 -0.32764002036E+02 -0.40653430735E+02 -0.86841082444E+02  0.10132894384E+03  0.00000000000E+00 0.  1.
         11    1    4    4    0    0 -0.42501055009E+00 -0.38094668512E+02  0.91685085899E+01  0.39184766846E+02  0.00000000000E+00 0. -1.
</event>
<event>
 8    1  0.6760442E-009  0.1665762E+03  0.7561462E-02  0.1181466E+00
         -1   -1    0    0    0  501 -0.00000000000E+00  0.00000000000E+00  0.32156379041E+03  0.32156379041E+03  0.00000000000E+00 0.  1.
          1   -1    0    0  501    0  0.00000000000E+00 -0.00000000000E+00 -0.96314290737E+02  0.96314290737E+02  0.00000000000E+00 0. -1.
         25    2    1    2    0    0 -0.54909311855E+02 -0.12260982133E+03  0.15838481197E+03  0.24245006436E+03  0.12509230283E+03 0.  0.
         23    2    1    2    0    0  0.54909311855E+02  0.12260982133E+03  0.66864687702E+02  0.17542801679E+03  0.90861993155E+02 0.  0.
          5    1    3    3  502    0 -0.79713361409E+02 -0.13238965389E+03  0.14642891033E+03  0.21293223951E+03  0.41800000000E+01 0. -1.
         -5    1    3    3    0  502  0.24804049554E+02  0.97798325605E+01  0.11955901644E+02  0.29517824841E+02  0.41800000000E+01 0. -1.
        -11    1    4    4    0    0  0.47807827727E+02  0.25462614471E+02 -0.49770133673E+01  0.54393968321E+02  0.00000000000E+00 0. -1.
         11    1    4    4    0    0  0.71014841276E+01  0.97147206859E+02  0.71841701069E+02  0.12103404847E+03  0.00000000000E+00 0.  1.
</event>
<event>
 8    1  0.6760442E-009  0.1785499E+03  0.7561462E-02  0.1169214E+00
          1   -1    0    0  501    0  0.00000000000E+00  0.00000000000E+00  0.90421670466E+02  0.90421670466E+02  0.00000000000E+00 0. -1.
         -1   -1    0    0    0  501 -0.00000000000E+00 -0.00000000000E+00 -0.37844935757E+03  0.37844935757E+03  0.00000000000E+00 0.  1.
         25    2    1    2    0    0  0.12753754077E+03  0.66128660784E+02 -0.94209673419E+02  0.21251422236E+03  0.12509199838E+03 0.  0.
         23    2    1    2    0    0 -0.12753754077E+03 -0.66128660784E+02 -0.19381801368E+03  0.25635680567E+03  0.86686592406E+02 0.  0.
          5    1    3    3  502    0  0.34101215610E+02 -0.36840903431E+02 -0.15609942748E+02  0.52737916002E+02  0.41800000000E+01 0.  1.
         -5    1    3    3    0  502  0.93436325156E+02  0.10296956421E+03 -0.78599730670E+02  0.15977630636E+03  0.41800000000E+01 0.  1.
        -11    1    4    4    0    0 -0.75279592695E+02  0.93046321109E+01 -0.93484025804E+02  0.12038627968E+03  0.00000000000E+00 0.  1.
         11    1    4    4    0    0 -0.52257948071E+02 -0.75433292894E+02 -0.10033398788E+03  0.13597052599E+03  0.00000000000E+00 0. -1.
</event>
<event>
 8    1  0.6760442E-009  0.2285827E+03  0.7561462E-02  0.1127641E+00
         -2   -1    0    0    0  501 -0.00000000000E+00  0.00000000000E+00  0.16756564176E+03  0.16756564176E+03  0.00000000000E+00 0.  1.
          2   -1    0    0  501    0  0.00000000000E+00 -0.00000000000E+00 -0.41333295102E+03  0.41333295102E+03  0.00000000000E+00 0. -1.
         25    2    1    2    0    0  0.65173950039E+02  0.19549450010E+03  0.83580390703E+01  0.24121222090E+03  0.12509090840E+03 0.  0.
         23    2    1    2    0    0 -0.65173950039E+02 -0.19549450010E+03 -0.25412534833E+03  0.33968637188E+03  0.91331239144E+02 0.  0.
          5    1    3    3  502    0 -0.34544495996E+02  0.53998863597E+02 -0.16394279533E+02  0.66298146843E+02  0.41800000000E+01 0.  1.
         -5    1    3    3    0  502  0.99718446035E+02  0.14149563650E+03  0.24752318603E+02  0.17491407406E+03  0.41800000000E+01 0.  1.
        -11    1    4    4    0    0  0.13377837845E+02 -0.73276888683E+02 -0.12397180907E+03  0.14462876064E+03  0.00000000000E+00 0. -1.
         11    1    4    4    0    0 -0.78551787884E+02 -0.12221761142E+03 -0.13015353926E+03  0.19505761124E+03  0.00000000000E+00 0.  1.
</event>
<event>
 8    1  0.6760442E-009  0.1299367E+03  0.7561462E-02  0.1227550E+00
          1   -1    0    0  501    0  0.00000000000E+00  0.00000000000E+00  0.68318357225E+03  0.68318357225E+03  0.00000000000E+00 0. -1.
         -1   -1    0    0    0  501 -0.00000000000E+00 -0.00000000000E+00 -0.41646424315E+02  0.41646424315E+02  0.00000000000E+00 0.  1.
         25    2    1    2    0    0 -0.29267568152E+02  0.11612034645E+03  0.42119805318E+03  0.45540749741E+03  0.12509062032E+03 0.  0.
         23    2    1    2    0    0  0.29267568152E+02 -0.11612034645E+03  0.22033909476E+03  0.26942249915E+03  0.98481678322E+02 0.  0.
          5    1    3    3  502    0 -0.15908453524E+02  0.38321249855E+02  0.19554797683E+02  0.46059305209E+02  0.41800000000E+01 0.  1.
         -5    1    3    3    0  502 -0.13359114628E+02  0.77799096596E+02  0.40164325549E+03  0.40934819220E+03  0.41800000000E+01 0.  1.
        -11    1    4    4    0    0 -0.20121720600E+02 -0.10892312297E+02  0.98117979485E+02  0.10075050375E+03  0.00000000000E+00 0. -1.
         11    1    4    4    0    0  0.49389288752E+02 -0.10522803415E+03  0.12222111527E+03  0.16867199540E+03  0.00000000000E+00 0.  1.
</event>
<event>
 8    1  0.6760442E-009  0.7090266E+02  0.7561462E-02  0.1357050E+00
          4   -1    0    0  501    0  0.00000000000E+00  0.00000000000E+00  0.18202527744E+03  0.18202527744E+03  0.00000000000E+00 0. -1.
         -4   -1    0    0    0  501 -0.00000000000E+00 -0.00000000000E+00 -0.66546136165E+02  0.66546136165E+02  0.00000000000E+00 0.  1.
         25    2    1    2    0    0  0.56539907719E+01 -0.25340944702E+01  0.48660680271E+02  0.13437040808E+03  0.12509658476E+03 0.  0.
         23    2    1    2    0    0 -0.56539907719E+01  0.25340944702E+01  0.66818461007E+02  0.11420100552E+03  0.92405485145E+02 0.  0.
          5    1    3    3  502    0 -0.15345892848E+02  0.37493665883E+02 -0.25041330005E+02  0.47810166461E+02  0.41800000000E+01 0. -1.
         -5    1    3    3    0  502  0.20999883620E+02 -0.40027760353E+02  0.73702010276E+02  0.86560241622E+02  0.41800000000E+01 0. -1.
        -11    1    4    4    0    0  0.24972289869E+02  0.19941583775E+01 -0.13345116902E+02  0.28384574580E+02  0.00000000000E+00 0.  1.
         11    1    4    4    0    0 -0.30626280641E+02  0.53993609265E+00  0.80163577909E+02  0.85816430944E+02  0.00000000000E+00 0. -1.
</event>
<event>
 8    1  0.6760442E-009  0.2190392E+03  0.7561462E-02  0.1134601E+00
          1   -1    0    0  501    0  0.00000000000E+00  0.00000000000E+00  0.19919648621E+03  0.19919648621E+03  0.00000000000E+00 0. -1.
         -1   -1    0    0    0  501 -0.00000000000E+00 -0.00000000000E+00 -0.25420375793E+03  0.25420375793E+03  0.00000000000E+00 0.  1.
         25    2    1    2    0    0  0.18320313528E+03  0.79467442263E+02 -0.56558685922E+01  0.23569869716E+03  0.12507367363E+03 0.  0.
         23    2    1    2    0    0 -0.18320313528E+03 -0.79467442263E+02 -0.49351403123E+02  0.21770154698E+03  0.71273693670E+02 0.  0.
          5    1    3    3  502    0  0.30503019054E+02  0.72870095881E+02  0.17597398127E+02  0.81040890086E+02  0.41800000000E+01 0. -1.
         -5    1    3    3    0  502  0.15270011623E+03  0.65973463822E+01 -0.23253266720E+02  0.15465780708E+03  0.41800000000E+01 0. -1.
        -11    1    4    4    0    0 -0.60383041774E+02 -0.53195722100E+02 -0.44616735244E+02  0.92013855736E+02  0.00000000000E+00 0. -1.
         11    1    4    4    0    0 -0.12282009351E+03 -0.26271720163E+02 -0.47346678791E+01  0.12568769124E+03  0.00000000000E+00 0.  1.
</event>
<event>
 8    1  0.6760442E-009  0.1071992E+03  0.7561462E-02  0.1265846E+00
         -1   -1    0    0    0  501 -0.00000000000E+00  0.00000000000E+00  0.94975096131E+02  0.94975096131E+02  0.00000000000E+00 0.  1.
          1   -1    0    0  501    0  0.00000000000E+00 -0.00000000000E+00 -0.40343811816E+03  0.40343811816E+03  0.00000000000E+00 0. -1.
         25    2    1    2    0    0  0.93200750796E+02 -0.31968792190E+02 -0.33299590716E+03  0.36910969683E+03  0.12508921010E+03 0.  0.
         23    2    1    2    0    0 -0.93200750796E+02  0.31968792190E+02  0.24532885137E+02  0.12930351746E+03  0.80057189250E+02 0.  0.
          5    1    3    3  502    0  0.24834164733E+02 -0.16884214037E+01 -0.27020183377E+03  0.27137813080E+03  0.41800000000E+01 0.  1.
         -5    1    3    3    0  502  0.68366586064E+02 -0.30280370787E+02 -0.62794073391E+02  0.97731566027E+02  0.41800000000E+01 0.  1.
        -11    1    4    4    0    0 -0.45340327784E+02  0.45803777081E+02 -0.14444140145E+02  0.66048198332E+02  0.00000000000E+00 0. -1.
         11    1    4    4    0    0 -0.47860423012E+02 -0.13834984890E+02  0.38977025282E+02  0.63255319125E+02  0.00000000000E+00 0.  1.
</event>
<event>
 8    1  0.6760442E-009  0.9810121E+02  0.7561462E-02  0.1284340E+00
         -2   -1    0    0    0  501 -0.00000000000E+00  0.00000000000E+00  0.12464792010E+03  0.12464792010E+03  0.00000000000E+00 0.  1.
          2   -1    0    0  501    0  0.00000000000E+00 -0.00000000000E+00 -0.99503846358E+02  0.99503846358E+02  0.00000000000E+00 0. -1.
         25    2    1    2    0    0 -0.19812804756E+02  0.13181911821E+02  0.21372068185E+02  0.12911533314E+03  0.12509074275E+03 0.  0.
         23    2    1    2    0    0  0.19812804756E+02 -0.13181911821E+02  0.37720055549E+01  0.95036433319E+02  0.91931417918E+02 0.  0.
          5    1    3    3  502    0 -0.60179688084E+02  0.36079532518E+02 -0.12649850504E+02  0.71420015698E+02  0.41800000000E+01 0. -1.
         -5    1    3    3    0  502  0.40366883328E+02 -0.22897620697E+02  0.34021918688E+02  0.57695317440E+02  0.41800000000E+01 0. -1.
        -11    1    4    4    0    0  0.30215427321E+02 -0.40242711376E+02  0.27702258273E+02  0.57444433851E+02  0.00000000000E+00 0.  1.
         11    1    4    4    0    0 -0.10402622565E+02  0.27060799556E+02 -0.23930252718E+02  0.37591999467E+02  0.00000000000E+00 0. -1.
</event>
<event>
 8    1  0.6760442E-009  0.9156323E+02  0.7561462E-02  0.1299110E+00
          4   -1    0    0  501    0  0.00000000000E+00  0.00000000000E+00  0.70491318677E+03  0.70491318677E+03  0.00000000000E+00 0. -1.
         -4   -1    0    0    0  501 -0.00000000000E+00 -0.00000000000E+00 -0.24739222935E+02  0.24739222935E+02  0.00000000000E+00 0.  1.
         25    2    1    2    0    0 -0.56267215411E+02  0.46915225884E+02  0.32620506838E+03  0.35696753299E+03  0.12509610315E+03 0.  0.
         23    2    1    2    0    0  0.56267215411E+02 -0.46915225884E+02  0.35396889546E+03  0.37268487672E+03  0.90735882821E+02 0.  0.
          5    1    3    3  502    0 -0.26492726698E+02 -0.40294535002E+01  0.17651995392E+01  0.27178840903E+02  0.41800000000E+01 0. -1.
         -5    1    3    3    0  502 -0.29774488712E+02  0.50944679385E+02  0.32443986884E+03  0.32978869208E+03  0.41800000000E+01 0. -1.
        -11    1    4    4    0    0 -0.13261415920E+02 -0.15934842084E+02  0.15828965402E+02  0.26083337404E+02  0.00000000000E+00 0.  1.
         11    1    4    4    0    0  0.69528631331E+02 -0.30980383801E+02  0.33813993006E+03  0.34660153931E+03  0.00000000000E+00 0. -1.
</event>
<event>
 8    1  0.6760442E-009  0.7140478E+02  0.7561462E-02  0.1355380E+00
         -1   -1    0    0    0  501 -0.00000000000E+00  0.00000000000E+00  0.18140185166E+02  0.18140185166E+02  0.00000000000E+00 0.  1.
          1   -1    0    0  501    0  0.00000000000E+00 -0.00000000000E+00 -0.74001862238E+03  0.74001862238E+03  0.00000000000E+00 0. -1.
         25    2    1    2    0    0  0.18474100441E+02 -0.30632639754E+02 -0.48078912193E+03  0.49808485524E+03  0.12510272675E+03 0.  0.
         23    2    1    2    0    0 -0.18474100441E+02  0.30632639754E+02 -0.24108931528E+03  0.26007395231E+03  0.90745532793E+02 0.  0.
          5    1    3    3  502    0 -0.85661860550E+01 -0.33140653579E+02 -0.46523566790E+03  0.46651193077E+03  0.41800000000E+01 0. -1.
         -5    1    3    3    0  502  0.27040286496E+02  0.25080138250E+01 -0.15553454035E+02  0.31572924469E+02  0.41800000000E+01 0. -1.
        -11    1    4    4    0    0  0.11561144267E+02  0.45775331492E+02 -0.20649160114E+03  0.21182025958E+03  0.00000000000E+00 0. -1.
         11    1    4    4    0    0 -0.30035244708E+02 -0.15142691738E+02 -0.34597714145E+02  0.48253692727E+02  0.00000000000E+00 0.  1.
</event>
<event>
 8    1  0.6760442E-009  0.1141224E+03  0.7561462E-02  0.1253121E+00
          2   -1    0    0  501    0  0.00000000000E+00  0.00000000000E+00  0.52000889446E+03  0.52000889446E+03  0.00000000000E+00 0. -1.
         -2   -1    0    0    0  501 -0.00000000000E+00 -0.00000000000E+00 -0.53703401275E+02  0.53703401275E+02  0.00000000000E+00 0.  1.
         25    2    1    2    0    0  0.61671803444E+02 -0.88004354113E+01  0.58082331739E+02  0.15133259670E+03  0.12508852289E+03 0.  0.
         23    2    1    2    0    0 -0.61671803444E+02  0.88004354113E+01  0.40822316144E+03  0.42237969903E+03  0.88755853968E+02 0.  0.
          5    1    3    3  502    0  0.90471515045E+02 -0.36003550962E+01  0.74668867505E+02  0.11743495973E+03  0.41800000000E+01 0. -1.
         -5    1    3    3    0  502 -0.28799711601E+02 -0.52000803151E+01 -0.16586535766E+02  0.33897636972E+02  0.41800000000E+01 0. -1.
        -11    1    4    4    0    0 -0.51459919351E+02 -0.35541298947E+02  0.25381937087E+03  0.26141075009E+03  0.00000000000E+00 0. -1.
         11    1    4    4    0    0 -0.10211884093E+02  0.44341734359E+02  0.15440379057E+03  0.16096894894E+03  0.00000000000E+00 0.  1.
</event>
<event>
 8    1  0.6760442E-009  0.1189120E+03  0.7561462E-02  0.1244903E+00
         -3   -1    0    0    0  501 -0.00000000000E+00  0.00000000000E+00  0.21985489184E+03  0.21985489184E+03  0.00000000000E+00 0.  1.
          3   -1    0    0  501    0  0.00000000000E+00 -0.00000000000E+00 -0.99138050393E+02  0.99138050393E+02  0.00000000000E+00 0. -1.
         25    2    1    2    0    0 -0.39407559863E+02 -0.90348401879E+02  0.82962217064E+02  0.17957050728E+03  0.12508816143E+03 0.  0.
         23    2    1    2    0    0  0.39407559863E+02  0.90348401879E+02  0.37754624382E+02  0.13942243495E+03  0.91090143314E+02 0.  0.
          5    1    3    3  502    0 -0.61492379324E+02 -0.66802052683E+02  0.47543115604E+00  0.90892933677E+02  0.41800000000E+01 0. -1.
         -5    1    3    3    0  502  0.22084819460E+02 -0.23546349196E+02  0.82486785908E+02  0.88677573605E+02  0.41800000000E+01 0. -1.
        -11    1    4    4    0    0  0.16541501230E+02  0.90004122928E+02  0.58445382069E+02  0.10858280754E+03  0.00000000000E+00 0.  1.
         11    1    4    4    0    0  0.22866058633E+02  0.34427895004E+00 -0.20690757687E+02  0.30839627415E+02  0.00000000000E+00 0. -1.
</event>
<event>
 8    1  0.6760442E-009  0.1009619E+03  0.7561462E-02  0.1278286E+00
          2   -1    0    0  501    0  0.00000000000E+00  0.00000000000E+00  0.22540869370E+03  0.22540869370E+03  0.00000000000E+00 0. -1.
         -2   -1    0    0    0  501 -0.00000000000E+00 -0.00000000000E+00 -0.88968163622E+02  0.88968163622E+02  0.00000000000E+00 0.  1.
         25    2    1    2    0    0  0.58003554130E+02 -0.57709334359E+02  0.12318093840E+03  0.19369122640E+03  0.12509183840E+03 0.  0.
         23    2    1    2    0    0 -0.58003554130E+02  0.57709334359E+02  0.13259591682E+02  0.12068563093E+03  0.87717872620E+02 0.  0.
          5    1    3    3  502    0  0.17401687721E+02 -0.20499661666E+02 -0.24127776145E+02  0.36368624467E+02  0.41800000000E+01 0.  1.
         -5    1    3    3    0  502  0.40601866409E+02 -0.37209672694E+02  0.14730871454E+03  0.15732260193E+03  0.41800000000E+01 0.  1.
        -11    1    4    4    0    0 -0.80344388293E+02  0.35044230108E+02  0.14454661294E+02  0.88838370242E+02  0.00000000000E+00 0.  1.
         11    1    4    4    0    0  0.22340834163E+02  0.22665104251E+02 -0.11950696116E+01  0.31847260686E+02  0.00000000000E+00 0. -1.
</event>
<event>
 8    1  0.6760442E-009  0.1196625E+03  0.7561462E-02  0.1243655E+00
          1   -1    0    0  501    0  0.00000000000E+00  0.00000000000E+00  0.53409375324E+02  0.53409375324E+02  0.00000000000E+00 0. -1.
         -1   -1    0    0    0  501 -0.00000000000E+00 -0.00000000000E+00 -0.52013660365E+03  0.52013660365E+03  0.00000000000E+00 0.  1.
         25    2    1    2    0    0 -0.59837971596E+02 -0.73332739585E+02 -0.10695191272E+03  0.18985466634E+03  0.12509120335E+03 0.  0.
         23    2    1    2    0    0  0.59837971596E+02  0.73332739585E+02 -0.35977531561E+03  0.38369131264E+03  0.93928015720E+02 0.  0.
          5    1    3    3  502    0 -0.11216811752E+02  0.57835611731E+01  0.25078066856E+02  0.28383944105E+02  0.41800000000E+01 0. -1.
         -5    1    3    3    0  502 -0.48621159844E+02 -0.79116300758E+02 -0.13202997958E+03  0.16147072223E+03  0.41800000000E+01 0. -1.
        -11    1    4    4    0    0  0.77227718188E+02  0.82840721986E+02 -0.31438872462E+03  0.33416609021E+03  0.00000000000E+00 0.  1.
         11    1    4    4    0    0 -0.17389746592E+02 -0.95079824018E+01 -0.45386590988E+02  0.49525222436E+02  0.00000000000E+00 0. -1.
</event>
<event>
 8    1  0.6760442E-009  0.9670170E+02  0.7561462E-02  0.1287389E+00
          2   -1    0    0  501    0  0.00000000000E+00  0.00000000000E+00  0.50712451701E+02  0.50712451701E+02  0.00000000000E+00 0. -1.
         -2   -1    0    0    0  501 -0.00000000000E+00 -0.00000000000E+00 -0.31757287974E+03  0.31757287974E+03  0.00000000000E+00 0.  1.
         25    2    1    2    0    0  0.50003447523E+02  0.44283131491E+02 -0.16364292279E+03  0.21653681209E+03  0.12509134388E+03 0.  0.
         23    2    1    2    0    0 -0.50003447523E+02 -0.44283131491E+02 -0.10321750525E+03  0.15174851935E+03  0.88951780400E+02 0.  0.
          5    1    3    3  502    0  0.70783454832E+02  0.51344953349E+02 -0.50203227188E+02  0.10091797725E+03  0.41800000000E+01 0.  1.
         -5    1    3    3    0  502 -0.20780007309E+02 -0.70618218587E+01 -0.11343969560E+03  0.11561883484E+03  0.41800000000E+01 0.  1.
        -11    1    4    4    0    0 -0.48753967447E+02 -0.10704659163E+02 -0.10686666399E+03  0.11794923883E+03  0.00000000000E+00 0.  1.
         11    1    4    4    0    0 -0.12494800762E+01 -0.33578472327E+02  0.36491587323E+01  0.33799280521E+02  0.00000000000E+00 0. -1.
</event>
<event>
 8    1  0.6760442E-009  0.1373155E+03  0.7561462E-02  0.1216987E+00
         -1   -1    0    0    0  501 -0.00000000000E+00  0.00000000000E+00  0.68461343505E+02  0.68461343505E+02  0.00000000000E+00 0.  1.
          1   -1    0    0  501    0  0.00000000000E+00 -0.00000000000E+00 -0.40626405645E+03  0.40626405645E+03  0.00000000000E+00 0. -1.
         25    2    1    2    0    0 -0.11784199546E+03  0.44800654012E+02 -0.17524388409E+03  0.24949035162E+03  0.12506471184E+03 0.  0.
         23    2    1    2    0    0  0.11784199546E+03 -0.44800654012E+02 -0.16255882886E+03  0.22523504834E+03  0.91714882458E+02 0.  0.
          5    1    3    3  502    0 -0.64475433243E+02 -0.20736536663E+01 -0.48363338507E+01  0.64824717944E+02  0.41800000000E+01 0.  1.
         -5    1    3    3    0  502 -0.53366562218E+02  0.46874307679E+02 -0.17040755024E+03  0.18466563368E+03  0.41800000000E+01 0.  1.
        -11    1    4    4    0    0  0.32825320822E+02 -0.42612716779E+02 -0.11696201073E+03  0.12873794030E+03  0.00000000000E+00 0. -1.
         11    1    4    4    0    0  0.85016674639E+02 -0.21879372335E+01 -0.45596818131E+02  0.96497108038E+02  0.00000000000E+00 0.  1.
</event>
<event>
 8    1  0.6760442E-009  0.8956813E+02  0.7561462E-02  0.1303901E+00
         -3   -1    0    0    0  501 -0.00000000000E+00  0.00000000000E+00  0.46155687244E+02  0.46155687244E+02  0.00000000000E+00 0.  1.
          3   -1    0    0  501    0  0.00000000000E+00 -0.00000000000E+00 -0.29119347486E+03  0.29119347486E+03  0.00000000000E+00 0. -1.
         25    2    1    2    0    0  0.14783540060E+02  0.10281972144E+02 -0.19646214828E+03  0.23358862907E+03  0.12506798118E+03 0.  0.
         23    2    1    2    0    0 -0.14783540060E+02 -0.10281972144E+02 -0.48575639328E+02  0.10376053303E+03  0.89902077117E+02 0.  0.
          5    1    3    3  502    0 -0.18472504401E+02 -0.41827559457E+02 -0.14791024315E+03  0.15487314350E+03  0.41800000000E+01 0.  1.
         -5    1    3    3    0  502  0.33256044461E+02  0.52109531601E+02 -0.48551905132E+02  0.78715485571E+02  0.41800000000E+01 0.  1.
        -11    1    4    4    0    0 -0.42299567739E+01 -0.39743242833E+02  0.64242656517E+01  0.40480724726E+02  0.00000000000E+00 0.  1.
         11    1    4    4    0    0 -0.10553583286E+02  0.29461270689E+02 -0.54999904980E+02  0.63279808300E+02  0.00000000000E+00 0. -1.
</event>
<event>
 8    1  0.6760442E-009  0.1515449E+03  0.7561462E-02  0.1198587E+00
          2   -1    0    0  501    0  0.00000000000E+00  0.00000000000E+00  0.60304312746E+03  0.60304312746E+03  0.00000000000E+00 0. -1.
         -2   -1    0    0    0  501 -0.00000000000E+00 -0.00000000000E+00 -0.57756232818E+02  0.57756232818E+02  0.00000000000E+00 0.  1.
         25    2    1    2    0    0  0.66527650937E+02 -0.10782070628E+03  0.42940185683E+03  0.46485092680E+03  0.12509674840E+03 0.  0.
         23    2    1    2    0    0 -0.66527650937E+02  0.10782070628E+03  0.11588503782E+03  0.19594843348E+03  0.94420408543E+02 0.  0.
          5    1    3    3  502    0  0.89992191867E+02 -0.85284118314E+02  0.40607258829E+03  0.42459909891E+03  0.41800000000E+01 0. -1.
         -5    1    3    3    0  502 -0.23464540930E+02 -0.22536587970E+02  0.23329268536E+02  0.40251827894E+02  0.41800000000E+01 0. -1.
        -11    1    4    4    0    0 -0.10566475783E+02  0.85234048087E+02  0.29987105990E+02  0.90970983777E+02  0.00000000000E+00 0.  1.
         11    1    4    4    0    0 -0.55961175154E+02  0.22586658197E+02  0.85897931829E+02  0.10497744970E+03  0.00000000000E+00 0. -1.
</event>
<event>
 8    1  0.6760442E-009  0.1834013E+03  0.7561462E-02  0.1164551E+00
         -4   -1    0    0    0  501 -0.00000000000E+00  0.00000000000E+00  0.92349911396E+02  0.92349911396E+02  0.00000000000E+00 0.  1.
          4   -1    0    0  501    0  0.00000000000E+00 -0.00000000000E+00 -0.68059636374E+03  0.68059636374E+03  0.00000000000E+00 0. -1.
         25    2    1    2    0    0  0.91301221113E+02  0.13441251095E+03 -0.54414039025E+03  0.58149814794E+03  0.12509474681E+03 0.  0.
         23    2    1    2    0    0 -0.91301221113E+02 -0.13441251095E+03 -0.44106062094E+02  0.19144812720E+03  0.91128506067E+02 0.  0.
          5    1    3    3  502    0 -0.24056419477E+01  0.10245744268E+03 -0.22389255388E+03  0.24626949213E+03  0.41800000000E+01 0.  1.
         -5    1    3    3    0  502  0.93706863061E+02  0.31955068271E+02 -0.32024783637E+03  0.33522865581E+03  0.41800000000E+01 0.  1.
        -11    1    4    4    0    0 -0.60778321005E+02 -0.11143803348E+03  0.75973213554E+01  0.12716193968E+03  0.00000000000E+00 0.  1.
         11    1    4    4    0    0 -0.30522900109E+02 -0.22974477465E+02 -0.51703383449E+02  0.64286187521E+02  0.00000000000E+00 0. -1.
</event>
<event>
 8    1  0.6760442E-009  0.1078068E+03  0.7561462E-02  0.1264686E+00
          1   -1    0    0  501    0  0.00000000000E+00  0.00000000000E+00  0.11973496950E+03  0.11973496950E+03  0.00000000000E+00 0. -1.
         -1   -1    0    0    0  501 -0.00000000000E+00 -0.00000000000E+00 -0.14126552664E+03  0.14126552664E+03  0.00000000000E+00 0.  1.
         25    2    1    2    0    0  0.52255326551E+02 -0.34503731231E+02  0.24020207128E+02  0.14193397064E+03  0.12508858881E+03 0.  0.
         23    2    1    2    0    0 -0.52255326551E+02  0.34503731231E+02 -0.45550764271E+02  0.11906652550E+03  0.90447989177E+02 0.  0.
          5    1    3    3  502    0 -0.50690659798E+01 -0.57343155204E+02 -0.25112962924E+02  0.62944945671E+02  0.41800000000E+01 0.  1.
         -5    1    3    3    0  502  0.57324392531E+02  0.22839423974E+02  0.49133170052E+02  0.78989024971E+02  0.41800000000E+01 0.  1.
        -11    1    4    4    0    0  0.75615496035E+01  0.35425035409E+02  0.98414073844E+01  0.37536162103E+02  0.00000000000E+00 0. -1.
         11    1    4    4    0    0 -0.59816876155E+02 -0.92130417814E+00 -0.55392171655E+02  0.81530363393E+02  0.00000000000E+00 0.  1.
</event>
<event>
 8    1  0.6760442E-009  0.7752671E+02  0.7561462E-02  0.1336220E+00
         -1   -1    0    0    0  501 -0.00000000000E+00  0.00000000000E+00  0.47697256788E+02  0.47697256788E+02  0.00000000000E+00 0.  1.
          1   -1    0    0  501    0  0.00000000000E+00 -0.00000000000E+00 -0.37294941100E+03  0.37294941100E+03  0.00000000000E+00 0. -1.
         25    2    1    2    0    0 -0.44748037388E+02 -0.28025331910E+02 -0.26770979556E+03  0.30017225095E+03  0.12508812701E+03 0.  0.
         23    2    1    2    0    0  0.44748037388E+02  0.28025331910E+02 -0.57542358645E+02  0.12047441684E+03  0.91734159368E+02 0.  0.
          5    1    3    3  502    0 -0.54344887917E+02 -0.38933793353E+02 -0.54299494584E+02  0.86227110700E+02  0.41800000000E+01 0. -1.
         -5    1    3    3    0  502  0.95968505289E+01  0.10908461443E+02 -0.21341030098E+03  0.21394514025E+03  0.41800000000E+01 0. -1.
        -11    1    4    4    0    0  0.15019045220E+02  0.38583921966E+02 -0.74071718399E+02  0.84858177097E+02  0.00000000000E+00 0. -1.
         11    1    4    4    0    0  0.29728992168E+02 -0.10558590056E+02  0.16529359754E+02  0.35616239740E+02  0.00000000000E+00 0.  1.
</event>
<event>
 8    1  0.6760442E-009  0.1120241E+03  0.7561462E-02  0.1256867E+00
          1   -1    0    0  501    0  0.00000000000E+00  0.00000000000E+00  0.32223718934E+02  0.32223718934E+02  0.00000000000E+00 0. -1.
         -1   -1    0    0    0  501 -0.00000000000E+00 -0.00000000000E+00 -0.45725617883E+03  0.45725617883E+03  0.00000000000E+00 0.  1.
         25    2    1    2    0    0 -0.32666975213E+02  0.19898134423E+02 -0.30072816231E+03  0.32794595697E+03  0.12509219026E+03 0.  0.
         23    2    1    2    0    0  0.32666975213E+02 -0.19898134423E+02 -0.12430429758E+03  0.16153394079E+03  0.95804950849E+02 0.  0.
          5    1    3    3  502    0 -0.45638015108E+02 -0.44284111423E+02 -0.12373340245E+03  0.13918095498E+03  0.41800000000E+01 0.  1.
         -5    1    3    3    0  502  0.12971039896E+02  0.64182245846E+02 -0.17699475986E+03  0.18876500199E+03  0.41800000000E+01 0.  1.
        -11    1    4    4    0    0  0.61867106160E+02 -0.53931526432E+01 -0.10914962177E+03  0.12557971513E+03  0.00000000000E+00 0.  1.
         11    1    4    4    0    0 -0.29200130948E+02 -0.14504981779E+02 -0.15154675810E+02  0.35954225658E+02  0.00000000000E+00 0. -1.
</event>
<event>
 8    1  0.6760442E-009  0.6430723E+02  0.7561462E-02  0.1380597E+00
          1   -1    0    0  501    0  0.00000000000E+00  0.00000000000E+00  0.90103457724E+02  0.90103457724E+02  0.00000000000E+00 0. -1.
         -1   -1    0    0    0  501 -0.00000000000E+00 -0.00000000000E+00 -0.15503252686E+03  0.15503252686E+03  0.00000000000E+00 0.  1.
         25    2    1    2    0    0  0.44989665292E+02  0.68158698586E+00 -0.30052352107E+02  0.13629364911E+03  0.12509308685E+03 0.  0.
         23    2    1    2    0    0 -0.44989665292E+02 -0.68158698586E+00 -0.34876717025E+02  0.10884233547E+03  0.92767095758E+02 0.  0.
          5    1    3    3  502    0  0.51971603308E+00 -0.22996103838E+02  0.42122286552E+02  0.48175204420E+02  0.41800000000E+01 0. -1.
         -5    1    3    3    0  502  0.44469949259E+02  0.23677690823E+02 -0.72174638660E+02  0.88118444695E+02  0.41800000000E+01 0. -1.
        -11    1    4    4    0    0 -0.36685295096E+02  0.12794741594E+02  0.25468153632E+02  0.46455819207E+02  0.00000000000E+00 0. -1.
         11    1    4    4    0    0 -0.83043701966E+01 -0.13476328580E+02 -0.60344870658E+02  0.62386516260E+02  0.00000000000E+00 0.  1.
</event>
<event>
 8    1  0.6760442E-009  0.7647516E+02  0.7561462E-02  0.1339363E+00
         -1   -1    0    0    0  501 -0.00000000000E+00  0.00000000000E+00  0.10156274033E+03  0.10156274033E+03  0.00000000000E+00 0.  1.
          1   -1    0    0  501    0  0.00000000000E+00 -0.00000000000E+00 -0.14998921279E+03  0.14998921279E+03  0.00000000000E+00 0. -1.
         25    2    1    2    0    0 -0.39783316407E+02  0.11140581586E+02 -0.72852862095E+02  0.15053714528E+03  0.12508823993E+03 0.  0.
         23    2    1    2    0    0  0.39783316407E+02 -0.11140581586E+02  0.24426389640E+02  0.10101480784E+03  0.88884858499E+02 0.  0.
          5    1    3    3  502    0  0.15723136401E+02 -0.26330527426E+02 -0.77322924864E+02  0.83287578920E+02  0.41800000000E+01 0.  1.
         -5    1    3    3    0  502 -0.55506452809E+02  0.37471109012E+02  0.44700627683E+01  0.67249566357E+02  0.41800000000E+01 0.  1.
        -11    1    4    4    0    0  0.16211762372E+02 -0.23292246856E+02 -0.29491542973E+02  0.40927999093E+02  0.00000000000E+00 0. -1.
         11    1    4    4    0    0  0.23571554035E+02  0.12151665271E+02  0.53917932613E+02  0.60086808750E+02  0.00000000000E+00 0.  1.
</event>
<event>
 8    1  0.6760442E-009  0.7781431E+02  0.7561462E-02  0.1335371E+00
          1   -1    0    0  501    0  0.00000000000E+00  0.00000000000E+00  0.51739256209E+03  0.51739256209E+03  0.00000000000E+00 0. -1.
         -1   -1    0    0    0  501 -0.00000000000E+00 -0.00000000000E+00 -0.26621809031E+02  0.26621809031E+02  0.00000000000E+00 0.  1.
         25    2    1    2    0    0 -0.82350415370E+01 -0.30256090627E+02  0.34791006442E+03  0.37104142706E+03  0.12508829180E+03 0.  0.
         23    2    1    2    0    0  0.82350415370E+01  0.30256090627E+02  0.14286068864E+03  0.17297294406E+03  0.92342926570E+02 0.  0.
          5    1    3    3  502    0 -0.27905210546E+02 -0.11060775887E+02  0.98896766522E+01  0.31879768555E+02  0.41800000000E+01 0. -1.
         -5    1    3    3    0  502  0.19670169009E+02 -0.19195314740E+02  0.33802038776E+03  0.33916165851E+03  0.41800000000E+01 0. -1.
        -11    1    4    4    0    0  0.98854705262E+01 -0.32895285342E+02  0.50448521079E+02  0.61031758981E+02  0.00000000000E+00 0. -1.
         11    1    4    4    0    0 -0.16504289892E+01  0.63151375969E+02  0.92412167561E+02  0.11194118508E+03  0.00000000000E+00 0.  1.
</event>
<event>
 8    1  0.6760442E-009  0.9063002E+02  0.7561462E-02  0.1301333E+00
          1   -1    0    0  501    0  0.00000000000E+00  0.00000000000E+00  0.39682589920E+02  0.39682589920E+02  0.00000000000E+00 0. -1.
         -1   -1    0    0    0  501 -0.00000000000E+00 -0.00000000000E+00 -0.35490595023E+03  0.35490595023E+03  0.00000000000E+00 0.  1.
         25    2    1    2    0    0  0.41353404302E+01 -0.10765022469E+02 -0.95290162090E+02  0.15767090948E+03  0.12508762511E+03 0.  0.
         23    2    1    2    0    0 -0.41353404302E+01  0.10765022469E+02 -0.21993319822E+03  0.23691763067E+03  0.87329063275E+02 0.  0.
          5    1    3    3  502    0  0.48629861866E+02 -0.12129824107E+02 -0.10077152336E+03  0.11262490142E+03  0.41800000000E+01 0. -1.
         -5    1    3    3    0  502 -0.44494521435E+02  0.13648016376E+01  0.54813612744E+01  0.45046008066E+02  0.41800000000E+01 0. -1.
        -11    1    4    4    0    0 -0.14485818847E+02 -0.35765199909E+02 -0.12277399301E+03  0.12869515077E+03  0.00000000000E+00 0.  1.
         11    1    4    4    0    0  0.10350478417E+02  0.46530222378E+02 -0.97159205217E+02  0.10822247990E+03  0.00000000000E+00 0. -1.
</event>
<event>
 8    1  0.6760442E-009  0.1637134E+03  0.7561462E-02  0.1184567E+00
          2   -1    0    0  501    0  0.00000000000E+00  0.00000000000E+00  0.10538263235E+04  0.10538263235E+04  0.00000000000E+00 0. -1.
         -2   -1    0    0    0  501 -0.00000000000E+00 -0.00000000000E+00 -0.29629911299E+02  0.29629911299E+02  0.00000000000E+00 0.  1.
         25    2    1    2    0    0 -0.12476240967E+03 -0.60754157469E+02  0.50817361945E+03  0.54142601506E+03  0.12507987753E+03 0.  0.
         23    2    1    2    0    0  0.12476240967E+03  0.60754157469E+02  0.51602279279E+03  0.54203021978E+03  0.90887347626E+02 0.  0.
          5    1    3    3  502    0 -0.48535058600E+02 -0.86090109790E+02  0.35361390031E+03  0.36718853714E+03  0.41800000000E+01 0.  1.
         -5    1    3    3    0  502 -0.76227351065E+02  0.25335952321E+02  0.15455971914E+03  0.17423747792E+03  0.41800000000E+01 0.  1.
        -11    1    4    4    0    0  0.19643073763E+02 -0.93165465604E+01  0.17973126523E+02  0.28207829830E+02  0.00000000000E+00 0.  1.
         11    1    4    4    0    0  0.10511933590E+03  0.70070704029E+02  0.49804966627E+03  0.51382238995E+03  0.00000000000E+00 0. -1.
</event>
<event>
 8    1  0.6760442E-009  0.2763294E+03  0.7561462E-02  0.1097711E+00
          1   -1    0    0  501    0  0.00000000000E+00  0.00000000000E+00  0.16192321098E+04  0.16192321098E+04  0.00000000000E+00 0. -1.
         -1   -1    0    0    0  501 -0.00000000000E+00 -0.00000000000E+00 -0.51189718149E+02  0.51189718149E+02  0.00000000000E+00 0.  1.
         25    2    1    2    0    0 -0.26502588194E+03 -0.23941000910E+02  0.77104557761E+03  0.82521019193E+03  0.12509471814E+03 0.  0.
         23    2    1    2    0    0  0.26502588194E+03  0.23941000910E+02  0.79699681409E+03  0.84521163606E+03  0.91470751822E+02 0.  0.
          5    1    3    3  502    0 -0.20914068166E+03  0.74250243503E+01  0.69415848594E+03  0.72502995229E+03  0.41800000000E+01 0.  1.
         -5    1    3    3    0  502 -0.55885200280E+02 -0.31366025260E+02  0.76887091662E+02  0.10018023964E+03  0.41800000000E+01 0.  1.
        -11    1    4    4    0    0  0.42007659135E+02  0.36642265796E+02  0.12002853621E+03  0.13234103133E+03  0.00000000000E+00 0.  1.
         11    1    4    4    0    0  0.22301822280E+03 -0.12701264886E+02  0.67696827788E+03  0.71287060473E+03  0.00000000000E+00 0. -1.
</event>
<event>
 8    1  0.6760442E-009  0.9069272E+02  0.7561462E-02  0.1301183E+00
          2   -1    0    0  501    0  0.00000000000E+00  0.00000000000E+00  0.34169624234E+03  0.34169624234E+03  0.00000000000E+00 0. -1.
         -2   -1    0    0    0  501 -0.00000000000E+00 -0.00000000000E+00 -0.44522093971E+02  0.44522093971E+02  0.00000000000E+00 0.  1.
         25    2    1    2    0    0 -0.19470797680E+02  0.81635708895E+01  0.81619498361E+02  0.15084560437E+03  0.12508756131E+03 0.  0.
         23    2    1    2    0    0  0.19470797680E+02 -0.81635708895E+01  0.21555465000E+03  0.23537273193E+03  0.92145319728E+02 0.  0.
          5    1    3    3  502    0 -0.58338531921E+02  0.15231519570E+02  0.40989980880E+00  0.60440250768E+02  0.41800000000E+01 0.  1.
         -5    1    3    3    0  502  0.38867734241E+02 -0.70679486804E+01  0.81209598552E+02  0.90405353605E+02  0.41800000000E+01 0.  1.
        -11    1    4    4    0    0 -0.17981553657E+02  0.25271238902E+02  0.30016709722E+02  0.43162190052E+02  0.00000000000E+00 0.  1.
         11    1    4    4    0    0  0.37452351337E+02 -0.33434809792E+02  0.18553794028E+03  0.19221054188E+03  0.00000000000E+00 0. -1.
</event>
<event>
 8    1  0.6760442E-009  0.1583865E+03  0.7561462E-02  0.1190531E+00
          1   -1    0    0  501    0  0.00000000000E+00  0.00000000000E+00  0.80745407814E+03  0.80745407814E+03  0.00000000000E+00 0. -1.
         -1   -1    0    0    0  501 -0.00000000000E+00 -0.00000000000E+00 -0.39241186556E+02  0.39241186556E+02  0.00000000000E+00 0.  1.
         25    2    1    2    0    0  0.65326749990E+02 -0.11636876751E+03  0.28226873121E+03  0.33635132902E+03  0.12508919057E+03 0.  0.
         23    2    1    2    0    0 -0.65326749990E+02  0.11636876751E+03  0.48594416038E+03  0.51034393568E+03  0.80622151826E+02 0.  0.
          5    1    3    3  502    0 -0.67528058682E+01  0.12260442725E+02 -0.32637342926E+01  0.14968072837E+02  0.41800000000E+01 0. -1.
         -5    1    3    3    0  502  0.72079555858E+02 -0.12862921023E+03  0.28553246550E+03  0.32138325618E+03  0.41800000000E+01 0. -1.
        -11    1    4    4    0    0  0.62785809702E+01  0.67902442476E+02  0.24683016855E+03  0.25607673533E+03  0.00000000000E+00 0. -1.
         11    1    4    4    0    0 -0.71605330960E+02  0.48466325033E+02  0.23911399183E+03  0.25426720035E+03  0.00000000000E+00 0.  1.
</event>
<event>
 8    1  0.6760442E-009  0.1833113E+03  0.7561462E-02  0.1164636E+00
         -2   -1    0    0    0  501 -0.00000000000E+00  0.00000000000E+00  0.92720660344E+02  0.92720660344E+02  0.00000000000E+00 0. -1.
          2   -1    0    0  501    0  0.00000000000E+00 -0.00000000000E+00 -0.41449284580E+03  0.41449284580E+03  0.00000000000E+00 0.  1.
         25    2    1    2    0    0 -0.15605593380E+03  0.32027259203E+02 -0.21258175453E+03  0.29362701339E+03  0.12508645340E+03 0.  0.
         23    2    1    2    0    0  0.15605593380E+03 -0.32027259203E+02 -0.10919043093E+03  0.21358649276E+03  0.91199999339E+02 0.  0.
          5    1    3    3  502    0 -0.99252082821E+01  0.39555084175E+02 -0.75226327489E+01  0.41679453536E+02  0.41800000000E+01 0.  1.
         -5    1    3    3    0  502 -0.14613072551E+03 -0.75278249722E+01 -0.20505912178E+03  0.25194755985E+03  0.41800000000E+01 0.  1.
        -11    1    4    4    0    0  0.16532700512E+03 -0.35926932497E+02 -0.11229383015E+03  0.20306074803E+03  0.00000000000E+00 0.  1.
         11    1    4    4    0    0 -0.92710713283E+01  0.38996732935E+01  0.31033992227E+01  0.10525744729E+02  0.00000000000E+00 0. -1.
</event>
<event>
 8    1  0.6760442E-009  0.9060135E+02  0.7561462E-02  0.1301402E+00
          1   -1    0    0  501    0  0.00000000000E+00  0.00000000000E+00  0.63462502103E+02  0.63462502103E+02  0.00000000000E+00 0. -1.
         -1   -1    0    0    0  501 -0.00000000000E+00 -0.00000000000E+00 -0.20936798247E+03  0.20936798247E+03  0.00000000000E+00 0.  1.
         25    2    1    2    0    0 -0.15816475715E+02 -0.14798586049E+02 -0.43035365091E+02  0.13404659782E+03  0.12508912297E+03 0.  0.
         23    2    1    2    0    0  0.15816475715E+02  0.14798586049E+02 -0.10287011528E+03  0.13878388676E+03  0.90606553589E+02 0.  0.
          5    1    3    3  502    0  0.28731670194E+02  0.29034718092E+02  0.19570844445E+02  0.45486416424E+02  0.41800000000E+01 0.  1.
         -5    1    3    3    0  502 -0.44548145908E+02 -0.43833304141E+02 -0.62606209535E+02  0.88560181392E+02  0.41800000000E+01 0.  1.
        -11    1    4    4    0    0  0.28297481420E+02 -0.23776923315E+02 -0.88261570288E+02  0.95688005135E+02  0.00000000000E+00 0.  1.
         11    1    4    4    0    0 -0.12481005705E+02  0.38575509364E+02 -0.14608544989E+02  0.43095881622E+02  0.00000000000E+00 0. -1.
</event>
<event>
 8    1  0.6760442E-009  0.1333195E+03  0.7561462E-02  0.1222612E+00
          1   -1    0    0  501    0  0.00000000000E+00  0.00000000000E+00  0.97333133036E+02  0.97333133036E+02  0.00000000000E+00 0. -1.
         -1   -1    0    0    0  501 -0.00000000000E+00 -0.00000000000E+00 -0.21080297469E+03  0.21080297469E+03  0.00000000000E+00 0.  1.
         25    2    1    2    0    0 -0.92126054508E+02 -0.75558713792E+01 -0.54609387731E+02  0.16484380633E+03  0.12508794564E+03 0.  0.
         23    2    1    2    0    0  0.92126054508E+02  0.75558713792E+01 -0.58860453921E+02  0.14329230140E+03  0.92324587688E+02 0.  0.
          5    1    3    3  502    0 -0.63882045946E+02 -0.52579018459E+02  0.72750737256E+01  0.83161698360E+02  0.41800000000E+01 0. -1.
         -5    1    3    3    0  502 -0.28244008561E+02  0.45023147079E+02 -0.61884461457E+02  0.81682107970E+02  0.41800000000E+01 0. -1.
        -11    1    4    4    0    0  0.83020057757E+02 -0.32686711702E+02 -0.36903111121E+02  0.96553564006E+02  0.00000000000E+00 0. -1.
         11    1    4    4    0    0  0.91059967507E+01  0.40242583081E+02 -0.21957342801E+02  0.46738737389E+02  0.00000000000E+00 0.  1.
</event>
<event>
 8    1  0.6760442E-009  0.1149583E+03  0.7561462E-02  0.1251654E+00
          1   -1    0    0  501    0  0.00000000000E+00  0.00000000000E+00  0.37213673843E+02  0.37213673843E+02  0.00000000000E+00 0. -1.
         -1   -1    0    0    0  501 -0.00000000000E+00 -0.00000000000E+00 -0.70210680361E+03  0.70210680361E+03  0.00000000000E+00 0.  1.
         25    2    1    2    0    0 -0.29871953226E+02 -0.55997887632E+02 -0.60260632732E+03  0.61871648401E+03  0.12509038669E+03 0.  0.
         23    2    1    2    0    0  0.29871953226E+02  0.55997887632E+02 -0.62286802441E+02  0.12060399344E+03  0.81471347523E+02 0.  0.
          5    1    3    3  502    0 -0.46877195807E+02 -0.89938569860E+02 -0.46161851936E+03  0.47264738193E+03  0.41800000000E+01 0. -1.
         -5    1    3    3    0  502  0.17005242581E+02  0.33940682228E+02 -0.14098780797E+03  0.14606910207E+03  0.41800000000E+01 0. -1.
        -11    1    4    4    0    0 -0.20119849356E+02  0.21689533897E+02  0.50278319157E+01  0.30008720608E+02  0.00000000000E+00 0. -1.
         11    1    4    4    0    0  0.49991802582E+02  0.34308353735E+02 -0.67314634357E+02  0.90595272835E+02  0.00000000000E+00 0.  1.
</event>
<event>
 8    1  0.6760442E-009  0.6064388E+02  0.7561462E-02  0.1395149E+00
          1   -1    0    0  501    0  0.00000000000E+00  0.00000000000E+00  0.11264865069E+04  0.11264865069E+04  0.00000000000E+00 0. -1.
         -1   -1    0    0    0  501 -0.00000000000E+00 -0.00000000000E+00 -0.38897463820E+02  0.38897463820E+02  0.00000000000E+00 0.  1.
         25    2    1    2    0    0 -0.32824542203E+01  0.37213123777E+02  0.10534173012E+04  0.10614758293E+04  0.12508930680E+03 0.  0.
         23    2    1    2    0    0  0.32824542203E+01 -0.37213123777E+02  0.34171741906E+02  0.10390814143E+03  0.90739202237E+02 0.  0.
          5    1    3    3  502    0  0.68883803299E+01  0.66298192942E+00  0.96665820582E+03  0.96669201331E+03  0.41800000000E+01 0.  1.
         -5    1    3    3    0  502 -0.10170834550E+02  0.36550141848E+02  0.86759095342E+02  0.94783815966E+02  0.41800000000E+01 0.  1.
        -11    1    4    4    0    0  0.21826162424E+02 -0.48598472435E+02  0.52989238383E+02  0.75140217418E+02  0.00000000000E+00 0. -1.
         11    1    4    4    0    0 -0.18543708204E+02  0.11385348658E+02 -0.18817496478E+02  0.28767924007E+02  0.00000000000E+00 0.  1.
</event>
<event>
 8    1  0.6760442E-009  0.1030207E+03  0.7561462E-02  0.1274069E+00
          2   -1    0    0  501    0  0.00000000000E+00  0.00000000000E+00  0.20052290978E+03  0.20052290978E+03  0.00000000000E+00 0. -1.
         -2   -1    0    0    0  501 -0.00000000000E+00 -0.00000000000E+00 -0.19754532522E+03  0.19754532522E+03  0.00000000000E+00 0.  1.
         25    2    1    2    0    0 -0.60269893853E+02  0.55499900261E+02  0.14594983511E+03  0.20895308711E+03  0.12508932493E+03 0.  0.
         23    2    1    2    0    0  0.60269893853E+02 -0.55499900261E+02 -0.14297225055E+03  0.18911514788E+03  0.92794265427E+02 0.  0.
          5    1    3    3  502    0  0.42830761294E+01 -0.62194060681E+01 -0.19257865628E+02  0.21103638111E+02  0.41800000000E+01 0. -1.
         -5    1    3    3    0  502 -0.64552969982E+02  0.61719306329E+02  0.16520770074E+03  0.18784944900E+03  0.41800000000E+01 0. -1.
        -11    1    4    4    0    0  0.60519512329E+02 -0.86304923536E+01 -0.12457062009E+03  0.13876215680E+03  0.00000000000E+00 0.  1.
         11    1    4    4    0    0 -0.24961847672E+00 -0.46869407907E+02 -0.18401630464E+02  0.50352991080E+02  0.00000000000E+00 0. -1.
</event>
<event>
 8    1  0.6760442E-009  0.1180225E+03  0.7561462E-02  0.1246395E+00
          1   -1    0    0  501    0  0.00000000000E+00  0.00000000000E+00  0.61035824820E+03  0.61035824820E+03  0.00000000000E+00 0. -1.
         -1   -1    0    0    0  501 -0.00000000000E+00 -0.00000000000E+00 -0.25402230651E+02  0.25402230651E+02  0.00000000000E+00 0.  1.
         25    2    1    2    0    0 -0.55214811313E+02 -0.10562914632E+01  0.25638674218E+03  0.29057056480E+03  0.12508916990E+03 0.  0.
         23    2    1    2    0    0  0.55214811313E+02  0.10562914632E+01  0.32856927537E+03  0.34518991405E+03  0.90269135930E+02 0.  0.
          5    1    3    3  502    0 -0.79192877852E+02 -0.37302613665E+02  0.12937115583E+03  0.15626056844E+03  0.41800000000E+01 0.  1.
         -5    1    3    3    0  502  0.23978066539E+02  0.36246322201E+02  0.12701558635E+03  0.13430999636E+03  0.41800000000E+01 0.  1.
        -11    1    4    4    0    0  0.73535505248E+01  0.41462616054E+02  0.10866174135E+03  0.11653581968E+03  0.00000000000E+00 0.  1.
         11    1    4    4    0    0  0.47861260788E+02 -0.40406324591E+02  0.21990753402E+03  0.22865409437E+03  0.00000000000E+00 0. -1.
</event>
<event>
 8    1  0.6760442E-009  0.7750449E+02  0.7561462E-02  0.1336286E+00
         -2   -1    0    0    0  501 -0.00000000000E+00  0.00000000000E+00  0.42581649403E+02  0.42581649403E+02  0.00000000000E+00 0.  1.
          2   -1    0    0  501    0  0.00000000000E+00 -0.00000000000E+00 -0.41551345874E+03  0.41551345874E+03  0.00000000000E+00 0. -1.
         25    2    1    2    0    0 -0.66660134138E+02 -0.25362234072E+02 -0.26408791148E+03  0.30079425503E+03  0.12509173622E+03 0.  0.
         23    2    1    2    0    0  0.66660134138E+02  0.25362234072E+02 -0.10884389786E+03  0.15730085311E+03  0.88372777983E+02 0.  0.
          5    1    3    3  502    0 -0.62284649743E+02 -0.35503292435E+02 -0.27529856845E+03  0.28451122220E+03  0.41800000000E+01 0. -1.
         -5    1    3    3    0  502 -0.43754843944E+01  0.10141058363E+02  0.11210656971E+02  0.16283032830E+02  0.41800000000E+01 0. -1.
        -11    1    4    4    0    0  0.49308046158E+02  0.20158424998E+02 -0.68471095372E+01  0.53707805981E+02  0.00000000000E+00 0.  1.
         11    1    4    4    0    0  0.17352087980E+02  0.52038090737E+01 -0.10199678832E+03  0.10359304713E+03  0.00000000000E+00 0. -1.
</event>
<event>
 8    1  0.6760442E-009  0.9767833E+02  0.7561462E-02  0.1285255E+00
         -2   -1    0    0    0  501 -0.00000000000E+00  0.00000000000E+00  0.22394614337E+02  0.22394614337E+02  0.00000000000E+00 0.  1.
          2   -1    0    0  501    0  0.00000000000E+00 -0.00000000000E+00 -0.55733102612E+03  0.55733102612E+03  0.00000000000E+00 0. -1.
         25    2    1    2    0    0  0.64758991459E+00 -0.22307586324E+02 -0.34746661785E+03  0.36997115536E+03  0.12509019745E+03 0.  0.
         23    2    1    2    0    0 -0.64758991459E+00  0.22307586324E+02 -0.18746979394E+03  0.20975448510E+03  0.91400068932E+02 0.  0.
          5    1    3    3  502    0  0.53255121256E+02 -0.49209762905E+01 -0.76927174994E+02  0.93784788746E+02  0.41800000000E+01 0.  1.
         -5    1    3    3    0  502 -0.52607531342E+02 -0.17386610033E+02 -0.27053944285E+03  0.27618636661E+03  0.41800000000E+01 0.  1.
        -11    1    4    4    0    0 -0.33031233247E+02  0.37842690834E+02 -0.65121805216E+02  0.82243426084E+02  0.00000000000E+00 0.  1.
         11    1    4    4    0    0  0.32383643332E+02 -0.15535104510E+02 -0.12234798872E+03  0.12751105902E+03  0.00000000000E+00 0. -1.
</event>
<event>
 8    1  0.6760442E-009  0.1311964E+03  0.7561462E-02  0.1225691E+00
          1   -1    0    0  501    0  0.00000000000E+00  0.00000000000E+00  0.52866948899E+03  0.52866948899E+03  0.00000000000E+00 0. -1.
         -1   -1    0    0    0  501 -0.00000000000E+00 -0.00000000000E+00 -0.41488185241E+02  0.41488185241E+02  0.00000000000E+00 0.  1.
         25    2    1    2    0    0  0.93393680717E+02 -0.25033936148E+02  0.30480570448E+03  0.34337112403E+03  0.12509250088E+03 0.  0.
         23    2    1    2    0    0 -0.93393680717E+02  0.25033936148E+02  0.18237559927E+03  0.22678655020E+03  0.93926580830E+02 0.  0.
          5    1    3    3  502    0  0.10934141978E+03 -0.51762244003E+02  0.19823982902E+03  0.23227435974E+03  0.41800000000E+01 0.  1.
         -5    1    3    3    0  502 -0.15947739068E+02  0.26728307855E+02  0.10656587547E+03  0.11109676429E+03  0.41800000000E+01 0.  1.
        -11    1    4    4    0    0 -0.20950229337E+02 -0.16292561760E+02  0.11930578141E+03  0.12222204857E+03  0.00000000000E+00 0. -1.
         11    1    4    4    0    0 -0.72443451380E+02  0.41326497908E+02  0.63069817859E+02  0.10456450163E+03  0.00000000000E+00 0.  1.
</event>
<event>
 8    1  0.6760442E-009  0.1133545E+03  0.7561462E-02  0.1254481E+00
          1   -1    0    0  501    0  0.00000000000E+00  0.00000000000E+00  0.21424874994E+03  0.21424874994E+03  0.00000000000E+00 0. -1.
         -1   -1    0    0    0  501 -0.00000000000E+00 -0.00000000000E+00 -0.95817887874E+02  0.95817887874E+02  0.00000000000E+00 0.  1.
         25    2    1    2    0    0  0.50040922700E+02 -0.64975405567E+02  0.16673310798E+02  0.15050282379E+03  0.12508878208E+03 0.  0.
         23    2    1    2    0    0 -0.50040922700E+02  0.64975405567E+02  0.10175755127E+03  0.15956381403E+03  0.91542963860E+02 0.  0.
          5    1    3    3  502    0  0.67166843058E+02 -0.84099438351E+02 -0.15836815979E+02  0.10886862485E+03  0.41800000000E+01 0.  1.
         -5    1    3    3    0  502 -0.17125920358E+02  0.19124032785E+02  0.32510126778E+02  0.41634198937E+02  0.41800000000E+01 0.  1.
        -11    1    4    4    0    0 -0.56949728578E+02  0.47367217903E+02  0.11477486126E+03  0.13660231950E+03  0.00000000000E+00 0. -1.
         11    1    4    4    0    0  0.69088058780E+01  0.17608187663E+02 -0.13017309986E+02  0.22961494522E+02  0.00000000000E+00 0.  1.
</event>
<event>
 8    1  0.6760442E-009  0.1209150E+03  0.7561462E-02  0.1241595E+00
          1   -1    0    0  501    0  0.00000000000E+00  0.00000000000E+00  0.16185831314E+03  0.16185831314E+03  0.00000000000E+00 0. -1.
         -1   -1    0    0    0  501 -0.00000000000E+00 -0.00000000000E+00 -0.10401844003E+03  0.10401844003E+03  0.00000000000E+00 0.  1.
         25    2    1    2    0    0 -0.68344892200E+02  0.51926822906E+01  0.46985484290E+02  0.15017658978E+03  0.12508950454E+03 0.  0.
         23    2    1    2    0    0  0.68344892200E+02 -0.51926822906E+01  0.10854388820E+02  0.11570016338E+03  0.92578192956E+02 0.  0.
          5    1    3    3  502    0 -0.66838259599E+02  0.48982332501E+02  0.62103075299E+02  0.10363824683E+03  0.41800000000E+01 0. -1.
         -5    1    3    3    0  502 -0.15066326007E+01 -0.43789650210E+02 -0.15117591009E+02  0.46538342957E+02  0.41800000000E+01 0. -1.
        -11    1    4    4    0    0  0.66713272094E+02  0.34508752433E+02  0.11346224819E+02  0.75962171411E+02  0.00000000000E+00 0. -1.
         11    1    4    4    0    0  0.16316201064E+01 -0.39701434723E+02 -0.49183599885E+00  0.39737991971E+02  0.00000000000E+00 0.  1.
</event>
<event>
 8    1  0.6760442E-009  0.5856386E+02  0.7561462E-02  0.1403959E+00
         -1   -1    0    0    0  501 -0.00000000000E+00  0.00000000000E+00  0.18896190694E+02  0.18896190694E+02  0.00000000000E+00 0.  1.
          1   -1    0    0  501    0  0.00000000000E+00 -0.00000000000E+00 -0.81950618442E+03  0.81950618442E+03  0.00000000000E+00 0. -1.
         25    2    1    2    0    0  0.27981011859E+02 -0.20572195119E+02 -0.61457694563E+03  0.62813897305E+03  0.12509034786E+03 0.  0.
         23    2    1    2    0    0 -0.27981011859E+02  0.20572195119E+02 -0.18603304809E+03  0.21026340206E+03  0.91631059292E+02 0.  0.
          5    1    3    3  502    0 -0.10611293600E+02 -0.14554832821E+02 -0.77621565472E+01  0.20054081494E+02  0.41800000000E+01 0. -1.
         -5    1    3    3    0  502  0.38592305459E+02 -0.60173622985E+01 -0.60681478908E+03  0.60808489155E+03  0.41800000000E+01 0. -1.
        -11    1    4    4    0    0 -0.56001568885E+01 -0.15736220796E+02  0.25683026056E+01  0.16899307098E+02  0.00000000000E+00 0.  1.
         11    1    4    4    0    0 -0.22380854971E+02  0.36308415916E+02 -0.18860135070E+03  0.19336409496E+03  0.00000000000E+00 0. -1.
</event>
<event>
 8    1  0.6760442E-009  0.1220357E+03  0.7561462E-02  0.1239776E+00
          2   -1    0    0  501    0  0.00000000000E+00  0.00000000000E+00  0.37245084737E+03  0.37245084737E+03  0.00000000000E+00 0. -1.
         -2   -1    0    0    0  501 -0.00000000000E+00 -0.00000000000E+00 -0.48804612000E+02  0.48804612000E+02  0.00000000000E+00 0.  1.
         25    2    1    2    0    0 -0.72232492807E+02  0.52968557965E+01  0.12274818295E+03  0.18963187939E+03  0.12509014177E+03 0.  0.
         23    2    1    2    0    0  0.72232492807E+02 -0.52968557965E+01  0.20089805243E+03  0.23162357998E+03  0.89687600230E+02 0.  0.
          5    1    3    3  502    0 -0.61132410441E+00  0.47781912340E+02  0.93360205257E+01  0.48868379790E+02  0.41800000000E+01 0.  1.
         -5    1    3    3    0  502 -0.71621168703E+02 -0.42485056543E+02  0.11341216242E+03  0.14076349960E+03  0.41800000000E+01 0.  1.
        -11    1    4    4    0    0 -0.62251958340E+01 -0.29867203478E+02  0.34718886447E+02  0.46219086782E+02  0.00000000000E+00 0.  1.
         11    1    4    4    0    0  0.78457688641E+02  0.24570347682E+02  0.16617916598E+03  0.18540449320E+03  0.00000000000E+00 0. -1.
</event>
<event>
 8    1  0.6760442E-009  0.2389814E+03  0.7561462E-02  0.1120473E+00
          1   -1    0    0  501    0  0.00000000000E+00  0.00000000000E+00  0.33663318010E+03  0.33663318010E+03  0.00000000000E+00 0. -1.
         -1   -1    0    0    0  501 -0.00000000000E+00 -0.00000000000E+00 -0.22954309649E+03  0.22954309649E+03  0.00000000000E+00 0.  1.
         25    2    1    2    0    0 -0.53983409728E+02 -0.22369211263E+03 -0.58355022046E+02  0.26833766842E+03  0.12508967150E+03 0.  0.
         23    2    1    2    0    0  0.53983409728E+02  0.22369211263E+03  0.16544510565E+03  0.29783860817E+03  0.91560819959E+02 0.  0.
          5    1    3    3  502    0  0.43937399598E+01 -0.35665016426E+02 -0.61540908082E+02  0.71386652219E+02  0.41800000000E+01 0. -1.
         -5    1    3    3    0  502 -0.58377149688E+02 -0.18802709620E+03  0.31858860364E+01  0.19695101620E+03  0.41800000000E+01 0. -1.
        -11    1    4    4    0    0 -0.19229269771E+02  0.93852392883E+02  0.43327907374E+02  0.10514439606E+03  0.00000000000E+00 0.  1.
         11    1    4    4    0    0  0.73212679499E+02  0.12983971975E+03  0.12211719828E+03  0.19269421210E+03  0.00000000000E+00 0. -1.
</event>
<event>
 7    1  0.6760442E-009  0.1232164E+03  0.7561462E-02  0.1237883E+00
          2   -1    0    0  501    0  0.00000000000E+00  0.00000000000E+00  0.33569861359E+03  0.33569861359E+03  0.00000000000E+00 0. -1.
         -2   -1    0    0    0  501 -0.00000000000E+00 -0.00000000000E+00 -0.71792638408E+02  0.71792638408E+02  0.00000000000E+00 0.  1.
         25    2    1    2    0    0 -0.72053473314E+02 -0.49956211998E+02  0.11654300354E+03  0.19211258266E+03  0.12505057621E+03 0.  0.
          5    1    3    3  502    0 -0.60309188647E+02 -0.78823098168E+02  0.12489152919E+03  0.15957958987E+03  0.41800000000E+01 0.  1.
         -5    1    3    3    0  502 -0.11744284668E+02  0.28866886170E+02 -0.83485256532E+01  0.32532992793E+02  0.41800000000E+01 0.  1.
        -11    1    1    2    0    0  0.44621616944E+02  0.69061937855E+02  0.15979820101E+03  0.17971117106E+03  0.00000000000E+00 0. -1.
         11    1    1    2    0    0  0.27431856370E+02 -0.19105725857E+02 -0.12435229355E+02  0.35667498280E+02  0.00000000000E+00 0.  1.
</event>
<event>
 8    1  0.6760442E-009  0.2599312E+03  0.7561462E-02  0.1107185E+00
         -1   -1    0    0    0  501 -0.00000000000E+00  0.00000000000E+00  0.53286887756E+02  0.53286887756E+02  0.00000000000E+00 0.  1.
          1   -1    0    0  501    0  0.00000000000E+00 -0.00000000000E+00 -0.14636527268E+04  0.14636527268E+04  0.00000000000E+00 0. -1.
         25    2    1    2    0    0 -0.24892604844E+03  0.13485398041E+02 -0.55513864343E+03  0.62126634389E+03  0.12508766151E+03 0.  0.
         23    2    1    2    0    0  0.24892604844E+03 -0.13485398041E+02 -0.85522719561E+03  0.89567327067E+03  0.93118301757E+02 0.  0.
          5    1    3    3  502    0 -0.96137406329E+02  0.35889185601E+02 -0.11193518227E+03  0.15191244837E+03  0.41800000000E+01 0.  1.
         -5    1    3    3    0  502 -0.15278864211E+03 -0.22403787560E+02 -0.44320346116E+03  0.46935389552E+03  0.41800000000E+01 0.  1.
        -11    1    4    4    0    0  0.11350776967E+03 -0.47515476541E+02 -0.47289709614E+03  0.48864444929E+03  0.00000000000E+00 0. -1.
         11    1    4    4    0    0  0.13541827878E+03  0.34030078500E+02 -0.38233009947E+03  0.40702882138E+03  0.00000000000E+00 0.  1.
</event>
<event>
 8    1  0.6760442E-009  0.1108393E+03  0.7561462E-02  0.1259023E+00
         -1   -1    0    0    0  501 -0.00000000000E+00  0.00000000000E+00  0.18942737598E+02  0.18942737598E+02  0.00000000000E+00 0.  1.
          1   -1    0    0  501    0  0.00000000000E+00 -0.00000000000E+00 -0.10795678258E+04  0.10795678258E+04  0.00000000000E+00 0. -1.
         25    2    1    2    0    0  0.43110029311E+02  0.61995540215E+02 -0.79001869081E+03  0.80341717409E+03  0.12509077565E+03 0.  0.
         23    2    1    2    0    0 -0.43110029311E+02 -0.61995540215E+02 -0.27060639739E+03  0.29509338931E+03  0.90279369034E+02 0.  0.
          5    1    3    3  502    0 -0.14868141055E+02 -0.31798439557E+02 -0.16677763544E+03  0.17048300343E+03  0.41800000000E+01 0.  1.
         -5    1    3    3    0  502  0.57978170366E+02  0.93793979773E+02 -0.62324105537E+03  0.63293417065E+03  0.41800000000E+01 0.  1.
        -11    1    4    4    0    0 -0.19317075116E+02 -0.20632828868E+02 -0.97349679755E+01  0.29893688625E+02  0.00000000000E+00 0.  1.
         11    1    4    4    0    0 -0.23792954195E+02 -0.41362711347E+02 -0.26087142942E+03  0.26519970069E+03  0.00000000000E+00 0. -1.
</event>
<event>
 8    1  0.6760442E-009  0.7534685E+02  0.7561462E-02  0.1342800E+00
         -1   -1    0    0    0  501 -0.00000000000E+00  0.00000000000E+00  0.14550421830E+03  0.14550421830E+03  0.00000000000E+00 0.  1.
          1   -1    0    0  501    0  0.00000000000E+00 -0.00000000000E+00 -0.91309168957E+02  0.91309168957E+02  0.00000000000E+00 0. -1.
         25    2    1    2    0    0 -0.27471487073E+02  0.79097243710E+01  0.40630094116E+01  0.12837996527E+03  0.12509061154E+03 0.  0.
         23    2    1    2    0    0  0.27471487073E+02 -0.79097243710E+01  0.50132039932E+02  0.10843342199E+03  0.91800540498E+02 0.  0.
          5    1    3    3  502    0 -0.60248356828E+02 -0.31374259020E+02 -0.21044873651E+02  0.71236000284E+02  0.41800000000E+01 0.  1.
         -5    1    3    3    0  502  0.32776869755E+02  0.39283983391E+02  0.25107883062E+02  0.57143964982E+02  0.41800000000E+01 0.  1.
        -11    1    4    4    0    0  0.17315210242E+02  0.16029433412E+01 -0.25868223852E+02  0.31169711874E+02  0.00000000000E+00 0. -1.
         11    1    4    4    0    0  0.10156276831E+02 -0.95126677122E+01  0.76000263784E+02  0.77263710119E+02  0.00000000000E+00 0.  1.
</event>
<event>
 8    1  0.6760442E-009  0.1198761E+03  0.7561462E-02  0.1243302E+00
         -1   -1    0    0    0  501 -0.00000000000E+00  0.00000000000E+00  0.12783438051E+04  0.12783438051E+04  0.00000000000E+00 0.  1.
          1   -1    0    0  501    0  0.00000000000E+00 -0.00000000000E+00 -0.14833275145E+02  0.14833275145E+02  0.00000000000E+00 0. -1.
         25    2    1    2    0    0  0.41799923539E+02  0.58896183949E+02  0.90002515678E+03  0.91154246742E+03  0.12509353695E+03 0.  0.
         23    2    1    2    0    0 -0.41799923539E+02 -0.58896183949E+02  0.36348537319E+03  0.38163461284E+03  0.91144759040E+02 0.  0.
          5    1    3    3  502    0  0.78313189728E+02  0.51875748128E+02  0.78435922902E+03  0.78997526637E+03  0.41800000000E+01 0. -1.
         -5    1    3    3    0  502 -0.36513266189E+02  0.70204358215E+01  0.11566592776E+03  0.12156720105E+03  0.41800000000E+01 0. -1.
        -11    1    4    4    0    0 -0.46171497642E+02  0.29881089120E+01  0.22762791940E+03  0.23228259874E+03  0.00000000000E+00 0.  1.
         11    1    4    4    0    0  0.43715741029E+01 -0.61884292861E+02  0.13585745379E+03  0.14935201410E+03  0.00000000000E+00 0. -1.
</event>
<event>
 8    1  0.6760442E-009  0.9057588E+02  0.7561462E-02  0.1301463E+00
          2   -1    0    0  501    0  0.00000000000E+00  0.00000000000E+00  0.16469342533E+03  0.16469342533E+03  0.00000000000E+00 0. -1.
         -2   -1    0    0    0  501 -0.00000000000E+00 -0.00000000000E+00 -0.10239166790E+03  0.10239166790E+03  0.00000000000E+00 0.  1.
         25    2    1    2    0    0 -0.67198167276E+02 -0.63721032895E+01  0.59355976396E+02  0.15404052638E+03  0.12509658048E+03 0.  0.
         23    2    1    2    0    0  0.67198167276E+02  0.63721032895E+01  0.29457810359E+01  0.11304456684E+03  0.90632218776E+02 0.  0.
          5    1    3    3  502    0 -0.38927573136E+02 -0.82500969388E+01  0.98050656715E+02  0.10590006483E+03  0.41800000000E+01 0.  1.
         -5    1    3    3    0  502 -0.28270594141E+02  0.18779936493E+01 -0.38694680318E+02  0.48140461549E+02  0.41800000000E+01 0.  1.
        -11    1    4    4    0    0 -0.18537132440E+02  0.18170734871E+02 -0.38196172930E+01  0.26237194231E+02  0.00000000000E+00 0.  1.
         11    1    4    4    0    0  0.85735299716E+02 -0.11798631582E+02  0.67653983289E+01  0.86807372608E+02  0.00000000000E+00 0. -1.
</event>
<event>
 8    1  0.6760442E-009  0.1277240E+03  0.7561462E-02  0.1230873E+00
          1   -1    0    0  501    0  0.00000000000E+00  0.00000000000E+00  0.60980431270E+03  0.60980431270E+03  0.00000000000E+00 0. -1.
         -1   -1    0    0    0  501 -0.00000000000E+00 -0.00000000000E+00 -0.41510759397E+02  0.41510759397E+02  0.00000000000E+00 0.  1.
         25    2    1    2    0    0 -0.11089539452E+03  0.12613422234E+02  0.37156978213E+03  0.40763726378E+03  0.12508856416E+03 0.  0.
         23    2    1    2    0    0  0.11089539452E+03 -0.12613422234E+02  0.19672377118E+03  0.24367780832E+03  0.90673839539E+02 0.  0.
          5    1    3    3  502    0 -0.12608785548E+03  0.48096154199E+01  0.36883336249E+03  0.38984202106E+03  0.41800000000E+01 0.  1.
         -5    1    3    3    0  502  0.15192460960E+02  0.78038068138E+01  0.27364196364E+01  0.17795242713E+02  0.41800000000E+01 0.  1.
        -11    1    4    4    0    0  0.57184098723E+02 -0.59624867720E+01  0.17695171600E+03  0.18605773886E+03  0.00000000000E+00 0. -1.
         11    1    4    4    0    0  0.53711295796E+02 -0.66509354617E+01  0.19772055176E+02  0.57620069459E+02  0.00000000000E+00 0.  1.
</event>
<event>
 8    1  0.6760442E-009  0.1442855E+03  0.7561462E-02  0.1207676E+00
          1   -1    0    0  501    0  0.00000000000E+00  0.00000000000E+00  0.31614293529E+02  0.31614293529E+02  0.00000000000E+00 0. -1.
         -1   -1    0    0    0  501 -0.00000000000E+00 -0.00000000000E+00 -0.82330305598E+03  0.82330305598E+03  0.00000000000E+00 0.  1.
         25    2    1    2    0    0  0.48567166419E+02  0.10871389736E+03 -0.40373653659E+03  0.43912141430E+03  0.12508774675E+03 0.  0.
         23    2    1    2    0    0 -0.48567166419E+02 -0.10871389736E+03 -0.38795222586E+03  0.41579593521E+03  0.90564060486E+02 0.  0.
          5    1    3    3  502    0  0.13310021418E+02 -0.12602757609E+02 -0.18907416607E+03  0.19000657580E+03  0.41800000000E+01 0. -1.
         -5    1    3    3    0  502  0.35257145000E+02  0.12131665497E+03 -0.21466237051E+03  0.24911483850E+03  0.41800000000E+01 0. -1.
        -11    1    4    4    0    0  0.21501744533E+02 -0.38935880271E+02 -0.71052104520E+02  0.83825588856E+02  0.00000000000E+00 0. -1.
         11    1    4    4    0    0 -0.70068910951E+02 -0.69778017093E+02 -0.31690012134E+03  0.33197034635E+03  0.00000000000E+00 0.  1.
</event>
<event>
 8    1  0.6760442E-009  0.1255094E+03  0.7561462E-02  0.1234275E+00
          3   -1    0    0  501    0  0.00000000000E+00  0.00000000000E+00  0.87429068610E+03  0.87429068610E+03  0.00000000000E+00 0. -1.
         -3   -1    0    0    0  501 -0.00000000000E+00 -0.00000000000E+00 -0.23182112332E+02  0.23182112332E+02  0.00000000000E+00 0.  1.
         25    2    1    2    0    0  0.26487908726E+01 -0.83641765044E+02  0.34503033996E+03  0.37642477329E+03  0.12508682385E+03 0.  0.
         23    2    1    2    0    0 -0.26487908726E+01  0.83641765044E+02  0.50607823381E+03  0.52104802514E+03  0.91503578177E+02 0.  0.
          5    1    3    3  502    0  0.42377468419E+02 -0.75111730169E+02  0.31249110698E+03  0.32420022544E+03  0.41800000000E+01 0. -1.
         -5    1    3    3    0  502 -0.39728677546E+02 -0.85300348753E+01  0.32539232987E+02  0.52224547848E+02  0.41800000000E+01 0. -1.
        -11    1    4    4    0    0  0.43763991067E+02  0.50337489225E+02  0.25887688612E+03  0.26733198818E+03  0.00000000000E+00 0. -1.
         11    1    4    4    0    0 -0.46412781940E+02  0.33304275819E+02  0.24720134769E+03  0.25371603697E+03  0.00000000000E+00 0.  1.
</event>
<event>
 8    1  0.6760442E-009  0.7269619E+02  0.7561462E-02  0.1351157E+00
          1   -1    0    0  501    0  0.00000000000E+00  0.00000000000E+00  0.93743212151E+02  0.93743212151E+02  0.00000000000E+00 0. -1.
         -1   -1    0    0    0  501 -0.00000000000E+00 -0.00000000000E+00 -0.14071321286E+03  0.14071321286E+03  0.00000000000E+00 0.  1.
         25    2    1    2    0    0 -0.98534759446E+01 -0.16181729599E+02  0.45494223434E+01  0.12659575294E+03  0.12508736170E+03 0.  0.
         23    2    1    2    0    0  0.98534759446E+01  0.16181729599E+02 -0.51519423049E+02  0.10786067206E+03  0.92847909325E+02 0.  0.
          5    1    3    3  502    0  0.21719060756E+02 -0.36510741641E+02  0.51137158470E+02  0.66612560615E+02  0.41800000000E+01 0. -1.
         -5    1    3    3    0  502 -0.31572536700E+02  0.20329012042E+02 -0.46587736127E+02  0.59983192327E+02  0.41800000000E+01 0. -1.
        -11    1    4    4    0    0  0.23892732193E+02 -0.16711895294E+02  0.14660213218E+02  0.32635440055E+02  0.00000000000E+00 0. -1.
         11    1    4    4    0    0 -0.14039256249E+02  0.32893624892E+02 -0.66179636267E+02  0.75225232010E+02  0.00000000000E+00 0.  1.
</event>
<event>
 8    1  0.6760442E-009  0.8419594E+02  0.7561462E-02  0.1317549E+00
          1   -1    0    0  501    0  0.00000000000E+00  0.00000000000E+00  0.87605896520E+02  0.87605896520E+02  0.00000000000E+00 0. -1.
         -1   -1    0    0    0  501 -0.00000000000E+00 -0.00000000000E+00 -0.14319967289E+03  0.14319967289E+03  0.00000000000E+00 0.  1.
         25    2    1    2    0    0  0.14344726396E+02 -0.64869130448E+01 -0.13207937744E+02  0.12677142993E+03  0.12509474254E+03 0.  0.
         23    2    1    2    0    0 -0.14344726396E+02  0.64869130448E+01 -0.42385838623E+02  0.10403413948E+03  0.93694672447E+02 0.  0.
          5    1    3    3  502    0 -0.85292701615E+00 -0.54868027607E+02  0.27579962196E+02  0.61557734304E+02  0.41800000000E+01 0. -1.
         -5    1    3    3    0  502  0.15197653412E+02  0.48381114562E+02 -0.40787899939E+02  0.65213695624E+02  0.41800000000E+01 0. -1.
        -11    1    4    4    0    0 -0.10631781927E+02  0.33531200932E+02 -0.61402943897E+02  0.70765088441E+02  0.00000000000E+00 0.  1.
         11    1    4    4    0    0 -0.37129444689E+01 -0.27044287888E+02  0.19017105273E+02  0.33269051038E+02  0.00000000000E+00 0. -1.
</event>
<event>
 8    1  0.6760442E-009  0.1426409E+03  0.7561462E-02  0.1209819E+00
          1   -1    0    0  501    0  0.00000000000E+00  0.00000000000E+00  0.13967768772E+03  0.13967768772E+03  0.00000000000E+00 0. -1.
         -1   -1    0    0    0  501 -0.00000000000E+00 -0.00000000000E+00 -0.18279051576E+03  0.18279051576E+03  0.00000000000E+00 0.  1.
         25    2    1    2    0    0  0.86309375411E+02  0.77498361396E+02 -0.37572858681E+02  0.17468250496E+03  0.12508778328E+03 0.  0.
         23    2    1    2    0    0 -0.86309375411E+02 -0.77498361396E+02 -0.55399693536E+01  0.14778569852E+03  0.91403594702E+02 0.  0.
          5    1    3    3  502    0  0.13671651692E+02  0.62171508788E+02 -0.68988658053E+02  0.93963385981E+02  0.41800000000E+01 0. -1.
         -5    1    3    3    0  502  0.72637723719E+02  0.15326852608E+02  0.31415799372E+02  0.80719118975E+02  0.41800000000E+01 0. -1.
        -11    1    4    4    0    0  0.50162747950E+01 -0.52100555005E+02 -0.80729315009E+01  0.52960391499E+02  0.00000000000E+00 0. -1.
         11    1    4    4    0    0 -0.91325650206E+02 -0.25397806391E+02  0.25329621473E+01  0.94825307024E+02  0.00000000000E+00 0.  1.
</event>
<event>
 8    1  0.6760442E-009  0.1200073E+03  0.7561462E-02  0.1243085E+00
         -2   -1    0    0    0  501 -0.00000000000E+00  0.00000000000E+00  0.92460530929E+02  0.92460530929E+02  0.00000000000E+00 0.  1.
          2   -1    0    0  501    0  0.00000000000E+00 -0.00000000000E+00 -0.22703006348E+03  0.22703006348E+03  0.00000000000E+00 0. -1.
         25    2    1    2    0    0  0.83061583807E+02 -0.44323776107E+02 -0.92754372502E+02  0.18197525846E+03  0.12509115572E+03 0.  0.
         23    2    1    2    0    0 -0.83061583807E+02  0.44323776107E+02 -0.41815160043E+02  0.13751533595E+03  0.91094106163E+02 0.  0.
          5    1    3    3  502    0  0.19520479499E+02 -0.40852025075E+02  0.22136929820E+02  0.50571267875E+02  0.41800000000E+01 0. -1.
         -5    1    3    3    0  502  0.63541104309E+02 -0.34717510319E+01 -0.11489130232E+03  0.13140399058E+03  0.41800000000E+01 0. -1.
        -11    1    4    4    0    0 -0.52975463529E+01  0.52330320896E+02 -0.20833501961E+02  0.56573503395E+02  0.00000000000E+00 0. -1.
         11    1    4    4    0    0 -0.77764037455E+02 -0.80065447886E+01 -0.20981658082E+02  0.80941832550E+02  0.00000000000E+00 0.  1.
</event>
<event>
 8    1  0.6760442E-009  0.9780778E+02  0.7561462E-02  0.1284975E+00
          2   -1    0    0  501    0  0.00000000000E+00  0.00000000000E+00  0.37571708569E+03  0.37571708569E+03  0.00000000000E+00 0. -1.
         -2   -1    0    0    0  501 -0.00000000000E+00 -0.00000000000E+00 -0.77532487506E+02  0.77532487506E+02  0.00000000000E+00 0.  1.
         25    2    1    2    0    0  0.63801260544E+02 -0.46992552738E+02  0.29880391976E+03  0.33348169609E+03  0.12508940125E+03 0.  0.
         23    2    1    2    0    0 -0.63801260544E+02  0.46992552738E+02 -0.61932157556E+00  0.11976787711E+03  0.89805678925E+02 0.  0.
          5    1    3    3  502    0  0.25380018891E+02 -0.32151813338E+02  0.28768297479E+03  0.29061460879E+03  0.41800000000E+01 0. -1.
         -5    1    3    3    0  502  0.38421241654E+02 -0.14840739400E+02  0.11120944965E+02  0.42867087294E+02  0.41800000000E+01 0. -1.
        -11    1    4    4    0    0 -0.40885342801E+02  0.69683362761E+02  0.17658017789E+02  0.82699382669E+02  0.00000000000E+00 0. -1.
         11    1    4    4    0    0 -0.22915917743E+02 -0.22690810023E+02 -0.18277339364E+02  0.37068494436E+02  0.00000000000E+00 0.  1.
</event>
<event>
 8    1  0.6760442E-009  0.1770663E+03  0.7561462E-02  0.1170673E+00
         -2   -1    0    0    0  501 -0.00000000000E+00  0.00000000000E+00  0.24498635552E+02  0.24498635552E+02  0.00000000000E+00 0.  1.
          2   -1    0    0  501    0  0.00000000000E+00 -0.00000000000E+00 -0.14254603856E+04  0.14254603856E+04  0.00000000000E+00 0. -1.
         25    2    1    2    0    0  0.10902939792E+03 -0.96509241423E+02 -0.56115858705E+03  0.59308032574E+03  0.12507545591E+03 0.  0.
         23    2    1    2    0    0 -0.10902939792E+03  0.96509241423E+02 -0.83980316296E+03  0.85687869538E+03  0.88149320916E+02 0.  0.
          5    1    3    3  502    0  0.24733437898E+02 -0.10353258584E+03 -0.33808320330E+03  0.35446927093E+03  0.41800000000E+01 0. -1.
         -5    1    3    3    0  502  0.84295960017E+02  0.70233444179E+01 -0.22307538375E+03  0.23861105481E+03  0.41800000000E+01 0. -1.
        -11    1    4    4    0    0  0.35428167544E+01  0.33933561200E+02 -0.93215529750E+02  0.99263150831E+02  0.00000000000E+00 0.  1.
         11    1    4    4    0    0 -0.11257221467E+03  0.62575680223E+02 -0.74658763321E+03  0.75761554455E+03  0.00000000000E+00 0. -1.
</event>
<event>
 8    1  0.6760442E-009  0.1264890E+03  0.7561462E-02  0.1232760E+00
         -2   -1    0    0    0  501 -0.00000000000E+00  0.00000000000E+00  0.19174771070E+03  0.19174771070E+03  0.00000000000E+00 0.  1.
          2   -1    0    0  501    0  0.00000000000E+00 -0.00000000000E+00 -0.99513599441E+02  0.99513599441E+02  0.00000000000E+00 0. -1.
         25    2    1    2    0    0 -0.17917103165E+02  0.69581078804E+02  0.29641655240E+01  0.14427855108E+03  0.12507983415E+03 0.  0.
         23    2    1    2    0    0  0.17917103165E+02 -0.69581078804E+02  0.89269945730E+02  0.14698275906E+03  0.92044875662E+02 0.  0.
          5    1    3    3  502    0 -0.50170519059E+02  0.89941503272E+02 -0.10518223701E+02  0.10360820635E+03  0.41800000000E+01 0. -1.
         -5    1    3    3    0  502  0.32253415894E+02 -0.20360424468E+02  0.13482389225E+02  0.40670344731E+02  0.41800000000E+01 0. -1.
        -11    1    4    4    0    0 -0.20573114534E+01 -0.85787640740E+02  0.47921250893E+02  0.98286306886E+02  0.00000000000E+00 0. -1.
         11    1    4    4    0    0  0.19974414618E+02  0.16206561936E+02  0.41348694837E+02  0.48696452169E+02  0.00000000000E+00 0.  1.
</event>
<event>
 8    1  0.6760442E-009  0.1039075E+03  0.7561462E-02  0.1272287E+00
          1   -1    0    0  501    0  0.00000000000E+00  0.00000000000E+00  0.16958372463E+03  0.16958372463E+03  0.00000000000E+00 0. -1.
         -1   -1    0    0    0  501 -0.00000000000E+00 -0.00000000000E+00 -0.12853126530E+03  0.12853126530E+03  0.00000000000E+00 0.  1.
         25    2    1    2    0    0  0.85051481954E+02 -0.14557740419E+02 -0.27367136949E+02  0.15440938687E+03  0.12509043200E+03 0.  0.
         23    2    1    2    0    0 -0.85051481954E+02  0.14557740419E+02  0.68419596285E+02  0.14370560307E+03  0.92327551729E+02 0.  0.
          5    1    3    3  502    0  0.79407773122E+02 -0.14450491727E+02 -0.72596650340E+02  0.10863773370E+03  0.41800000000E+01 0.  1.
         -5    1    3    3    0  502  0.56437088321E+01 -0.10724869255E+00  0.45229513392E+02  0.45771653163E+02  0.41800000000E+01 0.  1.
        -11    1    4    4    0    0 -0.32469033034E+02  0.47783299730E+02  0.55636817478E+02  0.80205593934E+02  0.00000000000E+00 0. -1.
         11    1    4    4    0    0 -0.52582448920E+02 -0.33225559310E+02  0.12782778807E+02  0.63500009133E+02  0.00000000000E+00 0.  1.
</event>
<event>
 8    1  0.6760442E-009  0.1335051E+03  0.7561462E-02  0.1222346E+00
         -1   -1    0    0    0  501 -0.00000000000E+00  0.00000000000E+00  0.88287085853E+02  0.88287085853E+02  0.00000000000E+00 0.  1.
          1   -1    0    0  501    0  0.00000000000E+00 -0.00000000000E+00 -0.27108552755E+03  0.27108552755E+03  0.00000000000E+00 0. -1.
         25    2    1    2    0    0  0.55364597683E+02  0.89531027660E+02 -0.60749193789E+02  0.17441130043E+03  0.12509114110E+03 0.  0.
         23    2    1    2    0    0 -0.55364597683E+02 -0.89531027660E+02 -0.12204924791E+03  0.18496131297E+03  0.90739323291E+02 0.  0.
          5    1    3    3  502    0 -0.32065368570E+02  0.60843228989E+02 -0.11161850735E+02  0.69800757067E+02  0.41800000000E+01 0. -1.
         -5    1    3    3    0  502  0.87429966253E+02  0.28687798671E+02 -0.49587343054E+02  0.10461054336E+03  0.41800000000E+01 0. -1.
        -11    1    4    4    0    0 -0.20405617888E+02 -0.22350044250E+02 -0.10231889015E+03  0.10670083880E+03  0.00000000000E+00 0. -1.
         11    1    4    4    0    0 -0.34958979795E+02 -0.67180983410E+02 -0.19730357758E+02  0.78260474172E+02  0.00000000000E+00 0.  1.
</event>
<event>
 8    1  0.6760442E-009  0.1421851E+03  0.7561462E-02  0.1210419E+00
          2   -1    0    0  501    0  0.00000000000E+00  0.00000000000E+00  0.42043875353E+03  0.42043875353E+03  0.00000000000E+00 0. -1.
         -2   -1    0    0    0  501 -0.00000000000E+00 -0.00000000000E+00 -0.61384243550E+02  0.61384243550E+02  0.00000000000E+00 0.  1.
         25    2    1    2    0    0 -0.96166519818E+02  0.14070424282E+02  0.91645884397E+02  0.18300771230E+03  0.12508748243E+03 0.  0.
         23    2    1    2    0    0  0.96166519818E+02 -0.14070424282E+02  0.26740862559E+03  0.29881528478E+03  0.91308406003E+02 0.  0.
          5    1    3    3  502    0 -0.30407422371E+02 -0.54503918861E+02  0.45181238464E+02  0.77162848675E+02  0.41800000000E+01 0. -1.
         -5    1    3    3    0  502 -0.65759097447E+02  0.68574343144E+02  0.46464645933E+02  0.10584486363E+03  0.41800000000E+01 0. -1.
        -11    1    4    4    0    0  0.10927438650E+03 -0.26093568134E+01  0.18752458361E+03  0.21705568352E+03  0.00000000000E+00 0.  1.
         11    1    4    4    0    0 -0.13107866683E+02 -0.11461067469E+02  0.79884041974E+02  0.81759601262E+02  0.00000000000E+00 0. -1.
</event>
<event>
 8    1  0.6760442E-009  0.1129569E+03  0.7561462E-02  0.1255190E+00
         -1   -1    0    0    0  501 -0.00000000000E+00  0.00000000000E+00  0.45724561183E+02  0.45724561183E+02  0.00000000000E+00 0.  1.
          1   -1    0    0  501    0  0.00000000000E+00 -0.00000000000E+00 -0.36872354574E+03  0.36872354574E+03  0.00000000000E+00 0. -1.
         25    2    1    2    0    0 -0.55024226091E+02 -0.20608233972E+02 -0.22323482852E+03  0.26255205627E+03  0.12508968313E+03 0.  0.
         23    2    1    2    0    0  0.55024226091E+02  0.20608233972E+02 -0.99764156043E+02  0.15189605065E+03  0.98321709755E+02 0.  0.
          5    1    3    3  502    0 -0.63513712400E+02 -0.62899507371E+02 -0.18162414279E+03  0.20247256934E+03  0.41800000000E+01 0. -1.
         -5    1    3    3    0  502  0.84894863098E+01  0.42291273399E+02 -0.41610685731E+02  0.60079486936E+02  0.41800000000E+01 0. -1.
        -11    1    4    4    0    0  0.62871726920E+01 -0.25340289972E+02 -0.76752484114E+02  0.81071589685E+02  0.00000000000E+00 0. -1.
         11    1    4    4    0    0  0.48737053399E+02  0.45948523945E+02 -0.23011671929E+02  0.70824460970E+02  0.00000000000E+00 0.  1.
</event>
<event>
 8    1  0.6760442E-009  0.1624126E+03  0.7561462E-02  0.1186000E+00
         -1   -1    0    0    0  501 -0.00000000000E+00  0.00000000000E+00  0.13116737449E+03  0.13116737449E+03  0.00000000000E+00 0.  1.
          1   -1    0    0  501    0  0.00000000000E+00 -0.00000000000E+00 -0.25586789312E+03  0.25586789312E+03  0.00000000000E+00 0. -1.
         25    2    1    2    0    0 -0.55123239350E+02  0.12402195035E+03 -0.12607237779E+03  0.22352170472E+03  0.12509073648E+03 0.  0.
         23    2    1    2    0    0  0.55123239350E+02 -0.12402195035E+03  0.13718591614E+01  0.16351356288E+03  0.91185456969E+02 0.  0.
          5    1    3    3  502    0 -0.31313526492E+02 -0.20743744176E+02 -0.24826077450E+02  0.45217766258E+02  0.41800000000E+01 0. -1.
         -5    1    3    3    0  502 -0.23809712858E+02  0.14476569453E+03 -0.10124630034E+03  0.17830393846E+03  0.41800000000E+01 0. -1.
        -11    1    4    4    0    0  0.32639262537E+02 -0.10753971754E+03  0.36960746998E+02  0.11830557521E+03  0.00000000000E+00 0.  1.
         11    1    4    4    0    0  0.22483976812E+02 -0.16482232817E+02 -0.35588887837E+02  0.45207987672E+02  0.00000000000E+00 0. -1.
</event>
<event>
 8    1  0.6760442E-009  0.3184374E+03  0.7561462E-02  0.1076371E+00
          2   -1    0    0  501    0  0.00000000000E+00  0.00000000000E+00  0.15707870091E+04  0.15707870091E+04  0.00000000000E+00 0. -1.
         -2   -1    0    0    0  501 -0.00000000000E+00 -0.00000000000E+00 -0.92015651925E+02  0.92015651925E+02  0.00000000000E+00 0.  1.
         25    2    1    2    0    0  0.11010660518E+03  0.29369476859E+03  0.11533015073E+04  0.12017195470E+04  0.12508165867E+03 0.  0.
         23    2    1    2    0    0 -0.11010660518E+03 -0.29369476859E+03  0.32546984991E+03  0.46108311405E+03  0.91032594450E+02 0.  0.
          5    1    3    3  502    0  0.27696279071E+02  0.46064621015E+02  0.75563892037E+02  0.92824605377E+02  0.41800000000E+01 0.  1.
         -5    1    3    3    0  502  0.82410326108E+02  0.24763014758E+03  0.10777376153E+04  0.11088949416E+04  0.41800000000E+01 0.  1.
        -11    1    4    4    0    0 -0.68829484724E+01 -0.11779287558E+03  0.15792365774E+03  0.19713553254E+03  0.00000000000E+00 0.  1.
         11    1    4    4    0    0 -0.10322365671E+03 -0.17590189301E+03  0.16754619218E+03  0.26394758150E+03  0.00000000000E+00 0. -1.
</event>
<event>
 8    1  0.6760442E-009  0.9677597E+02  0.7561462E-02  0.1287226E+00
          2   -1    0    0  501    0  0.00000000000E+00  0.00000000000E+00  0.55531163670E+02  0.55531163670E+02  0.00000000000E+00 0. -1.
         -2   -1    0    0    0  501 -0.00000000000E+00 -0.00000000000E+00 -0.27812228588E+03  0.27812228588E+03  0.00000000000E+00 0.  1.
         25    2    1    2    0    0  0.11871203356E+02 -0.55362244104E+02 -0.15382352108E+03  0.20619311825E+03  0.12509205743E+03 0.  0.
         23    2    1    2    0    0 -0.11871203356E+02  0.55362244104E+02 -0.68767601129E+02  0.12746033131E+03  0.91166054812E+02 0.  0.
          5    1    3    3  502    0 -0.10513094553E+02  0.28819275744E+02 -0.97697611111E+02  0.10248595723E+03  0.41800000000E+01 0.  1.
         -5    1    3    3    0  502  0.22384297909E+02 -0.84181519849E+02 -0.56125909971E+02  0.10370716102E+03  0.41800000000E+01 0.  1.
        -11    1    4    4    0    0  0.17682729148E+02  0.35840180463E+02 -0.80725522054E+02  0.90076674875E+02  0.00000000000E+00 0.  1.
         11    1    4    4    0    0 -0.29553932504E+02  0.19522063641E+02  0.11957920925E+02  0.37383656430E+02  0.00000000000E+00 0. -1.
</event>
<event>
 8    1  0.6760442E-009  0.1339763E+03  0.7561462E-02  0.1221672E+00
         -1   -1    0    0    0  501 -0.00000000000E+00  0.00000000000E+00  0.37879878902E+02  0.37879878902E+02  0.00000000000E+00 0.  1.
          1   -1    0    0  501    0  0.00000000000E+00 -0.00000000000E+00 -0.72773825757E+03  0.72773825757E+03  0.00000000000E+00 0. -1.
         25    2    1    2    0    0  0.11296550460E+03 -0.13055093254E+02 -0.24810306915E+03  0.30022360321E+03  0.12508972105E+03 0.  0.
         23    2    1    2    0    0 -0.11296550460E+03  0.13055093254E+02 -0.44175530952E+03  0.46539453326E+03  0.92264171899E+02 0.  0.
          5    1    3    3  502    0  0.28472136079E+02 -0.53285224416E+02 -0.16215020010E+03  0.17308996929E+03  0.41800000000E+01 0.  1.
         -5    1    3    3    0  502  0.84493368517E+02  0.40230131162E+02 -0.85952869047E+02  0.12713363392E+03  0.41800000000E+01 0.  1.
        -11    1    4    4    0    0 -0.71937255334E+02  0.84670601781E+01 -0.40061885154E+03  0.40711438690E+03  0.00000000000E+00 0. -1.
         11    1    4    4    0    0 -0.41028249262E+02  0.45880330756E+01 -0.41136457977E+02  0.58280146361E+02  0.00000000000E+00 0.  1.
</event>
<event>
 8    1  0.6760442E-009  0.9435659E+02  0.7561462E-02  0.1292632E+00
         -2   -1    0    0    0  501 -0.00000000000E+00  0.00000000000E+00  0.19925392685E+02  0.19925392685E+02  0.00000000000E+00 0.  1.
          2   -1    0    0  501    0  0.00000000000E+00 -0.00000000000E+00 -0.61666174373E+03  0.61666174373E+03  0.00000000000E+00 0. -1.
         25    2    1    2    0    0 -0.75246682370E+01 -0.74224981976E+01 -0.41166778133E+03  0.43037763819E+03  0.12507132030E+03 0.  0.
         23    2    1    2    0    0  0.75246682370E+01  0.74224981976E+01 -0.18506856972E+03  0.20620949822E+03  0.90334199217E+02 0.  0.
          5    1    3    3  502    0 -0.55043739533E+02 -0.35579798121E+02 -0.27869326197E+03  0.28632698434E+03  0.41800000000E+01 0. -1.
         -5    1    3    3    0  502  0.47519071296E+02  0.28157299923E+02 -0.13297451936E+03  0.14405065385E+03  0.41800000000E+01 0. -1.
        -11    1    4    4    0    0  0.25923734187E+02  0.29258691476E+02 -0.32051676896E+02  0.50551172221E+02  0.00000000000E+00 0.  1.
         11    1    4    4    0    0 -0.18399065950E+02 -0.21836193278E+02 -0.15301689282E+03  0.15565832600E+03  0.00000000000E+00 0. -1.
</event>
<event>
 8    1  0.6760442E-009  0.1262812E+03  0.7561462E-02  0.1233081E+00
          2   -1    0    0  501    0  0.00000000000E+00  0.00000000000E+00  0.22206270564E+03  0.22206270564E+03  0.00000000000E+00 0. -1.
         -2   -1    0    0    0  501 -0.00000000000E+00 -0.00000000000E+00 -0.85721819981E+02  0.85721819981E+02  0.00000000000E+00 0.  1.
         25    2    1    2    0    0  0.10615059112E+02  0.84380730398E+02  0.67153124463E+02  0.16549934555E+03  0.12509078347E+03 0.  0.
         23    2    1    2    0    0 -0.10615059112E+02 -0.84380730398E+02  0.69187761201E+02  0.14228518008E+03  0.90693654837E+02 0.  0.
          5    1    3    3  502    0 -0.16148546574E+02  0.97299166556E+02  0.85267756267E+02  0.13044526066E+03  0.41800000000E+01 0.  1.
         -5    1    3    3    0  502  0.26763605686E+02 -0.12918436159E+02 -0.18114631804E+02  0.35054084891E+02  0.41800000000E+01 0.  1.
        -11    1    4    4    0    0 -0.33632982798E+02  0.27192386365E+01  0.24648107318E+02  0.41786373197E+02  0.00000000000E+00 0. -1.
         11    1    4    4    0    0  0.23017923685E+02 -0.87099969034E+02  0.44539653883E+02  0.10049880688E+03  0.00000000000E+00 0.  1.
</event>
<event>
 8    1  0.6760442E-009  0.9506360E+02  0.7561462E-02  0.1291033E+00
          2   -1    0    0  501    0  0.00000000000E+00  0.00000000000E+00  0.15322050276E+03  0.15322050276E+03  0.00000000000E+00 0.  1.
         -2   -1    0    0    0  501 -0.00000000000E+00 -0.00000000000E+00 -0.12522823258E+03  0.12522823258E+03  0.00000000000E+00 0. -1.
         25    2    1    2    0    0 -0.58352831557E+02 -0.31504223312E+02  0.70107962591E+02  0.15798876020E+03  0.12509097847E+03 0.  0.
         23    2    1    2    0    0  0.58352831557E+02  0.31504223312E+02 -0.42115692410E+02  0.12045997513E+03  0.91319795357E+02 0.  0.
          5    1    3    3  502    0 -0.50856313594E+02 -0.54955455000E+01 -0.26368241415E+02  0.57700279098E+02  0.41800000000E+01 0. -1.
         -5    1    3    3    0  502 -0.74965179632E+01 -0.26008677812E+02  0.96476204006E+02  0.10028848111E+03  0.41800000000E+01 0. -1.
        -11    1    4    4    0    0  0.56353816330E+02  0.60309840480E+02 -0.22501116142E+02  0.85553081191E+02  0.00000000000E+00 0. -1.
         11    1    4    4    0    0  0.19990152275E+01 -0.28805617168E+02 -0.19614576268E+02  0.34906893939E+02  0.00000000000E+00 0.  1.
</event>
<event>
 8    1  0.6760442E-009  0.1546822E+03  0.7561462E-02  0.1194835E+00
         -1   -1    0    0    0  501 -0.00000000000E+00  0.00000000000E+00  0.80711144579E+02  0.80711144579E+02  0.00000000000E+00 0.  1.
          1   -1    0    0  501    0  0.00000000000E+00 -0.00000000000E+00 -0.35750712841E+03  0.35750712841E+03  0.00000000000E+00 0. -1.
         25    2    1    2    0    0  0.41630817649E+02 -0.12325666745E+03 -0.13840465891E+03  0.22744263593E+03  0.12509585118E+03 0.  0.
         23    2    1    2    0    0 -0.41630817649E+02  0.12325666745E+03 -0.13839132493E+03  0.21077563706E+03  0.91372202095E+02 0.  0.
          5    1    3    3  502    0  0.52850935811E+02 -0.39458957101E+02 -0.10473618182E+01  0.66096899159E+02  0.41800000000E+01 0.  1.
         -5    1    3    3    0  502 -0.11220118163E+02 -0.83797710346E+02 -0.13735729709E+03  0.16134573677E+03  0.41800000000E+01 0.  1.
        -11    1    4    4    0    0 -0.36132478289E+02  0.89670268766E+00 -0.25817123433E+02  0.44417158007E+02  0.00000000000E+00 0.  1.
         11    1    4    4    0    0 -0.54983393592E+01  0.12235996476E+03 -0.11257420149E+03  0.16635847906E+03  0.00000000000E+00 0. -1.
</event>
<event>
 8    1  0.6760442E-009  0.1081817E+03  0.7561462E-02  0.1263975E+00
          1   -1    0    0  501    0  0.00000000000E+00  0.00000000000E+00  0.29894863554E+03  0.29894863554E+03  0.00000000000E+00 0. -1.
         -1   -1    0    0    0  501 -0.00000000000E+00 -0.00000000000E+00 -0.43535529313E+02  0.43535529313E+02  0.00000000000E+00 0.  1.
         25    2    1    2    0    0  0.71890707616E+01  0.23327092019E+02  0.18049173678E+03  0.22094189161E+03  0.12506884688E+03 0.  0.
         23    2    1    2    0    0 -0.71890707616E+01 -0.23327092019E+02  0.74921369441E+02  0.12154227324E+03  0.92539054592E+02 0.  0.
          5    1    3    3  502    0  0.23434985142E+02  0.71356602587E+02  0.12294267887E+03  0.14412958735E+03  0.41800000000E+01 0.  1.
         -5    1    3    3    0  502 -0.16245914380E+02 -0.48029510568E+02  0.57549057911E+02  0.76812304261E+02  0.41800000000E+01 0.  1.
        -11    1    4    4    0    0  0.35011349657E+02 -0.31714953483E+02  0.59190567049E+02  0.75730813457E+02  0.00000000000E+00 0.  1.
         11    1    4    4    0    0 -0.42200420419E+02  0.83878614646E+01  0.15730802393E+02  0.45811459782E+02  0.00000000000E+00 0. -1.
</event>
<event>
 8    1  0.6760442E-009  0.9730596E+02  0.7561462E-02  0.1286065E+00
          1   -1    0    0  501    0  0.00000000000E+00  0.00000000000E+00  0.40177942732E+03  0.40177942732E+03  0.00000000000E+00 0. -1.
         -1   -1    0    0    0  501 -0.00000000000E+00 -0.00000000000E+00 -0.49391070740E+02  0.49391070740E+02  0.00000000000E+00 0.  1.
         25    2    1    2    0    0 -0.91190711102E+01 -0.43447134279E+02  0.67794908745E+02  0.14904699959E+03  0.12509215603E+03 0.  0.
         23    2    1    2    0    0  0.91190711102E+01  0.43447134279E+02  0.28459344784E+03  0.30212349848E+03  0.91183149994E+02 0.  0.
          5    1    3    3  502    0 -0.66335237733E+01 -0.84031905656E+02  0.67662958958E+02  0.10817168401E+03  0.41800000000E+01 0.  1.
         -5    1    3    3    0  502 -0.24855473369E+01  0.40584771377E+02  0.13194978694E+00  0.40875315583E+02  0.41800000000E+01 0.  1.
        -11    1    4    4    0    0  0.24544648490E+02  0.14363307593E+01  0.14915121895E+02  0.28756976139E+02  0.00000000000E+00 0.  1.
         11    1    4    4    0    0 -0.15425577380E+02  0.42010803520E+02  0.26967832594E+03  0.27336652234E+03  0.00000000000E+00 0. -1.
</event>
<event>
 8    1  0.6760442E-009  0.2289339E+03  0.7561462E-02  0.1127392E+00
         -4   -1    0    0    0  501 -0.00000000000E+00  0.00000000000E+00  0.95635844125E+02  0.95635844125E+02  0.00000000000E+00 0.  1.
          4   -1    0    0  501    0  0.00000000000E+00 -0.00000000000E+00 -0.62302056696E+03  0.62302056696E+03  0.00000000000E+00 0. -1.
         25    2    1    2    0    0  0.19144652828E+03  0.95150710307E+02 -0.20135922928E+03  0.31921263663E+03  0.12508292173E+03 0.  0.
         23    2    1    2    0    0 -0.19144652828E+03 -0.95150710307E+02 -0.32602549355E+03  0.39944377445E+03  0.86932592501E+02 0.  0.
          5    1    3    3  502    0  0.11838229888E+01 -0.18420810946E+02 -0.42539705089E+02  0.46559925062E+02  0.41800000000E+01 0. -1.
         -5    1    3    3    0  502  0.19026270529E+03  0.11357152125E+03 -0.15881952419E+03  0.27265271157E+03  0.41800000000E+01 0. -1.
        -11    1    4    4    0    0 -0.13080630512E+03 -0.44061614247E+02 -0.13706694115E+03  0.19452265078E+03  0.00000000000E+00 0.  1.
         11    1    4    4    0    0 -0.60640223156E+02 -0.51089096060E+02 -0.18895855240E+03  0.20492112367E+03  0.00000000000E+00 0. -1.
</event>
<event>
 7    1  0.6760442E-009  0.9494108E+02  0.7561462E-02  0.1291309E+00
          1   -1    0    0  501    0  0.00000000000E+00  0.00000000000E+00  0.10703957577E+03  0.10703957577E+03  0.00000000000E+00 0. -1.
         -1   -1    0    0    0  501 -0.00000000000E+00 -0.00000000000E+00 -0.15362792324E+03  0.15362792324E+03  0.00000000000E+00 0.  1.
         23    2    1    2    0    0 -0.26084644561E+02  0.43844261084E+02  0.25384658193E+02  0.10775398655E+03  0.91453883644E+02 0.  0.
          5    1    1    2  502    0 -0.39878450381E+02 -0.43530305593E+02 -0.59341618636E+01  0.59479954496E+02  0.41800000000E+01 0. -1.
         -5    1    1    2    0  502  0.65963094942E+02 -0.31395549146E+00 -0.66038843801E+02  0.93433557960E+02  0.41800000000E+01 0. -1.
        -11    1    3    3    0    0 -0.34470059924E+02  0.21228450786E+02 -0.27966821014E+02  0.49203406707E+02  0.00000000000E+00 0.  1.
         11    1    3    3    0    0  0.83854153630E+01  0.22615810299E+02  0.53351479207E+02  0.58550579842E+02  0.00000000000E+00 0. -1.
</event>
<event>
 8    1  0.6760442E-009  0.1026887E+03  0.7561462E-02  0.1274742E+00
          1   -1    0    0  501    0  0.00000000000E+00  0.00000000000E+00  0.70254019559E+02  0.70254019559E+02  0.00000000000E+00 0. -1.
         -1   -1    0    0    0  501 -0.00000000000E+00 -0.00000000000E+00 -0.27284876514E+03  0.27284876514E+03  0.00000000000E+00 0.  1.
         25    2    1    2    0    0 -0.40159991822E+02 -0.72494128122E+02 -0.13419397648E+03  0.20130557311E+03  0.12509071464E+03 0.  0.
         23    2    1    2    0    0  0.40159991822E+02  0.72494128122E+02 -0.68400769105E+02  0.14179721159E+03  0.92517892562E+02 0.  0.
          5    1    3    3  502    0 -0.88204092812E-01  0.54541971907E+01  0.21509275136E+02  0.22580464207E+02  0.41800000000E+01 0. -1.
         -5    1    3    3    0  502 -0.40071787729E+02 -0.77948325313E+02 -0.15570325161E+03  0.17872510891E+03  0.41800000000E+01 0. -1.
        -11    1    4    4    0    0 -0.11943067983E+02 -0.83557456873E+01 -0.38351920961E+02  0.41028346301E+02  0.00000000000E+00 0.  1.
         11    1    4    4    0    0  0.52103059805E+02  0.80849873809E+02 -0.30048848144E+02  0.10076886528E+03  0.00000000000E+00 0. -1.
</event>
<event>
 8    1  0.6760442E-009  0.9218276E+02  0.7561462E-02  0.1297650E+00
          2   -1    0    0  501    0  0.00000000000E+00  0.00000000000E+00  0.66572858196E+03  0.66572858196E+03  0.00000000000E+00 0. -1.
         -2   -1    0    0    0  501 -0.00000000000E+00 -0.00000000000E+00 -0.23984543017E+02  0.23984543017E+02  0.00000000000E+00 0.  1.
         25    2    1    2    0    0 -0.50530733906E+02  0.19631243517E+02  0.45444804085E+03  0.47445994302E+03  0.12510185814E+03 0.  0.
         23    2    1    2    0    0  0.50530733906E+02 -0.19631243517E+02  0.18729599809E+03  0.21525318195E+03  0.91188818657E+02 0.  0.
          5    1    3    3  502    0  0.13153491278E+02  0.25151292675E+02  0.19195792274E+02  0.34518874504E+02  0.41800000000E+01 0.  1.
         -5    1    3    3    0  502 -0.63684225184E+02 -0.55200491578E+01  0.43525224858E+03  0.43994106852E+03  0.41800000000E+01 0.  1.
        -11    1    4    4    0    0 -0.13642758549E+02  0.13673619235E+02  0.10026197506E+03  0.10210561378E+03  0.00000000000E+00 0. -1.
         11    1    4    4    0    0  0.64173492454E+02 -0.33304862752E+02  0.87034023036E+02  0.11314756817E+03  0.00000000000E+00 0.  1.
</event>
<event>
 8    1  0.6760442E-009  0.1320854E+03  0.7561462E-02  0.1224394E+00
          2   -1    0    0  501    0  0.00000000000E+00  0.00000000000E+00  0.10740497566E+04  0.10740497566E+04  0.00000000000E+00 0. -1.
         -2   -1    0    0    0  501 -0.00000000000E+00 -0.00000000000E+00 -0.18538555694E+02  0.18538555694E+02  0.00000000000E+00 0.  1.
         25    2    1    2    0    0 -0.79867508190E+02  0.54419503192E+01  0.73142288900E+03  0.74634807038E+03  0.12509023109E+03 0.  0.
         23    2    1    2    0    0  0.79867508190E+02 -0.54419503192E+01  0.32408831195E+03  0.34624024196E+03  0.91872942281E+02 0.  0.
          5    1    3    3  502    0  0.18453710855E+02 -0.31952954643E+02  0.11073970962E+03  0.11680019880E+03  0.41800000000E+01 0. -1.
         -5    1    3    3    0  502 -0.98321219045E+02  0.37394904962E+02  0.62068317938E+03  0.62954787157E+03  0.41800000000E+01 0. -1.
        -11    1    4    4    0    0  0.55122077326E+02 -0.47630709822E+02  0.18710582776E+03  0.20078774541E+03  0.00000000000E+00 0.  1.
         11    1    4    4    0    0  0.24745430864E+02  0.42188759502E+02  0.13698248419E+03  0.14545249655E+03  0.00000000000E+00 0. -1.
</event>
<event>
 8    1  0.6760442E-009  0.8721804E+02  0.7561462E-02  0.1309732E+00
          1   -1    0    0  501    0  0.00000000000E+00  0.00000000000E+00  0.82665214579E+02  0.82665214579E+02  0.00000000000E+00 0. -1.
         -1   -1    0    0    0  501 -0.00000000000E+00 -0.00000000000E+00 -0.16401680485E+03  0.16401680485E+03  0.00000000000E+00 0.  1.
         25    2    1    2    0    0 -0.25854075139E+02 -0.37542962308E+02 -0.57075983212E+02  0.14485325457E+03  0.12508753048E+03 0.  0.
         23    2    1    2    0    0  0.25854075139E+02  0.37542962308E+02 -0.24275607061E+02  0.10182876486E+03  0.87760384195E+02 0.  0.
          5    1    3    3  502    0 -0.42086221448E+02 -0.74021169040E+02 -0.60537631846E+02  0.10455936482E+03  0.41800000000E+01 0. -1.
         -5    1    3    3    0  502  0.16232146310E+02  0.36478206732E+02  0.34616486340E+01  0.40293889753E+02  0.41800000000E+01 0. -1.
        -11    1    4    4    0    0  0.20573557067E+02  0.13936276189E+02 -0.56390407126E+02  0.61622796596E+02  0.00000000000E+00 0.  1.
         11    1    4    4    0    0  0.52805180717E+01  0.23606686119E+02  0.32114800066E+02  0.40205968262E+02  0.00000000000E+00 0. -1.
</event>
<event>
 8    1  0.6760442E-009  0.1002941E+03  0.7561462E-02  0.1279679E+00
         -2   -1    0    0    0  501 -0.00000000000E+00  0.00000000000E+00  0.41312179206E+02  0.41312179206E+02  0.00000000000E+00 0.  1.
          2   -1    0    0  501    0  0.00000000000E+00 -0.00000000000E+00 -0.31347927367E+03  0.31347927367E+03  0.00000000000E+00 0. -1.
         25    2    1    2    0    0 -0.18201953927E+01 -0.41019107177E+00 -0.10336902557E+03  0.16228279001E+03  0.12508823733E+03 0.  0.
         23    2    1    2    0    0  0.18201953927E+01  0.41019107177E+00 -0.16879806889E+03  0.19250866286E+03  0.92538185895E+02 0.  0.
          5    1    3    3  502    0  0.21717003740E+02  0.49340383262E+02 -0.90790704005E+02  0.10567178434E+03  0.41800000000E+01 0.  1.
         -5    1    3    3    0  502 -0.23537199133E+02 -0.49750574334E+02 -0.12578321567E+02  0.56611005670E+02  0.41800000000E+01 0.  1.
        -11    1    4    4    0    0 -0.43704532279E+02 -0.95144713781E+01 -0.98387521847E+02  0.10807736008E+03  0.00000000000E+00 0. -1.
         11    1    4    4    0    0  0.45524727672E+02  0.99246624499E+01 -0.70410547041E+02  0.84431302779E+02  0.00000000000E+00 0.  1.
</event>
<event>
 8    1  0.6760442E-009  0.1474831E+03  0.7561462E-02  0.1203600E+00
          2   -1    0    0  501    0  0.00000000000E+00  0.00000000000E+00  0.96309327180E+03  0.96309327180E+03  0.00000000000E+00 0. -1.
         -2   -1    0    0    0  501 -0.00000000000E+00 -0.00000000000E+00 -0.27810979361E+02  0.27810979361E+02  0.00000000000E+00 0.  1.
         25    2    1    2    0    0  0.91110732009E+02 -0.43721779372E+02  0.71311725699E+03  0.73102410553E+03  0.12508901301E+03 0.  0.
         23    2    1    2    0    0 -0.91110732009E+02  0.43721779372E+02  0.22216503545E+03  0.25988014563E+03  0.89261568642E+02 0.  0.
          5    1    3    3  502    0  0.11595765210E+03 -0.72093612719E+01  0.49981954995E+03  0.51316196945E+03  0.41800000000E+01 0.  1.
         -5    1    3    3    0  502 -0.24846920090E+02 -0.36512418100E+02  0.21329770704E+03  0.21786213609E+03  0.41800000000E+01 0.  1.
        -11    1    4    4    0    0 -0.94761254964E+01  0.51479997892E+02  0.97505197017E+02  0.11066729681E+03  0.00000000000E+00 0.  1.
         11    1    4    4    0    0 -0.81634606512E+02 -0.77582185193E+01  0.12465983844E+03  0.14921284882E+03  0.00000000000E+00 0. -1.
</event>
<event>
 8    1  0.6760442E-009  0.9430982E+02  0.7561462E-02  0.1292738E+00
         -3   -1    0    0    0  501 -0.00000000000E+00  0.00000000000E+00  0.35025732580E+02  0.35025732580E+02  0.00000000000E+00 0.  1.
          3   -1    0    0  501    0  0.00000000000E+00 -0.00000000000E+00 -0.43803543494E+03  0.43803543494E+03  0.00000000000E+00 0. -1.
         25    2    1    2    0    0 -0.36022852400E+02  0.47287518780E+02 -0.20617740829E+03  0.24837113051E+03  0.12508133137E+03 0.  0.
         23    2    1    2    0    0  0.36022852400E+02 -0.47287518780E+02 -0.19683229407E+03  0.22469003701E+03  0.90603009956E+02 0.  0.
          5    1    3    3  502    0  0.31874005895E+02  0.26288618264E+02 -0.15558758632E+03  0.16103419860E+03  0.41800000000E+01 0.  1.
         -5    1    3    3    0  502 -0.67896858295E+02  0.20998900516E+02 -0.50589821965E+02  0.87336931911E+02  0.41800000000E+01 0.  1.
        -11    1    4    4    0    0  0.25537718447E+02  0.18987004261E+01 -0.46379992619E+01  0.26024818231E+02  0.00000000000E+00 0.  1.
         11    1    4    4    0    0  0.10485133953E+02 -0.49186219206E+02 -0.19219429481E+03  0.19866521878E+03  0.00000000000E+00 0. -1.
</event>
<event>
 7    1  0.6760442E-009  0.3556959E+03  0.7561462E-02  0.1060301E+00
         -1   -1    0    0    0  501 -0.00000000000E+00  0.00000000000E+00  0.46837080895E+03  0.46837080895E+03  0.00000000000E+00 0.  1.
          1   -1    0    0  501    0  0.00000000000E+00 -0.00000000000E+00 -0.37376624551E+03  0.37376624551E+03  0.00000000000E+00 0. -1.
         23    2    1    2    0    0  0.33533543196E+03 -0.11576032017E+03 -0.14742998134E+03  0.39481489167E+03  0.91065337165E+02 0.  0.
          5    1    1    2  502    0 -0.31826632481E+03  0.10245682745E+03  0.17633565885E+03  0.37802459176E+03  0.41800000000E+01 0.  1.
         -5    1    1    2    0  502 -0.17069107157E+02  0.13303492716E+02  0.65698885930E+02  0.69297571025E+02  0.41800000000E+01 0.  1.
        -11    1    3    3    0    0  0.27402759987E+03 -0.99648941216E+02 -0.80197904177E+02  0.30241154213E+03  0.00000000000E+00 0.  1.
         11    1    3    3    0    0  0.61307832092E+02 -0.16111378950E+02 -0.67232077164E+02  0.92403349546E+02  0.00000000000E+00 0. -1.
</event>
<event>
 8    1  0.6760442E-009  0.1585188E+03  0.7561462E-02  0.1190379E+00
          2   -1    0    0  501    0  0.00000000000E+00  0.00000000000E+00  0.61488467372E+03  0.61488467372E+03  0.00000000000E+00 0. -1.
         -2   -1    0    0    0  501 -0.00000000000E+00 -0.00000000000E+00 -0.58716900728E+02  0.58716900728E+02  0.00000000000E+00 0.  1.
         25    2    1    2    0    0 -0.10619048192E+03  0.10083085155E+03  0.38558727774E+03  0.43100727115E+03  0.12508573044E+03 0.  0.
         23    2    1    2    0    0  0.10619048192E+03 -0.10083085155E+03  0.17058049526E+03  0.24259430330E+03  0.91164749524E+02 0.  0.
          5    1    3    3  502    0  0.91261956307E+01  0.15241089660E+02  0.17577373252E+03  0.17671857770E+03  0.41800000000E+01 0.  1.
         -5    1    3    3    0  502 -0.11531667755E+03  0.85589761888E+02  0.20981354521E+03  0.25428869345E+03  0.41800000000E+01 0.  1.
        -11    1    4    4    0    0  0.10462499377E+03 -0.73782440686E+02  0.87143042688E+02  0.15486816253E+03  0.00000000000E+00 0.  1.
         11    1    4    4    0    0  0.15654881475E+01 -0.27048410862E+02  0.83437452569E+02  0.87726140771E+02  0.00000000000E+00 0. -1.
</event>
<event>
 8    1  0.6760442E-009  0.1022914E+03  0.7561462E-02  0.1275550E+00
         -1   -1    0    0    0  501 -0.00000000000E+00  0.00000000000E+00  0.16868798829E+03  0.16868798829E+03  0.00000000000E+00 0.  1.
          1   -1    0    0  501    0  0.00000000000E+00 -0.00000000000E+00 -0.12052509672E+03  0.12052509672E+03  0.00000000000E+00 0. -1.
         25    2    1    2    0    0 -0.62932793325E+02  0.96474041545E+01  0.91373043853E+02  0.16748249530E+03  0.12509094375E+03 0.  0.
         23    2    1    2    0    0  0.62932793325E+02 -0.96474041545E+01 -0.43210152284E+02  0.12173058971E+03  0.94327145235E+02 0.  0.
          5    1    3    3  502    0 -0.74963839750E+02 -0.35219374744E+02  0.87696137936E+02  0.12069824620E+03  0.41800000000E+01 0.  1.
         -5    1    3    3    0  502  0.12031046425E+02  0.44866778899E+02  0.36769059174E+01  0.46784249101E+02  0.41800000000E+01 0.  1.
        -11    1    4    4    0    0  0.45738554412E+02 -0.24857397528E+02  0.19003348435E+02  0.55416900160E+02  0.00000000000E+00 0.  1.
         11    1    4    4    0    0  0.17194238913E+02  0.15209993373E+02 -0.62213500718E+02  0.66313689551E+02  0.00000000000E+00 0. -1.
</event>
<event>
 8    1  0.6760442E-009  0.1624952E+03  0.7561462E-02  0.1185908E+00
          2   -1    0    0  501    0  0.00000000000E+00  0.00000000000E+00  0.82341797107E+03  0.82341797107E+03  0.00000000000E+00 0. -1.
         -2   -1    0    0    0  501 -0.00000000000E+00 -0.00000000000E+00 -0.42667822960E+02  0.42667822960E+02  0.00000000000E+00 0.  1.
         25    2    1    2    0    0  0.27599658445E+02  0.14873844019E+03  0.31246837126E+03  0.36900909737E+03  0.12508543548E+03 0.  0.
         23    2    1    2    0    0 -0.27599658445E+02 -0.14873844019E+03  0.46828177685E+03  0.49707669665E+03  0.70089621869E+02 0.  0.
          5    1    3    3  502    0  0.90722783232E+01  0.13481653124E+03  0.31736382862E+03  0.34495662836E+03  0.41800000000E+01 0.  1.
         -5    1    3    3    0  502  0.18527380122E+02  0.13921908948E+02 -0.48954573623E+01  0.24052469015E+02  0.41800000000E+01 0.  1.
        -11    1    4    4    0    0  0.13609681112E+02 -0.10605653174E+03  0.28291910249E+03  0.30245070656E+03  0.00000000000E+00 0.  1.
         11    1    4    4    0    0 -0.41209339557E+02 -0.42681908450E+02  0.18536267436E+03  0.19462599010E+03  0.00000000000E+00 0. -1.
</event>
<event>
 8    1  0.6760442E-009  0.1453735E+03  0.7561462E-02  0.1206276E+00
          3   -1    0    0  501    0  0.00000000000E+00  0.00000000000E+00  0.25708941939E+03  0.25708941939E+03  0.00000000000E+00 0.  1.
         -3   -1    0    0    0  501 -0.00000000000E+00 -0.00000000000E+00 -0.11018222096E+03  0.11018222096E+03  0.00000000000E+00 0. -1.
         25    2    1    2    0    0 -0.84569246130E+02  0.85336107483E+02  0.32353402634E+02  0.17643091180E+03  0.12508763067E+03 0.  0.
         23    2    1    2    0    0  0.84569246130E+02 -0.85336107483E+02  0.11455379579E+03  0.19084072855E+03  0.94145647331E+02 0.  0.
          5    1    3    3  502    0 -0.14480517236E+02 -0.23106588715E+02 -0.22966540729E+02  0.35896158771E+02  0.41800000000E+01 0. -1.
         -5    1    3    3    0  502 -0.70088728894E+02  0.10844269620E+03  0.55319943363E+02  0.14053475303E+03  0.41800000000E+01 0. -1.
        -11    1    4    4    0    0  0.67035771252E+02 -0.25671452349E+02  0.14804182682E+02  0.73293805454E+02  0.00000000000E+00 0. -1.
         11    1    4    4    0    0  0.17533474878E+02 -0.59664655133E+02  0.99749613108E+02  0.11754692309E+03  0.00000000000E+00 0.  1.
</event>
<event>
 8    1  0.6760442E-009  0.1102426E+03  0.7561462E-02  0.1260121E+00
          1   -1    0    0  501    0  0.00000000000E+00  0.00000000000E+00  0.30408497833E+03  0.30408497833E+03  0.00000000000E+00 0. -1.
         -1   -1    0    0    0  501 -0.00000000000E+00 -0.00000000000E+00 -0.48557501472E+02  0.48557501472E+02  0.00000000000E+00 0.  1.
         25    2    1    2    0    0  0.13506802824E+02 -0.39546892957E+02  0.19538441549E+03  0.23573085660E+03  0.12509027329E+03 0.  0.
         23    2    1    2    0    0 -0.13506802824E+02  0.39546892957E+02  0.60143061372E+02  0.11691162321E+03  0.91130397477E+02 0.  0.
          5    1    3    3  502    0  0.18559344072E+02  0.37965011130E+02  0.27202841138E+02  0.50430727622E+02  0.41800000000E+01 0. -1.
         -5    1    3    3    0  502 -0.50525412486E+01 -0.77511904087E+02  0.16818157435E+03  0.18530012898E+03  0.41800000000E+01 0. -1.
        -11    1    4    4    0    0  0.13754227922E+02 -0.25904644793E+02  0.18766115844E+02  0.34819484652E+02  0.00000000000E+00 0. -1.
         11    1    4    4    0    0 -0.27261030746E+02  0.65451537749E+02  0.41376945529E+02  0.82092138554E+02  0.00000000000E+00 0.  1.
</event>
<event>
 8    1  0.6760442E-009  0.1026242E+03  0.7561462E-02  0.1274872E+00
          2   -1    0    0  501    0  0.00000000000E+00  0.00000000000E+00  0.58244732885E+02  0.58244732885E+02  0.00000000000E+00 0. -1.
         -2   -1    0    0    0  501 -0.00000000000E+00 -0.00000000000E+00 -0.24639273653E+03  0.24639273653E+03  0.00000000000E+00 0.  1.
         25    2    1    2    0    0  0.98023767397E+01  0.44879880650E+02 -0.11167177452E+03  0.17386363156E+03  0.12509071460E+03 0.  0.
         23    2    1    2    0    0 -0.98023767397E+01 -0.44879880650E+02 -0.76476229133E+02  0.13077383786E+03  0.95618475036E+02 0.  0.
          5    1    3    3  502    0  0.14949545894E+02  0.86708029146E+02 -0.57878813422E+02  0.10540019300E+03  0.41800000000E+01 0. -1.
         -5    1    3    3    0  502 -0.51471691547E+01 -0.41828148496E+02 -0.53792961093E+02  0.68463438564E+02  0.41800000000E+01 0. -1.
        -11    1    4    4    0    0 -0.22795756823E+00 -0.58314050786E+02 -0.62644019411E+01  0.58650006099E+02  0.00000000000E+00 0. -1.
         11    1    4    4    0    0 -0.95744191714E+01  0.13434170136E+02 -0.70211827192E+02  0.72123831757E+02  0.00000000000E+00 0.  1.
</event>
<event>
 8    1  0.6760442E-009  0.8931559E+02  0.7561462E-02  0.1304518E+00
         -1   -1    0    0    0  501 -0.00000000000E+00  0.00000000000E+00  0.60264580270E+02  0.60264580270E+02  0.00000000000E+00 0.  1.
          1   -1    0    0  501    0  0.00000000000E+00 -0.00000000000E+00 -0.22924741151E+03  0.22924741151E+03  0.00000000000E+00 0. -1.
         25    2    1    2    0    0 -0.14632678547E+02  0.12845557754E+02 -0.43957894561E+02  0.13400630849E+03  0.12508505340E+03 0.  0.
         23    2    1    2    0    0  0.14632678547E+02 -0.12845557754E+02 -0.12502493668E+03  0.15550568329E+03  0.90397229541E+02 0.  0.
          5    1    3    3  502    0  0.30478399368E+02 -0.18978745922E+02  0.26193154160E+02  0.44639437156E+02  0.41800000000E+01 0.  1.
         -5    1    3    3    0  502 -0.45111077915E+02  0.31824303676E+02 -0.70151048721E+02  0.89366871333E+02  0.41800000000E+01 0.  1.
        -11    1    4    4    0    0  0.22038919073E+02 -0.47138374695E+02 -0.47685495863E+02  0.70580782360E+02  0.00000000000E+00 0.  1.
         11    1    4    4    0    0 -0.74062405259E+01  0.34292816941E+02 -0.77339440814E+02  0.84924900929E+02  0.00000000000E+00 0. -1.
</event>
<event>
 8    1  0.6760442E-009  0.1062430E+03  0.7561462E-02  0.1267690E+00
          4   -1    0    0  501    0  0.00000000000E+00  0.00000000000E+00  0.18805775900E+03  0.18805775900E+03  0.00000000000E+00 0. -1.
         -4   -1    0    0    0  501 -0.00000000000E+00 -0.00000000000E+00 -0.79659218728E+02  0.79659218728E+02  0.00000000000E+00 0.  1.
         25    2    1    2    0    0  0.54606256901E+02 -0.14377176647E+02  0.33437350616E+02  0.14126235824E+03  0.12509376859E+03 0.  0.
         23    2    1    2    0    0 -0.54606256901E+02  0.14377176647E+02  0.74961189660E+02  0.12645461949E+03  0.84752842628E+02 0.  0.
          5    1    3    3  502    0  0.18942236153E+01  0.51326633270E+02  0.22456047437E+02  0.56211723265E+02  0.41800000000E+01 0.  1.
         -5    1    3    3    0  502  0.52712033286E+02 -0.65703809917E+02  0.10981303178E+02  0.85050634978E+02  0.41800000000E+01 0.  1.
        -11    1    4    4    0    0 -0.41869473847E+02  0.33512250264E+02  0.85689258338E+02  0.10108794563E+03  0.00000000000E+00 0. -1.
         11    1    4    4    0    0 -0.12736783054E+02 -0.19135073617E+02 -0.10728068678E+02  0.25366673854E+02  0.00000000000E+00 0.  1.
</event>
<event>
 8    1  0.6760442E-009  0.7379675E+02  0.7561462E-02  0.1347638E+00
          1   -1    0    0  501    0  0.00000000000E+00  0.00000000000E+00  0.47398679921E+02  0.47398679921E+02  0.00000000000E+00 0. -1.
         -1   -1    0    0    0  501 -0.00000000000E+00 -0.00000000000E+00 -0.26101274350E+03  0.26101274350E+03  0.00000000000E+00 0.  1.
         25    2    1    2    0    0  0.17042409765E+02 -0.24231638665E+01 -0.11337947369E+03  0.16969054205E+03  0.12507461594E+03 0.  0.
         23    2    1    2    0    0 -0.17042409765E+02  0.24231638665E+01 -0.10023458989E+03  0.13872088137E+03  0.94340841975E+02 0.  0.
          5    1    3    3  502    0  0.40939668786E+00  0.30892565550E+02  0.15965739192E+02  0.35027067246E+02  0.41800000000E+01 0. -1.
         -5    1    3    3    0  502  0.16633013078E+02 -0.33315729417E+02 -0.12934521288E+03  0.13466347480E+03  0.41800000000E+01 0. -1.
        -11    1    4    4    0    0  0.22990489493E+02  0.24194641679E+02 -0.83928518910E+02  0.90321312986E+02  0.00000000000E+00 0.  1.
         11    1    4    4    0    0 -0.40032899259E+02 -0.21771477812E+02 -0.16306070981E+02  0.48399568387E+02  0.00000000000E+00 0. -1.
</event>
<event>
 8    1  0.6760442E-009  0.1172016E+03  0.7561462E-02  0.1247786E+00
         -1   -1    0    0    0  501 -0.00000000000E+00  0.00000000000E+00  0.15094649283E+03  0.15094649283E+03  0.00000000000E+00 0.  1.
          1   -1    0    0  501    0  0.00000000000E+00 -0.00000000000E+00 -0.14523031159E+03  0.14523031159E+03  0.00000000000E+00 0. -1.
         25    2    1    2    0    0  0.26659558473E+01 -0.74314344974E+02 -0.55325231601E+02  0.15568687313E+03  0.12509113487E+03 0.  0.
         23    2    1    2    0    0 -0.26659558473E+01  0.74314344974E+02  0.61041412842E+02  0.14048993129E+03  0.10237986874E+03 0.  0.
          5    1    3    3  502    0 -0.90049986941E+01 -0.10529744624E+03 -0.60609244230E+02  0.12189993877E+03  0.41800000000E+01 0.  1.
         -5    1    3    3    0  502  0.11670954541E+02  0.30983101266E+02  0.52840126299E+01  0.33786934360E+02  0.41800000000E+01 0.  1.
        -11    1    4    4    0    0  0.28328345972E+02  0.40167031457E+02  0.77290170428E+02  0.91595065622E+02  0.00000000000E+00 0.  1.
         11    1    4    4    0    0 -0.30994301819E+02  0.34147313517E+02 -0.16248757586E+02  0.48894865669E+02  0.00000000000E+00 0. -1.
</event>
<event>
 8    1  0.6760442E-009  0.1397772E+03  0.7561462E-02  0.1213629E+00
         -2   -1    0    0    0  501 -0.00000000000E+00  0.00000000000E+00  0.10151585720E+04  0.10151585720E+04  0.00000000000E+00 0.  1.
          2   -1    0    0  501    0  0.00000000000E+00 -0.00000000000E+00 -0.20416767537E+02  0.20416767537E+02  0.00000000000E+00 0. -1.
         25    2    1    2    0    0 -0.49151802399E+02 -0.73915989957E+02  0.44890293500E+03  0.47438465914E+03  0.12508991375E+03 0.  0.
         23    2    1    2    0    0  0.49151802399E+02  0.73915989957E+02  0.54583886945E+03  0.56119068039E+03  0.95474787772E+02 0.  0.
          5    1    3    3  502    0 -0.90926449128E+02 -0.43119664965E+02  0.31521572721E+03  0.33091592851E+03  0.41800000000E+01 0.  1.
         -5    1    3    3    0  502  0.41774646729E+02 -0.30796324992E+02  0.13368720779E+03  0.14346873063E+03  0.41800000000E+01 0.  1.
        -11    1    4    4    0    0  0.12673901625E+02 -0.21309962208E+02  0.63047402348E+02  0.67747451720E+02  0.00000000000E+00 0.  1.
         11    1    4    4    0    0  0.36477900775E+02  0.95225952165E+02  0.48279146710E+03  0.49344322867E+03  0.00000000000E+00 0. -1.
</event>
<event>
 8    1  0.6760442E-009  0.6294602E+02  0.7561462E-02  0.1385869E+00
          1   -1    0    0  501    0  0.00000000000E+00  0.00000000000E+00  0.41387832206E+03  0.41387832206E+03  0.00000000000E+00 0. -1.
         -1   -1    0    0    0  501 -0.00000000000E+00 -0.00000000000E+00 -0.35832819263E+02  0.35832819263E+02  0.00000000000E+00 0.  1.
         25    2    1    2    0    0  0.10389808906E+01  0.21930614633E+02  0.30522715685E+03  0.33059521645E+03  0.12509016156E+03 0.  0.
         23    2    1    2    0    0 -0.10389808906E+01 -0.21930614633E+02  0.72818345943E+02  0.11911592487E+03  0.91673664228E+02 0.  0.
          5    1    3    3  502    0  0.50695665818E+01 -0.37570488645E+01 -0.10956507520E+02  0.13316657934E+02  0.41800000000E+01 0.  1.
         -5    1    3    3    0  502 -0.40305856913E+01  0.25687663498E+02  0.31618366437E+03  0.31727855851E+03  0.41800000000E+01 0.  1.
        -11    1    4    4    0    0  0.39252475283E+02 -0.31785514996E+02  0.52768565108E+02  0.73045172619E+02  0.00000000000E+00 0.  1.
         11    1    4    4    0    0 -0.40291456173E+02  0.98549003628E+01  0.20049780836E+02  0.46070752254E+02  0.00000000000E+00 0. -1.
</event>
<event>
 8    1  0.6760442E-009  0.1797530E+03  0.7561462E-02  0.1168042E+00
         -2   -1    0    0    0  501 -0.00000000000E+00  0.00000000000E+00  0.30266958239E+02  0.30266958239E+02  0.00000000000E+00 0.  1.
          2   -1    0    0  501    0  0.00000000000E+00 -0.00000000000E+00 -0.11970480102E+04  0.11970480102E+04  0.00000000000E+00 0. -1.
         25    2    1    2    0    0  0.14885323294E+03 -0.44921202643E+02 -0.63284961497E+03  0.66356714635E+03  0.12509006017E+03 0.  0.
         23    2    1    2    0    0 -0.14885323294E+03  0.44921202643E+02 -0.53393143698E+03  0.56374782207E+03  0.92485826445E+02 0.  0.
          5    1    3    3  502    0 -0.20091839940E+02 -0.13945092448E+02 -0.48434923694E+02  0.54420234002E+02  0.41800000000E+01 0.  1.
         -5    1    3    3    0  502  0.16894507288E+03 -0.30976110195E+02 -0.58441469127E+03  0.60914691235E+03  0.41800000000E+01 0.  1.
        -11    1    4    4    0    0 -0.75773518366E+02 -0.24133108461E+01 -0.12957953793E+03  0.15012763505E+03  0.00000000000E+00 0.  1.
         11    1    4    4    0    0 -0.73079714570E+02  0.47334513489E+02 -0.40435189905E+03  0.41362018702E+03  0.00000000000E+00 0. -1.
</event>
<event>
 8    1  0.6760442E-009  0.1075837E+03  0.7561462E-02  0.1265111E+00
          1   -1    0    0  501    0  0.00000000000E+00  0.00000000000E+00  0.74812588991E+03  0.74812588991E+03  0.00000000000E+00 0. -1.
         -1   -1    0    0    0  501 -0.00000000000E+00 -0.00000000000E+00 -0.17597713672E+02  0.17597713672E+02  0.00000000000E+00 0.  1.
         25    2    1    2    0    0 -0.31830787258E+02 -0.11206944564E+02  0.35428928377E+03  0.37723709926E+03  0.12509251711E+03 0.  0.
         23    2    1    2    0    0  0.31830787258E+02  0.11206944564E+02  0.37623889246E+03  0.38848650432E+03  0.90704273410E+02 0.  0.
          5    1    3    3  502    0  0.18673097865E+02  0.41577600397E+02  0.69647740405E+02  0.83340635840E+02  0.41800000000E+01 0. -1.
         -5    1    3    3    0  502 -0.50503885122E+02 -0.52784544962E+02  0.28464154337E+03  0.29389646342E+03  0.41800000000E+01 0. -1.
        -11    1    4    4    0    0  0.18389086762E+02  0.51004509263E+02  0.23230786402E+03  0.23855096344E+03  0.00000000000E+00 0.  1.
         11    1    4    4    0    0  0.13441700495E+02 -0.39797564699E+02  0.14393102845E+03  0.14993554088E+03  0.00000000000E+00 0. -1.
</event>
<event>
 8    1  0.6760442E-009  0.2521287E+03  0.7561462E-02  0.1111967E+00
          1   -1    0    0  501    0  0.00000000000E+00  0.00000000000E+00  0.94526533619E+03  0.94526533619E+03  0.00000000000E+00 0. -1.
         -1   -1    0    0    0  501 -0.00000000000E+00 -0.00000000000E+00 -0.75639585151E+02  0.75639585151E+02  0.00000000000E+00 0.  1.
         25    2    1    2    0    0 -0.24038256061E+03 -0.38907785852E+02  0.47258878923E+03  0.54615605760E+03  0.12509470132E+03 0.  0.
         23    2    1    2    0    0  0.24038256061E+03  0.38907785852E+02  0.39703696182E+03  0.47474886375E+03  0.91926836852E+02 0.  0.
          5    1    3    3  502    0 -0.16117623788E+03 -0.62094277307E+02  0.21605940255E+03  0.27664529051E+03  0.41800000000E+01 0.  1.
         -5    1    3    3    0  502 -0.79206322737E+02  0.23186491455E+02  0.25652938667E+03  0.26951076709E+03  0.41800000000E+01 0.  1.
        -11    1    4    4    0    0  0.18688035670E+03  0.51573150468E+02  0.24093253549E+03  0.30924511997E+03  0.00000000000E+00 0.  1.
         11    1    4    4    0    0  0.53502203914E+02 -0.12665364617E+02  0.15610442632E+03  0.16550374377E+03  0.00000000000E+00 0. -1.
</event>
<event>
 8    1  0.6760442E-009  0.1917363E+03  0.7561462E-02  0.1156905E+00
         -1   -1    0    0    0  501 -0.00000000000E+00  0.00000000000E+00  0.19597888672E+03  0.19597888672E+03  0.00000000000E+00 0.  1.
          1   -1    0    0  501    0  0.00000000000E+00 -0.00000000000E+00 -0.21472643869E+03  0.21472643869E+03  0.00000000000E+00 0. -1.
         25    2    1    2    0    0  0.83007048458E+02  0.14973703760E+03 -0.38313284855E+02  0.21547171318E+03  0.12509516721E+03 0.  0.
         23    2    1    2    0    0 -0.83007048458E+02 -0.14973703760E+03  0.19565732892E+02  0.19523361223E+03  0.91771427569E+02 0.  0.
          5    1    3    3  502    0  0.11613542583E+03  0.10871961031E+03 -0.29653630231E+02  0.16187711693E+03  0.41800000000E+01 0.  1.
         -5    1    3    3    0  502 -0.33128377374E+02  0.41017427294E+02 -0.86596546236E+01  0.53594596252E+02  0.41800000000E+01 0.  1.
        -11    1    4    4    0    0 -0.45005894374E+02 -0.90365454643E+02 -0.34188734399E+02  0.10658478072E+03  0.00000000000E+00 0.  1.
         11    1    4    4    0    0 -0.38001154084E+02 -0.59371582959E+02  0.53754467291E+02  0.88648831513E+02  0.00000000000E+00 0. -1.
</event>
<event>
 8    1  0.6760442E-009  0.1178181E+03  0.7561462E-02  0.1246741E+00
         -2   -1    0    0    0  501 -0.00000000000E+00  0.00000000000E+00  0.48712361865E+02  0.48712361865E+02  0.00000000000E+00 0.  1.
          2   -1    0    0  501    0  0.00000000000E+00 -0.00000000000E+00 -0.36591768797E+03  0.36591768797E+03  0.00000000000E+00 0. -1.
         25    2    1    2    0    0 -0.31626354090E+02 -0.71216102633E+02 -0.16917068023E+03  0.22436132000E+03  0.12508926139E+03 0.  0.
         23    2    1    2    0    0  0.31626354090E+02  0.71216102633E+02 -0.14803464588E+03  0.19026872984E+03  0.90642008066E+02 0.  0.
          5    1    3    3  502    0 -0.52518897172E+02 -0.12205331254E+02 -0.12373235100E+02  0.55477689371E+02  0.41800000000E+01 0. -1.
         -5    1    3    3    0  502  0.20892543081E+02 -0.59010771379E+02 -0.15679744513E+03  0.16888363063E+03  0.41800000000E+01 0. -1.
        -11    1    4    4    0    0  0.61838182383E+02  0.61161866256E+02 -0.98730010771E+02  0.13157640256E+03  0.00000000000E+00 0.  1.
         11    1    4    4    0    0 -0.30211828293E+02  0.10054236377E+02 -0.49304635107E+02  0.58692327274E+02  0.00000000000E+00 0. -1.
</event>
<event>
 8    1  0.6760442E-009  0.9374978E+02  0.7561462E-02  0.1294017E+00
          2   -1    0    0  501    0  0.00000000000E+00  0.00000000000E+00  0.15075048681E+03  0.15075048681E+03  0.00000000000E+00 0. -1.
         -2   -1    0    0    0  501 -0.00000000000E+00 -0.00000000000E+00 -0.82026366887E+02  0.82026366887E+02  0.00000000000E+00 0.  1.
         25    2    1    2    0    0 -0.11215030609E+02 -0.23839893982E+02  0.27918101188E+02  0.13084703076E+03  0.12508959840E+03 0.  0.
         23    2    1    2    0    0  0.11215030609E+02  0.23839893982E+02  0.40806018734E+02  0.10192982294E+03  0.89612723332E+02 0.  0.
          5    1    3    3  502    0  0.67595335953E+01 -0.71882621898E+02  0.32279362852E+02  0.79197426041E+02  0.41800000000E+01 0. -1.
         -5    1    3    3    0  502 -0.17974564204E+02  0.48042727917E+02 -0.43612616637E+01  0.51649604716E+02  0.41800000000E+01 0. -1.
        -11    1    4    4    0    0 -0.70116280874E+01 -0.17327263845E+02 -0.19276336538E+02  0.26850961828E+02  0.00000000000E+00 0.  1.
         11    1    4    4    0    0  0.18226658696E+02  0.41167157826E+02  0.60082355272E+02  0.75078861111E+02  0.00000000000E+00 0. -1.
</event>
<event>
 8    1  0.6760442E-009  0.1514291E+03  0.7561462E-02  0.1198728E+00
         -2   -1    0    0    0  501 -0.00000000000E+00  0.00000000000E+00  0.30453620057E+03  0.30453620057E+03  0.00000000000E+00 0.  1.
          2   -1    0    0  501    0  0.00000000000E+00 -0.00000000000E+00 -0.11175346245E+03  0.11175346245E+03  0.00000000000E+00 0. -1.
         25    2    1    2    0    0  0.31947140952E+02 -0.13502015006E+03  0.41439189153E+02  0.19134503850E+03  0.12507860178E+03 0.  0.
         23    2    1    2    0    0 -0.31947140952E+02  0.13502015006E+03  0.15134354897E+03  0.22494462452E+03  0.91892075569E+02 0.  0.
          5    1    3    3  502    0  0.49295168332E+02 -0.40109486061E+02  0.65978084973E+02  0.91702587693E+02  0.41800000000E+01 0.  1.
         -5    1    3    3    0  502 -0.17348027380E+02 -0.94910663995E+02 -0.24538895820E+02  0.99642450803E+02  0.41800000000E+01 0.  1.
        -11    1    4    4    0    0 -0.29149170181E+02  0.52669457747E+02  0.12449084410E+03  0.13828129362E+03  0.00000000000E+00 0.  1.
         11    1    4    4    0    0 -0.27979707710E+01  0.82350692309E+02  0.26852704868E+02  0.86663330901E+02  0.00000000000E+00 0. -1.
</event>
<event>
 8    1  0.6760442E-009  0.2556327E+03  0.7561462E-02  0.1109796E+00
          2   -1    0    0  501    0  0.00000000000E+00  0.00000000000E+00  0.93056825608E+03  0.93056825608E+03  0.00000000000E+00 0. -1.
         -2   -1    0    0    0  501 -0.00000000000E+00 -0.00000000000E+00 -0.72559696987E+02  0.72559696987E+02  0.00000000000E+00 0.  1.
         25    2    1    2    0    0 -0.19211340440E+03 -0.13626515936E+03  0.47763200791E+03  0.54703580393E+03  0.12506031343E+03 0.  0.
         23    2    1    2    0    0  0.19211340440E+03  0.13626515936E+03  0.38037655119E+03  0.45609214914E+03  0.88645214253E+02 0.  0.
          5    1    3    3  502    0 -0.11596206286E+02 -0.74914687331E+02  0.13126302706E+03  0.15163817808E+03  0.41800000000E+01 0.  1.
         -5    1    3    3    0  502 -0.18051719811E+03 -0.61350472027E+02  0.34636898085E+03  0.39539762585E+03  0.41800000000E+01 0.  1.
        -11    1    4    4    0    0  0.13946247023E+03  0.59663902193E+02  0.28535665502E+03  0.32316865936E+03  0.00000000000E+00 0.  1.
         11    1    4    4    0    0  0.52650934175E+02  0.76601257165E+02  0.95019896165E+02  0.13292348978E+03  0.00000000000E+00 0. -1.
</event>
<event>
 8    1  0.6760442E-009  0.1719273E+03  0.7561462E-02  0.1175853E+00
         -2   -1    0    0    0  501 -0.00000000000E+00  0.00000000000E+00  0.32688560928E+02  0.32688560928E+02  0.00000000000E+00 0.  1.
          2   -1    0    0  501    0  0.00000000000E+00 -0.00000000000E+00 -0.11894293061E+04  0.11894293061E+04  0.00000000000E+00 0. -1.
         25    2    1    2    0    0  0.14896794579E+03  0.63957936128E+02 -0.51295397407E+03  0.55231462575E+03  0.12509036670E+03 0.  0.
         23    2    1    2    0    0 -0.14896794579E+03 -0.63957936128E+02 -0.64378677113E+03  0.66980324130E+03  0.88842044732E+02 0.  0.
          5    1    3    3  502    0  0.11238082853E+03  0.40049307717E+02 -0.17694241628E+03  0.21344668830E+03  0.41800000000E+01 0. -1.
         -5    1    3    3    0  502  0.36587117260E+02  0.23908628411E+02 -0.33601155779E+03  0.33886793745E+03  0.41800000000E+01 0. -1.
        -11    1    4    4    0    0 -0.98119135431E+02  0.94269108968E+00 -0.27705854626E+03  0.29392123343E+03  0.00000000000E+00 0. -1.
         11    1    4    4    0    0 -0.50848810357E+02 -0.64900627217E+02 -0.36672822487E+03  0.37588200787E+03  0.00000000000E+00 0.  1.
</event>
<event>
 8    1  0.6760442E-009  0.9442639E+02  0.7561462E-02  0.1292473E+00
          1   -1    0    0  501    0  0.00000000000E+00  0.00000000000E+00  0.68416543326E+03  0.68416543326E+03  0.00000000000E+00 0. -1.
         -1   -1    0    0    0  501 -0.00000000000E+00 -0.00000000000E+00 -0.17646208128E+02  0.17646208128E+02  0.00000000000E+00 0.  1.
         25    2    1    2    0    0  0.80932669261E+01 -0.23813823596E+02  0.43211442773E+03  0.45056321615E+03  0.12510689003E+03 0.  0.
         23    2    1    2    0    0 -0.80932669261E+01  0.23813823596E+02  0.23440479741E+03  0.25124842524E+03  0.86876711350E+02 0.  0.
          5    1    3    3  502    0 -0.12982751952E+02  0.48185974164E+02  0.21700915107E+03  0.22271255915E+03  0.41800000000E+01 0. -1.
         -5    1    3    3    0  502  0.21076018878E+02 -0.71999797760E+02  0.21510527665E+03  0.22785065700E+03  0.41800000000E+01 0. -1.
        -11    1    4    4    0    0  0.73599719249E+01 -0.17791499983E+02  0.85371869799E+01  0.21061581610E+02  0.00000000000E+00 0.  1.
         11    1    4    4    0    0 -0.15453238851E+02  0.41605323578E+02  0.22586761043E+03  0.23018684363E+03  0.00000000000E+00 0. -1.
</event>
<event>
 8    1  0.6760442E-009  0.1083734E+03  0.7561462E-02  0.1263612E+00
         -1   -1    0    0    0  501 -0.00000000000E+00  0.00000000000E+00  0.35097866564E+03  0.35097866564E+03  0.00000000000E+00 0.  1.
          1   -1    0    0  501    0  0.00000000000E+00 -0.00000000000E+00 -0.60584652670E+02  0.60584652670E+02  0.00000000000E+00 0. -1.
         25    2    1    2    0    0 -0.54472910801E+02 -0.64542699289E+02  0.90113657766E+02  0.17582819915E+03  0.12514801739E+03 0.  0.
         23    2    1    2    0    0  0.54472910801E+02  0.64542699289E+02  0.20028035521E+03  0.23573511916E+03  0.91245644732E+02 0.  0.
          5    1    3    3  502    0 -0.33628166245E+02  0.19502617370E+02  0.79363496759E+02  0.88471705460E+02  0.41800000000E+01 0.  1.
         -5    1    3    3    0  502 -0.20844744556E+02 -0.84045316659E+02  0.10750161007E+02  0.87356493689E+02  0.41800000000E+01 0.  1.
        -11    1    4    4    0    0  0.50222555837E+01  0.30523002048E+02  0.16113139934E+03  0.16407377779E+03  0.00000000000E+00 0.  1.
         11    1    4    4    0    0  0.49450655217E+02  0.34019697240E+02  0.39148955864E+02  0.71661341370E+02  0.00000000000E+00 0. -1.
</event>
<event>
 8    1  0.6760442E-009  0.1042572E+03  0.7561462E-02  0.1271590E+00
         -2   -1    0    0    0  501 -0.00000000000E+00  0.00000000000E+00  0.45433270496E+02  0.45433270496E+02  0.00000000000E+00 0.  1.
          2   -1    0    0  501    0  0.00000000000E+00 -0.00000000000E+00 -0.50722439575E+03  0.50722439575E+03  0.00000000000E+00 0. -1.
         25    2    1    2    0    0  0.61521273710E+02 -0.66851601145E+02 -0.34912837115E+03  0.38182582851E+03  0.12508533119E+03 0.  0.
         23    2    1    2    0    0 -0.61521273710E+02  0.66851601145E+02 -0.11266275410E+03  0.17083183774E+03  0.90755809335E+02 0.  0.
          5    1    3    3  502    0  0.39815838129E+02 -0.36192990034E+02 -0.32605127840E+02  0.63053947180E+02  0.41800000000E+01 0.  1.
         -5    1    3    3    0  502  0.21705435581E+02 -0.30658611111E+02 -0.31652324331E+03  0.31877188133E+03  0.41800000000E+01 0.  1.
        -11    1    4    4    0    0 -0.68149449855E+02  0.22297546661E+02 -0.32165094916E+02  0.78588303415E+02  0.00000000000E+00 0.  1.
         11    1    4    4    0    0  0.66281761444E+01  0.44554054484E+02 -0.80497659184E+02  0.92243534321E+02  0.00000000000E+00 0. -1.
</event>
<event>
 8    1  0.6760442E-009  0.2466685E+03  0.7561462E-02  0.1115429E+00
          1   -1    0    0  501    0  0.00000000000E+00  0.00000000000E+00  0.14978960619E+03  0.14978960619E+03  0.00000000000E+00 0. -1.
         -1   -1    0    0    0  501 -0.00000000000E+00 -0.00000000000E+00 -0.47209951626E+03  0.47209951626E+03  0.00000000000E+00 0.  1.
         25    2    1    2    0    0 -0.16932616714E+03  0.16978033146E+03 -0.13581882700E+03  0.30264394182E+03  0.12509952009E+03 0.  0.
         23    2    1    2    0    0  0.16932616714E+03 -0.16978033146E+03 -0.18649108307E+03  0.31924518063E+03  0.98192919601E+02 0.  0.
          5    1    3    3  502    0 -0.62347271165E+02  0.13194119525E+02  0.83221431242E+01  0.64404949173E+02  0.41800000000E+01 0.  1.
         -5    1    3    3    0  502 -0.10697889598E+03  0.15658621194E+03 -0.14414097012E+03  0.23823899265E+03  0.41800000000E+01 0.  1.
        -11    1    4    4    0    0  0.34602571060E+02 -0.34828812380E+02 -0.96751227627E+02  0.10849508811E+03  0.00000000000E+00 0. -1.
         11    1    4    4    0    0  0.13472359608E+03 -0.13495151908E+03 -0.89739855447E+02  0.21075009252E+03  0.00000000000E+00 0.  1.
</event>
<event>
 8    1  0.6760442E-009  0.9159800E+02  0.7561462E-02  0.1299027E+00
         -1   -1    0    0    0  501 -0.00000000000E+00  0.00000000000E+00  0.82919629039E+02  0.82919629039E+02  0.00000000000E+00 0.  1.
          1   -1    0    0  501    0  0.00000000000E+00 -0.00000000000E+00 -0.24565315390E+03  0.24565315390E+03  0.00000000000E+00 0. -1.
         25    2    1    2    0    0  0.37511579343E+02 -0.58682206032E+02 -0.16085282306E+03  0.21533935887E+03  0.12508672552E+03 0.  0.
         23    2    1    2    0    0 -0.37511579343E+02  0.58682206032E+02 -0.18807018007E+01  0.11323342407E+03  0.89261141593E+02 0.  0.
          5    1    3    3  502    0 -0.28435383024E+01 -0.11184200199E+02  0.20298245666E+02  0.23720523209E+02  0.41800000000E+01 0. -1.
         -5    1    3    3    0  502  0.40355117646E+02 -0.47498005833E+02 -0.18115106873E+03  0.19161883566E+03  0.41800000000E+01 0. -1.
        -11    1    4    4    0    0 -0.64253328971E+02  0.44761822437E+02  0.13380687352E+02  0.79442770759E+02  0.00000000000E+00 0.  1.
         11    1    4    4    0    0  0.26741749628E+02  0.13920383594E+02 -0.15261389152E+02  0.33790653315E+02  0.00000000000E+00 0. -1.
</event>
<event>
 8    1  0.6760442E-009  0.9740156E+02  0.7561462E-02  0.1285857E+00
          2   -1    0    0  501    0  0.00000000000E+00  0.00000000000E+00  0.74911775847E+03  0.74911775847E+03  0.00000000000E+00 0. -1.
         -2   -1    0    0    0  501 -0.00000000000E+00 -0.00000000000E+00 -0.18927172718E+02  0.18927172718E+02  0.00000000000E+00 0.  1.
         25    2    1    2    0    0  0.27612434184E+02  0.32210363287E+02  0.48258699641E+03  0.50034636833E+03  0.12512523797E+03 0.  0.
         23    2    1    2    0    0 -0.27612434184E+02 -0.32210363287E+02  0.24760358935E+03  0.26769856286E+03  0.92493400165E+02 0.  0.
          5    1    3    3  502    0 -0.21210631754E+02 -0.14138605813E+02  0.35578393433E+03  0.35672043873E+03  0.41800000000E+01 0. -1.
         -5    1    3    3    0  502  0.48823065938E+02  0.46348969101E+02  0.12680306207E+03  0.14362592961E+03  0.41800000000E+01 0. -1.
        -11    1    4    4    0    0 -0.42181645721E+02 -0.58110331413E+02  0.16657796976E+03  0.18139548468E+03  0.00000000000E+00 0.  1.
         11    1    4    4    0    0  0.14569211538E+02  0.25899968125E+02  0.81025619589E+02  0.86303078181E+02  0.00000000000E+00 0. -1.
</event>
<event>
 8    1  0.6760442E-009  0.1618545E+03  0.7561462E-02  0.1186619E+00
          1   -1    0    0  501    0  0.00000000000E+00  0.00000000000E+00  0.97399165370E+03  0.97399165370E+03  0.00000000000E+00 0. -1.
         -1   -1    0    0    0  501 -0.00000000000E+00 -0.00000000000E+00 -0.36545910539E+02  0.36545910539E+02  0.00000000000E+00 0.  1.
         25    2    1    2    0    0 -0.12384122245E+03  0.63160782826E+01  0.73552372414E+03  0.75632023231E+03  0.12509437954E+03 0.  0.
         23    2    1    2    0    0  0.12384122245E+03 -0.63160782826E+01  0.20192201902E+03  0.25421733193E+03  0.92072845441E+02 0.  0.
          5    1    3    3  502    0  0.18746269864E+02  0.23379866135E+02  0.88198859572E+02  0.93244581634E+02  0.41800000000E+01 0.  1.
         -5    1    3    3    0  502 -0.14258749232E+03 -0.17063787853E+02  0.64732486457E+03  0.66307565067E+03  0.41800000000E+01 0.  1.
        -11    1    4    4    0    0  0.71015751850E+01 -0.29862395835E+02  0.70336125025E+02  0.76742201810E+02  0.00000000000E+00 0. -1.
         11    1    4    4    0    0  0.11673964727E+03  0.23546317552E+02  0.13158589399E+03  0.17747513012E+03  0.00000000000E+00 0.  1.
</event>
<event>
 8    1  0.6760442E-009  0.1241751E+03  0.7561462E-02  0.1236364E+00
         -2   -1    0    0    0  501 -0.00000000000E+00  0.00000000000E+00  0.34290020760E+02  0.34290020760E+02  0.00000000000E+00 0. -1.
          2   -1    0    0  501    0  0.00000000000E+00 -0.00000000000E+00 -0.58727181178E+03  0.58727181178E+03  0.00000000000E+00 0.  1.
         25    2    1    2    0    0  0.86299681954E+02 -0.30133230649E+02 -0.28103625572E+03  0.32091017135E+03  0.12508522835E+03 0.  0.
         23    2    1    2    0    0 -0.86299681954E+02  0.30133230649E+02 -0.27194553530E+03  0.30065166119E+03  0.89896610126E+02 0.  0.
          5    1    3    3  502    0 -0.16915296023E+02 -0.26812332462E+02 -0.15329435948E+03  0.15659393813E+03  0.41800000000E+01 0. -1.
         -5    1    3    3    0  502  0.10321497798E+03 -0.33208981874E+01 -0.12774189624E+03  0.16431623322E+03  0.41800000000E+01 0. -1.
        -11    1    4    4    0    0 -0.25203272471E+02 -0.21423061796E+02 -0.15821380328E+03  0.16163464996E+03  0.00000000000E+00 0.  1.
         11    1    4    4    0    0 -0.61096409483E+02  0.51556292446E+02 -0.11373173202E+03  0.13901701123E+03  0.00000000000E+00 0. -1.
</event>
<event>
 8    1  0.6760442E-009  0.1598865E+03  0.7561462E-02  0.1188825E+00
          1   -1    0    0  501    0  0.00000000000E+00  0.00000000000E+00  0.10632837507E+03  0.10632837507E+03  0.00000000000E+00 0. -1.
         -1   -1    0    0    0  501 -0.00000000000E+00 -0.00000000000E+00 -0.28567945340E+03  0.28567945340E+03  0.00000000000E+00 0.  1.
         25    2    1    2    0    0 -0.12437842106E+03  0.14892195333E+02 -0.32948341552E+02  0.18006747208E+03  0.12508769797E+03 0.  0.
         23    2    1    2    0    0  0.12437842106E+03 -0.14892195333E+02 -0.14640273678E+03  0.21194035639E+03  0.88279013490E+02 0.  0.
          5    1    3    3  502    0 -0.11512972609E+03  0.54781318745E+02 -0.47917900307E+02  0.13626974823E+03  0.41800000000E+01 0. -1.
         -5    1    3    3    0  502 -0.92486949661E+01 -0.39889123412E+02  0.14969558755E+02  0.43797723850E+02  0.41800000000E+01 0. -1.
        -11    1    4    4    0    0 -0.12128016895E+02  0.49609651683E+01 -0.40451302284E+01  0.13713608124E+02  0.00000000000E+00 0. -1.
         11    1    4    4    0    0  0.13650643795E+03 -0.19853160501E+02 -0.14235760655E+03  0.19822674826E+03  0.00000000000E+00 0.  1.
</event>
<event>
 8    1  0.6760442E-009  0.1185744E+03  0.7561462E-02  0.1245468E+00
         -2   -1    0    0    0  501 -0.00000000000E+00  0.00000000000E+00  0.34408887747E+02  0.34408887747E+02  0.00000000000E+00 0.  1.
          2   -1    0    0  501    0  0.00000000000E+00 -0.00000000000E+00 -0.70845759161E+03  0.70845759161E+03  0.00000000000E+00 0. -1.
         25    2    1    2    0    0  0.41938798404E+02  0.98015178124E+02 -0.27928888567E+03  0.32405991505E+03  0.12508680557E+03 0.  0.
         23    2    1    2    0    0 -0.41938798404E+02 -0.98015178124E+02 -0.39475981820E+03  0.41880656431E+03  0.90541627414E+02 0.  0.
          5    1    3    3  502    0  0.44362029556E+01  0.66471241102E+00  0.12625545632E+02  0.14035616900E+02  0.41800000000E+01 0. -1.
         -5    1    3    3    0  502  0.37502595448E+02  0.97350465713E+02 -0.29191443130E+03  0.31002429815E+03  0.41800000000E+01 0. -1.
        -11    1    4    4    0    0 -0.66814685006E+01 -0.90262874439E+02 -0.34886914602E+03  0.36041879747E+03  0.00000000000E+00 0. -1.
         11    1    4    4    0    0 -0.35257329903E+02 -0.77523036848E+01 -0.45890672175E+02  0.58387766844E+02  0.00000000000E+00 0.  1.
</event>
<event>
 8    1  0.6760442E-009  0.1038884E+03  0.7561462E-02  0.1272325E+00
         -1   -1    0    0    0  501 -0.00000000000E+00  0.00000000000E+00  0.29295246571E+02  0.29295246571E+02  0.00000000000E+00 0.  1.
          1   -1    0    0  501    0  0.00000000000E+00 -0.00000000000E+00 -0.51532243659E+03  0.51532243659E+03  0.00000000000E+00 0. -1.
         25    2    1    2    0    0  0.43015949399E+02 -0.16863407901E+02 -0.17910860326E+03  0.22329897780E+03  0.12509114796E+03 0.  0.
         23    2    1    2    0    0 -0.43015949399E+02  0.16863407901E+02 -0.30691858676E+03  0.32131870536E+03  0.83138108509E+02 0.  0.
          5    1    3    3  502    0 -0.23181067713E+01  0.49407506791E+02 -0.93465622866E+02  0.10582896770E+03  0.41800000000E+01 0.  1.
         -5    1    3    3    0  502  0.45334056170E+02 -0.66270914692E+02 -0.85642980393E+02  0.11747001010E+03  0.41800000000E+01 0.  1.
        -11    1    4    4    0    0 -0.12046859053E+02 -0.23769134579E+02 -0.31764335100E+02  0.41461687810E+02  0.00000000000E+00 0.  1.
         11    1    4    4    0    0 -0.30969090346E+02  0.40632542480E+02 -0.27515425166E+03  0.27985701755E+03  0.00000000000E+00 0. -1.
</event>
<event>
 8    1  0.6760442E-009  0.8850530E+02  0.7561462E-02  0.1306512E+00
          2   -1    0    0  501    0  0.00000000000E+00  0.00000000000E+00  0.13540121338E+04  0.13540121338E+04  0.00000000000E+00 0. -1.
         -2   -1    0    0    0  501 -0.00000000000E+00 -0.00000000000E+00 -0.98973536471E+01  0.98973536471E+01  0.00000000000E+00 0.  1.
         25    2    1    2    0    0  0.27561644303E+02 -0.22866249004E+02  0.90389395349E+03  0.91321060054E+03  0.12508721833E+03 0.  0.
         23    2    1    2    0    0 -0.27561644303E+02  0.22866249004E+02  0.44022082662E+03  0.45069888688E+03  0.89736285067E+02 0.  0.
          5    1    3    3  502    0 -0.24434130308E+02 -0.17288170363E+02  0.55491276211E+02  0.63187512167E+02  0.41800000000E+01 0.  1.
         -5    1    3    3    0  502  0.51995774611E+02 -0.55780786415E+01  0.84840267728E+03  0.85002308837E+03  0.41800000000E+01 0.  1.
        -11    1    4    4    0    0  0.17415362405E+02  0.41986518814E+02  0.16375909207E+03  0.16995058942E+03  0.00000000000E+00 0.  1.
         11    1    4    4    0    0 -0.44977006707E+02 -0.19120269809E+02  0.27646173456E+03  0.28074829745E+03  0.00000000000E+00 0. -1.
</event>
<event>
 8    1  0.6760442E-009  0.1348127E+03  0.7561462E-02  0.1220484E+00
          1   -1    0    0  501    0  0.00000000000E+00  0.00000000000E+00  0.17516731773E+03  0.17516731773E+03  0.00000000000E+00 0. -1.
         -1   -1    0    0    0  501 -0.00000000000E+00 -0.00000000000E+00 -0.10648239552E+03  0.10648239552E+03  0.00000000000E+00 0.  1.
         25    2    1    2    0    0  0.70528369614E+02 -0.34330595654E+02  0.50053190362E+02  0.15589913021E+03  0.12508547565E+03 0.  0.
         23    2    1    2    0    0 -0.70528369614E+02  0.34330595654E+02  0.18631731852E+02  0.12575058304E+03  0.96505061961E+02 0.  0.
          5    1    3    3  502    0  0.49757112568E+02 -0.81698340777E+02  0.33140339250E+02  0.10132197996E+03  0.41800000000E+01 0. -1.
         -5    1    3    3    0  502  0.20771257046E+02  0.47367745124E+02  0.16912851112E+02  0.54577150256E+02  0.41800000000E+01 0. -1.
        -11    1    4    4    0    0  0.22768001884E+02  0.13231795547E+02  0.14379246257E+02  0.30003750534E+02  0.00000000000E+00 0. -1.
         11    1    4    4    0    0 -0.93296371498E+02  0.21098800106E+02  0.42524855952E+01  0.95746832503E+02  0.00000000000E+00 0.  1.
</event>
<event>
 8    1  0.6760442E-009  0.1050823E+03  0.7561462E-02  0.1269957E+00
          1   -1    0    0  501    0  0.00000000000E+00  0.00000000000E+00  0.22087457819E+03  0.22087457819E+03  0.00000000000E+00 0. -1.
         -1   -1    0    0    0  501 -0.00000000000E+00 -0.00000000000E+00 -0.59358867208E+02  0.59358867208E+02  0.00000000000E+00 0.  1.
         25    2    1    2    0    0 -0.50282005354E+01 -0.40139266632E+02  0.81015942185E+02  0.15442438175E+03  0.12508742249E+03 0.  0.
         23    2    1    2    0    0  0.50282005354E+01  0.40139266632E+02  0.80499768801E+02  0.12580906365E+03  0.87813804119E+02 0.  0.
          5    1    3    3  502    0 -0.53534908197E+02  0.21240444520E+01  0.38605938236E+01  0.53878330943E+02  0.41800000000E+01 0.  1.
         -5    1    3    3    0  502  0.48506707662E+02 -0.42263311084E+02  0.77155348361E+02  0.10054605081E+03  0.41800000000E+01 0.  1.
        -11    1    4    4    0    0 -0.33730262980E+02 -0.31160017468E+01  0.49481662963E+02  0.59965615791E+02  0.00000000000E+00 0.  1.
         11    1    4    4    0    0  0.38758463515E+02  0.43255268379E+02  0.31018105837E+02  0.65843447861E+02  0.00000000000E+00 0. -1.
</event>
<event>
 8    1  0.6760442E-009  0.1372663E+03  0.7561462E-02  0.1217055E+00
          1   -1    0    0  501    0  0.00000000000E+00  0.00000000000E+00  0.12871545472E+04  0.12871545472E+04  0.00000000000E+00 0. -1.
         -1   -1    0    0    0  501 -0.00000000000E+00 -0.00000000000E+00 -0.22849153384E+02  0.22849153384E+02  0.00000000000E+00 0.  1.
         25    2    1    2    0    0 -0.32831719176E+02 -0.12833332815E+03  0.63486347239E+03  0.66048985376E+03  0.12509138040E+03 0.  0.
         23    2    1    2    0    0  0.32831719176E+02  0.12833332815E+03  0.62944192142E+03  0.64951384682E+03  0.90131791658E+02 0.  0.
          5    1    3    3  502    0 -0.35455171464E+01 -0.39521491434E+02  0.46359591885E+03  0.46530975420E+03  0.41800000000E+01 0.  1.
         -5    1    3    3    0  502 -0.29286202029E+02 -0.88811836716E+02  0.17126755353E+03  0.19518009956E+03  0.41800000000E+01 0.  1.
        -11    1    4    4    0    0 -0.12712712577E+02  0.33179385475E+02  0.55091086897E+02  0.65555415773E+02  0.00000000000E+00 0.  1.
         11    1    4    4    0    0  0.45544431753E+02  0.95153942675E+02  0.57435083453E+03  0.58395843105E+03  0.00000000000E+00 0. -1.
</event>
<event>
 8    1  0.6760442E-009  0.1134741E+03  0.7561462E-02  0.1254268E+00
         -1   -1    0    0    0  501 -0.00000000000E+00  0.00000000000E+00  0.19751855744E+02  0.19751855744E+02  0.00000000000E+00 0.  1.
          1   -1    0    0  501    0  0.00000000000E+00 -0.00000000000E+00 -0.77481286027E+03  0.77481286027E+03  0.00000000000E+00 0. -1.
         25    2    1    2    0    0 -0.51994225403E+02 -0.28115503023E+02 -0.43782958670E+03  0.45916875479E+03  0.12508923777E+03 0.  0.
         23    2    1    2    0    0  0.51994225403E+02  0.28115503023E+02 -0.31723141783E+03  0.33539596122E+03  0.91437395852E+02 0.  0.
          5    1    3    3  502    0  0.15381983075E+02 -0.56907600675E+02 -0.26304016078E+03  0.26959725332E+03  0.41800000000E+01 0. -1.
         -5    1    3    3    0  502 -0.67376208477E+02  0.28792097652E+02 -0.17478942592E+03  0.18957150147E+03  0.41800000000E+01 0. -1.
        -11    1    4    4    0    0  0.21637678555E+02  0.51683144908E+02 -0.26315887010E+03  0.26905747994E+03  0.00000000000E+00 0. -1.
         11    1    4    4    0    0  0.30356546848E+02 -0.23567641885E+02 -0.54072547734E+02  0.66338481283E+02  0.00000000000E+00 0.  1.
</event>
<event>
 8    1  0.6760442E-009  0.1068063E+03  0.7561462E-02  0.1266601E+00
         -2   -1    0    0    0  501 -0.00000000000E+00  0.00000000000E+00  0.13493969947E+02  0.13493969947E+02  0.00000000000E+00 0.  1.
          2   -1    0    0  501    0  0.00000000000E+00 -0.00000000000E+00 -0.97248322625E+03  0.97248322625E+03  0.00000000000E+00 0. -1.
         25    2    1    2    0    0 -0.30062981556E+02  0.24620792328E+01 -0.64574753268E+03  0.65844173603E+03  0.12508316869E+03 0.  0.
         23    2    1    2    0    0  0.30062981556E+02 -0.24620792328E+01 -0.31324172362E+03  0.32753546017E+03  0.90825412496E+02 0.  0.
          5    1    3    3  502    0 -0.72958474498E+02 -0.10098103819E+02 -0.51374188641E+03  0.51901166553E+03  0.41800000000E+01 0.  1.
         -5    1    3    3    0  502  0.42895492941E+02  0.12560183052E+02 -0.13200564627E+03  0.13943007050E+03  0.41800000000E+01 0.  1.
        -11    1    4    4    0    0  0.59635130207E+02  0.13784337838E+02 -0.18155384287E+03  0.19159372271E+03  0.00000000000E+00 0.  1.
         11    1    4    4    0    0 -0.29572148651E+02 -0.16246417071E+02 -0.13168788076E+03  0.13594173745E+03  0.00000000000E+00 0. -1.
</event>
<event>
 8    1  0.6760442E-009  0.1788613E+03  0.7561462E-02  0.1168910E+00
         -1   -1    0    0    0  501 -0.00000000000E+00  0.00000000000E+00  0.13991102166E+04  0.13991102166E+04  0.00000000000E+00 0.  1.
          1   -1    0    0  501    0  0.00000000000E+00 -0.00000000000E+00 -0.28341873231E+02  0.28341873231E+02  0.00000000000E+00 0. -1.
         25    2    1    2    0    0  0.15326728682E+03 -0.34586924260E+02  0.93321697999E+03  0.95458313124E+03  0.12509159111E+03 0.  0.
         23    2    1    2    0    0 -0.15326728682E+03  0.34586924260E+02  0.43755136342E+03  0.47286895864E+03  0.86410299561E+02 0.  0.
          5    1    3    3  502    0  0.91440342631E+02  0.34976497639E+02  0.62366198137E+03  0.63131325905E+03  0.41800000000E+01 0. -1.
         -5    1    3    3    0  502  0.61826944187E+02 -0.69563421899E+02  0.30955499862E+03  0.32326987219E+03  0.41800000000E+01 0. -1.
        -11    1    4    4    0    0 -0.86112198602E+02 -0.88900379330E+01  0.13873609813E+03  0.16352996192E+03  0.00000000000E+00 0. -1.
         11    1    4    4    0    0 -0.67155088216E+02  0.43476962193E+02  0.29881526529E+03  0.30933899671E+03  0.00000000000E+00 0.  1.
</event>
<event>
 8    1  0.6760442E-009  0.2673102E+03  0.7561462E-02  0.1102829E+00
          1   -1    0    0  501    0  0.00000000000E+00  0.00000000000E+00  0.90238128917E+03  0.90238128917E+03  0.00000000000E+00 0. -1.
         -1   -1    0    0    0  501 -0.00000000000E+00 -0.00000000000E+00 -0.83542035205E+02  0.83542035205E+02  0.00000000000E+00 0.  1.
         25    2    1    2    0    0  0.12173209442E+03 -0.22026569029E+03  0.39935665491E+03  0.48833275562E+03  0.12508982876E+03 0.  0.
         23    2    1    2    0    0 -0.12173209442E+03  0.22026569029E+03  0.41948259906E+03  0.49759056875E+03  0.91077143504E+02 0.  0.
          5    1    3    3  502    0 -0.23668879196E+02 -0.58770437103E+02  0.82788584215E+02  0.10433408933E+03  0.41800000000E+01 0. -1.
         -5    1    3    3    0  502  0.14540097362E+03 -0.16149525319E+03  0.31656807070E+03  0.38399866630E+03  0.41800000000E+01 0. -1.
        -11    1    4    4    0    0 -0.10182019365E+03  0.20425906844E+03  0.41196255840E+03  0.47095888186E+03  0.00000000000E+00 0. -1.
         11    1    4    4    0    0 -0.19911900770E+02  0.16006621853E+02  0.75200406518E+01  0.26631686894E+02  0.00000000000E+00 0.  1.
</event>
<event>
 8    1  0.6760442E-009  0.1069176E+03  0.7561462E-02  0.1266387E+00
          2   -1    0    0  501    0  0.00000000000E+00  0.00000000000E+00  0.93328711741E+02  0.93328711741E+02  0.00000000000E+00 0. -1.
         -2   -1    0    0    0  501 -0.00000000000E+00 -0.00000000000E+00 -0.17361385934E+03  0.17361385934E+03  0.00000000000E+00 0.  1.
         25    2    1    2    0    0 -0.19819527868E+02  0.56289683251E+02 -0.76759785937E+02  0.15843428487E+03  0.12509202917E+03 0.  0.
         23    2    1    2    0    0  0.19819527868E+02 -0.56289683251E+02 -0.35253616613E+01  0.10850828621E+03  0.90555385676E+02 0.  0.
          5    1    3    3  502    0  0.10285352702E+02 -0.20300840005E+02 -0.72300717047E+02  0.75912967737E+02  0.41800000000E+01 0. -1.
         -5    1    3    3    0  502 -0.30104880570E+02  0.76590523256E+02 -0.44590688893E+01  0.82521317137E+02  0.41800000000E+01 0. -1.
        -11    1    4    4    0    0 -0.55744195988E+00  0.24738631404E+02  0.16269667581E+01  0.24798339584E+02  0.00000000000E+00 0.  1.
         11    1    4    4    0    0  0.20376969828E+02 -0.81028314655E+02 -0.51523284194E+01  0.83709946621E+02  0.00000000000E+00 0. -1.
</event>
<event>
 8    1  0.6760442E-009  0.1154689E+03  0.7561462E-02  0.1250765E+00
         -1   -1    0    0    0  501 -0.00000000000E+00  0.00000000000E+00  0.38457618174E+02  0.38457618174E+02  0.00000000000E+00 0.  1.
          1   -1    0    0  501    0  0.00000000000E+00 -0.00000000000E+00 -0.45744049116E+03  0.45744049116E+03  0.00000000000E+00 0. -1.
         25    2    1    2    0    0 -0.14745692804E+02  0.71867356540E+02 -0.26861332206E+03  0.30525875196E+03  0.12508971368E+03 0.  0.
         23    2    1    2    0    0  0.14745692804E+02 -0.71867356540E+02 -0.15036955093E+03  0.19063935738E+03  0.91378391004E+02 0.  0.
          5    1    3    3  502    0  0.88991360432E+01  0.90920361198E+02 -0.10696163237E+03  0.14072657852E+03  0.41800000000E+01 0.  1.
         -5    1    3    3    0  502 -0.23644828847E+02 -0.19053004658E+02 -0.16165168968E+03  0.16453217343E+03  0.41800000000E+01 0.  1.
        -11    1    4    4    0    0 -0.32643091148E+02 -0.40446760105E+02 -0.36968952346E+02  0.63782562196E+02  0.00000000000E+00 0.  1.
         11    1    4    4    0    0  0.47388783953E+02 -0.31420596435E+02 -0.11340059858E+03  0.12685679518E+03  0.00000000000E+00 0. -1.
</event>
<event>
 8    1  0.6760442E-009  0.1147065E+03  0.7561462E-02  0.1252094E+00
          2   -1    0    0  501    0  0.00000000000E+00  0.00000000000E+00  0.37669899722E+03  0.37669899722E+03  0.00000000000E+00 0. -1.
         -2   -1    0    0    0  501 -0.00000000000E+00 -0.00000000000E+00 -0.42728136103E+02  0.42728136103E+02  0.00000000000E+00 0.  1.
         25    2    1    2    0    0 -0.51335927981E+02  0.66425259463E+01  0.11782392807E+03  0.17947039629E+03  0.12509054507E+03 0.  0.
         23    2    1    2    0    0  0.51335927981E+02 -0.66425259463E+01  0.21614693305E+03  0.23995673703E+03  0.90444669997E+02 0.  0.
          5    1    3    3  502    0 -0.77500750503E+02 -0.35648337786E+02  0.77002630565E+02  0.11499586005E+03  0.41800000000E+01 0. -1.
         -5    1    3    3    0  502  0.26164822522E+02  0.42290863732E+02  0.40821297509E+02  0.64474536238E+02  0.41800000000E+01 0. -1.
        -11    1    4    4    0    0  0.87830089381E+01  0.34083642774E+02  0.13607960911E+03  0.14055780294E+03  0.00000000000E+00 0.  1.
         11    1    4    4    0    0  0.42552919043E+02 -0.40726168721E+02  0.80067323935E+02  0.99398934098E+02  0.00000000000E+00 0. -1.
</event>
<event>
 8    1  0.6760442E-009  0.8484863E+02  0.7561462E-02  0.1315829E+00
         -2   -1    0    0    0  501 -0.00000000000E+00  0.00000000000E+00  0.22051873648E+02  0.22051873648E+02  0.00000000000E+00 0.  1.
          2   -1    0    0  501    0  0.00000000000E+00 -0.00000000000E+00 -0.75147773402E+03  0.75147773402E+03  0.00000000000E+00 0. -1.
         25    2    1    2    0    0  0.46633483872E+02 -0.33394864675E+02 -0.29184260500E+03  0.32265922220E+03  0.12508784423E+03 0.  0.
         23    2    1    2    0    0 -0.46633483872E+02  0.33394864675E+02 -0.43758325537E+03  0.45087038547E+03  0.92277301121E+02 0.  0.
          5    1    3    3  502    0 -0.76467976752E+01 -0.40652843182E+00 -0.24108904657E+03  0.24124684362E+03  0.41800000000E+01 0.  1.
         -5    1    3    3    0  502  0.54280281548E+02 -0.32988336243E+02 -0.50753558424E+02  0.81412378578E+02  0.41800000000E+01 0.  1.
        -11    1    4    4    0    0 -0.37772481326E+02  0.59093377055E+02 -0.38834166677E+03  0.39462391933E+03  0.00000000000E+00 0. -1.
         11    1    4    4    0    0 -0.88610025461E+01 -0.25698512380E+02 -0.49241588605E+02  0.56246466138E+02  0.00000000000E+00 0.  1.
</event>
<event>
 8    1  0.6760442E-009  0.1060897E+03  0.7561462E-02  0.1267987E+00
         -1   -1    0    0    0  501 -0.00000000000E+00  0.00000000000E+00  0.19955315332E+02  0.19955315332E+02  0.00000000000E+00 0.  1.
          1   -1    0    0  501    0  0.00000000000E+00 -0.00000000000E+00 -0.61443885194E+03  0.61443885194E+03  0.00000000000E+00 0. -1.
         25    2    1    2    0    0  0.14396996715E+02  0.86636263566E+01 -0.40070666633E+03  0.42010671991E+03  0.12506594953E+03 0.  0.
         23    2    1    2    0    0 -0.14396996715E+02 -0.86636263566E+01 -0.19377687028E+03  0.21428744737E+03  0.89929431823E+02 0.  0.
          5    1    3    3  502    0  0.19292541958E+02 -0.56659649462E+02 -0.21100908365E+03  0.21937370816E+03  0.41800000000E+01 0. -1.
         -5    1    3    3    0  502 -0.48955452430E+01  0.65323275818E+02 -0.18969758268E+03  0.20073301174E+03  0.41800000000E+01 0. -1.
        -11    1    4    4    0    0  0.62795514828E+01 -0.44621406368E+02 -0.65752085432E+02  0.79710974224E+02  0.00000000000E+00 0.  1.
         11    1    4    4    0    0 -0.20676548198E+02  0.35957780011E+02 -0.12802478484E+03  0.13457647314E+03  0.00000000000E+00 0. -1.
</event>
<event>
 8    1  0.6760442E-009  0.1875249E+03  0.7561462E-02  0.1160713E+00
          1   -1    0    0  501    0  0.00000000000E+00  0.00000000000E+00  0.24698798575E+03  0.24698798575E+03  0.00000000000E+00 0. -1.
         -1   -1    0    0    0  501 -0.00000000000E+00 -0.00000000000E+00 -0.19130384192E+03  0.19130384192E+03  0.00000000000E+00 0.  1.
         25    2    1    2    0    0  0.82078458416E+02  0.13523271269E+03  0.13735291418E+03  0.24400453214E+03  0.12509048227E+03 0.  0.
         23    2    1    2    0    0 -0.82078458416E+02 -0.13523271269E+03 -0.81668770352E+02  0.19428729552E+03  0.77801061890E+02 0.  0.
          5    1    3    3  502    0  0.46688552654E+02 -0.13255559938E+02  0.38573539275E+02  0.62136311046E+02  0.41800000000E+01 0. -1.
         -5    1    3    3    0  502  0.35389905762E+02  0.14848827263E+03  0.98779374906E+02  0.18186822110E+03  0.41800000000E+01 0. -1.
        -11    1    4    4    0    0 -0.89846838010E+02 -0.87996667983E+02 -0.43530769332E+02  0.13308191370E+03  0.00000000000E+00 0. -1.
         11    1    4    4    0    0  0.77683795943E+01 -0.47236044710E+02 -0.38138001020E+02  0.61205381815E+02  0.00000000000E+00 0.  1.
</event>
<event>
 8    1  0.6760442E-009  0.1197318E+03  0.7561462E-02  0.1243540E+00
         -3   -1    0    0    0  501 -0.00000000000E+00  0.00000000000E+00  0.39015239771E+02  0.39015239771E+02  0.00000000000E+00 0.  1.
          3   -1    0    0  501    0  0.00000000000E+00 -0.00000000000E+00 -0.40099480408E+03  0.40099480408E+03  0.00000000000E+00 0. -1.
         25    2    1    2    0    0  0.38654320502E+02 -0.38887622062E+02 -0.25323447975E+03  0.28771833844E+03  0.12509091455E+03 0.  0.
         23    2    1    2    0    0 -0.38654320502E+02  0.38887622062E+02 -0.10874508456E+03  0.15229170540E+03  0.91437773790E+02 0.  0.
          5    1    3    3  502    0  0.58408123692E+02  0.27179042072E+02 -0.92843356920E+02  0.11308214079E+03  0.41800000000E+01 0.  1.
         -5    1    3    3    0  502 -0.19753803191E+02 -0.66066664134E+02 -0.16039112283E+03  0.17463619766E+03  0.41800000000E+01 0.  1.
        -11    1    4    4    0    0 -0.66788036435E+02  0.39664705347E+02 -0.71228679892E+02  0.10539191383E+03  0.00000000000E+00 0.  1.
         11    1    4    4    0    0  0.28133715933E+02 -0.77708328503E+00 -0.37516404666E+02  0.46899791574E+02  0.00000000000E+00 0. -1.
</event>
<event>
 8    1  0.6760442E-009  0.1151373E+03  0.7561462E-02  0.1251342E+00
         -1   -1    0    0    0  501 -0.00000000000E+00  0.00000000000E+00  0.55247408314E+02  0.55247408314E+02  0.00000000000E+00 0.  1.
          1   -1    0    0  501    0  0.00000000000E+00 -0.00000000000E+00 -0.27926229678E+03  0.27926229678E+03  0.00000000000E+00 0. -1.
         25    2    1    2    0    0  0.32620074551E+02 -0.47836597934E+02 -0.13159207443E+03  0.19056949449E+03  0.12509136186E+03 0.  0.
         23    2    1    2    0    0 -0.32620074551E+02  0.47836597934E+02 -0.92422814039E+02  0.14394021061E+03  0.93938268610E+02 0.  0.
          5    1    3    3  502    0 -0.38820114457E+01  0.33843379213E+02 -0.38187470994E+01  0.34532586912E+02  0.41800000000E+01 0.  1.
         -5    1    3    3    0  502  0.36502085997E+02 -0.81679977147E+02 -0.12777332733E+03  0.15603690758E+03  0.41800000000E+01 0.  1.
        -11    1    4    4    0    0 -0.45700433763E+01 -0.26524528660E+02 -0.81942469443E+01  0.28135059980E+02  0.00000000000E+00 0.  1.
         11    1    4    4    0    0 -0.28050031175E+02  0.74361126594E+02 -0.84228567095E+02  0.11580515063E+03  0.00000000000E+00 0. -1.
</event>
<event>
 8    1  0.6760442E-009  0.1064210E+03  0.7561462E-02  0.1267345E+00
         -2   -1    0    0    0  501 -0.00000000000E+00  0.00000000000E+00  0.20530163462E+03  0.20530163462E+03  0.00000000000E+00 0.  1.
          2   -1    0    0  501    0  0.00000000000E+00 -0.00000000000E+00 -0.96826591411E+02  0.96826591411E+02  0.00000000000E+00 0. -1.
         25    2    1    2    0    0 -0.50224583343E+02  0.58171550297E+02  0.10723402002E+02  0.14720199682E+03  0.12508796297E+03 0.  0.
         23    2    1    2    0    0  0.50224583343E+02 -0.58171550297E+02  0.97751641202E+02  0.15492622921E+03  0.92413825286E+02 0.  0.
          5    1    3    3  502    0 -0.10156489072E+02  0.75691605314E+02 -0.34720148275E+02  0.83996038487E+02  0.41800000000E+01 0.  1.
         -5    1    3    3    0  502 -0.40068094271E+02 -0.17520055017E+02  0.45443550277E+02  0.63205958328E+02  0.41800000000E+01 0.  1.
        -11    1    4    4    0    0  0.21956509695E+02 -0.60207480142E+02  0.10733261499E+03  0.12500927655E+03  0.00000000000E+00 0.  1.
         11    1    4    4    0    0  0.28268073648E+02  0.20359298449E+01 -0.95809737836E+01  0.29916952664E+02  0.00000000000E+00 0. -1.
</event>
<event>
 8    1  0.6760442E-009  0.1603688E+03  0.7561462E-02  0.1188281E+00
         -1   -1    0    0    0  501 -0.00000000000E+00  0.00000000000E+00  0.94838156736E+02  0.94838156736E+02  0.00000000000E+00 0.  1.
          1   -1    0    0  501    0  0.00000000000E+00 -0.00000000000E+00 -0.30022299375E+03  0.30022299375E+03  0.00000000000E+00 0. -1.
         25    2    1    2    0    0 -0.11853532964E+03  0.16369328733E+02 -0.59366587223E+02  0.18300307300E+03  0.12508858362E+03 0.  0.
         23    2    1    2    0    0  0.11853532964E+03 -0.16369328733E+02 -0.14601824979E+03  0.21205807749E+03  0.96585297312E+02 0.  0.
          5    1    3    3  502    0 -0.14203274580E+03 -0.32724500988E+01 -0.46831709365E+02  0.14964855900E+03  0.41800000000E+01 0.  1.
         -5    1    3    3    0  502  0.23497416153E+02  0.19641778831E+02 -0.12534877858E+02  0.33354514004E+02  0.41800000000E+01 0.  1.
        -11    1    4    4    0    0  0.10564067446E+03  0.21399895633E+02 -0.13045055988E+03  0.16921955031E+03  0.00000000000E+00 0. -1.
         11    1    4    4    0    0  0.12894655182E+02 -0.37769224366E+02 -0.15567689918E+02  0.42838527179E+02  0.00000000000E+00 0.  1.
</event>
<event>
 8    1  0.6760442E-009  0.3536978E+03  0.7561462E-02  0.1061107E+00
         -2   -1    0    0    0  501 -0.00000000000E+00  0.00000000000E+00  0.14974522587E+03  0.14974522587E+03  0.00000000000E+00 0.  1.
          2   -1    0    0  501    0  0.00000000000E+00 -0.00000000000E+00 -0.87462645128E+03  0.87462645128E+03  0.00000000000E+00 0. -1.
         25    2    1    2    0    0 -0.15853271426E+03 -0.30653583563E+03 -0.37690597243E+03  0.52612028800E+03  0.12509038881E+03 0.  0.
         23    2    1    2    0    0  0.15853271426E+03  0.30653583563E+03 -0.34797525298E+03  0.49825138915E+03  0.89837798774E+02 0.  0.
          5    1    3    3  502    0 -0.51435276283E+02 -0.18821648456E+03 -0.27319865572E+03  0.33574694428E+03  0.41800000000E+01 0.  1.
         -5    1    3    3    0  502 -0.10709743797E+03 -0.11831935107E+03 -0.10370731671E+03  0.19037334372E+03  0.41800000000E+01 0.  1.
        -11    1    4    4    0    0  0.11385230445E+03  0.14153659130E+03 -0.14187161815E+03  0.23048320967E+03  0.00000000000E+00 0.  1.
         11    1    4    4    0    0  0.44680409811E+02  0.16499924433E+03 -0.20610363483E+03  0.26776817948E+03  0.00000000000E+00 0. -1.
</event>
<event>
 8    1  0.6760442E-009  0.9834354E+02  0.7561462E-02  0.1283818E+00
          4   -1    0    0  501    0  0.00000000000E+00  0.00000000000E+00  0.13979710988E+04  0.13979710988E+04  0.00000000000E+00 0. -1.
         -4   -1    0    0    0  501 -0.00000000000E+00 -0.00000000000E+00 -0.12148253576E+02  0.12148253576E+02  0.00000000000E+00 0.  1.
         25    2    1    2    0    0 -0.55416303184E+02  0.32584510231E+02  0.94114803990E+03  0.95159847048E+03  0.12508916438E+03 0.  0.
         23    2    1    2    0    0  0.55416303184E+02 -0.32584510231E+02  0.44467480536E+03  0.45852088194E+03  0.91504096529E+02 0.  0.
          5    1    3    3  502    0  0.17818574454E+02  0.62445553162E+01  0.22577460101E+02  0.29727263098E+02  0.41800000000E+01 0.  1.
         -5    1    3    3    0  502 -0.73234877638E+02  0.26339954915E+02  0.91857057980E+03  0.92187120738E+03  0.41800000000E+01 0.  1.
        -11    1    4    4    0    0 -0.15350534431E+02  0.85343140522E+01  0.22801243159E+02  0.28781419584E+02  0.00000000000E+00 0.  1.
         11    1    4    4    0    0  0.70766837615E+02 -0.41118824283E+02  0.42187356221E+03  0.42973946235E+03  0.00000000000E+00 0. -1.
</event>
<event>
 8    1  0.6760442E-009  0.1094755E+03  0.7561462E-02  0.1261544E+00
          3   -1    0    0  501    0  0.00000000000E+00  0.00000000000E+00  0.33722101711E+03  0.33722101711E+03  0.00000000000E+00 0. -1.
         -3   -1    0    0    0  501 -0.00000000000E+00 -0.00000000000E+00 -0.51944590547E+02  0.51944590547E+02  0.00000000000E+00 0.  1.
         25    2    1    2    0    0  0.73387186963E+02  0.18347938045E+02  0.20290918765E+03  0.25008474732E+03  0.12509163189E+03 0.  0.
         23    2    1    2    0    0 -0.73387186963E+02 -0.18347938045E+02  0.82367238906E+02  0.13908086033E+03  0.82684929852E+02 0.  0.
          5    1    3    3  502    0  0.10048912390E+03  0.35638999884E+02  0.18358959081E+03  0.21234597380E+03  0.41800000000E+01 0. -1.
         -5    1    3    3    0  502 -0.27101936933E+02 -0.17291061839E+02  0.19319596843E+02  0.37738773526E+02  0.41800000000E+01 0. -1.
        -11    1    4    4    0    0 -0.44464821991E+02  0.19286397549E+01 -0.50547531159E+01  0.44792751368E+02  0.00000000000E+00 0.  1.
         11    1    4    4    0    0 -0.28922364971E+02 -0.20276577800E+02  0.87421992022E+02  0.94288108963E+02  0.00000000000E+00 0. -1.
</event>
<event>
 8    1  0.6760442E-009  0.1337692E+03  0.7561462E-02  0.1221968E+00
         -4   -1    0    0    0  501 -0.00000000000E+00  0.00000000000E+00  0.24539043757E+03  0.24539043757E+03  0.00000000000E+00 0.  1.
          4   -1    0    0  501    0  0.00000000000E+00 -0.00000000000E+00 -0.92196098860E+02  0.92196098860E+02  0.00000000000E+00 0. -1.
         25    2    1    2    0    0 -0.69970047830E+02 -0.75982425815E+02  0.78640655512E+02  0.18028202510E+03  0.12509244281E+03 0.  0.
         23    2    1    2    0    0  0.69970047830E+02  0.75982425815E+02  0.74553683195E+02  0.15730451133E+03  0.92289332970E+02 0.  0.
          5    1    3    3  502    0  0.23371221159E+02 -0.24806072547E+02  0.64159832016E+02  0.72770266304E+02  0.41800000000E+01 0.  1.
         -5    1    3    3    0  502 -0.93341268989E+02 -0.51176353268E+02  0.14480823496E+02  0.10751175880E+03  0.41800000000E+01 0.  1.
        -11    1    4    4    0    0 -0.15569962223E+02  0.14975840849E+02  0.42135343435E+02  0.47350677916E+02  0.00000000000E+00 0.  1.
         11    1    4    4    0    0  0.85540010053E+02  0.61006584967E+02  0.32418339760E+02  0.10995383341E+03  0.00000000000E+00 0. -1.
</event>
<event>
 8    1  0.6760442E-009  0.1655026E+03  0.7561462E-02  0.1182621E+00
         -2   -1    0    0    0  501 -0.00000000000E+00  0.00000000000E+00  0.55304925369E+02  0.55304925369E+02  0.00000000000E+00 0. -1.
          2   -1    0    0  501    0  0.00000000000E+00 -0.00000000000E+00 -0.56858729099E+03  0.56858729099E+03  0.00000000000E+00 0.  1.
         25    2    1    2    0    0 -0.78245491766E+02  0.11374314609E+03 -0.23289803423E+03  0.29824365659E+03  0.12509166272E+03 0.  0.
         23    2    1    2    0    0  0.78245491766E+02 -0.11374314609E+03 -0.28038433140E+03  0.32564855978E+03  0.91497272783E+02 0.  0.
          5    1    3    3  502    0  0.32611161798E+02  0.13192973573E+02 -0.58517490915E+02  0.68405493702E+02  0.41800000000E+01 0. -1.
         -5    1    3    3    0  502 -0.11085665356E+03  0.10055017252E+03 -0.17438054331E+03  0.22983816289E+03  0.41800000000E+01 0. -1.
        -11    1    4    4    0    0  0.23703974480E+02 -0.50354316287E+01 -0.12999431607E+03  0.13223371804E+03  0.00000000000E+00 0.  1.
         11    1    4    4    0    0  0.54541517285E+02 -0.10870771446E+03 -0.15039001533E+03  0.19341484173E+03  0.00000000000E+00 0. -1.
</event>
<event>
 8    1  0.6760442E-009  0.1608804E+03  0.7561462E-02  0.1187706E+00
          1   -1    0    0  501    0  0.00000000000E+00  0.00000000000E+00  0.32142635918E+03  0.32142635918E+03  0.00000000000E+00 0. -1.
         -1   -1    0    0    0  501 -0.00000000000E+00 -0.00000000000E+00 -0.99255490635E+02  0.99255490635E+02  0.00000000000E+00 0.  1.
         25    2    1    2    0    0  0.86665908131E+02  0.10920166895E+03  0.13931734875E+03  0.23343617922E+03  0.12508853654E+03 0.  0.
         23    2    1    2    0    0 -0.86665908131E+02 -0.10920166895E+03  0.82853519791E+02  0.18724567059E+03  0.93596214020E+02 0.  0.
          5    1    3    3  502    0  0.11375346673E+03  0.68791676324E+02  0.75023409437E+02  0.15270275141E+03  0.41800000000E+01 0.  1.
         -5    1    3    3    0  502 -0.27087558595E+02  0.40409992625E+02  0.64293939312E+02  0.80733427816E+02  0.41800000000E+01 0.  1.
        -11    1    4    4    0    0 -0.32582475322E+02 -0.31990878111E+02  0.80970675111E+02  0.92958507993E+02  0.00000000000E+00 0. -1.
         11    1    4    4    0    0 -0.54083432809E+02 -0.77210790837E+02  0.18828446803E+01  0.94287162595E+02  0.00000000000E+00 0.  1.
</event>
<event>
 8    1  0.6760442E-009  0.9565694E+02  0.7561462E-02  0.1289703E+00
          3   -1    0    0  501    0  0.00000000000E+00  0.00000000000E+00  0.25450385769E+03  0.25450385769E+03  0.00000000000E+00 0. -1.
         -3   -1    0    0    0  501 -0.00000000000E+00 -0.00000000000E+00 -0.14482687273E+03  0.14482687273E+03  0.00000000000E+00 0.  1.
         25    2    1    2    0    0  0.45351230136E+02  0.80334010388E+02 -0.62742964440E+02  0.16761165449E+03  0.12508676922E+03 0.  0.
         23    2    1    2    0    0 -0.45351230136E+02 -0.80334010388E+02  0.17241994940E+03  0.23171907593E+03  0.12431735157E+03 0.  0.
          5    1    3    3  502    0  0.34125980838E+02  0.64340399948E+02  0.25389583245E+02  0.77242300399E+02  0.41800000000E+01 0. -1.
         -5    1    3    3    0  502  0.11225249298E+02  0.15993610440E+02 -0.88132547685E+02  0.90369354087E+02  0.41800000000E+01 0. -1.
        -11    1    4    4    0    0 -0.40689630717E+02 -0.37625306177E+02  0.14548036066E+01  0.55438489936E+02  0.00000000000E+00 0.  1.
         11    1    4    4    0    0 -0.46615994190E+01 -0.42708704211E+02  0.17096514579E+03  0.17628058600E+03  0.00000000000E+00 0. -1.
</event>
<event>
 8    1  0.6760442E-009  0.1149546E+03  0.7561462E-02  0.1251660E+00
         -1   -1    0    0    0  501 -0.00000000000E+00  0.00000000000E+00  0.18871761061E+02  0.18871761061E+02  0.00000000000E+00 0.  1.
          1   -1    0    0  501    0  0.00000000000E+00 -0.00000000000E+00 -0.94130768046E+03  0.94130768046E+03  0.00000000000E+00 0. -1.
         25    2    1    2    0    0 -0.71202252570E+02  0.25700822913E+02 -0.56071092892E+03  0.57945877571E+03  0.12508170877E+03 0.  0.
         23    2    1    2    0    0  0.71202252570E+02 -0.25700822913E+02 -0.36172499048E+03  0.38072066581E+03  0.91503899201E+02 0.  0.
          5    1    3    3  502    0  0.11842753857E+02 -0.18154325653E+02 -0.32419233296E+03  0.32494302809E+03  0.41800000000E+01 0.  1.
         -5    1    3    3    0  502 -0.83045006427E+02  0.43855148566E+02 -0.23651859596E+03  0.25451574761E+03  0.41800000000E+01 0.  1.
        -11    1    4    4    0    0 -0.16793542213E+02  0.92176087705E+01 -0.28741559811E+02  0.34540767680E+02  0.00000000000E+00 0.  1.
         11    1    4    4    0    0  0.87995794784E+02 -0.34918431683E+02 -0.33298343067E+03  0.34617989813E+03  0.00000000000E+00 0. -1.
</event>
<event>
 8    1  0.6760442E-009  0.1305964E+03  0.7561462E-02  0.1226573E+00
          2   -1    0    0  501    0  0.00000000000E+00  0.00000000000E+00  0.24642188393E+03  0.24642188393E+03  0.00000000000E+00 0. -1.
         -2   -1    0    0    0  501 -0.00000000000E+00 -0.00000000000E+00 -0.80507758510E+02  0.80507758510E+02  0.00000000000E+00 0.  1.
         25    2    1    2    0    0  0.29943403596E+02 -0.80647172988E+02  0.11824947933E+03  0.19243519407E+03  0.12509112928E+03 0.  0.
         23    2    1    2    0    0 -0.29943403596E+02  0.80647172988E+02  0.47664646087E+02  0.13449444837E+03  0.91740199614E+02 0.  0.
          5    1    3    3  502    0 -0.40967902481E+02 -0.32458685979E+02  0.86030633557E+02  0.10075057141E+03  0.41800000000E+01 0. -1.
         -5    1    3    3    0  502  0.70911306077E+02 -0.48188487009E+02  0.32218845777E+02  0.91684622664E+02  0.41800000000E+01 0. -1.
        -11    1    4    4    0    0 -0.57672697975E+02  0.29592208321E+02  0.39277648530E+02  0.75792958506E+02  0.00000000000E+00 0. -1.
         11    1    4    4    0    0  0.27729294379E+02  0.51054964668E+02  0.83869975571E+01  0.58701489862E+02  0.00000000000E+00 0.  1.
</event>
<event>
 8    1  0.6760442E-009  0.1112362E+03  0.7561462E-02  0.1258298E+00
         -1   -1    0    0    0  501 -0.00000000000E+00  0.00000000000E+00  0.17616688212E+02  0.17616688212E+02  0.00000000000E+00 0.  1.
          1   -1    0    0  501    0  0.00000000000E+00 -0.00000000000E+00 -0.95398128111E+03  0.95398128111E+03  0.00000000000E+00 0. -1.
         25    2    1    2    0    0 -0.37535983148E+02  0.26423382771E+02 -0.77602792824E+03  0.78738415989E+03  0.12508926666E+03 0.  0.
         23    2    1    2    0    0  0.37535983148E+02 -0.26423382771E+02 -0.16033666466E+03  0.18421380944E+03  0.78228743870E+02 0.  0.
          5    1    3    3  502    0 -0.64686631264E+02  0.60870518493E+02 -0.49503243082E+03  0.50295542571E+03  0.41800000000E+01 0.  1.
         -5    1    3    3    0  502  0.27150648116E+02 -0.34447135722E+02 -0.28099549742E+03  0.28442873418E+03  0.41800000000E+01 0.  1.
        -11    1    4    4    0    0  0.58170999279E+02 -0.29617001383E+01 -0.89395977064E+02  0.10669712995E+03  0.00000000000E+00 0.  1.
         11    1    4    4    0    0 -0.20635016132E+02 -0.23461682633E+02 -0.70940687592E+02  0.77516679487E+02  0.00000000000E+00 0. -1.
</event>
<event>
 8    1  0.6760442E-009  0.1393739E+03  0.7561462E-02  0.1214174E+00
          2   -1    0    0  501    0  0.00000000000E+00  0.00000000000E+00  0.21688379900E+03  0.21688379900E+03  0.00000000000E+00 0. -1.
         -2   -1    0    0    0  501 -0.00000000000E+00 -0.00000000000E+00 -0.11596345498E+03  0.11596345498E+03  0.00000000000E+00 0.  1.
         25    2    1    2    0    0 -0.61809316363E+00 -0.11461692894E+03  0.65542896066E+02  0.18187885612E+03  0.12508646865E+03 0.  0.
         23    2    1    2    0    0  0.61809316363E+00  0.11461692894E+03  0.35377447955E+02  0.15096839786E+03  0.91664992709E+02 0.  0.
          5    1    3    3  502    0 -0.11757979889E+02  0.22910115942E+02 -0.54514932072E+01  0.26651729433E+02  0.41800000000E+01 0. -1.
         -5    1    3    3    0  502  0.11139886725E+02 -0.13752704489E+03  0.70994389273E+02  0.15522712669E+03  0.41800000000E+01 0. -1.
        -11    1    4    4    0    0  0.40452972947E+00  0.59233089071E+02 -0.29077796761E+02  0.65986671000E+02  0.00000000000E+00 0.  1.
         11    1    4    4    0    0  0.21356343416E+00  0.55383839873E+02  0.64455244716E+02  0.84981726858E+02  0.00000000000E+00 0. -1.
</event>
<event>
 8    1  0.6760442E-009  0.1179300E+03  0.7561462E-02  0.1246552E+00
          2   -1    0    0  501    0  0.00000000000E+00  0.00000000000E+00  0.10449332984E+03  0.10449332984E+03  0.00000000000E+00 0.  1.
         -2   -1    0    0    0  501 -0.00000000000E+00 -0.00000000000E+00 -0.17993890386E+03  0.17993890386E+03  0.00000000000E+00 0. -1.
         25    2    1    2    0    0 -0.70207977841E+02  0.38174546835E+01  0.60718207277E+01  0.14363298670E+03  0.12509929955E+03 0.  0.
         23    2    1    2    0    0  0.70207977841E+02 -0.38174546835E+01 -0.81517394749E+02  0.14079924701E+03  0.90750257296E+02 0.  0.
          5    1    3    3  502    0 -0.10279201663E+03 -0.41812160679E+01 -0.14617552584E+02  0.10399435799E+03  0.41800000000E+01 0.  1.
         -5    1    3    3    0  502  0.32584038788E+02  0.79986707514E+01  0.20689373312E+02  0.39638628704E+02  0.41800000000E+01 0.  1.
        -11    1    4    4    0    0  0.84549576263E+02 -0.15235609020E+01 -0.34052695074E+02  0.91162152925E+02  0.00000000000E+00 0.  1.
         11    1    4    4    0    0 -0.14341598422E+02 -0.22938937816E+01 -0.47464699675E+02  0.49637094086E+02  0.00000000000E+00 0. -1.
</event>
<event>
 8    1  0.6760442E-009  0.1203448E+03  0.7561462E-02  0.1242529E+00
          2   -1    0    0  501    0  0.00000000000E+00  0.00000000000E+00  0.40074856184E+03  0.40074856184E+03  0.00000000000E+00 0. -1.
         -2   -1    0    0    0  501 -0.00000000000E+00 -0.00000000000E+00 -0.51259954219E+02  0.51259954219E+02  0.00000000000E+00 0.  1.
         25    2    1    2    0    0  0.74890409557E+02  0.49264973178E+02  0.15228669658E+03  0.21650644662E+03  0.12509273539E+03 0.  0.
         23    2    1    2    0    0 -0.74890409557E+02 -0.49264973178E+02  0.19720191105E+03  0.23550206944E+03  0.92395995394E+02 0.  0.
          5    1    3    3  502    0  0.60797227600E+02 -0.31035520526E+01  0.70586150374E+01  0.61426634007E+02  0.41800000000E+01 0. -1.
         -5    1    3    3    0  502  0.14093181958E+02  0.52368525231E+02  0.14522808154E+03  0.15507981261E+03  0.41800000000E+01 0. -1.
        -11    1    4    4    0    0 -0.33679850036E+02  0.23904429439E+02  0.92365756516E+02  0.10117898508E+03  0.00000000000E+00 0. -1.
         11    1    4    4    0    0 -0.41210559522E+02 -0.73169402617E+02  0.10483615453E+03  0.13432308436E+03  0.00000000000E+00 0.  1.
</event>
<event>
 8    1  0.6760442E-009  0.1235782E+03  0.7561462E-02  0.1237308E+00
         -1   -1    0    0    0  501 -0.00000000000E+00  0.00000000000E+00  0.29800691058E+03  0.29800691058E+03  0.00000000000E+00 0.  1.
          1   -1    0    0  501    0  0.00000000000E+00 -0.00000000000E+00 -0.46887622926E+03  0.46887622926E+03  0.00000000000E+00 0. -1.
         25    2    1    2    0    0  0.56870621499E+02 -0.50899255140E+02  0.27102078421E+03  0.30809672069E+03  0.12508525917E+03 0.  0.
         23    2    1    2    0    0 -0.56870621499E+02  0.50899255140E+02 -0.44189010289E+03  0.45878641915E+03  0.96918076742E+02 0.  0.
          5    1    3    3  502    0 -0.39173075601E+02 -0.25488114712E+02  0.80018330660E+02  0.92760872599E+02  0.41800000000E+01 0. -1.
         -5    1    3    3    0  502  0.96043697101E+02 -0.25411140428E+02  0.19100245355E+03  0.21533584809E+03  0.41800000000E+01 0. -1.
        -11    1    4    4    0    0  0.58757688221E+01 -0.11118340778E+02 -0.57763192463E+01  0.13838642453E+02  0.00000000000E+00 0.  1.
         11    1    4    4    0    0 -0.62746390321E+02  0.62017595919E+02 -0.43611378365E+03  0.44494777670E+03  0.00000000000E+00 0. -1.
</event>
<event>
 8    1  0.6760442E-009  0.9178422E+02  0.7561462E-02  0.1298588E+00
         -3   -1    0    0    0  501 -0.00000000000E+00  0.00000000000E+00  0.43413139910E+03  0.43413139910E+03  0.00000000000E+00 0.  1.
          3   -1    0    0  501    0  0.00000000000E+00 -0.00000000000E+00 -0.44697118880E+02  0.44697118880E+02  0.00000000000E+00 0. -1.
         25    2    1    2    0    0 -0.65144867137E+02  0.71291778128E+01  0.30928132241E+03  0.33999561665E+03  0.12508958415E+03 0.  0.
         23    2    1    2    0    0  0.65144867137E+02 -0.71291778128E+01  0.80152957814E+02  0.13883290133E+03  0.92495399642E+02 0.  0.
          5    1    3    3  502    0 -0.65565351415E+02  0.22884940403E+02  0.65126056373E+02  0.95296439714E+02  0.41800000000E+01 0.  1.
         -5    1    3    3    0  502  0.42048427782E+00 -0.15755762590E+02  0.24415526604E+03  0.24469917694E+03  0.41800000000E+01 0.  1.
        -11    1    4    4    0    0 -0.61920893698E+00  0.24646052814E+02 -0.65080948697E+01  0.25498365396E+02  0.00000000000E+00 0.  1.
         11    1    4    4    0    0  0.65764076074E+02 -0.31775230627E+02  0.86661052684E+02  0.11333453594E+03  0.00000000000E+00 0. -1.
</event>
<event>
 8    1  0.6760442E-009  0.1957225E+03  0.7561462E-02  0.1153399E+00
         -2   -1    0    0    0  501 -0.00000000000E+00  0.00000000000E+00  0.48182738087E+02  0.48182738087E+02  0.00000000000E+00 0.  1.
          2   -1    0    0  501    0  0.00000000000E+00 -0.00000000000E+00 -0.89008588667E+03  0.89008588667E+03  0.00000000000E+00 0. -1.
         25    2    1    2    0    0  0.51254232707E+02  0.16776027921E+03 -0.41154317892E+03  0.46452741260E+03  0.12508965299E+03 0.  0.
         23    2    1    2    0    0 -0.51254232707E+02 -0.16776027921E+03 -0.43035996967E+03  0.47374121216E+03  0.91926736919E+02 0.  0.
          5    1    3    3  502    0  0.86774306373E+02  0.86592385508E+02 -0.28207048317E+03  0.30758616899E+03  0.41800000000E+01 0. -1.
         -5    1    3    3    0  502 -0.35520073667E+02  0.81167893703E+02 -0.12947269575E+03  0.15694124361E+03  0.41800000000E+01 0. -1.
        -11    1    4    4    0    0 -0.20268789699E+02 -0.12841746545E+03 -0.20397744687E+03  0.24188565088E+03  0.00000000000E+00 0.  1.
         11    1    4    4    0    0 -0.30985443008E+02 -0.39342813763E+02 -0.22638252279E+03  0.23185556128E+03  0.00000000000E+00 0. -1.
</event>
<event>
 8    1  0.6760442E-009  0.1011213E+03  0.7561462E-02  0.1277955E+00
         -1   -1    0    0    0  501 -0.00000000000E+00  0.00000000000E+00  0.10669392046E+04  0.10669392046E+04  0.00000000000E+00 0.  1.
          1   -1    0    0  501    0  0.00000000000E+00 -0.00000000000E+00 -0.12380204223E+02  0.12380204223E+02  0.00000000000E+00 0. -1.
         25    2    1    2    0    0 -0.43843363384E+00  0.14605805526E+02  0.77547187588E+03  0.78563240027E+03  0.12509243100E+03 0.  0.
         23    2    1    2    0    0  0.43843363384E+00 -0.14605805526E+02  0.27908712446E+03  0.29368700851E+03  0.90271336272E+02 0.  0.
          5    1    3    3  502    0 -0.48893316993E+02  0.36738573826E+02  0.24811889936E+03  0.25557922426E+03  0.41800000000E+01 0.  1.
         -5    1    3    3    0  502  0.48454883359E+02 -0.22132768300E+02  0.52735297652E+03  0.53005317601E+03  0.41800000000E+01 0.  1.
        -11    1    4    4    0    0 -0.52595073464E+01  0.36100975166E+02  0.76218534383E+02  0.84499750349E+02  0.00000000000E+00 0. -1.
         11    1    4    4    0    0  0.56979409802E+01 -0.50706780692E+02  0.20286859007E+03  0.20918725816E+03  0.00000000000E+00 0.  1.
</event>
<event>
 8    1  0.6760442E-009  0.1097040E+03  0.7561462E-02  0.1261119E+00
          2   -1    0    0  501    0  0.00000000000E+00  0.00000000000E+00  0.25525668256E+03  0.25525668256E+03  0.00000000000E+00 0. -1.
         -2   -1    0    0    0  501 -0.00000000000E+00 -0.00000000000E+00 -0.50310942496E+02  0.50310942496E+02  0.00000000000E+00 0.  1.
         25    2    1    2    0    0  0.34165862831E+02 -0.73416170906E+01  0.13076789162E+03  0.18430564547E+03  0.12508846450E+03 0.  0.
         23    2    1    2    0    0 -0.34165862831E+02  0.73416170906E+01  0.74177848443E+02  0.12126197958E+03  0.89335933239E+02 0.  0.
          5    1    3    3  502    0  0.71090770240E+02  0.28930412815E+02  0.66174056846E+02  0.10142654780E+03  0.41800000000E+01 0.  1.
         -5    1    3    3    0  502 -0.36924907410E+02 -0.36272029905E+02  0.64593834773E+02  0.82879097675E+02  0.41800000000E+01 0.  1.
        -11    1    4    4    0    0  0.13025371281E+02  0.34002587736E+02  0.11037297380E+02  0.38048103806E+02  0.00000000000E+00 0.  1.
         11    1    4    4    0    0 -0.47191234112E+02 -0.26660970646E+02  0.63140551063E+02  0.83213875774E+02  0.00000000000E+00 0. -1.
</event>
<event>
 8    1  0.6760442E-009  0.1515528E+03  0.7561462E-02  0.1198578E+00
         -1   -1    0    0    0  501 -0.00000000000E+00  0.00000000000E+00  0.59875368140E+02  0.59875368140E+02  0.00000000000E+00 0.  1.
          1   -1    0    0  501    0  0.00000000000E+00 -0.00000000000E+00 -0.48356605187E+03  0.48356605187E+03  0.00000000000E+00 0. -1.
         25    2    1    2    0    0  0.12795538989E+03 -0.19175830658E+02 -0.19694352232E+03  0.26678472258E+03  0.12508814067E+03 0.  0.
         23    2    1    2    0    0 -0.12795538989E+03  0.19175830658E+02 -0.22674716142E+03  0.27665669744E+03  0.91566144083E+02 0.  0.
          5    1    3    3  502    0  0.30749138840E+02  0.45895577906E+02 -0.10197809392E+03  0.11605566617E+03  0.41800000000E+01 0. -1.
         -5    1    3    3    0  502  0.97206251048E+02 -0.65071408564E+02 -0.94965428398E+02  0.15072905641E+03  0.41800000000E+01 0. -1.
        -11    1    4    4    0    0 -0.74970604743E+02  0.21555441514E+01 -0.47046391040E+02  0.88535873272E+02  0.00000000000E+00 0.  1.
         11    1    4    4    0    0 -0.52984785145E+02  0.17020286507E+02 -0.17970077038E+03  0.18812082417E+03  0.00000000000E+00 0. -1.
</event>
<event>
 8    1  0.6760442E-009  0.1550184E+03  0.7561462E-02  0.1194439E+00
          1   -1    0    0  501    0  0.00000000000E+00  0.00000000000E+00  0.10021888099E+04  0.10021888099E+04  0.00000000000E+00 0. -1.
         -1   -1    0    0    0  501 -0.00000000000E+00 -0.00000000000E+00 -0.42953261860E+02  0.42953261860E+02  0.00000000000E+00 0.  1.
         25    2    1    2    0    0 -0.11780397193E+03 -0.79762229002E+02  0.23796102996E+03  0.30415693297E+03  0.12508476772E+03 0.  0.
         23    2    1    2    0    0  0.11780397193E+03  0.79762229002E+02  0.72127451810E+03  0.74098513881E+03  0.92640469034E+02 0.  0.
          5    1    3    3  502    0 -0.71616827344E+02 -0.33291617150E+02  0.22329412323E+03  0.23688613214E+03  0.41800000000E+01 0.  1.
         -5    1    3    3    0  502 -0.46187144585E+02 -0.46470611853E+02  0.14666906731E+02  0.67270800827E+02  0.41800000000E+01 0.  1.
        -11    1    4    4    0    0  0.76696821269E+02  0.12873034464E+01  0.42034394486E+03  0.42728572586E+03  0.00000000000E+00 0.  1.
         11    1    4    4    0    0  0.41107150660E+02  0.78474925556E+02  0.30093057324E+03  0.31369941295E+03  0.00000000000E+00 0. -1.
</event>
<event>
 8    1  0.6760442E-009  0.1113307E+03  0.7561462E-02  0.1258125E+00
         -2   -1    0    0    0  501 -0.00000000000E+00  0.00000000000E+00  0.69065420144E+01  0.69065420144E+01  0.00000000000E+00 0. -1.
          2   -1    0    0  501    0  0.00000000000E+00 -0.00000000000E+00 -0.20893544615E+04  0.20893544615E+04  0.00000000000E+00 0.  1.
         25    2    1    2    0    0 -0.25334359651E+02 -0.13554516468E+02 -0.15493033195E+04  0.15546104464E+04  0.12508920714E+03 0.  0.
         23    2    1    2    0    0  0.25334359651E+02  0.13554516468E+02 -0.53314460004E+03  0.54165055711E+03  0.91195431716E+02 0.  0.
          5    1    3    3  502    0 -0.47158672291E+02 -0.59705460057E+02 -0.83285691057E+03  0.83633533239E+03  0.41800000000E+01 0.  1.
         -5    1    3    3    0  502  0.21824312641E+02  0.46150943589E+02 -0.71644640891E+03  0.71827511405E+03  0.41800000000E+01 0.  1.
        -11    1    4    4    0    0  0.58733438483E+02  0.18273930870E+02 -0.36659298397E+03  0.37171759340E+03  0.00000000000E+00 0.  1.
         11    1    4    4    0    0 -0.33399078832E+02 -0.47194144021E+01 -0.16655161607E+03  0.16993296371E+03  0.00000000000E+00 0. -1.
</event>
<event>
 8    1  0.6760442E-009  0.1095530E+03  0.7561462E-02  0.1261400E+00
          1   -1    0    0  501    0  0.00000000000E+00  0.00000000000E+00  0.23943215327E+03  0.23943215327E+03  0.00000000000E+00 0. -1.
         -1   -1    0    0    0  501 -0.00000000000E+00 -0.00000000000E+00 -0.11682680114E+03  0.11682680114E+03  0.00000000000E+00 0.  1.
         25    2    1    2    0    0 -0.38616785403E+02 -0.85764529307E+02  0.15630153092E+03  0.22118985446E+03  0.12509185644E+03 0.  0.
         23    2    1    2    0    0  0.38616785403E+02  0.85764529307E+02 -0.33696178794E+02  0.13506909995E+03  0.90892346724E+02 0.  0.
          5    1    3    3  502    0 -0.13018169824E+02 -0.78867083283E+02  0.20316594237E+02  0.82581632174E+02  0.41800000000E+01 0. -1.
         -5    1    3    3    0  502 -0.25598615579E+02 -0.68974460243E+01  0.13598493668E+03  0.13860822229E+03  0.41800000000E+01 0. -1.
        -11    1    4    4    0    0  0.31037643538E+02  0.95193656674E+02 -0.52235110060E+02  0.11293216685E+03  0.00000000000E+00 0.  1.
         11    1    4    4    0    0  0.75791418645E+01 -0.94291273668E+01  0.18538931265E+02  0.22136933093E+02  0.00000000000E+00 0. -1.
</event>
<event>
 8    1  0.6760442E-009  0.1702754E+03  0.7561462E-02  0.1177561E+00
         -1   -1    0    0    0  501 -0.00000000000E+00  0.00000000000E+00  0.30717795309E+03  0.30717795309E+03  0.00000000000E+00 0.  1.
          1   -1    0    0  501    0  0.00000000000E+00 -0.00000000000E+00 -0.13333321888E+03  0.13333321888E+03  0.00000000000E+00 0. -1.
         25    2    1    2    0    0  0.14261204413E+03 -0.96963968554E+01 -0.80950943323E+01  0.19010063458E+03  0.12506200651E+03 0.  0.
         23    2    1    2    0    0 -0.14261204413E+03  0.96963968554E+01  0.18193982855E+03  0.25041053739E+03  0.95765968794E+02 0.  0.
          5    1    3    3  502    0  0.25177229217E+02  0.51085031846E+02 -0.89319638119E+01  0.57799876533E+02  0.41800000000E+01 0.  1.
         -5    1    3    3    0  502  0.11743481492E+03 -0.60781428701E+02  0.83686947962E+00  0.13230075805E+03  0.41800000000E+01 0.  1.
        -11    1    4    4    0    0 -0.73225655449E+02 -0.19640335489E+02  0.31371885452E+02  0.82048367387E+02  0.00000000000E+00 0. -1.
         11    1    4    4    0    0 -0.69386388685E+02  0.29336732344E+02  0.15056794310E+03  0.16836217000E+03  0.00000000000E+00 0.  1.
</event>
<event>
 8    1  0.6760442E-009  0.8326321E+02  0.7561462E-02  0.1320038E+00
          1   -1    0    0  501    0  0.00000000000E+00  0.00000000000E+00  0.56502188974E+02  0.56502188974E+02  0.00000000000E+00 0. -1.
         -1   -1    0    0    0  501 -0.00000000000E+00 -0.00000000000E+00 -0.23290177915E+03  0.23290177915E+03  0.00000000000E+00 0.  1.
         25    2    1    2    0    0 -0.20261081338E+02  0.23939516609E+02 -0.12868970276E+03  0.18218880287E+03  0.12509239954E+03 0.  0.
         23    2    1    2    0    0  0.20261081338E+02 -0.23939516609E+02 -0.47709887419E+02  0.10721516525E+03  0.90748258552E+02 0.  0.
          5    1    3    3  502    0  0.33068112713E+02  0.74559031881E+01  0.74789106843E+01  0.34964225657E+02  0.41800000000E+01 0. -1.
         -5    1    3    3    0  502 -0.53329194051E+02  0.16483613421E+02 -0.13616861344E+03  0.14722457722E+03  0.41800000000E+01 0. -1.
        -11    1    4    4    0    0  0.31079515512E+01 -0.47307113135E+02 -0.59364807118E+02  0.75972380772E+02  0.00000000000E+00 0.  1.
         11    1    4    4    0    0  0.17153129787E+02  0.23367596526E+02  0.11654919699E+02  0.31242784481E+02  0.00000000000E+00 0. -1.
</event>
<event>
 8    1  0.6760442E-009  0.1111868E+03  0.7561462E-02  0.1258388E+00
         -3   -1    0    0    0  501 -0.00000000000E+00  0.00000000000E+00  0.17411915503E+03  0.17411915503E+03  0.00000000000E+00 0.  1.
          3   -1    0    0  501    0  0.00000000000E+00 -0.00000000000E+00 -0.83276923607E+02  0.83276923607E+02  0.00000000000E+00 0. -1.
         25    2    1    2    0    0 -0.44304578424E+02 -0.26460579256E+02  0.39258097038E+02  0.14089787728E+03  0.12509178915E+03 0.  0.
         23    2    1    2    0    0  0.44304578424E+02  0.26460579256E+02  0.51584134388E+02  0.11649820137E+03  0.90817674915E+02 0.  0.
          5    1    3    3  502    0 -0.76799566813E+02 -0.34578243195E+02  0.57944161866E+02  0.10231728427E+03  0.41800000000E+01 0. -1.
         -5    1    3    3    0  502  0.32494988389E+02  0.81176639385E+01 -0.18686064828E+02  0.38580593010E+02  0.41800000000E+01 0. -1.
        -11    1    4    4    0    0 -0.28284665602E+02  0.69435370840E+01  0.11516016369E+02  0.31318583117E+02  0.00000000000E+00 0.  1.
         11    1    4    4    0    0  0.72589244026E+02  0.19517042172E+02  0.40068118019E+02  0.85179618249E+02  0.00000000000E+00 0. -1.
</event>
<event>
 8    1  0.6760442E-009  0.9825183E+02  0.7561462E-02  0.1284016E+00
          2   -1    0    0  501    0  0.00000000000E+00  0.00000000000E+00  0.11224795168E+03  0.11224795168E+03  0.00000000000E+00 0. -1.
         -2   -1    0    0    0  501 -0.00000000000E+00 -0.00000000000E+00 -0.11989623441E+03  0.11989623441E+03  0.00000000000E+00 0.  1.
         25    2    1    2    0    0  0.34391974121E+02  0.10671130122E+02 -0.10669282378E+02  0.13060496324E+03  0.12508853638E+03 0.  0.
         23    2    1    2    0    0 -0.34391974121E+02 -0.10671130122E+02  0.30209996499E+01  0.10153922284E+03  0.94891550915E+02 0.  0.
          5    1    3    3  502    0 -0.16719292681E+02 -0.39434344469E+02 -0.34387641859E+02  0.55087063673E+02  0.41800000000E+01 0.  1.
         -5    1    3    3    0  502  0.51111266802E+02  0.50105474592E+02  0.23718359480E+02  0.75517899564E+02  0.41800000000E+01 0.  1.
        -11    1    4    4    0    0  0.12088572014E+02  0.21899900054E+02 -0.27435294129E+02  0.37127275145E+02  0.00000000000E+00 0.  1.
         11    1    4    4    0    0 -0.46480546135E+02 -0.32571030176E+02  0.30456293779E+02  0.64411947700E+02  0.00000000000E+00 0. -1.
</event>
<event>
 8    1  0.6760442E-009  0.9068955E+02  0.7561462E-02  0.1301190E+00
         -1   -1    0    0    0  501 -0.00000000000E+00  0.00000000000E+00  0.65436909106E+02  0.65436909106E+02  0.00000000000E+00 0.  1.
          1   -1    0    0  501    0  0.00000000000E+00 -0.00000000000E+00 -0.18435500617E+03  0.18435500617E+03  0.00000000000E+00 0. -1.
         25    2    1    2    0    0  0.61711251836E+01 -0.18573597982E+02 -0.72286701521E+02  0.14579200479E+03  0.12508748984E+03 0.  0.
         23    2    1    2    0    0 -0.61711251836E+01  0.18573597982E+02 -0.46631395540E+02  0.10399991049E+03  0.90875920922E+02 0.  0.
          5    1    3    3  502    0  0.32230515349E+02  0.46284042296E+02 -0.33935094863E+02  0.65955149566E+02  0.41800000000E+01 0.  1.
         -5    1    3    3    0  502 -0.26059390165E+02 -0.64857640277E+02 -0.38351606658E+02  0.79836855220E+02  0.41800000000E+01 0.  1.
        -11    1    4    4    0    0  0.19400026540E+02  0.21622265283E+02  0.18173323771E+02  0.34265917215E+02  0.00000000000E+00 0.  1.
         11    1    4    4    0    0 -0.25571151723E+02 -0.30486673015E+01 -0.64804719311E+02  0.69733993272E+02  0.00000000000E+00 0. -1.
</event>
<event>
 8    1  0.6760442E-009  0.2831744E+03  0.7561462E-02  0.1093968E+00
         -2   -1    0    0    0  501 -0.00000000000E+00  0.00000000000E+00  0.37967563000E+03  0.37967563000E+03  0.00000000000E+00 0.  1.
          2   -1    0    0  501    0  0.00000000000E+00 -0.00000000000E+00 -0.23638715113E+03  0.23638715113E+03  0.00000000000E+00 0. -1.
         25    2    1    2    0    0  0.22898503385E+03  0.15916792576E+03  0.54827305773E+02  0.31052118406E+03  0.12509515567E+03 0.  0.
         23    2    1    2    0    0 -0.22898503385E+03 -0.15916792576E+03  0.88461173093E+02  0.30554159708E+03  0.88100590696E+02 0.  0.
          5    1    3    3  502    0  0.53925379416E+02  0.24939456359E+02  0.66878808665E+02  0.89555404511E+02  0.41800000000E+01 0. -1.
         -5    1    3    3    0  502  0.17505965444E+03  0.13422846940E+03 -0.12051502892E+02  0.22096577955E+03  0.41800000000E+01 0. -1.
        -11    1    4    4    0    0 -0.13256256858E+03 -0.53086008091E+02  0.12600243986E+02  0.14335175267E+03  0.00000000000E+00 0. -1.
         11    1    4    4    0    0 -0.96422465269E+02 -0.10608191767E+03  0.75860929107E+02  0.16218984441E+03  0.00000000000E+00 0.  1.
</event>
<event>
 8    1  0.6760442E-009  0.1232445E+03  0.7561462E-02  0.1237839E+00
         -2   -1    0    0    0  501 -0.00000000000E+00  0.00000000000E+00  0.27440866491E+02  0.27440866491E+02  0.00000000000E+00 0.  1.
          2   -1    0    0  501    0  0.00000000000E+00 -0.00000000000E+00 -0.60953752919E+03  0.60953752919E+03  0.00000000000E+00 0. -1.
         25    2    1    2    0    0 -0.50605963824E+02 -0.32092996277E+01 -0.28039185237E+03  0.31118611356E+03  0.12508374482E+03 0.  0.
         23    2    1    2    0    0  0.50605963824E+02  0.32092996277E+01 -0.30170481033E+03  0.32579228213E+03  0.11199801488E+03 0.  0.
          5    1    3    3  502    0  0.41014927853E+00 -0.59060081486E+02 -0.12401712919E+03  0.13742627907E+03  0.41800000000E+01 0. -1.
         -5    1    3    3    0  502 -0.51016113103E+02  0.55850781858E+02 -0.15637472318E+03  0.17375983448E+03  0.41800000000E+01 0. -1.
        -11    1    4    4    0    0 -0.24780577751E+02 -0.20853119007E+02 -0.35406293265E+02  0.47984739332E+02  0.00000000000E+00 0.  1.
         11    1    4    4    0    0  0.75386541575E+02  0.24062418635E+02 -0.26629851707E+03  0.27780754279E+03  0.00000000000E+00 0. -1.
</event>
<event>
 8    1  0.6760442E-009  0.1031361E+03  0.7561462E-02  0.1273836E+00
          1   -1    0    0  501    0  0.00000000000E+00  0.00000000000E+00  0.38756175677E+03  0.38756175677E+03  0.00000000000E+00 0. -1.
         -1   -1    0    0    0  501 -0.00000000000E+00 -0.00000000000E+00 -0.82557227906E+02  0.82557227906E+02  0.00000000000E+00 0.  1.
         25    2    1    2    0    0 -0.21316759116E+01  0.28760955925E+02  0.33570351410E+03  0.35941725192E+03  0.12510865266E+03 0.  0.
         23    2    1    2    0    0  0.21316759116E+01 -0.28760955925E+02 -0.30698985232E+02  0.11070173276E+03  0.10237533548E+03 0.  0.
          5    1    3    3  502    0 -0.12073327598E+02 -0.40222178849E+02  0.22209057732E+03  0.22606478241E+03  0.41800000000E+01 0. -1.
         -5    1    3    3    0  502  0.99416516863E+01  0.68983134774E+02  0.11361293678E+03  0.13335246951E+03  0.41800000000E+01 0. -1.
        -11    1    4    4    0    0 -0.93216637931E+01 -0.60132961935E+02  0.59222313970E+01  0.61138689483E+02  0.00000000000E+00 0.  1.
         11    1    4    4    0    0  0.11453339705E+02  0.31372006011E+02 -0.36621216629E+02  0.49563043277E+02  0.00000000000E+00 0. -1.
</event>
<event>
 8    1  0.6760442E-009  0.1021104E+03  0.7561462E-02  0.1275920E+00
         -2   -1    0    0    0  501 -0.00000000000E+00  0.00000000000E+00  0.39651854843E+02  0.39651854843E+02  0.00000000000E+00 0. -1.
          2   -1    0    0  501    0  0.00000000000E+00 -0.00000000000E+00 -0.51413937084E+03  0.51413937084E+03  0.00000000000E+00 0.  1.
         25    2    1    2    0    0 -0.78645577518E+02  0.32772060317E+02 -0.19005738872E+03  0.24295845584E+03  0.12509142839E+03 0.  0.
         23    2    1    2    0    0  0.78645577518E+02 -0.32772060317E+02 -0.28443012729E+03  0.31083276985E+03  0.91964007659E+02 0.  0.
          5    1    3    3  502    0 -0.56115126485E+02  0.34126032040E+02 -0.16443057089E+02  0.67833177794E+02  0.41800000000E+01 0. -1.
         -5    1    3    3    0  502 -0.22530451033E+02 -0.13539717224E+01 -0.17361433163E+03  0.17512527804E+03  0.41800000000E+01 0. -1.
        -11    1    4    4    0    0  0.87605906540E+02 -0.46408500847E+02 -0.27420538301E+03  0.29157698106E+03  0.00000000000E+00 0.  1.
         11    1    4    4    0    0 -0.89603290219E+01  0.13636440530E+02 -0.10224744276E+02  0.19255788792E+02  0.00000000000E+00 0. -1.
</event>
<event>
 8    1  0.6760442E-009  0.1336604E+03  0.7561462E-02  0.1222123E+00
          1   -1    0    0  501    0  0.00000000000E+00  0.00000000000E+00  0.12603017962E+03  0.12603017962E+03  0.00000000000E+00 0. -1.
         -1   -1    0    0    0  501 -0.00000000000E+00 -0.00000000000E+00 -0.24313650808E+03  0.24313650808E+03  0.00000000000E+00 0.  1.
         25    2    1    2    0    0  0.47581297984E+02  0.91328682426E+02  0.33483299414E+02  0.16545032339E+03  0.12509104691E+03 0.  0.
         23    2    1    2    0    0 -0.47581297984E+02 -0.91328682426E+02 -0.15058962788E+03  0.20371636431E+03  0.90654359584E+02 0.  0.
          5    1    3    3  502    0  0.39727804586E+02 -0.23688296732E+02  0.13563541844E+02  0.48382599420E+02  0.41800000000E+01 0.  1.
         -5    1    3    3    0  502  0.78534933980E+01  0.11501697916E+03  0.19919757570E+02  0.11706772397E+03  0.41800000000E+01 0.  1.
        -11    1    4    4    0    0 -0.24061778627E+02 -0.69047669445E+02 -0.15465037896E+03  0.17106516173E+03  0.00000000000E+00 0.  1.
         11    1    4    4    0    0 -0.23519519357E+02 -0.22281012980E+02  0.40607510833E+01  0.32651202575E+02  0.00000000000E+00 0. -1.
</event>
<event>
 8    1  0.6760442E-009  0.1159115E+03  0.7561462E-02  0.1249998E+00
          1   -1    0    0  501    0  0.00000000000E+00  0.00000000000E+00  0.22490523788E+03  0.22490523788E+03  0.00000000000E+00 0. -1.
         -1   -1    0    0    0  501 -0.00000000000E+00 -0.00000000000E+00 -0.72426154043E+02  0.72426154043E+02  0.00000000000E+00 0.  1.
         25    2    1    2    0    0 -0.46543232035E+02 -0.19415033495E+02  0.34053502080E+02  0.13911569184E+03  0.12510123396E+03 0.  0.
         23    2    1    2    0    0  0.46543232035E+02  0.19415033495E+02  0.11842558175E+03  0.15821570008E+03  0.92002029130E+02 0.  0.
          5    1    3    3  502    0 -0.10676072307E+02  0.50924493513E+02  0.29406356601E+02  0.59912342368E+02  0.41800000000E+01 0.  1.
         -5    1    3    3    0  502 -0.35867159728E+02 -0.70339527008E+02  0.46471454798E+01  0.79203349473E+02  0.41800000000E+01 0.  1.
        -11    1    4    4    0    0  0.37656375831E+02  0.53448881884E+02  0.53939271734E+02  0.84759841025E+02  0.00000000000E+00 0.  1.
         11    1    4    4    0    0  0.88868562045E+01 -0.34033848390E+02  0.64486310021E+02  0.73455859055E+02  0.00000000000E+00 0. -1.
</event>
<event>
 8    1  0.6760442E-009  0.1159716E+03  0.7561462E-02  0.1249895E+00
          1   -1    0    0  501    0  0.00000000000E+00  0.00000000000E+00  0.26977273572E+03  0.26977273572E+03  0.00000000000E+00 0. -1.
         -1   -1    0    0    0  501 -0.00000000000E+00 -0.00000000000E+00 -0.54619783989E+02  0.54619783989E+02  0.00000000000E+00 0.  1.
         25    2    1    2    0    0 -0.60932826386E+01  0.54947799784E+02  0.11193122905E+03  0.17672333098E+03  0.12508455892E+03 0.  0.
         23    2    1    2    0    0  0.60932826386E+01 -0.54947799784E+02  0.10322172268E+03  0.14766918873E+03  0.89972642909E+02 0.  0.
          5    1    3    3  502    0 -0.62250733849E+02  0.28108233931E+02  0.84077878363E+02  0.10840566733E+03  0.41800000000E+01 0. -1.
         -5    1    3    3    0  502  0.56157451211E+02  0.26839565853E+02  0.27853350684E+02  0.68317663646E+02  0.41800000000E+01 0. -1.
        -11    1    4    4    0    0 -0.34012193438E+02 -0.11529307902E+01  0.56317449509E+02  0.65801319676E+02  0.00000000000E+00 0.  1.
         11    1    4    4    0    0  0.40105476077E+02 -0.53794868994E+02  0.46904273170E+02  0.81867869052E+02  0.00000000000E+00 0. -1.
</event>
<event>
 8    1  0.6760442E-009  0.1180575E+03  0.7561462E-02  0.1246336E+00
          1   -1    0    0  501    0  0.00000000000E+00  0.00000000000E+00  0.40109781905E+03  0.40109781905E+03  0.00000000000E+00 0. -1.
         -1   -1    0    0    0  501 -0.00000000000E+00 -0.00000000000E+00 -0.47224738042E+02  0.47224738042E+02  0.00000000000E+00 0.  1.
         25    2    1    2    0    0  0.36145638122E+02  0.76384428611E+02  0.19252507434E+03  0.24465145769E+03  0.12508934171E+03 0.  0.
         23    2    1    2    0    0 -0.36145638122E+02 -0.76384428611E+02  0.16134800666E+03  0.20367109940E+03  0.91146307589E+02 0.  0.
          5    1    3    3  502    0 -0.45063320580E+02  0.27103228799E+02  0.46069103401E+02  0.70036580165E+02  0.41800000000E+01 0.  1.
         -5    1    3    3    0  502  0.81208958702E+02  0.49281199813E+02  0.14645597094E+03  0.17461487752E+03  0.41800000000E+01 0.  1.
        -11    1    4    4    0    0 -0.76222555640E+01 -0.45909725758E+02  0.11251815898E+02  0.47879067034E+02  0.00000000000E+00 0.  1.
         11    1    4    4    0    0 -0.28523382558E+02 -0.30474702854E+02  0.15009619076E+03  0.15579203236E+03  0.00000000000E+00 0. -1.
</event>
<event>
 8    1  0.6760442E-009  0.3105797E+03  0.7561462E-02  0.1080068E+00
         -2   -1    0    0    0  501 -0.00000000000E+00  0.00000000000E+00  0.50591525569E+02  0.50591525569E+02  0.00000000000E+00 0.  1.
          2   -1    0    0  501    0  0.00000000000E+00 -0.00000000000E+00 -0.23651506392E+04  0.23651506392E+04  0.00000000000E+00 0. -1.
         25    2    1    2    0    0 -0.25023731561E+03 -0.15465367971E+03 -0.66868050660E+03  0.74116018750E+03  0.12509328058E+03 0.  0.
         23    2    1    2    0    0  0.25023731561E+03  0.15465367971E+03 -0.16458786071E+04  0.16745819773E+04  0.93658607559E+02 0.  0.
          5    1    3    3  502    0 -0.14891492770E+03 -0.15151888400E+03 -0.51382937410E+03  0.55603212676E+03  0.41800000000E+01 0.  1.
         -5    1    3    3    0  502 -0.10132238790E+03 -0.31347957132E+01 -0.15485113251E+03  0.18512806074E+03  0.41800000000E+01 0.  1.
        -11    1    4    4    0    0  0.90886656065E+02  0.10804338661E+03 -0.67470980797E+03  0.68932364141E+03  0.00000000000E+00 0. -1.
         11    1    4    4    0    0  0.15935065954E+03  0.46610293100E+02 -0.97116879909E+03  0.98525833589E+03  0.00000000000E+00 0.  1.
</event>
<event>
 8    1  0.6760442E-009  0.1175220E+03  0.7561462E-02  0.1247242E+00
         -1   -1    0    0    0  501 -0.00000000000E+00  0.00000000000E+00  0.19575962162E+02  0.19575962162E+02  0.00000000000E+00 0.  1.
          1   -1    0    0  501    0  0.00000000000E+00 -0.00000000000E+00 -0.85917291745E+03  0.85917291745E+03  0.00000000000E+00 0. -1.
         25    2    1    2    0    0 -0.15476742054E+02 -0.56161326248E+02 -0.62556479697E+03  0.64060265164E+03  0.12508724145E+03 0.  0.
         23    2    1    2    0    0  0.15476742054E+02  0.56161326248E+02 -0.21403215832E+03  0.23814622797E+03  0.86661623522E+02 0.  0.
          5    1    3    3  502    0 -0.59221092720E+00  0.39447950551E+02 -0.22688009966E+03  0.23032269436E+03  0.41800000000E+01 0.  1.
         -5    1    3    3    0  502 -0.14884531127E+02 -0.95609276799E+02 -0.39868469731E+03  0.41027995728E+03  0.41800000000E+01 0.  1.
        -11    1    4    4    0    0  0.32064973044E+02  0.69949886786E+02 -0.19401998559E+03  0.20872207350E+03  0.00000000000E+00 0. -1.
         11    1    4    4    0    0 -0.16588230990E+02 -0.13788560538E+02 -0.20012172735E+02  0.29424154476E+02  0.00000000000E+00 0.  1.
</event>
<event>
 8    1  0.6760442E-009  0.9432830E+02  0.7561462E-02  0.1292696E+00
         -2   -1    0    0    0  501 -0.00000000000E+00  0.00000000000E+00  0.53144288554E+02  0.53144288554E+02  0.00000000000E+00 0. -1.
          2   -1    0    0  501    0  0.00000000000E+00 -0.00000000000E+00 -0.23700796406E+03  0.23700796406E+03  0.00000000000E+00 0.  1.
         25    2    1    2    0    0  0.13438195923E+02 -0.15323939213E+01 -0.12109140911E+03  0.17462442326E+03  0.12509047325E+03 0.  0.
         23    2    1    2    0    0 -0.13438195923E+02  0.15323939213E+01 -0.62772266390E+02  0.11552782935E+03  0.96038474506E+02 0.  0.
          5    1    3    3  502    0 -0.35701194014E+02 -0.18143381716E+02 -0.11546246675E+03  0.12228168784E+03  0.41800000000E+01 0. -1.
         -5    1    3    3    0  502  0.49139389938E+02  0.16610987794E+02 -0.56289423637E+01  0.52342735418E+02  0.41800000000E+01 0. -1.
        -11    1    4    4    0    0 -0.24775911134E+02 -0.43420744798E+02 -0.39139222072E+02  0.63490830485E+02  0.00000000000E+00 0. -1.
         11    1    4    4    0    0  0.11337715210E+02  0.44953138719E+02 -0.23633044318E+02  0.52036998863E+02  0.00000000000E+00 0.  1.
</event>
<event>
 8    1  0.6760442E-009  0.1971346E+03  0.7561462E-02  0.1152179E+00
         -2   -1    0    0    0  501 -0.00000000000E+00  0.00000000000E+00  0.19317594508E+02  0.19317594508E+02  0.00000000000E+00 0.  1.
          2   -1    0    0  501    0  0.00000000000E+00 -0.00000000000E+00 -0.25789749622E+04  0.25789749622E+04  0.00000000000E+00 0. -1.
         25    2    1    2    0    0  0.17194706634E+03  0.66656590143E+02 -0.16900185245E+04  0.17046463320E+04  0.12509040482E+03 0.  0.
         23    2    1    2    0    0 -0.17194706634E+03 -0.66656590143E+02 -0.86963884321E+03  0.89364622474E+03  0.91230273122E+02 0.  0.
          5    1    3    3  502    0 -0.38962627825E+01  0.53368448482E+01 -0.50634296261E+03  0.50640332834E+03  0.41800000000E+01 0. -1.
         -5    1    3    3    0  502  0.17584332913E+03  0.61319745295E+02 -0.11836755619E+04  0.11982430037E+04  0.41800000000E+01 0. -1.
        -11    1    4    4    0    0 -0.82342969837E+02 -0.73412641277E+02 -0.57965476951E+03  0.59005883808E+03  0.00000000000E+00 0.  1.
         11    1    4    4    0    0 -0.89604096506E+02  0.67560511344E+01 -0.28998407370E+03  0.30358738666E+03  0.00000000000E+00 0. -1.
</event>
<event>
 8    1  0.6760442E-009  0.1299544E+03  0.7561462E-02  0.1227523E+00
         -2   -1    0    0    0  501 -0.00000000000E+00  0.00000000000E+00  0.50290207802E+02  0.50290207802E+02  0.00000000000E+00 0. -1.
          2   -1    0    0  501    0  0.00000000000E+00 -0.00000000000E+00 -0.42364350840E+03  0.42364350840E+03  0.00000000000E+00 0.  1.
         25    2    1    2    0    0 -0.80639107845E+02 -0.42960318290E+02 -0.14889993582E+03  0.21486472348E+03  0.12508958330E+03 0.  0.
         23    2    1    2    0    0  0.80639107845E+02  0.42960318290E+02 -0.22445336478E+03  0.25906899272E+03  0.91592441632E+02 0.  0.
          5    1    3    3  502    0 -0.88832540289E+02 -0.74575629516E+02 -0.88062901566E+02  0.14568902417E+03  0.41800000000E+01 0. -1.
         -5    1    3    3    0  502  0.81934324440E+01  0.31615311226E+02 -0.60837034249E+02  0.69175699313E+02  0.41800000000E+01 0. -1.
        -11    1    4    4    0    0  0.57764689166E+02  0.59320115627E+02 -0.21331536545E+03  0.22882106671E+03  0.00000000000E+00 0.  1.
         11    1    4    4    0    0  0.22874418679E+02 -0.16359797337E+02 -0.11137999335E+02  0.30247926012E+02  0.00000000000E+00 0. -1.
</event>
<event>
 8    1  0.6760442E-009  0.1055758E+03  0.7561462E-02  0.1268989E+00
         -1   -1    0    0    0  501 -0.00000000000E+00  0.00000000000E+00  0.51734748696E+03  0.51734748696E+03  0.00000000000E+00 0.  1.
          1   -1    0    0  501    0  0.00000000000E+00 -0.00000000000E+00 -0.23490380220E+02  0.23490380220E+02  0.00000000000E+00 0. -1.
         25    2    1    2    0    0 -0.14810667289E+01  0.37156891133E+02  0.30632944141E+03  0.33297297563E+03  0.12510174941E+03 0.  0.
         23    2    1    2    0    0  0.14810667289E+01 -0.37156891133E+02  0.18752766532E+03  0.20786489154E+03  0.81598773023E+02 0.  0.
          5    1    3    3  502    0  0.18130613319E+02 -0.40545445884E+02  0.66528262565E+02  0.80100776783E+02  0.41800000000E+01 0.  1.
         -5    1    3    3    0  502 -0.19611680048E+02  0.77702337018E+02  0.23980117885E+03  0.25287219885E+03  0.41800000000E+01 0.  1.
        -11    1    4    4    0    0 -0.15700567283E+02  0.20675936393E+02  0.33073480923E+02  0.42045895151E+02  0.00000000000E+00 0. -1.
         11    1    4    4    0    0  0.17181634012E+02 -0.57832827526E+02  0.15445418440E+03  0.16581899639E+03  0.00000000000E+00 0.  1.
</event>
<event>
 8    1  0.6760442E-009  0.6575782E+02  0.7561462E-02  0.1375143E+00
         -2   -1    0    0    0  501 -0.00000000000E+00  0.00000000000E+00  0.66696569053E+02  0.66696569053E+02  0.00000000000E+00 0.  1.
          2   -1    0    0  501    0  0.00000000000E+00 -0.00000000000E+00 -0.17972913983E+03  0.17972913983E+03  0.00000000000E+00 0. -1.
         25    2    1    2    0    0 -0.13691398379E+02 -0.81571728390E+01 -0.66922661192E+02  0.14276055463E+03  0.12509172443E+03 0.  0.
         23    2    1    2    0    0  0.13691398379E+02  0.81571728390E+01 -0.46109909581E+02  0.10366515425E+03  0.91467735213E+02 0.  0.
          5    1    3    3  502    0 -0.39045675198E+02 -0.29988024751E+02 -0.89464303684E+02  0.10220166542E+03  0.41800000000E+01 0.  1.
         -5    1    3    3    0  502  0.25354276818E+02  0.21830851912E+02  0.22541642492E+02  0.40558889216E+02  0.41800000000E+01 0.  1.
        -11    1    4    4    0    0  0.11189220622E+01 -0.18700169722E+02 -0.65571389202E+02  0.68194980872E+02  0.00000000000E+00 0. -1.
         11    1    4    4    0    0  0.12572476317E+02  0.26857342561E+02  0.19461479621E+02  0.35470173374E+02  0.00000000000E+00 0.  1.
</event>
<event>
 8    1  0.6760442E-009  0.1204589E+03  0.7561462E-02  0.1242342E+00
          2   -1    0    0  501    0  0.00000000000E+00  0.00000000000E+00  0.13116820674E+03  0.13116820674E+03  0.00000000000E+00 0.  1.
         -2   -1    0    0    0  501 -0.00000000000E+00 -0.00000000000E+00 -0.17731139624E+03  0.17731139624E+03  0.00000000000E+00 0. -1.
         25    2    1    2    0    0 -0.26330576164E+02  0.69102604250E+02  0.52968637531E+02  0.15467098565E+03  0.12509583560E+03 0.  0.
         23    2    1    2    0    0  0.26330576164E+02 -0.69102604250E+02 -0.99111827024E+02  0.15380861733E+03  0.91462928844E+02 0.  0.
          5    1    3    3  502    0 -0.61401613545E+02  0.14951967279E+02 -0.10354465837E+02  0.64174814641E+02  0.41800000000E+01 0. -1.
         -5    1    3    3    0  502  0.35071037381E+02  0.54150636972E+02  0.63323103368E+02  0.90496171011E+02  0.41800000000E+01 0. -1.
        -11    1    4    4    0    0  0.57796652778E+02 -0.46715890427E+02 -0.84472879440E+02  0.11250997668E+03  0.00000000000E+00 0. -1.
         11    1    4    4    0    0 -0.31466076613E+02 -0.22386713824E+02 -0.14638947583E+02  0.41298640651E+02  0.00000000000E+00 0.  1.
</event>
<event>
 8    1  0.6760442E-009  0.1253756E+03  0.7561462E-02  0.1234483E+00
         -2   -1    0    0    0  501 -0.00000000000E+00  0.00000000000E+00  0.62657347655E+02  0.62657347655E+02  0.00000000000E+00 0.  1.
          2   -1    0    0  501    0  0.00000000000E+00 -0.00000000000E+00 -0.26045587126E+03  0.26045587126E+03  0.00000000000E+00 0. -1.
         25    2    1    2    0    0 -0.36832016737E+02  0.49981158496E+02 -0.87940393878E+02  0.16503738210E+03  0.12509640663E+03 0.  0.
         23    2    1    2    0    0  0.36832016737E+02 -0.49981158496E+02 -0.10985812973E+03  0.15807583682E+03  0.95207393925E+02 0.  0.
          5    1    3    3  502    0  0.46361493770E+02  0.13486258212E+02 -0.25918932986E+02  0.54959355457E+02  0.41800000000E+01 0. -1.
         -5    1    3    3    0  502 -0.83193510507E+02  0.36494900285E+02 -0.62021460892E+02  0.11007802664E+03  0.41800000000E+01 0. -1.
        -11    1    4    4    0    0 -0.29428911734E+02 -0.30262634395E+02 -0.26757776074E+02  0.49978660114E+02  0.00000000000E+00 0. -1.
         11    1    4    4    0    0  0.66260928471E+02 -0.19718524101E+02 -0.83100353656E+02  0.10809717671E+03  0.00000000000E+00 0.  1.
</event>
<event>
 8    1  0.6760442E-009  0.8328276E+02  0.7561462E-02  0.1319985E+00
         -1   -1    0    0    0  501 -0.00000000000E+00  0.00000000000E+00  0.20228346621E+03  0.20228346621E+03  0.00000000000E+00 0.  1.
          1   -1    0    0  501    0  0.00000000000E+00 -0.00000000000E+00 -0.13355436043E+03  0.13355436043E+03  0.00000000000E+00 0. -1.
         25    2    1    2    0    0  0.47763206309E+01 -0.19694583645E+02  0.16128834047E+03  0.20510505891E+03  0.12507384440E+03 0.  0.
         23    2    1    2    0    0 -0.47763206309E+01  0.19694583645E+02 -0.92559234694E+02  0.13073276773E+03  0.90073052390E+02 0.  0.
          5    1    3    3  502    0  0.26062305421E+02 -0.48648728222E+02  0.15955776529E+03  0.16888485837E+03  0.41800000000E+01 0. -1.
         -5    1    3    3    0  502 -0.21285984790E+02  0.28954144576E+02  0.17305751800E+01  0.36220200539E+02  0.41800000000E+01 0. -1.
        -11    1    4    4    0    0  0.26703321543E+02  0.31609873269E+02 -0.11476698623E+02  0.42941426161E+02  0.00000000000E+00 0. -1.
         11    1    4    4    0    0 -0.31479642174E+02 -0.11915289623E+02 -0.81082536072E+02  0.87791341566E+02  0.00000000000E+00 0.  1.
</event>
<event>
 8    1  0.6760442E-009  0.1131125E+03  0.7561462E-02  0.1254912E+00
          1   -1    0    0  501    0  0.00000000000E+00  0.00000000000E+00  0.81958534974E+03  0.81958534974E+03  0.00000000000E+00 0. -1.
         -1   -1    0    0    0  501 -0.00000000000E+00 -0.00000000000E+00 -0.26312204897E+02  0.26312204897E+02  0.00000000000E+00 0.  1.
         25    2    1    2    0    0  0.54278159801E+02 -0.16639367690E+02  0.66007273092E+03  0.67421610704E+03  0.12509341190E+03 0.  0.
         23    2    1    2    0    0 -0.54278159801E+02  0.16639367690E+02  0.13320041392E+03  0.17168144760E+03  0.92245227470E+02 0.  0.
          5    1    3    3  502    0 -0.14507791770E+02 -0.50854568823E+02  0.16834279268E+03  0.17650334682E+03  0.41800000000E+01 0. -1.
         -5    1    3    3    0  502  0.68785951572E+02  0.34215201133E+02  0.49172993824E+03  0.49771276022E+03  0.41800000000E+01 0. -1.
        -11    1    4    4    0    0 -0.27233557530E+02 -0.31119139029E+02  0.20125024929E+02  0.45990043466E+02  0.00000000000E+00 0.  1.
         11    1    4    4    0    0 -0.27044602272E+02  0.47758506718E+02  0.11307538899E+03  0.12569140413E+03  0.00000000000E+00 0. -1.
</event>
