<event>
 7    1  0.2728221E-009  0.1341671E+03  0.7561462E-02  0.1221400E+00
         -2   -1    0    0    0  501 -0.00000000000E+00  0.00000000000E+00  0.23617644151E+02  0.23617644151E+02  0.00000000000E+00 0.  1.
          2   -1    0    0  501    0  0.00000000000E+00 -0.00000000000E+00 -0.96762867361E+03  0.96762867361E+03  0.00000000000E+00 0. -1.
         25    2    1    2    0    0  0.35366791588E+02 -0.71365123870E+02 -0.73556290425E+03  0.75036391022E+03  0.12509764506E+03 0.  0.
          5    1    3    3  502    0  0.29066148979E+02  0.32360213709E+02 -0.18796881460E+03  0.19298127398E+03  0.41800000000E+01 0. -1.
         -5    1    3    3    0  502  0.63006426089E+01 -0.10372533758E+03 -0.54759408965E+03  0.55738263623E+03  0.41800000000E+01 0. -1.
        -11    1    1    2    0    0 -0.32427441259E+02  0.93160601098E+02 -0.16684326066E+03  0.19382236757E+03  0.00000000000E+00 0.  1.
         11    1    1    2    0    0 -0.29393503288E+01 -0.21795477228E+02 -0.41604864556E+02  0.47060039977E+02  0.00000000000E+00 0. -1.
</event>
<event>
 7    1  0.2728221E-009  0.9678308E+02  0.7561462E-02  0.1287210E+00
         -1   -1    0    0    0  501 -0.00000000000E+00  0.00000000000E+00  0.41932760411E+02  0.41932760411E+02  0.00000000000E+00 0.  1.
          1   -1    0    0  501    0  0.00000000000E+00 -0.00000000000E+00 -0.30924446503E+03  0.30924446503E+03  0.00000000000E+00 0. -1.
         25    2    1    2    0    0 -0.15682257686E+02 -0.28130498587E+02 -0.12909988387E+03  0.18262377485E+03  0.12508958777E+03 0.  0.
          5    1    3    3  502    0 -0.22965618338E+02 -0.76123618383E+02 -0.69890625474E+02  0.10594525393E+03  0.41800000000E+01 0.  1.
         -5    1    3    3    0  502  0.72833606525E+01  0.47993119796E+02 -0.59209258398E+02  0.76678520918E+02  0.41800000000E+01 0.  1.
        -11    1    1    2    0    0  0.27590732671E+02 -0.67161618168E+01 -0.31608363682E+01  0.28571773578E+02  0.00000000000E+00 0.  1.
         11    1    1    2    0    0 -0.11908474985E+02  0.34846660404E+02 -0.13505098438E+03  0.13998167702E+03  0.00000000000E+00 0. -1.
</event>
<event>
 7    1  0.2728221E-009  0.1060892E+03  0.7561462E-02  0.1267988E+00
         -1   -1    0    0    0  501 -0.00000000000E+00  0.00000000000E+00  0.73079046207E+03  0.73079046207E+03  0.00000000000E+00 0.  1.
          1   -1    0    0  501    0  0.00000000000E+00 -0.00000000000E+00 -0.17084473183E+02  0.17084473183E+02  0.00000000000E+00 0. -1.
         25    2    1    2    0    0 -0.19050664076E+02  0.70110564667E+01  0.46856366855E+03  0.48539863279E+03  0.12509132068E+03 0.  0.
          5    1    3    3  502    0  0.11990550291E+02 -0.51415125400E+02  0.12942034093E+03  0.13983699605E+03  0.41800000000E+01 0.  1.
         -5    1    3    3    0  502 -0.31041214367E+02  0.58426181866E+02  0.33914332762E+03  0.34556163674E+03  0.41800000000E+01 0.  1.
        -11    1    1    2    0    0 -0.21329725262E+02 -0.36945448659E+02  0.94881802298E+02  0.10403114805E+03  0.00000000000E+00 0. -1.
         11    1    1    2    0    0  0.40380389339E+02  0.29934392193E+02  0.15026051804E+03  0.15844515442E+03  0.00000000000E+00 0.  1.
</event>
<event>
 7    1  0.2728221E-009  0.1070683E+03  0.7561462E-02  0.1266097E+00
          1   -1    0    0  501    0  0.00000000000E+00  0.00000000000E+00  0.90957945565E+02  0.90957945565E+02  0.00000000000E+00 0. -1.
         -1   -1    0    0    0  501 -0.00000000000E+00 -0.00000000000E+00 -0.22552089341E+03  0.22552089341E+03  0.00000000000E+00 0.  1.
         25    2    1    2    0    0  0.57314424503E+02  0.68077754186E+02 -0.10717326866E+03  0.18722342863E+03  0.12508788447E+03 0.  0.
          5    1    3    3  502    0 -0.59118276694E+00  0.20816101560E+02  0.26532545116E+02  0.33986878814E+02  0.41800000000E+01 0. -1.
         -5    1    3    3    0  502  0.57905607270E+02  0.47261652626E+02 -0.13370581378E+03  0.15323654982E+03  0.41800000000E+01 0. -1.
        -11    1    1    2    0    0 -0.81858953498E+01  0.17521756949E+02 -0.23565646623E+02  0.30485415366E+02  0.00000000000E+00 0.  1.
         11    1    1    2    0    0 -0.49128529153E+02 -0.85599511135E+02 -0.38240325632E+01  0.98769994980E+02  0.00000000000E+00 0. -1.
</event>
<event>
 7    1  0.2728221E-009  0.1564981E+03  0.7561462E-02  0.1192708E+00
          1   -1    0    0  501    0  0.00000000000E+00  0.00000000000E+00  0.25145792260E+03  0.25145792260E+03  0.00000000000E+00 0. -1.
         -1   -1    0    0    0  501 -0.00000000000E+00 -0.00000000000E+00 -0.17904049896E+03  0.17904049896E+03  0.00000000000E+00 0.  1.
         25    2    1    2    0    0 -0.13733033842E+03 -0.65235047345E+02 -0.62682984461E+02  0.20662131870E+03  0.12509188441E+03 0.  0.
          5    1    3    3  502    0 -0.27428800542E+02  0.76973052146E+01 -0.68729520173E+02  0.74517158762E+02  0.41800000000E+01 0. -1.
         -5    1    3    3    0  502 -0.10990153788E+03 -0.72932352559E+02  0.60465357124E+01  0.13210415994E+03  0.41800000000E+01 0. -1.
        -11    1    1    2    0    0  0.49288485057E+02  0.27586050977E+02  0.11190803650E+03  0.12535451169E+03  0.00000000000E+00 0. -1.
         11    1    1    2    0    0  0.88041853364E+02  0.37648996368E+02  0.23192371602E+02  0.98522591175E+02  0.00000000000E+00 0.  1.
</event>
<event>
 7    1  0.2728221E-009  0.9788315E+02  0.7561462E-02  0.1284811E+00
         -2   -1    0    0    0  501 -0.00000000000E+00  0.00000000000E+00  0.20041871719E+02  0.20041871719E+02  0.00000000000E+00 0.  1.
          2   -1    0    0  501    0  0.00000000000E+00 -0.00000000000E+00 -0.86262372982E+03  0.86262372982E+03  0.00000000000E+00 0. -1.
         25    2    1    2    0    0  0.47287723007E+02 -0.21549306504E+02 -0.29287314638E+03  0.32268071381E+03  0.12509061449E+03 0.  0.
          5    1    3    3  502    0 -0.10607326224E+02 -0.28761773286E+02 -0.81266131424E+01  0.31988579420E+02  0.41800000000E+01 0.  1.
         -5    1    3    3    0  502  0.57895049231E+02  0.72124667823E+01 -0.28474653324E+03  0.29069213439E+03  0.41800000000E+01 0.  1.
        -11    1    1    2    0    0  0.16593979031E+02  0.37052904952E+02 -0.23543021670E+03  0.23890513775E+03  0.00000000000E+00 0. -1.
         11    1    1    2    0    0 -0.63881702038E+02 -0.15503598448E+02 -0.31427849502E+03  0.32107974999E+03  0.00000000000E+00 0.  1.
</event>
<event>
 7    1  0.2728221E-009  0.7275060E+02  0.7561462E-02  0.1350982E+00
         -2   -1    0    0    0  501 -0.00000000000E+00  0.00000000000E+00  0.22362409808E+02  0.22362409808E+02  0.00000000000E+00 0.  1.
          2   -1    0    0  501    0  0.00000000000E+00 -0.00000000000E+00 -0.55473842677E+03  0.55473842677E+03  0.00000000000E+00 0. -1.
         25    2    1    2    0    0 -0.98313096929E+01  0.31246492369E+02 -0.29916049550E+03  0.32591039950E+03  0.12509032136E+03 0.  0.
          5    1    3    3  502    0  0.11070760986E+02 -0.64304829018E+01 -0.27691114517E+03  0.27723846699E+03  0.41800000000E+01 0.  1.
         -5    1    3    3    0  502 -0.20902070679E+02  0.37676975270E+02 -0.22249350330E+02  0.48671932510E+02  0.41800000000E+01 0.  1.
        -11    1    1    2    0    0 -0.73328708130E+01 -0.57178372065E+02 -0.11095082494E+03  0.12503288680E+03  0.00000000000E+00 0.  1.
         11    1    1    2    0    0  0.17164180506E+02  0.25931879696E+02 -0.12226469652E+03  0.12615755028E+03  0.00000000000E+00 0. -1.
</event>
<event>
 7    1  0.2728221E-009  0.1357994E+03  0.7561462E-02  0.1219096E+00
         -1   -1    0    0    0  501 -0.00000000000E+00  0.00000000000E+00  0.26531437357E+02  0.26531437357E+02  0.00000000000E+00 0.  1.
          1   -1    0    0  501    0  0.00000000000E+00 -0.00000000000E+00 -0.74005657253E+03  0.74005657253E+03  0.00000000000E+00 0. -1.
         25    2    1    2    0    0  0.58778229862E+02  0.67907674334E+02 -0.40035790310E+03  0.42894768342E+03  0.12507330648E+03 0.  0.
          5    1    3    3  502    0  0.95281946235E+02  0.44896358253E+02 -0.32877007349E+03  0.34525579776E+03  0.41800000000E+01 0. -1.
         -5    1    3    3    0  502 -0.36503716373E+02  0.23011316081E+02 -0.71587829607E+02  0.83691885656E+02  0.41800000000E+01 0. -1.
        -11    1    1    2    0    0 -0.80238830852E+02 -0.59007067776E+02 -0.27965778574E+03  0.29686458386E+03  0.00000000000E+00 0.  1.
         11    1    1    2    0    0  0.21460600990E+02 -0.89006065581E+01 -0.33509446330E+02  0.40775742608E+02  0.00000000000E+00 0. -1.
</event>
<event>
 7    1  0.2728221E-009  0.1084499E+03  0.7561462E-02  0.1263468E+00
         -2   -1    0    0    0  501 -0.00000000000E+00  0.00000000000E+00  0.99114970858E+02  0.99114970858E+02  0.00000000000E+00 0.  1.
          2   -1    0    0  501    0  0.00000000000E+00 -0.00000000000E+00 -0.12069811213E+03  0.12069811213E+03  0.00000000000E+00 0. -1.
         25    2    1    2    0    0  0.18258079900E+02  0.16334128700E+02 -0.14852233576E+02  0.12832677038E+03  0.12508800867E+03 0.  0.
          5    1    3    3  502    0  0.15922893708E+01  0.70262312568E+02 -0.28095865865E+01  0.70460585646E+02  0.41800000000E+01 0.  1.
         -5    1    3    3    0  502  0.16665790529E+02 -0.53928183868E+02 -0.12042646990E+02  0.57866184735E+02  0.41800000000E+01 0.  1.
        -11    1    1    2    0    0  0.16773064829E+02  0.28457227566E+02  0.50471985413E+01  0.33415920122E+02  0.00000000000E+00 0.  1.
         11    1    1    2    0    0 -0.35031144729E+02 -0.44791356266E+02 -0.11778106240E+02  0.58070392489E+02  0.00000000000E+00 0. -1.
</event>
<event>
 7    1  0.2728221E-009  0.9176872E+02  0.7561462E-02  0.1298624E+00
          2   -1    0    0  501    0  0.00000000000E+00  0.00000000000E+00  0.58672688936E+03  0.58672688936E+03  0.00000000000E+00 0. -1.
         -2   -1    0    0    0  501 -0.00000000000E+00 -0.00000000000E+00 -0.22882149039E+02  0.22882149039E+02  0.00000000000E+00 0.  1.
         25    2    1    2    0    0  0.34054635838E+02 -0.13399275703E+02  0.35119063677E+03  0.37459523224E+03  0.12508983111E+03 0.  0.
          5    1    3    3  502    0 -0.13379446262E+02  0.27874154878E+02  0.27011124246E+03  0.27190721542E+03  0.41800000000E+01 0. -1.
         -5    1    3    3    0  502  0.47434082101E+02 -0.41273430581E+02  0.81079394311E+02  0.10268801682E+03  0.41800000000E+01 0. -1.
        -11    1    1    2    0    0 -0.49381011710E+00  0.43941204531E+02  0.52036860413E+02  0.68109530506E+02  0.00000000000E+00 0.  1.
         11    1    1    2    0    0 -0.33560825721E+02 -0.30541928827E+02  0.16061724314E+03  0.16690427566E+03  0.00000000000E+00 0. -1.
</event>
<event>
 7    1  0.2728221E-009  0.1391908E+03  0.7561462E-02  0.1214422E+00
         -2   -1    0    0    0  501 -0.00000000000E+00  0.00000000000E+00  0.69208766393E+02  0.69208766393E+02  0.00000000000E+00 0.  1.
          2   -1    0    0  501    0  0.00000000000E+00 -0.00000000000E+00 -0.56802029196E+03  0.56802029196E+03  0.00000000000E+00 0. -1.
         25    2    1    2    0    0  0.62807931323E+02 -0.10815308675E+03 -0.86005221244E+02  0.19669809791E+03  0.12510522463E+03 0.  0.
          5    1    3    3  502    0 -0.12419292366E+02  0.20193184109E+01 -0.59065468750E+02  0.60535266319E+02  0.41800000000E+01 0. -1.
         -5    1    3    3    0  502  0.75227223689E+02 -0.11017240516E+03 -0.26939752494E+02  0.13616283159E+03  0.41800000000E+01 0. -1.
        -11    1    1    2    0    0 -0.58010222190E+02  0.60720352524E+02 -0.13741564591E+03  0.16104411455E+03  0.00000000000E+00 0.  1.
         11    1    1    2    0    0 -0.47977091334E+01  0.47432734223E+02 -0.27539065841E+03  0.27948684589E+03  0.00000000000E+00 0. -1.
</event>
<event>
 7    1  0.2728221E-009  0.1221939E+03  0.7561462E-02  0.1239521E+00
          1   -1    0    0  501    0  0.00000000000E+00  0.00000000000E+00  0.52781120873E+03  0.52781120873E+03  0.00000000000E+00 0. -1.
         -1   -1    0    0    0  501 -0.00000000000E+00 -0.00000000000E+00 -0.46181158221E+02  0.46181158221E+02  0.00000000000E+00 0.  1.
         25    2    1    2    0    0 -0.47714542700E+02  0.99029653454E+02  0.26950807426E+03  0.31680581218E+03  0.12509104961E+03 0.  0.
          5    1    3    3  502    0  0.13336526514E+02  0.23633853113E+02 -0.28981964244E+01  0.27609670316E+02  0.41800000000E+01 0. -1.
         -5    1    3    3    0  502 -0.61051069214E+02  0.75395800341E+02  0.27240627068E+03  0.28919614186E+03  0.41800000000E+01 0. -1.
        -11    1    1    2    0    0  0.41481091876E+02 -0.31695344275E+02  0.24339393723E+02  0.57599322208E+02  0.00000000000E+00 0.  1.
         11    1    1    2    0    0  0.62334508233E+01 -0.67334309179E+02  0.18778258253E+03  0.19958723256E+03  0.00000000000E+00 0. -1.
</event>
<event>
 7    1  0.2728221E-009  0.1213860E+03  0.7561462E-02  0.1240828E+00
         -1   -1    0    0    0  501 -0.00000000000E+00  0.00000000000E+00  0.12316654750E+03  0.12316654750E+03  0.00000000000E+00 0.  1.
          1   -1    0    0  501    0  0.00000000000E+00 -0.00000000000E+00 -0.13353479000E+03  0.13353479000E+03  0.00000000000E+00 0. -1.
         25    2    1    2    0    0 -0.48624739495E+02 -0.41519287117E+02 -0.30172953647E+02  0.14369113480E+03  0.12509403900E+03 0.  0.
          5    1    3    3  502    0 -0.20802440413E+02 -0.80681579185E+02  0.56561033817E+01  0.83616521408E+02  0.41800000000E+01 0. -1.
         -5    1    3    3    0  502 -0.27822299082E+02  0.39162292068E+02 -0.35829057029E+02  0.60074613389E+02  0.41800000000E+01 0. -1.
        -11    1    1    2    0    0  0.74878142570E+02  0.20890275669E+02  0.16397652074E+02  0.79448240042E+02  0.00000000000E+00 0.  1.
         11    1    1    2    0    0 -0.26253403075E+02  0.20629011448E+02  0.34070590787E+01  0.33561962664E+02  0.00000000000E+00 0. -1.
</event>
<event>
 7    1  0.2728221E-009  0.1212334E+03  0.7561462E-02  0.1241076E+00
         -3   -1    0    0    0  501 -0.00000000000E+00  0.00000000000E+00  0.34498798749E+03  0.34498798749E+03  0.00000000000E+00 0.  1.
          3   -1    0    0  501    0  0.00000000000E+00 -0.00000000000E+00 -0.45287360075E+02  0.45287360075E+02  0.00000000000E+00 0. -1.
         25    2    1    2    0    0 -0.46453186127E+02  0.31582443653E+02  0.18144409492E+03  0.22743006057E+03  0.12508846319E+03 0.  0.
          5    1    3    3  502    0  0.25328982774E+02  0.50850726684E+02  0.47410243802E+02  0.74111789818E+02  0.41800000000E+01 0. -1.
         -5    1    3    3    0  502 -0.71782168901E+02 -0.19268283031E+02  0.13403385111E+03  0.15331827076E+03  0.41800000000E+01 0. -1.
        -11    1    1    2    0    0  0.10561255971E+02  0.34381072825E+02  0.29013147110E+02  0.46209966473E+02  0.00000000000E+00 0. -1.
         11    1    1    2    0    0  0.35891930156E+02 -0.65963516478E+02  0.89243385387E+02  0.11663532052E+03  0.00000000000E+00 0.  1.
</event>
<event>
 7    1  0.2728221E-009  0.1210309E+03  0.7561462E-02  0.1241406E+00
          2   -1    0    0  501    0  0.00000000000E+00  0.00000000000E+00  0.31258198313E+03  0.31258198313E+03  0.00000000000E+00 0. -1.
         -2   -1    0    0    0  501 -0.00000000000E+00 -0.00000000000E+00 -0.88113062067E+02  0.88113062067E+02  0.00000000000E+00 0.  1.
         25    2    1    2    0    0  0.72404167557E+02  0.73959531409E+01  0.24182550102E+03  0.28182254822E+03  0.12508921672E+03 0.  0.
          5    1    3    3  502    0 -0.12322904864E+02  0.34737256039E+02  0.14732181731E+03  0.15192011452E+03  0.41800000000E+01 0.  1.
         -5    1    3    3    0  502  0.84727072422E+02 -0.27341302898E+02  0.94503683711E+02  0.12990243370E+03  0.41800000000E+01 0.  1.
        -11    1    1    2    0    0 -0.68194708534E+01 -0.41404284457E+02 -0.16214654061E+02  0.44985941809E+02  0.00000000000E+00 0.  1.
         11    1    1    2    0    0 -0.65584696704E+02  0.34008331316E+02 -0.11419258919E+01  0.73886555173E+02  0.00000000000E+00 0. -1.
</event>
<event>
 7    1  0.2728221E-009  0.2065475E+03  0.7561462E-02  0.1144330E+00
          1   -1    0    0  501    0  0.00000000000E+00  0.00000000000E+00  0.25006744605E+03  0.25006744605E+03  0.00000000000E+00 0. -1.
         -1   -1    0    0    0  501 -0.00000000000E+00 -0.00000000000E+00 -0.20074433931E+03  0.20074433931E+03  0.00000000000E+00 0.  1.
         25    2    1    2    0    0  0.63906354278E+02 -0.18471675675E+03  0.44076423453E+02  0.23620604230E+03  0.12508501500E+03 0.  0.
          5    1    3    3  502    0  0.36611783822E+02 -0.87856189233E+01  0.44079304534E+02  0.58121143336E+02  0.41800000000E+01 0.  1.
         -5    1    3    3    0  502  0.27294570456E+02 -0.17593113782E+03 -0.28810809313E-02  0.17808489897E+03  0.41800000000E+01 0.  1.
        -11    1    1    2    0    0 -0.54793978810E+02  0.12184112740E+03 -0.36614842227E+02  0.13852179291E+03  0.00000000000E+00 0.  1.
         11    1    1    2    0    0 -0.91123754679E+01  0.62875629350E+02  0.41861525513E+02  0.76083950154E+02  0.00000000000E+00 0. -1.
</event>
<event>
 7    1  0.2728221E-009  0.1381394E+03  0.7561462E-02  0.1215855E+00
          2   -1    0    0  501    0  0.00000000000E+00  0.00000000000E+00  0.75122632391E+03  0.75122632391E+03  0.00000000000E+00 0.  1.
         -2   -1    0    0    0  501 -0.00000000000E+00 -0.00000000000E+00 -0.30447996131E+02  0.30447996131E+02  0.00000000000E+00 0. -1.
         25    2    1    2    0    0  0.73284260836E+02 -0.70967357352E+02  0.31941825549E+03  0.35790382444E+03  0.12514062855E+03 0.  0.
          5    1    3    3  502    0 -0.27985706166E+02 -0.37269657452E+02  0.52061918688E+02  0.70001020662E+02  0.41800000000E+01 0.  1.
         -5    1    3    3    0  502  0.10126996700E+03 -0.33697699899E+02  0.26735633680E+03  0.28790280378E+03  0.41800000000E+01 0.  1.
        -11    1    1    2    0    0 -0.67501921457E+02  0.18640964901E+02  0.13314781401E+03  0.15044047111E+03  0.00000000000E+00 0. -1.
         11    1    1    2    0    0 -0.57823393792E+01  0.52326392450E+02  0.26821225828E+03  0.27333002449E+03  0.00000000000E+00 0.  1.
</event>
<event>
 7    1  0.3286453E-009  0.1049406E+03  0.7561462E-02  0.1270237E+00
          1   -1    0    0  501    0  0.00000000000E+00  0.00000000000E+00  0.42394169867E+03  0.42394169867E+03  0.00000000000E+00 0. -1.
         -1   -1    0    0    0  501 -0.00000000000E+00 -0.00000000000E+00 -0.38977892910E+02  0.38977892910E+02  0.00000000000E+00 0.  1.
         25    2    1    2    0    0 -0.64019999867E+01 -0.19290353332E+02  0.33162300087E+03  0.35501334104E+03  0.12509018459E+03 0.  0.
          5    1    3    3  502    0  0.52692837839E+02 -0.20845000080E+02  0.23408990719E+03  0.24088712343E+03  0.41800000000E+01 0. -1.
         -5    1    3    3    0  502 -0.59094837826E+02  0.15546467474E+01  0.97533093674E+02  0.11412621761E+03  0.41800000000E+01 0. -1.
        -11    1    1    2    0    0 -0.13403175631E+02 -0.34214121554E+02  0.20530269597E+02  0.42092080020E+02  0.00000000000E+00 0.  1.
         11    1    1    2    0    0  0.19805175618E+02  0.53504474886E+02  0.32810535296E+02  0.65814170514E+02  0.00000000000E+00 0. -1.
</event>
<event>
 7    1  0.2728221E-009  0.2911059E+03  0.7561462E-02  0.1089773E+00
         -2   -1    0    0    0  501 -0.00000000000E+00  0.00000000000E+00  0.33789452422E+03  0.33789452422E+03  0.00000000000E+00 0.  1.
          2   -1    0    0  501    0  0.00000000000E+00 -0.00000000000E+00 -0.28583089985E+03  0.28583089985E+03  0.00000000000E+00 0. -1.
         25    2    1    2    0    0 -0.19631416658E+03  0.21376638198E+03  0.16748659671E+02  0.31648596142E+03  0.12509007998E+03 0.  0.
          5    1    3    3  502    0 -0.83088462977E+01  0.17323757627E+02 -0.34543555711E+02  0.39747693597E+02  0.41800000000E+01 0.  1.
         -5    1    3    3    0  502 -0.18800532029E+03  0.19644262435E+03  0.51292215382E+02  0.27673826782E+03  0.41800000000E+01 0.  1.
        -11    1    1    2    0    0  0.76573288568E+02 -0.72917832118E+02 -0.32036978518E+02  0.11048459963E+03  0.00000000000E+00 0. -1.
         11    1    1    2    0    0  0.11974087802E+03 -0.14084854986E+03  0.67351943219E+02  0.19675486302E+03  0.00000000000E+00 0.  1.
</event>
<event>
 7    1  0.2728221E-009  0.1113701E+03  0.7561462E-02  0.1258054E+00
         -1   -1    0    0    0  501 -0.00000000000E+00  0.00000000000E+00  0.70705697562E+02  0.70705697562E+02  0.00000000000E+00 0. -1.
          1   -1    0    0  501    0  0.00000000000E+00 -0.00000000000E+00 -0.20174549092E+03  0.20174549092E+03  0.00000000000E+00 0.  1.
         25    2    1    2    0    0 -0.34150439912E+02  0.33202196069E+01 -0.30498648241E+02  0.13324603746E+03  0.12508821907E+03 0.  0.
          5    1    3    3  502    0  0.23658280203E+02 -0.46024475867E+02 -0.19673903089E+01  0.51954880672E+02  0.41800000000E+01 0. -1.
         -5    1    3    3    0  502 -0.57808720115E+02  0.49344695474E+02 -0.28531257932E+02  0.81291156788E+02  0.41800000000E+01 0. -1.
        -11    1    1    2    0    0 -0.25621577897E+02 -0.20162070930E+02 -0.23183471852E+02  0.40005596175E+02  0.00000000000E+00 0. -1.
         11    1    1    2    0    0  0.59772017810E+02  0.16841851323E+02 -0.77357673269E+02  0.99199554851E+02  0.00000000000E+00 0.  1.
</event>
<event>
 7    1  0.4512048E-009  0.1199312E+03  0.7561462E-02  0.1243211E+00
         -1   -1    0    0    0  501 -0.00000000000E+00  0.00000000000E+00  0.20324289161E+02  0.20324289161E+02  0.00000000000E+00 0.  1.
          1   -1    0    0  501    0  0.00000000000E+00 -0.00000000000E+00 -0.78629191078E+03  0.78629191078E+03  0.00000000000E+00 0. -1.
         25    2    1    2    0    0 -0.60746918678E+02  0.13234777725E+02 -0.47856359967E+03  0.49852947100E+03  0.12507264711E+03 0.  0.
          5    1    3    3  502    0 -0.29403754325E+02  0.68849913430E+02 -0.23293720121E+03  0.24470820063E+03  0.41800000000E+01 0.  1.
         -5    1    3    3    0  502 -0.31343164353E+02 -0.55615135705E+02 -0.24562639846E+03  0.25382127037E+03  0.41800000000E+01 0.  1.
        -11    1    1    2    0    0  0.54817739988E+02 -0.43552020204E+02 -0.12974467172E+03  0.14742945065E+03  0.00000000000E+00 0.  1.
         11    1    1    2    0    0  0.59291786902E+01  0.30317242478E+02 -0.15765935023E+03  0.16065727829E+03  0.00000000000E+00 0. -1.
</event>
<event>
 7    1  0.2728221E-009  0.1109278E+03  0.7561462E-02  0.1258861E+00
          1   -1    0    0  501    0  0.00000000000E+00  0.00000000000E+00  0.68815265393E+03  0.68815265393E+03  0.00000000000E+00 0.  1.
         -1   -1    0    0    0  501 -0.00000000000E+00 -0.00000000000E+00 -0.30576311370E+02  0.30576311370E+02  0.00000000000E+00 0. -1.
         25    2    1    2    0    0 -0.33629397675E+02  0.89132649637E+02  0.40598056445E+03  0.43536595792E+03  0.12509089890E+03 0.  0.
          5    1    3    3  502    0  0.12119495896E+02  0.32786872560E+02  0.32353759659E+03  0.32544724611E+03  0.41800000000E+01 0. -1.
         -5    1    3    3    0  502 -0.45748893571E+02  0.56345777077E+02  0.82442967863E+02  0.10991871182E+03  0.41800000000E+01 0. -1.
        -11    1    1    2    0    0  0.43707629697E+02 -0.27807062676E+02  0.18567125336E+03  0.19276255848E+03  0.00000000000E+00 0.  1.
         11    1    1    2    0    0 -0.10078232022E+02 -0.61325586961E+02  0.65924524759E+02  0.90600448903E+02  0.00000000000E+00 0. -1.
</event>
<event>
 7    1  0.2728221E-009  0.1301643E+03  0.7561462E-02  0.1227212E+00
          2   -1    0    0  501    0  0.00000000000E+00  0.00000000000E+00  0.11811926288E+03  0.11811926288E+03  0.00000000000E+00 0.  1.
         -2   -1    0    0    0  501 -0.00000000000E+00 -0.00000000000E+00 -0.24977385547E+03  0.24977385547E+03  0.00000000000E+00 0. -1.
         25    2    1    2    0    0 -0.55763813596E+02 -0.71033284459E+02 -0.17378461006E+03  0.23238567982E+03  0.12508670228E+03 0.  0.
          5    1    3    3  502    0 -0.69326609798E+02 -0.97093625835E+02 -0.11130139824E+03  0.16321404552E+03  0.41800000000E+01 0.  1.
         -5    1    3    3    0  502  0.13562796202E+02  0.26060341376E+02 -0.62483211820E+02  0.69171634308E+02  0.41800000000E+01 0.  1.
        -11    1    1    2    0    0  0.63283763291E+02  0.30861201054E+02  0.58442044223E+02  0.91502573514E+02  0.00000000000E+00 0.  1.
         11    1    1    2    0    0 -0.75199496945E+01  0.40172083405E+02 -0.16312026752E+02  0.44004865018E+02  0.00000000000E+00 0. -1.
</event>
<event>
 7    1  0.2728221E-009  0.2313302E+03  0.7561462E-02  0.1125707E+00
          2   -1    0    0  501    0  0.00000000000E+00  0.00000000000E+00  0.34553931654E+03  0.34553931654E+03  0.00000000000E+00 0. -1.
         -2   -1    0    0    0  501 -0.00000000000E+00 -0.00000000000E+00 -0.19071024234E+03  0.19071024234E+03  0.00000000000E+00 0.  1.
         25    2    1    2    0    0  0.11370087473E+03 -0.19295308095E+03  0.15754898756E+02  0.25701120230E+03  0.12509101052E+03 0.  0.
          5    1    3    3  502    0  0.10551778383E+03 -0.17891460938E+03 -0.28483456999E+02  0.20969792530E+03  0.41800000000E+01 0. -1.
         -5    1    3    3    0  502  0.81830908952E+01 -0.14038471572E+02  0.44238355755E+02  0.47313277001E+02  0.41800000000E+01 0. -1.
        -11    1    1    2    0    0 -0.12352762649E+03  0.15125581927E+03  0.92921948675E+02  0.21626808806E+03  0.00000000000E+00 0.  1.
         11    1    1    2    0    0  0.98267517557E+01  0.41697261674E+02  0.46152226761E+02  0.62970268510E+02  0.00000000000E+00 0. -1.
</event>
<event>
 7    1  0.2728221E-009  0.1765774E+03  0.7561462E-02  0.1171157E+00
         -2   -1    0    0    0  501 -0.00000000000E+00  0.00000000000E+00  0.60592691518E+02  0.60592691518E+02  0.00000000000E+00 0.  1.
          2   -1    0    0  501    0  0.00000000000E+00 -0.00000000000E+00 -0.80221413070E+03  0.80221413070E+03  0.00000000000E+00 0. -1.
         25    2    1    2    0    0 -0.29013866298E+02 -0.16113143836E+03 -0.19012776014E+03  0.28035901395E+03  0.12508983436E+03 0.  0.
          5    1    3    3  502    0 -0.36534013891E+02 -0.40299240503E+02  0.43009060014E+00  0.54556579200E+02  0.41800000000E+01 0.  1.
         -5    1    3    3    0  502  0.75201475926E+01 -0.12083219786E+03 -0.19055785074E+03  0.22580243475E+03  0.41800000000E+01 0.  1.
        -11    1    1    2    0    0 -0.12231519835E+02  0.11472491077E+03 -0.43954540961E+03  0.45443545453E+03  0.00000000000E+00 0. -1.
         11    1    1    2    0    0  0.41245386133E+02  0.46406527588E+02 -0.11194826943E+03  0.12801235373E+03  0.00000000000E+00 0.  1.
</event>
<event>
 7    1  0.2728221E-009  0.1434373E+03  0.7561462E-02  0.1208777E+00
          3   -1    0    0  501    0  0.00000000000E+00  0.00000000000E+00  0.97943127294E+02  0.97943127294E+02  0.00000000000E+00 0. -1.
         -3   -1    0    0    0  501 -0.00000000000E+00 -0.00000000000E+00 -0.27179795771E+03  0.27179795771E+03  0.00000000000E+00 0.  1.
         25    2    1    2    0    0 -0.65012059816E+02  0.73568006106E+02 -0.11831129226E+02  0.15945463121E+03  0.12508790650E+03 0.  0.
          5    1    3    3  502    0 -0.61798472076E+02 -0.16162596937E+02 -0.24777570094E+02  0.68641686098E+02  0.41800000000E+01 0. -1.
         -5    1    3    3    0  502 -0.32135877398E+01  0.89730603043E+02  0.12946440868E+02  0.90812945111E+02  0.41800000000E+01 0. -1.
        -11    1    1    2    0    0  0.63234134963E+01  0.20858945581E+02 -0.17535716026E+02  0.27974676147E+02  0.00000000000E+00 0. -1.
         11    1    1    2    0    0  0.58688646319E+02 -0.94426951687E+02 -0.14448798516E+03  0.18231177764E+03  0.00000000000E+00 0.  1.
</event>
<event>
 7    1  0.2728221E-009  0.9156950E+02  0.7561462E-02  0.1299095E+00
          3   -1    0    0  501    0  0.00000000000E+00  0.00000000000E+00  0.30976082077E+02  0.30976082077E+02  0.00000000000E+00 0. -1.
         -3   -1    0    0    0  501 -0.00000000000E+00 -0.00000000000E+00 -0.52009603492E+03  0.52009603492E+03  0.00000000000E+00 0.  1.
         25    2    1    2    0    0 -0.21333030581E+02 -0.35057164416E+02 -0.38415926495E+03  0.40609229651E+03  0.12509400252E+03 0.  0.
          5    1    3    3  502    0  0.37054058475E+02 -0.28809980329E+01 -0.37159841340E+02  0.52722192742E+02  0.41800000000E+01 0. -1.
         -5    1    3    3    0  502 -0.58387089056E+02 -0.32176166383E+02 -0.34699942361E+03  0.35337010377E+03  0.41800000000E+01 0. -1.
        -11    1    1    2    0    0  0.17429897403E+02 -0.18398572614E+02  0.19164249945E+01  0.25416165770E+02  0.00000000000E+00 0. -1.
         11    1    1    2    0    0  0.39031331782E+01  0.53455737030E+02 -0.10687711289E+03  0.11956365471E+03  0.00000000000E+00 0.  1.
</event>
<event>
 7    1  0.2728221E-009  0.1143576E+03  0.7561462E-02  0.1252707E+00
         -2   -1    0    0    0  501 -0.00000000000E+00  0.00000000000E+00  0.43057617997E+03  0.43057617997E+03  0.00000000000E+00 0. -1.
          2   -1    0    0  501    0  0.00000000000E+00 -0.00000000000E+00 -0.33089468424E+02  0.33089468424E+02  0.00000000000E+00 0.  1.
         25    2    1    2    0    0 -0.41301827544E+02 -0.34330247463E+02  0.20222838983E+03  0.24378219608E+03  0.12509608557E+03 0.  0.
          5    1    3    3  502    0 -0.50433100762E+02  0.32502302294E+02  0.13804586293E+03  0.15057898253E+03  0.41800000000E+01 0.  1.
         -5    1    3    3    0  502  0.91312732183E+01 -0.66832549757E+02  0.64182526899E+02  0.93203213553E+02  0.41800000000E+01 0.  1.
        -11    1    1    2    0    0  0.50553189452E+01  0.57660728160E+02  0.10656863322E+03  0.12127320153E+03  0.00000000000E+00 0. -1.
         11    1    1    2    0    0  0.36246508599E+02 -0.23330480696E+02  0.88689688496E+02  0.98610250789E+02  0.00000000000E+00 0.  1.
</event>
<event>
 7    1  0.2728221E-009  0.4241183E+03  0.7561462E-02  0.1035734E+00
         -1   -1    0    0    0  501 -0.00000000000E+00  0.00000000000E+00  0.19700244454E+03  0.19700244454E+03  0.00000000000E+00 0.  1.
          1   -1    0    0  501    0  0.00000000000E+00 -0.00000000000E+00 -0.95801395238E+03  0.95801395238E+03  0.00000000000E+00 0. -1.
         25    2    1    2    0    0 -0.49910365339E+02  0.40779184194E+03 -0.50056494829E+03  0.65954438951E+03  0.12509317869E+03 0.  0.
          5    1    3    3  502    0  0.39314619341E+02  0.14495104380E+03 -0.14911577116E+03  0.21168238000E+03  0.41800000000E+01 0.  1.
         -5    1    3    3    0  502 -0.89224984679E+02  0.26284079814E+03 -0.35144917713E+03  0.44786200951E+03  0.41800000000E+01 0.  1.
        -11    1    1    2    0    0  0.59584685596E+02 -0.13669173554E+03 -0.10978401460E+03  0.18516882887E+03  0.00000000000E+00 0. -1.
         11    1    1    2    0    0 -0.96743202574E+01 -0.27110010640E+03 -0.15066254495E+03  0.31030317854E+03  0.00000000000E+00 0.  1.
</event>
<event>
 7    1  0.2728221E-009  0.1027187E+03  0.7561462E-02  0.1274681E+00
         -2   -1    0    0    0  501 -0.00000000000E+00  0.00000000000E+00  0.82796739225E+02  0.82796739225E+02  0.00000000000E+00 0.  1.
          2   -1    0    0  501    0  0.00000000000E+00 -0.00000000000E+00 -0.17468214211E+03  0.17468214211E+03  0.00000000000E+00 0. -1.
         25    2    1    2    0    0  0.22127017668E+02 -0.23476281382E+02 -0.79115790114E+01  0.12942410964E+03  0.12508903380E+03 0.  0.
          5    1    3    3  502    0  0.63847483939E+02 -0.18058266135E+02 -0.38879670232E+02  0.77017552145E+02  0.41800000000E+01 0.  1.
         -5    1    3    3    0  502 -0.41720466271E+02 -0.54180152474E+01  0.30968091220E+02  0.52406557499E+02  0.41800000000E+01 0.  1.
        -11    1    1    2    0    0  0.27569846955E+02 -0.17165191344E+02 -0.27914060011E+02  0.42824467321E+02  0.00000000000E+00 0.  1.
         11    1    1    2    0    0 -0.49696864623E+02  0.40641472726E+02 -0.56059763860E+02  0.85230304368E+02  0.00000000000E+00 0. -1.
</event>
<event>
 7    1  0.2728221E-009  0.1189918E+03  0.7561462E-02  0.1244770E+00
         -2   -1    0    0    0  501 -0.00000000000E+00  0.00000000000E+00  0.29860096954E+02  0.29860096954E+02  0.00000000000E+00 0.  1.
          2   -1    0    0  501    0  0.00000000000E+00 -0.00000000000E+00 -0.51970446531E+03  0.51970446531E+03  0.00000000000E+00 0. -1.
         25    2    1    2    0    0  0.29292972369E+01  0.61134099604E+02 -0.27820178932E+03  0.31111099835E+03  0.12509140178E+03 0.  0.
          5    1    3    3  502    0 -0.54015577339E+02  0.10530953884E+02 -0.16985913312E+03  0.17860061895E+03  0.41800000000E+01 0.  1.
         -5    1    3    3    0  502  0.56944874576E+02  0.50603145720E+02 -0.10834265620E+03  0.13251037940E+03  0.41800000000E+01 0.  1.
        -11    1    1    2    0    0 -0.41767956535E+02 -0.11211036579E+02 -0.58389492409E+02  0.72660734638E+02  0.00000000000E+00 0.  1.
         11    1    1    2    0    0  0.38838659298E+02 -0.49923063025E+02 -0.15325308663E+03  0.16579282927E+03  0.00000000000E+00 0. -1.
</event>
<event>
 7    1  0.2728221E-009  0.8323991E+02  0.7561462E-02  0.1320101E+00
          2   -1    0    0  501    0  0.00000000000E+00  0.00000000000E+00  0.52000053173E+03  0.52000053173E+03  0.00000000000E+00 0. -1.
         -2   -1    0    0    0  501 -0.00000000000E+00 -0.00000000000E+00 -0.48021379446E+02  0.48021379446E+02  0.00000000000E+00 0.  1.
         25    2    1    2    0    0 -0.44367442658E+02 -0.38795491097E+02  0.77962281616E+02  0.15873978609E+03  0.12508653899E+03 0.  0.
          5    1    3    3  502    0 -0.25572318089E+02 -0.32448755602E+02 -0.28499895362E+02  0.50364487769E+02  0.41800000000E+01 0. -1.
         -5    1    3    3    0  502 -0.18795124570E+02 -0.63467354942E+01  0.10646217698E+03  0.10837529832E+03  0.41800000000E+01 0. -1.
        -11    1    1    2    0    0  0.63212743146E+02  0.18880711232E+01  0.29910938613E+03  0.30572183530E+03  0.00000000000E+00 0. -1.
         11    1    1    2    0    0 -0.18845300488E+02  0.36907419973E+02  0.94907484545E+02  0.10356028979E+03  0.00000000000E+00 0.  1.
</event>
<event>
 7    1  0.2728221E-009  0.1065352E+03  0.7561462E-02  0.1267124E+00
          2   -1    0    0  501    0  0.00000000000E+00  0.00000000000E+00  0.22997648562E+03  0.22997648562E+03  0.00000000000E+00 0. -1.
         -2   -1    0    0    0  501 -0.00000000000E+00 -0.00000000000E+00 -0.55562090700E+02  0.55562090700E+02  0.00000000000E+00 0.  1.
         25    2    1    2    0    0 -0.27306276588E+01  0.54568417997E+01  0.14329943559E+03  0.19031348987E+03  0.12508901924E+03 0.  0.
          5    1    3    3  502    0 -0.52925898489E+02 -0.30556716800E+02  0.54080372245E+02  0.81713051189E+02  0.41800000000E+01 0.  1.
         -5    1    3    3    0  502  0.50195270830E+02  0.36013558600E+02  0.89219063347E+02  0.10860043868E+03  0.41800000000E+01 0.  1.
        -11    1    1    2    0    0  0.10929020630E+02 -0.46639997798E+02  0.14299662420E+02  0.49992131700E+02  0.00000000000E+00 0. -1.
         11    1    1    2    0    0 -0.81983929715E+01  0.41183155999E+02  0.16815296904E+02  0.45232954749E+02  0.00000000000E+00 0.  1.
</event>
<event>
 7    1  0.2728221E-009  0.1058132E+03  0.7561462E-02  0.1268526E+00
         -2   -1    0    0    0  501 -0.00000000000E+00  0.00000000000E+00  0.38246725279E+02  0.38246725279E+02  0.00000000000E+00 0.  1.
          2   -1    0    0  501    0  0.00000000000E+00 -0.00000000000E+00 -0.35686990249E+03  0.35686990249E+03  0.00000000000E+00 0. -1.
         25    2    1    2    0    0 -0.33774447136E+02 -0.93352739127E+01 -0.14413990300E+03  0.19404307851E+03  0.12509414079E+03 0.  0.
          5    1    3    3  502    0  0.35592344551E+02  0.28917160663E+02 -0.29689218052E+02  0.54789955649E+02  0.41800000000E+01 0.  1.
         -5    1    3    3    0  502 -0.69366791687E+02 -0.38252434575E+02 -0.11445068495E+03  0.13925312286E+03  0.41800000000E+01 0.  1.
        -11    1    1    2    0    0 -0.25440053442E+02  0.91564746871E+01 -0.14928830955E+02  0.30885390422E+02  0.00000000000E+00 0.  1.
         11    1    1    2    0    0  0.59214500578E+02  0.17879922564E+00 -0.15955444325E+03  0.17018815884E+03  0.00000000000E+00 0. -1.
</event>
<event>
 7    1  0.2728221E-009  0.7896278E+02  0.7561462E-02  0.1332021E+00
          2   -1    0    0  501    0  0.00000000000E+00  0.00000000000E+00  0.26348237151E+03  0.26348237151E+03  0.00000000000E+00 0.  1.
         -2   -1    0    0    0  501 -0.00000000000E+00 -0.00000000000E+00 -0.48783038190E+02  0.48783038190E+02  0.00000000000E+00 0. -1.
         25    2    1    2    0    0 -0.95941684569E+01  0.29132833447E+02  0.11249187794E+03  0.17100475545E+03  0.12508970274E+03 0.  0.
          5    1    3    3  502    0  0.41159022220E+01  0.58688612574E+02  0.56774698904E+01  0.59253691541E+02  0.41800000000E+01 0.  1.
         -5    1    3    3    0  502 -0.13710070679E+02 -0.29555779126E+02  0.10681440805E+03  0.11175106391E+03  0.41800000000E+01 0.  1.
        -11    1    1    2    0    0 -0.24801811176E+02 -0.14391709168E+02 -0.37220278757E+01  0.28915473745E+02  0.00000000000E+00 0. -1.
         11    1    1    2    0    0  0.34395979633E+02 -0.14741124279E+02  0.10592948325E+03  0.11234518050E+03  0.00000000000E+00 0.  1.
</event>
<event>
 7    1  0.2728221E-009  0.1051392E+03  0.7561462E-02  0.1269846E+00
         -2   -1    0    0    0  501 -0.00000000000E+00  0.00000000000E+00  0.29263980191E+02  0.29263980191E+02  0.00000000000E+00 0.  1.
          2   -1    0    0  501    0  0.00000000000E+00 -0.00000000000E+00 -0.52269219623E+03  0.52269219623E+03  0.00000000000E+00 0. -1.
         25    2    1    2    0    0 -0.56529926138E+02  0.81651562099E+00 -0.25172611910E+03  0.28672286985E+03  0.12509063039E+03 0.  0.
          5    1    3    3  502    0 -0.83776788365E+02 -0.64478039729E+01 -0.92788222874E+02  0.12524875708E+03  0.41800000000E+01 0.  1.
         -5    1    3    3    0  502  0.27246862227E+02  0.72643195939E+01 -0.15893789622E+03  0.16147411277E+03  0.41800000000E+01 0.  1.
        -11    1    1    2    0    0  0.25201334481E+02 -0.40121786900E+02 -0.58601734884E+02  0.75359328388E+02  0.00000000000E+00 0.  1.
         11    1    1    2    0    0  0.31328591657E+02  0.39305271279E+02 -0.18310036206E+03  0.18987397819E+03  0.00000000000E+00 0. -1.
</event>
<event>
 6    1  0.2728221E-009  0.1133048E+03  0.7561462E-02  0.1254569E+00
         -2   -1    0    0    0  501 -0.00000000000E+00  0.00000000000E+00  0.35564943836E+02  0.35564943836E+02  0.00000000000E+00 0.  1.
          2   -1    0    0  501    0  0.00000000000E+00 -0.00000000000E+00 -0.47894051217E+03  0.47894051217E+03  0.00000000000E+00 0. -1.
          5    1    1    2  502    0 -0.55447034186E+02  0.51953877534E+02 -0.14219241958E+03  0.16127534088E+03  0.41800000000E+01 0.  1.
         -5    1    1    2    0  502 -0.95571039180E+01 -0.54439816108E+02 -0.37066004501E+02  0.66681278503E+02  0.41800000000E+01 0.  1.
        -11    1    1    2    0    0  0.51697486548E+02  0.33315035829E+02 -0.23225315290E+03  0.24025829593E+03  0.00000000000E+00 0. -1.
         11    1    1    2    0    0  0.13306651556E+02 -0.30829097256E+02 -0.31863991357E+02  0.46290540701E+02  0.00000000000E+00 0.  1.
</event>
<event>
 7    1  0.2728221E-009  0.1619697E+03  0.7561462E-02  0.1186491E+00
         -2   -1    0    0    0  501 -0.00000000000E+00  0.00000000000E+00  0.21548718806E+02  0.21548718806E+02  0.00000000000E+00 0. -1.
          2   -1    0    0  501    0  0.00000000000E+00 -0.00000000000E+00 -0.15799954232E+04  0.15799954232E+04  0.00000000000E+00 0.  1.
         25    2    1    2    0    0 -0.47075995405E+02  0.12771118178E+03 -0.10828700976E+04  0.10985358052E+04  0.12508785558E+03 0.  0.
          5    1    3    3  502    0  0.25515086403E+02  0.31739850272E+02 -0.96229047356E+02  0.10457504332E+03  0.41800000000E+01 0.  1.
         -5    1    3    3    0  502 -0.72591081808E+02  0.95971331505E+02 -0.98664105025E+03  0.99396076184E+03  0.41800000000E+01 0.  1.
        -11    1    1    2    0    0  0.37594503456E+02 -0.32064717402E+01 -0.13850766576E+03  0.14355487322E+03  0.00000000000E+00 0.  1.
         11    1    1    2    0    0  0.94814919489E+01 -0.12450471004E+03 -0.33706894099E+03  0.35945346359E+03  0.00000000000E+00 0. -1.
</event>
<event>
 7    1  0.2728221E-009  0.9352361E+02  0.7561462E-02  0.1294536E+00
          2   -1    0    0  501    0  0.00000000000E+00  0.00000000000E+00  0.13384184446E+03  0.13384184446E+03  0.00000000000E+00 0. -1.
         -2   -1    0    0    0  501 -0.00000000000E+00 -0.00000000000E+00 -0.13562222542E+03  0.13562222542E+03  0.00000000000E+00 0.  1.
         25    2    1    2    0    0  0.12923783721E+02 -0.86078333957E+01  0.25396044053E+02  0.12858377473E+03  0.12509080338E+03 0.  0.
          5    1    3    3  502    0 -0.39545423634E+02  0.30851756599E+01 -0.31033073768E+02  0.50535956573E+02  0.41800000000E+01 0. -1.
         -5    1    3    3    0  502  0.52469207356E+02 -0.11693009056E+02  0.56429117821E+02  0.78047818159E+02  0.41800000000E+01 0. -1.
        -11    1    1    2    0    0 -0.12173295953E+02  0.50194691681E+02 -0.66119348047E+02  0.83901516038E+02  0.00000000000E+00 0.  1.
         11    1    1    2    0    0 -0.75048776779E+00 -0.41586858285E+02  0.38942923037E+02  0.56978779108E+02  0.00000000000E+00 0. -1.
</event>
<event>
 7    1  0.2728221E-009  0.1103192E+03  0.7561462E-02  0.1259980E+00
         -3   -1    0    0    0  501 -0.00000000000E+00  0.00000000000E+00  0.65607601015E+03  0.65607601015E+03  0.00000000000E+00 0.  1.
          3   -1    0    0  501    0  0.00000000000E+00 -0.00000000000E+00 -0.20997785364E+02  0.20997785364E+02  0.00000000000E+00 0. -1.
         25    2    1    2    0    0  0.42553076181E+02 -0.11986618118E+02  0.35681821890E+03  0.38068552176E+03  0.12509109413E+03 0.  0.
          5    1    3    3  502    0  0.45210440624E+02 -0.58012134734E+02  0.29125598055E+03  0.30042787874E+03  0.41800000000E+01 0.  1.
         -5    1    3    3    0  502 -0.26573644421E+01  0.46025516616E+02  0.65562238349E+02  0.80257643019E+02  0.41800000000E+01 0.  1.
        -11    1    1    2    0    0 -0.66730440191E+02 -0.10631544708E+02  0.20837931320E+03  0.21906145156E+03  0.00000000000E+00 0.  1.
         11    1    1    2    0    0  0.24177364009E+02  0.22618162825E+02  0.69880692684E+02  0.77326822190E+02  0.00000000000E+00 0. -1.
</event>
<event>
 7    1  0.2728221E-009  0.1709922E+03  0.7561462E-02  0.1176817E+00
          1   -1    0    0  501    0  0.00000000000E+00  0.00000000000E+00  0.33179752327E+03  0.33179752327E+03  0.00000000000E+00 0. -1.
         -1   -1    0    0    0  501 -0.00000000000E+00 -0.00000000000E+00 -0.10152920421E+03  0.10152920421E+03  0.00000000000E+00 0.  1.
         25    2    1    2    0    0 -0.11976377029E+03  0.84436094141E+02  0.11249566406E+03  0.22310503459E+03  0.12509103629E+03 0.  0.
          5    1    3    3  502    0 -0.11912250597E+03  0.98458403696E+02  0.55506637044E+02  0.16426407959E+03  0.41800000000E+01 0.  1.
         -5    1    3    3    0  502 -0.64126431774E+00 -0.14022309555E+02  0.56989027018E+02  0.58840955002E+02  0.41800000000E+01 0.  1.
        -11    1    1    2    0    0  0.83686643053E+02 -0.30836958007E+01  0.43840074320E+02  0.94524682076E+02  0.00000000000E+00 0.  1.
         11    1    1    2    0    0  0.36077127236E+02 -0.81352398340E+02  0.73932580680E+02  0.11569701081E+03  0.00000000000E+00 0. -1.
</event>
<event>
 7    1  0.2728221E-009  0.1175260E+03  0.7561462E-02  0.1247235E+00
          1   -1    0    0  501    0  0.00000000000E+00  0.00000000000E+00  0.25694465761E+03  0.25694465761E+03  0.00000000000E+00 0. -1.
         -1   -1    0    0    0  501 -0.00000000000E+00 -0.00000000000E+00 -0.81923584687E+02  0.81923584687E+02  0.00000000000E+00 0.  1.
         25    2    1    2    0    0  0.80582842912E+02  0.17756788264E+02  0.53499352677E+02  0.15911399579E+03  0.12508471057E+03 0.  0.
          5    1    3    3  502    0  0.37684886685E+02  0.39721544243E+02 -0.30030030637E+02  0.62587753607E+02  0.41800000000E+01 0.  1.
         -5    1    3    3    0  502  0.42897956227E+02 -0.21964755979E+02  0.83529383313E+02  0.96526242185E+02  0.41800000000E+01 0.  1.
        -11    1    1    2    0    0 -0.47227333329E+02  0.42082382151E+02  0.49209539092E+02  0.80143163392E+02  0.00000000000E+00 0.  1.
         11    1    1    2    0    0 -0.33355509583E+02 -0.59839170415E+02  0.72312181152E+02  0.99611083110E+02  0.00000000000E+00 0. -1.
</event>
<event>
 7    1  0.4363358E-009  0.9883562E+02  0.7561462E-02  0.1282764E+00
         -1   -1    0    0    0  501 -0.00000000000E+00  0.00000000000E+00  0.82962787537E+02  0.82962787537E+02  0.00000000000E+00 0.  1.
          1   -1    0    0  501    0  0.00000000000E+00 -0.00000000000E+00 -0.18244574230E+03  0.18244574230E+03  0.00000000000E+00 0. -1.
         25    2    1    2    0    0  0.34640503866E+02 -0.47163102328E+02 -0.60953112118E+02  0.15095141764E+03  0.12508687334E+03 0.  0.
          5    1    3    3  502    0  0.30920360707E+02  0.34726256396E+02 -0.49557582189E+02  0.68083830253E+02  0.41800000000E+01 0. -1.
         -5    1    3    3    0  502  0.37201431592E+01 -0.81889358724E+02 -0.11395529929E+02  0.82867587389E+02  0.41800000000E+01 0. -1.
        -11    1    1    2    0    0 -0.22186243866E+02  0.22518861474E+01  0.26383510376E+02  0.34545477675E+02  0.00000000000E+00 0.  1.
         11    1    1    2    0    0 -0.12454260001E+02  0.44911216180E+02 -0.64913353017E+02  0.79911634515E+02  0.00000000000E+00 0. -1.
</event>
<event>
 6    1  0.2728221E-009  0.1059378E+03  0.7561462E-02  0.1268283E+00
         -2   -1    0    0    0  501 -0.00000000000E+00  0.00000000000E+00  0.25404427812E+02  0.25404427812E+02  0.00000000000E+00 0. -1.
          2   -1    0    0  501    0  0.00000000000E+00 -0.00000000000E+00 -0.63189991335E+03  0.63189991335E+03  0.00000000000E+00 0.  1.
          5    1    1    2  502    0 -0.53082758731E+02 -0.16555458060E+02 -0.63751156424E+02  0.84696781589E+02  0.41800000000E+01 0. -1.
         -5    1    1    2    0  502 -0.69637134981E+00  0.46040119309E+02 -0.32582086601E+03  0.32908492315E+03  0.41800000000E+01 0. -1.
        -11    1    1    2    0    0  0.27905751396E+02 -0.62197879229E+02 -0.14830327430E+03  0.16322122506E+03  0.00000000000E+00 0.  1.
         11    1    1    2    0    0  0.25873378685E+02  0.32713217980E+02 -0.68620188810E+02  0.80301411367E+02  0.00000000000E+00 0. -1.
</event>
<event>
 7    1  0.2728221E-009  0.7559484E+02  0.7561462E-02  0.1342039E+00
         -1   -1    0    0    0  501 -0.00000000000E+00  0.00000000000E+00  0.11971693874E+03  0.11971693874E+03  0.00000000000E+00 0.  1.
          1   -1    0    0  501    0  0.00000000000E+00 -0.00000000000E+00 -0.11194793022E+03  0.11194793022E+03  0.00000000000E+00 0. -1.
         25    2    1    2    0    0  0.89327476252E+01 -0.38066518773E+02 -0.68489532111E+01  0.13124003189E+03  0.12509270154E+03 0.  0.
          5    1    3    3  502    0 -0.42335434633E+02 -0.37164553332E+02  0.33662442423E+02  0.65758083000E+02  0.41800000000E+01 0. -1.
         -5    1    3    3    0  502  0.51268182258E+02 -0.90196544157E+00 -0.40511395634E+02  0.65481948886E+02  0.41800000000E+01 0. -1.
        -11    1    1    2    0    0  0.58027585177E+01  0.10454596722E+02 -0.37649853330E+02  0.39502937294E+02  0.00000000000E+00 0. -1.
         11    1    1    2    0    0 -0.14735506143E+02  0.27611922052E+02  0.52267815063E+02  0.60921899775E+02  0.00000000000E+00 0.  1.
</event>
<event>
 7    1  0.2728221E-009  0.1214191E+03  0.7561462E-02  0.1240774E+00
          1   -1    0    0  501    0  0.00000000000E+00  0.00000000000E+00  0.35331636882E+03  0.35331636882E+03  0.00000000000E+00 0. -1.
         -1   -1    0    0    0  501 -0.00000000000E+00 -0.00000000000E+00 -0.66231506497E+02  0.66231506497E+02  0.00000000000E+00 0.  1.
         25    2    1    2    0    0 -0.10486907878E+03  0.19765456648E+02  0.17077319825E+03  0.23706302801E+03  0.12508875668E+03 0.  0.
          5    1    3    3  502    0 -0.42162445928E+02 -0.30343935375E+02  0.44102755799E+01  0.52300565880E+02  0.41800000000E+01 0.  1.
         -5    1    3    3    0  502 -0.62706632851E+02  0.50109392023E+02  0.16636292267E+03  0.18476246213E+03  0.41800000000E+01 0.  1.
        -11    1    1    2    0    0  0.11947041212E+02  0.67412500601E+01 -0.14430290599E+02  0.19910035984E+02  0.00000000000E+00 0.  1.
         11    1    1    2    0    0  0.92922037567E+02 -0.26506706708E+02  0.13074195467E+03  0.16257481133E+03  0.00000000000E+00 0. -1.
</event>
<event>
 7    1  0.2728221E-009  0.1340787E+03  0.7561462E-02  0.1221526E+00
          2   -1    0    0  501    0  0.00000000000E+00  0.00000000000E+00  0.52958810258E+02  0.52958810258E+02  0.00000000000E+00 0. -1.
         -2   -1    0    0    0  501 -0.00000000000E+00 -0.00000000000E+00 -0.43715385290E+03  0.43715385290E+03  0.00000000000E+00 0.  1.
         25    2    1    2    0    0 -0.94723389502E+02 -0.19601946553E+02 -0.28052042205E+03  0.32204211423E+03  0.12515054663E+03 0.  0.
          5    1    3    3  502    0 -0.75884378737E+02 -0.56208392200E+02 -0.10316281943E+03  0.13992091338E+03  0.41800000000E+01 0. -1.
         -5    1    3    3    0  502 -0.18839010765E+02  0.36606445646E+02 -0.17735760262E+03  0.18212120084E+03  0.41800000000E+01 0. -1.
        -11    1    1    2    0    0  0.50038415708E+02  0.55648903705E+02 -0.56734812999E+02  0.93912100052E+02  0.00000000000E+00 0.  1.
         11    1    1    2    0    0  0.44684973794E+02 -0.36046957152E+02 -0.46939807592E+02  0.74158448876E+02  0.00000000000E+00 0. -1.
</event>
<event>
 7    1  0.2728221E-009  0.1423726E+03  0.7561462E-02  0.1210172E+00
         -1   -1    0    0    0  501 -0.00000000000E+00  0.00000000000E+00  0.15933140542E+02  0.15933140542E+02  0.00000000000E+00 0.  1.
          1   -1    0    0  501    0  0.00000000000E+00 -0.00000000000E+00 -0.20263887882E+04  0.20263887882E+04  0.00000000000E+00 0. -1.
         25    2    1    2    0    0  0.50155725523E+02  0.11247997478E+03 -0.14799622707E+04  0.14903352365E+04  0.12507378994E+03 0.  0.
          5    1    3    3  502    0 -0.13487479729E+02  0.20737918341E+02 -0.86121351124E+03  0.86157887492E+03  0.41800000000E+01 0.  1.
         -5    1    3    3    0  502  0.63643205253E+02  0.91742056439E+02 -0.61874875946E+03  0.62875636158E+03  0.41800000000E+01 0.  1.
        -11    1    1    2    0    0 -0.65904051026E+02 -0.11443231858E+03 -0.50481153354E+03  0.52179764648E+03  0.00000000000E+00 0. -1.
         11    1    1    2    0    0  0.15748325502E+02  0.19523438037E+01 -0.25681843402E+02  0.30189045745E+02  0.00000000000E+00 0.  1.
</event>
<event>
 7    1  0.2728221E-009  0.1243287E+03  0.7561462E-02  0.1236122E+00
          2   -1    0    0  501    0  0.00000000000E+00  0.00000000000E+00  0.10159615045E+04  0.10159615045E+04  0.00000000000E+00 0. -1.
         -2   -1    0    0    0  501 -0.00000000000E+00 -0.00000000000E+00 -0.28110609237E+02  0.28110609237E+02  0.00000000000E+00 0.  1.
         25    2    1    2    0    0 -0.12328773541E+03  0.14257606805E+02  0.63325012728E+03  0.65731008566E+03  0.12509068694E+03 0.  0.
          5    1    3    3  502    0 -0.35672208560E+02  0.19778380897E+01  0.27920643677E+02  0.45535184752E+02  0.41800000000E+01 0.  1.
         -5    1    3    3    0  502 -0.87615526851E+02  0.12279768715E+02  0.60532948360E+03  0.61177490091E+03  0.41800000000E+01 0.  1.
        -11    1    1    2    0    0  0.10885384080E+02 -0.16291524381E+01 -0.32374429807E+01  0.11472870664E+02  0.00000000000E+00 0.  1.
         11    1    1    2    0    0  0.11240235133E+03 -0.12628454366E+02  0.35783821097E+03  0.37528915742E+03  0.00000000000E+00 0. -1.
</event>
<event>
 7    1  0.2728221E-009  0.6795914E+02  0.7561462E-02  0.1367174E+00
          2   -1    0    0  501    0  0.00000000000E+00  0.00000000000E+00  0.31822873609E+02  0.31822873609E+02  0.00000000000E+00 0. -1.
         -2   -1    0    0    0  501 -0.00000000000E+00 -0.00000000000E+00 -0.44266572669E+03  0.44266572669E+03  0.00000000000E+00 0.  1.
         25    2    1    2    0    0  0.19175041418E+02 -0.42526082182E+01 -0.13719481759E+03  0.18670225817E+03  0.12509815483E+03 0.  0.
          5    1    3    3  502    0  0.23825982844E+02  0.16382471459E+02 -0.15562106115E+03  0.15833966624E+03  0.41800000000E+01 0. -1.
         -5    1    3    3    0  502 -0.46509414258E+01 -0.20635079678E+02  0.18426243561E+02  0.28362591934E+02  0.41800000000E+01 0. -1.
        -11    1    1    2    0    0  0.44080298713E+01  0.41131271313E+02 -0.17565996545E+03  0.18046505387E+03  0.00000000000E+00 0.  1.
         11    1    1    2    0    0 -0.23583071289E+02 -0.36878663095E+02 -0.97988070043E+02  0.10732128826E+03  0.00000000000E+00 0. -1.
</event>
<event>
 7    1  0.2728221E-009  0.8710857E+02  0.7561462E-02  0.1310009E+00
          3   -1    0    0  501    0  0.00000000000E+00  0.00000000000E+00  0.56699269089E+02  0.56699269089E+02  0.00000000000E+00 0. -1.
         -3   -1    0    0    0  501 -0.00000000000E+00 -0.00000000000E+00 -0.23991000561E+03  0.23991000561E+03  0.00000000000E+00 0.  1.
         25    2    1    2    0    0 -0.17630122623E+02 -0.38290802405E+02 -0.11700517368E+03  0.17639592032E+03  0.12509317833E+03 0.  0.
          5    1    3    3  502    0  0.13535747534E+02  0.33209173739E+02 -0.47289938160E+00  0.36107640681E+02  0.41800000000E+01 0.  1.
         -5    1    3    3    0  502 -0.31165870157E+02 -0.71499976144E+02 -0.11653227430E+03  0.14028827964E+03  0.41800000000E+01 0.  1.
        -11    1    1    2    0    0  0.84232319487E+01  0.46748631373E+02  0.51418126103E+01  0.47778903384E+02  0.00000000000E+00 0. -1.
         11    1    1    2    0    0  0.92068906739E+01 -0.84578289679E+01 -0.71347375450E+02  0.72434450991E+02  0.00000000000E+00 0.  1.
</event>
<event>
 7    1  0.2728221E-009  0.1105640E+03  0.7561462E-02  0.1259529E+00
         -2   -1    0    0    0  501 -0.00000000000E+00  0.00000000000E+00  0.20211527246E+02  0.20211527246E+02  0.00000000000E+00 0. -1.
          2   -1    0    0  501    0  0.00000000000E+00 -0.00000000000E+00 -0.63636906607E+03  0.63636906607E+03  0.00000000000E+00 0.  1.
         25    2    1    2    0    0 -0.88703009383E+01  0.21790799730E+02 -0.40832865558E+03  0.42770708506E+03  0.12509012131E+03 0.  0.
          5    1    3    3  502    0 -0.60718795968E+02  0.38869694706E+02 -0.24709869031E+03  0.25743515786E+03  0.41800000000E+01 0.  1.
         -5    1    3    3    0  502  0.51848495029E+02 -0.17078894977E+02 -0.16122996528E+03  0.17027192720E+03  0.41800000000E+01 0.  1.
        -11    1    1    2    0    0 -0.33827799501E+02  0.15744862962E+02 -0.10412940486E+03  0.11061262896E+03  0.00000000000E+00 0.  1.
         11    1    1    2    0    0  0.42698100439E+02 -0.37535662692E+02 -0.10369947837E+03  0.11826087929E+03  0.00000000000E+00 0. -1.
</event>
<event>
 7    1  0.2728221E-009  0.1158864E+03  0.7561462E-02  0.1250042E+00
         -1   -1    0    0    0  501 -0.00000000000E+00  0.00000000000E+00  0.48078089771E+03  0.48078089771E+03  0.00000000000E+00 0.  1.
          1   -1    0    0  501    0  0.00000000000E+00 -0.00000000000E+00 -0.29918574203E+02  0.29918574203E+02  0.00000000000E+00 0. -1.
         25    2    1    2    0    0  0.42000608071E+02 -0.29919496035E+02  0.22483298194E+03  0.26240472416E+03  0.12508853733E+03 0.  0.
          5    1    3    3  502    0  0.72777146793E+02 -0.53267747291E+02  0.11700305324E+03  0.14778752608E+03  0.41800000000E+01 0.  1.
         -5    1    3    3    0  502 -0.30776538722E+02  0.23348251256E+02  0.10782992870E+03  0.11461719808E+03  0.41800000000E+01 0.  1.
        -11    1    1    2    0    0 -0.32427458730E+02 -0.28658369699E+02  0.10165081462E+03  0.11047954718E+03  0.00000000000E+00 0.  1.
         11    1    1    2    0    0 -0.95731493402E+01  0.58577865733E+02  0.12437852694E+03  0.13781520057E+03  0.00000000000E+00 0. -1.
</event>
<event>
 7    1  0.2728221E-009  0.1957412E+03  0.7561462E-02  0.1153383E+00
          3   -1    0    0  501    0  0.00000000000E+00  0.00000000000E+00  0.35315542831E+03  0.35315542831E+03  0.00000000000E+00 0. -1.
         -3   -1    0    0    0  501 -0.00000000000E+00 -0.00000000000E+00 -0.18016452701E+03  0.18016452701E+03  0.00000000000E+00 0.  1.
         25    2    1    2    0    0  0.57094410107E+02  0.18587907446E+03 -0.33182865430E+02  0.23358022511E+03  0.12509123477E+03 0.  0.
          5    1    3    3  502    0  0.21253565234E+01  0.17492008373E+02  0.38422608458E+02  0.42476543385E+02  0.41800000000E+01 0.  1.
         -5    1    3    3    0  502  0.54969053584E+02  0.16838706609E+03 -0.71605473887E+02  0.19110368173E+03  0.41800000000E+01 0.  1.
        -11    1    1    2    0    0 -0.60622926260E+01 -0.60810820710E+02  0.10558150293E+02  0.62017593027E+02  0.00000000000E+00 0. -1.
         11    1    1    2    0    0 -0.51032117481E+02 -0.12506825375E+03  0.19561561644E+03  0.23772213718E+03  0.00000000000E+00 0.  1.
</event>
<event>
 7    1  0.2728221E-009  0.1214958E+03  0.7561462E-02  0.1240650E+00
          2   -1    0    0  501    0  0.00000000000E+00  0.00000000000E+00  0.41644872979E+03  0.41644872979E+03  0.00000000000E+00 0. -1.
         -2   -1    0    0    0  501 -0.00000000000E+00 -0.00000000000E+00 -0.37663118941E+02  0.37663118941E+02  0.00000000000E+00 0.  1.
         25    2    1    2    0    0 -0.20258517191E+02 -0.57820358527E+02  0.19502355548E+03  0.23965547267E+03  0.12508779720E+03 0.  0.
          5    1    3    3  502    0 -0.12254933357E+02  0.37394406575E+02  0.33079248479E+02  0.51577457427E+02  0.41800000000E+01 0.  1.
         -5    1    3    3    0  502 -0.80035838336E+01 -0.95214765102E+02  0.16194430700E+03  0.18807801524E+03  0.41800000000E+01 0.  1.
        -11    1    1    2    0    0 -0.14071993478E+02 -0.18994693036E+02  0.22864455418E+02  0.32887728495E+02  0.00000000000E+00 0.  1.
         11    1    1    2    0    0  0.34330510669E+02  0.76815051563E+02  0.16089759996E+03  0.18156864757E+03  0.00000000000E+00 0. -1.
</event>
<event>
 7    1  0.2728221E-009  0.9872565E+02  0.7561462E-02  0.1282999E+00
         -1   -1    0    0    0  501 -0.00000000000E+00  0.00000000000E+00  0.28086520301E+03  0.28086520301E+03  0.00000000000E+00 0.  1.
          1   -1    0    0  501    0  0.00000000000E+00 -0.00000000000E+00 -0.43263826911E+02  0.43263826911E+02  0.00000000000E+00 0. -1.
         25    2    1    2    0    0  0.73363223489E+01 -0.12035326285E+02  0.19901147133E+03  0.23548284466E+03  0.12509170118E+03 0.  0.
          5    1    3    3  502    0  0.53300103571E+02  0.27659123330E+02  0.13123529367E+03  0.14438179542E+03  0.41800000000E+01 0. -1.
         -5    1    3    3    0  502 -0.45963781222E+02 -0.39694449615E+02  0.67776177664E+02  0.91101049243E+02  0.41800000000E+01 0. -1.
        -11    1    1    2    0    0  0.29270439383E+02 -0.13005214124E+02  0.29133864182E+02  0.43297531780E+02  0.00000000000E+00 0.  1.
         11    1    1    2    0    0 -0.36606761732E+02  0.25040540409E+02  0.94560405801E+01  0.45348653474E+02  0.00000000000E+00 0. -1.
</event>
<event>
 7    1  0.2728221E-009  0.7478752E+02  0.7561462E-02  0.1344530E+00
          1   -1    0    0  501    0  0.00000000000E+00  0.00000000000E+00  0.64012480332E+02  0.64012480332E+02  0.00000000000E+00 0. -1.
         -1   -1    0    0    0  501 -0.00000000000E+00 -0.00000000000E+00 -0.20162761852E+03  0.20162761852E+03  0.00000000000E+00 0.  1.
         25    2    1    2    0    0  0.64717511560E+00  0.21867544631E+02 -0.43127566346E+02  0.13411404441E+03  0.12509189257E+03 0.  0.
          5    1    3    3  502    0  0.84222935469E+01  0.51424488913E+02 -0.73913951883E+02  0.90532633738E+02  0.41800000000E+01 0.  1.
         -5    1    3    3    0  502 -0.77751184313E+01 -0.29556944283E+02  0.30786385538E+02  0.43581410675E+02  0.41800000000E+01 0.  1.
        -11    1    1    2    0    0 -0.31698116561E+02 -0.11217614235E+02 -0.92746322300E+02  0.98653361640E+02  0.00000000000E+00 0.  1.
         11    1    1    2    0    0  0.31050941446E+02 -0.10649930395E+02 -0.17412495460E+01  0.32872692802E+02  0.00000000000E+00 0. -1.
</event>
<event>
 7    1  0.2728221E-009  0.1363461E+03  0.7561462E-02  0.1218332E+00
          2   -1    0    0  501    0  0.00000000000E+00  0.00000000000E+00  0.19903853547E+03  0.19903853547E+03  0.00000000000E+00 0. -1.
         -2   -1    0    0    0  501 -0.00000000000E+00 -0.00000000000E+00 -0.15284099598E+03  0.15284099598E+03  0.00000000000E+00 0.  1.
         25    2    1    2    0    0 -0.68089583712E+02 -0.71928017664E+02 -0.69520988538E+02  0.17403865551E+03  0.12508578908E+03 0.  0.
          5    1    3    3  502    0 -0.29579764742E+02 -0.99649764285E+02 -0.21166397377E+02  0.10616273726E+03  0.41800000000E+01 0.  1.
         -5    1    3    3    0  502 -0.38509818970E+02  0.27721746621E+02 -0.48354591160E+02  0.67875918256E+02  0.41800000000E+01 0.  1.
        -11    1    1    2    0    0  0.72117089910E+02  0.28709811773E+02  0.32837571264E+02  0.84281872521E+02  0.00000000000E+00 0.  1.
         11    1    1    2    0    0 -0.40275061981E+01  0.43218205891E+02  0.82880956757E+02  0.93559003413E+02  0.00000000000E+00 0. -1.
</event>
<event>
 7    1  0.2728221E-009  0.1087904E+03  0.7561462E-02  0.1262826E+00
          1   -1    0    0  501    0  0.00000000000E+00  0.00000000000E+00  0.31178228245E+02  0.31178228245E+02  0.00000000000E+00 0. -1.
         -1   -1    0    0    0  501 -0.00000000000E+00 -0.00000000000E+00 -0.41644567943E+03  0.41644567943E+03  0.00000000000E+00 0.  1.
         25    2    1    2    0    0 -0.70121540660E+01 -0.33561009864E+02 -0.20901322485E+03  0.24598795263E+03  0.12509209802E+03 0.  0.
          5    1    3    3  502    0  0.57387036825E+01 -0.76763700481E+02 -0.89079215287E+02  0.11780567655E+03  0.41800000000E+01 0. -1.
         -5    1    3    3    0  502 -0.12750857749E+02  0.43202690617E+02 -0.11993400957E+03  0.12818227608E+03  0.41800000000E+01 0. -1.
        -11    1    1    2    0    0  0.17602763505E+02 -0.27842740621E+02 -0.84791346423E+02  0.90965091747E+02  0.00000000000E+00 0.  1.
         11    1    1    2    0    0 -0.10590609439E+02  0.61403750485E+02 -0.91462879905E+02  0.11067086330E+03  0.00000000000E+00 0. -1.
</event>
<event>
 7    1  0.2728221E-009  0.1872875E+03  0.7561462E-02  0.1160931E+00
          2   -1    0    0  501    0  0.00000000000E+00  0.00000000000E+00  0.27091336404E+04  0.27091336404E+04  0.00000000000E+00 0. -1.
         -2   -1    0    0    0  501 -0.00000000000E+00 -0.00000000000E+00 -0.14224989117E+02  0.14224989117E+02  0.00000000000E+00 0.  1.
         25    2    1    2    0    0 -0.51349412387E+02 -0.14722749288E+03  0.17589059471E+04  0.17702280298E+04  0.12507777550E+03 0.  0.
          5    1    3    3  502    0 -0.24753585323E+02 -0.16510499604E+03  0.15197966298E+04  0.15289446256E+04  0.41800000000E+01 0. -1.
         -5    1    3    3    0  502 -0.26595827064E+02  0.17877503160E+02  0.23910931729E+03  0.24128340422E+03  0.41800000000E+01 0. -1.
        -11    1    1    2    0    0  0.31814980494E+02  0.15187807508E+03  0.88134068995E+03  0.89489695185E+03  0.00000000000E+00 0.  1.
         11    1    1    2    0    0  0.19534431893E+02 -0.46505821930E+01  0.54662014270E+02  0.58233647904E+02  0.00000000000E+00 0. -1.
</event>
<event>
 7    1  0.2728221E-009  0.2518657E+03  0.7561462E-02  0.1112131E+00
         -1   -1    0    0    0  501 -0.00000000000E+00  0.00000000000E+00  0.36099408254E+03  0.36099408254E+03  0.00000000000E+00 0.  1.
          1   -1    0    0  501    0  0.00000000000E+00 -0.00000000000E+00 -0.20332671133E+03  0.20332671133E+03  0.00000000000E+00 0. -1.
         25    2    1    2    0    0 -0.24195237424E+03 -0.51352629983E+01  0.14298852111E+03  0.30767082824E+03  0.12509316151E+03 0.  0.
          5    1    3    3  502    0 -0.17405772759E+03 -0.37534472778E+02  0.14882258132E+03  0.23210032807E+03  0.41800000000E+01 0.  1.
         -5    1    3    3    0  502 -0.67894646646E+02  0.32399209779E+02 -0.58340602040E+01  0.75570500171E+02  0.41800000000E+01 0.  1.
        -11    1    1    2    0    0  0.55476728572E+02  0.28458177734E+02 -0.20141906460E+02  0.65522757030E+02  0.00000000000E+00 0. -1.
         11    1    1    2    0    0  0.18647564566E+03 -0.23322914735E+02  0.34820756559E+02  0.19112720859E+03  0.00000000000E+00 0.  1.
</event>
<event>
 7    1  0.2728221E-009  0.1564034E+03  0.7561462E-02  0.1192818E+00
          2   -1    0    0  501    0  0.00000000000E+00  0.00000000000E+00  0.11399106490E+03  0.11399106490E+03  0.00000000000E+00 0. -1.
         -2   -1    0    0    0  501 -0.00000000000E+00 -0.00000000000E+00 -0.36203731850E+03  0.36203731850E+03  0.00000000000E+00 0.  1.
         25    2    1    2    0    0  0.15091926431E+03 -0.27269956072E+01 -0.22006714413E+03  0.29472306350E+03  0.12509226750E+03 0.  0.
          5    1    3    3  502    0 -0.26108098607E+01 -0.41375012275E+01 -0.98848621519E+02  0.99057849869E+02  0.41800000000E+01 0.  1.
         -5    1    3    3    0  502  0.15353007417E+03  0.14105056203E+01 -0.12121852261E+03  0.19566521363E+03  0.41800000000E+01 0.  1.
        -11    1    1    2    0    0 -0.64660747495E+02  0.12859189212E+02  0.34411142460E+02  0.74367316337E+02  0.00000000000E+00 0. -1.
         11    1    1    2    0    0 -0.86258516813E+02 -0.10132193605E+02 -0.62390251931E+02  0.10693800356E+03  0.00000000000E+00 0.  1.
</event>
<event>
 7    1  0.2728221E-009  0.8526655E+02  0.7561462E-02  0.1314737E+00
          1   -1    0    0  501    0  0.00000000000E+00  0.00000000000E+00  0.22331684726E+03  0.22331684726E+03  0.00000000000E+00 0. -1.
         -1   -1    0    0    0  501 -0.00000000000E+00 -0.00000000000E+00 -0.51682741544E+02  0.51682741544E+02  0.00000000000E+00 0.  1.
         25    2    1    2    0    0 -0.28369426888E+02  0.18096519079E+01  0.87673634289E+02  0.15537374871E+03  0.12508491682E+03 0.  0.
          5    1    3    3  502    0 -0.44152041557E+02 -0.52374985709E+02  0.31076469077E+02  0.75337648171E+02  0.41800000000E+01 0.  1.
         -5    1    3    3    0  502  0.15782614669E+02  0.54184637617E+02  0.56597165212E+02  0.80036100539E+02  0.41800000000E+01 0.  1.
        -11    1    1    2    0    0  0.52743954032E+01  0.15550380016E+02 -0.11396591104E+02  0.19987892693E+02  0.00000000000E+00 0.  1.
         11    1    1    2    0    0  0.23095031485E+02 -0.17360031924E+02  0.95357062526E+02  0.99637947396E+02  0.00000000000E+00 0. -1.
</event>
<event>
 7    1  0.2774417E-009  0.8818149E+02  0.7561462E-02  0.1307316E+00
         -1   -1    0    0    0  501 -0.00000000000E+00  0.00000000000E+00  0.22773386777E+02  0.22773386777E+02  0.00000000000E+00 0.  1.
          1   -1    0    0  501    0  0.00000000000E+00 -0.00000000000E+00 -0.76820147236E+03  0.76820147236E+03  0.00000000000E+00 0. -1.
         25    2    1    2    0    0  0.69698348849E+00 -0.34756880282E+02 -0.61027390498E+03  0.62393111066E+03  0.12508902927E+03 0.  0.
          5    1    3    3  502    0 -0.55070617417E+02 -0.34300207234E+00 -0.39566631127E+03  0.39950243157E+03  0.41800000000E+01 0. -1.
         -5    1    3    3    0  502  0.55767600905E+02 -0.34413878210E+02 -0.21460759370E+03  0.22442867909E+03  0.41800000000E+01 0. -1.
        -11    1    1    2    0    0 -0.20899426961E+02  0.90539604785E+01  0.48384151158E+01  0.23284555149E+02  0.00000000000E+00 0.  1.
         11    1    1    2    0    0  0.20202443473E+02  0.25702919804E+02 -0.13999259572E+03  0.14375919332E+03  0.00000000000E+00 0. -1.
</event>
<event>
 7    1  0.2728221E-009  0.6942669E+02  0.7561462E-02  0.1362054E+00
          2   -1    0    0  501    0  0.00000000000E+00  0.00000000000E+00  0.33376907538E+03  0.33376907538E+03  0.00000000000E+00 0. -1.
         -2   -1    0    0    0  501 -0.00000000000E+00 -0.00000000000E+00 -0.80397489766E+02  0.80397489766E+02  0.00000000000E+00 0.  1.
         25    2    1    2    0    0  0.38790493393E+02 -0.34624351759E+02 -0.18146575786E+01  0.13547715186E+03  0.12508883876E+03 0.  0.
          5    1    3    3  502    0 -0.23508321374E+01 -0.70623089694E+01  0.57480005565E+02  0.58110464286E+02  0.41800000000E+01 0. -1.
         -5    1    3    3    0  502  0.41141325530E+02 -0.27562042789E+02 -0.59294663144E+02  0.77366687576E+02  0.41800000000E+01 0. -1.
        -11    1    1    2    0    0 -0.36180914118E+02 -0.87041064630E+01  0.25920623718E+02  0.45350840672E+02  0.00000000000E+00 0.  1.
         11    1    1    2    0    0 -0.26095792753E+01  0.43328458222E+02  0.22926561947E+03  0.23333857261E+03  0.00000000000E+00 0. -1.
</event>
<event>
 7    1  0.2728221E-009  0.1382314E+03  0.7561462E-02  0.1215729E+00
         -1   -1    0    0    0  501 -0.00000000000E+00  0.00000000000E+00  0.30867649106E+02  0.30867649106E+02  0.00000000000E+00 0.  1.
          1   -1    0    0  501    0  0.00000000000E+00 -0.00000000000E+00 -0.88835456800E+03  0.88835456800E+03  0.00000000000E+00 0. -1.
         25    2    1    2    0    0  0.10055620547E+03  0.60829373794E+02 -0.57302807796E+03  0.59818059162E+03  0.12508828434E+03 0.  0.
          5    1    3    3  502    0  0.34380854834E+02 -0.79883252498E+01 -0.39081544251E+03  0.39242838713E+03  0.41800000000E+01 0.  1.
         -5    1    3    3    0  502  0.66175350638E+02  0.68817699044E+02 -0.18221263545E+03  0.20575220449E+03  0.41800000000E+01 0.  1.
        -11    1    1    2    0    0 -0.53786062823E+02  0.15377215511E+02 -0.77379712994E+02  0.95483083810E+02  0.00000000000E+00 0.  1.
         11    1    1    2    0    0 -0.46770142648E+02 -0.76206589305E+02 -0.20707912794E+03  0.22555854168E+03  0.00000000000E+00 0. -1.
</event>
<event>
 7    1  0.2728221E-009  0.9667057E+02  0.7561462E-02  0.1287457E+00
          2   -1    0    0  501    0  0.00000000000E+00  0.00000000000E+00  0.48465369658E+02  0.48465369658E+02  0.00000000000E+00 0. -1.
         -2   -1    0    0    0  501 -0.00000000000E+00 -0.00000000000E+00 -0.24960689113E+03  0.24960689113E+03  0.00000000000E+00 0.  1.
         25    2    1    2    0    0  0.19899524448E+01 -0.15255306347E+02 -0.97460012524E+02  0.15931657364E+03  0.12508649932E+03 0.  0.
          5    1    3    3  502    0  0.38325564857E+02 -0.46812910164E+02 -0.13007462654E+02  0.62023898332E+02  0.41800000000E+01 0. -1.
         -5    1    3    3    0  502 -0.36335612412E+02  0.31557603817E+02 -0.84452549870E+02  0.97292675303E+02  0.41800000000E+01 0. -1.
        -11    1    1    2    0    0 -0.77643359236E+01 -0.33959831524E+02 -0.16660450774E+02  0.38615096653E+02  0.00000000000E+00 0.  1.
         11    1    1    2    0    0  0.57743834788E+01  0.49215137871E+02 -0.87021058177E+02  0.10014059050E+03  0.00000000000E+00 0. -1.
</event>
<event>
 7    1  0.2728221E-009  0.9964849E+02  0.7561462E-02  0.1281037E+00
         -2   -1    0    0    0  501 -0.00000000000E+00  0.00000000000E+00  0.20198791619E+03  0.20198791619E+03  0.00000000000E+00 0.  1.
          2   -1    0    0  501    0  0.00000000000E+00 -0.00000000000E+00 -0.74302958561E+02  0.74302958561E+02  0.00000000000E+00 0. -1.
         25    2    1    2    0    0 -0.16900462762E+02  0.50654775579E+02  0.10019464578E+03  0.16892958333E+03  0.12508679047E+03 0.  0.
          5    1    3    3  502    0 -0.47613142094E+02  0.19454838195E+02  0.11206577873E+03  0.12337630725E+03  0.41800000000E+01 0. -1.
         -5    1    3    3    0  502  0.30712679333E+02  0.31199937384E+02 -0.11871132944E+02  0.45553276083E+02  0.41800000000E+01 0. -1.
        -11    1    1    2    0    0  0.53667241550E+02 -0.28078424882E+02  0.14129787386E+02  0.62195029151E+02  0.00000000000E+00 0. -1.
         11    1    1    2    0    0 -0.36766778789E+02 -0.22576350696E+02  0.13360524461E+02  0.45166262266E+02  0.00000000000E+00 0.  1.
</event>
<event>
 7    1  0.2728221E-009  0.1071772E+03  0.7561462E-02  0.1265888E+00
          1   -1    0    0  501    0  0.00000000000E+00  0.00000000000E+00  0.48418144260E+03  0.48418144260E+03  0.00000000000E+00 0. -1.
         -1   -1    0    0    0  501 -0.00000000000E+00 -0.00000000000E+00 -0.30400202676E+02  0.30400202676E+02  0.00000000000E+00 0.  1.
         25    2    1    2    0    0 -0.36754622219E+02 -0.15964923219E+02  0.34336754302E+03  0.36764240203E+03  0.12511548724E+03 0.  0.
          5    1    3    3  502    0 -0.81488038754E+02 -0.25223748815E+02  0.21651363373E+03  0.23274914383E+03  0.41800000000E+01 0. -1.
         -5    1    3    3    0  502  0.44733416535E+02  0.92588255966E+01  0.12685390929E+03  0.13489325820E+03  0.41800000000E+01 0. -1.
        -11    1    1    2    0    0  0.12479303227E+02  0.44149560318E+02  0.21719733193E+02  0.50760846085E+02  0.00000000000E+00 0.  1.
         11    1    1    2    0    0  0.24275318992E+02 -0.28184637099E+02  0.88693963712E+02  0.96178397156E+02  0.00000000000E+00 0. -1.
</event>
<event>
 7    1  0.2728221E-009  0.1320809E+03  0.7561462E-02  0.1224400E+00
          2   -1    0    0  501    0  0.00000000000E+00  0.00000000000E+00  0.11534157245E+04  0.11534157245E+04  0.00000000000E+00 0. -1.
         -2   -1    0    0    0  501 -0.00000000000E+00 -0.00000000000E+00 -0.26502838297E+02  0.26502838297E+02  0.00000000000E+00 0.  1.
         25    2    1    2    0    0 -0.76802567652E+02 -0.20676947350E+02  0.96339748727E+03  0.97473608389E+03  0.12509813837E+03 0.  0.
          5    1    3    3  502    0 -0.19380061879E+02 -0.66525289012E+02  0.59679936215E+03  0.60082289565E+03  0.41800000000E+01 0.  1.
         -5    1    3    3    0  502 -0.57422505772E+02  0.45848341663E+02  0.36659812512E+03  0.37391318825E+03  0.41800000000E+01 0.  1.
        -11    1    1    2    0    0 -0.14142546854E+02 -0.17510530867E+02  0.49787339742E+02  0.54638901172E+02  0.00000000000E+00 0. -1.
         11    1    1    2    0    0  0.90945114506E+02  0.38187478216E+02  0.11372805915E+03  0.15054357769E+03  0.00000000000E+00 0.  1.
</event>
<event>
 7    1  0.2728221E-009  0.9906439E+02  0.7561462E-02  0.1282276E+00
          2   -1    0    0  501    0  0.00000000000E+00  0.00000000000E+00  0.32680236255E+03  0.32680236255E+03  0.00000000000E+00 0. -1.
         -2   -1    0    0    0  501 -0.00000000000E+00 -0.00000000000E+00 -0.65309526758E+02  0.65309526758E+02  0.00000000000E+00 0.  1.
         25    2    1    2    0    0  0.62718799429E+02  0.20355327126E+02  0.45318748497E+02  0.14848782989E+03  0.12508740750E+03 0.  0.
          5    1    3    3  502    0  0.74399589334E+02  0.15643479409E+02 -0.22489532851E+02  0.79393128349E+02  0.41800000000E+01 0.  1.
         -5    1    3    3    0  502 -0.11680789906E+02  0.47118477164E+01  0.67808281348E+02  0.69094701541E+02  0.41800000000E+01 0.  1.
        -11    1    1    2    0    0 -0.16652608013E+02 -0.50826248081E+02  0.75755704297E+02  0.92733724077E+02  0.00000000000E+00 0. -1.
         11    1    1    2    0    0 -0.46066191415E+02  0.30470920956E+02  0.14041838300E+03  0.15089033534E+03  0.00000000000E+00 0.  1.
</event>
<event>
 7    1  0.2728221E-009  0.9867309E+02  0.7561462E-02  0.1283111E+00
         -1   -1    0    0    0  501 -0.00000000000E+00  0.00000000000E+00  0.10613728554E+03  0.10613728554E+03  0.00000000000E+00 0.  1.
          1   -1    0    0  501    0  0.00000000000E+00 -0.00000000000E+00 -0.20024005367E+03  0.20024005367E+03  0.00000000000E+00 0. -1.
         25    2    1    2    0    0  0.44891211069E+02  0.59276702905E+02 -0.11804574511E+03  0.18737513728E+03  0.12508275578E+03 0.  0.
          5    1    3    3  502    0  0.64428255672E+02  0.39969659739E+02 -0.10932784666E+02  0.76717481770E+02  0.41800000000E+01 0.  1.
         -5    1    3    3    0  502 -0.19537044603E+02  0.19307043166E+02 -0.10711296044E+03  0.11065765551E+03  0.41800000000E+01 0.  1.
        -11    1    1    2    0    0 -0.38558767993E+02 -0.48827055414E+01 -0.24453885700E+02  0.45919624654E+02  0.00000000000E+00 0. -1.
         11    1    1    2    0    0 -0.63324430759E+01 -0.54393997364E+02  0.48396862676E+02  0.73082577277E+02  0.00000000000E+00 0.  1.
</event>
<event>
 7    1  0.2728221E-009  0.7807253E+02  0.7561462E-02  0.1334612E+00
          3   -1    0    0  501    0  0.00000000000E+00  0.00000000000E+00  0.58599298578E+02  0.58599298578E+02  0.00000000000E+00 0. -1.
         -3   -1    0    0    0  501 -0.00000000000E+00 -0.00000000000E+00 -0.27551888103E+03  0.27551888103E+03  0.00000000000E+00 0.  1.
         25    2    1    2    0    0 -0.10530451652E+02 -0.34614063811E+02 -0.18394714846E+03  0.22537271323E+03  0.12508909871E+03 0.  0.
          5    1    3    3  502    0 -0.11442261318E+02  0.40617876078E+02 -0.24395356044E+02  0.48921804931E+02  0.41800000000E+01 0.  1.
         -5    1    3    3    0  502  0.91180966607E+00 -0.75231939889E+02 -0.15955179242E+03  0.17645090830E+03  0.41800000000E+01 0.  1.
        -11    1    1    2    0    0  0.46422498289E+00  0.23050179144E+02 -0.67305586329E+02  0.71144699132E+02  0.00000000000E+00 0.  1.
         11    1    1    2    0    0  0.10066226669E+02  0.11563884667E+02  0.34333152338E+02  0.37600767245E+02  0.00000000000E+00 0. -1.
</event>
<event>
 7    1  0.2728221E-009  0.1237807E+03  0.7561462E-02  0.1236987E+00
          1   -1    0    0  501    0  0.00000000000E+00  0.00000000000E+00  0.12958803246E+04  0.12958803246E+04  0.00000000000E+00 0. -1.
         -1   -1    0    0    0  501 -0.00000000000E+00 -0.00000000000E+00 -0.26311546491E+02  0.26311546491E+02  0.00000000000E+00 0.  1.
         25    2    1    2    0    0  0.65071505310E+02  0.58386678532E+02  0.11012752413E+04  0.11117988917E+04  0.12508522460E+03 0.  0.
          5    1    3    3  502    0  0.60335502775E+02  0.96532394248E+02  0.81244093753E+03  0.82038809438E+03  0.41800000000E+01 0. -1.
         -5    1    3    3    0  502  0.47360025353E+01 -0.38145715717E+02  0.28883430380E+03  0.29141079733E+03  0.41800000000E+01 0. -1.
        -11    1    1    2    0    0 -0.40195795300E+02 -0.11341160293E+02  0.93800845595E+01  0.42805488701E+02  0.00000000000E+00 0.  1.
         11    1    1    2    0    0 -0.24875710009E+02 -0.47045518239E+02  0.15891345222E+03  0.16758749067E+03  0.00000000000E+00 0. -1.
</event>
<event>
 7    1  0.4844813E-009  0.1238990E+03  0.7561462E-02  0.1236800E+00
         -2   -1    0    0    0  501 -0.00000000000E+00  0.00000000000E+00  0.28128994845E+02  0.28128994845E+02  0.00000000000E+00 0.  1.
          2   -1    0    0  501    0  0.00000000000E+00 -0.00000000000E+00 -0.63076090993E+03  0.63076090993E+03  0.00000000000E+00 0. -1.
         25    2    1    2    0    0  0.24814987817E+02 -0.72325237220E+02 -0.35058464539E+03  0.38000711578E+03  0.12509632648E+03 0.  0.
          5    1    3    3  502    0  0.35932448747E+02  0.19441295814E+02 -0.45942673884E+02  0.61622289308E+02  0.41800000000E+01 0. -1.
         -5    1    3    3    0  502 -0.11117460930E+02 -0.91766533034E+02 -0.30464197151E+03  0.31838482647E+03  0.41800000000E+01 0. -1.
        -11    1    1    2    0    0 -0.46353422335E+02  0.88797567580E+01 -0.66001943012E+02  0.81140287919E+02  0.00000000000E+00 0.  1.
         11    1    1    2    0    0  0.21538434517E+02  0.63445480462E+02 -0.18604532668E+03  0.19774250108E+03  0.00000000000E+00 0. -1.
</event>
<event>
 7    1  0.2728221E-009  0.1175936E+03  0.7561462E-02  0.1247120E+00
         -2   -1    0    0    0  501 -0.00000000000E+00  0.00000000000E+00  0.49287893320E+02  0.49287893320E+02  0.00000000000E+00 0.  1.
          2   -1    0    0  501    0  0.00000000000E+00 -0.00000000000E+00 -0.34398858440E+03  0.34398858440E+03  0.00000000000E+00 0. -1.
         25    2    1    2    0    0 -0.70892276185E+02  0.44900328542E+02 -0.20146366779E+03  0.25155274503E+03  0.12509764093E+03 0.  0.
          5    1    3    3  502    0 -0.98786876375E+02  0.62406889264E+02 -0.14788289880E+03  0.18852132752E+03  0.41800000000E+01 0.  1.
         -5    1    3    3    0  502  0.27894600190E+02 -0.17506560723E+02 -0.53580768982E+02  0.63031417506E+02  0.41800000000E+01 0.  1.
        -11    1    1    2    0    0  0.23096371326E+02 -0.72012455770E+01  0.63433367094E+01  0.25010762221E+02  0.00000000000E+00 0.  1.
         11    1    1    2    0    0  0.47795904859E+02 -0.37699082965E+02 -0.99580359999E+02  0.11671297047E+03  0.00000000000E+00 0. -1.
</event>
<event>
 7    1  0.2728221E-009  0.1377111E+03  0.7561462E-02  0.1216442E+00
          2   -1    0    0  501    0  0.00000000000E+00  0.00000000000E+00  0.13792360772E+04  0.13792360772E+04  0.00000000000E+00 0. -1.
         -2   -1    0    0    0  501 -0.00000000000E+00 -0.00000000000E+00 -0.19691625839E+02  0.19691625839E+02  0.00000000000E+00 0.  1.
         25    2    1    2    0    0 -0.89989038334E+02  0.33928404154E+02  0.10545075821E+04  0.10662473591E+04  0.12509207161E+03 0.  0.
          5    1    3    3  502    0 -0.91907356866E+02  0.64552967231E+02  0.96523148080E+03  0.97175271121E+03  0.41800000000E+01 0.  1.
         -5    1    3    3    0  502  0.19183185318E+01 -0.30624563077E+02  0.89276101339E+02  0.94494647891E+02  0.41800000000E+01 0.  1.
        -11    1    1    2    0    0  0.66526994788E+02 -0.65079867461E+02  0.19861544763E+03  0.21933838292E+03  0.00000000000E+00 0.  1.
         11    1    1    2    0    0  0.23462043546E+02  0.31151463307E+02  0.10642142161E+03  0.11334196103E+03  0.00000000000E+00 0. -1.
</event>
<event>
 7    1  0.2728221E-009  0.3178061E+03  0.7561462E-02  0.1076663E+00
         -2   -1    0    0    0  501 -0.00000000000E+00  0.00000000000E+00  0.11780096551E+03  0.11780096551E+03  0.00000000000E+00 0.  1.
          2   -1    0    0  501    0  0.00000000000E+00 -0.00000000000E+00 -0.10308908348E+04  0.10308908348E+04  0.00000000000E+00 0. -1.
         25    2    1    2    0    0  0.47160707149E+02 -0.29826899311E+03 -0.68264964680E+03  0.75686603438E+03  0.12508848540E+03 0.  0.
          5    1    3    3  502    0 -0.63001972113E+01  0.69785425879E+01 -0.65128721828E+02  0.65936449316E+02  0.41800000000E+01 0. -1.
         -5    1    3    3    0  502  0.53460904360E+02 -0.30524753570E+03 -0.61752092497E+03  0.69092958507E+03  0.41800000000E+01 0. -1.
        -11    1    1    2    0    0 -0.74741312653E+02  0.20855248612E+03 -0.14401325370E+03  0.26423516141E+03  0.00000000000E+00 0.  1.
         11    1    1    2    0    0  0.27580605505E+02  0.89716506990E+02 -0.86426968764E+02  0.12759060450E+03  0.00000000000E+00 0. -1.
</event>
<event>
 7    1  0.2728221E-009  0.1252025E+03  0.7561462E-02  0.1234753E+00
          2   -1    0    0  501    0  0.00000000000E+00  0.00000000000E+00  0.97780226230E+03  0.97780226230E+03  0.00000000000E+00 0. -1.
         -2   -1    0    0    0  501 -0.00000000000E+00 -0.00000000000E+00 -0.16694768499E+02  0.16694768499E+02  0.00000000000E+00 0.  1.
         25    2    1    2    0    0  0.62115838531E+02 -0.28547460989E+02  0.54874003045E+03  0.56695406456E+03  0.12509178780E+03 0.  0.
          5    1    3    3  502    0  0.96532526242E+02 -0.72366803136E+01  0.31062004505E+03  0.32538159590E+03  0.41800000000E+01 0.  1.
         -5    1    3    3    0  502 -0.34416687710E+02 -0.21310780675E+02  0.23811998540E+03  0.24157246866E+03  0.41800000000E+01 0.  1.
        -11    1    1    2    0    0 -0.84268063580E+02  0.11897105101E+02  0.30387483225E+03  0.31556704727E+03  0.00000000000E+00 0.  1.
         11    1    1    2    0    0  0.22152225048E+02  0.16650355888E+02  0.10849263110E+03  0.11197591897E+03  0.00000000000E+00 0. -1.
</event>
<event>
 7    1  0.2728221E-009  0.1043835E+03  0.7561462E-02  0.1271339E+00
          1   -1    0    0  501    0  0.00000000000E+00  0.00000000000E+00  0.28788388190E+03  0.28788388190E+03  0.00000000000E+00 0. -1.
         -1   -1    0    0    0  501 -0.00000000000E+00 -0.00000000000E+00 -0.85082190093E+02  0.85082190093E+02  0.00000000000E+00 0.  1.
         25    2    1    2    0    0  0.48407752539E+01 -0.20322746283E+02  0.24067087770E+03  0.27204115141E+03  0.12508984598E+03 0.  0.
          5    1    3    3  502    0 -0.50497685422E+02 -0.30449870335E+02  0.17877111923E+03  0.18829178502E+03  0.41800000000E+01 0.  1.
         -5    1    3    3    0  502  0.55338460676E+02  0.10127124052E+02  0.61899758464E+02  0.83749366382E+02  0.41800000000E+01 0.  1.
        -11    1    1    2    0    0 -0.47560453503E+02  0.16529229203E+02 -0.16334036914E+02  0.52934043086E+02  0.00000000000E+00 0.  1.
         11    1    1    2    0    0  0.42719678250E+02  0.37935170802E+01 -0.21535148977E+02  0.47990877498E+02  0.00000000000E+00 0. -1.
</event>
<event>
 7    1  0.2728221E-009  0.1194068E+03  0.7561462E-02  0.1244079E+00
          2   -1    0    0  501    0  0.00000000000E+00  0.00000000000E+00  0.16940093865E+03  0.16940093865E+03  0.00000000000E+00 0. -1.
         -2   -1    0    0    0  501 -0.00000000000E+00 -0.00000000000E+00 -0.10137766027E+03  0.10137766027E+03  0.00000000000E+00 0.  1.
         25    2    1    2    0    0 -0.30155260805E+02 -0.66116657780E+02  0.24092311352E+02  0.14665970760E+03  0.12509147923E+03 0.  0.
          5    1    3    3  502    0 -0.74843782588E+02 -0.64719680796E+02  0.23344985483E+02  0.10174816766E+03  0.41800000000E+01 0.  1.
         -5    1    3    3    0  502  0.44688521784E+02 -0.13969769835E+01  0.74732586894E+00  0.44911539941E+02  0.41800000000E+01 0.  1.
        -11    1    1    2    0    0 -0.18847185696E+02  0.21645688084E+02  0.50016546165E+02  0.57666342970E+02  0.00000000000E+00 0. -1.
         11    1    1    2    0    0  0.49002446501E+02  0.44470969696E+02 -0.60855791411E+01  0.66452548351E+02  0.00000000000E+00 0.  1.
</event>
<event>
 7    1  0.2728221E-009  0.2208102E+03  0.7561462E-02  0.1133280E+00
          1   -1    0    0  501    0  0.00000000000E+00  0.00000000000E+00  0.82991390331E+03  0.82991390331E+03  0.00000000000E+00 0. -1.
         -1   -1    0    0    0  501 -0.00000000000E+00 -0.00000000000E+00 -0.70124329724E+02  0.70124329724E+02  0.00000000000E+00 0.  1.
         25    2    1    2    0    0  0.10627770419E+03 -0.18657563961E+03  0.41822555097E+03  0.48648652012E+03  0.12510436871E+03 0.  0.
          5    1    3    3  502    0  0.10851740173E+03 -0.15516094973E+03  0.24138383115E+03  0.30681358044E+03  0.41800000000E+01 0. -1.
         -5    1    3    3    0  502 -0.22396975449E+01 -0.31414689876E+02  0.17684171982E+03  0.17967293968E+03  0.41800000000E+01 0. -1.
        -11    1    1    2    0    0 -0.62547022626E+02  0.60515145499E+02  0.20458588453E+03  0.22232767939E+03  0.00000000000E+00 0. -1.
         11    1    1    2    0    0 -0.43730681560E+02  0.12606049411E+03  0.13697813809E+03  0.19122403353E+03  0.00000000000E+00 0.  1.
</event>
<event>
 7    1  0.2826092E-009  0.1198420E+03  0.7561462E-02  0.1243358E+00
          2   -1    0    0  501    0  0.00000000000E+00  0.00000000000E+00  0.90839053587E+03  0.90839053587E+03  0.00000000000E+00 0. -1.
         -2   -1    0    0    0  501 -0.00000000000E+00 -0.00000000000E+00 -0.20979757092E+02  0.20979757092E+02  0.00000000000E+00 0.  1.
         25    2    1    2    0    0  0.20973587291E+02  0.80475536598E+02  0.54081316454E+03  0.56128701451E+03  0.12509208752E+03 0.  0.
          5    1    3    3  502    0  0.13188692268E+02 -0.24640964454E+02  0.37045857458E+02  0.46593848175E+02  0.41800000000E+01 0. -1.
         -5    1    3    3    0  502  0.77848950235E+01  0.10511650105E+03  0.50376730708E+03  0.51469316633E+03  0.41800000000E+01 0. -1.
        -11    1    1    2    0    0 -0.42906047246E+02 -0.68821868780E+02  0.32563673182E+03  0.33558405747E+03  0.00000000000E+00 0. -1.
         11    1    1    2    0    0  0.21932459955E+02 -0.11653667819E+02  0.20960882412E+02  0.32499220988E+02  0.00000000000E+00 0.  1.
</event>
<event>
 7    1  0.2728221E-009  0.8444850E+02  0.7561462E-02  0.1316881E+00
          1   -1    0    0  501    0  0.00000000000E+00  0.00000000000E+00  0.10377787959E+03  0.10377787959E+03  0.00000000000E+00 0. -1.
         -1   -1    0    0    0  501 -0.00000000000E+00 -0.00000000000E+00 -0.13828023814E+03  0.13828023814E+03  0.00000000000E+00 0.  1.
         25    2    1    2    0    0 -0.22195261222E+02 -0.10783802910E+02 -0.63802369264E+02  0.14256792934E+03  0.12508378043E+03 0.  0.
          5    1    3    3  502    0  0.21152230322E+02  0.21787736556E+02 -0.80125937514E+02  0.85789046936E+02  0.41800000000E+01 0.  1.
         -5    1    3    3    0  502 -0.43347491544E+02 -0.32571539466E+02  0.16323568249E+02  0.56778882401E+02  0.41800000000E+01 0.  1.
        -11    1    1    2    0    0  0.19725261696E+02 -0.33840535626E+02 -0.94997803328E+01  0.40305255573E+02  0.00000000000E+00 0.  1.
         11    1    1    2    0    0  0.24699995259E+01  0.44624338536E+02  0.38799791043E+02  0.59184932816E+02  0.00000000000E+00 0. -1.
</event>
<event>
 7    1  0.2728221E-009  0.9747384E+02  0.7561462E-02  0.1285700E+00
          3   -1    0    0  501    0  0.00000000000E+00  0.00000000000E+00  0.21800456517E+03  0.21800456517E+03  0.00000000000E+00 0. -1.
         -3   -1    0    0    0  501 -0.00000000000E+00 -0.00000000000E+00 -0.56295331672E+02  0.56295331672E+02  0.00000000000E+00 0.  1.
         25    2    1    2    0    0 -0.60785660261E+02 -0.35648307934E+02  0.92646396619E+02  0.17086789312E+03  0.12508710462E+03 0.  0.
          5    1    3    3  502    0  0.43696169961E+01  0.30060303371E+02  0.68640508453E+02  0.75177837107E+02  0.41800000000E+01 0.  1.
         -5    1    3    3    0  502 -0.65155277257E+02 -0.65708611305E+02  0.24005888166E+02  0.95690056018E+02  0.41800000000E+01 0.  1.
        -11    1    1    2    0    0  0.42042022137E+02  0.17415229142E+02  0.24291891648E+02  0.51584085058E+02  0.00000000000E+00 0.  1.
         11    1    1    2    0    0  0.18743638124E+02  0.18233078792E+02  0.44770945227E+02  0.51847918655E+02  0.00000000000E+00 0. -1.
</event>
<event>
 7    1  0.2728221E-009  0.1386969E+03  0.7561462E-02  0.1215093E+00
          2   -1    0    0  501    0  0.00000000000E+00  0.00000000000E+00  0.90969141714E+02  0.90969141714E+02  0.00000000000E+00 0. -1.
         -2   -1    0    0    0  501 -0.00000000000E+00 -0.00000000000E+00 -0.26115089913E+03  0.26115089913E+03  0.00000000000E+00 0.  1.
         25    2    1    2    0    0  0.75974969337E+02  0.60385759423E+02 -0.14718597690E+03  0.21617133996E+03  0.12509076912E+03 0.  0.
          5    1    3    3  502    0 -0.10318934257E+02 -0.24477021671E+02 -0.17934970996E+01  0.26949842781E+02  0.41800000000E+01 0. -1.
         -5    1    3    3    0  502  0.86293903594E+02  0.84862781095E+02 -0.14539247980E+03  0.18922149718E+03  0.41800000000E+01 0. -1.
        -11    1    1    2    0    0 -0.93121692229E+02 -0.36547481374E+02 -0.32338211022E+02  0.10513385682E+03  0.00000000000E+00 0.  1.
         11    1    1    2    0    0  0.17146722892E+02 -0.23838278050E+02  0.93424305090E+01  0.30814844055E+02  0.00000000000E+00 0. -1.
</event>
<event>
 7    1  0.2728221E-009  0.1989051E+03  0.7561462E-02  0.1150666E+00
          2   -1    0    0  501    0  0.00000000000E+00  0.00000000000E+00  0.50564668625E+03  0.50564668625E+03  0.00000000000E+00 0.  1.
         -2   -1    0    0    0  501 -0.00000000000E+00 -0.00000000000E+00 -0.86611563327E+02  0.86611563327E+02  0.00000000000E+00 0. -1.
         25    2    1    2    0    0 -0.37148991081E+02 -0.17459319690E+03  0.24024393944E+03  0.32438876387E+03  0.12509231689E+03 0.  0.
          5    1    3    3  502    0 -0.83644185094E+02 -0.11244458024E+03  0.15736607295E+03  0.21076452889E+03  0.41800000000E+01 0.  1.
         -5    1    3    3    0  502  0.46495194013E+02 -0.62148616662E+02  0.82877866488E+02  0.11362423497E+03  0.41800000000E+01 0.  1.
        -11    1    1    2    0    0  0.13881504090E+02  0.11607178840E+03  0.16691975490E+03  0.20378312195E+03  0.00000000000E+00 0.  1.
         11    1    1    2    0    0  0.23267486992E+02  0.58521408496E+02  0.11871428595E+02  0.64086363761E+02  0.00000000000E+00 0. -1.
</event>
<event>
 7    1  0.2728221E-009  0.1198455E+03  0.7561462E-02  0.1243352E+00
          1   -1    0    0  501    0  0.00000000000E+00  0.00000000000E+00  0.10023026619E+04  0.10023026619E+04  0.00000000000E+00 0. -1.
         -1   -1    0    0    0  501 -0.00000000000E+00 -0.00000000000E+00 -0.25404454215E+02  0.25404454215E+02  0.00000000000E+00 0.  1.
         25    2    1    2    0    0 -0.52162876523E+02 -0.10363950689E+03  0.58473860565E+03  0.60912125398E+03  0.12508937618E+03 0.  0.
          5    1    3    3  502    0 -0.19513418497E+02 -0.42611751603E+02  0.45538134033E+02  0.65480752343E+02  0.41800000000E+01 0. -1.
         -5    1    3    3    0  502 -0.32649458026E+02 -0.61027755283E+02  0.53920047162E+03  0.54364050163E+03  0.41800000000E+01 0. -1.
        -11    1    1    2    0    0  0.46778472588E+02  0.46677917505E+02  0.93504440725E+02  0.11449949308E+03  0.00000000000E+00 0.  1.
         11    1    1    2    0    0  0.53844039348E+01  0.56961589381E+02  0.29865516130E+03  0.30408636905E+03  0.00000000000E+00 0. -1.
</event>
<event>
 7    1  0.2728221E-009  0.1296385E+03  0.7561462E-02  0.1227993E+00
          1   -1    0    0  501    0  0.00000000000E+00  0.00000000000E+00  0.35769381047E+02  0.35769381047E+02  0.00000000000E+00 0. -1.
         -1   -1    0    0    0  501 -0.00000000000E+00 -0.00000000000E+00 -0.49365471256E+03  0.49365471256E+03  0.00000000000E+00 0.  1.
         25    2    1    2    0    0  0.78510003012E+02  0.12194553721E+02 -0.25122421372E+03  0.29167199935E+03  0.12508565839E+03 0.  0.
          5    1    3    3  502    0  0.55763574461E+02 -0.53996037013E+02 -0.12224594240E+03  0.14486784006E+03  0.41800000000E+01 0.  1.
         -5    1    3    3    0  502  0.22746428551E+02  0.66190590734E+02 -0.12897827132E+03  0.14680415930E+03  0.41800000000E+01 0.  1.
        -11    1    1    2    0    0 -0.83248619587E+02  0.14339111327E+02 -0.11825094836E+03  0.14532456628E+03  0.00000000000E+00 0. -1.
         11    1    1    2    0    0  0.47386165745E+01 -0.26533665048E+02 -0.88410169441E+02  0.92427527980E+02  0.00000000000E+00 0.  1.
</event>
<event>
 7    1  0.2728221E-009  0.1288060E+03  0.7561462E-02  0.1229238E+00
         -2   -1    0    0    0  501 -0.00000000000E+00  0.00000000000E+00  0.66483580790E+02  0.66483580790E+02  0.00000000000E+00 0.  1.
          2   -1    0    0  501    0  0.00000000000E+00 -0.00000000000E+00 -0.56341745420E+03  0.56341745420E+03  0.00000000000E+00 0. -1.
         25    2    1    2    0    0  0.83913030443E+02  0.80811906580E+02 -0.81623945358E+02  0.18942776629E+03  0.12509376188E+03 0.  0.
          5    1    3    3  502    0  0.94670631093E+02  0.67410132977E+02 -0.11216547106E+02  0.11683294804E+03  0.41800000000E+01 0.  1.
         -5    1    3    3    0  502 -0.10757600650E+02  0.13401773603E+02 -0.70407398252E+02  0.72594818245E+02  0.41800000000E+01 0.  1.
        -11    1    1    2    0    0 -0.38128596817E+02 -0.10188136374E+02 -0.41359667705E+02  0.57168261568E+02  0.00000000000E+00 0.  1.
         11    1    1    2    0    0 -0.45784433625E+02 -0.70623770207E+02 -0.37395026035E+03  0.38330500713E+03  0.00000000000E+00 0. -1.
</event>
<event>
 7    1  0.3418299E-009  0.1926709E+03  0.7561462E-02  0.1156074E+00
         -1   -1    0    0    0  501 -0.00000000000E+00  0.00000000000E+00  0.80322004079E+02  0.80322004079E+02  0.00000000000E+00 0.  1.
          1   -1    0    0  501    0  0.00000000000E+00 -0.00000000000E+00 -0.51230707836E+03  0.51230707836E+03  0.00000000000E+00 0. -1.
         25    2    1    2    0    0 -0.15296921023E+03  0.76048183152E+02 -0.23770580411E+03  0.31833095129E+03  0.12509052644E+03 0.  0.
          5    1    3    3  502    0 -0.14890048718E+03  0.10464315990E+03 -0.21206966067E+03  0.27948624183E+03  0.41800000000E+01 0.  1.
         -5    1    3    3    0  502 -0.40687230488E+01 -0.28594976750E+02 -0.25636143434E+02  0.38844709456E+02  0.41800000000E+01 0.  1.
        -11    1    1    2    0    0  0.60514425202E+02 -0.48772744419E+02 -0.28987010694E+02  0.82951932133E+02  0.00000000000E+00 0.  1.
         11    1    1    2    0    0  0.92454785029E+02 -0.27275438733E+02 -0.16529225948E+03  0.19134619901E+03  0.00000000000E+00 0. -1.
</event>
<event>
 7    1  0.2728221E-009  0.1336289E+03  0.7561462E-02  0.1222168E+00
          1   -1    0    0  501    0  0.00000000000E+00  0.00000000000E+00  0.18136822446E+03  0.18136822446E+03  0.00000000000E+00 0. -1.
         -1   -1    0    0    0  501 -0.00000000000E+00 -0.00000000000E+00 -0.15543308669E+03  0.15543308669E+03  0.00000000000E+00 0.  1.
         25    2    1    2    0    0 -0.28895714416E+02 -0.10835887997E+03  0.74503345912E+02  0.18377791542E+03  0.12508782700E+03 0.  0.
          5    1    3    3  502    0  0.68914526313E+01 -0.12551634985E-01  0.68995757612E+02  0.69464949761E+02  0.41800000000E+01 0. -1.
         -5    1    3    3    0  502 -0.35787167047E+02 -0.10834632834E+03  0.55075882999E+01  0.11431296566E+03  0.41800000000E+01 0. -1.
        -11    1    1    2    0    0  0.11828958308E+02  0.12236743212E+03 -0.43128622070E+02  0.13028350141E+03  0.00000000000E+00 0. -1.
         11    1    1    2    0    0  0.17066756108E+02 -0.14008552145E+02 -0.54395860720E+01  0.22739894325E+02  0.00000000000E+00 0.  1.
</event>
<event>
 7    1  0.2977953E-009  0.9882661E+02  0.7561462E-02  0.1282783E+00
          1   -1    0    0  501    0  0.00000000000E+00  0.00000000000E+00  0.67777385020E+03  0.67777385020E+03  0.00000000000E+00 0. -1.
         -1   -1    0    0    0  501 -0.00000000000E+00 -0.00000000000E+00 -0.23396314586E+02  0.23396314586E+02  0.00000000000E+00 0.  1.
         25    2    1    2    0    0 -0.55492450513E+02 -0.27610101573E+02  0.41105017554E+03  0.43411056636E+03  0.12509199512E+03 0.  0.
          5    1    3    3  502    0 -0.82885293080E+02 -0.49865801198E+02  0.22904524599E+03  0.24866798557E+03  0.41800000000E+01 0. -1.
         -5    1    3    3    0  502  0.27392842566E+02  0.22255699624E+02  0.18200492954E+03  0.18544258078E+03  0.41800000000E+01 0. -1.
        -11    1    1    2    0    0  0.99430651460E+01 -0.30326557752E+01 -0.58351725900E+01  0.11921022804E+02  0.00000000000E+00 0.  1.
         11    1    1    2    0    0  0.45549385367E+02  0.30642757348E+02  0.24916253267E+03  0.25513857562E+03  0.00000000000E+00 0. -1.
</event>
<event>
 7    1  0.2728221E-009  0.2651725E+03  0.7561462E-02  0.1104075E+00
          2   -1    0    0  501    0  0.00000000000E+00  0.00000000000E+00  0.10673694395E+04  0.10673694395E+04  0.00000000000E+00 0. -1.
         -2   -1    0    0    0  501 -0.00000000000E+00 -0.00000000000E+00 -0.73111631257E+02  0.73111631257E+02  0.00000000000E+00 0.  1.
         25    2    1    2    0    0 -0.24262674669E+02 -0.25594534389E+03  0.50990812609E+03  0.58459882748E+03  0.12511113295E+03 0.  0.
          5    1    3    3  502    0  0.73009106429E+01 -0.14783598553E+03  0.16478664263E+03  0.22154207705E+03  0.41800000000E+01 0. -1.
         -5    1    3    3    0  502 -0.31563585312E+02 -0.10810935837E+03  0.34512148347E+03  0.36305675043E+03  0.41800000000E+01 0. -1.
        -11    1    1    2    0    0 -0.29266041216E+02  0.65427682151E+02  0.16914569017E+03  0.18370505508E+03  0.00000000000E+00 0.  1.
         11    1    1    2    0    0  0.53528715885E+02  0.19051766174E+03  0.31520399202E+03  0.37217718824E+03  0.00000000000E+00 0. -1.
</event>
<event>
 7    1  0.2728221E-009  0.8811161E+02  0.7561462E-02  0.1307490E+00
          2   -1    0    0  501    0  0.00000000000E+00  0.00000000000E+00  0.12502212048E+03  0.12502212048E+03  0.00000000000E+00 0.  1.
         -2   -1    0    0    0  501 -0.00000000000E+00 -0.00000000000E+00 -0.17820548121E+03  0.17820548121E+03  0.00000000000E+00 0. -1.
         25    2    1    2    0    0 -0.22653351937E+02  0.55010641787E+02 -0.11266949610E+03  0.17855414524E+03  0.12509125616E+03 0.  0.
          5    1    3    3  502    0 -0.37420494939E+01  0.74390073017E+02 -0.12725900485E+03  0.14751343197E+03  0.41800000000E+01 0. -1.
         -5    1    3    3    0  502 -0.18911302443E+02 -0.19379431230E+02  0.14589508745E+02  0.31040713270E+02  0.41800000000E+01 0. -1.
        -11    1    1    2    0    0 -0.13538378652E+02 -0.17110038570E+02  0.68149613839E+02  0.71557047052E+02  0.00000000000E+00 0.  1.
         11    1    1    2    0    0  0.36191730589E+02 -0.37900603216E+02 -0.86634784648E+01  0.53116409388E+02  0.00000000000E+00 0. -1.
</event>
<event>
 7    1  0.2728221E-009  0.1443815E+03  0.7561462E-02  0.1207552E+00
          3   -1    0    0  501    0  0.00000000000E+00  0.00000000000E+00  0.68577371748E+03  0.68577371748E+03  0.00000000000E+00 0. -1.
         -3   -1    0    0    0  501 -0.00000000000E+00 -0.00000000000E+00 -0.39478525841E+02  0.39478525841E+02  0.00000000000E+00 0.  1.
         25    2    1    2    0    0  0.11961176734E+03  0.15995241622E+02  0.37904062382E+03  0.41699347241E+03  0.12509571889E+03 0.  0.
          5    1    3    3  502    0  0.24257318797E+02  0.40281959669E+02  0.34012305429E+02  0.58183873286E+02  0.41800000000E+01 0. -1.
         -5    1    3    3    0  502  0.95354448540E+02 -0.24286718047E+02  0.34502831839E+03  0.35880959912E+03  0.41800000000E+01 0. -1.
        -11    1    1    2    0    0 -0.12378886398E+03 -0.30901615005E+02  0.26282527510E+03  0.29215700896E+03  0.00000000000E+00 0. -1.
         11    1    1    2    0    0  0.41770966470E+01  0.14906373383E+02  0.44292927174E+01  0.16101761947E+02  0.00000000000E+00 0.  1.
</event>
<event>
 7    1  0.2728221E-009  0.4635785E+02  0.7561462E-02  0.1466039E+00
          2   -1    0    0  501    0  0.00000000000E+00  0.00000000000E+00  0.41479956633E+03  0.41479956633E+03  0.00000000000E+00 0. -1.
         -2   -1    0    0    0  501 -0.00000000000E+00 -0.00000000000E+00 -0.31432221667E+02  0.31432221667E+02  0.00000000000E+00 0.  1.
         25    2    1    2    0    0  0.25525837339E+02  0.31497857386E+01  0.17243523436E+03  0.21457537157E+03  0.12508873057E+03 0.  0.
          5    1    3    3  502    0  0.23590747433E+02  0.15467485944E+01 -0.14188907701E+02  0.27887511495E+02  0.41800000000E+01 0.  1.
         -5    1    3    3    0  502  0.19350899057E+01  0.16030371442E+01  0.18662414206E+03  0.18668786008E+03  0.41800000000E+01 0.  1.
        -11    1    1    2    0    0 -0.38175932367E+02 -0.19732046018E+02  0.20571709948E+03  0.21015775139E+03  0.00000000000E+00 0. -1.
         11    1    1    2    0    0  0.12650095028E+02  0.16582260280E+02  0.52150108241E+01  0.21498665031E+02  0.00000000000E+00 0.  1.
</event>
<event>
 7    1  0.2728221E-009  0.8129631E+02  0.7561462E-02  0.1325412E+00
          2   -1    0    0  501    0  0.00000000000E+00  0.00000000000E+00  0.12827270395E+03  0.12827270395E+03  0.00000000000E+00 0. -1.
         -2   -1    0    0    0  501 -0.00000000000E+00 -0.00000000000E+00 -0.10085403123E+03  0.10085403123E+03  0.00000000000E+00 0.  1.
         25    2    1    2    0    0 -0.23830088758E+01 -0.88688517699E+01 -0.14373749936E+02  0.12624729981E+03  0.12508973083E+03 0.  0.
          5    1    3    3  502    0 -0.55985439595E+02  0.24642014693E+02 -0.14015226192E+02  0.62892744415E+02  0.41800000000E+01 0.  1.
         -5    1    3    3    0  502  0.53602430720E+02 -0.33510866463E+02 -0.35852374422E+00  0.63354555396E+02  0.41800000000E+01 0.  1.
        -11    1    1    2    0    0  0.57011048035E+01  0.22854040477E+02 -0.25122841314E+02  0.34437870402E+02  0.00000000000E+00 0.  1.
         11    1    1    2    0    0 -0.33180959277E+01 -0.13985188708E+02  0.66915263971E+02  0.68441564974E+02  0.00000000000E+00 0. -1.
</event>
<event>
 7    1  0.2728221E-009  0.2079365E+03  0.7561462E-02  0.1143211E+00
          2   -1    0    0  501    0  0.00000000000E+00  0.00000000000E+00  0.54902824377E+03  0.54902824377E+03  0.00000000000E+00 0. -1.
         -2   -1    0    0    0  501 -0.00000000000E+00 -0.00000000000E+00 -0.11975999589E+03  0.11975999589E+03  0.00000000000E+00 0.  1.
         25    2    1    2    0    0  0.17206688182E+03  0.78287468311E+02  0.39752178606E+03  0.45760956506E+03  0.12508798553E+03 0.  0.
          5    1    3    3  502    0  0.18530370887E+03  0.65469371123E+02  0.30272500831E+03  0.36094820423E+03  0.41800000000E+01 0. -1.
         -5    1    3    3    0  502 -0.13236827051E+02  0.12818097188E+02  0.94796777753E+02  0.96661360833E+02  0.41800000000E+01 0. -1.
        -11    1    1    2    0    0 -0.73314635391E+02  0.16818494635E+01 -0.16655092978E+02  0.75201439495E+02  0.00000000000E+00 0.  1.
         11    1    1    2    0    0 -0.98752246431E+02 -0.79969317774E+02  0.48401554790E+02  0.13597723510E+03  0.00000000000E+00 0. -1.
</event>
<event>
 7    1  0.2728221E-009  0.1671887E+03  0.7561462E-02  0.1180812E+00
         -2   -1    0    0    0  501 -0.00000000000E+00  0.00000000000E+00  0.36466449949E+03  0.36466449949E+03  0.00000000000E+00 0.  1.
          2   -1    0    0  501    0  0.00000000000E+00 -0.00000000000E+00 -0.87844015669E+02  0.87844015669E+02  0.00000000000E+00 0. -1.
         25    2    1    2    0    0  0.42523729952E+02 -0.12609503074E+03  0.82546635207E+02  0.20040880226E+03  0.12506604915E+03 0.  0.
          5    1    3    3  502    0  0.10027269250E+02  0.20720086694E+02 -0.81279251388E+01  0.24766987872E+02  0.41800000000E+01 0.  1.
         -5    1    3    3    0  502  0.32496460702E+02 -0.14681511744E+03  0.90674560346E+02  0.17564181438E+03  0.41800000000E+01 0.  1.
        -11    1    1    2    0    0 -0.13236067666E+02  0.13029725868E+03  0.16193552505E+03  0.20826829663E+03  0.00000000000E+00 0.  1.
         11    1    1    2    0    0 -0.29287662286E+02 -0.42022279381E+01  0.32338323564E+02  0.43831416276E+02  0.00000000000E+00 0. -1.
</event>
<event>
 7    1  0.2728221E-009  0.1047098E+03  0.7561462E-02  0.1270692E+00
          3   -1    0    0  501    0  0.00000000000E+00  0.00000000000E+00  0.79523052199E+02  0.79523052199E+02  0.00000000000E+00 0. -1.
         -3   -1    0    0    0  501 -0.00000000000E+00 -0.00000000000E+00 -0.27459523678E+03  0.27459523678E+03  0.00000000000E+00 0.  1.
         25    2    1    2    0    0  0.58558964016E+01  0.37963714121E+02 -0.21731623674E+03  0.25367201253E+03  0.12509039963E+03 0.  0.
          5    1    3    3  502    0  0.15535310787E+02 -0.44491491175E+02 -0.69268930737E+02  0.83883823432E+02  0.41800000000E+01 0. -1.
         -5    1    3    3    0  502 -0.96794143854E+01  0.82455205295E+02 -0.14804730600E+03  0.16978818910E+03  0.41800000000E+01 0. -1.
        -11    1    1    2    0    0  0.14047152232E+02  0.16102840425E+02  0.35400175279E+02  0.41349683981E+02  0.00000000000E+00 0. -1.
         11    1    1    2    0    0 -0.19903048634E+02 -0.54066554545E+02 -0.13156123118E+02  0.59096592464E+02  0.00000000000E+00 0.  1.
</event>
<event>
 7    1  0.2728221E-009  0.2879173E+03  0.7561462E-02  0.1091442E+00
         -2   -1    0    0    0  501 -0.00000000000E+00  0.00000000000E+00  0.42139266935E+02  0.42139266935E+02  0.00000000000E+00 0.  1.
          2   -1    0    0  501    0  0.00000000000E+00 -0.00000000000E+00 -0.21518421259E+04  0.21518421259E+04  0.00000000000E+00 0. -1.
         25    2    1    2    0    0  0.18614126856E+03 -0.20568447490E+03 -0.12034973965E+04  0.12413733932E+04  0.12508893936E+03 0.  0.
          5    1    3    3  502    0 -0.79050760637E+01 -0.43856827984E+02 -0.10423973126E+03  0.11344296171E+03  0.41800000000E+01 0. -1.
         -5    1    3    3    0  502  0.19404634462E+03 -0.16182764692E+03 -0.10992576653E+04  0.11279304315E+04  0.41800000000E+01 0. -1.
        -11    1    1    2    0    0 -0.51029053370E+02  0.72444845039E+02 -0.16266279282E+03  0.18523337720E+03  0.00000000000E+00 0.  1.
         11    1    1    2    0    0 -0.13511221519E+03  0.13323962986E+03 -0.74354266955E+03  0.76737462240E+03  0.00000000000E+00 0. -1.
</event>
<event>
 7    1  0.2728221E-009  0.2175769E+03  0.7561462E-02  0.1135703E+00
          2   -1    0    0  501    0  0.00000000000E+00  0.00000000000E+00  0.69489064358E+03  0.69489064358E+03  0.00000000000E+00 0. -1.
         -2   -1    0    0    0  501 -0.00000000000E+00 -0.00000000000E+00 -0.74429686392E+02  0.74429686392E+02  0.00000000000E+00 0.  1.
         25    2    1    2    0    0 -0.17113287138E+03  0.97003656151E+02  0.37969730497E+03  0.44554728536E+03  0.12508465581E+03 0.  0.
          5    1    3    3  502    0 -0.18839600909E+03  0.86236250165E+02  0.31054990538E+03  0.37334764391E+03  0.41800000000E+01 0. -1.
         -5    1    3    3    0  502  0.17263137712E+02  0.10767405985E+02  0.69147399591E+02  0.72199641450E+02  0.41800000000E+01 0. -1.
        -11    1    1    2    0    0  0.11620572999E+03 -0.98296290228E+02  0.21413949310E+03  0.26271972682E+03  0.00000000000E+00 0.  1.
         11    1    1    2    0    0  0.54927141391E+02  0.12926340771E+01  0.26624159116E+02  0.61053317787E+02  0.00000000000E+00 0. -1.
</event>
<event>
 7    1  0.2728221E-009  0.1124098E+03  0.7561462E-02  0.1256171E+00
          1   -1    0    0  501    0  0.00000000000E+00  0.00000000000E+00  0.17580740308E+04  0.17580740308E+04  0.00000000000E+00 0. -1.
         -1   -1    0    0    0  501 -0.00000000000E+00 -0.00000000000E+00 -0.11766609271E+02  0.11766609271E+02  0.00000000000E+00 0.  1.
         25    2    1    2    0    0  0.41977909616E+02  0.28164840198E+02  0.14572280012E+04  0.14634606421E+04  0.12509276697E+03 0.  0.
          5    1    3    3  502    0 -0.38594168715E+02  0.29464047179E+02  0.76388564185E+03  0.76543868870E+03  0.41800000000E+01 0. -1.
         -5    1    3    3    0  502  0.80572078332E+02 -0.12992069811E+01  0.69334235932E+03  0.69802195336E+03  0.41800000000E+01 0. -1.
        -11    1    1    2    0    0  0.16638381312E+02  0.15155818271E+02  0.31685802715E+02  0.38865468656E+02  0.00000000000E+00 0.  1.
         11    1    1    2    0    0 -0.58616290928E+02 -0.43320658469E+02  0.25739361765E+03  0.26751452936E+03  0.00000000000E+00 0. -1.
</event>
<event>
 7    1  0.2728221E-009  0.9401623E+02  0.7561462E-02  0.1293407E+00
         -2   -1    0    0    0  501 -0.00000000000E+00  0.00000000000E+00  0.17532409234E+02  0.17532409234E+02  0.00000000000E+00 0.  1.
          2   -1    0    0  501    0  0.00000000000E+00 -0.00000000000E+00 -0.95130435180E+03  0.95130435180E+03  0.00000000000E+00 0. -1.
         25    2    1    2    0    0 -0.48564983400E+02  0.57150773643E+02 -0.50487025578E+03  0.52551508341E+03  0.12508940476E+03 0.  0.
          5    1    3    3  502    0 -0.31847852718E+02  0.28425863908E+02 -0.37582746658E+02  0.57028507854E+02  0.41800000000E+01 0.  1.
         -5    1    3    3    0  502 -0.16717130681E+02  0.28724909735E+02 -0.46728750912E+03  0.46848657556E+03  0.41800000000E+01 0.  1.
        -11    1    1    2    0    0  0.22752222234E+02  0.19997044117E+02 -0.98516660446E+02  0.10306831606E+03  0.00000000000E+00 0. -1.
         11    1    1    2    0    0  0.25812761166E+02 -0.77147817759E+02 -0.33038502634E+03  0.34025336156E+03  0.00000000000E+00 0.  1.
</event>
<event>
 7    1  0.2728221E-009  0.1127752E+03  0.7561462E-02  0.1255515E+00
          1   -1    0    0  501    0  0.00000000000E+00  0.00000000000E+00  0.41081663111E+03  0.41081663111E+03  0.00000000000E+00 0. -1.
         -1   -1    0    0    0  501 -0.00000000000E+00 -0.00000000000E+00 -0.37796659903E+02  0.37796659903E+02  0.00000000000E+00 0.  1.
         25    2    1    2    0    0 -0.38540474479E+02  0.44107853633E+02  0.26982775232E+03  0.30312788373E+03  0.12509447249E+03 0.  0.
          5    1    3    3  502    0 -0.11051311989E+02  0.81159932796E+02  0.22143955052E+03  0.23613981690E+03  0.41800000000E+01 0. -1.
         -5    1    3    3    0  502 -0.27489162490E+02 -0.37052079163E+02  0.48388201795E+02  0.66988066830E+02  0.41800000000E+01 0. -1.
        -11    1    1    2    0    0  0.64345985690E+01  0.22428235119E+02  0.73266148871E+01  0.24456268624E+02  0.00000000000E+00 0. -1.
         11    1    1    2    0    0  0.32105875910E+02 -0.66536088752E+02  0.95865604000E+02  0.12102913866E+03  0.00000000000E+00 0.  1.
</event>
<event>
 7    1  0.2728221E-009  0.1238535E+03  0.7561462E-02  0.1236872E+00
          2   -1    0    0  501    0  0.00000000000E+00  0.00000000000E+00  0.69517701854E+03  0.69517701854E+03  0.00000000000E+00 0. -1.
         -2   -1    0    0    0  501 -0.00000000000E+00 -0.00000000000E+00 -0.33695612506E+02  0.33695612506E+02  0.00000000000E+00 0.  1.
         25    2    1    2    0    0  0.39624009041E+02 -0.68854705319E+02  0.18295034687E+03  0.23543486209E+03  0.12509081633E+03 0.  0.
          5    1    3    3  502    0  0.72212785734E+02 -0.75353531593E+02  0.94502789931E+02  0.14085840710E+03  0.41800000000E+01 0. -1.
         -5    1    3    3    0  502 -0.32588776693E+02  0.64988262741E+01  0.88447556935E+02  0.94576454982E+02  0.41800000000E+01 0. -1.
        -11    1    1    2    0    0 -0.62530268715E+02  0.48832845818E+02  0.42046014114E+03  0.42788013698E+03  0.00000000000E+00 0. -1.
         11    1    1    2    0    0  0.22906259674E+02  0.20021859500E+02  0.58070918029E+02  0.65557631980E+02  0.00000000000E+00 0.  1.
</event>
<event>
 7    1  0.2728221E-009  0.7122289E+02  0.7561462E-02  0.1355983E+00
          1   -1    0    0  501    0  0.00000000000E+00  0.00000000000E+00  0.20355181301E+03  0.20355181301E+03  0.00000000000E+00 0. -1.
         -1   -1    0    0    0  501 -0.00000000000E+00 -0.00000000000E+00 -0.22695767222E+03  0.22695767222E+03  0.00000000000E+00 0.  1.
         25    2    1    2    0    0  0.10577383162E+02 -0.35514412625E+02  0.16790730431E+03  0.21263913824E+03  0.12509750489E+03 0.  0.
          5    1    3    3  502    0  0.61518196544E+01  0.28925637539E+01 -0.19589344772E+02  0.21152461765E+02  0.41800000000E+01 0. -1.
         -5    1    3    3    0  502  0.44255635076E+01 -0.38406976379E+02  0.18749664909E+03  0.19148667647E+03  0.41800000000E+01 0. -1.
        -11    1    1    2    0    0  0.38835924483E+02  0.20615745605E+02 -0.13259269601E+03  0.13969273794E+03  0.00000000000E+00 0.  1.
         11    1    1    2    0    0 -0.49413307646E+02  0.14898667020E+02 -0.58720467522E+02  0.78177609055E+02  0.00000000000E+00 0. -1.
</event>
<event>
 7    1  0.2728221E-009  0.5351076E+02  0.7561462E-02  0.1427276E+00
         -1   -1    0    0    0  501 -0.00000000000E+00  0.00000000000E+00  0.62347245800E+02  0.62347245800E+02  0.00000000000E+00 0.  1.
          1   -1    0    0  501    0  0.00000000000E+00 -0.00000000000E+00 -0.24340586470E+03  0.24340586470E+03  0.00000000000E+00 0. -1.
         25    2    1    2    0    0 -0.34925927849E+02 -0.67699668959E+01 -0.43937329872E+02  0.13727078617E+03  0.12508847625E+03 0.  0.
          5    1    3    3  502    0 -0.14901361952E+02  0.38978802120E+01  0.43765265675E+02  0.46584492460E+02  0.41800000000E+01 0.  1.
         -5    1    3    3    0  502 -0.20024565896E+02 -0.10667847108E+02 -0.87702595547E+02  0.90686293711E+02  0.41800000000E+01 0.  1.
        -11    1    1    2    0    0  0.30934995417E+02  0.30787244776E+02 -0.18525595187E+02  0.47413353176E+02  0.00000000000E+00 0.  1.
         11    1    1    2    0    0  0.39909324317E+01 -0.24017277880E+02 -0.11859569384E+03  0.12106897115E+03  0.00000000000E+00 0. -1.
</event>
<event>
 7    1  0.2728221E-009  0.1420604E+03  0.7561462E-02  0.1210583E+00
          2   -1    0    0  501    0  0.00000000000E+00  0.00000000000E+00  0.62899606984E+03  0.62899606984E+03  0.00000000000E+00 0.  1.
         -2   -1    0    0    0  501 -0.00000000000E+00 -0.00000000000E+00 -0.34350345360E+02  0.34350345360E+02  0.00000000000E+00 0. -1.
         25    2    1    2    0    0  0.38754847062E+02  0.90319260040E+02  0.29581965897E+03  0.33588167275E+03  0.12509084921E+03 0.  0.
          5    1    3    3  502    0  0.79129642875E+02  0.27325865231E+02  0.16685877446E+03  0.18672848285E+03  0.41800000000E+01 0.  1.
         -5    1    3    3    0  502 -0.40374795813E+02  0.62993394809E+02  0.12896088451E+03  0.14915318991E+03  0.41800000000E+01 0.  1.
        -11    1    1    2    0    0  0.16671381939E+02 -0.59819902523E+02  0.90593485871E+02  0.10983412674E+03  0.00000000000E+00 0. -1.
         11    1    1    2    0    0 -0.55426229001E+02 -0.30499357517E+02  0.20823257964E+03  0.21763061571E+03  0.00000000000E+00 0.  1.
</event>
<event>
 7    1  0.2728221E-009  0.1338426E+03  0.7561462E-02  0.1221863E+00
          1   -1    0    0  501    0  0.00000000000E+00  0.00000000000E+00  0.76847492211E+02  0.76847492211E+02  0.00000000000E+00 0. -1.
         -1   -1    0    0    0  501 -0.00000000000E+00 -0.00000000000E+00 -0.42317127724E+03  0.42317127724E+03  0.00000000000E+00 0.  1.
         25    2    1    2    0    0  0.60088638273E+02 -0.87184679122E+02 -0.31851675737E+03  0.35819051632E+03  0.12504282678E+03 0.  0.
          5    1    3    3  502    0  0.76192391471E+02 -0.96750002483E+02 -0.17871010367E+03  0.21707283813E+03  0.41800000000E+01 0. -1.
         -5    1    3    3    0  502 -0.16103753198E+02  0.95653233610E+01 -0.13980665370E+03  0.14111767819E+03  0.41800000000E+01 0. -1.
        -11    1    1    2    0    0 -0.68582932208E+02  0.44507152508E+02 -0.46959499241E+02  0.94285204478E+02  0.00000000000E+00 0.  1.
         11    1    1    2    0    0  0.84942939351E+01  0.42677526614E+02  0.19152471587E+02  0.47543048654E+02  0.00000000000E+00 0. -1.
</event>
<event>
 7    1  0.2728221E-009  0.1099743E+03  0.7561462E-02  0.1260618E+00
         -4   -1    0    0    0  501 -0.00000000000E+00  0.00000000000E+00  0.18955858285E+03  0.18955858285E+03  0.00000000000E+00 0.  1.
          4   -1    0    0  501    0  0.00000000000E+00 -0.00000000000E+00 -0.12499869270E+03  0.12499869270E+03  0.00000000000E+00 0. -1.
         25    2    1    2    0    0 -0.17436514839E+02 -0.59536036183E+02 -0.56380029013E+02  0.15057885458E+03  0.12508681833E+03 0.  0.
          5    1    3    3  502    0 -0.27554473900E+02  0.33374117491E+02 -0.31747825277E+02  0.53837510716E+02  0.41800000000E+01 0. -1.
         -5    1    3    3    0  502  0.10117959061E+02 -0.92910153674E+02 -0.24632203735E+02  0.96741343862E+02  0.41800000000E+01 0. -1.
        -11    1    1    2    0    0 -0.12206666611E+02  0.50457377889E+02  0.12238760501E+03  0.13294237681E+03  0.00000000000E+00 0.  1.
         11    1    1    2    0    0  0.29643181450E+02  0.90786582939E+01 -0.14476858520E+01  0.31036044162E+02  0.00000000000E+00 0. -1.
</event>
<event>
 7    1  0.2728221E-009  0.2968407E+03  0.7561462E-02  0.1086831E+00
          1   -1    0    0  501    0  0.00000000000E+00  0.00000000000E+00  0.62680512826E+02  0.62680512826E+02  0.00000000000E+00 0. -1.
         -1   -1    0    0    0  501 -0.00000000000E+00 -0.00000000000E+00 -0.21015783068E+04  0.21015783068E+04  0.00000000000E+00 0.  1.
         25    2    1    2    0    0  0.15856322427E+03 -0.22591139759E+03 -0.41122628922E+03  0.51081636344E+03  0.12509212829E+03 0.  0.
          5    1    3    3  502    0 -0.40724549600E-01 -0.10067953505E+03 -0.12970114255E+03  0.16424441913E+03  0.41800000000E+01 0.  1.
         -5    1    3    3    0  502  0.15860394881E+03 -0.12523186254E+03 -0.28152514667E+03  0.34657194431E+03  0.41800000000E+01 0.  1.
        -11    1    1    2    0    0 -0.10554020449E+03  0.71379927844E+02 -0.71169482791E+03  0.72300992865E+03  0.00000000000E+00 0.  1.
         11    1    1    2    0    0 -0.53023019774E+02  0.15453146974E+03 -0.91597667681E+03  0.93043252749E+03  0.00000000000E+00 0. -1.
</event>
<event>
 7    1  0.2728221E-009  0.1068022E+03  0.7561462E-02  0.1266609E+00
         -2   -1    0    0    0  501 -0.00000000000E+00  0.00000000000E+00  0.75996777630E+02  0.75996777630E+02  0.00000000000E+00 0.  1.
          2   -1    0    0  501    0  0.00000000000E+00 -0.00000000000E+00 -0.16139223920E+03  0.16139223920E+03  0.00000000000E+00 0. -1.
         25    2    1    2    0    0  0.26657507129E+01  0.26618686394E+02 -0.39640901211E+02  0.13392182216E+03  0.12509193703E+03 0.  0.
          5    1    3    3  502    0  0.60332503694E+02  0.20842326348E+02 -0.40678814094E+02  0.75806674414E+02  0.41800000000E+01 0. -1.
         -5    1    3    3    0  502 -0.57666752981E+02  0.57763600467E+01  0.10379128828E+01  0.58115147749E+02  0.41800000000E+01 0. -1.
        -11    1    1    2    0    0  0.33765093258E+02 -0.40335873326E+02 -0.34639186301E+02  0.62983628248E+02  0.00000000000E+00 0.  1.
         11    1    1    2    0    0 -0.36430843971E+02  0.13717186932E+02 -0.11115374062E+02  0.40483566422E+02  0.00000000000E+00 0. -1.
</event>
<event>
 7    1  0.2728221E-009  0.1665705E+03  0.7561462E-02  0.1181472E+00
         -1   -1    0    0    0  501 -0.00000000000E+00  0.00000000000E+00  0.34299550554E+02  0.34299550554E+02  0.00000000000E+00 0.  1.
          1   -1    0    0  501    0  0.00000000000E+00 -0.00000000000E+00 -0.92243019769E+03  0.92243019769E+03  0.00000000000E+00 0. -1.
         25    2    1    2    0    0 -0.10132837772E+03  0.96169386970E+02 -0.42500579669E+03  0.46453521266E+03  0.12508815077E+03 0.  0.
          5    1    3    3  502    0 -0.11507626476E+03  0.32801955712E+02 -0.23532012215E+03  0.26402944399E+03  0.41800000000E+01 0. -1.
         -5    1    3    3    0  502  0.13747887037E+02  0.63367431258E+02 -0.18968567454E+03  0.20050576867E+03  0.41800000000E+01 0. -1.
        -11    1    1    2    0    0  0.31898731683E+02 -0.64838269259E+02 -0.33856330179E+03  0.34618873402E+03  0.00000000000E+00 0. -1.
         11    1    1    2    0    0  0.69429646038E+02 -0.31331117712E+02 -0.12456154866E+03  0.14600580157E+03  0.00000000000E+00 0.  1.
</event>
<event>
 7    1  0.2728221E-009  0.9219455E+02  0.7561462E-02  0.1297623E+00
          2   -1    0    0  501    0  0.00000000000E+00  0.00000000000E+00  0.11364138044E+04  0.11364138044E+04  0.00000000000E+00 0. -1.
         -2   -1    0    0    0  501 -0.00000000000E+00 -0.00000000000E+00 -0.11876386040E+02  0.11876386040E+02  0.00000000000E+00 0.  1.
         25    2    1    2    0    0  0.24081555938E+02 -0.36488987192E+01  0.78913777138E+03  0.79936198202E+03  0.12509164757E+03 0.  0.
          5    1    3    3  502    0 -0.42304144164E+00  0.46609819787E+02  0.13609566165E+03  0.14391718377E+03  0.41800000000E+01 0.  1.
         -5    1    3    3    0  502  0.24504597380E+02 -0.50258718507E+02  0.65304210973E+03  0.65544479825E+03  0.41800000000E+01 0.  1.
        -11    1    1    2    0    0  0.14719323247E+02 -0.27878104687E+02  0.49472989939E+02  0.58663650852E+02  0.00000000000E+00 0.  1.
         11    1    1    2    0    0 -0.38800879186E+02  0.31527003406E+02  0.28592665703E+03  0.29026455755E+03  0.00000000000E+00 0. -1.
</event>
<event>
 7    1  0.2728221E-009  0.1379349E+03  0.7561462E-02  0.1216135E+00
         -1   -1    0    0    0  501 -0.00000000000E+00  0.00000000000E+00  0.13466316078E+03  0.13466316078E+03  0.00000000000E+00 0.  1.
          1   -1    0    0  501    0  0.00000000000E+00 -0.00000000000E+00 -0.25604211488E+03  0.25604211488E+03  0.00000000000E+00 0. -1.
         25    2    1    2    0    0  0.87873295126E+02  0.83009725873E+02 -0.15455586796E+03  0.23267499382E+03  0.12505121289E+03 0.  0.
          5    1    3    3  502    0  0.28002690055E+02  0.17783707183E+02 -0.13864808884E+03  0.14262249412E+03  0.41800000000E+01 0. -1.
         -5    1    3    3    0  502  0.59870605071E+02  0.65226018690E+02 -0.15907779123E+02  0.90052499701E+02  0.41800000000E+01 0. -1.
        -11    1    1    2    0    0 -0.49311121432E+02 -0.10012482915E+03  0.17248718036E+02  0.11293399127E+03  0.00000000000E+00 0.  1.
         11    1    1    2    0    0 -0.38562173694E+02  0.17115103281E+02  0.15928195826E+02  0.45096290564E+02  0.00000000000E+00 0. -1.
</event>
<event>
 7    1  0.2728221E-009  0.8648250E+02  0.7561462E-02  0.1311601E+00
          3   -1    0    0  501    0  0.00000000000E+00  0.00000000000E+00  0.20247248256E+03  0.20247248256E+03  0.00000000000E+00 0. -1.
         -3   -1    0    0    0  501 -0.00000000000E+00 -0.00000000000E+00 -0.62630242432E+02  0.62630242432E+02  0.00000000000E+00 0.  1.
         25    2    1    2    0    0  0.12557753952E+02  0.14043752164E+02  0.10552650548E+03  0.16473854819E+03  0.12509205308E+03 0.  0.
          5    1    3    3  502    0  0.51824656778E+02  0.50675981979E+02  0.62502418841E+02  0.95801226300E+02  0.41800000000E+01 0.  1.
         -5    1    3    3    0  502 -0.39266902826E+02 -0.36632229814E+02  0.43024086639E+02  0.68937321893E+02  0.41800000000E+01 0.  1.
        -11    1    1    2    0    0  0.78872373720E-01  0.14907992025E+02  0.58633360046E+02  0.60498969887E+02  0.00000000000E+00 0. -1.
         11    1    1    2    0    0 -0.12636626326E+02 -0.28951744189E+02 -0.24317625403E+02  0.39865206907E+02  0.00000000000E+00 0.  1.
</event>
<event>
 7    1  0.2728221E-009  0.9803341E+02  0.7561462E-02  0.1284487E+00
         -1   -1    0    0    0  501 -0.00000000000E+00  0.00000000000E+00  0.78292677928E+02  0.78292677928E+02  0.00000000000E+00 0.  1.
          1   -1    0    0  501    0  0.00000000000E+00 -0.00000000000E+00 -0.19791617512E+03  0.19791617512E+03  0.00000000000E+00 0. -1.
         25    2    1    2    0    0  0.26660619278E+02  0.10619973609E+02 -0.12717776278E+03  0.18067973026E+03  0.12508960437E+03 0.  0.
          5    1    3    3  502    0  0.61394606797E+02  0.21056956642E+02 -0.20914209825E+02  0.68319614602E+02  0.41800000000E+01 0. -1.
         -5    1    3    3    0  502 -0.34733987519E+02 -0.10436983033E+02 -0.10626355296E+03  0.11236011566E+03  0.41800000000E+01 0. -1.
        -11    1    1    2    0    0  0.61744360807E+01  0.36537801823E+02  0.86647652085E+01  0.38055390933E+02  0.00000000000E+00 0.  1.
         11    1    1    2    0    0 -0.32835055358E+02 -0.47157775432E+02 -0.11104996208E+01  0.57473731856E+02  0.00000000000E+00 0. -1.
</event>
<event>
 7    1  0.3218592E-009  0.1008638E+03  0.7561462E-02  0.1278490E+00
         -1   -1    0    0    0  501 -0.00000000000E+00  0.00000000000E+00  0.13542138028E+03  0.13542138028E+03  0.00000000000E+00 0.  1.
          1   -1    0    0  501    0  0.00000000000E+00 -0.00000000000E+00 -0.22987618984E+03  0.22987618984E+03  0.00000000000E+00 0. -1.
         25    2    1    2    0    0 -0.36120248087E+02 -0.81260300105E+02 -0.16033859809E+03  0.22195326097E+03  0.12508747069E+03 0.  0.
          5    1    3    3  502    0 -0.24196346338E+02 -0.42456506550E+02 -0.17252694328E+03  0.17936286316E+03  0.41800000000E+01 0. -1.
         -5    1    3    3    0  502 -0.11923901749E+02 -0.38803793555E+02  0.12188345187E+02  0.42590397809E+02  0.41800000000E+01 0. -1.
        -11    1    1    2    0    0 -0.18603203752E+02  0.75677506331E+01  0.44900255799E+02  0.49187224056E+02  0.00000000000E+00 0.  1.
         11    1    1    2    0    0  0.54723451839E+02  0.73692549471E+02  0.20983532734E+02  0.94157085102E+02  0.00000000000E+00 0. -1.
</event>
<event>
 7    1  0.2728221E-009  0.1082367E+03  0.7561462E-02  0.1263870E+00
          1   -1    0    0  501    0  0.00000000000E+00  0.00000000000E+00  0.73577670169E+03  0.73577670169E+03  0.00000000000E+00 0. -1.
         -1   -1    0    0    0  501 -0.00000000000E+00 -0.00000000000E+00 -0.25918007262E+02  0.25918007262E+02  0.00000000000E+00 0.  1.
         25    2    1    2    0    0  0.44649680508E+02 -0.42921525882E+02  0.55737408059E+03  0.57458707533E+03  0.12509432467E+03 0.  0.
          5    1    3    3  502    0 -0.26720154839E+02 -0.58231701498E+02  0.31266424556E+03  0.31918850322E+03  0.41800000000E+01 0.  1.
         -5    1    3    3    0  502  0.71369835347E+02  0.15310175616E+02  0.24470983503E+03  0.25539857211E+03  0.41800000000E+01 0.  1.
        -11    1    1    2    0    0  0.85373195095E+01  0.19011539221E+02 -0.29926790966E+01  0.21054229412E+02  0.00000000000E+00 0.  1.
         11    1    1    2    0    0 -0.53187000018E+02  0.23909986661E+02  0.15547729293E+03  0.16605340421E+03  0.00000000000E+00 0. -1.
</event>
<event>
 7    1  0.2728221E-009  0.1273883E+03  0.7561462E-02  0.1231383E+00
         -2   -1    0    0    0  501 -0.00000000000E+00  0.00000000000E+00  0.46096831637E+03  0.46096831637E+03  0.00000000000E+00 0.  1.
          2   -1    0    0  501    0  0.00000000000E+00 -0.00000000000E+00 -0.46761355754E+02  0.46761355754E+02  0.00000000000E+00 0. -1.
         25    2    1    2    0    0  0.91739725444E+01 -0.85352043834E+02  0.14449534557E+03  0.20950819907E+03  0.12508256245E+03 0.  0.
          5    1    3    3  502    0 -0.91488248243E+01 -0.10366728923E+03  0.58201806779E+02  0.11931274268E+03  0.41800000000E+01 0.  1.
         -5    1    3    3    0  502  0.18322797369E+02  0.18315245401E+02  0.86293538789E+02  0.90195456395E+02  0.41800000000E+01 0.  1.
        -11    1    1    2    0    0  0.38338023833E+02  0.58095932755E+02  0.18147425199E+03  0.19436523766E+03  0.00000000000E+00 0.  1.
         11    1    1    2    0    0 -0.47511996377E+02  0.27256111079E+02  0.88237363059E+02  0.10385623540E+03  0.00000000000E+00 0. -1.
</event>
<event>
 7    1  0.2728221E-009  0.1275231E+03  0.7561462E-02  0.1231178E+00
          1   -1    0    0  501    0  0.00000000000E+00  0.00000000000E+00  0.11763554641E+03  0.11763554641E+03  0.00000000000E+00 0.  1.
         -1   -1    0    0    0  501 -0.00000000000E+00 -0.00000000000E+00 -0.17670103267E+03  0.17670103267E+03  0.00000000000E+00 0. -1.
         25    2    1    2    0    0  0.41074229643E+02 -0.51361357240E+02 -0.10030617130E+03  0.17330455479E+03  0.12509220340E+03 0.  0.
          5    1    3    3  502    0  0.33589315423E+02 -0.92902076460E+02 -0.71926860698E+02  0.12227012559E+03  0.41800000000E+01 0.  1.
         -5    1    3    3    0  502  0.74849142192E+01  0.41540719219E+02 -0.28379310601E+02  0.51034429205E+02  0.41800000000E+01 0.  1.
        -11    1    1    2    0    0  0.29335487457E+02  0.58419254472E+01  0.12175169885E+02  0.32294483724E+02  0.00000000000E+00 0.  1.
         11    1    1    2    0    0 -0.70409717100E+02  0.45519431793E+02  0.29065515155E+02  0.88737540557E+02  0.00000000000E+00 0. -1.
</event>
<event>
 7    1  0.2728221E-009  0.9247049E+02  0.7561462E-02  0.1296977E+00
          1   -1    0    0  501    0  0.00000000000E+00  0.00000000000E+00  0.13325412815E+03  0.13325412815E+03  0.00000000000E+00 0. -1.
         -1   -1    0    0    0  501 -0.00000000000E+00 -0.00000000000E+00 -0.93088226477E+02  0.93088226477E+02  0.00000000000E+00 0.  1.
         25    2    1    2    0    0  0.82148456134E+01 -0.20257567645E+02  0.25916099309E+02  0.12960741535E+03  0.12509430513E+03 0.  0.
          5    1    3    3  502    0  0.42729791066E+02 -0.47084332696E+02  0.48639570427E+02  0.80162644925E+02  0.41800000000E+01 0.  1.
         -5    1    3    3    0  502 -0.34514945453E+02  0.26826765051E+02 -0.22723471118E+02  0.49444770425E+02  0.41800000000E+01 0.  1.
        -11    1    1    2    0    0  0.19568014353E+02 -0.20267869136E+02 -0.21942673095E+02  0.35709587054E+02  0.00000000000E+00 0.  1.
         11    1    1    2    0    0 -0.27782859966E+02  0.40525436781E+02  0.36192475462E+02  0.61025352226E+02  0.00000000000E+00 0. -1.
</event>
<event>
 7    1  0.2728221E-009  0.1148305E+03  0.7561462E-02  0.1251877E+00
          2   -1    0    0  501    0  0.00000000000E+00  0.00000000000E+00  0.15680568327E+03  0.15680568327E+03  0.00000000000E+00 0. -1.
         -2   -1    0    0    0  501 -0.00000000000E+00 -0.00000000000E+00 -0.10132248242E+03  0.10132248242E+03  0.00000000000E+00 0.  1.
         25    2    1    2    0    0 -0.60993501449E+02  0.40138575094E+01  0.20634167104E+02  0.14074944164E+03  0.12509323803E+03 0.  0.
          5    1    3    3  502    0 -0.30898966531E+02 -0.57647472887E+02  0.28678861307E+02  0.71539686530E+02  0.41800000000E+01 0. -1.
         -5    1    3    3    0  502 -0.30094534918E+02  0.61661330397E+02 -0.80446942036E+01  0.69209755115E+02  0.41800000000E+01 0. -1.
        -11    1    1    2    0    0  0.37606623724E+02 -0.38430847073E+02 -0.11610642214E+02  0.55009046231E+02  0.00000000000E+00 0.  1.
         11    1    1    2    0    0  0.23386877724E+02  0.34416989563E+02  0.46459675962E+02  0.62369677815E+02  0.00000000000E+00 0. -1.
</event>
<event>
 7    1  0.2728221E-009  0.7586919E+02  0.7561462E-02  0.1341200E+00
          3   -1    0    0  501    0  0.00000000000E+00  0.00000000000E+00  0.58698966966E+02  0.58698966966E+02  0.00000000000E+00 0. -1.
         -3   -1    0    0    0  501 -0.00000000000E+00 -0.00000000000E+00 -0.21165431345E+03  0.21165431345E+03  0.00000000000E+00 0.  1.
         25    2    1    2    0    0  0.66877328947E+01 -0.17997884694E+02 -0.10626220916E+03  0.16524982004E+03  0.12508875370E+03 0.  0.
          5    1    3    3  502    0 -0.24133841046E+02  0.25748059182E+02  0.10235029212E+02  0.36981523201E+02  0.41800000000E+01 0. -1.
         -5    1    3    3    0  502  0.30821573941E+02 -0.43745943876E+02 -0.11649723837E+03  0.12826829684E+03  0.41800000000E+01 0. -1.
        -11    1    1    2    0    0  0.22246921263E+02 -0.79849085922E+01 -0.59610547517E+02  0.64125670727E+02  0.00000000000E+00 0.  1.
         11    1    1    2    0    0 -0.28934654158E+02  0.25982793286E+02  0.12917410194E+02  0.40977789647E+02  0.00000000000E+00 0. -1.
</event>
<event>
 7    1  0.2728221E-009  0.8588116E+02  0.7561462E-02  0.1313144E+00
          1   -1    0    0  501    0  0.00000000000E+00  0.00000000000E+00  0.32601460828E+03  0.32601460828E+03  0.00000000000E+00 0. -1.
         -1   -1    0    0    0  501 -0.00000000000E+00 -0.00000000000E+00 -0.41445150923E+02  0.41445150923E+02  0.00000000000E+00 0.  1.
         25    2    1    2    0    0 -0.42256012640E+02  0.36578082772E+02  0.11784164790E+03  0.18071344432E+03  0.12508864150E+03 0.  0.
          5    1    3    3  502    0 -0.59574833543E+02  0.10792913944E+02  0.13278149539E+03  0.14599330705E+03  0.41800000000E+01 0.  1.
         -5    1    3    3    0  502  0.17318820903E+02  0.25785168828E+02 -0.14939847490E+02  0.34720137269E+02  0.41800000000E+01 0.  1.
        -11    1    1    2    0    0 -0.54085260820E+01  0.11079546102E+02  0.54126043261E+02  0.55512494587E+02  0.00000000000E+00 0.  1.
         11    1    1    2    0    0  0.47664538722E+02 -0.47657628874E+02  0.11260176619E+03  0.13123382030E+03  0.00000000000E+00 0. -1.
</event>
<event>
 7    1  0.2728221E-009  0.1311532E+03  0.7561462E-02  0.1225755E+00
         -3   -1    0    0    0  501 -0.00000000000E+00  0.00000000000E+00  0.30720111668E+03  0.30720111668E+03  0.00000000000E+00 0.  1.
          3   -1    0    0  501    0  0.00000000000E+00 -0.00000000000E+00 -0.62093661763E+02  0.62093661763E+02  0.00000000000E+00 0. -1.
         25    2    1    2    0    0  0.65689066362E+02 -0.43838211943E+02  0.88456337258E+02  0.17236163148E+03  0.12508863314E+03 0.  0.
          5    1    3    3  502    0  0.74683028519E+01 -0.78748823394E+02  0.39174293500E+02  0.88369963250E+02  0.41800000000E+01 0.  1.
         -5    1    3    3    0  502  0.58220763511E+02  0.34910611451E+02  0.49282043757E+02  0.83991668233E+02  0.41800000000E+01 0.  1.
        -11    1    1    2    0    0 -0.45382748407E+02 -0.18882321137E+02  0.93539435341E+02  0.10566816866E+03  0.00000000000E+00 0. -1.
         11    1    1    2    0    0 -0.20306317955E+02  0.62720533080E+02  0.63111682317E+02  0.91264978297E+02  0.00000000000E+00 0.  1.
</event>
<event>
 7    1  0.2728221E-009  0.1221837E+03  0.7561462E-02  0.1239538E+00
         -4   -1    0    0    0  501 -0.00000000000E+00  0.00000000000E+00  0.30692066580E+03  0.30692066580E+03  0.00000000000E+00 0.  1.
          4   -1    0    0  501    0  0.00000000000E+00 -0.00000000000E+00 -0.59433749688E+02  0.59433749688E+02  0.00000000000E+00 0. -1.
         25    2    1    2    0    0 -0.41925435867E+02  0.50197380230E+02  0.84427170603E+02  0.16447705263E+03  0.12508890658E+03 0.  0.
          5    1    3    3  502    0  0.34391741657E+02  0.48065858631E+02  0.59714267026E+02  0.84121250267E+02  0.41800000000E+01 0.  1.
         -5    1    3    3    0  502 -0.76317177524E+02  0.21315215990E+01  0.24712903578E+02  0.80355802359E+02  0.41800000000E+01 0.  1.
        -11    1    1    2    0    0  0.61678566804E+02 -0.60482822632E+02  0.86913971563E+02  0.12254164961E+03  0.00000000000E+00 0. -1.
         11    1    1    2    0    0 -0.19753130937E+02  0.10285442402E+02  0.76145773950E+02  0.79335713254E+02  0.00000000000E+00 0.  1.
</event>
<event>
 7    1  0.2728221E-009  0.8138983E+02  0.7561462E-02  0.1325153E+00
          2   -1    0    0  501    0  0.00000000000E+00  0.00000000000E+00  0.15374808772E+03  0.15374808772E+03  0.00000000000E+00 0.  1.
         -2   -1    0    0    0  501 -0.00000000000E+00 -0.00000000000E+00 -0.78761911024E+02  0.78761911024E+02  0.00000000000E+00 0. -1.
         25    2    1    2    0    0 -0.38848774224E+01 -0.21133044610E+02  0.42896207746E+02  0.13397497804E+03  0.12509001661E+03 0.  0.
          5    1    3    3  502    0 -0.20368614079E+02  0.21739189409E+02 -0.33319643226E+02  0.44890353311E+02  0.41800000000E+01 0. -1.
         -5    1    3    3    0  502  0.16483736657E+02 -0.42872234019E+02  0.76215850973E+02  0.89084624731E+02  0.41800000000E+01 0. -1.
        -11    1    1    2    0    0  0.26797255865E+02 -0.23991153850E+02 -0.42691067744E+01  0.36220072578E+02  0.00000000000E+00 0. -1.
         11    1    1    2    0    0 -0.22912378442E+02  0.45124198459E+02  0.36359075729E+02  0.62314948129E+02  0.00000000000E+00 0.  1.
</event>
<event>
 7    1  0.2728221E-009  0.1073765E+03  0.7561462E-02  0.1265507E+00
         -2   -1    0    0    0  501 -0.00000000000E+00  0.00000000000E+00  0.37712557683E+02  0.37712557683E+02  0.00000000000E+00 0.  1.
          2   -1    0    0  501    0  0.00000000000E+00 -0.00000000000E+00 -0.34475207183E+03  0.34475207183E+03  0.00000000000E+00 0. -1.
         25    2    1    2    0    0 -0.14190492402E+02  0.30136378486E+02 -0.14240510897E+03  0.19244881496E+03  0.12509100661E+03 0.  0.
          5    1    3    3  502    0  0.48044473777E+02 -0.12829166481E+02 -0.34713475108E+02  0.60789445853E+02  0.41800000000E+01 0.  1.
         -5    1    3    3    0  502 -0.62234966179E+02  0.42965544967E+02 -0.10769163386E+03  0.13165936911E+03  0.41800000000E+01 0.  1.
        -11    1    1    2    0    0  0.61122271046E+01  0.28891380009E+02 -0.88773545573E+02  0.93556472532E+02  0.00000000000E+00 0.  1.
         11    1    1    2    0    0  0.80782652976E+01 -0.59027758495E+02 -0.75860859597E+02  0.96459342015E+02  0.00000000000E+00 0. -1.
</event>
<event>
 7    1  0.2728221E-009  0.1063792E+03  0.7561462E-02  0.1267426E+00
          1   -1    0    0  501    0  0.00000000000E+00  0.00000000000E+00  0.80939348751E+02  0.80939348751E+02  0.00000000000E+00 0. -1.
         -1   -1    0    0    0  501 -0.00000000000E+00 -0.00000000000E+00 -0.14495743561E+03  0.14495743561E+03  0.00000000000E+00 0.  1.
         25    2    1    2    0    0 -0.18301981376E+01  0.11759398902E+02 -0.49230628680E+02  0.13495333109E+03  0.12508842346E+03 0.  0.
          5    1    3    3  502    0 -0.62600827119E+02  0.84729773447E+01 -0.15233341275E+02  0.65116679795E+02  0.41800000000E+01 0.  1.
         -5    1    3    3    0  502  0.60770628982E+02  0.32864215573E+01 -0.33997287405E+02  0.69836651297E+02  0.41800000000E+01 0.  1.
        -11    1    1    2    0    0 -0.35773929747E+02 -0.29965813761E+02 -0.15454030211E+02  0.49158428511E+02  0.00000000000E+00 0.  1.
         11    1    1    2    0    0  0.37604127884E+02  0.18206414859E+02  0.66657202946E+00  0.41785024760E+02  0.00000000000E+00 0. -1.
</event>
<event>
 7    1  0.2728221E-009  0.1299466E+03  0.7561462E-02  0.1227535E+00
         -1   -1    0    0    0  501 -0.00000000000E+00  0.00000000000E+00  0.15318847811E+02  0.15318847811E+02  0.00000000000E+00 0.  1.
          1   -1    0    0  501    0  0.00000000000E+00 -0.00000000000E+00 -0.13220911038E+04  0.13220911038E+04  0.00000000000E+00 0. -1.
         25    2    1    2    0    0  0.72098549862E+02 -0.54448880936E+02 -0.76575857423E+03  0.78115101350E+03  0.12509128812E+03 0.  0.
          5    1    3    3  502    0 -0.92757161329E+01 -0.52490856141E+02 -0.50817336036E+03  0.51097843934E+03  0.41800000000E+01 0. -1.
         -5    1    3    3    0  502  0.81374265994E+02 -0.19580247952E+01 -0.25758521387E+03  0.27017257416E+03  0.41800000000E+01 0. -1.
        -11    1    1    2    0    0 -0.33140364759E+02 -0.21540989468E+02 -0.11046756763E+03  0.11732596260E+03  0.00000000000E+00 0.  1.
         11    1    1    2    0    0 -0.38958185103E+02  0.75989870404E+02 -0.43054611418E+03  0.43893297555E+03  0.00000000000E+00 0. -1.
</event>
<event>
 7    1  0.2728221E-009  0.1492769E+03  0.7561462E-02  0.1201364E+00
          2   -1    0    0  501    0  0.00000000000E+00  0.00000000000E+00  0.38614851833E+02  0.38614851833E+02  0.00000000000E+00 0. -1.
         -2   -1    0    0    0  501 -0.00000000000E+00 -0.00000000000E+00 -0.81619766954E+03  0.81619766954E+03  0.00000000000E+00 0.  1.
         25    2    1    2    0    0 -0.12771534154E+03 -0.11390084807E+02 -0.27446197566E+03  0.32774590949E+03  0.12508821931E+03 0.  0.
          5    1    3    3  502    0 -0.82664050429E+02 -0.60713146038E+02 -0.11140263418E+03  0.15148415969E+03  0.41800000000E+01 0.  1.
         -5    1    3    3    0  502 -0.45051291113E+02  0.49323061231E+02 -0.16305934148E+03  0.17626174980E+03  0.41800000000E+01 0.  1.
        -11    1    1    2    0    0  0.24666391531E+02 -0.32845479610E+01 -0.17514235997E+02  0.30429715559E+02  0.00000000000E+00 0. -1.
         11    1    1    2    0    0  0.10304895001E+03  0.14674632768E+02 -0.48560660605E+03  0.49663689632E+03  0.00000000000E+00 0.  1.
</event>
<event>
 7    1  0.2728221E-009  0.1335589E+03  0.7561462E-02  0.1222269E+00
         -2   -1    0    0    0  501 -0.00000000000E+00  0.00000000000E+00  0.25549765883E+03  0.25549765883E+03  0.00000000000E+00 0. -1.
          2   -1    0    0  501    0  0.00000000000E+00 -0.00000000000E+00 -0.86310775138E+02  0.86310775138E+02  0.00000000000E+00 0.  1.
         25    2    1    2    0    0  0.56255220505E+02 -0.14404929095E+02  0.89284036380E+02  0.16429442916E+03  0.12509543750E+03 0.  0.
          5    1    3    3  502    0  0.13098043911E+01  0.47513829275E+02  0.83382836065E+01  0.48438403498E+02  0.41800000000E+01 0.  1.
         -5    1    3    3    0  502  0.54945416114E+02 -0.61918758371E+02  0.80945752773E+02  0.11585602566E+03  0.41800000000E+01 0.  1.
        -11    1    1    2    0    0 -0.30694513611E+02  0.69391612458E+02 -0.16418968128E+01  0.75894959454E+02  0.00000000000E+00 0.  1.
         11    1    1    2    0    0 -0.25560706895E+02 -0.54986683363E+02  0.81544744127E+02  0.10161904536E+03  0.00000000000E+00 0. -1.
</event>
<event>
 7    1  0.2728221E-009  0.1091065E+03  0.7561462E-02  0.1262233E+00
          1   -1    0    0  501    0  0.00000000000E+00  0.00000000000E+00  0.37055242307E+03  0.37055242307E+03  0.00000000000E+00 0. -1.
         -1   -1    0    0    0  501 -0.00000000000E+00 -0.00000000000E+00 -0.70276602716E+02  0.70276602716E+02  0.00000000000E+00 0.  1.
         25    2    1    2    0    0 -0.39161241588E+02 -0.87945070943E+02  0.60960618488E+02  0.16920768058E+03  0.12508838401E+03 0.  0.
          5    1    3    3  502    0 -0.57619313371E+01 -0.10101207060E+02  0.81103017817E+02  0.82039052505E+02  0.41800000000E+01 0.  1.
         -5    1    3    3    0  502 -0.33399310251E+02 -0.77843863883E+02 -0.20142399329E+02  0.87168628073E+02  0.41800000000E+01 0.  1.
        -11    1    1    2    0    0 -0.18239946504E+02  0.47347019351E+02  0.14747447833E+03  0.15595883319E+03  0.00000000000E+00 0. -1.
         11    1    1    2    0    0  0.57401188092E+02  0.40598051592E+02  0.91840723530E+02  0.11566251202E+03  0.00000000000E+00 0.  1.
</event>
<event>
 7    1  0.2817849E-009  0.1298467E+03  0.7561462E-02  0.1227683E+00
         -2   -1    0    0    0  501 -0.00000000000E+00  0.00000000000E+00  0.28440533230E+02  0.28440533230E+02  0.00000000000E+00 0.  1.
          2   -1    0    0  501    0  0.00000000000E+00 -0.00000000000E+00 -0.82289760713E+03  0.82289760713E+03  0.00000000000E+00 0. -1.
         25    2    1    2    0    0  0.78945031130E+02 -0.67813388737E+02 -0.35734898706E+03  0.39264413265E+03  0.12506055623E+03 0.  0.
          5    1    3    3  502    0  0.10783540533E+02 -0.80921398848E+02 -0.11908982818E+03  0.14444520454E+03  0.41800000000E+01 0.  1.
         -5    1    3    3    0  502  0.68161490597E+02  0.13108010111E+02 -0.23825915887E+03  0.24819892811E+03  0.41800000000E+01 0.  1.
        -11    1    1    2    0    0 -0.35040937125E+02  0.11233476045E+02 -0.36839969766E+02  0.52069584510E+02  0.00000000000E+00 0. -1.
         11    1    1    2    0    0 -0.43904094004E+02  0.56579912693E+02 -0.40026811708E+03  0.40662442320E+03  0.00000000000E+00 0.  1.
</event>
<event>
 7    1  0.2728221E-009  0.9168900E+02  0.7561462E-02  0.1298812E+00
         -1   -1    0    0    0  501 -0.00000000000E+00  0.00000000000E+00  0.64581736034E+02  0.64581736034E+02  0.00000000000E+00 0.  1.
          1   -1    0    0  501    0  0.00000000000E+00 -0.00000000000E+00 -0.20897043989E+03  0.20897043989E+03  0.00000000000E+00 0. -1.
         25    2    1    2    0    0  0.72214357660E+01 -0.14871658855E+02 -0.12981300649E+03  0.18103082887E+03  0.12508968373E+03 0.  0.
          5    1    3    3  502    0 -0.43997873906E+02  0.24425669011E+02 -0.21530703999E+02  0.54895080195E+02  0.41800000000E+01 0.  1.
         -5    1    3    3    0  502  0.51219309672E+02 -0.39297327866E+02 -0.10828230249E+03  0.12613574867E+03  0.41800000000E+01 0.  1.
        -11    1    1    2    0    0 -0.31353707926E+02 -0.10603318560E+02  0.23613781500E+02  0.40658283804E+02  0.00000000000E+00 0.  1.
         11    1    1    2    0    0  0.24132272160E+02  0.25474977415E+02 -0.38189478866E+02  0.51863063253E+02  0.00000000000E+00 0. -1.
</event>
<event>
 7    1  0.2728221E-009  0.8580213E+02  0.7561462E-02  0.1313348E+00
          4   -1    0    0  501    0  0.00000000000E+00  0.00000000000E+00  0.43569083044E+03  0.43569083044E+03  0.00000000000E+00 0. -1.
         -4   -1    0    0    0  501 -0.00000000000E+00 -0.00000000000E+00 -0.31596834411E+02  0.31596834411E+02  0.00000000000E+00 0.  1.
         25    2    1    2    0    0 -0.12181261783E+02  0.12895429004E+02  0.32153942285E+03  0.34547167257E+03  0.12509356846E+03 0.  0.
          5    1    3    3  502    0  0.34658516814E+02 -0.35519496094E+02  0.20343022222E+03  0.20943775949E+03  0.41800000000E+01 0. -1.
         -5    1    3    3    0  502 -0.46839778597E+02  0.48414925098E+02  0.11810920064E+03  0.13603391308E+03  0.41800000000E+01 0. -1.
        -11    1    1    2    0    0 -0.17156272901E+02  0.73479148607E+01  0.84092761633E+02  0.86138969762E+02  0.00000000000E+00 0. -1.
         11    1    1    2    0    0  0.29337534684E+02 -0.20243343865E+02 -0.15381884580E+01  0.35677022520E+02  0.00000000000E+00 0.  1.
</event>
<event>
 7    1  0.2728221E-009  0.6599466E+02  0.7561462E-02  0.1374269E+00
          4   -1    0    0  501    0  0.00000000000E+00  0.00000000000E+00  0.10925360643E+03  0.10925360643E+03  0.00000000000E+00 0.  1.
         -4   -1    0    0    0  501 -0.00000000000E+00 -0.00000000000E+00 -0.15670462996E+03  0.15670462996E+03  0.00000000000E+00 0. -1.
         25    2    1    2    0    0 -0.72184426014E+01 -0.54391541916E+02 -0.73823144363E+02  0.15526742019E+03  0.12509024496E+03 0.  0.
          5    1    3    3  502    0  0.57087006588E+01 -0.23870041646E+02 -0.10599920594E+03  0.10888375550E+03  0.41800000000E+01 0. -1.
         -5    1    3    3    0  502 -0.12927143260E+02 -0.30521500269E+02  0.32176061581E+02  0.46383664694E+02  0.41800000000E+01 0. -1.
        -11    1    1    2    0    0  0.26739885461E+02  0.44208118928E+02 -0.23058628217E+02  0.56578083998E+02  0.00000000000E+00 0. -1.
         11    1    1    2    0    0 -0.19521442860E+02  0.10183422988E+02  0.49430749043E+02  0.54112732199E+02  0.00000000000E+00 0.  1.
</event>
<event>
 7    1  0.2728221E-009  0.2554102E+03  0.7561462E-02  0.1109933E+00
         -2   -1    0    0    0  501 -0.00000000000E+00  0.00000000000E+00  0.38443074219E+02  0.38443074219E+02  0.00000000000E+00 0. -1.
          2   -1    0    0  501    0  0.00000000000E+00 -0.00000000000E+00 -0.20796417329E+04  0.20796417329E+04  0.00000000000E+00 0.  1.
         25    2    1    2    0    0 -0.23523831858E+03 -0.44571875980E+02 -0.14407089040E+04  0.14658149303E+04  0.12509014883E+03 0.  0.
          5    1    3    3  502    0 -0.15829319599E+03 -0.72521293646E+02 -0.73459981259E+03  0.75496386072E+03  0.41800000000E+01 0. -1.
         -5    1    3    3    0  502 -0.76945122589E+02  0.27949417667E+02 -0.70610909140E+03  0.71085106963E+03  0.41800000000E+01 0. -1.
        -11    1    1    2    0    0  0.11319600541E+03 -0.22522742018E+02 -0.26962539208E+03  0.29328904106E+03  0.00000000000E+00 0.  1.
         11    1    1    2    0    0  0.12204231316E+03  0.67094617998E+02 -0.33086436262E+03  0.35898083573E+03  0.00000000000E+00 0. -1.
</event>
<event>
 6    1  0.2728221E-009  0.9999473E+02  0.7561462E-02  0.1280307E+00
          2   -1    0    0  501    0  0.00000000000E+00  0.00000000000E+00  0.39289389290E+03  0.39289389290E+03  0.00000000000E+00 0. -1.
         -2   -1    0    0    0  501 -0.00000000000E+00 -0.00000000000E+00 -0.45265474714E+02  0.45265474714E+02  0.00000000000E+00 0.  1.
          5    1    1    2  502    0  0.34035744487E+02  0.40024387388E+02  0.10095408692E+02  0.53663518010E+02  0.41800000000E+01 0.  1.
         -5    1    1    2    0  502  0.34355915856E+02 -0.68236107693E+01  0.19552058479E+03  0.19867728128E+03  0.41800000000E+01 0.  1.
        -11    1    1    2    0    0  0.19261948941E+02 -0.45591998970E+01  0.57215820648E+02  0.60543035215E+02  0.00000000000E+00 0. -1.
         11    1    1    2    0    0 -0.87653609284E+02 -0.28641576722E+02  0.84796604057E+02  0.12527553311E+03  0.00000000000E+00 0.  1.
</event>
<event>
 7    1  0.2728221E-009  0.1166889E+03  0.7561462E-02  0.1248661E+00
         -2   -1    0    0    0  501 -0.00000000000E+00  0.00000000000E+00  0.27319440099E+02  0.27319440099E+02  0.00000000000E+00 0.  1.
          2   -1    0    0  501    0  0.00000000000E+00 -0.00000000000E+00 -0.59780751058E+03  0.59780751058E+03  0.00000000000E+00 0. -1.
         25    2    1    2    0    0  0.42501112498E+02 -0.57476679359E+02 -0.33349277598E+03  0.36328509892E+03  0.12509483694E+03 0.  0.
          5    1    3    3  502    0  0.36102583934E+02 -0.95526232403E+02 -0.27201071610E+03  0.29057866356E+03  0.41800000000E+01 0. -1.
         -5    1    3    3    0  502  0.63985285639E+01  0.38049553044E+02 -0.61482059880E+02  0.72706435353E+02  0.41800000000E+01 0. -1.
        -11    1    1    2    0    0  0.20721314775E+00  0.48775877488E+02 -0.19609814390E+03  0.20207328176E+03  0.00000000000E+00 0. -1.
         11    1    1    2    0    0 -0.42708325646E+02  0.87008018712E+01 -0.40897150603E+02  0.59768570003E+02  0.00000000000E+00 0.  1.
</event>
<event>
 7    1  0.2728221E-009  0.1596950E+03  0.7561462E-02  0.1189041E+00
         -2   -1    0    0    0  501 -0.00000000000E+00  0.00000000000E+00  0.15826249850E+03  0.15826249850E+03  0.00000000000E+00 0. -1.
          2   -1    0    0  501    0  0.00000000000E+00 -0.00000000000E+00 -0.23695469395E+03  0.23695469395E+03  0.00000000000E+00 0.  1.
         25    2    1    2    0    0  0.10082127063E+03  0.82637754833E+02 -0.13722174448E+03  0.22687401272E+03  0.12509229934E+03 0.  0.
          5    1    3    3  502    0 -0.21375503507E+02  0.37667091736E+02 -0.97125042086E+01  0.44581690053E+02  0.41800000000E+01 0. -1.
         -5    1    3    3    0  502  0.12219677414E+03  0.44970663097E+02 -0.12750924027E+03  0.18229232267E+03  0.41800000000E+01 0. -1.
        -11    1    1    2    0    0 -0.64916556003E+02 -0.11513171858E+02 -0.54589309609E+01  0.66155213678E+02  0.00000000000E+00 0.  1.
         11    1    1    2    0    0 -0.35904714627E+02 -0.71124582975E+02  0.63988479991E+02  0.10218796606E+03  0.00000000000E+00 0. -1.
</event>
<event>
 7    1  0.2859840E-009  0.1387186E+03  0.7561462E-02  0.1215064E+00
         -2   -1    0    0    0  501 -0.00000000000E+00  0.00000000000E+00  0.18621282025E+02  0.18621282025E+02  0.00000000000E+00 0.  1.
          2   -1    0    0  501    0  0.00000000000E+00 -0.00000000000E+00 -0.11933342264E+04  0.11933342264E+04  0.00000000000E+00 0. -1.
         25    2    1    2    0    0  0.69843936816E+02  0.73844940234E+02 -0.64805769981E+03  0.66780084690E+03  0.12509171887E+03 0.  0.
          5    1    3    3  502    0  0.88350391720E+02  0.85948371257E+02 -0.61836254536E+03  0.63054153245E+03  0.41800000000E+01 0.  1.
         -5    1    3    3    0  502 -0.18506454904E+02 -0.12103431024E+02 -0.29695154452E+02  0.37259314454E+02  0.41800000000E+01 0.  1.
        -11    1    1    2    0    0  0.22501026848E+01 -0.57672794074E+02 -0.30778232118E+03  0.31314720399E+03  0.00000000000E+00 0. -1.
         11    1    1    2    0    0 -0.72094039501E+02 -0.16172146160E+02 -0.21887292339E+03  0.23100745753E+03  0.00000000000E+00 0.  1.
</event>
<event>
 7    1  0.2728221E-009  0.1149918E+03  0.7561462E-02  0.1251595E+00
          1   -1    0    0  501    0  0.00000000000E+00  0.00000000000E+00  0.49798022192E+03  0.49798022192E+03  0.00000000000E+00 0. -1.
         -1   -1    0    0    0  501 -0.00000000000E+00 -0.00000000000E+00 -0.43841752790E+02  0.43841752790E+02  0.00000000000E+00 0.  1.
         25    2    1    2    0    0 -0.69963881424E+02 -0.29482806794E+02  0.36631671402E+03  0.39446123770E+03  0.12509017740E+03 0.  0.
          5    1    3    3  502    0  0.14453401318E+02 -0.34390266343E+02  0.31186371078E+02  0.48802186117E+02  0.41800000000E+01 0. -1.
         -5    1    3    3    0  502 -0.84417282741E+02  0.49074595484E+01  0.33513034294E+03  0.34565905159E+03  0.41800000000E+01 0. -1.
        -11    1    1    2    0    0 -0.16761345210E+02  0.24311370660E+01 -0.48195982816E+01  0.17609135365E+02  0.00000000000E+00 0. -1.
         11    1    1    2    0    0  0.86725226634E+02  0.27051669728E+02  0.92641353393E+02  0.12975160164E+03  0.00000000000E+00 0.  1.
</event>
<event>
 7    1  0.2728221E-009  0.1836021E+03  0.7561462E-02  0.1164362E+00
         -4   -1    0    0    0  501 -0.00000000000E+00  0.00000000000E+00  0.10535227747E+03  0.10535227747E+03  0.00000000000E+00 0.  1.
          4   -1    0    0  501    0  0.00000000000E+00 -0.00000000000E+00 -0.39547520735E+03  0.39547520735E+03  0.00000000000E+00 0. -1.
         25    2    1    2    0    0 -0.37476524050E+02 -0.15193434594E+03 -0.61408532967E+02  0.20954072593E+03  0.12509105712E+03 0.  0.
          5    1    3    3  502    0 -0.72401362611E+02 -0.11417047318E+03 -0.76988578737E+02  0.15563279831E+03  0.41800000000E+01 0.  1.
         -5    1    3    3    0  502  0.34924838560E+02 -0.37763872760E+02  0.15580045770E+02  0.53907927622E+02  0.41800000000E+01 0.  1.
        -11    1    1    2    0    0  0.58594617427E+02  0.14756801248E+03 -0.19928766215E+03  0.25480427740E+03  0.00000000000E+00 0.  1.
         11    1    1    2    0    0 -0.21118093377E+02  0.43663334599E+01 -0.29426734767E+02  0.36482481478E+02  0.00000000000E+00 0. -1.
</event>
<event>
 7    1  0.2728221E-009  0.1141787E+03  0.7561462E-02  0.1253021E+00
         -2   -1    0    0    0  501 -0.00000000000E+00  0.00000000000E+00  0.19527508259E+02  0.19527508259E+02  0.00000000000E+00 0.  1.
          2   -1    0    0  501    0  0.00000000000E+00 -0.00000000000E+00 -0.90728201861E+03  0.90728201861E+03  0.00000000000E+00 0. -1.
         25    2    1    2    0    0  0.52559647588E+02  0.57525331182E+02 -0.47838159628E+03  0.50056240636E+03  0.12506834423E+03 0.  0.
          5    1    3    3  502    0  0.46704730427E+02  0.81712692108E+02 -0.20043058269E+03  0.22146825229E+03  0.41800000000E+01 0.  1.
         -5    1    3    3    0  502  0.58549171608E+01 -0.24187360926E+02 -0.27795101359E+03  0.27909415408E+03  0.41800000000E+01 0.  1.
        -11    1    1    2    0    0  0.26631689117E+00  0.17308732801E+02 -0.20985769204E+02  0.27204147936E+02  0.00000000000E+00 0.  1.
         11    1    1    2    0    0 -0.52825964479E+02 -0.74834063984E+02 -0.38838714488E+03  0.39904297257E+03  0.00000000000E+00 0. -1.
</event>
<event>
 7    1  0.2728221E-009  0.1123731E+03  0.7561462E-02  0.1256237E+00
          2   -1    0    0  501    0  0.00000000000E+00  0.00000000000E+00  0.32613328729E+03  0.32613328729E+03  0.00000000000E+00 0. -1.
         -2   -1    0    0    0  501 -0.00000000000E+00 -0.00000000000E+00 -0.44878175211E+02  0.44878175211E+02  0.00000000000E+00 0.  1.
         25    2    1    2    0    0  0.34540277675E+02 -0.22456606996E+02  0.10729711059E+03  0.16987005344E+03  0.12508331278E+03 0.  0.
          5    1    3    3  502    0 -0.43708912681E+02 -0.99522216927E+01  0.13484951573E+02  0.46998213619E+02  0.41800000000E+01 0. -1.
         -5    1    3    3    0  502  0.78249190357E+02 -0.12504385303E+02  0.93812159015E+02  0.12287183983E+03  0.41800000000E+01 0. -1.
        -11    1    1    2    0    0  0.22858673031E+01 -0.33394466686E+02  0.68738563725E+02  0.76455253172E+02  0.00000000000E+00 0.  1.
         11    1    1    2    0    0 -0.36826144978E+02  0.55851073682E+02  0.10521943777E+03  0.12468615589E+03  0.00000000000E+00 0. -1.
</event>
<event>
 7    1  0.2728221E-009  0.1007991E+03  0.7561462E-02  0.1278624E+00
          1   -1    0    0  501    0  0.00000000000E+00  0.00000000000E+00  0.88459552773E+03  0.88459552773E+03  0.00000000000E+00 0. -1.
         -1   -1    0    0    0  501 -0.00000000000E+00 -0.00000000000E+00 -0.13711997494E+02  0.13711997494E+02  0.00000000000E+00 0.  1.
         25    2    1    2    0    0 -0.11180737955E+02 -0.17022058525E+02  0.50352010278E+03  0.51922690944E+03  0.12509728297E+03 0.  0.
          5    1    3    3  502    0 -0.51921774795E+02  0.17569772766E+02  0.12017732695E+03  0.13215381162E+03  0.41800000000E+01 0. -1.
         -5    1    3    3    0  502  0.40741036840E+02 -0.34591831291E+02  0.38334277583E+03  0.38707309782E+03  0.41800000000E+01 0. -1.
        -11    1    1    2    0    0 -0.34721178944E+02 -0.14189036696E+02  0.16782210728E+03  0.17196263758E+03  0.00000000000E+00 0.  1.
         11    1    1    2    0    0  0.45901916899E+02  0.31211095221E+02  0.19954132018E+03  0.20711797821E+03  0.00000000000E+00 0. -1.
</event>
<event>
 7    1  0.2728221E-009  0.1533306E+03  0.7561462E-02  0.1196439E+00
          1   -1    0    0  501    0  0.00000000000E+00  0.00000000000E+00  0.85729048921E+02  0.85729048921E+02  0.00000000000E+00 0. -1.
         -1   -1    0    0    0  501 -0.00000000000E+00 -0.00000000000E+00 -0.38344867652E+03  0.38344867652E+03  0.00000000000E+00 0.  1.
         25    2    1    2    0    0 -0.13318452082E+03  0.44053061750E+01 -0.86245211614E+02  0.20209777425E+03  0.12509096899E+03 0.  0.
          5    1    3    3  502    0 -0.14187476719E+03 -0.77986190248E+01 -0.10573465561E+03  0.17716251810E+03  0.41800000000E+01 0. -1.
         -5    1    3    3    0  502  0.86902463633E+01  0.12203925200E+02  0.19489443995E+02  0.24935256152E+02  0.41800000000E+01 0. -1.
        -11    1    1    2    0    0  0.47725843157E+02  0.30505623685E+02 -0.31502675107E+02  0.64813329804E+02  0.00000000000E+00 0.  1.
         11    1    1    2    0    0  0.85458677666E+02 -0.34910929860E+02 -0.17997174088E+03  0.20226662138E+03  0.00000000000E+00 0. -1.
</event>
<event>
 7    1  0.2728221E-009  0.9413507E+02  0.7561462E-02  0.1293136E+00
          2   -1    0    0  501    0  0.00000000000E+00  0.00000000000E+00  0.66160349292E+02  0.66160349292E+02  0.00000000000E+00 0. -1.
         -2   -1    0    0    0  501 -0.00000000000E+00 -0.00000000000E+00 -0.24902020389E+03  0.24902020389E+03  0.00000000000E+00 0.  1.
         25    2    1    2    0    0 -0.36821557613E+02 -0.31727730356E+02 -0.36830323029E+02  0.13917585025E+03  0.12510383136E+03 0.  0.
          5    1    3    3  502    0  0.42705248712E+02 -0.33426197671E+02 -0.11543039461E+02  0.55603625047E+02  0.41800000000E+01 0. -1.
         -5    1    3    3    0  502 -0.79526806325E+02  0.16984673152E+01 -0.25287283568E+02  0.83572225205E+02  0.41800000000E+01 0. -1.
        -11    1    1    2    0    0  0.35188332421E+02  0.16424026808E+02 -0.15389638379E+03  0.15872008171E+03  0.00000000000E+00 0.  1.
         11    1    1    2    0    0  0.16332251914E+01  0.15303703549E+02  0.78668522198E+01  0.17284621219E+02  0.00000000000E+00 0. -1.
</event>
<event>
 7    1  0.2728221E-009  0.1811932E+03  0.7561462E-02  0.1166653E+00
         -2   -1    0    0    0  501 -0.00000000000E+00  0.00000000000E+00  0.23665533311E+03  0.23665533311E+03  0.00000000000E+00 0.  1.
          2   -1    0    0  501    0  0.00000000000E+00 -0.00000000000E+00 -0.17771571564E+03  0.17771571564E+03  0.00000000000E+00 0. -1.
         25    2    1    2    0    0 -0.15226625816E+03 -0.11087948545E+02 -0.53238259945E+02  0.20442464678E+03  0.12508864023E+03 0.  0.
          5    1    3    3  502    0 -0.34004667552E+02  0.48978905334E+02  0.39860301897E+01  0.59905019988E+02  0.41800000000E+01 0.  1.
         -5    1    3    3    0  502 -0.11826159060E+03 -0.60066853879E+02 -0.57224290134E+02  0.14451962679E+03  0.41800000000E+01 0.  1.
        -11    1    1    2    0    0  0.14622680333E+03  0.30674870957E+02  0.11592729998E+03  0.18910939849E+03  0.00000000000E+00 0.  1.
         11    1    1    2    0    0  0.60394548283E+01 -0.19586922412E+02 -0.37494225616E+01  0.20837003473E+02  0.00000000000E+00 0. -1.
</event>
<event>
 7    1  0.2728221E-009  0.1813883E+03  0.7561462E-02  0.1166466E+00
          1   -1    0    0  501    0  0.00000000000E+00  0.00000000000E+00  0.12063675833E+03  0.12063675833E+03  0.00000000000E+00 0. -1.
         -1   -1    0    0    0  501 -0.00000000000E+00 -0.00000000000E+00 -0.48509200574E+03  0.48509200574E+03  0.00000000000E+00 0.  1.
         25    2    1    2    0    0 -0.16258396967E+03 -0.49967853756E+02 -0.21849878725E+02  0.21226163763E+03  0.12508897635E+03 0.  0.
          5    1    3    3  502    0 -0.11836708525E+03 -0.75466879884E+02 -0.55470974662E+02  0.15099840483E+03  0.41800000000E+01 0.  1.
         -5    1    3    3    0  502 -0.44216884421E+02  0.25499026127E+02  0.33621095938E+02  0.61263232802E+02  0.41800000000E+01 0.  1.
        -11    1    1    2    0    0  0.61922488412E+02  0.28649064736E+02 -0.23449267114E+03  0.24421706800E+03  0.00000000000E+00 0.  1.
         11    1    1    2    0    0  0.10066148126E+03  0.21318789021E+02 -0.10811269754E+03  0.14925005844E+03  0.00000000000E+00 0. -1.
</event>
<event>
 7    1  0.2728221E-009  0.1217715E+03  0.7561462E-02  0.1240203E+00
          2   -1    0    0  501    0  0.00000000000E+00  0.00000000000E+00  0.24187634047E+03  0.24187634047E+03  0.00000000000E+00 0. -1.
         -2   -1    0    0    0  501 -0.00000000000E+00 -0.00000000000E+00 -0.10450056122E+03  0.10450056122E+03  0.00000000000E+00 0.  1.
         25    2    1    2    0    0 -0.39392924536E+02 -0.93759711680E+02  0.12899591362E+03  0.20647260551E+03  0.12509318550E+03 0.  0.
          5    1    3    3  502    0 -0.64444012385E+02 -0.31679412727E+02  0.11844115684E+03  0.13857271000E+03  0.41800000000E+01 0.  1.
         -5    1    3    3    0  502  0.25051087849E+02 -0.62080298953E+02  0.10554756788E+02  0.67899895518E+02  0.41800000000E+01 0.  1.
        -11    1    1    2    0    0 -0.27004812115E+01  0.14938121628E+02 -0.36775826479E+02  0.39785694537E+02  0.00000000000E+00 0.  1.
         11    1    1    2    0    0  0.42093405747E+02  0.78821590052E+02  0.45155692109E+02  0.10011860165E+03  0.00000000000E+00 0. -1.
</event>
<event>
 7    1  0.2728221E-009  0.4595678E+03  0.7561462E-02  0.1024907E+00
         -2   -1    0    0    0  501 -0.00000000000E+00  0.00000000000E+00  0.19360409539E+03  0.19360409539E+03  0.00000000000E+00 0.  1.
          2   -1    0    0  501    0  0.00000000000E+00 -0.00000000000E+00 -0.18023159978E+04  0.18023159978E+04  0.00000000000E+00 0. -1.
         25    2    1    2    0    0  0.40354870885E+03  0.21146548534E+03 -0.14163811661E+04  0.14931014405E+04  0.12508833674E+03 0.  0.
          5    1    3    3  502    0  0.14512462754E+03  0.32620050251E+02 -0.32659619218E+03  0.35889799434E+03  0.41800000000E+01 0. -1.
         -5    1    3    3    0  502  0.25842408131E+03  0.17884543509E+03 -0.10897849740E+04  0.11342034462E+04  0.41800000000E+01 0. -1.
        -11    1    1    2    0    0 -0.25470097868E+03 -0.12260336967E+03 -0.16504595638E+03  0.32732910429E+03  0.00000000000E+00 0. -1.
         11    1    1    2    0    0 -0.14884773016E+03 -0.88862115674E+02 -0.27284779884E+02  0.17548954838E+03  0.00000000000E+00 0.  1.
</event>
<event>
 7    1  0.2728221E-009  0.1135940E+03  0.7561462E-02  0.1254056E+00
          1   -1    0    0  501    0  0.00000000000E+00  0.00000000000E+00  0.59774725859E+03  0.59774725859E+03  0.00000000000E+00 0. -1.
         -1   -1    0    0    0  501 -0.00000000000E+00 -0.00000000000E+00 -0.29885665125E+02  0.29885665125E+02  0.00000000000E+00 0.  1.
         25    2    1    2    0    0  0.30391071246E+02 -0.28438048468E+02  0.47545199506E+03  0.49339077663E+03  0.12509004372E+03 0.  0.
          5    1    3    3  502    0  0.68959998369E+02 -0.51223427770E+02  0.33758910063E+03  0.34837220640E+03  0.41800000000E+01 0.  1.
         -5    1    3    3    0  502 -0.38568927123E+02  0.22785379302E+02  0.13786289443E+03  0.14501857023E+03  0.41800000000E+01 0.  1.
        -11    1    1    2    0    0 -0.32437756616E+02  0.58056050604E+02  0.73108661434E+02  0.98831115762E+02  0.00000000000E+00 0.  1.
         11    1    1    2    0    0  0.20466853703E+01 -0.29618002137E+02  0.19300936964E+02  0.35411031322E+02  0.00000000000E+00 0. -1.
</event>
<event>
 7    1  0.2728221E-009  0.9815729E+02  0.7561462E-02  0.1284219E+00
         -1   -1    0    0    0  501 -0.00000000000E+00  0.00000000000E+00  0.88901865415E+02  0.88901865415E+02  0.00000000000E+00 0.  1.
          1   -1    0    0  501    0  0.00000000000E+00 -0.00000000000E+00 -0.15638034341E+03  0.15638034341E+03  0.00000000000E+00 0. -1.
         25    2    1    2    0    0 -0.13433290584E+02 -0.43614340290E+02 -0.19471236458E+02  0.13456296543E+03  0.12508156796E+03 0.  0.
          5    1    3    3  502    0  0.13481981410E+02 -0.71682965279E+02  0.23223211306E+02  0.76661602366E+02  0.41800000000E+01 0. -1.
         -5    1    3    3    0  502 -0.26915271994E+02  0.28068624989E+02 -0.42694447764E+02  0.57901363068E+02  0.41800000000E+01 0. -1.
        -11    1    1    2    0    0  0.41407061634E+02  0.14771488982E+02 -0.54496324237E+02  0.70018504664E+02  0.00000000000E+00 0.  1.
         11    1    1    2    0    0 -0.27973771050E+02  0.28842851308E+02  0.64890827042E+01  0.40700738724E+02  0.00000000000E+00 0. -1.
</event>
<event>
 7    1  0.2728221E-009  0.1192826E+03  0.7561462E-02  0.1244285E+00
          3   -1    0    0  501    0  0.00000000000E+00  0.00000000000E+00  0.11528612013E+03  0.11528612013E+03  0.00000000000E+00 0. -1.
         -3   -1    0    0    0  501 -0.00000000000E+00 -0.00000000000E+00 -0.32063423512E+03  0.32063423512E+03  0.00000000000E+00 0.  1.
         25    2    1    2    0    0  0.44559171486E+02 -0.58231332379E+02  0.51867919388E+02  0.15399561714E+03  0.12509181109E+03 0.  0.
          5    1    3    3  502    0 -0.43598085274E+02 -0.26599330409E+02  0.18682262927E+02  0.54541880843E+02  0.41800000000E+01 0. -1.
         -5    1    3    3    0  502  0.88157256760E+02 -0.31632001969E+02  0.33185656461E+02  0.99453736294E+02  0.41800000000E+01 0. -1.
        -11    1    1    2    0    0 -0.38036009363E+02  0.32198089192E+01 -0.19465367007E+03  0.19836117677E+03  0.00000000000E+00 0.  1.
         11    1    1    2    0    0 -0.65231621235E+01  0.55011523459E+02 -0.62562364304E+02  0.83563561345E+02  0.00000000000E+00 0. -1.
</event>
<event>
 7    1  0.2728221E-009  0.3657998E+03  0.7561462E-02  0.1056311E+00
         -2   -1    0    0    0  501 -0.00000000000E+00  0.00000000000E+00  0.59516055516E+02  0.59516055516E+02  0.00000000000E+00 0.  1.
          2   -1    0    0  501    0  0.00000000000E+00 -0.00000000000E+00 -0.31499844234E+04  0.31499844234E+04  0.00000000000E+00 0. -1.
         25    2    1    2    0    0  0.16641201851E+03 -0.31671737722E+03 -0.23704004802E+04  0.24005100204E+04  0.12508822831E+03 0.  0.
          5    1    3    3  502    0 -0.12316135797E+02 -0.37518533481E+02 -0.13706212302E+03  0.14269837253E+03  0.41800000000E+01 0. -1.
         -5    1    3    3    0  502  0.17872815431E+03 -0.27919884374E+03 -0.22333383572E+04  0.22578116479E+04  0.41800000000E+01 0. -1.
        -11    1    1    2    0    0 -0.12186715128E+03  0.26764611182E+03 -0.64483302090E+03  0.70872820501E+03  0.00000000000E+00 0. -1.
         11    1    1    2    0    0 -0.44544867229E+02  0.49071265401E+02 -0.75234866755E+02  0.10026225342E+03  0.00000000000E+00 0.  1.
</event>
<event>
 7    1  0.2728221E-009  0.1048350E+03  0.7561462E-02  0.1270445E+00
          1   -1    0    0  501    0  0.00000000000E+00  0.00000000000E+00  0.21510115103E+03  0.21510115103E+03  0.00000000000E+00 0. -1.
         -1   -1    0    0    0  501 -0.00000000000E+00 -0.00000000000E+00 -0.78632217173E+02  0.78632217173E+02  0.00000000000E+00 0.  1.
         25    2    1    2    0    0 -0.66781806714E+02  0.20880315394E+02  0.52865920936E+02  0.15276510840E+03  0.12508627211E+03 0.  0.
          5    1    3    3  502    0 -0.90314551470E+02  0.19982376965E+02 -0.23166227393E+01  0.92622096377E+02  0.41800000000E+01 0. -1.
         -5    1    3    3    0  502  0.23532744755E+02  0.89793842879E+00  0.55182543675E+02  0.60143012026E+02  0.41800000000E+01 0. -1.
        -11    1    1    2    0    0  0.58574220388E+02 -0.40954464126E+02  0.20666096183E+02  0.74399562884E+02  0.00000000000E+00 0.  1.
         11    1    1    2    0    0  0.82075863261E+01  0.20074148731E+02  0.62936916738E+02  0.66568696916E+02  0.00000000000E+00 0. -1.
</event>
<event>
 7    1  0.2728221E-009  0.1379257E+03  0.7561462E-02  0.1216148E+00
         -2   -1    0    0    0  501 -0.00000000000E+00  0.00000000000E+00  0.35491680920E+03  0.35491680920E+03  0.00000000000E+00 0.  1.
          2   -1    0    0  501    0  0.00000000000E+00 -0.00000000000E+00 -0.70784332800E+02  0.70784332800E+02  0.00000000000E+00 0. -1.
         25    2    1    2    0    0  0.72793348293E+02  0.68020407242E+02  0.23387930061E+03  0.28331148473E+03  0.12506087626E+03 0.  0.
          5    1    3    3  502    0  0.12521178952E+02  0.90034737170E+02  0.10266551443E+03  0.13718860766E+03  0.41800000000E+01 0. -1.
         -5    1    3    3    0  502  0.60272169341E+02 -0.22014329927E+02  0.13121378618E+03  0.14612287707E+03  0.41800000000E+01 0. -1.
        -11    1    1    2    0    0 -0.68181031499E+02 -0.18268366806E+02 -0.12978672447E+01  0.70597951396E+02  0.00000000000E+00 0.  1.
         11    1    1    2    0    0 -0.46123167945E+01 -0.49752040437E+02  0.51551043033E+02  0.71791705869E+02  0.00000000000E+00 0. -1.
</event>
<event>
 7    1  0.2728221E-009  0.1773175E+03  0.7561462E-02  0.1170425E+00
          2   -1    0    0  501    0  0.00000000000E+00  0.00000000000E+00  0.33898220670E+03  0.33898220670E+03  0.00000000000E+00 0. -1.
         -2   -1    0    0    0  501 -0.00000000000E+00 -0.00000000000E+00 -0.14975144429E+03  0.14975144429E+03  0.00000000000E+00 0.  1.
         25    2    1    2    0    0 -0.83932361427E+02  0.11163560808E+03 -0.52420382305E+02  0.19468671971E+03  0.12509145480E+03 0.  0.
          5    1    3    3  502    0  0.20396670211E+02 -0.12978455252E+02 -0.27221175778E+01  0.24684950487E+02  0.41800000000E+01 0.  1.
         -5    1    3    3    0  502 -0.10432903164E+03  0.12461406333E+03 -0.49698264727E+02  0.17000176923E+03  0.41800000000E+01 0.  1.
        -11    1    1    2    0    0  0.39179659457E+02  0.78284212379E+01  0.56234495171E+02  0.68982956890E+02  0.00000000000E+00 0.  1.
         11    1    1    2    0    0  0.44752701971E+02 -0.11946402932E+03  0.18541664955E+03  0.22506397439E+03  0.00000000000E+00 0. -1.
</event>
<event>
 7    1  0.2728221E-009  0.1577429E+03  0.7561462E-02  0.1191269E+00
         -1   -1    0    0    0  501 -0.00000000000E+00  0.00000000000E+00  0.11009197621E+04  0.11009197621E+04  0.00000000000E+00 0.  1.
          1   -1    0    0  501    0  0.00000000000E+00 -0.00000000000E+00 -0.31238603005E+02  0.31238603005E+02  0.00000000000E+00 0. -1.
         25    2    1    2    0    0 -0.78623861966E+02  0.10123524285E+03  0.80420021391E+03  0.82390193217E+03  0.12508446632E+03 0.  0.
          5    1    3    3  502    0 -0.62331304164E+02 -0.12792606658E+02  0.29752281193E+03  0.30427970402E+03  0.41800000000E+01 0. -1.
         -5    1    3    3    0  502 -0.16292557802E+02  0.11402784951E+03  0.50667740199E+03  0.51962222815E+03  0.41800000000E+01 0. -1.
        -11    1    1    2    0    0  0.18623315821E+02  0.17665915904E+00  0.92645462490E+00  0.18647182597E+02  0.00000000000E+00 0. -1.
         11    1    1    2    0    0  0.60000546145E+02 -0.10141190201E+03  0.26455449060E+03  0.28960925037E+03  0.00000000000E+00 0.  1.
</event>
<event>
 7    1  0.2728221E-009  0.1623156E+03  0.7561462E-02  0.1186107E+00
          4   -1    0    0  501    0  0.00000000000E+00  0.00000000000E+00  0.26393079821E+03  0.26393079821E+03  0.00000000000E+00 0. -1.
         -4   -1    0    0    0  501 -0.00000000000E+00 -0.00000000000E+00 -0.13884552322E+03  0.13884552322E+03  0.00000000000E+00 0.  1.
         25    2    1    2    0    0 -0.78918042001E+02  0.10399515891E+03 -0.24437462196E+02  0.18245843793E+03  0.12510332363E+03 0.  0.
          5    1    3    3  502    0  0.23915743512E+01 -0.23125100140E+02  0.12951989633E+02  0.26939122476E+02  0.41800000000E+01 0. -1.
         -5    1    3    3    0  502 -0.81309616352E+02  0.12712025905E+03 -0.37389451828E+02  0.15551931545E+03  0.41800000000E+01 0. -1.
        -11    1    1    2    0    0  0.36821628501E+02 -0.10139670565E+03  0.14058622021E+03  0.17720499303E+03  0.00000000000E+00 0. -1.
         11    1    1    2    0    0  0.42096413499E+02 -0.25984532611E+01  0.89365169800E+01  0.43112890469E+02  0.00000000000E+00 0.  1.
</event>
<event>
 7    1  0.2728221E-009  0.1392678E+03  0.7561462E-02  0.1214318E+00
          2   -1    0    0  501    0  0.00000000000E+00  0.00000000000E+00  0.94256539542E+02  0.94256539542E+02  0.00000000000E+00 0. -1.
         -2   -1    0    0    0  501 -0.00000000000E+00 -0.00000000000E+00 -0.45644698448E+03  0.45644698448E+03  0.00000000000E+00 0.  1.
         25    2    1    2    0    0 -0.11126639272E+03  0.53343630912E+02 -0.21755569760E+02  0.17705245053E+03  0.12509401392E+03 0.  0.
          5    1    3    3  502    0 -0.85885821768E+02  0.28781573986E+02  0.45139282929E+02  0.10129057530E+03  0.41800000000E+01 0. -1.
         -5    1    3    3    0  502 -0.25380570950E+02  0.24562056926E+02 -0.66894852690E+02  0.75761875231E+02  0.41800000000E+01 0. -1.
        -11    1    1    2    0    0  0.91453171569E+02 -0.78324125627E+02 -0.24420043475E+03  0.27227229675E+03  0.00000000000E+00 0. -1.
         11    1    1    2    0    0  0.19813221149E+02  0.24980494715E+02 -0.96234440425E+02  0.10137877674E+03  0.00000000000E+00 0.  1.
</event>
<event>
 7    1  0.2728221E-009  0.1916464E+03  0.7561462E-02  0.1156985E+00
          2   -1    0    0  501    0  0.00000000000E+00  0.00000000000E+00  0.15519982164E+04  0.15519982164E+04  0.00000000000E+00 0.  1.
         -2   -1    0    0    0  501 -0.00000000000E+00 -0.00000000000E+00 -0.23832635520E+02  0.23832635520E+02  0.00000000000E+00 0. -1.
         25    2    1    2    0    0 -0.12135567729E+03  0.95526201584E+02  0.73093155308E+03  0.75746986701E+03  0.12508880262E+03 0.  0.
          5    1    3    3  502    0 -0.14614152242E+03  0.67750310214E+02  0.58127623409E+03  0.60319729925E+03  0.41800000000E+01 0. -1.
         -5    1    3    3    0  502  0.24785845129E+02  0.27775891370E+02  0.14965531899E+03  0.15427256776E+03  0.41800000000E+01 0. -1.
        -11    1    1    2    0    0  0.13436328769E+03 -0.10335287667E+03  0.72604973477E+03  0.74557597034E+03  0.00000000000E+00 0.  1.
         11    1    1    2    0    0 -0.13007610396E+02  0.78266750833E+01  0.71184293025E+02  0.72785014561E+02  0.00000000000E+00 0. -1.
</event>
<event>
 7    1  0.2728221E-009  0.2118243E+03  0.7561462E-02  0.1140129E+00
          2   -1    0    0  501    0  0.00000000000E+00  0.00000000000E+00  0.79199499338E+03  0.79199499338E+03  0.00000000000E+00 0. -1.
         -2   -1    0    0    0  501 -0.00000000000E+00 -0.00000000000E+00 -0.70061380542E+02  0.70061380542E+02  0.00000000000E+00 0.  1.
         25    2    1    2    0    0  0.18058918569E+03 -0.74837318976E+02  0.51120569886E+03  0.56141989390E+03  0.12509177597E+03 0.  0.
          5    1    3    3  502    0  0.18054053338E+03 -0.84573443276E+02  0.51325127392E+03  0.55062863536E+03  0.41800000000E+01 0.  1.
         -5    1    3    3    0  502  0.48652308232E-01  0.97361243004E+01 -0.20455750584E+01  0.10791258534E+02  0.41800000000E+01 0.  1.
        -11    1    1    2    0    0 -0.10641737630E+03 -0.25510847214E+01  0.92198159431E+02  0.14082495026E+03  0.00000000000E+00 0. -1.
         11    1    1    2    0    0 -0.74171809383E+02  0.77388403697E+02  0.11852975454E+03  0.15981152976E+03  0.00000000000E+00 0.  1.
</event>
<event>
 7    1  0.2728221E-009  0.1262372E+03  0.7561462E-02  0.1233148E+00
          1   -1    0    0  501    0  0.00000000000E+00  0.00000000000E+00  0.15121322363E+03  0.15121322363E+03  0.00000000000E+00 0. -1.
         -1   -1    0    0    0  501 -0.00000000000E+00 -0.00000000000E+00 -0.25658905019E+03  0.25658905019E+03  0.00000000000E+00 0.  1.
         25    2    1    2    0    0  0.78741531297E+01  0.10086171423E+03 -0.18861352419E+03  0.24790892407E+03  0.12509470589E+03 0.  0.
          5    1    3    3  502    0  0.47255023815E+02  0.92442501815E+02 -0.17791244705E+03  0.20603146515E+03  0.41800000000E+01 0.  1.
         -5    1    3    3    0  502 -0.39380870686E+02  0.84192124127E+01 -0.10701077141E+02  0.41877458920E+02  0.41800000000E+01 0.  1.
        -11    1    1    2    0    0  0.99470985263E+01 -0.80126822698E+02  0.99455614862E+02  0.12810414440E+03  0.00000000000E+00 0. -1.
         11    1    1    2    0    0 -0.17821251656E+02 -0.20734891530E+02 -0.16217917228E+02  0.31789205347E+02  0.00000000000E+00 0.  1.
</event>
<event>
 7    1  0.2728221E-009  0.8674592E+02  0.7561462E-02  0.1310929E+00
          1   -1    0    0  501    0  0.00000000000E+00  0.00000000000E+00  0.15283273984E+03  0.15283273984E+03  0.00000000000E+00 0. -1.
         -1   -1    0    0    0  501 -0.00000000000E+00 -0.00000000000E+00 -0.95001277989E+02  0.95001277989E+02  0.00000000000E+00 0.  1.
         25    2    1    2    0    0  0.16587849355E+02 -0.48396742242E+02  0.35223098844E+02  0.13966293132E+03  0.12509063229E+03 0.  0.
          5    1    3    3  502    0 -0.22903541127E+02 -0.42597223500E+02 -0.34263967336E+02  0.59418747072E+02  0.41800000000E+01 0. -1.
         -5    1    3    3    0  502  0.39491390482E+02 -0.57995187414E+01  0.69487066180E+02  0.80244184251E+02  0.41800000000E+01 0. -1.
        -11    1    1    2    0    0 -0.35707071414E+02  0.33330646189E+01 -0.21891382595E+02  0.42015912469E+02  0.00000000000E+00 0.  1.
         11    1    1    2    0    0  0.19119222059E+02  0.45063677623E+02  0.44499745599E+02  0.66155174034E+02  0.00000000000E+00 0. -1.
</event>
<event>
 7    1  0.2728221E-009  0.1413171E+03  0.7561462E-02  0.1211568E+00
          1   -1    0    0  501    0  0.00000000000E+00  0.00000000000E+00  0.76266450893E+02  0.76266450893E+02  0.00000000000E+00 0. -1.
         -1   -1    0    0    0  501 -0.00000000000E+00 -0.00000000000E+00 -0.31324262021E+03  0.31324262021E+03  0.00000000000E+00 0.  1.
         25    2    1    2    0    0  0.25984590932E+02  0.86828663885E+02 -0.49493445667E+02  0.16220802989E+03  0.12508967966E+03 0.  0.
          5    1    3    3  502    0  0.61804278896E+02  0.20031863394E+01 -0.25051083594E+02  0.66849164801E+02  0.41800000000E+01 0.  1.
         -5    1    3    3    0  502 -0.35819687964E+02  0.84825477545E+02 -0.24442362073E+02  0.95358865085E+02  0.41800000000E+01 0.  1.
        -11    1    1    2    0    0 -0.57875984742E+02 -0.74389217254E+02 -0.13972746568E+03  0.16854420761E+03  0.00000000000E+00 0.  1.
         11    1    1    2    0    0  0.31891393810E+02 -0.12439446631E+02 -0.47755257968E+02  0.58756833604E+02  0.00000000000E+00 0. -1.
</event>
<event>
 7    1  0.2728221E-009  0.1126592E+03  0.7561462E-02  0.1255723E+00
          1   -1    0    0  501    0  0.00000000000E+00  0.00000000000E+00  0.12065565494E+03  0.12065565494E+03  0.00000000000E+00 0.  1.
         -1   -1    0    0    0  501 -0.00000000000E+00 -0.00000000000E+00 -0.20969187316E+03  0.20969187316E+03  0.00000000000E+00 0. -1.
         25    2    1    2    0    0  0.60126297467E+02 -0.60859071046E+02 -0.12801412371E+03  0.19837422781E+03  0.12508285340E+03 0.  0.
          5    1    3    3  502    0 -0.12451663647E+01 -0.54137356846E+02 -0.12515104269E+03  0.13642822191E+03  0.41800000000E+01 0.  1.
         -5    1    3    3    0  502  0.61371463831E+02 -0.67217142001E+01 -0.28630810130E+01  0.61946005904E+02  0.41800000000E+01 0.  1.
        -11    1    1    2    0    0 -0.44346826340E+01  0.52645380036E+02  0.52068007015E+02  0.74177353712E+02  0.00000000000E+00 0.  1.
         11    1    1    2    0    0 -0.55691614833E+02  0.82136910100E+01 -0.13090101522E+02  0.57795946575E+02  0.00000000000E+00 0. -1.
</event>
<event>
 7    1  0.2728221E-009  0.2276213E+03  0.7561462E-02  0.1128325E+00
         -1   -1    0    0    0  501 -0.00000000000E+00  0.00000000000E+00  0.90260801663E+02  0.90260801663E+02  0.00000000000E+00 0.  1.
          1   -1    0    0  501    0  0.00000000000E+00 -0.00000000000E+00 -0.93450393497E+03  0.93450393497E+03  0.00000000000E+00 0. -1.
         25    2    1    2    0    0  0.18631801040E+03  0.10433796035E+03 -0.14267938749E+03  0.28565771200E+03  0.12506842063E+03 0.  0.
          5    1    3    3  502    0  0.62682867042E+02  0.88330513846E+02 -0.19086395383E+02  0.11005991271E+03  0.41800000000E+01 0. -1.
         -5    1    3    3    0  502  0.12363514336E+03  0.16007446502E+02 -0.12359299211E+03  0.17559779929E+03  0.41800000000E+01 0. -1.
        -11    1    1    2    0    0 -0.15349822837E+03 -0.55401683628E+02 -0.40305314251E+03  0.43483662260E+03  0.00000000000E+00 0.  1.
         11    1    1    2    0    0 -0.32819782028E+02 -0.48936276719E+02 -0.29851060331E+03  0.30427040204E+03  0.00000000000E+00 0. -1.
</event>
<event>
 7    1  0.2728221E-009  0.9210709E+02  0.7561462E-02  0.1297828E+00
          1   -1    0    0  501    0  0.00000000000E+00  0.00000000000E+00  0.37054487240E+03  0.37054487240E+03  0.00000000000E+00 0. -1.
         -1   -1    0    0    0  501 -0.00000000000E+00 -0.00000000000E+00 -0.36647484223E+02  0.36647484223E+02  0.00000000000E+00 0.  1.
         25    2    1    2    0    0 -0.29969265246E+02 -0.17086484944E+02  0.22634249690E+03  0.26089805958E+03  0.12508703675E+03 0.  0.
          5    1    3    3  502    0  0.31354082589E+02 -0.33483174171E+02  0.16929873926E+03  0.17545294800E+03  0.41800000000E+01 0.  1.
         -5    1    3    3    0  502 -0.61323347836E+02  0.16396689227E+02  0.57043757643E+02  0.85445111583E+02  0.41800000000E+01 0.  1.
        -11    1    1    2    0    0 -0.21042488407E+02  0.10669931520E+01 -0.50269043087E+01  0.21660899328E+02  0.00000000000E+00 0.  1.
         11    1    1    2    0    0  0.51011753654E+02  0.16019491792E+02  0.11258179558E+03  0.12463339771E+03  0.00000000000E+00 0. -1.
</event>
<event>
 7    1  0.2728221E-009  0.1002833E+03  0.7561462E-02  0.1279701E+00
          2   -1    0    0  501    0  0.00000000000E+00  0.00000000000E+00  0.98659566511E+03  0.98659566511E+03  0.00000000000E+00 0. -1.
         -2   -1    0    0    0  501 -0.00000000000E+00 -0.00000000000E+00 -0.22085213894E+02  0.22085213894E+02  0.00000000000E+00 0.  1.
         25    2    1    2    0    0  0.86810565144E+02 -0.28880115883E+02  0.66318370045E+03  0.68105327880E+03  0.12510320823E+03 0.  0.
          5    1    3    3  502    0  0.20822778948E+02 -0.27161029731E+01  0.93490767031E+01  0.23363282596E+02  0.41800000000E+01 0. -1.
         -5    1    3    3    0  502  0.65987786197E+02 -0.26164012910E+02  0.65383462374E+03  0.65768999620E+03  0.41800000000E+01 0. -1.
        -11    1    1    2    0    0 -0.82874778740E+02  0.43015907946E+02  0.29839641076E+03  0.31266438116E+03  0.00000000000E+00 0. -1.
         11    1    1    2    0    0 -0.39357864045E+01 -0.14135792063E+02  0.29303400113E+01  0.14963219054E+02  0.00000000000E+00 0.  1.
</event>
<event>
 7    1  0.2728221E-009  0.1490024E+03  0.7561462E-02  0.1201704E+00
         -1   -1    0    0    0  501 -0.00000000000E+00  0.00000000000E+00  0.40299882613E+02  0.40299882613E+02  0.00000000000E+00 0.  1.
          1   -1    0    0  501    0  0.00000000000E+00 -0.00000000000E+00 -0.77202951310E+03  0.77202951310E+03  0.00000000000E+00 0. -1.
         25    2    1    2    0    0  0.13274681260E+03  0.17433184114E+02 -0.29990831152E+03  0.35145278515E+03  0.12509369572E+03 0.  0.
          5    1    3    3  502    0  0.87333162868E-01  0.34755863542E+01  0.11462462085E+02  0.12686519012E+02  0.41800000000E+01 0. -1.
         -5    1    3    3    0  502  0.13265947944E+03  0.13957597760E+02 -0.31137077361E+03  0.33876626614E+03  0.41800000000E+01 0. -1.
        -11    1    1    2    0    0 -0.51376608549E+02  0.35130695865E+02 -0.20487453260E+03  0.21411981648E+03  0.00000000000E+00 0. -1.
         11    1    1    2    0    0 -0.81370204052E+02 -0.52563879979E+02 -0.22694678636E+03  0.24675679408E+03  0.00000000000E+00 0.  1.
</event>
<event>
 7    1  0.2728221E-009  0.1262785E+03  0.7561462E-02  0.1233085E+00
         -1   -1    0    0    0  501 -0.00000000000E+00  0.00000000000E+00  0.64617772267E+03  0.64617772267E+03  0.00000000000E+00 0.  1.
          1   -1    0    0  501    0  0.00000000000E+00 -0.00000000000E+00 -0.52623474236E+02  0.52623474236E+02  0.00000000000E+00 0. -1.
         25    2    1    2    0    0 -0.42628383606E+02 -0.87630069290E+02  0.52460628440E+03  0.54804565998E+03  0.12508430620E+03 0.  0.
          5    1    3    3  502    0 -0.70244804018E+02 -0.39502778086E+02  0.43607533215E+03  0.44347939037E+03  0.41800000000E+01 0.  1.
         -5    1    3    3    0  502  0.27616420412E+02 -0.48127291204E+02  0.88530952250E+02  0.10456626962E+03  0.41800000000E+01 0.  1.
        -11    1    1    2    0    0 -0.16749178004E+02  0.22938048990E+02 -0.12459023217E+02  0.31014775750E+02  0.00000000000E+00 0. -1.
         11    1    1    2    0    0  0.59377561610E+02  0.64692020300E+02  0.81406987245E+02  0.11974076117E+03  0.00000000000E+00 0.  1.
</event>
<event>
 7    1  0.2728221E-009  0.9962149E+02  0.7561462E-02  0.1281094E+00
         -2   -1    0    0    0  501 -0.00000000000E+00  0.00000000000E+00  0.13357300402E+03  0.13357300402E+03  0.00000000000E+00 0.  1.
          2   -1    0    0  501    0  0.00000000000E+00 -0.00000000000E+00 -0.22205287432E+03  0.22205287432E+03  0.00000000000E+00 0. -1.
         25    2    1    2    0    0 -0.36316189166E+02 -0.76576859866E+02  0.58488884310E+02  0.16202051731E+03  0.12508723907E+03 0.  0.
          5    1    3    3  502    0 -0.41041521817E+02 -0.11430518068E+02 -0.29769371033E+02  0.52141644661E+02  0.41800000000E+01 0. -1.
         -5    1    3    3    0  502  0.47253326509E+01 -0.65146341799E+02  0.88258255343E+02  0.10987887265E+03  0.41800000000E+01 0. -1.
        -11    1    1    2    0    0  0.60282381948E+01  0.50960034141E+02 -0.14508465969E+03  0.15389224546E+03  0.00000000000E+00 0. -1.
         11    1    1    2    0    0  0.30287950971E+02  0.25616825725E+02 -0.18840949127E+01  0.39713115565E+02  0.00000000000E+00 0.  1.
</event>
<event>
 7    1  0.2728221E-009  0.1196372E+03  0.7561462E-02  0.1243697E+00
          2   -1    0    0  501    0  0.00000000000E+00  0.00000000000E+00  0.72170911631E+03  0.72170911631E+03  0.00000000000E+00 0. -1.
         -2   -1    0    0    0  501 -0.00000000000E+00 -0.00000000000E+00 -0.42805959958E+02  0.42805959958E+02  0.00000000000E+00 0.  1.
         25    2    1    2    0    0  0.65176589557E+02 -0.49211774033E+02  0.60238704824E+03  0.62063548960E+03  0.12509383890E+03 0.  0.
          5    1    3    3  502    0  0.77231992876E+02 -0.82882994915E+02  0.45287429179E+03  0.46684790686E+03  0.41800000000E+01 0.  1.
         -5    1    3    3    0  502 -0.12055403318E+02  0.33671220882E+02  0.14951275645E+03  0.15378758274E+03  0.41800000000E+01 0.  1.
        -11    1    1    2    0    0 -0.93296833859E+01  0.29073508152E+02  0.78758684558E+02  0.84470363215E+02  0.00000000000E+00 0. -1.
         11    1    1    2    0    0 -0.55846906172E+02  0.20138265881E+02 -0.22425764539E+01  0.59409223449E+02  0.00000000000E+00 0.  1.
</event>
<event>
 6    1  0.2728221E-009  0.1081356E+03  0.7561462E-02  0.1264062E+00
         -2   -1    0    0    0  501 -0.00000000000E+00  0.00000000000E+00  0.87527021766E+02  0.87527021766E+02  0.00000000000E+00 0.  1.
          2   -1    0    0  501    0  0.00000000000E+00 -0.00000000000E+00 -0.34766913936E+03  0.34766913936E+03  0.00000000000E+00 0. -1.
          5    1    1    2  502    0  0.98207298631E+01 -0.91321883452E+02 -0.18700005450E+03  0.20838096342E+03  0.41800000000E+01 0.  1.
         -5    1    1    2    0  502  0.16138627777E+02  0.41741013960E+02 -0.10427246276E+03  0.11354728725E+03  0.41800000000E+01 0.  1.
        -11    1    1    2    0    0 -0.39072658051E+01  0.56216280205E+02  0.55950265281E+02  0.79410132044E+02  0.00000000000E+00 0.  1.
         11    1    1    2    0    0 -0.22052091835E+02 -0.66354107129E+01 -0.24819865618E+02  0.33857778411E+02  0.00000000000E+00 0. -1.
</event>
<event>
 7    1  0.2728221E-009  0.1605313E+03  0.7561462E-02  0.1188098E+00
         -2   -1    0    0    0  501 -0.00000000000E+00  0.00000000000E+00  0.68622133805E+03  0.68622133805E+03  0.00000000000E+00 0. -1.
          2   -1    0    0  501    0  0.00000000000E+00 -0.00000000000E+00 -0.45436597719E+02  0.45436597719E+02  0.00000000000E+00 0.  1.
         25    2    1    2    0    0 -0.45303963004E+02 -0.11729177390E+03  0.22002971416E+03  0.28261791981E+03  0.12509997682E+03 0.  0.
          5    1    3    3  502    0 -0.60271703444E+02 -0.70538987245E+01  0.11221627515E+03  0.12764168806E+03  0.41800000000E+01 0. -1.
         -5    1    3    3    0  502  0.14967740439E+02 -0.11023787518E+03  0.10781343901E+03  0.15497623175E+03  0.41800000000E+01 0. -1.
        -11    1    1    2    0    0  0.58224626142E+02  0.40231934181E+02  0.13053748159E+03  0.14848821406E+03  0.00000000000E+00 0.  1.
         11    1    1    2    0    0 -0.12920663137E+02  0.77059839720E+02  0.29021754459E+03  0.30055180190E+03  0.00000000000E+00 0. -1.
</event>
<event>
 7    1  0.2728221E-009  0.1038495E+03  0.7561462E-02  0.1272403E+00
         -1   -1    0    0    0  501 -0.00000000000E+00  0.00000000000E+00  0.32017632464E+02  0.32017632464E+02  0.00000000000E+00 0.  1.
          1   -1    0    0  501    0  0.00000000000E+00 -0.00000000000E+00 -0.44850466800E+03  0.44850466800E+03  0.00000000000E+00 0. -1.
         25    2    1    2    0    0 -0.20325020327E+02  0.39350200730E+02 -0.30604812992E+03  0.33357642882E+03  0.12508489634E+03 0.  0.
          5    1    3    3  502    0 -0.31296831582E+01  0.73858457320E+02 -0.27223504083E+03  0.28212454075E+03  0.41800000000E+01 0.  1.
         -5    1    3    3    0  502 -0.17195337169E+02 -0.34508256590E+02 -0.33813089087E+02  0.51451888079E+02  0.41800000000E+01 0.  1.
        -11    1    1    2    0    0 -0.26728768853E+02  0.82206444781E+01 -0.19709015399E+02  0.34211860049E+02  0.00000000000E+00 0.  1.
         11    1    1    2    0    0  0.47053789181E+02 -0.47570845208E+02 -0.90729890220E+02  0.11273401159E+03  0.00000000000E+00 0. -1.
</event>
<event>
 7    1  0.2728221E-009  0.1019408E+03  0.7561462E-02  0.1276267E+00
          1   -1    0    0  501    0  0.00000000000E+00  0.00000000000E+00  0.23821667856E+03  0.23821667856E+03  0.00000000000E+00 0. -1.
         -1   -1    0    0    0  501 -0.00000000000E+00 -0.00000000000E+00 -0.64469042617E+02  0.64469042617E+02  0.00000000000E+00 0.  1.
         25    2    1    2    0    0  0.51095349624E+01  0.47768918434E+02  0.10517242844E+03  0.17031972739E+03  0.12505835805E+03 0.  0.
          5    1    3    3  502    0  0.84151328443E+00 -0.21105127413E+02 -0.18662927919E+02  0.28494066509E+02  0.41800000000E+01 0. -1.
         -5    1    3    3    0  502  0.42680216779E+01  0.68874045847E+02  0.12383535636E+03  0.14182566088E+03  0.41800000000E+01 0. -1.
        -11    1    1    2    0    0  0.41254437842E+02 -0.52322683458E+02  0.40463298230E+02  0.77954283715E+02  0.00000000000E+00 0. -1.
         11    1    1    2    0    0 -0.46363972804E+02  0.45537650232E+01  0.28111909279E+02  0.54411710076E+02  0.00000000000E+00 0.  1.
</event>
<event>
 7    1  0.2728221E-009  0.6954469E+02  0.7561462E-02  0.1361648E+00
         -1   -1    0    0    0  501 -0.00000000000E+00  0.00000000000E+00  0.74540286729E+02  0.74540286729E+02  0.00000000000E+00 0.  1.
          1   -1    0    0  501    0  0.00000000000E+00 -0.00000000000E+00 -0.17311341311E+03  0.17311341311E+03  0.00000000000E+00 0. -1.
         25    2    1    2    0    0  0.26737332678E+02 -0.32690519132E+01 -0.33749873396E+02  0.13235928045E+03  0.12511735894E+03 0.  0.
          5    1    3    3  502    0  0.44966055549E+02  0.27453441753E+00  0.37444032978E+02  0.58664721311E+02  0.41800000000E+01 0.  1.
         -5    1    3    3    0  502 -0.18228722871E+02 -0.35435863307E+01 -0.71193906375E+02  0.73694559137E+02  0.41800000000E+01 0.  1.
        -11    1    1    2    0    0 -0.15759759798E+02  0.36574862757E+02  0.19490710190E+01  0.39873418368E+02  0.00000000000E+00 0.  1.
         11    1    1    2    0    0 -0.10977572881E+02 -0.33305810843E+02 -0.66772324003E+02  0.75421001021E+02  0.00000000000E+00 0. -1.
</event>
<event>
 7    1  0.2728221E-009  0.1265392E+03  0.7561462E-02  0.1232683E+00
          2   -1    0    0  501    0  0.00000000000E+00  0.00000000000E+00  0.53502964341E+03  0.53502964341E+03  0.00000000000E+00 0. -1.
         -2   -1    0    0    0  501 -0.00000000000E+00 -0.00000000000E+00 -0.30949596969E+02  0.30949596969E+02  0.00000000000E+00 0.  1.
         25    2    1    2    0    0  0.52410966725E+02 -0.46186155407E+02  0.25628617811E+03  0.29361518456E+03  0.12508877299E+03 0.  0.
          5    1    3    3  502    0 -0.40447932533E+02 -0.31070144283E+01  0.76183055554E+02  0.86411915488E+02  0.41800000000E+01 0.  1.
         -5    1    3    3    0  502  0.92858899259E+02 -0.43079140979E+02  0.18010312255E+03  0.20720326907E+03  0.41800000000E+01 0.  1.
        -11    1    1    2    0    0 -0.61409343049E+02 -0.13915151285E+01  0.16972331641E+03  0.18049666995E+03  0.00000000000E+00 0.  1.
         11    1    1    2    0    0  0.89983763237E+01  0.47577670536E+02  0.78070551918E+02  0.91867385871E+02  0.00000000000E+00 0. -1.
</event>
<event>
 7    1  0.2728221E-009  0.9801753E+02  0.7561462E-02  0.1284521E+00
          1   -1    0    0  501    0  0.00000000000E+00  0.00000000000E+00  0.10930128310E+03  0.10930128310E+03  0.00000000000E+00 0. -1.
         -1   -1    0    0    0  501 -0.00000000000E+00 -0.00000000000E+00 -0.14686870494E+03  0.14686870494E+03  0.00000000000E+00 0.  1.
         25    2    1    2    0    0 -0.43951484711E+02 -0.15774346290E+01  0.27857531309E+02  0.13549392497E+03  0.12509332653E+03 0.  0.
          5    1    3    3  502    0 -0.41814695189E+02  0.47551045700E+02  0.50591197819E+02  0.81157331016E+02  0.41800000000E+01 0. -1.
         -5    1    3    3    0  502 -0.21367895229E+01 -0.49128480329E+02 -0.22733666510E+02  0.54336593949E+02  0.41800000000E+01 0. -1.
        -11    1    1    2    0    0  0.62180983826E+02 -0.78949497100E+01 -0.12514457147E+02  0.63917263850E+02  0.00000000000E+00 0. -1.
         11    1    1    2    0    0 -0.18229499114E+02  0.94723843390E+01 -0.52910496001E+02  0.56758799230E+02  0.00000000000E+00 0.  1.
</event>
<event>
 7    1  0.2728221E-009  0.1225743E+03  0.7561462E-02  0.1238910E+00
         -2   -1    0    0    0  501 -0.00000000000E+00  0.00000000000E+00  0.62879815462E+02  0.62879815462E+02  0.00000000000E+00 0. -1.
          2   -1    0    0  501    0  0.00000000000E+00 -0.00000000000E+00 -0.49745666645E+03  0.49745666645E+03  0.00000000000E+00 0.  1.
         25    2    1    2    0    0 -0.47032409324E+02  0.52283671662E+02 -0.42190986459E+03  0.44564577723E+03  0.12508635050E+03 0.  0.
          5    1    3    3  502    0 -0.55925318292E+02 -0.19771756915E+02 -0.10665537535E+03  0.12211226429E+03  0.41800000000E+01 0. -1.
         -5    1    3    3    0  502  0.88929089676E+01  0.72055428578E+02 -0.31525448923E+03  0.32353351295E+03  0.41800000000E+01 0. -1.
        -11    1    1    2    0    0 -0.16489880143E+02 -0.46310984060E+02  0.20911872907E+01  0.49203622387E+02  0.00000000000E+00 0. -1.
         11    1    1    2    0    0  0.63522289468E+02 -0.59726876024E+01 -0.14758173693E+02  0.65487082292E+02  0.00000000000E+00 0.  1.
</event>
<event>
 7    1  0.2728221E-009  0.1077405E+03  0.7561462E-02  0.1264812E+00
         -1   -1    0    0    0  501 -0.00000000000E+00  0.00000000000E+00  0.74627279776E+02  0.74627279776E+02  0.00000000000E+00 0.  1.
          1   -1    0    0  501    0  0.00000000000E+00 -0.00000000000E+00 -0.28499376773E+03  0.28499376773E+03  0.00000000000E+00 0. -1.
         25    2    1    2    0    0 -0.79621165300E+02 -0.16233367177E+02 -0.18469629978E+03  0.23741094073E+03  0.12509268345E+03 0.  0.
          5    1    3    3  502    0 -0.10369861529E+03 -0.11259837792E+02 -0.84933881299E+02  0.13457868833E+03  0.41800000000E+01 0. -1.
         -5    1    3    3    0  502  0.24077449993E+02 -0.49735293845E+01 -0.99762418478E+02  0.10283225240E+03  0.41800000000E+01 0. -1.
        -11    1    1    2    0    0  0.70817660307E+02  0.38045940670E+01  0.20311896867E+02  0.73771194255E+02  0.00000000000E+00 0.  1.
         11    1    1    2    0    0  0.88035049928E+01  0.12428773110E+02 -0.45982085044E+02  0.48438912521E+02  0.00000000000E+00 0. -1.
</event>
<event>
 7    1  0.2728221E-009  0.1104075E+03  0.7561462E-02  0.1259817E+00
         -1   -1    0    0    0  501 -0.00000000000E+00  0.00000000000E+00  0.10313075721E+03  0.10313075721E+03  0.00000000000E+00 0.  1.
          1   -1    0    0  501    0  0.00000000000E+00 -0.00000000000E+00 -0.15766400987E+03  0.15766400987E+03  0.00000000000E+00 0. -1.
         25    2    1    2    0    0 -0.91360494009E+01  0.40222049941E+02  0.24560379579E+02  0.13398556401E+03  0.12509052090E+03 0.  0.
          5    1    3    3  502    0 -0.61908639902E+02  0.32769544011E+02 -0.91793773752E+01  0.70769033328E+02  0.41800000000E+01 0. -1.
         -5    1    3    3    0  502  0.52772590501E+02  0.74525059302E+01  0.33739756954E+02  0.63216530687E+02  0.41800000000E+01 0. -1.
        -11    1    1    2    0    0 -0.62427044331E+01  0.27263048012E+02 -0.12072036886E+02  0.30462751355E+02  0.00000000000E+00 0.  1.
         11    1    1    2    0    0  0.15378753834E+02 -0.67485097953E+02 -0.67021595351E+02  0.96346451718E+02  0.00000000000E+00 0. -1.
</event>
<event>
 7    1  0.2728221E-009  0.1633484E+03  0.7561462E-02  0.1184967E+00
          2   -1    0    0  501    0  0.00000000000E+00  0.00000000000E+00  0.25622509512E+04  0.25622509512E+04  0.00000000000E+00 0. -1.
         -2   -1    0    0    0  501 -0.00000000000E+00 -0.00000000000E+00 -0.16033160901E+02  0.16033160901E+02  0.00000000000E+00 0.  1.
         25    2    1    2    0    0 -0.13053286109E+03 -0.35294012310E+02  0.19933381224E+04  0.20018314279E+04  0.12509076826E+03 0.  0.
          5    1    3    3  502    0 -0.10297536506E+03  0.17108327820E+02  0.77005980724E+03  0.77711401983E+03  0.41800000000E+01 0.  1.
         -5    1    3    3    0  502 -0.27557496031E+02 -0.52402340130E+02  0.12232783152E+04  0.12247174081E+04  0.41800000000E+01 0.  1.
        -11    1    1    2    0    0  0.46829967108E+02 -0.30945076946E+02  0.20715856215E+03  0.21462831472E+03  0.00000000000E+00 0. -1.
         11    1    1    2    0    0  0.83702893980E+02  0.66239089255E+02  0.34572110572E+03  0.36182436948E+03  0.00000000000E+00 0.  1.
</event>
<event>
 7    1  0.2728221E-009  0.2065566E+03  0.7561462E-02  0.1144322E+00
         -1   -1    0    0    0  501 -0.00000000000E+00  0.00000000000E+00  0.71866412525E+02  0.71866412525E+02  0.00000000000E+00 0.  1.
          1   -1    0    0  501    0  0.00000000000E+00 -0.00000000000E+00 -0.63366412720E+03  0.63366412720E+03  0.00000000000E+00 0. -1.
         25    2    1    2    0    0  0.18295685379E+03  0.10265386535E+02 -0.31995982233E+03  0.38935934459E+03  0.12509125790E+03 0.  0.
          5    1    3    3  502    0  0.17095880376E+03  0.48389643298E+02 -0.22864843958E+03  0.28959635958E+03  0.41800000000E+01 0. -1.
         -5    1    3    3    0  502  0.11998050037E+02 -0.38124256763E+02 -0.91311382747E+02  0.99762985008E+02  0.41800000000E+01 0. -1.
        -11    1    1    2    0    0 -0.72846785651E+02  0.28850256777E+02 -0.14328708657E+03  0.16331007523E+03  0.00000000000E+00 0.  1.
         11    1    1    2    0    0 -0.11011006814E+03 -0.39115643311E+02 -0.98550805779E+02  0.15286111990E+03  0.00000000000E+00 0. -1.
</event>
<event>
 7    1  0.2728221E-009  0.8419790E+02  0.7561462E-02  0.1317544E+00
          2   -1    0    0  501    0  0.00000000000E+00  0.00000000000E+00  0.74540515842E+03  0.74540515842E+03  0.00000000000E+00 0. -1.
         -2   -1    0    0    0  501 -0.00000000000E+00 -0.00000000000E+00 -0.16850709504E+02  0.16850709504E+02  0.00000000000E+00 0.  1.
         25    2    1    2    0    0  0.28850205086E+02  0.39121011961E+01  0.41430489516E+03  0.43375523295E+03  0.12508963621E+03 0.  0.
          5    1    3    3  502    0  0.45642298667E+02 -0.17317842651E+02  0.39974548573E+03  0.40273695244E+03  0.41800000000E+01 0.  1.
         -5    1    3    3    0  502 -0.16792093581E+02  0.21229943847E+02  0.14559409430E+02  0.31018280505E+02  0.41800000000E+01 0.  1.
        -11    1    1    2    0    0 -0.59918733665E+02  0.36684025680E+01  0.24461964301E+03  0.25187791004E+03  0.00000000000E+00 0. -1.
         11    1    1    2    0    0  0.31068528579E+02 -0.75805037641E+01  0.69629910749E+02  0.76622724934E+02  0.00000000000E+00 0.  1.
</event>
<event>
 7    1  0.2728221E-009  0.1308785E+03  0.7561462E-02  0.1226158E+00
         -2   -1    0    0    0  501 -0.00000000000E+00  0.00000000000E+00  0.85175577999E+02  0.85175577999E+02  0.00000000000E+00 0.  1.
          2   -1    0    0  501    0  0.00000000000E+00 -0.00000000000E+00 -0.25689739876E+03  0.25689739876E+03  0.00000000000E+00 0. -1.
         25    2    1    2    0    0  0.49922243178E+02 -0.74212642687E+02 -0.13637628458E+03  0.20553670119E+03  0.12508836012E+03 0.  0.
          5    1    3    3  502    0  0.31334086148E+02  0.29442234178E+02 -0.17339190299E+02  0.46548791911E+02  0.41800000000E+01 0.  1.
         -5    1    3    3    0  502  0.18588157030E+02 -0.10365487686E+03 -0.11903709429E+03  0.15898790927E+03  0.41800000000E+01 0.  1.
        -11    1    1    2    0    0  0.84169810442E+01 -0.84920052425E+01  0.18397945914E+02  0.21941835310E+02  0.00000000000E+00 0.  1.
         11    1    1    2    0    0 -0.58339224222E+02  0.82704647929E+02 -0.53743482091E+02  0.11459444026E+03  0.00000000000E+00 0. -1.
</event>
<event>
 7    1  0.2728221E-009  0.9289469E+02  0.7561462E-02  0.1295989E+00
         -1   -1    0    0    0  501 -0.00000000000E+00  0.00000000000E+00  0.93348358016E+02  0.93348358016E+02  0.00000000000E+00 0.  1.
          1   -1    0    0  501    0  0.00000000000E+00 -0.00000000000E+00 -0.20866013236E+03  0.20866013236E+03  0.00000000000E+00 0. -1.
         25    2    1    2    0    0 -0.37249775032E+02  0.42758406925E+02 -0.11446797077E+03  0.17878908691E+03  0.12508714627E+03 0.  0.
          5    1    3    3  502    0 -0.47057766199E+02  0.84447702927E+01  0.10184972353E+02  0.49060713068E+02  0.41800000000E+01 0. -1.
         -5    1    3    3    0  502  0.98079911670E+01  0.34313636632E+02 -0.12465294312E+03  0.12972837384E+03  0.41800000000E+01 0. -1.
        -11    1    1    2    0    0 -0.27603712089E+02 -0.12723901307E+02  0.32374015417E+02  0.44406524968E+02  0.00000000000E+00 0.  1.
         11    1    1    2    0    0  0.64853487120E+02 -0.30034505617E+02 -0.33217818996E+02  0.78812878505E+02  0.00000000000E+00 0. -1.
</event>
<event>
 7    1  0.2728221E-009  0.1035285E+03  0.7561462E-02  0.1273046E+00
          2   -1    0    0  501    0  0.00000000000E+00  0.00000000000E+00  0.12584017273E+03  0.12584017273E+03  0.00000000000E+00 0.  1.
         -2   -1    0    0    0  501 -0.00000000000E+00 -0.00000000000E+00 -0.11320016429E+03  0.11320016429E+03  0.00000000000E+00 0. -1.
         25    2    1    2    0    0 -0.49595586328E+01  0.39577565655E+02  0.34645200531E+02  0.13578812896E+03  0.12508854912E+03 0.  0.
          5    1    3    3  502    0  0.45988329884E+02 -0.10890070968E+02  0.42279355170E+02  0.63549479973E+02  0.41800000000E+01 0. -1.
         -5    1    3    3    0  502 -0.50947888516E+02  0.50467636623E+02 -0.76341546391E+01  0.72238648988E+02  0.41800000000E+01 0. -1.
        -11    1    1    2    0    0 -0.18293760041E+02  0.18011077490E+02  0.16180661116E+02  0.30345911800E+02  0.00000000000E+00 0.  1.
         11    1    1    2    0    0  0.23253318674E+02 -0.57588643145E+02 -0.38185853204E+02  0.72906296255E+02  0.00000000000E+00 0. -1.
</event>
<event>
 7    1  0.2728221E-009  0.1339527E+03  0.7561462E-02  0.1221706E+00
         -3   -1    0    0    0  501 -0.00000000000E+00  0.00000000000E+00  0.26245780221E+03  0.26245780221E+03  0.00000000000E+00 0.  1.
          3   -1    0    0  501    0  0.00000000000E+00 -0.00000000000E+00 -0.13290781477E+03  0.13290781477E+03  0.00000000000E+00 0. -1.
         25    2    1    2    0    0 -0.94396286978E+02 -0.45465234623E+02 -0.48500439029E+02  0.17022907359E+03  0.12509155989E+03 0.  0.
          5    1    3    3  502    0 -0.47488106586E+02  0.41375746122E+02 -0.86820480960E+01  0.63717525010E+02  0.41800000000E+01 0. -1.
         -5    1    3    3    0  502 -0.46908180391E+02 -0.86840980745E+02 -0.39818390933E+02  0.10651154858E+03  0.41800000000E+01 0. -1.
        -11    1    1    2    0    0  0.64765379036E+02  0.22704590384E+02  0.17461204442E+03  0.18761508149E+03  0.00000000000E+00 0.  1.
         11    1    1    2    0    0  0.29630907942E+02  0.22760644239E+02  0.34383820509E+01  0.37521461895E+02  0.00000000000E+00 0. -1.
</event>
<event>
 7    1  0.2728221E-009  0.7549741E+02  0.7561462E-02  0.1342338E+00
         -2   -1    0    0    0  501 -0.00000000000E+00  0.00000000000E+00  0.11245986734E+02  0.11245986734E+02  0.00000000000E+00 0.  1.
          2   -1    0    0  501    0  0.00000000000E+00 -0.00000000000E+00 -0.13578144115E+04  0.13578144115E+04  0.00000000000E+00 0. -1.
         25    2    1    2    0    0 -0.89927376536E+01  0.71497601049E+01 -0.10334269656E+04  0.10410335701E+04  0.12509041704E+03 0.  0.
          5    1    3    3  502    0 -0.26016515805E+02  0.31675702422E+02 -0.96928643787E+03  0.97016178046E+03  0.41800000000E+01 0. -1.
         -5    1    3    3    0  502  0.17023778151E+02 -0.24525942317E+02 -0.64140527719E+02  0.70871789628E+02  0.41800000000E+01 0. -1.
        -11    1    1    2    0    0 -0.26488738303E+02  0.21440589549E+02 -0.47239603011E+02  0.58248881790E+02  0.00000000000E+00 0.  1.
         11    1    1    2    0    0  0.35481475957E+02 -0.28590349654E+02 -0.26590185615E+03  0.26977794635E+03  0.00000000000E+00 0. -1.
</event>
<event>
 7    1  0.2728221E-009  0.1202264E+03  0.7561462E-02  0.1242724E+00
          1   -1    0    0  501    0  0.00000000000E+00  0.00000000000E+00  0.64310345486E+03  0.64310345486E+03  0.00000000000E+00 0. -1.
         -1   -1    0    0    0  501 -0.00000000000E+00 -0.00000000000E+00 -0.24881514711E+02  0.24881514711E+02  0.00000000000E+00 0.  1.
         25    2    1    2    0    0  0.63085103721E+02 -0.69307495956E+01  0.29460545477E+03  0.32629527668E+03  0.12509383680E+03 0.  0.
          5    1    3    3  502    0 -0.59659294862E+01  0.44613599306E+02  0.52504471662E+02  0.69283168968E+02  0.41800000000E+01 0. -1.
         -5    1    3    3    0  502  0.69051033207E+02 -0.51544348902E+02  0.24210098311E+03  0.25701210772E+03  0.41800000000E+01 0. -1.
        -11    1    1    2    0    0  0.22508784889E+02  0.63357131736E+01  0.86164877142E+02  0.89281424224E+02  0.00000000000E+00 0.  1.
         11    1    1    2    0    0 -0.85593888609E+02  0.59503642200E+00  0.23745160824E+03  0.25240826866E+03  0.00000000000E+00 0. -1.
</event>
<event>
 7    1  0.3066271E-009  0.9156584E+02  0.7561462E-02  0.1299103E+00
          3   -1    0    0  501    0  0.00000000000E+00  0.00000000000E+00  0.36362523009E+02  0.36362523009E+02  0.00000000000E+00 0. -1.
         -3   -1    0    0    0  501 -0.00000000000E+00 -0.00000000000E+00 -0.40943584307E+03  0.40943584307E+03  0.00000000000E+00 0.  1.
         25    2    1    2    0    0 -0.10206426013E+02 -0.36406371925E+02 -0.28220968206E+03  0.31099630872E+03  0.12508718695E+03 0.  0.
          5    1    3    3  502    0  0.48079603237E+02  0.15564056708E+02 -0.86914100112E+02  0.10062515246E+03  0.41800000000E+01 0.  1.
         -5    1    3    3    0  502 -0.58286029250E+02 -0.51970428634E+02 -0.19529558195E+03  0.21037115626E+03  0.41800000000E+01 0.  1.
        -11    1    1    2    0    0 -0.12250077641E+02  0.27421161439E+02 -0.10331938845E+03  0.10759591315E+03  0.00000000000E+00 0.  1.
         11    1    1    2    0    0  0.22456503654E+02  0.89852104862E+01  0.12455750446E+02  0.27206144215E+02  0.00000000000E+00 0. -1.
</event>
<event>
 7    1  0.2728221E-009  0.1065634E+03  0.7561462E-02  0.1267070E+00
          2   -1    0    0  501    0  0.00000000000E+00  0.00000000000E+00  0.29638343364E+03  0.29638343364E+03  0.00000000000E+00 0. -1.
         -2   -1    0    0    0  501 -0.00000000000E+00 -0.00000000000E+00 -0.95268434239E+02  0.95268434239E+02  0.00000000000E+00 0.  1.
         25    2    1    2    0    0 -0.62405427462E+02 -0.40897184618E+02  0.22808294414E+03  0.27062027556E+03  0.12508591868E+03 0.  0.
          5    1    3    3  502    0  0.10552273339E-01  0.14003318612E+02  0.16636016944E+03  0.16700081263E+03  0.41800000000E+01 0. -1.
         -5    1    3    3    0  502 -0.62415979736E+02 -0.54900503230E+02  0.61722774696E+02  0.10361946293E+03  0.41800000000E+01 0. -1.
        -11    1    1    2    0    0  0.56732264564E+01  0.56229587265E+02 -0.26116879015E+02  0.62257877830E+02  0.00000000000E+00 0.  1.
         11    1    1    2    0    0  0.56732201006E+02 -0.15332402647E+02 -0.85106572196E+00  0.58773714488E+02  0.00000000000E+00 0. -1.
</event>
<event>
 7    1  0.2728221E-009  0.1153811E+03  0.7561462E-02  0.1250917E+00
          1   -1    0    0  501    0  0.00000000000E+00  0.00000000000E+00  0.65778170033E+03  0.65778170033E+03  0.00000000000E+00 0. -1.
         -1   -1    0    0    0  501 -0.00000000000E+00 -0.00000000000E+00 -0.28224524465E+02  0.28224524465E+02  0.00000000000E+00 0.  1.
         25    2    1    2    0    0 -0.29449552196E+02 -0.77443940228E+02  0.36677403818E+03  0.39627717857E+03  0.12509023610E+03 0.  0.
          5    1    3    3  502    0  0.43030087670E+02 -0.22698177815E+01  0.14083367112E+03  0.14733748959E+03  0.41800000000E+01 0.  1.
         -5    1    3    3    0  502 -0.72479639865E+02 -0.75174122447E+02  0.22594036706E+03  0.24893968898E+03  0.41800000000E+01 0.  1.
        -11    1    1    2    0    0  0.15761579610E+02  0.47269683526E+02  0.24884210190E+03  0.25378187889E+03  0.00000000000E+00 0. -1.
         11    1    1    2    0    0  0.13687972585E+02  0.30174256702E+02  0.13941035780E+02  0.35947167338E+02  0.00000000000E+00 0.  1.
</event>
<event>
 7    1  0.2728221E-009  0.2307005E+03  0.7561462E-02  0.1126148E+00
          1   -1    0    0  501    0  0.00000000000E+00  0.00000000000E+00  0.19398655572E+03  0.19398655572E+03  0.00000000000E+00 0. -1.
         -1   -1    0    0    0  501 -0.00000000000E+00 -0.00000000000E+00 -0.30241179642E+03  0.30241179642E+03  0.00000000000E+00 0.  1.
         25    2    1    2    0    0 -0.20595715387E+03 -0.23451571916E+02 -0.11936702342E+02  0.24240363050E+03  0.12509480310E+03 0.  0.
          5    1    3    3  502    0 -0.16402614682E+03  0.24661175949E+02 -0.42851832368E+02  0.17136657310E+03  0.41800000000E+01 0. -1.
         -5    1    3    3    0  502 -0.41931007052E+02 -0.48112747865E+02  0.30915130025E+02  0.71037057400E+02  0.41800000000E+01 0. -1.
        -11    1    1    2    0    0  0.19148572435E+03  0.52943762518E+02 -0.97117954430E+02  0.22113733672E+03  0.00000000000E+00 0.  1.
         11    1    1    2    0    0  0.14471429523E+02 -0.29492190602E+02  0.62941606875E+00  0.32857384916E+02  0.00000000000E+00 0. -1.
</event>
<event>
 7    1  0.2728221E-009  0.1073638E+03  0.7561462E-02  0.1265531E+00
          2   -1    0    0  501    0  0.00000000000E+00  0.00000000000E+00  0.10062564419E+03  0.10062564419E+03  0.00000000000E+00 0.  1.
         -2   -1    0    0    0  501 -0.00000000000E+00 -0.00000000000E+00 -0.14796047877E+03  0.14796047877E+03  0.00000000000E+00 0. -1.
         25    2    1    2    0    0 -0.19000576536E+02  0.51161498417E+02 -0.42173832344E+02  0.14284817019E+03  0.12509375190E+03 0.  0.
          5    1    3    3  502    0 -0.56611765135E+02 -0.97819222237E+01 -0.41695854103E+02  0.71109736348E+02  0.41800000000E+01 0.  1.
         -5    1    3    3    0  502  0.37611188599E+02  0.60943420641E+02 -0.47797824137E+00  0.71738433844E+02  0.41800000000E+01 0.  1.
        -11    1    1    2    0    0 -0.24342272372E+02 -0.24306993838E+02 -0.32979232939E+02  0.47655072961E+02  0.00000000000E+00 0. -1.
         11    1    1    2    0    0  0.43342848908E+02 -0.26854504579E+02  0.27818230699E+02  0.58082879809E+02  0.00000000000E+00 0.  1.
</event>
<event>
 7    1  0.2728221E-009  0.1580653E+03  0.7561462E-02  0.1190898E+00
         -2   -1    0    0    0  501 -0.00000000000E+00  0.00000000000E+00  0.23906543561E+02  0.23906543561E+02  0.00000000000E+00 0. -1.
          2   -1    0    0  501    0  0.00000000000E+00 -0.00000000000E+00 -0.12455439854E+04  0.12455439854E+04  0.00000000000E+00 0.  1.
         25    2    1    2    0    0  0.11864289708E+03 -0.29673012208E+02 -0.85118213504E+03  0.86897123463E+03  0.12507339811E+03 0.  0.
          5    1    3    3  502    0  0.33012656173E+02 -0.68955696388E+02 -0.29084948800E+03  0.30075840903E+03  0.41800000000E+01 0.  1.
         -5    1    3    3    0  502  0.85630240906E+02  0.39282684180E+02 -0.56033264704E+03  0.56821282560E+03  0.41800000000E+01 0.  1.
        -11    1    1    2    0    0 -0.36362519998E+02  0.48731986329E+02 -0.21653037185E+03  0.22490540520E+03  0.00000000000E+00 0. -1.
         11    1    1    2    0    0 -0.82280377082E+02 -0.19058974121E+02 -0.15392493491E+03  0.17557388910E+03  0.00000000000E+00 0.  1.
</event>
<event>
 7    1  0.2728221E-009  0.1533614E+03  0.7561462E-02  0.1196402E+00
          4   -1    0    0  501    0  0.00000000000E+00  0.00000000000E+00  0.22230525290E+03  0.22230525290E+03  0.00000000000E+00 0. -1.
         -4   -1    0    0    0  501 -0.00000000000E+00 -0.00000000000E+00 -0.16295263789E+03  0.16295263789E+03  0.00000000000E+00 0.  1.
         25    2    1    2    0    0  0.21343533838E+02  0.10714382716E+03  0.14388532964E+03  0.21974826206E+03  0.12510381471E+03 0.  0.
          5    1    3    3  502    0  0.47633115157E+02 -0.60800540031E+01  0.28935870453E+02  0.56219549225E+02  0.41800000000E+01 0.  1.
         -5    1    3    3    0  502 -0.26289581319E+02  0.11322388117E+03  0.11494945919E+03  0.16352871283E+03  0.41800000000E+01 0.  1.
        -11    1    1    2    0    0 -0.85206323360E+01 -0.12216427423E+03 -0.74722117227E+02  0.14345767974E+03  0.00000000000E+00 0.  1.
         11    1    1    2    0    0 -0.12822901502E+02  0.15020447070E+02 -0.98105974027E+01  0.22051948996E+02  0.00000000000E+00 0. -1.
</event>
<event>
 7    1  0.2728221E-009  0.1339737E+03  0.7561462E-02  0.1221676E+00
          2   -1    0    0  501    0  0.00000000000E+00  0.00000000000E+00  0.45506543191E+03  0.45506543191E+03  0.00000000000E+00 0. -1.
         -2   -1    0    0    0  501 -0.00000000000E+00 -0.00000000000E+00 -0.63249451743E+02  0.63249451743E+02  0.00000000000E+00 0.  1.
         25    2    1    2    0    0 -0.10819546603E+03  0.56726603857E+02  0.14193792739E+03  0.22520220734E+03  0.12508194316E+03 0.  0.
          5    1    3    3  502    0 -0.27030754400E+02 -0.11597923239E+02  0.11056619471E+03  0.11448811868E+03  0.41800000000E+01 0. -1.
         -5    1    3    3    0  502 -0.81164711628E+02  0.68324527096E+02  0.31371732685E+02  0.11071408866E+03  0.41800000000E+01 0. -1.
        -11    1    1    2    0    0  0.73461156957E+01 -0.25426803385E+02  0.56903833014E+01  0.27071538714E+02  0.00000000000E+00 0.  1.
         11    1    1    2    0    0  0.10084935033E+03 -0.31299800472E+02  0.24418766947E+03  0.26604113760E+03  0.00000000000E+00 0. -1.
</event>
<event>
 7    1  0.2928234E-009  0.1547155E+03  0.7561462E-02  0.1194795E+00
         -2   -1    0    0    0  501 -0.00000000000E+00  0.00000000000E+00  0.35579587040E+02  0.35579587040E+02  0.00000000000E+00 0.  1.
          2   -1    0    0  501    0  0.00000000000E+00 -0.00000000000E+00 -0.72310175745E+03  0.72310175745E+03  0.00000000000E+00 0. -1.
         25    2    1    2    0    0  0.87958180249E+02  0.77815364351E+02 -0.37466587567E+03  0.41208486063E+03  0.12509013377E+03 0.  0.
          5    1    3    3  502    0  0.87286484962E+02  0.10283299166E+03 -0.35560472287E+03  0.38034950500E+03  0.41800000000E+01 0. -1.
         -5    1    3    3    0  502  0.67169528673E+00 -0.25017627306E+02 -0.19061152798E+02  0.31735355624E+02  0.41800000000E+01 0. -1.
        -11    1    1    2    0    0  0.14025923820E+02 -0.36450174769E+02 -0.86143610914E+02  0.94583632205E+02  0.00000000000E+00 0.  1.
         11    1    1    2    0    0 -0.10198410407E+03 -0.41365189581E+02 -0.22671268383E+03  0.25201285166E+03  0.00000000000E+00 0. -1.
</event>
<event>
 7    1  0.2728221E-009  0.1156132E+03  0.7561462E-02  0.1250514E+00
         -2   -1    0    0    0  501 -0.00000000000E+00  0.00000000000E+00  0.41041168541E+02  0.41041168541E+02  0.00000000000E+00 0.  1.
          2   -1    0    0  501    0  0.00000000000E+00 -0.00000000000E+00 -0.11432352184E+04  0.11432352184E+04  0.00000000000E+00 0. -1.
         25    2    1    2    0    0  0.26837981036E+02  0.47549875055E+02 -0.10623825909E+04  0.10711146324E+04  0.12509403829E+03 0.  0.
          5    1    3    3  502    0  0.23482424429E+02  0.84732636348E+02 -0.51704007474E+03  0.52447969952E+03  0.41800000000E+01 0.  1.
         -5    1    3    3    0  502  0.33555566073E+01 -0.37182761292E+02 -0.54534251614E+03  0.54663493284E+03  0.41800000000E+01 0.  1.
        -11    1    1    2    0    0 -0.52838711661E+02 -0.16302768859E+01 -0.24134997192E+02  0.58112695189E+02  0.00000000000E+00 0. -1.
         11    1    1    2    0    0  0.26000730624E+02 -0.45919598169E+02 -0.15676461833E+02  0.55049059435E+02  0.00000000000E+00 0.  1.
</event>
<event>
 7    1  0.2728221E-009  0.1033355E+03  0.7561462E-02  0.1273434E+00
          2   -1    0    0  501    0  0.00000000000E+00  0.00000000000E+00  0.13813127583E+03  0.13813127583E+03  0.00000000000E+00 0. -1.
         -2   -1    0    0    0  501 -0.00000000000E+00 -0.00000000000E+00 -0.10231593623E+03  0.10231593623E+03  0.00000000000E+00 0.  1.
         25    2    1    2    0    0 -0.35725390290E+01  0.10952444433E+02  0.71269876845E+02  0.14442964617E+03  0.12509119983E+03 0.  0.
          5    1    3    3  502    0  0.53798410196E+02 -0.23015143846E+02  0.36888875060E+02  0.69298104513E+02  0.41800000000E+01 0.  1.
         -5    1    3    3    0  502 -0.57370949225E+02  0.33967588279E+02  0.34381001785E+02  0.75131541660E+02  0.41800000000E+01 0.  1.
        -11    1    1    2    0    0 -0.12632599480E+02  0.32478196262E+02  0.40884554448E+01  0.35087480245E+02  0.00000000000E+00 0. -1.
         11    1    1    2    0    0  0.16205138509E+02 -0.43430640695E+02 -0.39542992694E+02  0.60930085643E+02  0.00000000000E+00 0.  1.
</event>
<event>
 7    1  0.2728221E-009  0.1178401E+03  0.7561462E-02  0.1246703E+00
         -2   -1    0    0    0  501 -0.00000000000E+00  0.00000000000E+00  0.43042206039E+02  0.43042206039E+02  0.00000000000E+00 0.  1.
          2   -1    0    0  501    0  0.00000000000E+00 -0.00000000000E+00 -0.53180884055E+03  0.53180884055E+03  0.00000000000E+00 0. -1.
         25    2    1    2    0    0 -0.57589339264E+02 -0.58969593346E+02 -0.38798599628E+03  0.41590234651E+03  0.12509070143E+03 0.  0.
          5    1    3    3  502    0 -0.74078007556E+02  0.32494356073E+00 -0.12144708083E+03  0.14231838473E+03  0.41800000000E+01 0.  1.
         -5    1    3    3    0  502  0.16488668293E+02 -0.59294536907E+02 -0.26653891545E+03  0.27358396178E+03  0.41800000000E+01 0.  1.
        -11    1    1    2    0    0  0.67018926475E+02  0.38573073321E+02 -0.27132343368E+02  0.81948658000E+02  0.00000000000E+00 0.  1.
         11    1    1    2    0    0 -0.94295872118E+01  0.20396520025E+02 -0.73648294866E+02  0.77000042084E+02  0.00000000000E+00 0. -1.
</event>
<event>
 7    1  0.2728221E-009  0.1119560E+03  0.7561462E-02  0.1256990E+00
          1   -1    0    0  501    0  0.00000000000E+00  0.00000000000E+00  0.11839809610E+03  0.11839809610E+03  0.00000000000E+00 0. -1.
         -1   -1    0    0    0  501 -0.00000000000E+00 -0.00000000000E+00 -0.17556134524E+03  0.17556134524E+03  0.00000000000E+00 0.  1.
         25    2    1    2    0    0  0.54137943808E+02 -0.50635640472E+02 -0.91481702135E+02  0.17178790909E+03  0.12508916355E+03 0.  0.
          5    1    3    3  502    0  0.77056101458E+02 -0.48517259353E+01 -0.92305035050E+02  0.12041126987E+03  0.41800000000E+01 0.  1.
         -5    1    3    3    0  502 -0.22918157650E+02 -0.45783914537E+02  0.82333291547E+00  0.51376639219E+02  0.41800000000E+01 0.  1.
        -11    1    1    2    0    0 -0.20278223000E+02 -0.12326673898E+02  0.44037464916E+02  0.50024509330E+02  0.00000000000E+00 0. -1.
         11    1    1    2    0    0 -0.33859720808E+02  0.62962314370E+02 -0.97190119204E+01  0.72147022924E+02  0.00000000000E+00 0.  1.
</event>
<event>
 7    1  0.2728221E-009  0.1093000E+03  0.7561462E-02  0.1261872E+00
         -2   -1    0    0    0  501 -0.00000000000E+00  0.00000000000E+00  0.78879314257E+02  0.78879314257E+02  0.00000000000E+00 0.  1.
          2   -1    0    0  501    0  0.00000000000E+00 -0.00000000000E+00 -0.20948895395E+03  0.20948895395E+03  0.00000000000E+00 0. -1.
         25    2    1    2    0    0  0.37721959202E+02  0.60072058577E+01 -0.13886990432E+03  0.19076699310E+03  0.12509261610E+03 0.  0.
          5    1    3    3  502    0 -0.37441698604E+02 -0.28320827861E+02 -0.39769417282E+02  0.61668703862E+02  0.41800000000E+01 0.  1.
         -5    1    3    3    0  502  0.75163657805E+02  0.34328033718E+02 -0.99100487041E+02  0.12909828924E+03  0.41800000000E+01 0.  1.
        -11    1    1    2    0    0 -0.50641084849E+02 -0.31860108133E+02  0.24266796958E+02  0.64563638370E+02  0.00000000000E+00 0.  1.
         11    1    1    2    0    0  0.12919125648E+02  0.25852902275E+02 -0.16006532324E+02  0.33037636728E+02  0.00000000000E+00 0. -1.
</event>
<event>
 7    1  0.2728221E-009  0.7801525E+02  0.7561462E-02  0.1334780E+00
         -2   -1    0    0    0  501 -0.00000000000E+00  0.00000000000E+00  0.25394621537E+02  0.25394621537E+02  0.00000000000E+00 0. -1.
          2   -1    0    0  501    0  0.00000000000E+00 -0.00000000000E+00 -0.55787097869E+03  0.55787097869E+03  0.00000000000E+00 0.  1.
         25    2    1    2    0    0 -0.55765660394E+01 -0.40598177699E+02 -0.34712402101E+03  0.37124007304E+03  0.12507915793E+03 0.  0.
          5    1    3    3  502    0  0.14535593913E+02  0.51748857370E+01 -0.30586589907E+03  0.30628333867E+03  0.41800000000E+01 0. -1.
         -5    1    3    3    0  502 -0.20112159953E+02 -0.45773063436E+02 -0.41258121940E+02  0.64956734372E+02  0.41800000000E+01 0. -1.
        -11    1    1    2    0    0  0.11404707651E+02  0.64383056840E+02 -0.77356591249E+02  0.10128814133E+03  0.00000000000E+00 0. -1.
         11    1    1    2    0    0 -0.58281416120E+01 -0.23784879141E+02 -0.10799574489E+03  0.11073738585E+03  0.00000000000E+00 0.  1.
</event>
<event>
 7    1  0.2728221E-009  0.1108713E+03  0.7561462E-02  0.1258965E+00
          1   -1    0    0  501    0  0.00000000000E+00  0.00000000000E+00  0.44534442018E+03  0.44534442018E+03  0.00000000000E+00 0. -1.
         -1   -1    0    0    0  501 -0.00000000000E+00 -0.00000000000E+00 -0.42450575070E+02  0.42450575070E+02  0.00000000000E+00 0.  1.
         25    2    1    2    0    0 -0.51246247635E+02  0.60885321388E+02  0.16631052295E+03  0.22280117540E+03  0.12509186008E+03 0.  0.
          5    1    3    3  502    0 -0.36987942892E+02 -0.26710897042E+01 -0.66751613735E+01  0.37911381127E+02  0.41800000000E+01 0. -1.
         -5    1    3    3    0  502 -0.14258304744E+02  0.63556411092E+02  0.17298568432E+03  0.18488979427E+03  0.41800000000E+01 0. -1.
        -11    1    1    2    0    0  0.76597063371E+02 -0.50566713140E+02  0.18877684233E+03  0.20990664305E+03  0.00000000000E+00 0.  1.
         11    1    1    2    0    0 -0.25350815735E+02 -0.10318608248E+02  0.47806479828E+02  0.55087176803E+02  0.00000000000E+00 0. -1.
</event>
<event>
 7    1  0.2728221E-009  0.1090079E+03  0.7561462E-02  0.1262418E+00
         -3   -1    0    0    0  501 -0.00000000000E+00  0.00000000000E+00  0.36138621366E+02  0.36138621366E+02  0.00000000000E+00 0.  1.
          3   -1    0    0  501    0  0.00000000000E+00 -0.00000000000E+00 -0.47082876467E+03  0.47082876467E+03  0.00000000000E+00 0. -1.
         25    2    1    2    0    0  0.35222234992E+02  0.56096053574E+02 -0.19130975843E+03  0.23797733309E+03  0.12508562800E+03 0.  0.
          5    1    3    3  502    0 -0.37453099454E+02 -0.86948524067E+01 -0.87098445594E+02  0.95299248381E+02  0.41800000000E+01 0. -1.
         -5    1    3    3    0  502  0.72675334447E+02  0.64790905980E+02 -0.10421131283E+03  0.14267808471E+03  0.41800000000E+01 0. -1.
        -11    1    1    2    0    0 -0.19041382141E+02 -0.61849420333E+02 -0.24335932336E+03  0.25181676929E+03  0.00000000000E+00 0. -1.
         11    1    1    2    0    0 -0.16180852851E+02  0.57533667596E+01 -0.21061523917E-01  0.17173283659E+02  0.00000000000E+00 0.  1.
</event>
<event>
 7    1  0.2728221E-009  0.1347341E+03  0.7561462E-02  0.1220596E+00
          1   -1    0    0  501    0  0.00000000000E+00  0.00000000000E+00  0.44293789161E+03  0.44293789161E+03  0.00000000000E+00 0. -1.
         -1   -1    0    0    0  501 -0.00000000000E+00 -0.00000000000E+00 -0.51353723447E+02  0.51353723447E+02  0.00000000000E+00 0.  1.
         25    2    1    2    0    0 -0.51952784042E+02  0.88875908703E+02  0.19795678980E+03  0.25579658904E+03  0.12508791076E+03 0.  0.
          5    1    3    3  502    0 -0.27589750299E+02  0.11939819755E+03  0.14580157946E+03  0.19050642213E+03  0.41800000000E+01 0.  1.
         -5    1    3    3    0  502 -0.24363033743E+02 -0.30522288847E+02  0.52155210337E+02  0.65290166908E+02  0.41800000000E+01 0.  1.
        -11    1    1    2    0    0  0.75697739186E+01 -0.43312245284E+02  0.16121926000E+03  0.16710745604E+03  0.00000000000E+00 0. -1.
         11    1    1    2    0    0  0.44383010123E+02 -0.45563663419E+02  0.32408118368E+02  0.71387569982E+02  0.00000000000E+00 0.  1.
</event>
<event>
 7    1  0.2728221E-009  0.2196218E+03  0.7561462E-02  0.1134165E+00
          1   -1    0    0  501    0  0.00000000000E+00  0.00000000000E+00  0.26173834686E+03  0.26173834686E+03  0.00000000000E+00 0. -1.
         -1   -1    0    0    0  501 -0.00000000000E+00 -0.00000000000E+00 -0.21433153057E+03  0.21433153057E+03  0.00000000000E+00 0.  1.
         25    2    1    2    0    0 -0.11079050984E+03 -0.16958426517E+03 -0.26650184268E+02  0.23957619882E+03  0.12511259990E+03 0.  0.
          5    1    3    3  502    0 -0.81662283665E+01 -0.89707286017E+02 -0.56059752759E+02  0.10618028409E+03  0.41800000000E+01 0. -1.
         -5    1    3    3    0  502 -0.10262428148E+03 -0.79876979149E+02  0.29409568490E+02  0.13339591473E+03  0.41800000000E+01 0. -1.
        -11    1    1    2    0    0  0.94668516301E+01  0.88976178634E+02  0.46781045999E+01  0.89600593228E+02  0.00000000000E+00 0.  1.
         11    1    1    2    0    0  0.10132365821E+03  0.80608086532E+02  0.69378895961E+02  0.14689308538E+03  0.00000000000E+00 0. -1.
</event>
<event>
 7    1  0.2945905E-009  0.2176893E+03  0.7561462E-02  0.1135618E+00
         -2   -1    0    0    0  501 -0.00000000000E+00  0.00000000000E+00  0.15386705690E+03  0.15386705690E+03  0.00000000000E+00 0.  1.
          2   -1    0    0  501    0  0.00000000000E+00 -0.00000000000E+00 -0.34177208693E+03  0.34177208693E+03  0.00000000000E+00 0. -1.
         25    2    1    2    0    0  0.14716948312E+03  0.12384635846E+03 -0.16184257065E+03  0.28078411321E+03  0.12509965343E+03 0.  0.
          5    1    3    3  502    0  0.10588860217E+03  0.14424550380E+03 -0.10500319910E+03  0.20751459143E+03  0.41800000000E+01 0. -1.
         -5    1    3    3    0  502  0.41280880945E+02 -0.20399145341E+02 -0.56839371557E+02  0.73269521775E+02  0.41800000000E+01 0. -1.
        -11    1    1    2    0    0 -0.10333442571E+03 -0.31656443323E+02  0.48885588012E+01  0.10818517435E+03  0.00000000000E+00 0.  1.
         11    1    1    2    0    0 -0.43835057408E+02 -0.92189915139E+02 -0.30951018182E+02  0.10666985628E+03  0.00000000000E+00 0. -1.
</event>
<event>
 7    1  0.2728221E-009  0.1126473E+03  0.7561462E-02  0.1255745E+00
         -3   -1    0    0    0  501 -0.00000000000E+00  0.00000000000E+00  0.22044792439E+03  0.22044792439E+03  0.00000000000E+00 0.  1.
          3   -1    0    0  501    0  0.00000000000E+00 -0.00000000000E+00 -0.58695176089E+02  0.58695176089E+02  0.00000000000E+00 0. -1.
         25    2    1    2    0    0 -0.29538999458E+02 -0.46891574859E+00  0.10015203856E+03  0.16294284618E+03  0.12508864026E+03 0.  0.
          5    1    3    3  502    0 -0.97786372230E+01  0.61468360485E+02  0.59153206862E+02  0.85968339339E+02  0.41800000000E+01 0.  1.
         -5    1    3    3    0  502 -0.19760362235E+02 -0.61937276234E+02  0.40998831693E+02  0.76974506839E+02  0.41800000000E+01 0.  1.
        -11    1    1    2    0    0 -0.16521865126E+02  0.35988692556E+02  0.32127347562E+02  0.50993376830E+02  0.00000000000E+00 0.  1.
         11    1    1    2    0    0  0.46060864585E+02 -0.35519776807E+02  0.29473362180E+02  0.65206877466E+02  0.00000000000E+00 0. -1.
</event>
<event>
 7    1  0.2728221E-009  0.9334175E+02  0.7561462E-02  0.1294955E+00
         -2   -1    0    0    0  501 -0.00000000000E+00  0.00000000000E+00  0.35689649392E+02  0.35689649392E+02  0.00000000000E+00 0.  1.
          2   -1    0    0  501    0  0.00000000000E+00 -0.00000000000E+00 -0.54108032573E+03  0.54108032573E+03  0.00000000000E+00 0. -1.
         25    2    1    2    0    0  0.50973657042E+01  0.51159822440E+02 -0.41358303937E+03  0.43513401638E+03  0.12508945274E+03 0.  0.
          5    1    3    3  502    0  0.32529143890E+02  0.30182306480E+02 -0.39857391474E+02  0.59792983550E+02  0.41800000000E+01 0. -1.
         -5    1    3    3    0  502 -0.27431778185E+02  0.20977515959E+02 -0.37372564790E+03  0.37534103283E+03  0.41800000000E+01 0. -1.
        -11    1    1    2    0    0 -0.46132604526E+00  0.28013797131E+02 -0.18037955951E+02  0.33321967323E+02  0.00000000000E+00 0. -1.
         11    1    1    2    0    0 -0.46360396589E+01 -0.79173619570E+02 -0.73769681013E+02  0.10831399142E+03  0.00000000000E+00 0.  1.
</event>
<event>
 7    1  0.2728221E-009  0.1154961E+03  0.7561462E-02  0.1250718E+00
         -1   -1    0    0    0  501 -0.00000000000E+00  0.00000000000E+00  0.58981829997E+02  0.58981829997E+02  0.00000000000E+00 0.  1.
          1   -1    0    0  501    0  0.00000000000E+00 -0.00000000000E+00 -0.36926515536E+03  0.36926515536E+03  0.00000000000E+00 0. -1.
         25    2    1    2    0    0 -0.48958224570E+02 -0.56326009806E+02 -0.26776025779E+03  0.30481555857E+03  0.12508973562E+03 0.  0.
          5    1    3    3  502    0 -0.67479798478E+02  0.86736136028E+01 -0.79356551364E+02  0.10461209022E+03  0.41800000000E+01 0.  1.
         -5    1    3    3    0  502  0.18521573908E+02 -0.64999623408E+02 -0.18840370643E+03  0.20020346835E+03  0.41800000000E+01 0.  1.
        -11    1    1    2    0    0  0.95367658740E+01  0.54840355862E+02  0.11200895702E+02  0.56779173990E+02  0.00000000000E+00 0.  1.
         11    1    1    2    0    0  0.39421458696E+02  0.14856539433E+01 -0.53723963276E+02  0.66652252801E+02  0.00000000000E+00 0. -1.
</event>
<event>
 7    1  0.2728221E-009  0.1213653E+03  0.7561462E-02  0.1240862E+00
          1   -1    0    0  501    0  0.00000000000E+00  0.00000000000E+00  0.59501866200E+03  0.59501866200E+03  0.00000000000E+00 0. -1.
         -1   -1    0    0    0  501 -0.00000000000E+00 -0.00000000000E+00 -0.66939443751E+02  0.66939443751E+02  0.00000000000E+00 0.  1.
         25    2    1    2    0    0  0.88873476119E+02 -0.59284582868E+02  0.49726657149E+03  0.52376973583E+03  0.12509011365E+03 0.  0.
          5    1    3    3  502    0  0.89578923702E+02 -0.55135145849E+02  0.19630423466E+03  0.22274894573E+03  0.41800000000E+01 0. -1.
         -5    1    3    3    0  502 -0.70544758323E+00 -0.41494370192E+01  0.30096233683E+03  0.30102079010E+03  0.41800000000E+01 0. -1.
        -11    1    1    2    0    0 -0.23509568846E+02 -0.18508347502E+02 -0.52352435761E+01  0.30375426415E+02  0.00000000000E+00 0.  1.
         11    1    1    2    0    0 -0.65363907272E+02  0.77792930370E+02  0.36047890342E+02  0.10781294351E+03  0.00000000000E+00 0. -1.
</event>
<event>
 7    1  0.2728221E-009  0.1164078E+03  0.7561462E-02  0.1249143E+00
         -3   -1    0    0    0  501 -0.00000000000E+00  0.00000000000E+00  0.51925596488E+03  0.51925596488E+03  0.00000000000E+00 0.  1.
          3   -1    0    0  501    0  0.00000000000E+00 -0.00000000000E+00 -0.29182705192E+02  0.29182705192E+02  0.00000000000E+00 0. -1.
         25    2    1    2    0    0  0.55648744112E+02 -0.11891178850E+02  0.27893974024E+03  0.31095527255E+03  0.12509044724E+03 0.  0.
          5    1    3    3  502    0  0.63788270898E+02  0.41650483503E+02  0.11295211344E+03  0.13630612096E+03  0.41800000000E+01 0. -1.
         -5    1    3    3    0  502 -0.81395267861E+01 -0.53541662353E+02  0.16598762679E+03  0.17464915159E+03  0.41800000000E+01 0. -1.
        -11    1    1    2    0    0  0.22928988513E+02  0.25822332102E+01  0.89119045133E+02  0.92057648503E+02  0.00000000000E+00 0.  1.
         11    1    1    2    0    0 -0.78577732625E+02  0.93089456401E+01  0.12201447432E+03  0.14542574902E+03  0.00000000000E+00 0. -1.
</event>
<event>
 7    1  0.2728221E-009  0.1334156E+03  0.7561462E-02  0.1222474E+00
         -1   -1    0    0    0  501 -0.00000000000E+00  0.00000000000E+00  0.42814081663E+02  0.42814081663E+02  0.00000000000E+00 0.  1.
          1   -1    0    0  501    0  0.00000000000E+00 -0.00000000000E+00 -0.44682226943E+03  0.44682226943E+03  0.00000000000E+00 0. -1.
         25    2    1    2    0    0 -0.73727481953E+02 -0.44877067450E+02 -0.19902222891E+03  0.25041219667E+03  0.12508688126E+03 0.  0.
          5    1    3    3  502    0  0.31340150638E+02 -0.10850368399E+02 -0.86305310254E+02  0.92552766109E+02  0.41800000000E+01 0. -1.
         -5    1    3    3    0  502 -0.10506763259E+03 -0.34026699051E+02 -0.11271691865E+03  0.15785943056E+03  0.41800000000E+01 0. -1.
        -11    1    1    2    0    0 -0.89616825680E+01 -0.17261882926E+02 -0.25548689736E+02  0.32109498654E+02  0.00000000000E+00 0. -1.
         11    1    1    2    0    0  0.82689164521E+02  0.62138950376E+02 -0.17943726912E+03  0.20711465576E+03  0.00000000000E+00 0.  1.
</event>
<event>
 7    1  0.3312622E-009  0.1065873E+03  0.7561462E-02  0.1267023E+00
          3   -1    0    0  501    0  0.00000000000E+00  0.00000000000E+00  0.99931235782E+02  0.99931235782E+02  0.00000000000E+00 0. -1.
         -3   -1    0    0    0  501 -0.00000000000E+00 -0.00000000000E+00 -0.18216717072E+03  0.18216717072E+03  0.00000000000E+00 0.  1.
         25    2    1    2    0    0  0.73215618285E+02  0.24444430610E+01 -0.11746396295E+02  0.14543451262E+03  0.12508684012E+03 0.  0.
          5    1    3    3  502    0 -0.10440638231E+02 -0.40638031968E+02 -0.26924334843E+02  0.50028479646E+02  0.41800000000E+01 0. -1.
         -5    1    3    3    0  502  0.83656256516E+02  0.43082475029E+02  0.15177938549E+02  0.95406032972E+02  0.41800000000E+01 0. -1.
        -11    1    1    2    0    0 -0.55486116349E+02  0.82751725613E+01 -0.91389914323E+02  0.10723480791E+03  0.00000000000E+00 0.  1.
         11    1    1    2    0    0 -0.17729501936E+02 -0.10719615622E+02  0.20900375674E+02  0.29429085975E+02  0.00000000000E+00 0. -1.
</event>
<event>
 7    1  0.2728221E-009  0.8601475E+02  0.7561462E-02  0.1312800E+00
          1   -1    0    0  501    0  0.00000000000E+00  0.00000000000E+00  0.82497424843E+03  0.82497424843E+03  0.00000000000E+00 0. -1.
         -1   -1    0    0    0  501 -0.00000000000E+00 -0.00000000000E+00 -0.20126361643E+02  0.20126361643E+02  0.00000000000E+00 0.  1.
         25    2    1    2    0    0 -0.37185077922E+02 -0.23234013746E+02  0.60214729863E+03  0.61656480218E+03  0.12509291201E+03 0.  0.
          5    1    3    3  502    0 -0.24648651954E+02  0.12807971723E+02  0.55524684394E+03  0.55595695004E+03  0.41800000000E+01 0.  1.
         -5    1    3    3    0  502 -0.12536425968E+02 -0.36041985469E+02  0.46900454681E+02  0.60607852147E+02  0.41800000000E+01 0.  1.
        -11    1    1    2    0    0  0.32445572259E+02 -0.34652166288E+02  0.91530718063E+02  0.10310848722E+03  0.00000000000E+00 0. -1.
         11    1    1    2    0    0  0.47395056637E+01  0.57886180034E+02  0.11116987010E+03  0.12542732067E+03  0.00000000000E+00 0.  1.
</event>
<event>
 6    1  0.2728221E-009  0.2157286E+03  0.7561462E-02  0.1137108E+00
         -2   -1    0    0    0  501 -0.00000000000E+00  0.00000000000E+00  0.69562060417E+02  0.69562060417E+02  0.00000000000E+00 0.  1.
          2   -1    0    0  501    0  0.00000000000E+00 -0.00000000000E+00 -0.78462942426E+03  0.78462942426E+03  0.00000000000E+00 0. -1.
          5    1    1    2  502    0 -0.10474180022E+03  0.14536381420E+03 -0.34824496115E+03  0.39165483344E+03  0.41800000000E+01 0. -1.
         -5    1    1    2    0  502 -0.13480297526E+02  0.23564965560E+02  0.49031287818E+01  0.27902313436E+02  0.41800000000E+01 0. -1.
        -11    1    1    2    0    0  0.66177336256E+02 -0.23360882841E+02 -0.10353929821E+03  0.12508220079E+03  0.00000000000E+00 0.  1.
         11    1    1    2    0    0  0.52044761491E+02 -0.14556789692E+03 -0.26818623326E+03  0.30955213700E+03  0.00000000000E+00 0. -1.
</event>
<event>
 7    1  0.2728221E-009  0.9022886E+02  0.7561462E-02  0.1302298E+00
         -3   -1    0    0    0  501 -0.00000000000E+00  0.00000000000E+00  0.66377219021E+02  0.66377219021E+02  0.00000000000E+00 0.  1.
          3   -1    0    0  501    0  0.00000000000E+00 -0.00000000000E+00 -0.19758099491E+03  0.19758099491E+03  0.00000000000E+00 0. -1.
         25    2    1    2    0    0 -0.13567543381E+02  0.22351252962E+02 -0.48911457327E+02  0.13683608146E+03  0.12509246895E+03 0.  0.
          5    1    3    3  502    0  0.38313795193E+02  0.37340800214E+02  0.12347040288E+02  0.55065452569E+02  0.41800000000E+01 0.  1.
         -5    1    3    3    0  502 -0.51881338575E+02 -0.14989547253E+02 -0.61258497615E+02  0.81770628891E+02  0.41800000000E+01 0.  1.
        -11    1    1    2    0    0 -0.27911474708E+01  0.23645869916E+02 -0.73830329451E+02  0.77574707316E+02  0.00000000000E+00 0. -1.
         11    1    1    2    0    0  0.16358690852E+02 -0.45997122878E+02 -0.84619891074E+01  0.49547425151E+02  0.00000000000E+00 0.  1.
</event>
<event>
 6    1  0.2728221E-009  0.4752058E+03  0.7561462E-02  0.1020461E+00
          2   -1    0    0  501    0  0.00000000000E+00  0.00000000000E+00  0.21606158788E+03  0.21606158788E+03  0.00000000000E+00 0. -1.
         -2   -1    0    0    0  501 -0.00000000000E+00 -0.00000000000E+00 -0.10817529061E+04  0.10817529061E+04  0.00000000000E+00 0.  1.
          5    1    1    2  502    0  0.19383791321E+02  0.38209855708E+03 -0.46560814994E+03  0.60264704461E+03  0.41800000000E+01 0. -1.
         -5    1    1    2    0  502 -0.35911703121E+02  0.84339797275E+02 -0.52283280052E+02  0.10561186296E+03  0.41800000000E+01 0. -1.
        -11    1    1    2    0    0 -0.39291103063E+02 -0.19337217638E+03 -0.14384613006E+03  0.24418906305E+03  0.00000000000E+00 0. -1.
         11    1    1    2    0    0  0.55819014862E+02 -0.27306617797E+03 -0.20395375812E+03  0.34536652331E+03  0.00000000000E+00 0.  1.
</event>
<event>
 7    1  0.2728221E-009  0.1408233E+03  0.7561462E-02  0.1212225E+00
          4   -1    0    0  501    0  0.00000000000E+00  0.00000000000E+00  0.62008505453E+02  0.62008505453E+02  0.00000000000E+00 0. -1.
         -4   -1    0    0    0  501 -0.00000000000E+00 -0.00000000000E+00 -0.41900543875E+03  0.41900543875E+03  0.00000000000E+00 0.  1.
         25    2    1    2    0    0  0.95122610604E+02  0.65689047939E+02 -0.19890393858E+03  0.26186362713E+03  0.12508565212E+03 0.  0.
          5    1    3    3  502    0 -0.25237579639E+01  0.67330204934E+02 -0.11351067192E+03  0.13206767542E+03  0.41800000000E+01 0.  1.
         -5    1    3    3    0  502  0.97646368568E+02 -0.16411569948E+01 -0.85393266657E+02  0.12979595171E+03  0.41800000000E+01 0.  1.
        -11    1    1    2    0    0 -0.25692936686E+02 -0.25343069878E+02 -0.12865908423E+03  0.13362469136E+03  0.00000000000E+00 0.  1.
         11    1    1    2    0    0 -0.69429673919E+02 -0.40345978061E+02 -0.29433910489E+02  0.85525625709E+02  0.00000000000E+00 0. -1.
</event>
<event>
 7    1  0.2728221E-009  0.1125116E+03  0.7561462E-02  0.1255988E+00
         -1   -1    0    0    0  501 -0.00000000000E+00  0.00000000000E+00  0.31212337129E+02  0.31212337129E+02  0.00000000000E+00 0.  1.
          1   -1    0    0  501    0  0.00000000000E+00 -0.00000000000E+00 -0.52155297600E+03  0.52155297600E+03  0.00000000000E+00 0. -1.
         25    2    1    2    0    0  0.66198966536E+02 -0.94113798959E+00 -0.26142240666E+03  0.29727502573E+03  0.12509027664E+03 0.  0.
          5    1    3    3  502    0  0.68285056104E+02 -0.53932310852E+02 -0.18066167851E+03  0.20056833630E+03  0.41800000000E+01 0. -1.
         -5    1    3    3    0  502 -0.20860895685E+01  0.52991172862E+02 -0.80760728143E+02  0.96706689433E+02  0.41800000000E+01 0. -1.
        -11    1    1    2    0    0  0.30207214951E+00  0.16428162249E+02  0.18143382631E+00  0.16431940868E+02  0.00000000000E+00 0.  1.
         11    1    1    2    0    0 -0.66501038685E+02 -0.15487024259E+02 -0.22909966604E+03  0.23905834653E+03  0.00000000000E+00 0. -1.
</event>
<event>
 7    1  0.2728221E-009  0.7235507E+02  0.7561462E-02  0.1352263E+00
         -2   -1    0    0    0  501 -0.00000000000E+00  0.00000000000E+00  0.15379914006E+02  0.15379914006E+02  0.00000000000E+00 0. -1.
          2   -1    0    0  501    0  0.00000000000E+00 -0.00000000000E+00 -0.93732644132E+03  0.93732644132E+03  0.00000000000E+00 0.  1.
         25    2    1    2    0    0 -0.27597554651E+02 -0.37045206793E+02 -0.58959083783E+03  0.60448074736E+03  0.12508255474E+03 0.  0.
          5    1    3    3  502    0 -0.22732961520E+02 -0.36925160260E+02 -0.59469164049E+03  0.59628506158E+03  0.41800000000E+01 0.  1.
         -5    1    3    3    0  502 -0.48645931310E+01 -0.12004653255E+00  0.51008026586E+01  0.81956857713E+01  0.41800000000E+01 0.  1.
        -11    1    1    2    0    0 -0.24777084052E+02  0.34264032397E+02 -0.22262061358E+03  0.22660067387E+03  0.00000000000E+00 0.  1.
         11    1    1    2    0    0  0.52374638703E+02  0.27811743954E+01 -0.10973507590E+03  0.12162493409E+03  0.00000000000E+00 0. -1.
</event>
<event>
 7    1  0.2728221E-009  0.1072540E+03  0.7561462E-02  0.1265741E+00
          1   -1    0    0  501    0  0.00000000000E+00  0.00000000000E+00  0.36858110878E+03  0.36858110878E+03  0.00000000000E+00 0. -1.
         -1   -1    0    0    0  501 -0.00000000000E+00 -0.00000000000E+00 -0.52437987416E+02  0.52437987416E+02  0.00000000000E+00 0.  1.
         25    2    1    2    0    0  0.27566543475E+02  0.33914564870E+02  0.58503310196E+02  0.14484778129E+03  0.12509248743E+03 0.  0.
          5    1    3    3  502    0 -0.28824050599E+02  0.51102487528E+02  0.62231848526E+02  0.85630400533E+02  0.41800000000E+01 0.  1.
         -5    1    3    3    0  502  0.56390594074E+02 -0.17187922658E+02 -0.37285383293E+01  0.59217380754E+02  0.41800000000E+01 0.  1.
        -11    1    1    2    0    0 -0.58669213716E+02 -0.16513498377E+02  0.19251183796E+03  0.20192964127E+03  0.00000000000E+00 0. -1.
         11    1    1    2    0    0  0.31102670241E+02 -0.17401066493E+02  0.65127973204E+02  0.74241673640E+02  0.00000000000E+00 0.  1.
</event>
<event>
 7    1  0.2728221E-009  0.1001617E+03  0.7561462E-02  0.1279956E+00
         -2   -1    0    0    0  501 -0.00000000000E+00  0.00000000000E+00  0.44145389781E+03  0.44145389781E+03  0.00000000000E+00 0.  1.
          2   -1    0    0  501    0  0.00000000000E+00 -0.00000000000E+00 -0.49594553540E+02  0.49594553540E+02  0.00000000000E+00 0. -1.
         25    2    1    2    0    0 -0.93793917936E+02 -0.16566806679E+02  0.16106532543E+03  0.22507853219E+03  0.12508616420E+03 0.  0.
          5    1    3    3  502    0 -0.35810423596E+02 -0.14358540169E+02 -0.13488919379E+02  0.41085002858E+02  0.41800000000E+01 0. -1.
         -5    1    3    3    0  502 -0.57983494341E+02 -0.22082665103E+01  0.17455424481E+03  0.18399352934E+03  0.41800000000E+01 0. -1.
        -11    1    1    2    0    0  0.32354054906E+02  0.25577121956E+02  0.19276056757E+02  0.45525162279E+02  0.00000000000E+00 0. -1.
         11    1    1    2    0    0  0.61439863030E+02 -0.90103152764E+01  0.21151796208E+03  0.22044475688E+03  0.00000000000E+00 0.  1.
</event>
<event>
 7    1  0.2728221E-009  0.2573191E+03  0.7561462E-02  0.1108765E+00
         -1   -1    0    0    0  501 -0.00000000000E+00  0.00000000000E+00  0.13996101540E+03  0.13996101540E+03  0.00000000000E+00 0.  1.
          1   -1    0    0  501    0  0.00000000000E+00 -0.00000000000E+00 -0.70525852412E+03  0.70525852412E+03  0.00000000000E+00 0. -1.
         25    2    1    2    0    0  0.24750291103E+03 -0.39384929082E+02 -0.49592648469E+03  0.56956120037E+03  0.12509204269E+03 0.  0.
          5    1    3    3  502    0  0.21533745161E+03 -0.11714213458E+02 -0.47581209418E+03  0.52241943133E+03  0.41800000000E+01 0. -1.
         -5    1    3    3    0  502  0.32165459414E+02 -0.27670715624E+02 -0.20114390510E+02  0.47141769038E+02  0.41800000000E+01 0. -1.
        -11    1    1    2    0    0 -0.38160973081E+02  0.26712817967E+02  0.15957952536E+02  0.49239118182E+02  0.00000000000E+00 0.  1.
         11    1    1    2    0    0 -0.20934193795E+03  0.12672111115E+02 -0.85328976579E+02  0.22641922097E+03  0.00000000000E+00 0. -1.
</event>
<event>
 7    1  0.2728221E-009  0.1026808E+03  0.7561462E-02  0.1274758E+00
          2   -1    0    0  501    0  0.00000000000E+00  0.00000000000E+00  0.58327153767E+02  0.58327153767E+02  0.00000000000E+00 0. -1.
         -2   -1    0    0    0  501 -0.00000000000E+00 -0.00000000000E+00 -0.32832712888E+03  0.32832712888E+03  0.00000000000E+00 0.  1.
         25    2    1    2    0    0  0.33776985740E+02 -0.54068186529E+02 -0.22458801640E+03  0.26486211467E+03  0.12509160290E+03 0.  0.
          5    1    3    3  502    0  0.77782844410E+02 -0.55924069270E+02 -0.16109907346E+03  0.18747814880E+03  0.41800000000E+01 0. -1.
         -5    1    3    3    0  502 -0.44005858670E+02  0.18558827411E+01 -0.63488942941E+02  0.77383965871E+02  0.41800000000E+01 0. -1.
        -11    1    1    2    0    0 -0.18255147695E+02  0.16611112749E+02  0.28369872765E+02  0.37603579150E+02  0.00000000000E+00 0. -1.
         11    1    1    2    0    0 -0.15521838044E+02  0.37457073780E+02 -0.73781831478E+02  0.84188588827E+02  0.00000000000E+00 0.  1.
</event>
<event>
 7    1  0.2728221E-009  0.1587550E+03  0.7561462E-02  0.1190110E+00
         -1   -1    0    0    0  501 -0.00000000000E+00  0.00000000000E+00  0.61561705486E+02  0.61561705486E+02  0.00000000000E+00 0.  1.
          1   -1    0    0  501    0  0.00000000000E+00 -0.00000000000E+00 -0.50888014560E+03  0.50888014560E+03  0.00000000000E+00 0. -1.
         25    2    1    2    0    0 -0.13050556354E+03 -0.69705881252E+00 -0.15921383313E+03  0.24089072235E+03  0.12508839853E+03 0.  0.
          5    1    3    3  502    0 -0.13891402873E+03 -0.34749866192E+02 -0.14157025510E+03  0.20140573503E+03  0.41800000000E+01 0. -1.
         -5    1    3    3    0  502  0.84084651842E+01  0.34052807379E+02 -0.17643578035E+02  0.39484987312E+02  0.41800000000E+01 0. -1.
        -11    1    1    2    0    0  0.34664825256E+02  0.21591049782E+02 -0.17561016917E+03  0.18029629795E+03  0.00000000000E+00 0. -1.
         11    1    1    2    0    0  0.95840738286E+02 -0.20893990970E+02 -0.11249443782E+03  0.14925483079E+03  0.00000000000E+00 0.  1.
</event>
<event>
 7    1  0.2728221E-009  0.9832635E+02  0.7561462E-02  0.1283855E+00
         -1   -1    0    0    0  501 -0.00000000000E+00  0.00000000000E+00  0.23109461025E+02  0.23109461025E+02  0.00000000000E+00 0.  1.
          1   -1    0    0  501    0  0.00000000000E+00 -0.00000000000E+00 -0.81321705995E+03  0.81321705995E+03  0.00000000000E+00 0. -1.
         25    2    1    2    0    0  0.64467545334E+02  0.29830574076E+01 -0.59134601894E+03  0.60786763250E+03  0.12509189219E+03 0.  0.
          5    1    3    3  502    0  0.20388729361E+01 -0.18388197421E+02 -0.46393743881E+03  0.46432499646E+03  0.41800000000E+01 0.  1.
         -5    1    3    3    0  502  0.62428672398E+02  0.21371254829E+02 -0.12740858013E+03  0.14354263604E+03  0.41800000000E+01 0.  1.
        -11    1    1    2    0    0 -0.87444293339E+02  0.40522610796E+01 -0.14190900480E+03  0.16673659137E+03  0.00000000000E+00 0. -1.
         11    1    1    2    0    0  0.22976748005E+02 -0.70353184871E+01 -0.56852575181E+02  0.61722297104E+02  0.00000000000E+00 0.  1.
</event>
<event>
 7    1  0.2728221E-009  0.1654799E+03  0.7561462E-02  0.1182645E+00
         -2   -1    0    0    0  501 -0.00000000000E+00  0.00000000000E+00  0.36834225995E+03  0.36834225995E+03  0.00000000000E+00 0. -1.
          2   -1    0    0  501    0  0.00000000000E+00 -0.00000000000E+00 -0.10960954192E+03  0.10960954192E+03  0.00000000000E+00 0.  1.
         25    2    1    2    0    0 -0.13526965076E+03  0.31788003494E+02  0.25104610595E+03  0.31301838779E+03  0.12509199894E+03 0.  0.
          5    1    3    3  502    0 -0.13753031116E+03  0.53992147804E+02  0.24982910224E+03  0.29027881638E+03  0.41800000000E+01 0.  1.
         -5    1    3    3    0  502  0.22606604007E+01 -0.22204144309E+02  0.12170037111E+01  0.22739571412E+02  0.41800000000E+01 0.  1.
        -11    1    1    2    0    0  0.14066830427E+03 -0.13428220448E+02  0.19190326257E+02  0.14260490017E+03  0.00000000000E+00 0.  1.
         11    1    1    2    0    0 -0.53986535038E+01 -0.18359783046E+02 -0.11503714182E+02  0.22328513903E+02  0.00000000000E+00 0. -1.
</event>
<event>
 7    1  0.2728221E-009  0.1514829E+03  0.7561462E-02  0.1198663E+00
         -2   -1    0    0    0  501 -0.00000000000E+00  0.00000000000E+00  0.59374821842E+02  0.59374821842E+02  0.00000000000E+00 0.  1.
          2   -1    0    0  501    0  0.00000000000E+00 -0.00000000000E+00 -0.71277845904E+03  0.71277845904E+03  0.00000000000E+00 0. -1.
         25    2    1    2    0    0  0.12914981113E+03  0.63989513139E+01 -0.11433106417E+03  0.21316669286E+03  0.12509127235E+03 0.  0.
          5    1    3    3  502    0 -0.20977007324E+02  0.38729076746E+01  0.38075457393E+01  0.22068168358E+02  0.41800000000E+01 0. -1.
         -5    1    3    3    0  502  0.15012681846E+03  0.25260436393E+01 -0.11813860991E+03  0.19109852450E+03  0.41800000000E+01 0. -1.
        -11    1    1    2    0    0 -0.22544568540E+02  0.69333472408E+01 -0.27387029457E+02  0.36143855040E+02  0.00000000000E+00 0.  1.
         11    1    1    2    0    0 -0.10660524259E+03 -0.13332298555E+02 -0.51168554357E+03  0.52284273298E+03  0.00000000000E+00 0. -1.
</event>
<event>
 7    1  0.2728221E-009  0.9501649E+02  0.7561462E-02  0.1291139E+00
          2   -1    0    0  501    0  0.00000000000E+00  0.00000000000E+00  0.33616732635E+03  0.33616732635E+03  0.00000000000E+00 0. -1.
         -2   -1    0    0    0  501 -0.00000000000E+00 -0.00000000000E+00 -0.40889687171E+02  0.40889687171E+02  0.00000000000E+00 0.  1.
         25    2    1    2    0    0 -0.20339491505E+02 -0.45013350328E+01  0.23589890944E+03  0.26782038621E+03  0.12508200054E+03 0.  0.
          5    1    3    3  502    0 -0.63234173279E+02 -0.35753462965E+02  0.15089179957E+03  0.16751918804E+03  0.41800000000E+01 0.  1.
         -5    1    3    3    0  502  0.42894681774E+02  0.31252127932E+02  0.85007109875E+02  0.10030119817E+03  0.41800000000E+01 0.  1.
        -11    1    1    2    0    0 -0.79668642537E+01 -0.23138439447E+02 -0.12281614681E+02  0.27380583727E+02  0.00000000000E+00 0.  1.
         11    1    1    2    0    0  0.28306355759E+02  0.27639774479E+02  0.71660344413E+02  0.81856043583E+02  0.00000000000E+00 0. -1.
</event>
<event>
 7    1  0.2728221E-009  0.1170868E+03  0.7561462E-02  0.1247982E+00
          2   -1    0    0  501    0  0.00000000000E+00  0.00000000000E+00  0.13189322329E+03  0.13189322329E+03  0.00000000000E+00 0. -1.
         -2   -1    0    0    0  501 -0.00000000000E+00 -0.00000000000E+00 -0.16795514262E+03  0.16795514262E+03  0.00000000000E+00 0.  1.
         25    2    1    2    0    0  0.77481420493E+02 -0.53705620666E+02 -0.65244347893E+02  0.16967870899E+03  0.12508547133E+03 0.  0.
          5    1    3    3  502    0  0.36718342704E+02  0.21719998087E+02  0.21229890858E+02  0.47834879259E+02  0.41800000000E+01 0. -1.
         -5    1    3    3    0  502  0.40763077789E+02 -0.75425618753E+02 -0.86474238751E+02  0.12184382973E+03  0.41800000000E+01 0. -1.
        -11    1    1    2    0    0 -0.34646887490E+02  0.52146554343E+02  0.52203227677E+02  0.81515930483E+02  0.00000000000E+00 0. -1.
         11    1    1    2    0    0 -0.42834533003E+02  0.15590663229E+01 -0.23020799115E+02  0.48653726448E+02  0.00000000000E+00 0.  1.
</event>
<event>
 7    1  0.2728221E-009  0.7494118E+02  0.7561462E-02  0.1344053E+00
          1   -1    0    0  501    0  0.00000000000E+00  0.00000000000E+00  0.13667518880E+03  0.13667518880E+03  0.00000000000E+00 0. -1.
         -1   -1    0    0    0  501 -0.00000000000E+00 -0.00000000000E+00 -0.95171097277E+02  0.95171097277E+02  0.00000000000E+00 0.  1.
         25    2    1    2    0    0  0.16473372733E+02 -0.22185390103E+02  0.48169258676E+02  0.13686039668E+03  0.12508767787E+03 0.  0.
          5    1    3    3  502    0  0.14116335459E+02 -0.46846619710E+02  0.81482484788E+02  0.95135400521E+02  0.41800000000E+01 0. -1.
         -5    1    3    3    0  502  0.23570372741E+01  0.24661229607E+02 -0.33313226113E+02  0.41724996159E+02  0.41800000000E+01 0. -1.
        -11    1    1    2    0    0  0.85040230801E+01 -0.22725111435E+02 -0.29968738180E+02  0.38560009938E+02  0.00000000000E+00 0.  1.
         11    1    1    2    0    0 -0.24977395813E+02  0.44910501538E+02  0.23303571026E+02  0.56425879458E+02  0.00000000000E+00 0. -1.
</event>
<event>
 7    1  0.2728221E-009  0.9176913E+02  0.7561462E-02  0.1298623E+00
          1   -1    0    0  501    0  0.00000000000E+00  0.00000000000E+00  0.69205705810E+03  0.69205705810E+03  0.00000000000E+00 0. -1.
         -1   -1    0    0    0  501 -0.00000000000E+00 -0.00000000000E+00 -0.23359895506E+02  0.23359895506E+02  0.00000000000E+00 0.  1.
         25    2    1    2    0    0 -0.61189999832E+02 -0.89368171959E+01  0.46751161074E+03  0.48789156380E+03  0.12508792536E+03 0.  0.
          5    1    3    3  502    0 -0.55830549656E+02 -0.24566879440E+02  0.83441219937E+02  0.10344317969E+03  0.41800000000E+01 0. -1.
         -5    1    3    3    0  502 -0.53594501755E+01  0.15630062245E+02  0.38407039080E+03  0.38444838411E+03  0.41800000000E+01 0. -1.
        -11    1    1    2    0    0  0.39031354520E+02  0.47133183712E+02  0.13124668859E+03  0.14481255784E+03  0.00000000000E+00 0.  1.
         11    1    1    2    0    0  0.22158645311E+02 -0.38196366516E+02  0.69938863267E+02  0.82712831968E+02  0.00000000000E+00 0. -1.
</event>
<event>
 7    1  0.2728221E-009  0.1070473E+03  0.7561462E-02  0.1266138E+00
          1   -1    0    0  501    0  0.00000000000E+00  0.00000000000E+00  0.21393619679E+03  0.21393619679E+03  0.00000000000E+00 0. -1.
         -1   -1    0    0    0  501 -0.00000000000E+00 -0.00000000000E+00 -0.57924188718E+02  0.57924188718E+02  0.00000000000E+00 0.  1.
         25    2    1    2    0    0  0.96822593269E+01 -0.26440261208E+02  0.86226878041E+02  0.15451560078E+03  0.12508861990E+03 0.  0.
          5    1    3    3  502    0 -0.18480374965E+02  0.42154466343E+02  0.60034218307E+02  0.75763467841E+02  0.41800000000E+01 0. -1.
         -5    1    3    3    0  502  0.28162634292E+02 -0.68594727551E+02  0.26192659734E+02  0.78752132936E+02  0.41800000000E+01 0. -1.
        -11    1    1    2    0    0  0.50224884221E+01  0.58301901481E+02  0.50546297869E+02  0.77325709402E+02  0.00000000000E+00 0. -1.
         11    1    1    2    0    0 -0.14704747749E+02 -0.31861640273E+02  0.19238832160E+02  0.40019075328E+02  0.00000000000E+00 0.  1.
</event>
<event>
 7    1  0.2728221E-009  0.1213024E+03  0.7561462E-02  0.1240964E+00
         -3   -1    0    0    0  501 -0.00000000000E+00  0.00000000000E+00  0.78484656989E+03  0.78484656989E+03  0.00000000000E+00 0.  1.
          3   -1    0    0  501    0  0.00000000000E+00 -0.00000000000E+00 -0.33323635928E+02  0.33323635928E+02  0.00000000000E+00 0. -1.
         25    2    1    2    0    0 -0.70654412157E+02  0.40031205057E+02  0.62417735179E+03  0.64174670690E+03  0.12508767327E+03 0.  0.
          5    1    3    3  502    0 -0.49050741542E+02  0.72947563203E+02  0.24165606889E+03  0.25718174557E+03  0.41800000000E+01 0.  1.
         -5    1    3    3    0  502 -0.21603670615E+02 -0.32916358146E+02  0.38252128290E+03  0.38456496134E+03  0.41800000000E+01 0.  1.
        -11    1    1    2    0    0  0.43372306027E+02  0.20974812054E+02  0.25230819564E+02  0.54384684670E+02  0.00000000000E+00 0. -1.
         11    1    1    2    0    0  0.27282106130E+02 -0.61006017111E+02  0.10211476261E+03  0.12203881424E+03  0.00000000000E+00 0.  1.
</event>
<event>
 7    1  0.2728221E-009  0.1041439E+03  0.7561462E-02  0.1271816E+00
         -2   -1    0    0    0  501 -0.00000000000E+00  0.00000000000E+00  0.24509109810E+02  0.24509109810E+02  0.00000000000E+00 0.  1.
          2   -1    0    0  501    0  0.00000000000E+00 -0.00000000000E+00 -0.14495177920E+04  0.14495177920E+04  0.00000000000E+00 0. -1.
         25    2    1    2    0    0 -0.45901550386E+02  0.41400809952E+02 -0.13052579152E+04  0.13126952986E+04  0.12509893129E+03 0.  0.
          5    1    3    3  502    0 -0.68746597628E+02 -0.21745900928E+02 -0.66203685061E+03  0.66596489611E+03  0.41800000000E+01 0.  1.
         -5    1    3    3    0  502  0.22845047242E+02  0.63146710880E+02 -0.64322106455E+03  0.64673040253E+03  0.41800000000E+01 0.  1.
        -11    1    1    2    0    0  0.36535501573E+02 -0.12844196393E+02 -0.89782823653E+00  0.38737867155E+02  0.00000000000E+00 0.  1.
         11    1    1    2    0    0  0.93660488136E+01 -0.28556613559E+02 -0.11885293876E+03  0.12259373597E+03  0.00000000000E+00 0. -1.
</event>
<event>
 7    1  0.2728221E-009  0.1587671E+03  0.7561462E-02  0.1190096E+00
         -1   -1    0    0    0  501 -0.00000000000E+00  0.00000000000E+00  0.99609634640E+01  0.99609634640E+01  0.00000000000E+00 0.  1.
          1   -1    0    0  501    0  0.00000000000E+00 -0.00000000000E+00 -0.36353177943E+04  0.36353177943E+04  0.00000000000E+00 0. -1.
         25    2    1    2    0    0  0.37152703451E+02 -0.11875699624E+03 -0.28046868037E+04  0.28102319963E+04  0.12510898882E+03 0.  0.
          5    1    3    3  502    0  0.50667662210E+02 -0.72720247325E+01 -0.14437836369E+04  0.14446967699E+04  0.41800000000E+01 0. -1.
         -5    1    3    3    0  502 -0.13514958760E+02 -0.11148497151E+03 -0.13609031667E+04  0.13655352264E+04  0.41800000000E+01 0. -1.
        -11    1    1    2    0    0 -0.56996060241E+02  0.33179960915E+02 -0.31947461654E+03  0.32621080807E+03  0.00000000000E+00 0.  1.
         11    1    1    2    0    0  0.19843356790E+02  0.85577035330E+02 -0.50119541065E+03  0.50883595337E+03  0.00000000000E+00 0. -1.
</event>
<event>
 7    1  0.2728221E-009  0.2079013E+03  0.7561462E-02  0.1143239E+00
         -1   -1    0    0    0  501 -0.00000000000E+00  0.00000000000E+00  0.26782444295E+03  0.26782444295E+03  0.00000000000E+00 0. -1.
          1   -1    0    0  501    0  0.00000000000E+00 -0.00000000000E+00 -0.28481262645E+03  0.28481262645E+03  0.00000000000E+00 0.  1.
         25    2    1    2    0    0 -0.10546121543E+03  0.15240505061E+03  0.16462875574E+03  0.27766809201E+03  0.12509026619E+03 0.  0.
          5    1    3    3  502    0 -0.10211295635E+03  0.41929327971E+02  0.10308571100E+03  0.15109354920E+03  0.41800000000E+01 0.  1.
         -5    1    3    3    0  502 -0.33482590768E+01  0.11047572264E+03  0.61543044738E+02  0.12657454281E+03  0.41800000000E+01 0.  1.
        -11    1    1    2    0    0  0.69804197262E+02 -0.48822591927E+02 -0.35351858694E+02  0.92228115838E+02  0.00000000000E+00 0. -1.
         11    1    1    2    0    0  0.35657018165E+02 -0.10358245869E+03 -0.14626508054E+03  0.18274086154E+03  0.00000000000E+00 0.  1.
</event>
<event>
 7    1  0.2728221E-009  0.1144865E+03  0.7561462E-02  0.1252480E+00
         -1   -1    0    0    0  501 -0.00000000000E+00  0.00000000000E+00  0.22432501019E+03  0.22432501019E+03  0.00000000000E+00 0.  1.
          1   -1    0    0  501    0  0.00000000000E+00 -0.00000000000E+00 -0.73715984511E+02  0.73715984511E+02  0.00000000000E+00 0. -1.
         25    2    1    2    0    0 -0.51770437939E+02  0.25820018769E+02  0.41623050998E+02  0.14397126805E+03  0.12509354914E+03 0.  0.
          5    1    3    3  502    0  0.35153494635E+02 -0.60324820382E+01  0.36431414165E+02  0.51155443138E+02  0.41800000000E+01 0. -1.
         -5    1    3    3    0  502 -0.86923932573E+02  0.31852500807E+02  0.51916368332E+01  0.92815824915E+02  0.41800000000E+01 0. -1.
        -11    1    1    2    0    0  0.19210423268E+02  0.30085098748E+02  0.69891893792E+02  0.78479489975E+02  0.00000000000E+00 0.  1.
         11    1    1    2    0    0  0.32560014670E+02 -0.55905117517E+02  0.39094080889E+02  0.75590236674E+02  0.00000000000E+00 0. -1.
</event>
<event>
 7    1  0.2728221E-009  0.1332684E+03  0.7561462E-02  0.1222685E+00
         -1   -1    0    0    0  501 -0.00000000000E+00  0.00000000000E+00  0.29908796735E+02  0.29908796735E+02  0.00000000000E+00 0.  1.
          1   -1    0    0  501    0  0.00000000000E+00 -0.00000000000E+00 -0.65865604331E+03  0.65865604331E+03  0.00000000000E+00 0. -1.
         25    2    1    2    0    0  0.78463212597E+02 -0.96784154634E+01 -0.24339526713E+03  0.28484685041E+03  0.12508526960E+03 0.  0.
          5    1    3    3  502    0  0.15269666561E+02 -0.62281827490E+02 -0.12626263270E+03  0.14167538096E+03  0.41800000000E+01 0. -1.
         -5    1    3    3    0  502  0.63193546035E+02  0.52603412027E+02 -0.11713263443E+03  0.14317146945E+03  0.41800000000E+01 0. -1.
        -11    1    1    2    0    0 -0.57879575064E+02  0.48821574218E+02 -0.25949241295E+03  0.27031445336E+03  0.00000000000E+00 0. -1.
         11    1    1    2    0    0 -0.20583637532E+02 -0.39143158754E+02 -0.12585956649E+03  0.13340353627E+03  0.00000000000E+00 0.  1.
</event>
<event>
 7    1  0.2728221E-009  0.1116919E+03  0.7561462E-02  0.1257468E+00
          3   -1    0    0  501    0  0.00000000000E+00  0.00000000000E+00  0.33528388151E+02  0.33528388151E+02  0.00000000000E+00 0. -1.
         -3   -1    0    0    0  501 -0.00000000000E+00 -0.00000000000E+00 -0.50006093768E+03  0.50006093768E+03  0.00000000000E+00 0.  1.
         25    2    1    2    0    0  0.83684843614E+01 -0.29646506432E+02 -0.12951650636E+03  0.18268173293E+03  0.12509653574E+03 0.  0.
          5    1    3    3  502    0  0.66705685521E+02 -0.15818225698E+02 -0.66496228118E+02  0.95598564315E+02  0.41800000000E+01 0.  1.
         -5    1    3    3    0  502 -0.58337201160E+02 -0.13828280733E+02 -0.63020278237E+02  0.87083168616E+02  0.41800000000E+01 0.  1.
        -11    1    1    2    0    0 -0.22269841187E+02 -0.27729820646E+02 -0.17227615336E+03  0.17590895883E+03  0.00000000000E+00 0.  1.
         11    1    1    2    0    0  0.13901356826E+02  0.57376327078E+02 -0.16473988981E+03  0.17499863406E+03  0.00000000000E+00 0. -1.
</event>
<event>
 7    1  0.2728221E-009  0.9479714E+02  0.7561462E-02  0.1291634E+00
         -1   -1    0    0    0  501 -0.00000000000E+00  0.00000000000E+00  0.11528055036E+03  0.11528055036E+03  0.00000000000E+00 0.  1.
          1   -1    0    0  501    0  0.00000000000E+00 -0.00000000000E+00 -0.13268622340E+03  0.13268622340E+03  0.00000000000E+00 0. -1.
         25    2    1    2    0    0 -0.68093922858E+01 -0.15175072413E+02 -0.69273548430E+02  0.14395432848E+03  0.12508946210E+03 0.  0.
          5    1    3    3  502    0 -0.12201232415E+02  0.41565688875E+02  0.11493770936E+02  0.45012839662E+02  0.41800000000E+01 0. -1.
         -5    1    3    3    0  502  0.53918401288E+01 -0.56740761287E+02 -0.80767319366E+02  0.98941488816E+02  0.41800000000E+01 0. -1.
        -11    1    1    2    0    0 -0.17908731122E+02 -0.31427559404E+02  0.12804499438E+02  0.38371465262E+02  0.00000000000E+00 0. -1.
         11    1    1    2    0    0  0.24718123408E+02  0.46602631816E+02  0.39063375948E+02  0.65640980017E+02  0.00000000000E+00 0.  1.
</event>
<event>
 7    1  0.2728221E-009  0.1832234E+03  0.7561462E-02  0.1164719E+00
         -1   -1    0    0    0  501 -0.00000000000E+00  0.00000000000E+00  0.64130878871E+02  0.64130878871E+02  0.00000000000E+00 0.  1.
          1   -1    0    0  501    0  0.00000000000E+00 -0.00000000000E+00 -0.72962850323E+03  0.72962850323E+03  0.00000000000E+00 0. -1.
         25    2    1    2    0    0 -0.15237878131E+03 -0.99013779629E+02 -0.42124226966E+03  0.47550481044E+03  0.12504700496E+03 0.  0.
          5    1    3    3  502    0 -0.42558883746E+02 -0.45606546202E+02 -0.28804421223E+03  0.29475100720E+03  0.41800000000E+01 0.  1.
         -5    1    3    3    0  502 -0.10981989757E+03 -0.53407233427E+02 -0.13319805743E+03  0.18075380324E+03  0.41800000000E+01 0.  1.
        -11    1    1    2    0    0  0.23566581138E+02  0.16348141279E+02  0.15149598413E+01  0.28721778725E+02  0.00000000000E+00 0.  1.
         11    1    1    2    0    0  0.12881220018E+03  0.82665638350E+02 -0.24577031454E+03  0.28953279294E+03  0.00000000000E+00 0. -1.
</event>
<event>
 7    1  0.4263001E-009  0.1026229E+03  0.7561462E-02  0.1274875E+00
         -3   -1    0    0    0  501 -0.00000000000E+00  0.00000000000E+00  0.58473748898E+02  0.58473748898E+02  0.00000000000E+00 0.  1.
          3   -1    0    0  501    0  0.00000000000E+00 -0.00000000000E+00 -0.28083755996E+03  0.28083755996E+03  0.00000000000E+00 0. -1.
         25    2    1    2    0    0  0.49629553409E+02  0.40627421679E+02 -0.15393038218E+03  0.20845990341E+03  0.12508912347E+03 0.  0.
          5    1    3    3  502    0  0.90564346647E+02  0.39545217655E+02 -0.10044780967E+03  0.14097148645E+03  0.41800000000E+01 0.  1.
         -5    1    3    3    0  502 -0.40934793237E+02  0.10822040244E+01 -0.53482572502E+02  0.67488416964E+02  0.41800000000E+01 0.  1.
        -11    1    1    2    0    0 -0.34691559882E+02 -0.21159482071E+02 -0.89639141863E+02  0.98419529376E+02  0.00000000000E+00 0. -1.
         11    1    1    2    0    0 -0.14937993528E+02 -0.19467939608E+02  0.21205712972E+02  0.32431876077E+02  0.00000000000E+00 0.  1.
</event>
<event>
 7    1  0.2728221E-009  0.1035614E+03  0.7561462E-02  0.1272980E+00
         -1   -1    0    0    0  501 -0.00000000000E+00  0.00000000000E+00  0.11322012112E+03  0.11322012112E+03  0.00000000000E+00 0.  1.
          1   -1    0    0  501    0  0.00000000000E+00 -0.00000000000E+00 -0.14080476320E+03  0.14080476320E+03  0.00000000000E+00 0. -1.
         25    2    1    2    0    0  0.19659588258E+02  0.40604587566E+02 -0.61192476503E+02  0.14638110169E+03  0.12509067036E+03 0.  0.
          5    1    3    3  502    0  0.59026099873E+02  0.48024993545E+02 -0.71826770693E+02  0.10472362608E+03  0.41800000000E+01 0.  1.
         -5    1    3    3    0  502 -0.39366511615E+02 -0.74204059792E+01  0.10634294190E+02  0.41657475614E+02  0.41800000000E+01 0.  1.
        -11    1    1    2    0    0 -0.33687782575E+02 -0.58736010752E+02  0.91858235046E+00  0.67717275842E+02  0.00000000000E+00 0. -1.
         11    1    1    2    0    0  0.14028194316E+02  0.18131423186E+02  0.32689252071E+02  0.39926506778E+02  0.00000000000E+00 0.  1.
</event>
<event>
 7    1  0.2728221E-009  0.1299759E+03  0.7561462E-02  0.1227491E+00
         -3   -1    0    0    0  501 -0.00000000000E+00  0.00000000000E+00  0.19565929529E+03  0.19565929529E+03  0.00000000000E+00 0.  1.
          3   -1    0    0  501    0  0.00000000000E+00 -0.00000000000E+00 -0.10086504940E+03  0.10086504940E+03  0.00000000000E+00 0. -1.
         25    2    1    2    0    0  0.84501881697E+02  0.14761458181E+02  0.81641754179E+02  0.17225436867E+03  0.12509085835E+03 0.  0.
          5    1    3    3  502    0 -0.20791732465E+02  0.32587014180E+02  0.19304923867E+01  0.38928252374E+02  0.41800000000E+01 0.  1.
         -5    1    3    3    0  502  0.10529361416E+03 -0.17825555999E+02  0.79711261792E+02  0.13332611630E+03  0.41800000000E+01 0.  1.
        -11    1    1    2    0    0 -0.98416057970E+02 -0.80361698551E+01  0.28208820888E+02  0.10269390473E+03  0.00000000000E+00 0.  1.
         11    1    1    2    0    0  0.13914176274E+02 -0.67252883256E+01 -0.15056329173E+02  0.21576071297E+02  0.00000000000E+00 0. -1.
</event>
<event>
 7    1  0.2728221E-009  0.1371360E+03  0.7561462E-02  0.1217235E+00
         -1   -1    0    0    0  501 -0.00000000000E+00  0.00000000000E+00  0.33922338529E+02  0.33922338529E+02  0.00000000000E+00 0.  1.
          1   -1    0    0  501    0  0.00000000000E+00 -0.00000000000E+00 -0.69467960264E+03  0.69467960264E+03  0.00000000000E+00 0. -1.
         25    2    1    2    0    0 -0.42638442945E+02 -0.10122960936E+03 -0.36334268222E+03  0.39966288826E+03  0.12508816453E+03 0.  0.
          5    1    3    3  502    0 -0.28904799569E+02 -0.11206132576E+03 -0.36368375874E+03  0.38167601044E+03  0.41800000000E+01 0. -1.
         -5    1    3    3    0  502 -0.13733643376E+02  0.10831716406E+02  0.34107652693E+00  0.17986877824E+02  0.41800000000E+01 0. -1.
        -11    1    1    2    0    0  0.39629367396E+02  0.11746612818E+03 -0.26475396587E+03  0.29234130819E+03  0.00000000000E+00 0.  1.
         11    1    1    2    0    0  0.30090755493E+01 -0.16236518826E+02 -0.32660616023E+02  0.36597744716E+02  0.00000000000E+00 0. -1.
</event>
<event>
 7    1  0.2728221E-009  0.1535216E+03  0.7561462E-02  0.1196211E+00
          2   -1    0    0  501    0  0.00000000000E+00  0.00000000000E+00  0.35423330246E+03  0.35423330246E+03  0.00000000000E+00 0. -1.
         -2   -1    0    0    0  501 -0.00000000000E+00 -0.00000000000E+00 -0.97303219317E+02  0.97303219317E+02  0.00000000000E+00 0.  1.
         25    2    1    2    0    0  0.59714114645E+02 -0.11912404821E+03  0.22049418381E+03  0.28639402293E+03  0.12509011522E+03 0.  0.
          5    1    3    3  502    0 -0.81243558793E+01 -0.48538148813E+02  0.49702858998E+01  0.49640036166E+02  0.41800000000E+01 0.  1.
         -5    1    3    3    0  502  0.67838470524E+02 -0.70585899397E+02  0.21552389791E+03  0.23675398676E+03  0.41800000000E+01 0.  1.
        -11    1    1    2    0    0 -0.82495379874E+02  0.10187930020E+03  0.21304534569E+02  0.13281100370E+03  0.00000000000E+00 0. -1.
         11    1    1    2    0    0  0.22781265228E+02  0.17244748009E+02  0.15131364767E+02  0.32331495156E+02  0.00000000000E+00 0.  1.
</event>
<event>
 7    1  0.2728221E-009  0.2544662E+03  0.7561462E-02  0.1110514E+00
         -2   -1    0    0    0  501 -0.00000000000E+00  0.00000000000E+00  0.90221361073E+02  0.90221361073E+02  0.00000000000E+00 0.  1.
          2   -1    0    0  501    0  0.00000000000E+00 -0.00000000000E+00 -0.81561563838E+03  0.81561563838E+03  0.00000000000E+00 0. -1.
         25    2    1    2    0    0  0.24125757157E+03 -0.47842125173E-01 -0.27303296623E+03  0.38522712361E+03  0.12509083895E+03 0.  0.
          5    1    3    3  502    0  0.83791972573E+02  0.48192240440E+02 -0.52883492093E+02  0.11026206438E+03  0.41800000000E+01 0.  1.
         -5    1    3    3    0  502  0.15746559900E+03 -0.48240082565E+02 -0.22014947413E+03  0.27496505923E+03  0.41800000000E+01 0.  1.
        -11    1    1    2    0    0 -0.14543145728E+03  0.26948858687E+02 -0.33835252371E+03  0.36926816821E+03  0.00000000000E+00 0.  1.
         11    1    1    2    0    0 -0.95826114288E+02 -0.26901016562E+02 -0.11400878737E+03  0.15134170763E+03  0.00000000000E+00 0. -1.
</event>
<event>
 7    1  0.2728221E-009  0.1000374E+03  0.7561462E-02  0.1280217E+00
         -2   -1    0    0    0  501 -0.00000000000E+00  0.00000000000E+00  0.32019151382E+02  0.32019151382E+02  0.00000000000E+00 0.  1.
          2   -1    0    0  501    0  0.00000000000E+00 -0.00000000000E+00 -0.31868608794E+03  0.31868608794E+03  0.00000000000E+00 0. -1.
         25    2    1    2    0    0  0.34737400581E+02  0.37512573957E+02 -0.18012038469E+03  0.22517927023E+03  0.12509384701E+03 0.  0.
          5    1    3    3  502    0  0.32322731807E+02 -0.43215140828E+02 -0.67252536941E+02  0.86328926284E+02  0.41800000000E+01 0.  1.
         -5    1    3    3    0  502  0.24146687734E+01  0.80727714786E+02 -0.11286784775E+03  0.13885034395E+03  0.41800000000E+01 0.  1.
        -11    1    1    2    0    0 -0.40461576072E+02 -0.17189423810E+02 -0.59686709562E+02  0.74129068033E+02  0.00000000000E+00 0.  1.
         11    1    1    2    0    0  0.57241754913E+01 -0.20323150147E+02 -0.46859842311E+02  0.51396901058E+02  0.00000000000E+00 0. -1.
</event>
<event>
 7    1  0.2728221E-009  0.2486081E+03  0.7561462E-02  0.1114188E+00
         -2   -1    0    0    0  501 -0.00000000000E+00  0.00000000000E+00  0.43501180291E+02  0.43501180291E+02  0.00000000000E+00 0.  1.
          2   -1    0    0  501    0  0.00000000000E+00 -0.00000000000E+00 -0.15887961997E+04  0.15887961997E+04  0.00000000000E+00 0. -1.
         25    2    1    2    0    0 -0.16392322576E+03  0.17268554637E+03 -0.85857207780E+03  0.89971616034E+03  0.12510809137E+03 0.  0.
          5    1    3    3  502    0 -0.55467967795E+02  0.10789968822E+03 -0.24700933871E+03  0.27522740412E+03  0.41800000000E+01 0.  1.
         -5    1    3    3    0  502 -0.10845525796E+03  0.64785858148E+02 -0.61156273909E+03  0.62448875622E+03  0.41800000000E+01 0.  1.
        -11    1    1    2    0    0  0.27575220699E+02  0.22026227465E+01 -0.13794009531E+03  0.14068658158E+03  0.00000000000E+00 0. -1.
         11    1    1    2    0    0  0.13634800506E+03 -0.17488816912E+03 -0.54878284628E+03  0.59189463805E+03  0.00000000000E+00 0.  1.
</event>
<event>
 7    1  0.2728221E-009  0.9385536E+02  0.7561462E-02  0.1293775E+00
          1   -1    0    0  501    0  0.00000000000E+00  0.00000000000E+00  0.32917791535E+03  0.32917791535E+03  0.00000000000E+00 0. -1.
         -1   -1    0    0    0  501 -0.00000000000E+00 -0.00000000000E+00 -0.45249521176E+02  0.45249521176E+02  0.00000000000E+00 0.  1.
         25    2    1    2    0    0  0.39643764763E+02 -0.41525034736E+02  0.15136441899E+03  0.20458680075E+03  0.12509442478E+03 0.  0.
          5    1    3    3  502    0  0.62769501859E+00  0.15243255952E+02 -0.16641386052E+02  0.22959943005E+02  0.41800000000E+01 0. -1.
         -5    1    3    3    0  502  0.39016069745E+02 -0.56768290689E+02  0.16800580504E+03  0.18162685774E+03  0.41800000000E+01 0. -1.
        -11    1    1    2    0    0  0.25723703463E+02  0.24059779395E+02  0.26684575852E+02  0.44188782432E+02  0.00000000000E+00 0. -1.
         11    1    1    2    0    0 -0.65367468226E+02  0.17465255342E+02  0.10587939933E+03  0.12565185335E+03  0.00000000000E+00 0.  1.
</event>
<event>
 7    1  0.2728221E-009  0.1777916E+03  0.7561462E-02  0.1169958E+00
         -1   -1    0    0    0  501 -0.00000000000E+00  0.00000000000E+00  0.94932858972E+02  0.94932858972E+02  0.00000000000E+00 0.  1.
          1   -1    0    0  501    0  0.00000000000E+00 -0.00000000000E+00 -0.42491853780E+03  0.42491853780E+03  0.00000000000E+00 0. -1.
         25    2    1    2    0    0  0.14099780816E+03  0.70331135883E+02 -0.25357232966E+03  0.32368670220E+03  0.12508918511E+03 0.  0.
          5    1    3    3  502    0  0.97975472753E+02  0.20389203972E+01 -0.21020801639E+03  0.23196601694E+03  0.41800000000E+01 0. -1.
         -5    1    3    3    0  502  0.43022335406E+02  0.68292215486E+02 -0.43364313263E+02  0.91720685260E+02  0.41800000000E+01 0. -1.
        -11    1    1    2    0    0 -0.38048106736E+02 -0.62830287641E+02 -0.11820004832E+02  0.74397688038E+02  0.00000000000E+00 0.  1.
         11    1    1    2    0    0 -0.10294970142E+03 -0.75008482425E+01 -0.64593344337E+02  0.12176700653E+03  0.00000000000E+00 0. -1.
</event>
<event>
 7    1  0.2728221E-009  0.1539835E+03  0.7561462E-02  0.1195662E+00
          2   -1    0    0  501    0  0.00000000000E+00  0.00000000000E+00  0.85105011929E+03  0.85105011929E+03  0.00000000000E+00 0. -1.
         -2   -1    0    0    0  501 -0.00000000000E+00 -0.00000000000E+00 -0.38756761447E+02  0.38756761447E+02  0.00000000000E+00 0.  1.
         25    2    1    2    0    0  0.43143905717E+02 -0.12723807856E+03  0.29447077971E+03  0.34700370084E+03  0.12509037956E+03 0.  0.
          5    1    3    3  502    0  0.23439992326E+01 -0.94039444072E+02  0.72475893043E+02  0.11882398262E+03  0.41800000000E+01 0.  1.
         -5    1    3    3    0  502  0.40799906485E+02 -0.33198634489E+02  0.22199488667E+03  0.22817971822E+03  0.41800000000E+01 0.  1.
        -11    1    1    2    0    0 -0.70713131420E+02  0.84547689491E+02  0.38917120004E+03  0.40447853057E+03  0.00000000000E+00 0. -1.
         11    1    1    2    0    0  0.27569225703E+02  0.42690389070E+02  0.12865137810E+03  0.13832464933E+03  0.00000000000E+00 0.  1.
</event>
<event>
 7    1  0.2911427E-009  0.1748371E+03  0.7561462E-02  0.1172895E+00
         -2   -1    0    0    0  501 -0.00000000000E+00  0.00000000000E+00  0.72032230139E+02  0.72032230139E+02  0.00000000000E+00 0.  1.
          2   -1    0    0  501    0  0.00000000000E+00 -0.00000000000E+00 -0.52263596628E+03  0.52263596628E+03  0.00000000000E+00 0. -1.
         25    2    1    2    0    0 -0.14835820278E+02  0.15368882034E+03 -0.30431080536E+03  0.36342973621E+03  0.12504299997E+03 0.  0.
          5    1    3    3  502    0  0.32532552043E+02  0.14130916659E+03 -0.19034929601E+03  0.23932608382E+03  0.41800000000E+01 0.  1.
         -5    1    3    3    0  502 -0.47368372321E+02  0.12379653755E+02 -0.11396150936E+03  0.12410365240E+03  0.41800000000E+01 0.  1.
        -11    1    1    2    0    0  0.15247316849E+02 -0.64373587027E+02 -0.12183032045E+03  0.13863284733E+03  0.00000000000E+00 0. -1.
         11    1    1    2    0    0 -0.41149657138E+00 -0.89315233318E+02 -0.24462610327E+02  0.92605612875E+02  0.00000000000E+00 0.  1.
</event>
<event>
 7    1  0.2728221E-009  0.9981918E+02  0.7561462E-02  0.1280677E+00
          3   -1    0    0  501    0  0.00000000000E+00  0.00000000000E+00  0.62813117132E+03  0.62813117132E+03  0.00000000000E+00 0. -1.
         -3   -1    0    0    0  501 -0.00000000000E+00 -0.00000000000E+00 -0.36340781947E+02  0.36340781947E+02  0.00000000000E+00 0.  1.
         25    2    1    2    0    0  0.30469277688E+02 -0.93974331445E+02  0.37798098348E+03  0.41021067567E+03  0.12507446863E+03 0.  0.
          5    1    3    3  502    0  0.26930603838E+01 -0.36890557649E+02  0.32582391389E+03  0.32794338091E+03  0.41800000000E+01 0.  1.
         -5    1    3    3    0  502  0.27776217305E+02 -0.57083773796E+02  0.52157069589E+02  0.82267294757E+02  0.41800000000E+01 0.  1.
        -11    1    1    2    0    0 -0.11535148941E+02  0.36876936966E+02  0.74990087457E+01  0.39359919630E+02  0.00000000000E+00 0.  1.
         11    1    1    2    0    0 -0.18934128747E+02  0.57097394479E+02  0.20631039715E+03  0.21490135797E+03  0.00000000000E+00 0. -1.
</event>
<event>
 7    1  0.2728221E-009  0.1195198E+03  0.7561462E-02  0.1243891E+00
         -1   -1    0    0    0  501 -0.00000000000E+00  0.00000000000E+00  0.72124547807E+02  0.72124547807E+02  0.00000000000E+00 0.  1.
          1   -1    0    0  501    0  0.00000000000E+00 -0.00000000000E+00 -0.25958894867E+03  0.25958894867E+03  0.00000000000E+00 0. -1.
         25    2    1    2    0    0 -0.80506474555E+02  0.83434793603E+01 -0.84282272760E+02  0.17117881857E+03  0.12509108815E+03 0.  0.
          5    1    3    3  502    0 -0.87446569457E+02 -0.33047554575E+02 -0.22281391922E+02  0.96192391587E+02  0.41800000000E+01 0. -1.
         -5    1    3    3    0  502  0.69400949015E+01  0.41391033936E+02 -0.62000880838E+02  0.74986426986E+02  0.41800000000E+01 0. -1.
        -11    1    1    2    0    0  0.47652303756E+02  0.27213312395E+02 -0.97379081127E+02  0.11177652645E+03  0.00000000000E+00 0.  1.
         11    1    1    2    0    0  0.32854170799E+02 -0.35556791755E+02 -0.58030469769E+01  0.48758151452E+02  0.00000000000E+00 0. -1.
</event>
<event>
 7    1  0.2728221E-009  0.9310917E+02  0.7561462E-02  0.1295492E+00
         -1   -1    0    0    0  501 -0.00000000000E+00  0.00000000000E+00  0.14029952317E+03  0.14029952317E+03  0.00000000000E+00 0.  1.
          1   -1    0    0  501    0  0.00000000000E+00 -0.00000000000E+00 -0.10418145881E+03  0.10418145881E+03  0.00000000000E+00 0. -1.
         25    2    1    2    0    0 -0.29733929153E+02  0.24313425015E+02 -0.13713631763E+02  0.13157076724E+03  0.12509018314E+03 0.  0.
          5    1    3    3  502    0  0.17804597036E+02 -0.16123639180E+02  0.41503649694E+02  0.48135234018E+02  0.41800000000E+01 0.  1.
         -5    1    3    3    0  502 -0.47538526189E+02  0.40437064196E+02 -0.55217281457E+02  0.83435533225E+02  0.41800000000E+01 0.  1.
        -11    1    1    2    0    0  0.62011783593E+02 -0.25347763415E+02  0.43847428089E+02  0.80066018788E+02  0.00000000000E+00 0.  1.
         11    1    1    2    0    0 -0.32277854440E+02  0.10343383999E+01  0.59842680360E+01  0.32844195942E+02  0.00000000000E+00 0. -1.
</event>
<event>
 7    1  0.2728221E-009  0.1307567E+03  0.7561462E-02  0.1226337E+00
          2   -1    0    0  501    0  0.00000000000E+00  0.00000000000E+00  0.15744825080E+03  0.15744825080E+03  0.00000000000E+00 0. -1.
         -2   -1    0    0    0  501 -0.00000000000E+00 -0.00000000000E+00 -0.20138943615E+03  0.20138943615E+03  0.00000000000E+00 0.  1.
         25    2    1    2    0    0  0.75498450524E+02  0.58367263306E+02  0.79635701609E+02  0.17634048053E+03  0.12508943458E+03 0.  0.
          5    1    3    3  502    0  0.85304058366E+02  0.77194833583E+02  0.95446256597E+02  0.14954358898E+03  0.41800000000E+01 0. -1.
         -5    1    3    3    0  502 -0.98056078426E+01 -0.18827570278E+02 -0.15810554988E+02  0.26796891550E+02  0.41800000000E+01 0. -1.
        -11    1    1    2    0    0 -0.66997633529E+01 -0.55493105977E+02 -0.89861430785E+02  0.10582744626E+03  0.00000000000E+00 0.  1.
         11    1    1    2    0    0 -0.68798687171E+02 -0.28741573289E+01 -0.33715456177E+02  0.76669760153E+02  0.00000000000E+00 0. -1.
</event>
<event>
 7    1  0.2728221E-009  0.1341889E+03  0.7561462E-02  0.1221369E+00
          1   -1    0    0  501    0  0.00000000000E+00  0.00000000000E+00  0.98526496534E+02  0.98526496534E+02  0.00000000000E+00 0. -1.
         -1   -1    0    0    0  501 -0.00000000000E+00 -0.00000000000E+00 -0.31566936301E+03  0.31566936301E+03  0.00000000000E+00 0.  1.
         25    2    1    2    0    0 -0.27298025568E+02 -0.95778807432E+02 -0.22905228415E+03  0.27934247480E+03  0.12509399347E+03 0.  0.
          5    1    3    3  502    0 -0.27854739794E+01  0.24114017411E+02 -0.93437384427E+02  0.96629508482E+02  0.41800000000E+01 0. -1.
         -5    1    3    3    0  502 -0.24512551589E+02 -0.11989282484E+03 -0.13561489972E+03  0.18271296632E+03  0.41800000000E+01 0. -1.
        -11    1    1    2    0    0 -0.23565429504E+02  0.31034051311E+02  0.31631673570E+02  0.50189686005E+02  0.00000000000E+00 0. -1.
         11    1    1    2    0    0  0.50863455072E+02  0.64744756122E+02 -0.19722255903E+02  0.84663698744E+02  0.00000000000E+00 0.  1.
</event>
<event>
 7    1  0.2728221E-009  0.1512433E+03  0.7561462E-02  0.1198953E+00
          1   -1    0    0  501    0  0.00000000000E+00  0.00000000000E+00  0.52554544712E+03  0.52554544712E+03  0.00000000000E+00 0. -1.
         -1   -1    0    0    0  501 -0.00000000000E+00 -0.00000000000E+00 -0.54390986791E+02  0.54390986791E+02  0.00000000000E+00 0.  1.
         25    2    1    2    0    0 -0.12263449920E+03 -0.78503355496E+01  0.18429230931E+03  0.25438258838E+03  0.12508396315E+03 0.  0.
          5    1    3    3  502    0 -0.47745952426E+00 -0.25512852735E+02  0.10379231878E+03  0.10696472064E+03  0.41800000000E+01 0.  1.
         -5    1    3    3    0  502 -0.12215703968E+03  0.17662517185E+02  0.80499990528E+02  0.14741786775E+03  0.41800000000E+01 0.  1.
        -11    1    1    2    0    0  0.91097100028E+02  0.47283911004E+02  0.20737726055E+03  0.23138664193E+03  0.00000000000E+00 0.  1.
         11    1    1    2    0    0  0.31537399174E+02 -0.39433575454E+02  0.79484890476E+02  0.94167203600E+02  0.00000000000E+00 0. -1.
</event>
<event>
 7    1  0.2728221E-009  0.1226369E+03  0.7561462E-02  0.1238809E+00
         -1   -1    0    0    0  501 -0.00000000000E+00  0.00000000000E+00  0.41826303002E+03  0.41826303002E+03  0.00000000000E+00 0.  1.
          1   -1    0    0  501    0  0.00000000000E+00 -0.00000000000E+00 -0.40456250312E+02  0.40456250312E+02  0.00000000000E+00 0. -1.
         25    2    1    2    0    0 -0.58921521461E+02  0.52505420234E+01  0.26496420495E+03  0.29891923272E+03  0.12508942363E+03 0.  0.
          5    1    3    3  502    0 -0.23389696438E+01 -0.52439385294E+02  0.14456488820E+03  0.15385655400E+03  0.41800000000E+01 0.  1.
         -5    1    3    3    0  502 -0.56582551817E+02  0.57689927318E+02  0.12039931675E+03  0.14506267872E+03  0.41800000000E+01 0.  1.
        -11    1    1    2    0    0 -0.16820800106E+02 -0.27958393004E+02  0.45173573110E+02  0.55724884595E+02  0.00000000000E+00 0.  1.
         11    1    1    2    0    0  0.75742321567E+02  0.22707850981E+02  0.67669001654E+02  0.10407516302E+03  0.00000000000E+00 0. -1.
</event>
<event>
 7    1  0.2728221E-009  0.1718102E+03  0.7561462E-02  0.1175973E+00
          2   -1    0    0  501    0  0.00000000000E+00  0.00000000000E+00  0.29418648807E+03  0.29418648807E+03  0.00000000000E+00 0. -1.
         -2   -1    0    0    0  501 -0.00000000000E+00 -0.00000000000E+00 -0.11293600469E+03  0.11293600469E+03  0.00000000000E+00 0.  1.
         25    2    1    2    0    0  0.99448960265E+02 -0.10313296439E+03  0.13819026864E+03  0.23509514928E+03  0.12508666925E+03 0.  0.
          5    1    3    3  502    0  0.12630475074E+03 -0.78812757367E+02  0.13005467603E+03  0.19772716540E+03  0.41800000000E+01 0.  1.
         -5    1    3    3    0  502 -0.26855790470E+02 -0.24320207027E+02  0.81355926167E+01  0.37367983874E+02  0.41800000000E+01 0.  1.
        -11    1    1    2    0    0  0.97180642655E+01  0.15176507265E+02 -0.11737177329E+02  0.21506475246E+02  0.00000000000E+00 0.  1.
         11    1    1    2    0    0 -0.10916702453E+03  0.87956457129E+02  0.54797392071E+02  0.15052086823E+03  0.00000000000E+00 0. -1.
</event>
<event>
 7    1  0.2728221E-009  0.1299795E+03  0.7561462E-02  0.1227486E+00
         -2   -1    0    0    0  501 -0.00000000000E+00  0.00000000000E+00  0.24051078863E+02  0.24051078863E+02  0.00000000000E+00 0.  1.
          2   -1    0    0  501    0  0.00000000000E+00 -0.00000000000E+00 -0.74401120636E+03  0.74401120636E+03  0.00000000000E+00 0. -1.
         25    2    1    2    0    0  0.38270156804E+02  0.67223509214E+02 -0.43410874473E+03  0.45834677302E+03  0.12509099485E+03 0.  0.
          5    1    3    3  502    0 -0.20463112130E+02  0.78154514787E+02 -0.31236309484E+03  0.32266862655E+03  0.41800000000E+01 0.  1.
         -5    1    3    3    0  502  0.58733268934E+02 -0.10931005573E+02 -0.12174564989E+03  0.13567814647E+03  0.41800000000E+01 0.  1.
        -11    1    1    2    0    0 -0.68164827447E+02 -0.51231445212E+02 -0.20823249215E+03  0.22501527829E+03  0.00000000000E+00 0.  1.
         11    1    1    2    0    0  0.29894670644E+02 -0.15992064002E+02 -0.77618890622E+02  0.84700233915E+02  0.00000000000E+00 0. -1.
</event>
<event>
 7    1  0.2728221E-009  0.1066463E+03  0.7561462E-02  0.1266909E+00
          1   -1    0    0  501    0  0.00000000000E+00  0.00000000000E+00  0.15417235081E+03  0.15417235081E+03  0.00000000000E+00 0. -1.
         -1   -1    0    0    0  501 -0.00000000000E+00 -0.00000000000E+00 -0.12466568534E+03  0.12466568534E+03  0.00000000000E+00 0.  1.
         25    2    1    2    0    0  0.50739940922E+02  0.62388438754E+02 -0.16962217988E+02  0.14967249363E+03  0.12508908671E+03 0.  0.
          5    1    3    3  502    0  0.13512196531E+02  0.75019607640E+02  0.35328169990E+02  0.84119397171E+02  0.41800000000E+01 0.  1.
         -5    1    3    3    0  502  0.37227744391E+02 -0.12631168886E+02 -0.52290387978E+02  0.65553096455E+02  0.41800000000E+01 0.  1.
        -11    1    1    2    0    0 -0.24225478372E+02 -0.66326511439E+02 -0.53599127699E+01  0.70815313224E+02  0.00000000000E+00 0.  1.
         11    1    1    2    0    0 -0.26514462550E+02  0.39380726852E+01  0.51828796231E+02  0.58350229302E+02  0.00000000000E+00 0. -1.
</event>
<event>
 7    1  0.2728221E-009  0.1040111E+03  0.7561462E-02  0.1272080E+00
          1   -1    0    0  501    0  0.00000000000E+00  0.00000000000E+00  0.53685429966E+02  0.53685429966E+02  0.00000000000E+00 0. -1.
         -1   -1    0    0    0  501 -0.00000000000E+00 -0.00000000000E+00 -0.28132950456E+03  0.28132950456E+03  0.00000000000E+00 0.  1.
         25    2    1    2    0    0 -0.57781755434E+02  0.32498585019E+01 -0.11995723401E+03  0.18271768615E+03  0.12508685782E+03 0.  0.
          5    1    3    3  502    0  0.31766389128E+02 -0.10551307369E+02 -0.18261740324E+01  0.33782256837E+02  0.41800000000E+01 0.  1.
         -5    1    3    3    0  502 -0.89548144561E+02  0.13801165871E+02 -0.11813105998E+03  0.14893542932E+03  0.41800000000E+01 0.  1.
        -11    1    1    2    0    0  0.39270415411E+02  0.27327791354E+02 -0.10624902126E+03  0.11652393842E+03  0.00000000000E+00 0.  1.
         11    1    1    2    0    0  0.18511340023E+02 -0.30577649856E+02 -0.14378193180E+01  0.35773309947E+02  0.00000000000E+00 0. -1.
</event>
<event>
 7    1  0.2728221E-009  0.8630900E+02  0.7561462E-02  0.1312044E+00
         -2   -1    0    0    0  501 -0.00000000000E+00  0.00000000000E+00  0.37733138112E+02  0.37733138112E+02  0.00000000000E+00 0.  1.
          2   -1    0    0  501    0  0.00000000000E+00 -0.00000000000E+00 -0.56069899509E+03  0.56069899509E+03  0.00000000000E+00 0. -1.
         25    2    1    2    0    0 -0.41979794082E+01  0.15318238608E+01 -0.85340759695E+02  0.15147787326E+03  0.12507010557E+03 0.  0.
          5    1    3    3  502    0  0.11699756991E+02  0.39091789423E+02 -0.99881586496E+02  0.10797618272E+03  0.41800000000E+01 0. -1.
         -5    1    3    3    0  502 -0.15897736399E+02 -0.37559965562E+02  0.14540826801E+02  0.43501690538E+02  0.41800000000E+01 0. -1.
        -11    1    1    2    0    0  0.21036412882E+02  0.40325442918E+02 -0.23601710039E+03  0.24035961327E+03  0.00000000000E+00 0. -1.
         11    1    1    2    0    0 -0.16838433474E+02 -0.41857266778E+02 -0.20160799690E+03  0.20659464668E+03  0.00000000000E+00 0.  1.
</event>
<event>
 7    1  0.2728221E-009  0.1260751E+03  0.7561462E-02  0.1233399E+00
          1   -1    0    0  501    0  0.00000000000E+00  0.00000000000E+00  0.29410581850E+03  0.29410581850E+03  0.00000000000E+00 0. -1.
         -1   -1    0    0    0  501 -0.00000000000E+00 -0.00000000000E+00 -0.54799873092E+02  0.54799873092E+02  0.00000000000E+00 0.  1.
         25    2    1    2    0    0  0.64604363961E+02  0.19618498005E+02  0.13516532871E+03  0.19615224159E+03  0.12508967379E+03 0.  0.
          5    1    3    3  502    0  0.67569205751E+02  0.66304480765E+02  0.83125247340E+02  0.12605221490E+03  0.41800000000E+01 0.  1.
         -5    1    3    3    0  502 -0.29648417907E+01 -0.46685982759E+02  0.52040081367E+02  0.70100026688E+02  0.41800000000E+01 0.  1.
        -11    1    1    2    0    0 -0.25356777868E+02 -0.53094938355E+02  0.67119984590E+02  0.89258786650E+02  0.00000000000E+00 0. -1.
         11    1    1    2    0    0 -0.39247586092E+02  0.33476440350E+02  0.37020632108E+02  0.63494663353E+02  0.00000000000E+00 0.  1.
</event>
<event>
 7    1  0.2728221E-009  0.1116605E+03  0.7561462E-02  0.1257526E+00
          1   -1    0    0  501    0  0.00000000000E+00  0.00000000000E+00  0.67647792197E+02  0.67647792197E+02  0.00000000000E+00 0. -1.
         -1   -1    0    0    0  501 -0.00000000000E+00 -0.00000000000E+00 -0.29565292061E+03  0.29565292061E+03  0.00000000000E+00 0.  1.
         25    2    1    2    0    0  0.45512075329E+02 -0.80579532905E+02 -0.12382855268E+03  0.19885922788E+03  0.12508825657E+03 0.  0.
          5    1    3    3  502    0  0.36883804536E+02 -0.98504452605E+02 -0.40014300826E+02  0.11261509175E+03  0.41800000000E+01 0. -1.
         -5    1    3    3    0  502  0.86282707926E+01  0.17924919699E+02 -0.83814251853E+02  0.86244136130E+02  0.41800000000E+01 0. -1.
        -11    1    1    2    0    0 -0.48460573568E+02  0.60903769048E+02 -0.23432062341E+02  0.81281964914E+02  0.00000000000E+00 0. -1.
         11    1    1    2    0    0  0.29484982393E+01  0.19675763858E+02 -0.80744513391E+02  0.83159520009E+02  0.00000000000E+00 0.  1.
</event>
<event>
 7    1  0.2728221E-009  0.2140919E+03  0.7561462E-02  0.1138366E+00
         -1   -1    0    0    0  501 -0.00000000000E+00  0.00000000000E+00  0.48708660086E+03  0.48708660086E+03  0.00000000000E+00 0.  1.
          1   -1    0    0  501    0  0.00000000000E+00 -0.00000000000E+00 -0.11359174948E+03  0.11359174948E+03  0.00000000000E+00 0. -1.
         25    2    1    2    0    0 -0.13062390485E+03  0.15736459843E+03  0.24461527561E+03  0.34250289830E+03  0.12508149713E+03 0.  0.
          5    1    3    3  502    0 -0.98426607357E+02  0.12260728197E+03  0.91039442498E+02  0.18173055637E+03  0.41800000000E+01 0. -1.
         -5    1    3    3    0  502 -0.32197297488E+02  0.34757316464E+02  0.15357583311E+03  0.16077234193E+03  0.41800000000E+01 0. -1.
        -11    1    1    2    0    0  0.97791863736E+02 -0.47585259272E+02  0.55365173359E+02  0.12203650247E+03  0.00000000000E+00 0.  1.
         11    1    1    2    0    0  0.32832041110E+02 -0.10977933916E+03  0.73514402408E+02  0.13613894958E+03  0.00000000000E+00 0. -1.
</event>
<event>
 7    1  0.2728221E-009  0.1125225E+03  0.7561462E-02  0.1255969E+00
          2   -1    0    0  501    0  0.00000000000E+00  0.00000000000E+00  0.29235505812E+02  0.29235505812E+02  0.00000000000E+00 0. -1.
         -2   -1    0    0    0  501 -0.00000000000E+00 -0.00000000000E+00 -0.64594578383E+03  0.64594578383E+03  0.00000000000E+00 0.  1.
         25    2    1    2    0    0 -0.22923042392E+02  0.35142463910E+02 -0.51735171601E+03  0.53391025440E+03  0.12508758152E+03 0.  0.
          5    1    3    3  502    0 -0.52241710494E+02 -0.24645814864E+02 -0.15498512620E+03  0.16545233226E+03  0.41800000000E+01 0. -1.
         -5    1    3    3    0  502  0.29318668102E+02  0.59788278774E+02 -0.36236658980E+03  0.36845792214E+03  0.41800000000E+01 0. -1.
        -11    1    1    2    0    0  0.53236246284E+02  0.99014570922E+00 -0.51412582517E+02  0.74015754728E+02  0.00000000000E+00 0. -1.
         11    1    1    2    0    0 -0.30313203892E+02 -0.36132609619E+02 -0.47945979494E+02  0.67255280519E+02  0.00000000000E+00 0.  1.
</event>
<event>
 7    1  0.2728221E-009  0.1415479E+03  0.7561462E-02  0.1211261E+00
          1   -1    0    0  501    0  0.00000000000E+00  0.00000000000E+00  0.12254563116E+04  0.12254563116E+04  0.00000000000E+00 0. -1.
         -1   -1    0    0    0  501 -0.00000000000E+00 -0.00000000000E+00 -0.17660381334E+02  0.17660381334E+02  0.00000000000E+00 0.  1.
         25    2    1    2    0    0 -0.66422935651E+02 -0.59884099444E+02  0.81187020114E+03  0.82630589796E+03  0.12510036673E+03 0.  0.
          5    1    3    3  502    0  0.13586473881E+02 -0.70752087699E+02  0.34211858615E+03  0.34964703571E+03  0.41800000000E+01 0. -1.
         -5    1    3    3    0  502 -0.80009409532E+02  0.10867988255E+02  0.46975161499E+03  0.47665886225E+03  0.41800000000E+01 0. -1.
        -11    1    1    2    0    0  0.32290082567E+02 -0.23527561393E+02  0.13268233113E+03  0.13856693896E+03  0.00000000000E+00 0.  1.
         11    1    1    2    0    0  0.34132853084E+02  0.83411660838E+02  0.26324339796E+03  0.27824385598E+03  0.00000000000E+00 0. -1.
</event>
<event>
 7    1  0.2728221E-009  0.7807999E+02  0.7561462E-02  0.1334590E+00
          1   -1    0    0  501    0  0.00000000000E+00  0.00000000000E+00  0.50492593892E+03  0.50492593892E+03  0.00000000000E+00 0. -1.
         -1   -1    0    0    0  501 -0.00000000000E+00 -0.00000000000E+00 -0.23657721079E+02  0.23657721079E+02  0.00000000000E+00 0.  1.
         25    2    1    2    0    0  0.91202198403E+01 -0.15730745838E+02  0.28136001695E+03  0.30845114579E+03  0.12509202783E+03 0.  0.
          5    1    3    3  502    0  0.23412030061E+02  0.30295679724E+02  0.21465818624E+02  0.44093141539E+02  0.41800000000E+01 0. -1.
         -5    1    3    3    0  502 -0.14291810221E+02 -0.46026425562E+02  0.25989419832E+03  0.26435800425E+03  0.41800000000E+01 0. -1.
        -11    1    1    2    0    0 -0.14418876897E+02 -0.24642026369E+02  0.16200847144E+03  0.16450494915E+03  0.00000000000E+00 0. -1.
         11    1    1    2    0    0  0.52986570568E+01  0.40372772207E+02  0.37899729445E+02  0.55627565058E+02  0.00000000000E+00 0.  1.
</event>
<event>
 6    1  0.2728221E-009  0.6695607E+02  0.7561462E-02  0.1370761E+00
         -2   -1    0    0    0  501 -0.00000000000E+00  0.00000000000E+00  0.52197812514E+02  0.52197812514E+02  0.00000000000E+00 0.  1.
          2   -1    0    0  501    0  0.00000000000E+00 -0.00000000000E+00 -0.25996448223E+03  0.25996448223E+03  0.00000000000E+00 0. -1.
          5    1    1    2  502    0 -0.32623232087E+02 -0.16698233182E+02 -0.11634308011E+03  0.12205036237E+03  0.41800000000E+01 0. -1.
         -5    1    1    2    0  502  0.24728306606E+01  0.93755114313E+00  0.32112823432E+02  0.32491533088E+02  0.41800000000E+01 0. -1.
        -11    1    1    2    0    0 -0.26599265970E+02  0.22620296171E+02 -0.74617935952E+02  0.82383463843E+02  0.00000000000E+00 0. -1.
         11    1    1    2    0    0  0.56749667396E+02 -0.68596141320E+01 -0.48918477082E+02  0.75236935448E+02  0.00000000000E+00 0.  1.
</event>
<event>
 7    1  0.2728221E-009  0.1034016E+03  0.7561462E-02  0.1273301E+00
         -2   -1    0    0    0  501 -0.00000000000E+00  0.00000000000E+00  0.84086865426E+02  0.84086865426E+02  0.00000000000E+00 0.  1.
          2   -1    0    0  501    0  0.00000000000E+00 -0.00000000000E+00 -0.56004954731E+03  0.56004954731E+03  0.00000000000E+00 0. -1.
         25    2    1    2    0    0 -0.97768431112E+02  0.10291713192E+02 -0.48844381826E+03  0.51370277565E+03  0.12509433492E+03 0.  0.
          5    1    3    3  502    0 -0.34855353225E+02 -0.51482511640E+01 -0.19893502407E+02  0.40677069419E+02  0.41800000000E+01 0.  1.
         -5    1    3    3    0  502 -0.62913077887E+02  0.15439964356E+02 -0.46855031585E+03  0.47302570623E+03  0.41800000000E+01 0.  1.
        -11    1    1    2    0    0  0.67152972451E+02  0.12414918395E+02  0.43774714887E+02  0.81116444518E+02  0.00000000000E+00 0.  1.
         11    1    1    2    0    0  0.30615458661E+02 -0.22706631587E+02 -0.31293578512E+02  0.49317192571E+02  0.00000000000E+00 0. -1.
</event>
<event>
 7    1  0.2728221E-009  0.6582953E+02  0.7561462E-02  0.1374878E+00
         -1   -1    0    0    0  501 -0.00000000000E+00  0.00000000000E+00  0.99938331224E+02  0.99938331224E+02  0.00000000000E+00 0.  1.
          1   -1    0    0  501    0  0.00000000000E+00 -0.00000000000E+00 -0.15159803808E+03  0.15159803808E+03  0.00000000000E+00 0. -1.
         25    2    1    2    0    0 -0.22366526989E+02 -0.42592585428E+02 -0.55452376718E+01  0.13413362459E+03  0.12508672880E+03 0.  0.
          5    1    3    3  502    0 -0.42496266966E+02 -0.82358420628E+01  0.49613561409E+02  0.65975295953E+02  0.41800000000E+01 0.  1.
         -5    1    3    3    0  502  0.20129739976E+02 -0.34356743365E+02 -0.55158799080E+02  0.68158328634E+02  0.41800000000E+01 0.  1.
        -11    1    1    2    0    0  0.80759307718E+01  0.13828078160E+02  0.30433491213E+02  0.34389443014E+02  0.00000000000E+00 0.  1.
         11    1    1    2    0    0  0.14290596217E+02  0.28764507269E+02 -0.76547960395E+02  0.83013301701E+02  0.00000000000E+00 0. -1.
</event>
<event>
 7    1  0.2728221E-009  0.1160710E+03  0.7561462E-02  0.1249723E+00
         -1   -1    0    0    0  501 -0.00000000000E+00  0.00000000000E+00  0.12252366026E+02  0.12252366026E+02  0.00000000000E+00 0.  1.
          1   -1    0    0  501    0  0.00000000000E+00 -0.00000000000E+00 -0.12123489945E+04  0.12123489945E+04  0.00000000000E+00 0. -1.
         25    2    1    2    0    0  0.47177354966E+02  0.14748793246E+02 -0.80396896087E+03  0.81514274498E+03  0.12509346481E+03 0.  0.
          5    1    3    3  502    0  0.18599435944E+02  0.67722378457E+02 -0.52719450717E+03  0.53186819829E+03  0.41800000000E+01 0. -1.
         -5    1    3    3    0  502  0.28577919022E+02 -0.52973585211E+02 -0.27677445370E+03  0.28327454669E+03  0.41800000000E+01 0. -1.
        -11    1    1    2    0    0 -0.73761071380E+02 -0.97515123869E+01 -0.24952707681E+03  0.26038346665E+03  0.00000000000E+00 0.  1.
         11    1    1    2    0    0  0.26583716415E+02 -0.49972808595E+01 -0.14660059082E+03  0.14907514891E+03  0.00000000000E+00 0. -1.
</event>
<event>
 7    1  0.2728221E-009  0.1140055E+03  0.7561462E-02  0.1253327E+00
         -1   -1    0    0    0  501 -0.00000000000E+00  0.00000000000E+00  0.40660394690E+03  0.40660394690E+03  0.00000000000E+00 0.  1.
          1   -1    0    0  501    0  0.00000000000E+00 -0.00000000000E+00 -0.49587521539E+02  0.49587521539E+02  0.00000000000E+00 0. -1.
         25    2    1    2    0    0  0.78122596903E+01  0.94147926198E+02  0.19632453353E+03  0.25122916086E+03  0.12509158800E+03 0.  0.
          5    1    3    3  502    0  0.47373880006E+02  0.29797718566E+02  0.20377916292E+02  0.59706954461E+02  0.41800000000E+01 0.  1.
         -5    1    3    3    0  502 -0.39561620316E+02  0.64350207631E+02  0.17594661724E+03  0.19152220639E+03  0.41800000000E+01 0.  1.
        -11    1    1    2    0    0 -0.10889170846E+02 -0.28414025346E+02  0.12784069094E+03  0.13141222599E+03  0.00000000000E+00 0.  1.
         11    1    1    2    0    0  0.30769111561E+01 -0.65733900852E+02  0.32851200889E+02  0.73550081600E+02  0.00000000000E+00 0. -1.
</event>
<event>
 7    1  0.2876256E-009  0.1456827E+03  0.7561462E-02  0.1205881E+00
         -2   -1    0    0    0  501 -0.00000000000E+00  0.00000000000E+00  0.57653729446E+02  0.57653729446E+02  0.00000000000E+00 0. -1.
          2   -1    0    0  501    0  0.00000000000E+00 -0.00000000000E+00 -0.46866911833E+03  0.46866911833E+03  0.00000000000E+00 0.  1.
         25    2    1    2    0    0 -0.34221219048E+02  0.11574127068E+03 -0.25903676933E+03  0.31195651847E+03  0.12509871293E+03 0.  0.
          5    1    3    3  502    0 -0.42420973840E+02  0.23318230000E+02 -0.19030846551E+03  0.19641299172E+03  0.41800000000E+01 0. -1.
         -5    1    3    3    0  502  0.81997547915E+01  0.92423040678E+02 -0.68728303826E+02  0.11554352675E+03  0.41800000000E+01 0. -1.
        -11    1    1    2    0    0  0.61280041571E+02 -0.50988835229E+02 -0.66840473684E+02  0.10403246481E+03  0.00000000000E+00 0.  1.
         11    1    1    2    0    0 -0.27058822523E+02 -0.64752435449E+02 -0.85138145870E+02  0.11033386450E+03  0.00000000000E+00 0. -1.
</event>
<event>
 7    1  0.2728221E-009  0.1862642E+03  0.7561462E-02  0.1161875E+00
          1   -1    0    0  501    0  0.00000000000E+00  0.00000000000E+00  0.68039260291E+03  0.68039260291E+03  0.00000000000E+00 0. -1.
         -1   -1    0    0    0  501 -0.00000000000E+00 -0.00000000000E+00 -0.60033401384E+02  0.60033401384E+02  0.00000000000E+00 0.  1.
         25    2    1    2    0    0 -0.15188712892E+03 -0.16503683226E+02  0.46072674340E+03  0.50125673880E+03  0.12508842719E+03 0.  0.
          5    1    3    3  502    0 -0.16390957467E+03 -0.40461070522E+02  0.41560943100E+03  0.44861132223E+03  0.41800000000E+01 0. -1.
         -5    1    3    3    0  502  0.12022445746E+02  0.23957387296E+02  0.45117312395E+02  0.52645416567E+02  0.41800000000E+01 0. -1.
        -11    1    1    2    0    0 -0.17330233062E+01  0.22706969642E+02  0.10867391769E+02  0.25233114036E+02  0.00000000000E+00 0.  1.
         11    1    1    2    0    0  0.15362015223E+03 -0.62032864162E+01  0.14876506636E+03  0.21393615146E+03  0.00000000000E+00 0. -1.
</event>
<event>
 7    1  0.2728221E-009  0.1585474E+03  0.7561462E-02  0.1190347E+00
         -2   -1    0    0    0  501 -0.00000000000E+00  0.00000000000E+00  0.43424883308E+02  0.43424883308E+02  0.00000000000E+00 0.  1.
          2   -1    0    0  501    0  0.00000000000E+00 -0.00000000000E+00 -0.26038435999E+04  0.26038435999E+04  0.00000000000E+00 0. -1.
         25    2    1    2    0    0 -0.11097174947E+03  0.11003534892E+03 -0.23846365221E+04  0.23930235898E+04  0.12509217404E+03 0.  0.
          5    1    3    3  502    0 -0.10829928951E+03  0.96922007414E+02 -0.23614908232E+04  0.23659625931E+04  0.41800000000E+01 0.  1.
         -5    1    3    3    0  502 -0.26724599613E+01  0.13113341501E+02 -0.23145698886E+02  0.27060996739E+02  0.41800000000E+01 0.  1.
        -11    1    1    2    0    0  0.78854137217E+02 -0.90717644221E+02 -0.63641964348E+02  0.13600722611E+03  0.00000000000E+00 0.  1.
         11    1    1    2    0    0  0.32117612256E+02 -0.19317704694E+02 -0.11214023020E+03  0.11823766727E+03  0.00000000000E+00 0. -1.
</event>
<event>
 7    1  0.2728221E-009  0.1166679E+03  0.7561462E-02  0.1248698E+00
          2   -1    0    0  501    0  0.00000000000E+00  0.00000000000E+00  0.33506346694E+03  0.33506346694E+03  0.00000000000E+00 0.  1.
         -2   -1    0    0    0  501 -0.00000000000E+00 -0.00000000000E+00 -0.11243957051E+03  0.11243957051E+03  0.00000000000E+00 0. -1.
         25    2    1    2    0    0 -0.57011369986E+02 -0.65984776917E+01  0.28936820774E+03  0.32042957670E+03  0.12508923917E+03 0.  0.
          5    1    3    3  502    0 -0.54060024181E+02 -0.57027474006E+02  0.11886639604E+03  0.14255283762E+03  0.41800000000E+01 0. -1.
         -5    1    3    3    0  502 -0.29513458055E+01  0.50428996314E+02  0.17050181170E+03  0.17787673908E+03  0.41800000000E+01 0. -1.
        -11    1    1    2    0    0  0.37245098608E+02 -0.39202125457E+02 -0.17142723822E+02  0.56726334191E+02  0.00000000000E+00 0.  1.
         11    1    1    2    0    0  0.19766271378E+02  0.45800603148E+02 -0.49601587491E+02  0.70347126555E+02  0.00000000000E+00 0. -1.
</event>
<event>
 7    1  0.2728221E-009  0.1139535E+03  0.7561462E-02  0.1253419E+00
         -1   -1    0    0    0  501 -0.00000000000E+00  0.00000000000E+00  0.13476798829E+02  0.13476798829E+02  0.00000000000E+00 0.  1.
          1   -1    0    0  501    0  0.00000000000E+00 -0.00000000000E+00 -0.12389868380E+04  0.12389868380E+04  0.00000000000E+00 0. -1.
         25    2    1    2    0    0  0.74372718175E+02 -0.24600815359E+02 -0.96271294041E+03  0.97396160881E+03  0.12509399856E+03 0.  0.
          5    1    3    3  502    0  0.37396656830E+02  0.50056307619E+02 -0.34439694541E+03  0.35004410048E+03  0.41800000000E+01 0.  1.
         -5    1    3    3    0  502  0.36976061345E+02 -0.74657122978E+02 -0.61831599500E+03  0.62391750833E+03  0.41800000000E+01 0.  1.
        -11    1    1    2    0    0 -0.17948737386E+02 -0.43225760459E+01 -0.18597097180E+02  0.26204844227E+02  0.00000000000E+00 0.  1.
         11    1    1    2    0    0 -0.56423980789E+02  0.28923391405E+02 -0.24420000158E+03  0.25229718380E+03  0.00000000000E+00 0. -1.
</event>
<event>
 7    1  0.2728221E-009  0.1150682E+03  0.7561462E-02  0.1251462E+00
          2   -1    0    0  501    0  0.00000000000E+00  0.00000000000E+00  0.31727647596E+03  0.31727647596E+03  0.00000000000E+00 0.  1.
         -2   -1    0    0    0  501 -0.00000000000E+00 -0.00000000000E+00 -0.64509777063E+02  0.64509777063E+02  0.00000000000E+00 0. -1.
         25    2    1    2    0    0 -0.81902232545E+02  0.38211623731E+02  0.16296279380E+03  0.22443598525E+03  0.12508611204E+03 0.  0.
          5    1    3    3  502    0 -0.29277868747E+02  0.71115247273E+02  0.13672088017E+03  0.15692241225E+03  0.41800000000E+01 0. -1.
         -5    1    3    3    0  502 -0.52624363798E+02 -0.32903623542E+02  0.26241913633E+02  0.67513572994E+02  0.41800000000E+01 0. -1.
        -11    1    1    2    0    0  0.15036948406E+02 -0.29684141333E+01  0.79620851802E+02  0.81082682131E+02  0.00000000000E+00 0.  1.
         11    1    1    2    0    0  0.66865284138E+02 -0.35243209598E+02  0.10183053291E+02  0.76267585644E+02  0.00000000000E+00 0. -1.
</event>
<event>
 7    1  0.2728221E-009  0.1315812E+03  0.7561462E-02  0.1225128E+00
         -2   -1    0    0    0  501 -0.00000000000E+00  0.00000000000E+00  0.16065431760E+03  0.16065431760E+03  0.00000000000E+00 0.  1.
          2   -1    0    0  501    0  0.00000000000E+00 -0.00000000000E+00 -0.14630567962E+03  0.14630567962E+03  0.00000000000E+00 0. -1.
         25    2    1    2    0    0  0.72299991110E+02 -0.76821824822E+02 -0.16851444530E+02  0.16450317741E+03  0.12509373570E+03 0.  0.
          5    1    3    3  502    0  0.68040434602E+02  0.25175767579E+00 -0.45612936702E+02  0.82021805133E+02  0.41800000000E+01 0. -1.
         -5    1    3    3    0  502  0.42595565086E+01 -0.77073582498E+02  0.28761492172E+02  0.82481372277E+02  0.41800000000E+01 0. -1.
        -11    1    1    2    0    0 -0.69600128228E+02  0.39022167720E+02 -0.16555299559E+02  0.81492241142E+02  0.00000000000E+00 0. -1.
         11    1    1    2    0    0 -0.26998628821E+01  0.37799657102E+02  0.47755382066E+02  0.60964578674E+02  0.00000000000E+00 0.  1.
</event>
<event>
 7    1  0.2728221E-009  0.1290895E+03  0.7561462E-02  0.1228813E+00
          1   -1    0    0  501    0  0.00000000000E+00  0.00000000000E+00  0.26414957701E+03  0.26414957701E+03  0.00000000000E+00 0. -1.
         -1   -1    0    0    0  501 -0.00000000000E+00 -0.00000000000E+00 -0.70553453053E+02  0.70553453053E+02  0.00000000000E+00 0.  1.
         25    2    1    2    0    0 -0.58730069195E+02 -0.37268518810E+02  0.15981553857E+03  0.21453672534E+03  0.12508731603E+03 0.  0.
          5    1    3    3  502    0  0.84604594577E+01 -0.68163810532E+02  0.83190239014E+02  0.10796283021E+03  0.41800000000E+01 0. -1.
         -5    1    3    3    0  502 -0.67190528653E+02  0.30895291722E+02  0.76625299555E+02  0.10657389513E+03  0.41800000000E+01 0. -1.
        -11    1    1    2    0    0 -0.24771589765E+02  0.14664617304E+02  0.95558129416E+01  0.30331439483E+02  0.00000000000E+00 0. -1.
         11    1    1    2    0    0  0.83501658960E+02  0.22603901506E+02  0.24224772450E+02  0.89834865239E+02  0.00000000000E+00 0.  1.
</event>
<event>
 7    1  0.2728221E-009  0.2244365E+03  0.7561462E-02  0.1130618E+00
         -1   -1    0    0    0  501 -0.00000000000E+00  0.00000000000E+00  0.26582802331E+03  0.26582802331E+03  0.00000000000E+00 0.  1.
          1   -1    0    0  501    0  0.00000000000E+00 -0.00000000000E+00 -0.34544169586E+03  0.34544169586E+03  0.00000000000E+00 0. -1.
         25    2    1    2    0    0  0.61430242118E+01 -0.22069075407E+03  0.13727004696E+03  0.28850033210E+03  0.12508888899E+03 0.  0.
          5    1    3    3  502    0  0.13454018236E+02 -0.59211063294E+02  0.10829369936E+03  0.12422543357E+03  0.41800000000E+01 0.  1.
         -5    1    3    3    0  502 -0.73109940240E+01 -0.16147969078E+03  0.28976347601E+02  0.16427489853E+03  0.41800000000E+01 0.  1.
        -11    1    1    2    0    0 -0.26557110283E+02  0.83858764846E+02 -0.13760464048E+03  0.16331751171E+03  0.00000000000E+00 0.  1.
         11    1    1    2    0    0  0.20414086071E+02  0.13683198923E+03 -0.79279079028E+02  0.15945187536E+03  0.00000000000E+00 0. -1.
</event>
<event>
 7    1  0.2728221E-009  0.1113668E+03  0.7561462E-02  0.1258059E+00
         -1   -1    0    0    0  501 -0.00000000000E+00  0.00000000000E+00  0.23766456191E+03  0.23766456191E+03  0.00000000000E+00 0.  1.
          1   -1    0    0  501    0  0.00000000000E+00 -0.00000000000E+00 -0.67593565370E+02  0.67593565370E+02  0.00000000000E+00 0. -1.
         25    2    1    2    0    0  0.12869943584E+02 -0.55958487892E+02  0.93275821613E+02  0.16627209938E+03  0.12509614030E+03 0.  0.
          5    1    3    3  502    0 -0.54626913217E+02 -0.39779800097E+02  0.52390635167E+02  0.85608312660E+02  0.41800000000E+01 0.  1.
         -5    1    3    3    0  502  0.67496856801E+02 -0.16178687795E+02  0.40885186447E+02  0.80663786717E+02  0.41800000000E+01 0.  1.
        -11    1    1    2    0    0 -0.10580268852E+02 -0.12851156356E+02  0.67489727397E+02  0.69512283899E+02  0.00000000000E+00 0.  1.
         11    1    1    2    0    0 -0.22896747320E+01  0.68809644248E+02  0.93054475265E+01  0.69473744002E+02  0.00000000000E+00 0. -1.
</event>
<event>
 7    1  0.2728221E-009  0.1310401E+03  0.7561462E-02  0.1225921E+00
          2   -1    0    0  501    0  0.00000000000E+00  0.00000000000E+00  0.57050800146E+02  0.57050800146E+02  0.00000000000E+00 0. -1.
         -2   -1    0    0    0  501 -0.00000000000E+00 -0.00000000000E+00 -0.40198325924E+03  0.40198325924E+03  0.00000000000E+00 0.  1.
         25    2    1    2    0    0 -0.53335876537E+02  0.91055533721E+02 -0.18707404945E+03  0.24855271390E+03  0.12508367465E+03 0.  0.
          5    1    3    3  502    0 -0.65843822056E+02  0.16148059618E+02 -0.30448871360E+02  0.74436381558E+02  0.41800000000E+01 0.  1.
         -5    1    3    3    0  502  0.12507945519E+02  0.74907474103E+02 -0.15662517809E+03  0.17411633235E+03  0.41800000000E+01 0.  1.
        -11    1    1    2    0    0 -0.18916749040E+01 -0.48083358418E+02 -0.12346187426E+03  0.13250819668E+03  0.00000000000E+00 0.  1.
         11    1    1    2    0    0  0.55227551441E+02 -0.42972175302E+02 -0.34396535384E+02  0.77973148806E+02  0.00000000000E+00 0. -1.
</event>
<event>
 7    1  0.2728221E-009  0.7896285E+02  0.7561462E-02  0.1332021E+00
         -2   -1    0    0    0  501 -0.00000000000E+00  0.00000000000E+00  0.13187502403E+02  0.13187502403E+02  0.00000000000E+00 0. -1.
          2   -1    0    0  501    0  0.00000000000E+00 -0.00000000000E+00 -0.10083923645E+04  0.10083923645E+04  0.00000000000E+00 0.  1.
         25    2    1    2    0    0  0.22171690731E+02 -0.12289631715E+02 -0.71072043873E+03  0.72208969501E+03  0.12508943475E+03 0.  0.
          5    1    3    3  502    0  0.17305309081E+02  0.23435836894E+02 -0.36475163276E+02  0.46868135330E+02  0.41800000000E+01 0. -1.
         -5    1    3    3    0  502  0.48663816506E+01 -0.35725468609E+02 -0.67424527546E+03  0.67522155968E+03  0.41800000000E+01 0. -1.
        -11    1    1    2    0    0 -0.19296415885E+02 -0.37580388520E+02 -0.10487544924E+03  0.11306412835E+03  0.00000000000E+00 0.  1.
         11    1    1    2    0    0 -0.28752748463E+01  0.49870020235E+02 -0.17960897410E+03  0.18642604351E+03  0.00000000000E+00 0. -1.
</event>
<event>
 7    1  0.2728221E-009  0.9784419E+02  0.7561462E-02  0.1284896E+00
         -2   -1    0    0    0  501 -0.00000000000E+00  0.00000000000E+00  0.29619934992E+02  0.29619934992E+02  0.00000000000E+00 0.  1.
          2   -1    0    0  501    0  0.00000000000E+00 -0.00000000000E+00 -0.60177203094E+03  0.60177203094E+03  0.00000000000E+00 0. -1.
         25    2    1    2    0    0  0.72280096264E+02 -0.23867459973E+02 -0.36896875304E+03  0.39696556287E+03  0.12509855884E+03 0.  0.
          5    1    3    3  502    0  0.42374607606E+02  0.23400366188E+02 -0.39109622956E+02  0.62371624279E+02  0.41800000000E+01 0. -1.
         -5    1    3    3    0  502  0.29905488658E+02 -0.47267826161E+02 -0.32985913009E+03  0.33459393859E+03  0.41800000000E+01 0. -1.
        -11    1    1    2    0    0 -0.13911220053E+02 -0.15331536088E+02 -0.14057314490E+01  0.20749798146E+02  0.00000000000E+00 0.  1.
         11    1    1    2    0    0 -0.58368876211E+02  0.39198996061E+02 -0.20177761145E+03  0.21367660491E+03  0.00000000000E+00 0. -1.
</event>
<event>
 7    1  0.2728221E-009  0.1348319E+03  0.7561462E-02  0.1220457E+00
          2   -1    0    0  501    0  0.00000000000E+00  0.00000000000E+00  0.64185013620E+03  0.64185013620E+03  0.00000000000E+00 0. -1.
         -2   -1    0    0    0  501 -0.00000000000E+00 -0.00000000000E+00 -0.36591567157E+02  0.36591567157E+02  0.00000000000E+00 0.  1.
         25    2    1    2    0    0 -0.93131548696E+02 -0.39921724529E+02  0.24197140793E+03  0.29063781725E+03  0.12511174650E+03 0.  0.
          5    1    3    3  502    0 -0.11593314036E+03 -0.30439747011E+02  0.13415386338E+03  0.17994944482E+03  0.41800000000E+01 0. -1.
         -5    1    3    3    0  502  0.22801591664E+02 -0.94819775178E+01  0.10781754454E+03  0.11068837243E+03  0.41800000000E+01 0. -1.
        -11    1    1    2    0    0  0.49249575065E+02 -0.17629630595E+02  0.81278383719E+02  0.96656609598E+02  0.00000000000E+00 0.  1.
         11    1    1    2    0    0  0.43881973631E+02  0.57551355124E+02  0.28200877740E+03  0.29114727650E+03  0.00000000000E+00 0. -1.
</event>
<event>
 7    1  0.2728221E-009  0.9806183E+02  0.7561462E-02  0.1284425E+00
         -2   -1    0    0    0  501 -0.00000000000E+00  0.00000000000E+00  0.11917472448E+03  0.11917472448E+03  0.00000000000E+00 0.  1.
          2   -1    0    0  501    0  0.00000000000E+00 -0.00000000000E+00 -0.13211741129E+03  0.13211741129E+03  0.00000000000E+00 0. -1.
         25    2    1    2    0    0 -0.39531334626E+02 -0.47694542919E+02 -0.15233566882E+02  0.14041890515E+03  0.12509161251E+03 0.  0.
          5    1    3    3  502    0 -0.56740266469E+02 -0.22945106261E+02  0.42860705133E+02  0.74836142237E+02  0.41800000000E+01 0.  1.
         -5    1    3    3    0  502  0.17208931843E+02 -0.24749436658E+02 -0.58094272015E+02  0.65582762911E+02  0.41800000000E+01 0.  1.
        -11    1    1    2    0    0  0.32246609620E+02 -0.18883517906E+02  0.18889325608E+02  0.41871681390E+02  0.00000000000E+00 0.  1.
         11    1    1    2    0    0  0.72847250065E+01  0.66578060825E+02 -0.16598445534E+02  0.69001549227E+02  0.00000000000E+00 0. -1.
</event>
<event>
 7    1  0.2728221E-009  0.1756912E+03  0.7561462E-02  0.1172040E+00
         -2   -1    0    0    0  501 -0.00000000000E+00  0.00000000000E+00  0.38391105757E+02  0.38391105757E+02  0.00000000000E+00 0.  1.
          2   -1    0    0  501    0  0.00000000000E+00 -0.00000000000E+00 -0.95799434268E+03  0.95799434268E+03  0.00000000000E+00 0. -1.
         25    2    1    2    0    0 -0.15059905847E+03 -0.45187516002E+02 -0.46717498622E+03  0.50854936085E+03  0.12509195280E+03 0.  0.
          5    1    3    3  502    0 -0.16916511318E+03 -0.45081351848E+02 -0.45015503354E+03  0.48301779514E+03  0.41800000000E+01 0.  1.
         -5    1    3    3    0  502  0.18566054707E+02 -0.10616415438E+00 -0.17019952678E+02  0.25531565706E+02  0.41800000000E+01 0.  1.
        -11    1    1    2    0    0  0.10131525961E+03  0.30329125692E+02 -0.16605097841E+03  0.19686941136E+03  0.00000000000E+00 0.  1.
         11    1    1    2    0    0  0.49283798859E+02  0.14858390310E+02 -0.28637727229E+03  0.29096667623E+03  0.00000000000E+00 0. -1.
</event>
<event>
 7    1  0.2728221E-009  0.1271530E+03  0.7561462E-02  0.1231742E+00
          2   -1    0    0  501    0  0.00000000000E+00  0.00000000000E+00  0.12810743363E+03  0.12810743363E+03  0.00000000000E+00 0.  1.
         -2   -1    0    0    0  501 -0.00000000000E+00 -0.00000000000E+00 -0.14282699077E+03  0.14282699077E+03  0.00000000000E+00 0. -1.
         25    2    1    2    0    0 -0.62025596038E+02 -0.24925472740E+02 -0.53803328043E+02  0.15169696946E+03  0.12509483874E+03 0.  0.
          5    1    3    3  502    0  0.28868322514E+02 -0.39929412532E+02 -0.15288587907E+02  0.51758587211E+02  0.41800000000E+01 0.  1.
         -5    1    3    3    0  502 -0.90893918551E+02  0.15003939792E+02 -0.38514740136E+02  0.99938382250E+02  0.41800000000E+01 0.  1.
        -11    1    1    2    0    0 -0.23813073266E+02  0.26766416717E+01  0.76102715033E+01  0.25142456152E+02  0.00000000000E+00 0.  1.
         11    1    1    2    0    0  0.85838669303E+02  0.22248831068E+02  0.31473499402E+02  0.94094998785E+02  0.00000000000E+00 0. -1.
</event>
<event>
 7    1  0.2728221E-009  0.1206603E+03  0.7561462E-02  0.1242012E+00
         -1   -1    0    0    0  501 -0.00000000000E+00  0.00000000000E+00  0.33504457854E+03  0.33504457854E+03  0.00000000000E+00 0.  1.
          1   -1    0    0  501    0  0.00000000000E+00 -0.00000000000E+00 -0.65035574698E+02  0.65035574698E+02  0.00000000000E+00 0. -1.
         25    2    1    2    0    0  0.93991999331E+02  0.73369417093E+01  0.18701289216E+03  0.24394639005E+03  0.12509073800E+03 0.  0.
          5    1    3    3  502    0  0.11805861321E+03  0.19000790382E+02  0.11081661307E+03  0.16308482554E+03  0.41800000000E+01 0.  1.
         -5    1    3    3    0  502 -0.24066613877E+02 -0.11663848673E+02  0.76196279084E+02  0.80861564514E+02  0.41800000000E+01 0.  1.
        -11    1    1    2    0    0 -0.47351451810E+02  0.22054044996E+00 -0.13030744724E+02  0.49112207593E+02  0.00000000000E+00 0. -1.
         11    1    1    2    0    0 -0.46640547520E+02 -0.75574821592E+01  0.96026856404E+02  0.10702155559E+03  0.00000000000E+00 0.  1.
</event>
<event>
 7    1  0.2728221E-009  0.1152312E+03  0.7561462E-02  0.1251178E+00
          2   -1    0    0  501    0  0.00000000000E+00  0.00000000000E+00  0.42688895800E+03  0.42688895800E+03  0.00000000000E+00 0.  1.
         -2   -1    0    0    0  501 -0.00000000000E+00 -0.00000000000E+00 -0.41230059908E+02  0.41230059908E+02  0.00000000000E+00 0. -1.
         25    2    1    2    0    0  0.68877719147E+02  0.33267622077E+02  0.21837209085E+03  0.26302996099E+03  0.12509002935E+03 0.  0.
          5    1    3    3  502    0 -0.14922407385E+02  0.54368826824E+02  0.11564563907E+03  0.12872464336E+03  0.41800000000E+01 0. -1.
         -5    1    3    3    0  502  0.83800126532E+02 -0.21101204747E+02  0.10272645177E+03  0.13430531763E+03  0.41800000000E+01 0. -1.
        -11    1    1    2    0    0 -0.26481372540E+02  0.85837410176E+01  0.13397112017E+03  0.13683276195E+03  0.00000000000E+00 0.  1.
         11    1    1    2    0    0 -0.42396346607E+02 -0.41851363095E+02  0.33315687075E+02  0.68256294976E+02  0.00000000000E+00 0. -1.
</event>
<event>
 7    1  0.2728221E-009  0.1149831E+03  0.7561462E-02  0.1251611E+00
          3   -1    0    0  501    0  0.00000000000E+00  0.00000000000E+00  0.51236961475E+03  0.51236961475E+03  0.00000000000E+00 0. -1.
         -3   -1    0    0    0  501 -0.00000000000E+00 -0.00000000000E+00 -0.42031247215E+02  0.42031247215E+02  0.00000000000E+00 0.  1.
         25    2    1    2    0    0 -0.81501813935E+02  0.32037343528E+02  0.17060812021E+03  0.22896157727E+03  0.12508931261E+03 0.  0.
          5    1    3    3  502    0 -0.61365570038E+02 -0.41915435782E+01  0.17643603489E+03  0.18689689412E+03  0.41800000000E+01 0. -1.
         -5    1    3    3    0  502 -0.20136243897E+02  0.36228887107E+02 -0.58279146771E+01  0.42064683153E+02  0.41800000000E+01 0. -1.
        -11    1    1    2    0    0  0.22532415201E+02  0.32300307517E+02  0.86737489995E+02  0.95259706965E+02  0.00000000000E+00 0.  1.
         11    1    1    2    0    0  0.58969398734E+02 -0.64337651045E+02  0.21299275732E+03  0.23017957773E+03  0.00000000000E+00 0. -1.
</event>
<event>
 7    1  0.2728221E-009  0.1818335E+03  0.7561462E-02  0.1166040E+00
         -1   -1    0    0    0  501 -0.00000000000E+00  0.00000000000E+00  0.78770294542E+02  0.78770294542E+02  0.00000000000E+00 0.  1.
          1   -1    0    0  501    0  0.00000000000E+00 -0.00000000000E+00 -0.64041311492E+03  0.64041311492E+03  0.00000000000E+00 0. -1.
         25    2    1    2    0    0 -0.14813696495E+03 -0.69525176587E+02 -0.11640116306E+03  0.23658792994E+03  0.12508520004E+03 0.  0.
          5    1    3    3  502    0 -0.38796427070E+02  0.22883013813E+02 -0.74857714504E+02  0.87463963410E+02  0.41800000000E+01 0.  1.
         -5    1    3    3    0  502 -0.10934053788E+03 -0.92408190400E+02 -0.41543448554E+02  0.14912396653E+03  0.41800000000E+01 0.  1.
        -11    1    1    2    0    0  0.54771737690E+02  0.60189492033E+02 -0.12723327541E+03  0.15103319030E+03  0.00000000000E+00 0.  1.
         11    1    1    2    0    0  0.93365227260E+02  0.93356845540E+01 -0.31800838190E+03  0.33156228921E+03  0.00000000000E+00 0. -1.
</event>
<event>
 7    1  0.2728221E-009  0.1139124E+03  0.7561462E-02  0.1253492E+00
         -2   -1    0    0    0  501 -0.00000000000E+00  0.00000000000E+00  0.45122244436E+02  0.45122244436E+02  0.00000000000E+00 0.  1.
          2   -1    0    0  501    0  0.00000000000E+00 -0.00000000000E+00 -0.49844034877E+03  0.49844034877E+03  0.00000000000E+00 0. -1.
         25    2    1    2    0    0  0.54706634523E+01 -0.47381179376E+02 -0.81649182084E+02  0.15680712018E+03  0.12508788784E+03 0.  0.
          5    1    3    3  502    0 -0.49172412203E+02 -0.58589034344E+02 -0.36162876120E+02  0.84710253668E+02  0.41800000000E+01 0.  1.
         -5    1    3    3    0  502  0.54643075656E+02  0.11207854968E+02 -0.45486305964E+02  0.72096866509E+02  0.41800000000E+01 0.  1.
        -11    1    1    2    0    0 -0.44066916681E+02  0.25812230695E+02 -0.10874761017E+03  0.12014244511E+03  0.00000000000E+00 0.  1.
         11    1    1    2    0    0  0.38596253228E+02  0.21568948681E+02 -0.26292131208E+03  0.26661302792E+03  0.00000000000E+00 0. -1.
</event>
<event>
 7    1  0.2728221E-009  0.1017581E+03  0.7561462E-02  0.1276642E+00
         -2   -1    0    0    0  501 -0.00000000000E+00  0.00000000000E+00  0.30962591892E+02  0.30962591892E+02  0.00000000000E+00 0.  1.
          2   -1    0    0  501    0  0.00000000000E+00 -0.00000000000E+00 -0.15251897166E+04  0.15251897166E+04  0.00000000000E+00 0. -1.
         25    2    1    2    0    0  0.11944864834E+02 -0.84019164016E+02 -0.13757062330E+04  0.13839860083E+04  0.12509089423E+03 0.  0.
          5    1    3    3  502    0 -0.58730955821E+01 -0.46654749385E+02 -0.12624006812E+04  0.12632830685E+04  0.41800000000E+01 0.  1.
         -5    1    3    3    0  502  0.17817960416E+02 -0.37364414631E+02 -0.11330555176E+03  0.12070293971E+03  0.41800000000E+01 0.  1.
        -11    1    1    2    0    0 -0.26241547521E+02 -0.30939981752E+01 -0.27329281066E+01  0.26564271815E+02  0.00000000000E+00 0.  1.
         11    1    1    2    0    0  0.14296682687E+02  0.87113162191E+02 -0.11578796357E+03  0.14560202838E+03  0.00000000000E+00 0. -1.
</event>
<event>
 7    1  0.2728221E-009  0.1119968E+03  0.7561462E-02  0.1256916E+00
         -1   -1    0    0    0  501 -0.00000000000E+00  0.00000000000E+00  0.55515761479E+02  0.55515761479E+02  0.00000000000E+00 0.  1.
          1   -1    0    0  501    0  0.00000000000E+00 -0.00000000000E+00 -0.41663005060E+03  0.41663005060E+03  0.00000000000E+00 0. -1.
         25    2    1    2    0    0 -0.25635843884E+02  0.28726423124E+02 -0.39645862236E+02  0.13675516552E+03  0.12509107493E+03 0.  0.
          5    1    3    3  502    0 -0.59334926907E+01  0.77072363840E+02 -0.14918484821E+02  0.78837739648E+02  0.41800000000E+01 0. -1.
         -5    1    3    3    0  502 -0.19702351194E+02 -0.48345940716E+02 -0.24727377415E+02  0.57917425876E+02  0.41800000000E+01 0. -1.
        -11    1    1    2    0    0 -0.27982732356E+02 -0.29394299850E+02 -0.11059724673E+03  0.11780835776E+03  0.00000000000E+00 0.  1.
         11    1    1    2    0    0  0.53618576241E+02  0.66787672555E+00 -0.21087118015E+03  0.21758228879E+03  0.00000000000E+00 0. -1.
</event>
<event>
 7    1  0.2728221E-009  0.8940907E+02  0.7561462E-02  0.1304289E+00
          2   -1    0    0  501    0  0.00000000000E+00  0.00000000000E+00  0.32400473138E+02  0.32400473138E+02  0.00000000000E+00 0. -1.
         -2   -1    0    0    0  501 -0.00000000000E+00 -0.00000000000E+00 -0.49078963743E+03  0.49078963743E+03  0.00000000000E+00 0.  1.
         25    2    1    2    0    0  0.24394582908E+01 -0.56106273018E+02 -0.19763141466E+03  0.24053906891E+03  0.12508798016E+03 0.  0.
          5    1    3    3  502    0 -0.24702373776E+02 -0.36615315947E+02 -0.46134360336E+01  0.44605434916E+02  0.41800000000E+01 0.  1.
         -5    1    3    3    0  502  0.27141832066E+02 -0.19490957071E+02 -0.19301797863E+03  0.19593363399E+03  0.41800000000E+01 0.  1.
        -11    1    1    2    0    0  0.16029555059E+02 -0.18174765339E+02 -0.25166171490E+02  0.34937156695E+02  0.00000000000E+00 0.  1.
         11    1    1    2    0    0 -0.18469013350E+02  0.74281038356E+02 -0.23559157814E+03  0.24771388496E+03  0.00000000000E+00 0. -1.
</event>
<event>
 7    1  0.2728221E-009  0.1785843E+03  0.7561462E-02  0.1169180E+00
          2   -1    0    0  501    0  0.00000000000E+00  0.00000000000E+00  0.68284634173E+03  0.68284634173E+03  0.00000000000E+00 0. -1.
         -2   -1    0    0    0  501 -0.00000000000E+00 -0.00000000000E+00 -0.64208360801E+02  0.64208360801E+02  0.00000000000E+00 0.  1.
         25    2    1    2    0    0 -0.13875292820E+03 -0.11168734873E+03  0.32122987848E+03  0.38802542805E+03  0.12509460034E+03 0.  0.
          5    1    3    3  502    0 -0.12953905729E+02 -0.13584188597E+02 -0.90189401285E+01  0.21240233862E+02  0.41800000000E+01 0. -1.
         -5    1    3    3    0  502 -0.12579902247E+03 -0.98103160136E+02  0.33024881861E+03  0.36678519419E+03  0.41800000000E+01 0. -1.
        -11    1    1    2    0    0  0.45169524089E+02  0.41944509259E+02  0.32799970190E+02  0.69824535859E+02  0.00000000000E+00 0.  1.
         11    1    1    2    0    0  0.93583404113E+02  0.69742839474E+02  0.26460813226E+03  0.28920473862E+03  0.00000000000E+00 0. -1.
</event>
<event>
 7    1  0.2728221E-009  0.1980097E+03  0.7561462E-02  0.1151429E+00
         -2   -1    0    0    0  501 -0.00000000000E+00  0.00000000000E+00  0.44418153360E+03  0.44418153360E+03  0.00000000000E+00 0. -1.
          2   -1    0    0  501    0  0.00000000000E+00 -0.00000000000E+00 -0.94288135923E+02  0.94288135923E+02  0.00000000000E+00 0.  1.
         25    2    1    2    0    0 -0.17217334272E+03 -0.16480387120E+02  0.18011383375E+03  0.27929178235E+03  0.12509054112E+03 0.  0.
          5    1    3    3  502    0 -0.18731197137E+03 -0.33401004295E+02  0.16258379264E+03  0.25030454198E+03  0.41800000000E+01 0.  1.
         -5    1    3    3    0  502  0.15138628650E+02  0.16920617174E+02  0.17530041114E+02  0.28987240373E+02  0.41800000000E+01 0.  1.
        -11    1    1    2    0    0  0.11013447730E+03  0.38680658793E+02  0.60263599461E+02  0.13136779618E+03  0.00000000000E+00 0.  1.
         11    1    1    2    0    0  0.62038865424E+02 -0.22200271673E+02  0.10951596446E+03  0.12781009098E+03  0.00000000000E+00 0. -1.
</event>
<event>
 7    1  0.2728221E-009  0.9673042E+02  0.7561462E-02  0.1287326E+00
         -1   -1    0    0    0  501 -0.00000000000E+00  0.00000000000E+00  0.31442754096E+03  0.31442754096E+03  0.00000000000E+00 0.  1.
          1   -1    0    0  501    0  0.00000000000E+00 -0.00000000000E+00 -0.43896448771E+02  0.43896448771E+02  0.00000000000E+00 0. -1.
         25    2    1    2    0    0 -0.50781478777E+02  0.40993906849E+02  0.22982475290E+03  0.26968185270E+03  0.12509846381E+03 0.  0.
          5    1    3    3  502    0 -0.80201763197E+02  0.12171233588E+02  0.79112810762E+02  0.11338770204E+03  0.41800000000E+01 0.  1.
         -5    1    3    3    0  502  0.29420284420E+02  0.28822673261E+02  0.15071194214E+03  0.15629415066E+03  0.41800000000E+01 0.  1.
        -11    1    1    2    0    0  0.43168005576E+02 -0.18278973611E+02  0.44202088675E+02  0.64431531294E+02  0.00000000000E+00 0.  1.
         11    1    1    2    0    0  0.76134732018E+01 -0.22714933238E+02 -0.34957493851E+01  0.24210605733E+02  0.00000000000E+00 0. -1.
</event>
<event>
 7    1  0.2728221E-009  0.1065644E+03  0.7561462E-02  0.1267068E+00
          1   -1    0    0  501    0  0.00000000000E+00  0.00000000000E+00  0.55739404079E+02  0.55739404079E+02  0.00000000000E+00 0. -1.
         -1   -1    0    0    0  501 -0.00000000000E+00 -0.00000000000E+00 -0.30129632291E+03  0.30129632291E+03  0.00000000000E+00 0.  1.
         25    2    1    2    0    0 -0.52705461523E+02 -0.31329919153E+02 -0.18314478415E+03  0.23010601276E+03  0.12508931064E+03 0.  0.
          5    1    3    3  502    0 -0.16153631461E+02  0.47700124703E+02 -0.84540674403E+02  0.98492841032E+02  0.41800000000E+01 0.  1.
         -5    1    3    3    0  502 -0.36551830062E+02 -0.79030043856E+02 -0.98604109749E+02  0.13161317173E+03  0.41800000000E+01 0.  1.
        -11    1    1    2    0    0  0.29161871527E+02 -0.74093526511E+01  0.17679952568E+02  0.34898337790E+02  0.00000000000E+00 0. -1.
         11    1    1    2    0    0  0.23543589996E+02  0.38739271804E+02 -0.80092087249E+02  0.92031376441E+02  0.00000000000E+00 0.  1.
</event>
<event>
 7    1  0.3296294E-009  0.7704938E+02  0.7561462E-02  0.1337640E+00
         -1   -1    0    0    0  501 -0.00000000000E+00  0.00000000000E+00  0.30314076029E+02  0.30314076029E+02  0.00000000000E+00 0.  1.
          1   -1    0    0  501    0  0.00000000000E+00 -0.00000000000E+00 -0.52558253925E+03  0.52558253925E+03  0.00000000000E+00 0. -1.
         25    2    1    2    0    0  0.29356639290E+02  0.28702349664E+02 -0.38489085952E+03  0.40678560762E+03  0.12509164513E+03 0.  0.
          5    1    3    3  502    0 -0.40365547142E+01  0.49366287792E+02 -0.53414612715E+02  0.72965179338E+02  0.41800000000E+01 0.  1.
         -5    1    3    3    0  502  0.33393194004E+02 -0.20663938128E+02 -0.33147624680E+03  0.33382042828E+03  0.41800000000E+01 0.  1.
        -11    1    1    2    0    0 -0.36513258780E+02 -0.12546215205E+01 -0.11473632315E+03  0.12041269032E+03  0.00000000000E+00 0. -1.
         11    1    1    2    0    0  0.71566194906E+01 -0.27447728143E+02  0.43587194403E+01  0.28698317336E+02  0.00000000000E+00 0.  1.
</event>
<event>
 7    1  0.2728221E-009  0.1093741E+03  0.7561462E-02  0.1261733E+00
          2   -1    0    0  501    0  0.00000000000E+00  0.00000000000E+00  0.27123081451E+03  0.27123081451E+03  0.00000000000E+00 0. -1.
         -2   -1    0    0    0  501 -0.00000000000E+00 -0.00000000000E+00 -0.87300017274E+02  0.87300017274E+02  0.00000000000E+00 0.  1.
         25    2    1    2    0    0  0.86609799407E+02  0.45975327288E+02  0.44379085314E+02  0.16499045946E+03  0.12504943194E+03 0.  0.
          5    1    3    3  502    0 -0.13652138003E+01 -0.60770978580E+01 -0.34815132686E+02  0.35614053280E+02  0.41800000000E+01 0. -1.
         -5    1    3    3    0  502  0.87975013207E+02  0.52052425146E+02  0.79194218000E+02  0.12937640618E+03  0.41800000000E+01 0. -1.
        -11    1    1    2    0    0 -0.35526230409E+02 -0.45664538704E+02  0.16280452874E+02  0.60103380004E+02  0.00000000000E+00 0.  1.
         11    1    1    2    0    0 -0.51083568998E+02 -0.31078858347E+00  0.12327125905E+03  0.13343699232E+03  0.00000000000E+00 0. -1.
</event>
<event>
 7    1  0.2728221E-009  0.8668931E+02  0.7561462E-02  0.1311073E+00
          1   -1    0    0  501    0  0.00000000000E+00  0.00000000000E+00  0.14198552600E+03  0.14198552600E+03  0.00000000000E+00 0. -1.
         -1   -1    0    0    0  501 -0.00000000000E+00 -0.00000000000E+00 -0.99932218613E+02  0.99932218613E+02  0.00000000000E+00 0.  1.
         25    2    1    2    0    0  0.20280528127E+02  0.51802009605E+01 -0.22661479564E+02  0.12885565431E+03  0.12510836378E+03 0.  0.
          5    1    3    3  502    0  0.45489888776E+02 -0.15206335280E+02  0.37070383490E+02  0.60763873689E+02  0.41800000000E+01 0. -1.
         -5    1    3    3    0  502 -0.25209360650E+02  0.20386536241E+02 -0.59731863054E+02  0.68091780621E+02  0.41800000000E+01 0. -1.
        -11    1    1    2    0    0 -0.35237063245E+02 -0.40800458735E+02  0.34343460263E+02  0.63920273168E+02  0.00000000000E+00 0. -1.
         11    1    1    2    0    0  0.14956535118E+02  0.35620257775E+02  0.30371326692E+02  0.49141817139E+02  0.00000000000E+00 0.  1.
</event>
<event>
 7    1  0.3996815E-009  0.8144502E+02  0.7561462E-02  0.1325000E+00
          2   -1    0    0  501    0  0.00000000000E+00  0.00000000000E+00  0.16388229099E+04  0.16388229099E+04  0.00000000000E+00 0. -1.
         -2   -1    0    0    0  501 -0.00000000000E+00 -0.00000000000E+00 -0.10400729859E+02  0.10400729859E+02  0.00000000000E+00 0.  1.
         25    2    1    2    0    0 -0.32452710403E+02 -0.44595468518E+02  0.12011737149E+04  0.12089282905E+04  0.12508950385E+03 0.  0.
          5    1    3    3  502    0 -0.20596386733E+02 -0.13897848953E+02  0.11312966100E+04  0.11315771531E+04  0.41800000000E+01 0.  1.
         -5    1    3    3    0  502 -0.11856323670E+02 -0.30697619566E+02  0.69877104868E+02  0.77351137307E+02  0.41800000000E+01 0.  1.
        -11    1    1    2    0    0  0.44511970956E+02  0.66203865004E+02  0.35733009037E+03  0.36612711014E+03  0.00000000000E+00 0. -1.
         11    1    1    2    0    0 -0.12059260553E+02 -0.21608396486E+02  0.69918374865E+02  0.74168239210E+02  0.00000000000E+00 0.  1.
</event>
<event>
 7    1  0.2728221E-009  0.1472926E+03  0.7561462E-02  0.1203840E+00
          3   -1    0    0  501    0  0.00000000000E+00  0.00000000000E+00  0.91940894385E+03  0.91940894385E+03  0.00000000000E+00 0. -1.
         -3   -1    0    0    0  501 -0.00000000000E+00 -0.00000000000E+00 -0.30760334780E+02  0.30760334780E+02  0.00000000000E+00 0.  1.
         25    2    1    2    0    0 -0.10016361964E+03  0.64289124737E+02  0.62286282860E+03  0.64635213701E+03  0.12508852668E+03 0.  0.
          5    1    3    3  502    0 -0.24419726603E+02  0.82270526470E+02  0.22340220115E+03  0.23935492151E+03  0.41800000000E+01 0.  1.
         -5    1    3    3    0  502 -0.75743893037E+02 -0.17981401732E+02  0.39946062746E+03  0.40699721550E+03  0.41800000000E+01 0.  1.
        -11    1    1    2    0    0  0.28140223737E+02  0.73863385939E+01  0.13552379322E+03  0.13861143069E+03  0.00000000000E+00 0. -1.
         11    1    1    2    0    0  0.72023395904E+02 -0.71675463331E+02  0.13026198725E+03  0.16520571093E+03  0.00000000000E+00 0.  1.
</event>
<event>
 7    1  0.2728221E-009  0.1475427E+03  0.7561462E-02  0.1203525E+00
         -1   -1    0    0    0  501 -0.00000000000E+00  0.00000000000E+00  0.10538962344E+03  0.10538962344E+03  0.00000000000E+00 0.  1.
          1   -1    0    0  501    0  0.00000000000E+00 -0.00000000000E+00 -0.30897113218E+03  0.30897113218E+03  0.00000000000E+00 0. -1.
         25    2    1    2    0    0 -0.11149674591E+03 -0.90873032681E+02 -0.10607662058E+03  0.21813542386E+03  0.12506550800E+03 0.  0.
          5    1    3    3  502    0 -0.45448368862E+02 -0.20150211151E+02 -0.11043228814E+03  0.12117899119E+03  0.41800000000E+01 0.  1.
         -5    1    3    3    0  502 -0.66048377048E+02 -0.70722821530E+02  0.43556675601E+01  0.96956432668E+02  0.41800000000E+01 0.  1.
        -11    1    1    2    0    0  0.93540542193E+02  0.90824939922E+02 -0.40601107643E+02  0.13655567614E+03  0.00000000000E+00 0.  1.
         11    1    1    2    0    0  0.17956203717E+02  0.48092759107E-01 -0.56903780510E+02  0.59669655615E+02  0.00000000000E+00 0. -1.
</event>
<event>
 7    1  0.2728221E-009  0.1238728E+03  0.7561462E-02  0.1236842E+00
         -1   -1    0    0    0  501 -0.00000000000E+00  0.00000000000E+00  0.15959844261E+03  0.15959844261E+03  0.00000000000E+00 0.  1.
          1   -1    0    0  501    0  0.00000000000E+00 -0.00000000000E+00 -0.22550649939E+03  0.22550649939E+03  0.00000000000E+00 0. -1.
         25    2    1    2    0    0 -0.86743295012E+02  0.53967113580E+02  0.84232451359E+02  0.18215252787E+03  0.12509032325E+03 0.  0.
          5    1    3    3  502    0 -0.55185781637E+02 -0.16328994154E+02  0.87616314045E+02  0.10491042575E+03  0.41800000000E+01 0. -1.
         -5    1    3    3    0  502 -0.31557513375E+02  0.70296107734E+02 -0.33838626861E+01  0.77242102119E+02  0.41800000000E+01 0. -1.
        -11    1    1    2    0    0  0.70663086312E+01  0.89132777716E+01  0.87902430953E+01  0.14375243023E+02  0.00000000000E+00 0.  1.
         11    1    1    2    0    0  0.79676986381E+02 -0.62880391352E+02 -0.15893075123E+03  0.18857717111E+03  0.00000000000E+00 0. -1.
</event>
<event>
 7    1  0.2728221E-009  0.1182110E+03  0.7561462E-02  0.1246078E+00
          1   -1    0    0  501    0  0.00000000000E+00  0.00000000000E+00  0.24542011102E+03  0.24542011102E+03  0.00000000000E+00 0. -1.
         -1   -1    0    0    0  501 -0.00000000000E+00 -0.00000000000E+00 -0.59197345460E+02  0.59197345460E+02  0.00000000000E+00 0.  1.
         25    2    1    2    0    0 -0.50514448524E+02  0.14477426783E+02  0.10699631895E+03  0.17279187508E+03  0.12509002529E+03 0.  0.
          5    1    3    3  502    0 -0.87489872689E+02 -0.13299823729E+02  0.62011516343E+02  0.10814001893E+03  0.41800000000E+01 0. -1.
         -5    1    3    3    0  502  0.36975424165E+02  0.27777250513E+02  0.44984802608E+02  0.64651856152E+02  0.41800000000E+01 0. -1.
        -11    1    1    2    0    0  0.10349527686E+02  0.35671494770E+02  0.47122457249E+02  0.60000785325E+02  0.00000000000E+00 0. -1.
         11    1    1    2    0    0  0.40164920838E+02 -0.50148921553E+02  0.32103989364E+02  0.71824796080E+02  0.00000000000E+00 0.  1.
</event>
<event>
 7    1  0.2728221E-009  0.1632582E+03  0.7561462E-02  0.1185067E+00
         -1   -1    0    0    0  501 -0.00000000000E+00  0.00000000000E+00  0.17841529367E+03  0.17841529367E+03  0.00000000000E+00 0. -1.
          1   -1    0    0  501    0  0.00000000000E+00 -0.00000000000E+00 -0.20635621211E+03  0.20635621211E+03  0.00000000000E+00 0.  1.
         25    2    1    2    0    0  0.11578476519E+03 -0.76168819913E+02 -0.89290531570E+02  0.20694955891E+03  0.12509004727E+03 0.  0.
          5    1    3    3  502    0  0.28472031264E+02  0.15763606112E+02 -0.71736443033E+02  0.78884329882E+02  0.41800000000E+01 0. -1.
         -5    1    3    3    0  502  0.87312733927E+02 -0.91932426025E+02 -0.17554088537E+02  0.12806522902E+03  0.41800000000E+01 0. -1.
        -11    1    1    2    0    0 -0.67520176361E+02  0.93704323554E+02  0.40338590594E+02  0.12233836831E+03  0.00000000000E+00 0. -1.
         11    1    1    2    0    0 -0.48264588830E+02 -0.17535503641E+02  0.21011022529E+02  0.55483578567E+02  0.00000000000E+00 0.  1.
</event>
<event>
 7    1  0.2728221E-009  0.1097239E+03  0.7561462E-02  0.1261082E+00
         -1   -1    0    0    0  501 -0.00000000000E+00  0.00000000000E+00  0.78012715480E+02  0.78012715480E+02  0.00000000000E+00 0.  1.
          1   -1    0    0  501    0  0.00000000000E+00 -0.00000000000E+00 -0.18109485001E+03  0.18109485001E+03  0.00000000000E+00 0. -1.
         25    2    1    2    0    0 -0.25983983889E+02 -0.30068298373E+02 -0.27280047074E+02  0.13405634606E+03  0.12509049910E+03 0.  0.
          5    1    3    3  502    0  0.33909702294E+01 -0.70020177070E+02 -0.42414420549E+02  0.82041327064E+02  0.41800000000E+01 0. -1.
         -5    1    3    3    0  502 -0.29374954119E+02  0.39951878697E+02  0.15134373475E+02  0.52015018998E+02  0.41800000000E+01 0. -1.
        -11    1    1    2    0    0  0.25816388392E+02  0.62189374323E+02 -0.51025885349E+02  0.84484585363E+02  0.00000000000E+00 0. -1.
         11    1    1    2    0    0  0.16759549727E+00 -0.32121075950E+02 -0.24776202107E+02  0.40566634064E+02  0.00000000000E+00 0.  1.
</event>
<event>
 7    1  0.2728221E-009  0.6986260E+02  0.7561462E-02  0.1360561E+00
         -1   -1    0    0    0  501 -0.00000000000E+00  0.00000000000E+00  0.37217758854E+02  0.37217758854E+02  0.00000000000E+00 0.  1.
          1   -1    0    0  501    0  0.00000000000E+00 -0.00000000000E+00 -0.69173970660E+03  0.69173970660E+03  0.00000000000E+00 0. -1.
         25    2    1    2    0    0 -0.45256061322E+02  0.30384744856E+02 -0.58837046589E+03  0.60398793858E+03  0.12510108315E+03 0.  0.
          5    1    3    3  502    0 -0.15575731727E+02  0.43086064188E+02 -0.65150882196E+02  0.79756643591E+02  0.41800000000E+01 0.  1.
         -5    1    3    3    0  502 -0.29680329595E+02 -0.12701319332E+02 -0.52321958370E+03  0.52423129499E+03  0.41800000000E+01 0.  1.
        -11    1    1    2    0    0  0.22475021344E+02  0.86852946672E+00  0.20276943597E+02  0.30282591855E+02  0.00000000000E+00 0.  1.
         11    1    1    2    0    0  0.22781039978E+02 -0.31253274323E+02 -0.86428425453E+02  0.94686935026E+02  0.00000000000E+00 0. -1.
</event>
<event>
 7    1  0.2728221E-009  0.7330131E+02  0.7561462E-02  0.1349213E+00
          2   -1    0    0  501    0  0.00000000000E+00  0.00000000000E+00  0.40955900904E+02  0.40955900904E+02  0.00000000000E+00 0.  1.
         -2   -1    0    0    0  501 -0.00000000000E+00 -0.00000000000E+00 -0.30516377560E+03  0.30516377560E+03  0.00000000000E+00 0. -1.
         25    2    1    2    0    0 -0.12329377900E+02 -0.52689175723E+01 -0.12079119633E+03  0.17440796928E+03  0.12509137295E+03 0.  0.
          5    1    3    3  502    0  0.80411362713E+01 -0.25112666630E+02 -0.13823210743E+03  0.14078669619E+03  0.41800000000E+01 0.  1.
         -5    1    3    3    0  502 -0.20370514171E+02  0.19843749058E+02  0.17440911105E+02  0.33621273093E+02  0.41800000000E+01 0.  1.
        -11    1    1    2    0    0  0.27917773119E+02 -0.36860770901E+02 -0.95059977437E+02  0.10570959180E+03  0.00000000000E+00 0.  1.
         11    1    1    2    0    0 -0.15588395220E+02  0.42129688473E+02 -0.48356700935E+02  0.66002115434E+02  0.00000000000E+00 0. -1.
</event>
<event>
 7    1  0.2728221E-009  0.6803718E+02  0.7561462E-02  0.1366898E+00
          2   -1    0    0  501    0  0.00000000000E+00  0.00000000000E+00  0.49900862672E+03  0.49900862672E+03  0.00000000000E+00 0.  1.
         -2   -1    0    0    0  501 -0.00000000000E+00 -0.00000000000E+00 -0.29174046245E+02  0.29174046245E+02  0.00000000000E+00 0. -1.
         25    2    1    2    0    0  0.45610330828E+02  0.16548726272E+02  0.21027067105E+03  0.24943183986E+03  0.12509326525E+03 0.  0.
          5    1    3    3  502    0  0.27055827541E+02  0.12800277757E+02  0.22377494063E+03  0.22580646884E+03  0.41800000000E+01 0. -1.
         -5    1    3    3    0  502  0.18554503287E+02  0.37484485146E+01 -0.13504269588E+02  0.23625371015E+02  0.41800000000E+01 0. -1.
        -11    1    1    2    0    0 -0.40815318076E+02  0.22851257620E+02  0.21054100412E+03  0.21567471938E+03  0.00000000000E+00 0.  1.
         11    1    1    2    0    0 -0.47950127521E+01 -0.39399983892E+02  0.49022905303E+02  0.63076113723E+02  0.00000000000E+00 0. -1.
</event>
<event>
 7    1  0.2728221E-009  0.1312226E+03  0.7561462E-02  0.1225653E+00
         -2   -1    0    0    0  501 -0.00000000000E+00  0.00000000000E+00  0.11141874079E+03  0.11141874079E+03  0.00000000000E+00 0.  1.
          2   -1    0    0  501    0  0.00000000000E+00 -0.00000000000E+00 -0.22004063267E+03  0.22004063267E+03  0.00000000000E+00 0. -1.
         25    2    1    2    0    0  0.60335487983E+02 -0.93980132790E+02 -0.69000480475E+02  0.18132789041E+03  0.12508437579E+03 0.  0.
          5    1    3    3  502    0  0.63414388903E+01 -0.50453003852E+02  0.30894502004E+02  0.59646140688E+02  0.41800000000E+01 0.  1.
         -5    1    3    3    0  502  0.53994049093E+02 -0.43527128938E+02 -0.99894982479E+02  0.12168174972E+03  0.41800000000E+01 0.  1.
        -11    1    1    2    0    0  0.13440451099E+02  0.58602904793E+02 -0.31591524557E+02  0.67918853051E+02  0.00000000000E+00 0.  1.
         11    1    1    2    0    0 -0.73775939082E+02  0.35377227997E+02 -0.80298868569E+01  0.82212629998E+02  0.00000000000E+00 0. -1.
</event>
<event>
 7    1  0.2902146E-009  0.1219537E+03  0.7561462E-02  0.1239908E+00
         -1   -1    0    0    0  501 -0.00000000000E+00  0.00000000000E+00  0.55823868418E+02  0.55823868418E+02  0.00000000000E+00 0.  1.
          1   -1    0    0  501    0  0.00000000000E+00 -0.00000000000E+00 -0.51267099424E+03  0.51267099424E+03  0.00000000000E+00 0. -1.
         25    2    1    2    0    0  0.71565733137E+02 -0.41619322531E+02 -0.75841791204E+02  0.16808649326E+03  0.12508904731E+03 0.  0.
          5    1    3    3  502    0  0.78115505205E+02 -0.61544967391E+02 -0.11397174566E+02  0.10018574326E+03  0.41800000000E+01 0. -1.
         -5    1    3    3    0  502 -0.65497720679E+01  0.19925644859E+02 -0.64444616638E+02  0.67900750002E+02  0.41800000000E+01 0. -1.
        -11    1    1    2    0    0 -0.15815760456E+02  0.61726078664E+02 -0.20719924955E+03  0.21677586600E+03  0.00000000000E+00 0. -1.
         11    1    1    2    0    0 -0.55749972682E+02 -0.20106756133E+02 -0.17380608507E+03  0.18363250340E+03  0.00000000000E+00 0.  1.
</event>
<event>
 7    1  0.2728221E-009  0.1609132E+03  0.7561462E-02  0.1187670E+00
         -2   -1    0    0    0  501 -0.00000000000E+00  0.00000000000E+00  0.61990313390E+03  0.61990313390E+03  0.00000000000E+00 0. -1.
          2   -1    0    0  501    0  0.00000000000E+00 -0.00000000000E+00 -0.55300239476E+02  0.55300239476E+02  0.00000000000E+00 0.  1.
         25    2    1    2    0    0 -0.11366849733E+03  0.86630636069E+02  0.37942045868E+03  0.42430240384E+03  0.12508897253E+03 0.  0.
          5    1    3    3  502    0 -0.68649902294E+02  0.15418468308E+02  0.30095169496E+03  0.30909534670E+03  0.41800000000E+01 0.  1.
         -5    1    3    3    0  502 -0.45018595039E+02  0.71212167760E+02  0.78468763719E+02  0.11520705715E+03  0.41800000000E+01 0.  1.
        -11    1    1    2    0    0  0.82272295286E+01  0.17163534414E+02  0.36389664046E+02  0.41066797643E+02  0.00000000000E+00 0.  1.
         11    1    1    2    0    0  0.10544126780E+03 -0.10379417048E+03  0.14879277169E+03  0.20983417188E+03  0.00000000000E+00 0. -1.
</event>
<event>
 7    1  0.2728221E-009  0.1152847E+03  0.7561462E-02  0.1251085E+00
          4   -1    0    0  501    0  0.00000000000E+00  0.00000000000E+00  0.34947707885E+03  0.34947707885E+03  0.00000000000E+00 0. -1.
         -4   -1    0    0    0  501 -0.00000000000E+00 -0.00000000000E+00 -0.63822608328E+02  0.63822608328E+02  0.00000000000E+00 0.  1.
         25    2    1    2    0    0 -0.40272359308E+02  0.79096520380E+02  0.22457434977E+03  0.27195390782E+03  0.12508863634E+03 0.  0.
          5    1    3    3  502    0  0.14189643566E+02  0.43777621871E+02  0.93905107023E+01  0.47153793617E+02  0.41800000000E+01 0. -1.
         -5    1    3    3    0  502 -0.54462002874E+02  0.35318898509E+02  0.21518383907E+03  0.22480011420E+03  0.41800000000E+01 0. -1.
        -11    1    1    2    0    0  0.62020828800E+02 -0.37776714494E+02  0.12004434276E+02  0.73605501189E+02  0.00000000000E+00 0.  1.
         11    1    1    2    0    0 -0.21748469492E+02 -0.41319805886E+02  0.49075686478E+02  0.67740278173E+02  0.00000000000E+00 0. -1.
</event>
<event>
 7    1  0.2926031E-009  0.1002763E+03  0.7561462E-02  0.1279716E+00
         -1   -1    0    0    0  501 -0.00000000000E+00  0.00000000000E+00  0.39347440450E+03  0.39347440450E+03  0.00000000000E+00 0.  1.
          1   -1    0    0  501    0  0.00000000000E+00 -0.00000000000E+00 -0.37098322828E+02  0.37098322828E+02  0.00000000000E+00 0. -1.
         25    2    1    2    0    0  0.37414906559E+02 -0.62541806500E+01  0.26568499409E+03  0.29610011037E+03  0.12509104391E+03 0.  0.
          5    1    3    3  502    0 -0.39084954589E+02  0.23029160371E+01  0.34330200840E+02  0.52239565343E+02  0.41800000000E+01 0.  1.
         -5    1    3    3    0  502  0.76499861148E+02 -0.85570966871E+01  0.23135479325E+03  0.24386054503E+03  0.41800000000E+01 0.  1.
        -11    1    1    2    0    0 -0.50906181298E+02  0.28297754815E+02  0.91672451872E+02  0.10860957902E+03  0.00000000000E+00 0.  1.
         11    1    1    2    0    0  0.13491274739E+02 -0.22043574165E+02 -0.98136428848E+00  0.25863037948E+02  0.00000000000E+00 0. -1.
</event>
<event>
 7    1  0.2728221E-009  0.1675592E+03  0.7561462E-02  0.1180417E+00
          2   -1    0    0  501    0  0.00000000000E+00  0.00000000000E+00  0.16508308897E+04  0.16508308897E+04  0.00000000000E+00 0. -1.
         -2   -1    0    0    0  501 -0.00000000000E+00 -0.00000000000E+00 -0.21091344297E+02  0.21091344297E+02  0.00000000000E+00 0.  1.
         25    2    1    2    0    0  0.12715210750E+03 -0.95795199854E+01  0.12221525849E+04  0.12351378635E+04  0.12509666420E+03 0.  0.
          5    1    3    3  502    0 -0.22489966751E+02 -0.17178007533E+02  0.21374421757E+03  0.21565005331E+03  0.41800000000E+01 0. -1.
         -5    1    3    3    0  502  0.14964207425E+03  0.75984875480E+01  0.10084083673E+04  0.10194878102E+04  0.41800000000E+01 0. -1.
        -11    1    1    2    0    0 -0.12719337458E+03  0.34427524918E+02  0.35357069468E+03  0.37732697378E+03  0.00000000000E+00 0. -1.
         11    1    1    2    0    0  0.41267071979E-01 -0.24848004933E+02  0.54016265826E+02  0.59457396730E+02  0.00000000000E+00 0.  1.
</event>
<event>
 7    1  0.2728221E-009  0.1016118E+03  0.7561462E-02  0.1276943E+00
         -4   -1    0    0    0  501 -0.00000000000E+00  0.00000000000E+00  0.26393152095E+03  0.26393152095E+03  0.00000000000E+00 0.  1.
          4   -1    0    0  501    0  0.00000000000E+00 -0.00000000000E+00 -0.56623975129E+02  0.56623975129E+02  0.00000000000E+00 0. -1.
         25    2    1    2    0    0  0.13284816142E+02 -0.55340971896E+02  0.11193636943E+03  0.17724472119E+03  0.12508729303E+03 0.  0.
          5    1    3    3  502    0  0.62973322675E+02 -0.17826552129E+02  0.89453316193E+02  0.11091795845E+03  0.41800000000E+01 0. -1.
         -5    1    3    3    0  502 -0.49688506533E+02 -0.37514419767E+02  0.22483053234E+02  0.66326762733E+02  0.41800000000E+01 0. -1.
        -11    1    1    2    0    0 -0.53449975889E+01 -0.89707391986E+01 -0.13225003383E+02  0.16850634275E+02  0.00000000000E+00 0. -1.
         11    1    1    2    0    0 -0.79398185530E+01  0.64311711094E+02  0.10859617978E+03  0.12646014062E+03  0.00000000000E+00 0.  1.
</event>
<event>
 7    1  0.2728221E-009  0.1137259E+03  0.7561462E-02  0.1253822E+00
         -2   -1    0    0    0  501 -0.00000000000E+00  0.00000000000E+00  0.31539576596E+02  0.31539576596E+02  0.00000000000E+00 0.  1.
          2   -1    0    0  501    0  0.00000000000E+00 -0.00000000000E+00 -0.61651754506E+03  0.61651754506E+03  0.00000000000E+00 0. -1.
         25    2    1    2    0    0  0.58227796855E+02 -0.50125120599E+02 -0.22190490227E+03  0.26606790244E+03  0.12508932415E+03 0.  0.
          5    1    3    3  502    0  0.29992083398E+02 -0.85346504247E+02 -0.19046456332E+03  0.21089754179E+03  0.41800000000E+01 0. -1.
         -5    1    3    3    0  502  0.28235713457E+02  0.35221383648E+02 -0.31440338946E+02  0.55170360643E+02  0.41800000000E+01 0. -1.
        -11    1    1    2    0    0 -0.20864775251E+02 -0.80943987317E+01 -0.14611541639E+02  0.26727425730E+02  0.00000000000E+00 0. -1.
         11    1    1    2    0    0 -0.37363021603E+02  0.58219519331E+02 -0.34846152456E+03  0.35526179349E+03  0.00000000000E+00 0.  1.
</event>
<event>
 7    1  0.2728221E-009  0.1537574E+03  0.7561462E-02  0.1195930E+00
         -1   -1    0    0    0  501 -0.00000000000E+00  0.00000000000E+00  0.24659348506E+03  0.24659348506E+03  0.00000000000E+00 0.  1.
          1   -1    0    0  501    0  0.00000000000E+00 -0.00000000000E+00 -0.10387278839E+03  0.10387278839E+03  0.00000000000E+00 0. -1.
         25    2    1    2    0    0  0.10221645433E+03  0.45005470315E+02  0.11804375883E+03  0.20507440812E+03  0.12508991955E+03 0.  0.
          5    1    3    3  502    0  0.99942761739E+02  0.82280332362E+02  0.84058285749E+02  0.15440814914E+03  0.41800000000E+01 0. -1.
         -5    1    3    3    0  502  0.22736925864E+01 -0.37274862046E+02  0.33985473080E+02  0.50666258980E+02  0.41800000000E+01 0. -1.
        -11    1    1    2    0    0  0.64156567312E+01  0.14998150289E+02 -0.62916515963E+01  0.17483993914E+02  0.00000000000E+00 0.  1.
         11    1    1    2    0    0 -0.10863211106E+03 -0.60003620604E+02  0.30968589432E+02  0.12790787141E+03  0.00000000000E+00 0. -1.
</event>
<event>
 7    1  0.2728221E-009  0.1079953E+03  0.7561462E-02  0.1264328E+00
         -2   -1    0    0    0  501 -0.00000000000E+00  0.00000000000E+00  0.13956867503E+02  0.13956867503E+02  0.00000000000E+00 0.  1.
          2   -1    0    0  501    0  0.00000000000E+00 -0.00000000000E+00 -0.11118114172E+04  0.11118114172E+04  0.00000000000E+00 0. -1.
         25    2    1    2    0    0  0.57952127341E+02  0.10128528333E+02 -0.67927975276E+03  0.69320286669E+03  0.12509274847E+03 0.  0.
          5    1    3    3  502    0  0.47202534299E+02  0.48864174580E+02 -0.60343189540E+03  0.60725885056E+03  0.41800000000E+01 0. -1.
         -5    1    3    3    0  502  0.10749593042E+02 -0.38735646247E+02 -0.75847857364E+02  0.85944016123E+02  0.41800000000E+01 0. -1.
        -11    1    1    2    0    0 -0.44611135360E+02  0.37354160847E+02 -0.26301307622E+03  0.26937216818E+03  0.00000000000E+00 0. -1.
         11    1    1    2    0    0 -0.13340991980E+02 -0.47482689180E+02 -0.15556172073E+03  0.16319324985E+03  0.00000000000E+00 0.  1.
</event>
<event>
 7    1  0.2728221E-009  0.2131572E+03  0.7561462E-02  0.1139090E+00
          1   -1    0    0  501    0  0.00000000000E+00  0.00000000000E+00  0.97537457705E+03  0.97537457705E+03  0.00000000000E+00 0. -1.
         -1   -1    0    0    0  501 -0.00000000000E+00 -0.00000000000E+00 -0.53183685954E+02  0.53183685954E+02  0.00000000000E+00 0.  1.
         25    2    1    2    0    0 -0.13772311277E+03  0.14471790974E+03  0.46405843399E+03  0.52049010468E+03  0.12509512269E+03 0.  0.
          5    1    3    3  502    0 -0.76867070035E+02  0.95825442082E+01  0.94262972530E+02  0.12207928571E+03  0.41800000000E+01 0. -1.
         -5    1    3    3    0  502 -0.60856042730E+02  0.13513536553E+03  0.36979546146E+03  0.39841081897E+03  0.41800000000E+01 0. -1.
        -11    1    1    2    0    0  0.80916913455E+02 -0.72954868094E+02  0.14216206308E+03  0.17910893848E+03  0.00000000000E+00 0.  1.
         11    1    1    2    0    0  0.56806199311E+02 -0.71763041646E+02  0.31597039402E+03  0.32895921985E+03  0.00000000000E+00 0. -1.
</event>
<event>
 7    1  0.2728221E-009  0.1078358E+03  0.7561462E-02  0.1264631E+00
          1   -1    0    0  501    0  0.00000000000E+00  0.00000000000E+00  0.26371220227E+03  0.26371220227E+03  0.00000000000E+00 0. -1.
         -1   -1    0    0    0  501 -0.00000000000E+00 -0.00000000000E+00 -0.64545147323E+02  0.64545147323E+02  0.00000000000E+00 0.  1.
         25    2    1    2    0    0 -0.14486869261E+02 -0.44054207004E+02  0.41548431856E+02  0.13972430917E+03  0.12508384328E+03 0.  0.
          5    1    3    3  502    0 -0.38722343014E+02 -0.80491324533E+02  0.29119911749E+02  0.94041027397E+02  0.41800000000E+01 0. -1.
         -5    1    3    3    0  502  0.24235473754E+02  0.36437117529E+02  0.12428520108E+02  0.45683281777E+02  0.41800000000E+01 0. -1.
        -11    1    1    2    0    0  0.10609686402E+02  0.62525166956E+02  0.54253543041E+02  0.83459025162E+02  0.00000000000E+00 0.  1.
         11    1    1    2    0    0  0.38771828588E+01 -0.18470959952E+02  0.10336508005E+03  0.10507401526E+03  0.00000000000E+00 0. -1.
</event>
<event>
 7    1  0.2728221E-009  0.1233403E+03  0.7561462E-02  0.1237686E+00
          2   -1    0    0  501    0  0.00000000000E+00  0.00000000000E+00  0.58545214700E+03  0.58545214700E+03  0.00000000000E+00 0.  1.
         -2   -1    0    0    0  501 -0.00000000000E+00 -0.00000000000E+00 -0.32205735596E+02  0.32205735596E+02  0.00000000000E+00 0. -1.
         25    2    1    2    0    0 -0.34246930863E+02 -0.80154549727E+02  0.40310701227E+03  0.43097658371E+03  0.12509175934E+03 0.  0.
          5    1    3    3  502    0 -0.12797101014E+02  0.26048091310E+02  0.18603054508E+03  0.18832712220E+03  0.41800000000E+01 0.  1.
         -5    1    3    3    0  502 -0.21449829849E+02 -0.10620264104E+03  0.21707646719E+03  0.24264946151E+03  0.41800000000E+01 0.  1.
        -11    1    1    2    0    0 -0.16999891927E+02  0.41170153652E+02  0.44479851515E+02  0.62947875803E+02  0.00000000000E+00 0. -1.
         11    1    1    2    0    0  0.51246822791E+02  0.38984396075E+02  0.10565954762E+03  0.12373342308E+03  0.00000000000E+00 0.  1.
</event>
<event>
 7    1  0.2728221E-009  0.1039309E+03  0.7561462E-02  0.1272240E+00
          2   -1    0    0  501    0  0.00000000000E+00  0.00000000000E+00  0.85211901420E+02  0.85211901420E+02  0.00000000000E+00 0. -1.
         -2   -1    0    0    0  501 -0.00000000000E+00 -0.00000000000E+00 -0.28478214856E+03  0.28478214856E+03  0.00000000000E+00 0.  1.
         25    2    1    2    0    0  0.66915952631E+02  0.65895082401E+01 -0.62997297520E+01  0.14215730295E+03  0.12509135002E+03 0.  0.
          5    1    3    3  502    0  0.82280689306E+02 -0.12690977693E+02 -0.46022441491E+02  0.95219274667E+02  0.41800000000E+01 0. -1.
         -5    1    3    3    0  502 -0.15364736675E+02  0.19280485933E+02  0.39722711739E+02  0.46938028280E+02  0.41800000000E+01 0. -1.
        -11    1    1    2    0    0 -0.36872366543E+02  0.33215604819E+02 -0.16090509500E+03  0.16838437402E+03  0.00000000000E+00 0.  1.
         11    1    1    2    0    0 -0.30043586088E+02 -0.39805113059E+02 -0.32365422398E+02  0.59452373019E+02  0.00000000000E+00 0. -1.
</event>
<event>
 7    1  0.2728221E-009  0.8137893E+02  0.7561462E-02  0.1325183E+00
         -1   -1    0    0    0  501 -0.00000000000E+00  0.00000000000E+00  0.33436124251E+03  0.33436124251E+03  0.00000000000E+00 0.  1.
          1   -1    0    0  501    0  0.00000000000E+00 -0.00000000000E+00 -0.48621896004E+02  0.48621896004E+02  0.00000000000E+00 0. -1.
         25    2    1    2    0    0  0.21816763233E+02  0.68488587827E+00  0.24912297071E+03  0.27961884146E+03  0.12509197311E+03 0.  0.
          5    1    3    3  502    0  0.42389903010E+02 -0.23012658541E+02  0.27366189342E+02  0.55613550951E+02  0.41800000000E+01 0. -1.
         -5    1    3    3    0  502 -0.20573139777E+02  0.23697544419E+02  0.22175678137E+03  0.22400529050E+03  0.41800000000E+01 0. -1.
        -11    1    1    2    0    0 -0.62018055889E+01  0.39285526339E+02  0.44554852253E+02  0.59723946886E+02  0.00000000000E+00 0.  1.
         11    1    1    2    0    0 -0.15614957644E+02 -0.39970412218E+02 -0.79384764528E+01  0.43640350176E+02  0.00000000000E+00 0. -1.
</event>
<event>
 7    1  0.2728221E-009  0.1808901E+03  0.7561462E-02  0.1166944E+00
         -1   -1    0    0    0  501 -0.00000000000E+00  0.00000000000E+00  0.77857628197E+02  0.77857628197E+02  0.00000000000E+00 0. -1.
          1   -1    0    0  501    0  0.00000000000E+00 -0.00000000000E+00 -0.44270857368E+03  0.44270857368E+03  0.00000000000E+00 0.  1.
         25    2    1    2    0    0 -0.67803433447E+02 -0.13119015284E+03 -0.15449529721E+03  0.24763803022E+03  0.12509050867E+03 0.  0.
          5    1    3    3  502    0 -0.55462528443E+02 -0.15556150038E+03 -0.12459444895E+03  0.20692201809E+03  0.41800000000E+01 0. -1.
         -5    1    3    3    0  502 -0.12340905004E+02  0.24371347534E+02 -0.29900848266E+02  0.40716012133E+02  0.41800000000E+01 0. -1.
        -11    1    1    2    0    0  0.20062983208E+02 -0.81438841118E+01 -0.53729565074E+02  0.57928510310E+02  0.00000000000E+00 0. -1.
         11    1    1    2    0    0  0.47740450239E+02  0.13933403695E+03 -0.15662608319E+03  0.21499966134E+03  0.00000000000E+00 0.  1.
</event>
<event>
 7    1  0.2728221E-009  0.1801544E+03  0.7561462E-02  0.1167654E+00
         -1   -1    0    0    0  501 -0.00000000000E+00  0.00000000000E+00  0.14054877214E+03  0.14054877214E+03  0.00000000000E+00 0.  1.
          1   -1    0    0  501    0  0.00000000000E+00 -0.00000000000E+00 -0.26345674104E+03  0.26345674104E+03  0.00000000000E+00 0. -1.
         25    2    1    2    0    0  0.10787655472E+03 -0.11587509520E+03 -0.66694522134E+02  0.21251976393E+03  0.12510836116E+03 0.  0.
          5    1    3    3  502    0  0.31434557618E+02  0.88743281062E+01  0.23625966694E+02  0.40528308800E+02  0.41800000000E+01 0. -1.
         -5    1    3    3    0  502  0.76441997105E+02 -0.12474942330E+03 -0.90320488828E+02  0.17199145513E+03  0.41800000000E+01 0. -1.
        -11    1    1    2    0    0 -0.24384352289E+02  0.90532226994E+02 -0.14861822603E+02  0.94929208004E+02  0.00000000000E+00 0. -1.
         11    1    1    2    0    0 -0.83492202434E+02  0.25342868204E+02 -0.41351624161E+02  0.96556541243E+02  0.00000000000E+00 0.  1.
</event>
<event>
 7    1  0.2728221E-009  0.1725340E+03  0.7561462E-02  0.1175231E+00
         -2   -1    0    0    0  501 -0.00000000000E+00  0.00000000000E+00  0.14640873915E+03  0.14640873915E+03  0.00000000000E+00 0.  1.
          2   -1    0    0  501    0  0.00000000000E+00 -0.00000000000E+00 -0.25000831728E+03  0.25000831728E+03  0.00000000000E+00 0. -1.
         25    2    1    2    0    0 -0.15426672336E+03 -0.13025442951E+02 -0.30338822961E+02  0.20133949593E+03  0.12509701973E+03 0.  0.
          5    1    3    3  502    0 -0.15800940349E+03 -0.15929273259E+02  0.11259840458E+02  0.15926383690E+03  0.41800000000E+01 0.  1.
         -5    1    3    3    0  502  0.37426801274E+01  0.29038303078E+01 -0.41598663419E+02  0.42075659036E+02  0.41800000000E+01 0.  1.
        -11    1    1    2    0    0  0.16590691885E+03  0.54489526018E+01 -0.61998954835E+02  0.17719669073E+03  0.00000000000E+00 0.  1.
         11    1    1    2    0    0 -0.11640195488E+02  0.75764903491E+01 -0.11261800327E+02  0.17880869767E+02  0.00000000000E+00 0. -1.
</event>
<event>
 7    1  0.3150753E-009  0.1027828E+03  0.7561462E-02  0.1274551E+00
         -2   -1    0    0    0  501 -0.00000000000E+00  0.00000000000E+00  0.16008337304E+03  0.16008337304E+03  0.00000000000E+00 0. -1.
          2   -1    0    0  501    0  0.00000000000E+00 -0.00000000000E+00 -0.99784486502E+02  0.99784486502E+02  0.00000000000E+00 0.  1.
         25    2    1    2    0    0  0.63831437138E+02  0.10576943626E+02  0.28227824085E+02  0.14363331996E+03  0.12508955371E+03 0.  0.
          5    1    3    3  502    0  0.90640468507E+02  0.38866150045E+02  0.33148760154E+02  0.10412773334E+03  0.41800000000E+01 0. -1.
         -5    1    3    3    0  502 -0.26809031368E+02 -0.28289206418E+02 -0.49209360693E+01  0.39505586624E+02  0.41800000000E+01 0. -1.
        -11    1    1    2    0    0 -0.51244530890E+02 -0.16377667935E+02  0.62699540206E+02  0.82616356099E+02  0.00000000000E+00 0. -1.
         11    1    1    2    0    0 -0.12586906248E+02  0.58007243087E+01 -0.30628477750E+02  0.33618183483E+02  0.00000000000E+00 0.  1.
</event>
<event>
 7    1  0.2728221E-009  0.4893703E+02  0.7561462E-02  0.1451161E+00
         -2   -1    0    0    0  501 -0.00000000000E+00  0.00000000000E+00  0.36090975498E+02  0.36090975498E+02  0.00000000000E+00 0.  1.
          2   -1    0    0  501    0  0.00000000000E+00 -0.00000000000E+00 -0.37060812035E+03  0.37060812035E+03  0.00000000000E+00 0. -1.
         25    2    1    2    0    0  0.23844674220E+02  0.23913875054E+02 -0.23706753283E+03  0.27016562200E+03  0.12509199129E+03 0.  0.
          5    1    3    3  502    0  0.10813966259E+02  0.28544046123E+00 -0.24211941560E+03  0.24239700319E+03  0.41800000000E+01 0. -1.
         -5    1    3    3    0  502  0.13030707961E+02  0.23628434593E+02  0.50518827790E+01  0.27768618815E+02  0.41800000000E+01 0. -1.
        -11    1    1    2    0    0 -0.14485634426E+02 -0.38784303500E+02 -0.10825820836E+03  0.11590468274E+03  0.00000000000E+00 0. -1.
         11    1    1    2    0    0 -0.93590397939E+01  0.14870428446E+02  0.10808596332E+02  0.20628791111E+02  0.00000000000E+00 0.  1.
</event>
<event>
 7    1  0.2728221E-009  0.1041860E+03  0.7561462E-02  0.1271732E+00
          1   -1    0    0  501    0  0.00000000000E+00  0.00000000000E+00  0.65125429807E+02  0.65125429807E+02  0.00000000000E+00 0. -1.
         -1   -1    0    0    0  501 -0.00000000000E+00 -0.00000000000E+00 -0.19031324332E+03  0.19031324332E+03  0.00000000000E+00 0.  1.
         25    2    1    2    0    0 -0.11962714142E+02  0.23651715495E+02 -0.81346843513E+02  0.15155430705E+03  0.12509551894E+03 0.  0.
          5    1    3    3  502    0  0.20736570794E+02 -0.39445863730E+02 -0.64311419608E+02  0.78354403997E+02  0.41800000000E+01 0. -1.
         -5    1    3    3    0  502 -0.32699284935E+02  0.63097579224E+02 -0.17035423905E+02  0.73199903052E+02  0.41800000000E+01 0. -1.
        -11    1    1    2    0    0  0.46529825545E+02  0.59545332673E+01 -0.12250775734E+02  0.48482601392E+02  0.00000000000E+00 0. -1.
         11    1    1    2    0    0 -0.34567111403E+02 -0.29606248762E+02 -0.31590194263E+02  0.55401764684E+02  0.00000000000E+00 0.  1.
</event>
<event>
 7    1  0.2728221E-009  0.1322082E+03  0.7561462E-02  0.1224215E+00
         -2   -1    0    0    0  501 -0.00000000000E+00  0.00000000000E+00  0.70986924781E+02  0.70986924781E+02  0.00000000000E+00 0.  1.
          2   -1    0    0  501    0  0.00000000000E+00 -0.00000000000E+00 -0.31718867319E+03  0.31718867319E+03  0.00000000000E+00 0. -1.
         25    2    1    2    0    0 -0.85345658464E+02  0.57853775404E+02 -0.11346596237E+03  0.19787091117E+03  0.12508969631E+03 0.  0.
          5    1    3    3  502    0 -0.34904319812E+02 -0.30550860631E+02 -0.16409858215E+01  0.46602916876E+02  0.41800000000E+01 0.  1.
         -5    1    3    3    0  502 -0.50441338652E+02  0.88404636035E+02 -0.11182497655E+03  0.15126799429E+03  0.41800000000E+01 0.  1.
        -11    1    1    2    0    0  0.27832935552E+02 -0.50939085166E+02 -0.11647627371E+03  0.13013909880E+03  0.00000000000E+00 0. -1.
         11    1    1    2    0    0  0.57512722912E+02 -0.69146902385E+01 -0.16259512322E+02  0.60165587996E+02  0.00000000000E+00 0.  1.
</event>
<event>
 7    1  0.2728221E-009  0.1066970E+03  0.7561462E-02  0.1266812E+00
         -4   -1    0    0    0  501 -0.00000000000E+00  0.00000000000E+00  0.23353389073E+03  0.23353389073E+03  0.00000000000E+00 0. -1.
          4   -1    0    0  501    0  0.00000000000E+00 -0.00000000000E+00 -0.56676889384E+02  0.56676889384E+02  0.00000000000E+00 0.  1.
         25    2    1    2    0    0  0.37499778780E+01  0.20602246942E+02  0.62536790799E+02  0.14141480352E+03  0.12509508999E+03 0.  0.
          5    1    3    3  502    0 -0.18960929006E+02 -0.45958744789E+02  0.48493240490E+02  0.69575784757E+02  0.41800000000E+01 0.  1.
         -5    1    3    3    0  502  0.22710906884E+02  0.66560991731E+02  0.14043550309E+02  0.71839018764E+02  0.41800000000E+01 0.  1.
        -11    1    1    2    0    0 -0.57316293975E+01 -0.56653887562E+02  0.53887607291E+02  0.78398907971E+02  0.00000000000E+00 0.  1.
         11    1    1    2    0    0  0.19816515195E+01  0.36051640620E+02  0.60432603254E+02  0.70397068619E+02  0.00000000000E+00 0. -1.
</event>
<event>
 7    1  0.2728221E-009  0.1064089E+03  0.7561462E-02  0.1267368E+00
         -2   -1    0    0    0  501 -0.00000000000E+00  0.00000000000E+00  0.23516539959E+02  0.23516539959E+02  0.00000000000E+00 0.  1.
          2   -1    0    0  501    0  0.00000000000E+00 -0.00000000000E+00 -0.58049150362E+03  0.58049150362E+03  0.00000000000E+00 0. -1.
         25    2    1    2    0    0  0.25983262260E+02 -0.22544867265E+02 -0.24538938101E+03  0.27757259547E+03  0.12508875443E+03 0.  0.
          5    1    3    3  502    0  0.65674978029E+02  0.66120827621E+01 -0.19931213770E+03  0.20999934050E+03  0.41800000000E+01 0. -1.
         -5    1    3    3    0  502 -0.39691715769E+02 -0.29156950027E+02 -0.46077243306E+02  0.67573254963E+02  0.41800000000E+01 0. -1.
        -11    1    1    2    0    0 -0.47134619431E+01  0.56764710030E+02 -0.17570371934E+03  0.18470583644E+03  0.00000000000E+00 0. -1.
         11    1    1    2    0    0 -0.21269800317E+02 -0.34219842765E+02 -0.13588186332E+03  0.14172961167E+03  0.00000000000E+00 0.  1.
</event>
<event>
 7    1  0.3440224E-009  0.1281017E+03  0.7561462E-02  0.1230300E+00
         -2   -1    0    0    0  501 -0.00000000000E+00  0.00000000000E+00  0.47142661568E+02  0.47142661568E+02  0.00000000000E+00 0.  1.
          2   -1    0    0  501    0  0.00000000000E+00 -0.00000000000E+00 -0.57495165738E+03  0.57495165738E+03  0.00000000000E+00 0. -1.
         25    2    1    2    0    0 -0.76934823548E+02 -0.87524580682E+01 -0.99890864962E+02  0.17782490276E+03  0.12509172052E+03 0.  0.
          5    1    3    3  502    0  0.31675671961E+02 -0.16554726810E+01 -0.31564766094E+01  0.32148476303E+02  0.41800000000E+01 0. -1.
         -5    1    3    3    0  502 -0.10861049551E+03 -0.70969853871E+01 -0.96734388352E+02  0.14567642646E+03  0.41800000000E+01 0. -1.
        -11    1    1    2    0    0  0.15117846480E+02  0.42324161437E+02 -0.11341475116E+03  0.12199503967E+03  0.00000000000E+00 0.  1.
         11    1    1    2    0    0  0.61816977068E+02 -0.33571703369E+02 -0.31450337969E+03  0.32227437652E+03  0.00000000000E+00 0. -1.
</event>
<event>
 7    1  0.2728221E-009  0.8267758E+02  0.7561462E-02  0.1321620E+00
          1   -1    0    0  501    0  0.00000000000E+00  0.00000000000E+00  0.47521087478E+03  0.47521087478E+03  0.00000000000E+00 0. -1.
         -1   -1    0    0    0  501 -0.00000000000E+00 -0.00000000000E+00 -0.43121742862E+02  0.43121742862E+02  0.00000000000E+00 0.  1.
         25    2    1    2    0    0  0.36363428167E+02  0.18903527985E+02  0.82150901646E+02  0.15516104557E+03  0.12508611890E+03 0.  0.
          5    1    3    3  502    0  0.51427150380E+02  0.34985072345E+02 -0.74619884258E+01  0.62784239698E+02  0.41800000000E+01 0.  1.
         -5    1    3    3    0  502 -0.15063722213E+02 -0.16081544361E+02  0.89612890072E+02  0.92376805871E+02  0.41800000000E+01 0.  1.
        -11    1    1    2    0    0 -0.44424490100E+02 -0.38886997635E+02  0.32452874587E+03  0.32985548473E+03  0.00000000000E+00 0. -1.
         11    1    1    2    0    0  0.80610619327E+01  0.19983469650E+02  0.25409484400E+02  0.33316087349E+02  0.00000000000E+00 0.  1.
</event>
<event>
 7    1  0.2728221E-009  0.1138014E+03  0.7561462E-02  0.1253688E+00
         -4   -1    0    0    0  501 -0.00000000000E+00  0.00000000000E+00  0.21996070328E+03  0.21996070328E+03  0.00000000000E+00 0.  1.
          4   -1    0    0  501    0  0.00000000000E+00 -0.00000000000E+00 -0.89269984501E+02  0.89269984501E+02  0.00000000000E+00 0. -1.
         25    2    1    2    0    0 -0.41377397952E+02  0.20317627417E+02 -0.11784529261E+02  0.13383349287E+03  0.12509050180E+03 0.  0.
          5    1    3    3  502    0 -0.32040467101E+02  0.72900903756E+02 -0.75346811752E+01  0.80096049346E+02  0.41800000000E+01 0. -1.
         -5    1    3    3    0  502 -0.93369308508E+01 -0.52583276339E+02 -0.42498480856E+01  0.53737443528E+02  0.41800000000E+01 0. -1.
        -11    1    1    2    0    0  0.27992456862E+02  0.30701466035E+02  0.30243903665E+02  0.51389214499E+02  0.00000000000E+00 0.  1.
         11    1    1    2    0    0  0.13384941089E+02 -0.51019093452E+02  0.11223134437E+03  0.12400798041E+03  0.00000000000E+00 0. -1.
</event>
<event>
 7    1  0.2728221E-009  0.1090372E+03  0.7561462E-02  0.1262363E+00
          1   -1    0    0  501    0  0.00000000000E+00  0.00000000000E+00  0.63562960332E+02  0.63562960332E+02  0.00000000000E+00 0. -1.
         -1   -1    0    0    0  501 -0.00000000000E+00 -0.00000000000E+00 -0.32817875052E+03  0.32817875052E+03  0.00000000000E+00 0.  1.
         25    2    1    2    0    0 -0.60157793079E+02  0.48196374900E+02 -0.70037581632E+02  0.16277244795E+03  0.12509099228E+03 0.  0.
          5    1    3    3  502    0 -0.65824740066E+02  0.19744967991E+02  0.17012828073E+02  0.70920158522E+02  0.41800000000E+01 0. -1.
         -5    1    3    3    0  502  0.56669469868E+01  0.28451406909E+02 -0.87050409705E+02  0.91852289427E+02  0.41800000000E+01 0. -1.
        -11    1    1    2    0    0  0.79589531639E+02 -0.14329051966E+02 -0.11863091284E+03  0.14357266021E+03  0.00000000000E+00 0.  1.
         11    1    1    2    0    0 -0.19431738560E+02 -0.33867322934E+02 -0.75947295715E+02  0.85396602699E+02  0.00000000000E+00 0. -1.
</event>
<event>
 7    1  0.2728221E-009  0.1081582E+03  0.7561462E-02  0.1264019E+00
          4   -1    0    0  501    0  0.00000000000E+00  0.00000000000E+00  0.19133133661E+03  0.19133133661E+03  0.00000000000E+00 0. -1.
         -4   -1    0    0    0  501 -0.00000000000E+00 -0.00000000000E+00 -0.85981504437E+02  0.85981504437E+02  0.00000000000E+00 0.  1.
         25    2    1    2    0    0 -0.29062088245E+02 -0.11873654485E+02  0.12009277960E+03  0.17622396090E+03  0.12508804914E+03 0.  0.
          5    1    3    3  502    0 -0.73100325827E+02 -0.22652233748E+01  0.38112736197E+02  0.82576279484E+02  0.41800000000E+01 0.  1.
         -5    1    3    3    0  502  0.44038237582E+02 -0.96084311105E+01  0.81980043401E+02  0.93647681412E+02  0.41800000000E+01 0.  1.
        -11    1    1    2    0    0  0.61414222435E+01  0.51581387211E+02  0.27460912754E+01  0.52018242868E+02  0.00000000000E+00 0.  1.
         11    1    1    2    0    0  0.22920666002E+02 -0.39707732726E+02 -0.17489038705E+02  0.49070637279E+02  0.00000000000E+00 0. -1.
</event>
<event>
 7    1  0.2728221E-009  0.1011101E+03  0.7561462E-02  0.1277979E+00
         -2   -1    0    0    0  501 -0.00000000000E+00  0.00000000000E+00  0.53888894878E+02  0.53888894878E+02  0.00000000000E+00 0.  1.
          2   -1    0    0  501    0  0.00000000000E+00 -0.00000000000E+00 -0.25997879792E+03  0.25997879792E+03  0.00000000000E+00 0. -1.
         25    2    1    2    0    0 -0.42162621370E+01  0.17049910980E+02 -0.57812515482E+02  0.13891834568E+03  0.12509014145E+03 0.  0.
          5    1    3    3  502    0 -0.26815522335E+02  0.57118767971E+02  0.20916187985E+01  0.63273005000E+02  0.41800000000E+01 0.  1.
         -5    1    3    3    0  502  0.22599260198E+02 -0.40068856991E+02 -0.59904134281E+02  0.75645340676E+02  0.41800000000E+01 0.  1.
        -11    1    1    2    0    0  0.19527346048E+01 -0.54868573325E+02 -0.84622097348E+02  0.10087255757E+03  0.00000000000E+00 0.  1.
         11    1    1    2    0    0  0.22635275322E+01  0.37818662345E+02 -0.63655290211E+02  0.74076789552E+02  0.00000000000E+00 0. -1.
</event>
<event>
 7    1  0.2728221E-009  0.1136433E+03  0.7561462E-02  0.1253968E+00
          1   -1    0    0  501    0  0.00000000000E+00  0.00000000000E+00  0.66005878903E+02  0.66005878903E+02  0.00000000000E+00 0. -1.
         -1   -1    0    0    0  501 -0.00000000000E+00 -0.00000000000E+00 -0.29635351574E+03  0.29635351574E+03  0.00000000000E+00 0.  1.
         25    2    1    2    0    0  0.11290551469E+02 -0.78334251983E+02 -0.74402374126E+02  0.16566986768E+03  0.12508820966E+03 0.  0.
          5    1    3    3  502    0 -0.43213328363E+02 -0.59219134388E+02 -0.78656687302E+02  0.10760410997E+03  0.41800000000E+01 0. -1.
         -5    1    3    3    0  502  0.54503879832E+02 -0.19115117595E+02  0.42543131755E+01  0.58065757706E+02  0.41800000000E+01 0. -1.
        -11    1    1    2    0    0  0.21920950356E+02  0.26564758843E+02 -0.12130351231E+03  0.12609820211E+03  0.00000000000E+00 0.  1.
         11    1    1    2    0    0 -0.33211501825E+02  0.51769493139E+02 -0.34641750396E+02  0.70591324848E+02  0.00000000000E+00 0. -1.
</event>
<event>
 7    1  0.2728221E-009  0.1814059E+03  0.7561462E-02  0.1166449E+00
         -2   -1    0    0    0  501 -0.00000000000E+00  0.00000000000E+00  0.12242393754E+03  0.12242393754E+03  0.00000000000E+00 0.  1.
          2   -1    0    0  501    0  0.00000000000E+00 -0.00000000000E+00 -0.41514296517E+03  0.41514296517E+03  0.00000000000E+00 0. -1.
         25    2    1    2    0    0  0.76010302292E+02 -0.14470733163E+03 -0.19535943379E+02  0.20675261887E+03  0.12508882620E+03 0.  0.
          5    1    3    3  502    0 -0.27212344247E+02 -0.55789024601E+02  0.19099821149E+02  0.65078433550E+02  0.41800000000E+01 0.  1.
         -5    1    3    3    0  502  0.10322264654E+03 -0.88918307034E+02 -0.38635764528E+02  0.14167418532E+03  0.41800000000E+01 0.  1.
        -11    1    1    2    0    0 -0.62582747333E+02  0.13059151298E+03 -0.15932965559E+03  0.21530602099E+03  0.00000000000E+00 0.  1.
         11    1    1    2    0    0 -0.13427554959E+02  0.14115818659E+02 -0.11385342866E+03  0.11550826285E+03  0.00000000000E+00 0. -1.
</event>
<event>
 7    1  0.2728221E-009  0.1149855E+03  0.7561462E-02  0.1251606E+00
          2   -1    0    0  501    0  0.00000000000E+00  0.00000000000E+00  0.37306791206E+02  0.37306791206E+02  0.00000000000E+00 0. -1.
         -2   -1    0    0    0  501 -0.00000000000E+00 -0.00000000000E+00 -0.49327319018E+03  0.49327319018E+03  0.00000000000E+00 0.  1.
         25    2    1    2    0    0  0.21710894644E+02 -0.70662775867E+02 -0.18307299313E+03  0.23372425838E+03  0.12508683905E+03 0.  0.
          5    1    3    3  502    0  0.14322463394E+02  0.24627384679E+02 -0.10898035835E+03  0.11272014878E+03  0.41800000000E+01 0.  1.
         -5    1    3    3    0  502  0.73884312504E+01 -0.95290160546E+02 -0.74092634775E+02  0.12100410960E+03  0.41800000000E+01 0.  1.
        -11    1    1    2    0    0 -0.42306836012E+01 -0.16283003001E+02 -0.10383780390E+02  0.19770123056E+02  0.00000000000E+00 0.  1.
         11    1    1    2    0    0 -0.17480211043E+02  0.86945778868E+02 -0.26250962546E+03  0.27708559995E+03  0.00000000000E+00 0. -1.
</event>
<event>
 7    1  0.2728221E-009  0.1222350E+03  0.7561462E-02  0.1239455E+00
          2   -1    0    0  501    0  0.00000000000E+00  0.00000000000E+00  0.17097074884E+03  0.17097074884E+03  0.00000000000E+00 0. -1.
         -2   -1    0    0    0  501 -0.00000000000E+00 -0.00000000000E+00 -0.99562862474E+02  0.99562862474E+02  0.00000000000E+00 0.  1.
         25    2    1    2    0    0  0.19132207574E+02  0.61117920777E+02  0.19291904695E+01  0.14052680466E+03  0.12507045792E+03 0.  0.
          5    1    3    3  502    0  0.81361524715E+01  0.99585620313E+02  0.54043281731E+01  0.10015074594E+03  0.41800000000E+01 0.  1.
         -5    1    3    3    0  502  0.10996055102E+02 -0.38467699535E+02 -0.34751377036E+01  0.40376058716E+02  0.41800000000E+01 0.  1.
        -11    1    1    2    0    0  0.27527509310E+02 -0.22978435890E+00  0.38381132917E+02  0.47232699835E+02  0.00000000000E+00 0. -1.
         11    1    1    2    0    0 -0.46659716884E+02 -0.60888136419E+02  0.31097562978E+02  0.82774106817E+02  0.00000000000E+00 0.  1.
</event>
<event>
 7    1  0.2728221E-009  0.1127568E+03  0.7561462E-02  0.1255548E+00
          1   -1    0    0  501    0  0.00000000000E+00  0.00000000000E+00  0.96336304170E+03  0.96336304170E+03  0.00000000000E+00 0. -1.
         -1   -1    0    0    0  501 -0.00000000000E+00 -0.00000000000E+00 -0.23127264374E+02  0.23127264374E+02  0.00000000000E+00 0.  1.
         25    2    1    2    0    0 -0.33904664582E+02 -0.12180267561E+02  0.82347071296E+03  0.83369529046E+03  0.12508372012E+03 0.  0.
          5    1    3    3  502    0  0.39901533977E+02  0.22630609017E+02  0.22449391044E+03  0.22917082079E+03  0.41800000000E+01 0.  1.
         -5    1    3    3    0  502 -0.73806198559E+02 -0.34810876577E+02  0.59897680252E+03  0.60452446967E+03  0.41800000000E+01 0.  1.
        -11    1    1    2    0    0  0.31497796392E+02 -0.36948979245E+02  0.48233799623E+02  0.68438568592E+02  0.00000000000E+00 0.  1.
         11    1    1    2    0    0  0.24068681902E+01  0.49129246806E+02  0.68531264745E+02  0.84356447020E+02  0.00000000000E+00 0. -1.
</event>
<event>
 7    1  0.2728221E-009  0.8974620E+02  0.7561462E-02  0.1303467E+00
         -1   -1    0    0    0  501 -0.00000000000E+00  0.00000000000E+00  0.40420450886E+02  0.40420450886E+02  0.00000000000E+00 0.  1.
          1   -1    0    0  501    0  0.00000000000E+00 -0.00000000000E+00 -0.36505803617E+03  0.36505803617E+03  0.00000000000E+00 0. -1.
         25    2    1    2    0    0 -0.34457086256E+02 -0.14851505291E+02 -0.24931712461E+03  0.28145254902E+03  0.12509456711E+03 0.  0.
          5    1    3    3  502    0 -0.49368902569E+02 -0.31303482168E+02 -0.40083452562E+02  0.71002479576E+02  0.41800000000E+01 0.  1.
         -5    1    3    3    0  502  0.14911816313E+02  0.16451976876E+02 -0.20923367205E+03  0.21045006944E+03  0.41800000000E+01 0.  1.
        -11    1    1    2    0    0 -0.28383552285E+02 -0.10866329910E+02 -0.19331348898E+02  0.36019497724E+02  0.00000000000E+00 0. -1.
         11    1    1    2    0    0  0.62840638542E+02  0.25717835201E+02 -0.55989111776E+02  0.88006440317E+02  0.00000000000E+00 0.  1.
</event>
<event>
 7    1  0.2728221E-009  0.1010037E+03  0.7561462E-02  0.1278199E+00
         -1   -1    0    0    0  501 -0.00000000000E+00  0.00000000000E+00  0.14176866543E+03  0.14176866543E+03  0.00000000000E+00 0.  1.
          1   -1    0    0  501    0  0.00000000000E+00 -0.00000000000E+00 -0.92765602113E+02  0.92765602113E+02  0.00000000000E+00 0. -1.
         25    2    1    2    0    0  0.13908993796E+02  0.17867096020E+02  0.57807635440E+02  0.13965120292E+03  0.12509213617E+03 0.  0.
          5    1    3    3  502    0  0.66242363111E+02  0.25616747341E+02  0.47623582439E+02  0.85613938230E+02  0.41800000000E+01 0.  1.
         -5    1    3    3    0  502 -0.52333369315E+02 -0.77496513210E+01  0.10184053001E+02  0.54037264688E+02  0.41800000000E+01 0.  1.
        -11    1    1    2    0    0 -0.27749185793E+01 -0.46752908264E+02  0.21524686640E+02  0.51544609216E+02  0.00000000000E+00 0.  1.
         11    1    1    2    0    0 -0.11134075217E+02  0.28885812245E+02 -0.30329258764E+02  0.43338455408E+02  0.00000000000E+00 0. -1.
</event>
<event>
 7    1  0.2728221E-009  0.8969309E+02  0.7561462E-02  0.1303597E+00
          2   -1    0    0  501    0  0.00000000000E+00  0.00000000000E+00  0.53295356171E+02  0.53295356171E+02  0.00000000000E+00 0.  1.
         -2   -1    0    0    0  501 -0.00000000000E+00 -0.00000000000E+00 -0.32952552476E+03  0.32952552476E+03  0.00000000000E+00 0. -1.
         25    2    1    2    0    0  0.55914841514E+02 -0.49098337074E+02 -0.13753476357E+03  0.20024964515E+03  0.12508794102E+03 0.  0.
          5    1    3    3  502    0  0.43354891020E+02 -0.27372899780E+02  0.83908982944E+01  0.52122948803E+02  0.41800000000E+01 0. -1.
         -5    1    3    3    0  502  0.12559950495E+02 -0.21725437294E+02 -0.14592566186E+03  0.14812669635E+03  0.41800000000E+01 0. -1.
        -11    1    1    2    0    0  0.16118495624E+02  0.17653239494E+02 -0.88304532716E+00  0.23921173359E+02  0.00000000000E+00 0.  1.
         11    1    1    2    0    0 -0.72033337139E+02  0.31445097580E+02 -0.13781235970E+03  0.15865006242E+03  0.00000000000E+00 0. -1.
</event>
<event>
 7    1  0.2728221E-009  0.1536982E+03  0.7561462E-02  0.1196001E+00
         -2   -1    0    0    0  501 -0.00000000000E+00  0.00000000000E+00  0.52425387266E+03  0.52425387266E+03  0.00000000000E+00 0. -1.
          2   -1    0    0  501    0  0.00000000000E+00 -0.00000000000E+00 -0.86775641007E+02  0.86775641007E+02  0.00000000000E+00 0.  1.
         25    2    1    2    0    0  0.12462157852E+03  0.60271299442E+01  0.42075529404E+03  0.45634278334E+03  0.12508738671E+03 0.  0.
          5    1    3    3  502    0  0.12082014656E+03  0.40753740534E+02  0.38738305520E+03  0.40784982413E+03  0.41800000000E+01 0. -1.
         -5    1    3    3    0  502  0.38014319571E+01 -0.34726610589E+02  0.33372238834E+02  0.48492959208E+02  0.41800000000E+01 0. -1.
        -11    1    1    2    0    0  0.45037494626E+01 -0.14548954892E+02 -0.15076925114E+02  0.21430574388E+02  0.00000000000E+00 0.  1.
         11    1    1    2    0    0 -0.12912532798E+03  0.85218249480E+01  0.31799862729E+02  0.13325615594E+03  0.00000000000E+00 0. -1.
</event>
<event>
 7    1  0.2728221E-009  0.7312680E+02  0.7561462E-02  0.1349772E+00
          1   -1    0    0  501    0  0.00000000000E+00  0.00000000000E+00  0.24890425445E+03  0.24890425445E+03  0.00000000000E+00 0. -1.
         -1   -1    0    0    0  501 -0.00000000000E+00 -0.00000000000E+00 -0.54156492180E+02  0.54156492180E+02  0.00000000000E+00 0.  1.
         25    2    1    2    0    0 -0.21887217484E+02  0.45220396444E+02  0.11860509544E+03  0.17954992288E+03  0.12508825523E+03 0.  0.
          5    1    3    3  502    0 -0.30052794071E+02 -0.76499112160E+01  0.12183826392E+03  0.12579239456E+03  0.41800000000E+01 0. -1.
         -5    1    3    3    0  502  0.81655765878E+01  0.52870307660E+02 -0.32331684763E+01  0.53757528323E+02  0.41800000000E+01 0. -1.
        -11    1    1    2    0    0  0.13187618174E+02  0.19543089880E+01  0.74319783808E+02  0.75506045202E+02  0.00000000000E+00 0. -1.
         11    1    1    2    0    0  0.86995993101E+01 -0.47174705432E+02  0.18228830147E+01  0.48004778546E+02  0.00000000000E+00 0.  1.
</event>
<event>
 7    1  0.2728221E-009  0.1615095E+03  0.7561462E-02  0.1187003E+00
         -2   -1    0    0    0  501 -0.00000000000E+00  0.00000000000E+00  0.86499440197E+03  0.86499440197E+03  0.00000000000E+00 0.  1.
          2   -1    0    0  501    0  0.00000000000E+00 -0.00000000000E+00 -0.35499724213E+02  0.35499724213E+02  0.00000000000E+00 0. -1.
         25    2    1    2    0    0 -0.11651964516E+03  0.58979345574E+02  0.54362443446E+03  0.57291450432E+03  0.12509241627E+03 0.  0.
          5    1    3    3  502    0 -0.95316722725E+02 -0.87219217563E+01  0.19676911623E+03  0.21885362015E+03  0.41800000000E+01 0.  1.
         -5    1    3    3    0  502 -0.21202922438E+02  0.67701267330E+02  0.34685531823E+03  0.35406088418E+03  0.41800000000E+01 0.  1.
        -11    1    1    2    0    0  0.56098889657E+02 -0.74979091250E+02  0.13523203343E+03  0.16448906472E+03  0.00000000000E+00 0.  1.
         11    1    1    2    0    0  0.60420755506E+02  0.15999745676E+02  0.15063820987E+03  0.16309055714E+03  0.00000000000E+00 0. -1.
</event>
<event>
 7    1  0.2728221E-009  0.1542893E+03  0.7561462E-02  0.1195299E+00
         -1   -1    0    0    0  501 -0.00000000000E+00  0.00000000000E+00  0.13303166473E+03  0.13303166473E+03  0.00000000000E+00 0.  1.
          1   -1    0    0  501    0  0.00000000000E+00 -0.00000000000E+00 -0.26092632626E+03  0.26092632626E+03  0.00000000000E+00 0. -1.
         25    2    1    2    0    0  0.63613307727E+02  0.13136128708E+03 -0.10577662712E+03  0.21940451048E+03  0.12508878331E+03 0.  0.
          5    1    3    3  502    0  0.19386192412E+02  0.76614019284E+02  0.14048437029E+02  0.80376385774E+02  0.41800000000E+01 0. -1.
         -5    1    3    3    0  502  0.44227115315E+02  0.54747267796E+02 -0.11982506415E+03  0.13902812471E+03  0.41800000000E+01 0. -1.
        -11    1    1    2    0    0 -0.69501650449E+02 -0.74940013477E+02 -0.47136665371E+02  0.11255376607E+03  0.00000000000E+00 0. -1.
         11    1    1    2    0    0  0.58883427217E+01 -0.56421273604E+02  0.25018630964E+02  0.61999714438E+02  0.00000000000E+00 0.  1.
</event>
<event>
 7    1  0.2728221E-009  0.2281836E+03  0.7561462E-02  0.1127925E+00
          2   -1    0    0  501    0  0.00000000000E+00  0.00000000000E+00  0.28062504761E+04  0.28062504761E+04  0.00000000000E+00 0. -1.
         -2   -1    0    0    0  501 -0.00000000000E+00 -0.00000000000E+00 -0.19516764802E+02  0.19516764802E+02  0.00000000000E+00 0.  1.
         25    2    1    2    0    0  0.15002657387E+03  0.13551536072E+03  0.16862076488E+04  0.17028849295E+04  0.12509381451E+03 0.  0.
          5    1    3    3  502    0  0.39426176891E+02  0.11707441324E+03  0.99136661864E+03  0.99904258498E+03  0.41800000000E+01 0. -1.
         -5    1    3    3    0  502  0.11060039698E+03  0.18440947485E+02  0.69484103012E+03  0.70384234449E+03  0.41800000000E+01 0. -1.
        -11    1    1    2    0    0 -0.19861166362E+02 -0.73941054604E+02  0.30740435847E+03  0.31679517845E+03  0.00000000000E+00 0. -1.
         11    1    1    2    0    0 -0.13016540751E+03 -0.61574306118E+02  0.79312170410E+03  0.80608713301E+03  0.00000000000E+00 0.  1.
</event>
<event>
 7    1  0.2728221E-009  0.1230442E+03  0.7561462E-02  0.1238158E+00
         -1   -1    0    0    0  501 -0.00000000000E+00  0.00000000000E+00  0.10513668947E+03  0.10513668947E+03  0.00000000000E+00 0.  1.
          1   -1    0    0  501    0  0.00000000000E+00 -0.00000000000E+00 -0.18354754929E+03  0.18354754929E+03  0.00000000000E+00 0. -1.
         25    2    1    2    0    0  0.69596511435E+02  0.48313573690E+02 -0.34439980177E+02  0.15495874201E+03  0.12509286025E+03 0.  0.
          5    1    3    3  502    0  0.49188632240E+02  0.81115412779E+02  0.10516059157E+02  0.95536860071E+02  0.41800000000E+01 0. -1.
         -5    1    3    3    0  502  0.20407879196E+02 -0.32801839089E+02 -0.44956039335E+02  0.59421881942E+02  0.41800000000E+01 0. -1.
        -11    1    1    2    0    0 -0.10331035542E+01  0.17325548417E+02 -0.34141423832E+02  0.38299853161E+02  0.00000000000E+00 0. -1.
         11    1    1    2    0    0 -0.68563407881E+02 -0.65639122107E+02 -0.98294558124E+01  0.95425643581E+02  0.00000000000E+00 0.  1.
</event>
<event>
 7    1  0.2728221E-009  0.1481499E+03  0.7561462E-02  0.1202765E+00
         -2   -1    0    0    0  501 -0.00000000000E+00  0.00000000000E+00  0.93584973906E+03  0.93584973906E+03  0.00000000000E+00 0.  1.
          2   -1    0    0  501    0  0.00000000000E+00 -0.00000000000E+00 -0.27716797693E+02  0.27716797693E+02  0.00000000000E+00 0. -1.
         25    2    1    2    0    0 -0.98208194437E+02  0.35444470374E+02  0.31554909739E+03  0.35513366712E+03  0.12509008245E+03 0.  0.
          5    1    3    3  502    0  0.26552138934E+02  0.19190778265E+02  0.37844022702E+02  0.50228921018E+02  0.41800000000E+01 0.  1.
         -5    1    3    3    0  502 -0.12476033337E+03  0.16253692110E+02  0.27770507469E+03  0.30490474611E+03  0.41800000000E+01 0.  1.
        -11    1    1    2    0    0  0.44463188818E+02  0.29296018636E+02  0.20310078883E+03  0.20996466915E+03  0.00000000000E+00 0.  1.
         11    1    1    2    0    0  0.53745005619E+02 -0.64740489010E+02  0.38948305514E+03  0.39846820047E+03  0.00000000000E+00 0. -1.
</event>
<event>
 7    1  0.2728221E-009  0.1205280E+03  0.7561462E-02  0.1242229E+00
          2   -1    0    0  501    0  0.00000000000E+00  0.00000000000E+00  0.12137571763E+03  0.12137571763E+03  0.00000000000E+00 0. -1.
         -2   -1    0    0    0  501 -0.00000000000E+00 -0.00000000000E+00 -0.16351518439E+03  0.16351518439E+03  0.00000000000E+00 0.  1.
         25    2    1    2    0    0  0.86068301763E+02 -0.21599122260E+02 -0.34326893500E+02  0.15716517567E+03  0.12509309403E+03 0.  0.
          5    1    3    3  502    0 -0.22497530253E+02  0.14161449852E+02 -0.33256083610E+02  0.42779960571E+02  0.41800000000E+01 0. -1.
         -5    1    3    3    0  502  0.10856583202E+03 -0.35760572111E+02 -0.10708098897E+01  0.11438521510E+03  0.41800000000E+01 0. -1.
        -11    1    1    2    0    0 -0.88725835108E+02  0.11673555164E+02 -0.36958296227E+02  0.96821802120E+02  0.00000000000E+00 0.  1.
         11    1    1    2    0    0  0.26575333454E+01  0.99255670963E+01  0.29145722970E+02  0.30903924235E+02  0.00000000000E+00 0. -1.
</event>
<event>
 7    1  0.2728221E-009  0.8573081E+02  0.7561462E-02  0.1313532E+00
          2   -1    0    0  501    0  0.00000000000E+00  0.00000000000E+00  0.12045954597E+03  0.12045954597E+03  0.00000000000E+00 0. -1.
         -2   -1    0    0    0  501 -0.00000000000E+00 -0.00000000000E+00 -0.26889231151E+03  0.26889231151E+03  0.00000000000E+00 0.  1.
         25    2    1    2    0    0 -0.24865452937E+02  0.36988040319E+02  0.68274069326E+02  0.14931887848E+03  0.12509345727E+03 0.  0.
          5    1    3    3  502    0  0.30410700616E+02  0.14748719317E+02 -0.22384111533E+02  0.40753604534E+02  0.41800000000E+01 0.  1.
         -5    1    3    3    0  502 -0.55276153553E+02  0.22239321002E+02  0.90658180859E+02  0.10856527395E+03  0.41800000000E+01 0.  1.
        -11    1    1    2    0    0  0.20583875132E+02 -0.55229082578E+02 -0.21290698020E+03  0.22091475662E+03  0.00000000000E+00 0.  1.
         11    1    1    2    0    0  0.42815778044E+01  0.18241042259E+02 -0.37998546669E+01  0.19118222372E+02  0.00000000000E+00 0. -1.
</event>
<event>
 7    1  0.2728221E-009  0.1502598E+03  0.7561462E-02  0.1200154E+00
          2   -1    0    0  501    0  0.00000000000E+00  0.00000000000E+00  0.66999004009E+03  0.66999004009E+03  0.00000000000E+00 0. -1.
         -2   -1    0    0    0  501 -0.00000000000E+00 -0.00000000000E+00 -0.35931200296E+02  0.35931200296E+02  0.00000000000E+00 0.  1.
         25    2    1    2    0    0  0.10423635295E+03 -0.14151877862E+02  0.41129347686E+03  0.44258290089E+03  0.12510718258E+03 0.  0.
          5    1    3    3  502    0 -0.22520461053E+02 -0.27072453400E+02  0.10467105757E+03  0.11051511929E+03  0.41800000000E+01 0. -1.
         -5    1    3    3    0  502  0.12675681400E+03  0.12920575538E+02  0.30662241929E+03  0.33206778160E+03  0.41800000000E+01 0. -1.
        -11    1    1    2    0    0 -0.80080750947E+02  0.49955779516E+02  0.17578543253E+03  0.19952199094E+03  0.00000000000E+00 0.  1.
         11    1    1    2    0    0 -0.24155601999E+02 -0.35803901654E+02  0.46979930410E+02  0.63816348555E+02  0.00000000000E+00 0. -1.
</event>
<event>
 7    1  0.3116583E-009  0.9884813E+02  0.7561462E-02  0.1282737E+00
         -2   -1    0    0    0  501 -0.00000000000E+00  0.00000000000E+00  0.23225036867E+02  0.23225036867E+02  0.00000000000E+00 0.  1.
          2   -1    0    0  501    0  0.00000000000E+00 -0.00000000000E+00 -0.64198926952E+03  0.64198926952E+03  0.00000000000E+00 0. -1.
         25    2    1    2    0    0  0.21658683037E+02  0.22273580781E+02 -0.47648239583E+03  0.49360761389E+03  0.12509113478E+03 0.  0.
          5    1    3    3  502    0 -0.30070803037E+02 -0.35962326252E+02 -0.24065857756E+03  0.24521738408E+03  0.41800000000E+01 0.  1.
         -5    1    3    3    0  502  0.51729486075E+02  0.58235907033E+02 -0.23582381828E+03  0.24839022981E+03  0.41800000000E+01 0.  1.
        -11    1    1    2    0    0 -0.34052158341E+02  0.12060255162E+02 -0.12699443776E+03  0.13203252048E+03  0.00000000000E+00 0. -1.
         11    1    1    2    0    0  0.12393475303E+02 -0.34333835943E+02 -0.15287399057E+02  0.39574172014E+02  0.00000000000E+00 0.  1.
</event>
<event>
 7    1  0.2728221E-009  0.9524316E+02  0.7561462E-02  0.1290629E+00
         -1   -1    0    0    0  501 -0.00000000000E+00  0.00000000000E+00  0.48032730091E+02  0.48032730091E+02  0.00000000000E+00 0.  1.
          1   -1    0    0  501    0  0.00000000000E+00 -0.00000000000E+00 -0.35143368118E+03  0.35143368118E+03  0.00000000000E+00 0. -1.
         25    2    1    2    0    0 -0.34509011557E+02  0.12750580989E+02 -0.82522533834E+02  0.15430879254E+03  0.12509110948E+03 0.  0.
          5    1    3    3  502    0 -0.50163145684E+02 -0.39417322194E+02 -0.75967943521E+02  0.99290821916E+02  0.41800000000E+01 0.  1.
         -5    1    3    3    0  502  0.15654134127E+02  0.52167903183E+02 -0.65545903130E+01  0.55017970627E+02  0.41800000000E+01 0.  1.
        -11    1    1    2    0    0 -0.17840846802E+01  0.21766932491E+02 -0.35429423008E+01  0.22125432162E+02  0.00000000000E+00 0.  1.
         11    1    1    2    0    0  0.36293096237E+02 -0.34517513480E+02 -0.21733547495E+03  0.22303218657E+03  0.00000000000E+00 0. -1.
</event>
<event>
 7    1  0.2728221E-009  0.1242445E+03  0.7561462E-02  0.1236255E+00
         -2   -1    0    0    0  501 -0.00000000000E+00  0.00000000000E+00  0.16439007916E+02  0.16439007916E+02  0.00000000000E+00 0.  1.
          2   -1    0    0  501    0  0.00000000000E+00 -0.00000000000E+00 -0.10915737057E+04  0.10915737057E+04  0.00000000000E+00 0. -1.
         25    2    1    2    0    0  0.43814643853E+02 -0.64101945768E+02 -0.61293902068E+03  0.63037341932E+03  0.12509045624E+03 0.  0.
          5    1    3    3  502    0  0.76855191184E+02 -0.36572205570E+02 -0.53046376943E+03  0.53726485993E+03  0.41800000000E+01 0.  1.
         -5    1    3    3    0  502 -0.33040547330E+02 -0.27529740198E+02 -0.82475251245E+02  0.93108559387E+02  0.41800000000E+01 0.  1.
        -11    1    1    2    0    0 -0.26325084888E+01 -0.23298760901E+02 -0.75547134494E+02  0.79102034682E+02  0.00000000000E+00 0.  1.
         11    1    1    2    0    0 -0.41182135364E+02  0.87400706669E+02 -0.38664854256E+03  0.39853725957E+03  0.00000000000E+00 0. -1.
</event>
<event>
 7    1  0.2728221E-009  0.1060191E+03  0.7561462E-02  0.1268125E+00
          1   -1    0    0  501    0  0.00000000000E+00  0.00000000000E+00  0.55159708967E+03  0.55159708967E+03  0.00000000000E+00 0. -1.
         -1   -1    0    0    0  501 -0.00000000000E+00 -0.00000000000E+00 -0.38611728495E+02  0.38611728495E+02  0.00000000000E+00 0.  1.
         25    2    1    2    0    0  0.27797619151E+02  0.54230859041E+02  0.12621695363E+03  0.18785796136E+03  0.12508477348E+03 0.  0.
          5    1    3    3  502    0 -0.28069324373E+02  0.42441888466E+02  0.20136430132E+01  0.51095283789E+02  0.41800000000E+01 0.  1.
         -5    1    3    3    0  502  0.55866943524E+02  0.11788970576E+02  0.12420331062E+03  0.13676267757E+03  0.41800000000E+01 0.  1.
        -11    1    1    2    0    0 -0.52007340557E+02 -0.94964577845E+01  0.12556050258E+03  0.13623650756E+03  0.00000000000E+00 0.  1.
         11    1    1    2    0    0  0.24209721405E+02 -0.44734401257E+02  0.26120790496E+03  0.26611434925E+03  0.00000000000E+00 0. -1.
</event>
<event>
 7    1  0.3376393E-009  0.1594159E+03  0.7561462E-02  0.1189358E+00
         -2   -1    0    0    0  501 -0.00000000000E+00  0.00000000000E+00  0.47727241726E+02  0.47727241726E+02  0.00000000000E+00 0.  1.
          2   -1    0    0  501    0  0.00000000000E+00 -0.00000000000E+00 -0.10228050625E+04  0.10228050625E+04  0.00000000000E+00 0. -1.
         25    2    1    2    0    0 -0.71922693124E+02  0.12357534371E+03 -0.81600932970E+03  0.83783270451E+03  0.12509466512E+03 0.  0.
          5    1    3    3  502    0 -0.53276472068E+01 -0.18055739704E+02 -0.24472383264E+03  0.24548242345E+03  0.41800000000E+01 0. -1.
         -5    1    3    3    0  502 -0.66595045918E+02  0.14163108341E+03 -0.57128549705E+03  0.59235028106E+03  0.41800000000E+01 0. -1.
        -11    1    1    2    0    0  0.25796244915E+02 -0.45364401003E+02 -0.12545777844E+03  0.13587873013E+03  0.00000000000E+00 0. -1.
         11    1    1    2    0    0  0.46126448210E+02 -0.78210942703E+02 -0.33610712635E+02  0.96820869583E+02  0.00000000000E+00 0.  1.
</event>
<event>
 7    1  0.2728221E-009  0.1004646E+03  0.7561462E-02  0.1279322E+00
          1   -1    0    0  501    0  0.00000000000E+00  0.00000000000E+00  0.12912977283E+04  0.12912977283E+04  0.00000000000E+00 0. -1.
         -1   -1    0    0    0  501 -0.00000000000E+00 -0.00000000000E+00 -0.15251155916E+02  0.15251155916E+02  0.00000000000E+00 0.  1.
         25    2    1    2    0    0  0.34221342514E+02  0.36088421476E+02  0.10409285501E+04  0.10495965187E+04  0.12508849378E+03 0.  0.
          5    1    3    3  502    0 -0.18441969809E+02 -0.38370299661E+02  0.28982931624E+03  0.29296909581E+03  0.41800000000E+01 0. -1.
         -5    1    3    3    0  502  0.52663312323E+02  0.74458721137E+02  0.75109923385E+03  0.75662742292E+03  0.41800000000E+01 0. -1.
        -11    1    1    2    0    0  0.76866682806E+01 -0.20920137692E+02  0.53754059511E+01  0.22926666121E+02  0.00000000000E+00 0.  1.
         11    1    1    2    0    0 -0.41908010794E+02 -0.15168283785E+02  0.22974261634E+03  0.23402569937E+03  0.00000000000E+00 0. -1.
</event>
<event>
 7    1  0.2728221E-009  0.1285165E+03  0.7561462E-02  0.1229674E+00
         -2   -1    0    0    0  501 -0.00000000000E+00  0.00000000000E+00  0.16601554569E+02  0.16601554569E+02  0.00000000000E+00 0.  1.
          2   -1    0    0  501    0  0.00000000000E+00 -0.00000000000E+00 -0.15406098220E+04  0.15406098220E+04  0.00000000000E+00 0. -1.
         25    2    1    2    0    0 -0.52441281428E+02  0.98145617789E+02 -0.98787892872E+03  0.10019656473E+04  0.12509088788E+03 0.  0.
          5    1    3    3  502    0 -0.19295520153E+02  0.52229781800E+02 -0.12136788368E+03  0.13359604333E+03  0.41800000000E+01 0. -1.
         -5    1    3    3    0  502 -0.33145761276E+02  0.45915835989E+02 -0.86651104504E+03  0.86836960395E+03  0.41800000000E+01 0. -1.
        -11    1    1    2    0    0  0.57149731456E+02 -0.12325926502E+02 -0.21167759809E+03  0.21960288205E+03  0.00000000000E+00 0. -1.
         11    1    1    2    0    0 -0.47084500279E+01 -0.85819691287E+02 -0.32445174066E+03  0.33564284728E+03  0.00000000000E+00 0.  1.
</event>
<event>
 7    1  0.2728221E-009  0.2103510E+03  0.7561462E-02  0.1141288E+00
         -2   -1    0    0    0  501 -0.00000000000E+00  0.00000000000E+00  0.86229206650E+02  0.86229206650E+02  0.00000000000E+00 0.  1.
          2   -1    0    0  501    0  0.00000000000E+00 -0.00000000000E+00 -0.53780936871E+03  0.53780936871E+03  0.00000000000E+00 0. -1.
         25    2    1    2    0    0 -0.13223776459E+03 -0.11174950504E+03 -0.28113850911E+03  0.35307438936E+03  0.12509150595E+03 0.  0.
          5    1    3    3  502    0 -0.16316832384E+02  0.27447264889E+02 -0.37159892931E+02  0.49172364308E+02  0.41800000000E+01 0.  1.
         -5    1    3    3    0  502 -0.11592093220E+03 -0.13919676993E+03 -0.24397861618E+03  0.30390202506E+03  0.41800000000E+01 0.  1.
        -11    1    1    2    0    0  0.91982025202E+02  0.37622012037E+01 -0.52106458549E+02  0.10578246613E+03  0.00000000000E+00 0.  1.
         11    1    1    2    0    0  0.40255739383E+02  0.10798730384E+03 -0.11833519440E+03  0.16518171986E+03  0.00000000000E+00 0. -1.
</event>
<event>
 7    1  0.2728221E-009  0.1567461E+03  0.7561462E-02  0.1192420E+00
          2   -1    0    0  501    0  0.00000000000E+00  0.00000000000E+00  0.24367150590E+03  0.24367150590E+03  0.00000000000E+00 0. -1.
         -2   -1    0    0    0  501 -0.00000000000E+00 -0.00000000000E+00 -0.11812699196E+03  0.11812699196E+03  0.00000000000E+00 0.  1.
         25    2    1    2    0    0 -0.11597643457E+03  0.46706385031E+01  0.45764542522E+01  0.17070966273E+03  0.12509395180E+03 0.  0.
          5    1    3    3  502    0 -0.11578774478E+03  0.46346644687E+02 -0.12632453406E+02  0.12542672999E+03  0.41800000000E+01 0.  1.
         -5    1    3    3    0  502 -0.18868978841E+00 -0.41676006184E+02  0.17208907658E+02  0.45282932746E+02  0.41800000000E+01 0.  1.
        -11    1    1    2    0    0  0.86409320634E+02 -0.44514766696E+02  0.90841280421E+02  0.13304237436E+03  0.00000000000E+00 0. -1.
         11    1    1    2    0    0  0.29567113939E+02  0.39844128193E+02  0.30126779271E+02  0.58046460766E+02  0.00000000000E+00 0.  1.
</event>
<event>
 7    1  0.2728221E-009  0.1073502E+03  0.7561462E-02  0.1265557E+00
          2   -1    0    0  501    0  0.00000000000E+00  0.00000000000E+00  0.13910397896E+03  0.13910397896E+03  0.00000000000E+00 0.  1.
         -2   -1    0    0    0  501 -0.00000000000E+00 -0.00000000000E+00 -0.12419335198E+03  0.12419335198E+03  0.00000000000E+00 0. -1.
         25    2    1    2    0    0 -0.84665044294E+01 -0.16542028511E+00  0.83188844063E+02  0.15046332325E+03  0.12508844393E+03 0.  0.
          5    1    3    3  502    0 -0.62326779046E+02 -0.23008070195E+02  0.40517409966E+02  0.77930299568E+02  0.41800000000E+01 0. -1.
         -5    1    3    3    0  502  0.53860274616E+02  0.22842649910E+02  0.42671434097E+02  0.72533023683E+02  0.41800000000E+01 0. -1.
        -11    1    1    2    0    0 -0.57757708384E-01 -0.44251006707E+02 -0.28774138688E+02  0.52783576875E+02  0.00000000000E+00 0. -1.
         11    1    1    2    0    0  0.85242621378E+01  0.44416426992E+02 -0.39504078396E+02  0.60050430820E+02  0.00000000000E+00 0.  1.
</event>
<event>
 7    1  0.2728221E-009  0.2876932E+03  0.7561462E-02  0.1091560E+00
          1   -1    0    0  501    0  0.00000000000E+00  0.00000000000E+00  0.99298972870E+03  0.99298972870E+03  0.00000000000E+00 0. -1.
         -1   -1    0    0    0  501 -0.00000000000E+00 -0.00000000000E+00 -0.98168882666E+02  0.98168882666E+02  0.00000000000E+00 0.  1.
         25    2    1    2    0    0  0.28321265109E+03  0.23706586179E+02  0.33736672301E+03  0.45851641322E+03  0.12509831107E+03 0.  0.
          5    1    3    3  502    0  0.14498713186E+03 -0.33293401698E+01  0.81482085687E+02  0.16640058774E+03  0.41800000000E+01 0. -1.
         -5    1    3    3    0  502  0.13822551923E+03  0.27035926349E+02  0.25588463732E+03  0.29211582548E+03  0.41800000000E+01 0. -1.
        -11    1    1    2    0    0 -0.38212754673E+02 -0.22592191227E+02  0.38500369000E+02  0.58761383044E+02  0.00000000000E+00 0.  1.
         11    1    1    2    0    0 -0.24499989642E+03 -0.11143949522E+01  0.51895375403E+03  0.57388081510E+03  0.00000000000E+00 0. -1.
</event>
<event>
 7    1  0.2728221E-009  0.1157807E+03  0.7561462E-02  0.1250224E+00
         -2   -1    0    0    0  501 -0.00000000000E+00  0.00000000000E+00  0.19901034268E+02  0.19901034268E+02  0.00000000000E+00 0. -1.
          2   -1    0    0  501    0  0.00000000000E+00 -0.00000000000E+00 -0.74096564212E+03  0.74096564212E+03  0.00000000000E+00 0.  1.
         25    2    1    2    0    0 -0.51325682856E+02  0.15131364555E+02 -0.40131497752E+03  0.42374925587E+03  0.12508571764E+03 0.  0.
          5    1    3    3  502    0  0.37249212837E+02 -0.16655187737E+02 -0.14427736269E+03  0.14999442963E+03  0.41800000000E+01 0. -1.
         -5    1    3    3    0  502 -0.88574895693E+02  0.31786552292E+02 -0.25703761483E+03  0.27375482624E+03  0.41800000000E+01 0. -1.
        -11    1    1    2    0    0  0.59536003531E+01 -0.42794096834E+02 -0.74017427441E+02  0.85705073631E+02  0.00000000000E+00 0. -1.
         11    1    1    2    0    0  0.45372082503E+02  0.27662732279E+02 -0.24573220289E+03  0.25141234689E+03  0.00000000000E+00 0.  1.
</event>
<event>
 7    1  0.2728221E-009  0.1594095E+03  0.7561462E-02  0.1189365E+00
         -1   -1    0    0    0  501 -0.00000000000E+00  0.00000000000E+00  0.25542463937E+03  0.25542463937E+03  0.00000000000E+00 0. -1.
          1   -1    0    0  501    0  0.00000000000E+00 -0.00000000000E+00 -0.13201078563E+03  0.13201078563E+03  0.00000000000E+00 0.  1.
         25    2    1    2    0    0  0.12025061750E+03  0.80240798737E+02  0.42363714031E+02  0.19581803929E+03  0.12510484985E+03 0.  0.
          5    1    3    3  502    0  0.20973068726E+02  0.91623015698E+01 -0.41539221740E+02  0.47610888719E+02  0.41800000000E+01 0.  1.
         -5    1    3    3    0  502  0.99277548775E+02  0.71078497167E+02  0.83902935771E+02  0.14820715057E+03  0.41800000000E+01 0.  1.
        -11    1    1    2    0    0 -0.13248740972E+03 -0.51499066068E+02  0.62423932101E+02  0.15524759205E+03  0.00000000000E+00 0.  1.
         11    1    1    2    0    0  0.12236792218E+02 -0.28741732669E+02  0.18626207603E+02  0.36369793651E+02  0.00000000000E+00 0. -1.
</event>
<event>
 7    1  0.2728221E-009  0.1026416E+03  0.7561462E-02  0.1274837E+00
          1   -1    0    0  501    0  0.00000000000E+00  0.00000000000E+00  0.24108154537E+03  0.24108154537E+03  0.00000000000E+00 0. -1.
         -1   -1    0    0    0  501 -0.00000000000E+00 -0.00000000000E+00 -0.89021594398E+02  0.89021594398E+02  0.00000000000E+00 0.  1.
         25    2    1    2    0    0 -0.35048736395E+02 -0.63478576264E+02  0.15947238857E+03  0.21526180759E+03  0.12509300350E+03 0.  0.
          5    1    3    3  502    0 -0.45567403189E+02  0.90045836818E+01  0.84939314923E+01  0.47403481231E+02  0.41800000000E+01 0. -1.
         -5    1    3    3    0  502  0.10518666794E+02 -0.72483159946E+02  0.15097845708E+03  0.16785832636E+03  0.41800000000E+01 0. -1.
        -11    1    1    2    0    0 -0.10417233531E+02  0.60810117395E+01  0.30202210181E+02  0.32521853545E+02  0.00000000000E+00 0. -1.
         11    1    1    2    0    0  0.45465969926E+02  0.57397564524E+02 -0.37614647779E+02  0.82319478632E+02  0.00000000000E+00 0.  1.
</event>
<event>
 7    1  0.2728221E-009  0.8492955E+02  0.7561462E-02  0.1315617E+00
         -1   -1    0    0    0  501 -0.00000000000E+00  0.00000000000E+00  0.27280218095E+02  0.27280218095E+02  0.00000000000E+00 0.  1.
          1   -1    0    0  501    0  0.00000000000E+00 -0.00000000000E+00 -0.67809896702E+03  0.67809896702E+03  0.00000000000E+00 0. -1.
         25    2    1    2    0    0  0.66026353505E+01 -0.75939208784E+02 -0.44471175926E+03  0.46821702775E+03  0.12509307745E+03 0.  0.
          5    1    3    3  502    0 -0.15709112670E+02 -0.21305884861E+01  0.45633095407E+00  0.16401105637E+02  0.41800000000E+01 0.  1.
         -5    1    3    3    0  502  0.22311748021E+02 -0.73808620298E+02 -0.44516809022E+03  0.45181592212E+03  0.41800000000E+01 0.  1.
        -11    1    1    2    0    0 -0.18762126017E+01  0.14093086106E+02  0.65430029197E+01  0.15650755155E+02  0.00000000000E+00 0.  1.
         11    1    1    2    0    0 -0.47264227489E+01  0.61846122679E+02 -0.21264999258E+03  0.22151140221E+03  0.00000000000E+00 0. -1.
</event>
<event>
 7    1  0.2728221E-009  0.2720053E+03  0.7561462E-02  0.1100137E+00
         -2   -1    0    0    0  501 -0.00000000000E+00  0.00000000000E+00  0.57044145758E+03  0.57044145758E+03  0.00000000000E+00 0.  1.
          2   -1    0    0  501    0  0.00000000000E+00 -0.00000000000E+00 -0.15023623646E+03  0.15023623646E+03  0.00000000000E+00 0. -1.
         25    2    1    2    0    0  0.25490606639E+03  0.46546911407E+02  0.12636136463E+03  0.31425847508E+03  0.12508987587E+03 0.  0.
          5    1    3    3  502    0  0.26141901307E+03  0.26090564665E+02  0.10289438364E+03  0.28217963169E+03  0.41800000000E+01 0.  1.
         -5    1    3    3    0  502 -0.65129466774E+01  0.20456346742E+02  0.23466980986E+02  0.32078843387E+02  0.41800000000E+01 0.  1.
        -11    1    1    2    0    0 -0.66192298675E+02 -0.17359696529E+02  0.15767454804E+03  0.17188380543E+03  0.00000000000E+00 0.  1.
         11    1    1    2    0    0 -0.18871376771E+03 -0.29187214878E+02  0.13616930845E+03  0.23453541353E+03  0.00000000000E+00 0. -1.
</event>
<event>
 7    1  0.2728221E-009  0.1728485E+03  0.7561462E-02  0.1174909E+00
         -1   -1    0    0    0  501 -0.00000000000E+00  0.00000000000E+00  0.85297448337E+02  0.85297448337E+02  0.00000000000E+00 0.  1.
          1   -1    0    0  501    0  0.00000000000E+00 -0.00000000000E+00 -0.45243564813E+03  0.45243564813E+03  0.00000000000E+00 0. -1.
         25    2    1    2    0    0 -0.37593729348E+02  0.15419808344E+03 -0.24949408994E+03  0.32106420280E+03  0.12507831139E+03 0.  0.
          5    1    3    3  502    0  0.69650925066E+01  0.10494235552E+02 -0.12509793132E+03  0.12579986611E+03  0.41800000000E+01 0.  1.
         -5    1    3    3    0  502 -0.44558821855E+02  0.14370384789E+03 -0.12439615862E+03  0.19526433669E+03  0.41800000000E+01 0.  1.
        -11    1    1    2    0    0 -0.26446367579E+02 -0.19794106911E+02 -0.22990095004E+02  0.40246260631E+02  0.00000000000E+00 0.  1.
         11    1    1    2    0    0  0.64040096927E+02 -0.13440397653E+03 -0.94654014855E+02  0.17642263304E+03  0.00000000000E+00 0. -1.
</event>
<event>
 7    1  0.2728221E-009  0.5946705E+02  0.7561462E-02  0.1400082E+00
         -3   -1    0    0    0  501 -0.00000000000E+00  0.00000000000E+00  0.15531340469E+03  0.15531340469E+03  0.00000000000E+00 0.  1.
          3   -1    0    0  501    0  0.00000000000E+00 -0.00000000000E+00 -0.78111002712E+02  0.78111002712E+02  0.00000000000E+00 0. -1.
         25    2    1    2    0    0 -0.63844865523E+00  0.11265527713E+02  0.69084099701E+02  0.14334273981E+03  0.12508880243E+03 0.  0.
          5    1    3    3  502    0 -0.30735465070E+02 -0.69236622512E+01  0.94533444074E+02  0.99732895077E+02  0.41800000000E+01 0. -1.
         -5    1    3    3    0  502  0.30097016414E+02  0.18189189964E+02 -0.25449344373E+02  0.43609844733E+02  0.41800000000E+01 0. -1.
        -11    1    1    2    0    0  0.22716375261E+02  0.62453201578E+01  0.40686274549E+02  0.47015004685E+02  0.00000000000E+00 0.  1.
         11    1    1    2    0    0 -0.22077926606E+02 -0.17510847870E+02 -0.32567972269E+02  0.43066662909E+02  0.00000000000E+00 0. -1.
</event>
<event>
 7    1  0.2728221E-009  0.9228676E+02  0.7561462E-02  0.1297407E+00
          3   -1    0    0  501    0  0.00000000000E+00  0.00000000000E+00  0.16127988607E+03  0.16127988607E+03  0.00000000000E+00 0. -1.
         -3   -1    0    0    0  501 -0.00000000000E+00 -0.00000000000E+00 -0.99104014532E+02  0.99104014532E+02  0.00000000000E+00 0.  1.
         25    2    1    2    0    0 -0.46158321326E+02  0.24611972169E+02 -0.61114471330E+01  0.13570340642E+03  0.12506688181E+03 0.  0.
          5    1    3    3  502    0 -0.67205989315E+02 -0.54092070333E+01  0.38542596374E+02  0.77774730188E+02  0.41800000000E+01 0.  1.
         -5    1    3    3    0  502  0.21047667989E+02  0.30021179202E+02 -0.44654043507E+02  0.57928676232E+02  0.41800000000E+01 0.  1.
        -11    1    1    2    0    0  0.49751728886E+02 -0.40299130549E+02  0.81652325111E+02  0.10376105554E+03  0.00000000000E+00 0. -1.
         11    1    1    2    0    0 -0.35934075600E+01  0.15687158380E+02 -0.13365006442E+02  0.20919438643E+02  0.00000000000E+00 0.  1.
</event>
<event>
 7    1  0.2728221E-009  0.9585298E+02  0.7561462E-02  0.1289266E+00
          1   -1    0    0  501    0  0.00000000000E+00  0.00000000000E+00  0.97513431721E+03  0.97513431721E+03  0.00000000000E+00 0. -1.
         -1   -1    0    0    0  501 -0.00000000000E+00 -0.00000000000E+00 -0.16408354595E+02  0.16408354595E+02  0.00000000000E+00 0.  1.
         25    2    1    2    0    0 -0.39171482497E+02  0.35918451099E+02  0.39202110808E+03  0.41491178871E+03  0.12508678213E+03 0.  0.
          5    1    3    3  502    0 -0.44609280930E+02 -0.37127527755E+01  0.36185160475E+03  0.36463382830E+03  0.41800000000E+01 0.  1.
         -5    1    3    3    0  502  0.54377984326E+01  0.39631203875E+02  0.30169503323E+02  0.50277960411E+02  0.41800000000E+01 0.  1.
        -11    1    1    2    0    0 -0.27424665506E+02  0.56801723144E+01  0.15099463672E+03  0.15357003924E+03  0.00000000000E+00 0.  1.
         11    1    1    2    0    0  0.66596148003E+02 -0.41598623414E+02  0.41571021782E+03  0.42306084385E+03  0.00000000000E+00 0. -1.
</event>
<event>
 7    1  0.2728221E-009  0.8245045E+02  0.7561462E-02  0.1322238E+00
         -2   -1    0    0    0  501 -0.00000000000E+00  0.00000000000E+00  0.23546521074E+02  0.23546521074E+02  0.00000000000E+00 0.  1.
          2   -1    0    0  501    0  0.00000000000E+00 -0.00000000000E+00 -0.70259253434E+03  0.70259253434E+03  0.00000000000E+00 0. -1.
         25    2    1    2    0    0  0.41892981748E+02 -0.49811205041E+02 -0.44106815353E+03  0.46306035502E+03  0.12509036040E+03 0.  0.
          5    1    3    3  502    0  0.15688388021E+02 -0.45431801458E+02 -0.44667103500E+02  0.65747978201E+02  0.41800000000E+01 0.  1.
         -5    1    3    3    0  502  0.26204593727E+02 -0.43794035834E+01 -0.39640105003E+03  0.39731237681E+03  0.41800000000E+01 0.  1.
        -11    1    1    2    0    0  0.99505908800E+00  0.46752843667E+02 -0.43375346475E+02  0.63782750139E+02  0.00000000000E+00 0.  1.
         11    1    1    2    0    0 -0.42888040836E+02  0.30583613743E+01 -0.19460251327E+03  0.19929595026E+03  0.00000000000E+00 0. -1.
</event>
<event>
 7    1  0.2728221E-009  0.9091293E+02  0.7561462E-02  0.1300656E+00
         -1   -1    0    0    0  501 -0.00000000000E+00  0.00000000000E+00  0.17541455721E+03  0.17541455721E+03  0.00000000000E+00 0.  1.
          1   -1    0    0  501    0  0.00000000000E+00 -0.00000000000E+00 -0.99319753453E+02  0.99319753453E+02  0.00000000000E+00 0. -1.
         25    2    1    2    0    0 -0.12036578518E+02 -0.15549038439E+02 -0.33438086451E+02  0.13096293855E+03  0.12508610566E+03 0.  0.
          5    1    3    3  502    0  0.36278201497E+02 -0.29760103148E+02 -0.58044781004E+02  0.74755873649E+02  0.41800000000E+01 0. -1.
         -5    1    3    3    0  502 -0.48314780015E+02  0.14211064709E+02  0.24606694553E+02  0.56207064902E+02  0.41800000000E+01 0. -1.
        -11    1    1    2    0    0 -0.10068189275E+02  0.45700361254E+02  0.90353018546E+02  0.10175244181E+03  0.00000000000E+00 0.  1.
         11    1    1    2    0    0  0.22104767793E+02 -0.30151322815E+02  0.19179871661E+02  0.42018930300E+02  0.00000000000E+00 0. -1.
</event>
<event>
 7    1  0.2728221E-009  0.7853214E+02  0.7561462E-02  0.1333269E+00
         -3   -1    0    0    0  501 -0.00000000000E+00  0.00000000000E+00  0.87982271568E+02  0.87982271568E+02  0.00000000000E+00 0.  1.
          3   -1    0    0  501    0  0.00000000000E+00 -0.00000000000E+00 -0.13717420065E+03  0.13717420065E+03  0.00000000000E+00 0. -1.
         25    2    1    2    0    0  0.15812403805E+02 -0.16503214824E+02 -0.25222235217E+02  0.12963786886E+03  0.12508967854E+03 0.  0.
          5    1    3    3  502    0 -0.50557030408E+02  0.53400168313E+01  0.88784640905E+01  0.51776718978E+02  0.41800000000E+01 0.  1.
         -5    1    3    3    0  502  0.66369434213E+02 -0.21843231655E+02 -0.34100699308E+02  0.77861149877E+02  0.41800000000E+01 0.  1.
        -11    1    1    2    0    0 -0.27632463279E+01  0.21800289387E+02  0.31433754856E+02  0.38353214885E+02  0.00000000000E+00 0.  1.
         11    1    1    2    0    0 -0.13049157477E+02 -0.52970745632E+01 -0.55403448716E+02  0.57165388475E+02  0.00000000000E+00 0. -1.
</event>
<event>
 7    1  0.4351327E-009  0.1167226E+03  0.7561462E-02  0.1248604E+00
          2   -1    0    0  501    0  0.00000000000E+00  0.00000000000E+00  0.19516249883E+04  0.19516249883E+04  0.00000000000E+00 0. -1.
         -2   -1    0    0    0  501 -0.00000000000E+00 -0.00000000000E+00 -0.93160885429E+01  0.93160885429E+01  0.00000000000E+00 0.  1.
         25    2    1    2    0    0  0.47063695103E+02 -0.26229828349E+02  0.14905556572E+04  0.14967649284E+04  0.12508432449E+03 0.  0.
          5    1    3    3  502    0  0.67691963637E+02  0.24392939252E+02  0.11028018592E+04  0.11051545731E+04  0.41800000000E+01 0.  1.
         -5    1    3    3    0  502 -0.20628268534E+02 -0.50622767601E+02  0.38775379809E+03  0.39161035532E+03  0.41800000000E+01 0.  1.
        -11    1    1    2    0    0  0.17988213355E+02  0.36497722013E+02  0.18347319312E+03  0.18793103023E+03  0.00000000000E+00 0. -1.
         11    1    1    2    0    0 -0.65051908458E+02 -0.10267893664E+02  0.26828004938E+03  0.27624511820E+03  0.00000000000E+00 0.  1.
</event>
<event>
 7    1  0.2787639E-009  0.1188297E+03  0.7561462E-02  0.1245040E+00
         -2   -1    0    0    0  501 -0.00000000000E+00  0.00000000000E+00  0.27772075637E+02  0.27772075637E+02  0.00000000000E+00 0.  1.
          2   -1    0    0  501    0  0.00000000000E+00 -0.00000000000E+00 -0.61060777113E+03  0.61060777113E+03  0.00000000000E+00 0. -1.
         25    2    1    2    0    0  0.48096166482E+02 -0.51287455064E+02 -0.37067186099E+03  0.39747893556E+03  0.12509289110E+03 0.  0.
          5    1    3    3  502    0  0.32086781302E+01 -0.79658669915E+02 -0.14416543277E+03  0.16479363979E+03  0.41800000000E+01 0.  1.
         -5    1    3    3    0  502  0.44887488352E+02  0.28371214851E+02 -0.22650642822E+03  0.23268529577E+03  0.41800000000E+01 0.  1.
        -11    1    1    2    0    0  0.19354519848E+02  0.26247946848E+02 -0.27303332072E+02  0.42532623885E+02  0.00000000000E+00 0.  1.
         11    1    1    2    0    0 -0.67450686331E+02  0.25039508216E+02 -0.18486050242E+03  0.19836828732E+03  0.00000000000E+00 0. -1.
</event>
<event>
 7    1  0.2728221E-009  0.2915568E+03  0.7561462E-02  0.1089539E+00
         -2   -1    0    0    0  501 -0.00000000000E+00  0.00000000000E+00  0.33563946808E+03  0.33563946808E+03  0.00000000000E+00 0.  1.
          2   -1    0    0  501    0  0.00000000000E+00 -0.00000000000E+00 -0.26863733291E+03  0.26863733291E+03  0.00000000000E+00 0. -1.
         25    2    1    2    0    0  0.15161805294E+03 -0.23442272334E+03  0.14734442037E+02  0.30627966653E+03  0.12509229855E+03 0.  0.
          5    1    3    3  502    0 -0.44963692291E+01 -0.54421732262E+02 -0.32006262186E+02  0.63433551830E+02  0.41800000000E+01 0. -1.
         -5    1    3    3    0  502  0.15611442216E+03 -0.18000099108E+03  0.46740704222E+02  0.24284611470E+03  0.41800000000E+01 0. -1.
        -11    1    1    2    0    0 -0.16680575316E+02 -0.30036991004E+01 -0.73485960552E+01  0.18473377199E+02  0.00000000000E+00 0.  1.
         11    1    1    2    0    0 -0.13493747762E+03  0.23742642244E+03  0.59616289186E+02  0.27952375726E+03  0.00000000000E+00 0. -1.
</event>
<event>
 7    1  0.2728221E-009  0.1913715E+03  0.7561462E-02  0.1157230E+00
         -2   -1    0    0    0  501 -0.00000000000E+00  0.00000000000E+00  0.28136447469E+02  0.28136447469E+02  0.00000000000E+00 0.  1.
          2   -1    0    0  501    0  0.00000000000E+00 -0.00000000000E+00 -0.17317944881E+04  0.17317944881E+04  0.00000000000E+00 0. -1.
         25    2    1    2    0    0 -0.15391300430E+03  0.11207361456E+03 -0.78529345831E+03  0.81766846311E+03  0.12508473900E+03 0.  0.
          5    1    3    3  502    0 -0.21506919919E+02  0.62498779427E+01 -0.11507817279E+02  0.25524710326E+02  0.41800000000E+01 0.  1.
         -5    1    3    3    0  502 -0.13240608438E+03  0.10582373662E+03 -0.77378564103E+03  0.79214375279E+03  0.41800000000E+01 0.  1.
        -11    1    1    2    0    0  0.12133991924E+03 -0.87132874539E+02 -0.84591507571E+03  0.85900397504E+03  0.00000000000E+00 0.  1.
         11    1    1    2    0    0  0.32573085056E+02 -0.24940740020E+02 -0.72449506579E+02  0.83258497382E+02  0.00000000000E+00 0. -1.
</event>
<event>
 7    1  0.2728221E-009  0.8835092E+02  0.7561462E-02  0.1306895E+00
         -2   -1    0    0    0  501 -0.00000000000E+00  0.00000000000E+00  0.77744770802E+02  0.77744770802E+02  0.00000000000E+00 0.  1.
          2   -1    0    0  501    0  0.00000000000E+00 -0.00000000000E+00 -0.19088266880E+03  0.19088266880E+03  0.00000000000E+00 0. -1.
         25    2    1    2    0    0  0.11738940078E+02 -0.32266020594E+02 -0.11111382519E+03  0.17080776057E+03  0.12510040017E+03 0.  0.
          5    1    3    3  502    0 -0.54505019139E+02  0.56423463417E+00 -0.57824978897E+02  0.79575850964E+02  0.41800000000E+01 0. -1.
         -5    1    3    3    0  502  0.66243959218E+02 -0.32830255228E+02 -0.53288846291E+02  0.91231909605E+02  0.41800000000E+01 0. -1.
        -11    1    1    2    0    0 -0.23562552389E+02  0.23366901625E+02 -0.42963986746E+02  0.54287292470E+02  0.00000000000E+00 0. -1.
         11    1    1    2    0    0  0.11823612310E+02  0.88991189693E+01  0.40939913938E+02  0.43532386562E+02  0.00000000000E+00 0.  1.
</event>
<event>
 7    1  0.2728221E-009  0.1568390E+03  0.7561462E-02  0.1192312E+00
          2   -1    0    0  501    0  0.00000000000E+00  0.00000000000E+00  0.82335391282E+02  0.82335391282E+02  0.00000000000E+00 0. -1.
         -2   -1    0    0    0  501 -0.00000000000E+00 -0.00000000000E+00 -0.31533169783E+03  0.31533169783E+03  0.00000000000E+00 0.  1.
         25    2    1    2    0    0 -0.11828384946E+03 -0.25093800726E+01 -0.13927894781E+03  0.22145753880E+03  0.12508976840E+03 0.  0.
          5    1    3    3  502    0  0.17973200446E+02  0.21763302416E+02 -0.47256066443E+02  0.55202223524E+02  0.41800000000E+01 0. -1.
         -5    1    3    3    0  502 -0.13625704990E+03 -0.24272682488E+02 -0.92022881366E+02  0.16625531528E+03  0.41800000000E+01 0. -1.
        -11    1    1    2    0    0  0.20675075966E+02  0.37637261098E+02 -0.13306241758E+02  0.44956403981E+02  0.00000000000E+00 0.  1.
         11    1    1    2    0    0  0.97608773490E+02 -0.35127881025E+02 -0.80411116984E+02  0.13125314633E+03  0.00000000000E+00 0. -1.
</event>
<event>
 6    1  0.2728221E-009  0.8741664E+02  0.7561462E-02  0.1309231E+00
         -1   -1    0    0    0  501 -0.00000000000E+00  0.00000000000E+00  0.27956906045E+02  0.27956906045E+02  0.00000000000E+00 0.  1.
          1   -1    0    0  501    0  0.00000000000E+00 -0.00000000000E+00 -0.75542513371E+03  0.75542513371E+03  0.00000000000E+00 0. -1.
          5    1    1    2  502    0 -0.67108654854E+02  0.26359780894E+02 -0.36375145665E+03  0.37085172808E+03  0.41800000000E+01 0. -1.
         -5    1    1    2    0  502  0.49630845393E+02 -0.21127992812E+02 -0.28023302554E+03  0.28540783784E+03  0.41800000000E+01 0. -1.
        -11    1    1    2    0    0  0.17695617997E+02  0.18020620777E+02 -0.96994597246E+02  0.10022888588E+03  0.00000000000E+00 0. -1.
         11    1    1    2    0    0 -0.21780853696E+00 -0.23252408859E+02  0.13510851765E+02  0.26893587967E+02  0.00000000000E+00 0.  1.
</event>
<event>
 7    1  0.2728221E-009  0.9733573E+02  0.7561462E-02  0.1286000E+00
         -1   -1    0    0    0  501 -0.00000000000E+00  0.00000000000E+00  0.34384215745E+02  0.34384215745E+02  0.00000000000E+00 0.  1.
          1   -1    0    0  501    0  0.00000000000E+00 -0.00000000000E+00 -0.41700083702E+03  0.41700083702E+03  0.00000000000E+00 0. -1.
         25    2    1    2    0    0 -0.39597407330E+01  0.17466776254E+02 -0.29263413164E+03  0.31875601820E+03  0.12509954562E+03 0.  0.
          5    1    3    3  502    0 -0.27078171093E+02  0.50516634363E+02 -0.61814723034E+02  0.84401955433E+02  0.41800000000E+01 0.  1.
         -5    1    3    3    0  502  0.23118430360E+02 -0.33049858109E+02 -0.23081940861E+03  0.23435406276E+03  0.41800000000E+01 0.  1.
        -11    1    1    2    0    0 -0.34773063427E+02 -0.39070429843E+02 -0.56987449357E+02  0.77351365938E+02  0.00000000000E+00 0.  1.
         11    1    1    2    0    0  0.38732804160E+02  0.21603653590E+02 -0.32995040277E+02  0.55277668632E+02  0.00000000000E+00 0. -1.
</event>
<event>
 7    1  0.2728221E-009  0.1066226E+03  0.7561462E-02  0.1266955E+00
          2   -1    0    0  501    0  0.00000000000E+00  0.00000000000E+00  0.10338975636E+04  0.10338975636E+04  0.00000000000E+00 0.  1.
         -2   -1    0    0    0  501 -0.00000000000E+00 -0.00000000000E+00 -0.12391418474E+02  0.12391418474E+02  0.00000000000E+00 0. -1.
         25    2    1    2    0    0  0.26063515786E+01 -0.13163697762E+02  0.70634204043E+03  0.71745971696E+03  0.12509712777E+03 0.  0.
          5    1    3    3  502    0 -0.44931496040E+02  0.31748518178E+02  0.42611352508E+03  0.42967082331E+03  0.41800000000E+01 0.  1.
         -5    1    3    3    0  502  0.47537847619E+02 -0.44912215940E+02  0.28022851535E+03  0.28778889365E+03  0.41800000000E+01 0.  1.
        -11    1    1    2    0    0  0.44484721029E+02  0.53914488998E+01  0.17971069664E+03  0.18521310054E+03  0.00000000000E+00 0. -1.
         11    1    1    2    0    0 -0.47091072608E+02  0.77722488625E+01  0.13545340806E+03  0.14361616457E+03  0.00000000000E+00 0.  1.
</event>
<event>
 7    1  0.2728221E-009  0.2085143E+03  0.7561462E-02  0.1142748E+00
          1   -1    0    0  501    0  0.00000000000E+00  0.00000000000E+00  0.46609171840E+02  0.46609171840E+02  0.00000000000E+00 0. -1.
         -1   -1    0    0    0  501 -0.00000000000E+00 -0.00000000000E+00 -0.11550144693E+04  0.11550144693E+04  0.00000000000E+00 0.  1.
         25    2    1    2    0    0 -0.35518186207E+02 -0.17865361921E+03 -0.32898527837E+03  0.39630507702E+03  0.12509094083E+03 0.  0.
          5    1    3    3  502    0  0.14132352584E+02 -0.16876212790E+03 -0.23858894219E+03  0.29261328565E+03  0.41800000000E+01 0.  1.
         -5    1    3    3    0  502 -0.49650538791E+02 -0.98914913061E+01 -0.90396336175E+02  0.10369179136E+03  0.41800000000E+01 0.  1.
        -11    1    1    2    0    0 -0.27781363847E+01  0.14731508755E+03 -0.48909653200E+03  0.51080805659E+03  0.00000000000E+00 0.  1.
         11    1    1    2    0    0  0.38296322592E+02  0.31338531662E+02 -0.29032348706E+03  0.29451050750E+03  0.00000000000E+00 0. -1.
</event>
<event>
 7    1  0.2728221E-009  0.9206277E+02  0.7561462E-02  0.1297932E+00
         -1   -1    0    0    0  501 -0.00000000000E+00  0.00000000000E+00  0.39998803447E+02  0.39998803447E+02  0.00000000000E+00 0.  1.
          1   -1    0    0  501    0  0.00000000000E+00 -0.00000000000E+00 -0.33858430939E+03  0.33858430939E+03  0.00000000000E+00 0. -1.
         25    2    1    2    0    0 -0.34297852873E+02  0.24206394978E+02 -0.18776205386E+03  0.22948526017E+03  0.12508638414E+03 0.  0.
          5    1    3    3  502    0 -0.85978619897E+01 -0.47384359819E+02 -0.38092905069E+02  0.61544639107E+02  0.41800000000E+01 0. -1.
         -5    1    3    3    0  502 -0.25699990883E+02  0.71590754796E+02 -0.14966914879E+03  0.16794062106E+03  0.41800000000E+01 0. -1.
        -11    1    1    2    0    0  0.22963612184E+02  0.88899401573E+01 -0.11142084589E+03  0.11410943615E+03  0.00000000000E+00 0. -1.
         11    1    1    2    0    0  0.11334240689E+02 -0.33096335135E+02  0.59739379711E+00  0.34988416522E+02  0.00000000000E+00 0.  1.
</event>
<event>
 7    1  0.2728221E-009  0.7874306E+02  0.7561462E-02  0.1332657E+00
         -2   -1    0    0    0  501 -0.00000000000E+00  0.00000000000E+00  0.96766999539E+02  0.96766999539E+02  0.00000000000E+00 0.  1.
          2   -1    0    0  501    0  0.00000000000E+00 -0.00000000000E+00 -0.12633255499E+03  0.12633255499E+03  0.00000000000E+00 0. -1.
         25    2    1    2    0    0  0.88443372523E+01  0.17639306211E+02  0.10254778571E+02  0.12705777682E+03  0.12509656567E+03 0.  0.
          5    1    3    3  502    0 -0.33988279005E+02 -0.79361210170E+00  0.53366907685E+02  0.63413974531E+02  0.41800000000E+01 0.  1.
         -5    1    3    3    0  502  0.42832616257E+02  0.18432918313E+02 -0.43112129115E+02  0.63643802289E+02  0.41800000000E+01 0.  1.
        -11    1    1    2    0    0 -0.38906769127E+02  0.43780393396E+01  0.30134764753E+01  0.39268116237E+02  0.00000000000E+00 0.  1.
         11    1    1    2    0    0  0.30062431875E+02 -0.22017345551E+02 -0.42833810496E+02  0.56773661472E+02  0.00000000000E+00 0. -1.
</event>
<event>
 7    1  0.2728221E-009  0.1347984E+03  0.7561462E-02  0.1220505E+00
          2   -1    0    0  501    0  0.00000000000E+00  0.00000000000E+00  0.37315872456E+03  0.37315872456E+03  0.00000000000E+00 0. -1.
         -2   -1    0    0    0  501 -0.00000000000E+00 -0.00000000000E+00 -0.63540321073E+02  0.63540321073E+02  0.00000000000E+00 0.  1.
         25    2    1    2    0    0 -0.53615031728E+02 -0.90761639795E+02  0.20632489146E+03  0.26330498259E+03  0.12508919271E+03 0.  0.
          5    1    3    3  502    0 -0.82463028064E+02 -0.96068574907E+02  0.13037830069E+03  0.18178365100E+03  0.41800000000E+01 0. -1.
         -5    1    3    3    0  502  0.28847996336E+02  0.53069351126E+01  0.75946590775E+02  0.81521331584E+02  0.41800000000E+01 0. -1.
        -11    1    1    2    0    0  0.55826126838E+02  0.58164576001E+02  0.18771412880E+02  0.82777051655E+02  0.00000000000E+00 0.  1.
         11    1    1    2    0    0 -0.22110951104E+01  0.32597063794E+02  0.84522099149E+02  0.90617011395E+02  0.00000000000E+00 0. -1.
</event>
<event>
 7    1  0.2728221E-009  0.1188123E+03  0.7561462E-02  0.1245069E+00
         -3   -1    0    0    0  501 -0.00000000000E+00  0.00000000000E+00  0.16774697717E+03  0.16774697717E+03  0.00000000000E+00 0.  1.
          3   -1    0    0  501    0  0.00000000000E+00 -0.00000000000E+00 -0.10190720958E+03  0.10190720958E+03  0.00000000000E+00 0. -1.
         25    2    1    2    0    0  0.37757055907E+02 -0.48947429977E+02  0.75314346407E+02  0.15856040096E+03  0.12509078226E+03 0.  0.
          5    1    3    3  502    0 -0.19297089094E+02 -0.73769697166E+02  0.49878152597E+02  0.91212106510E+02  0.41800000000E+01 0. -1.
         -5    1    3    3    0  502  0.57054145001E+02  0.24822267188E+02  0.25436193810E+02  0.67348294453E+02  0.41800000000E+01 0. -1.
        -11    1    1    2    0    0  0.15917458994E+02  0.41826903547E+02 -0.29234885629E+02  0.53455906118E+02  0.00000000000E+00 0. -1.
         11    1    1    2    0    0 -0.53674514902E+02  0.71205264309E+01  0.19760306816E+02  0.57637879663E+02  0.00000000000E+00 0.  1.
</event>
<event>
 7    1  0.2728221E-009  0.1231858E+03  0.7561462E-02  0.1237932E+00
         -3   -1    0    0    0  501 -0.00000000000E+00  0.00000000000E+00  0.84285302253E+02  0.84285302253E+02  0.00000000000E+00 0.  1.
          3   -1    0    0  501    0  0.00000000000E+00 -0.00000000000E+00 -0.26705445275E+03  0.26705445275E+03  0.00000000000E+00 0. -1.
         25    2    1    2    0    0 -0.10094818220E+03 -0.15202178925E+02 -0.12302319414E+03  0.20298823774E+03  0.12509147306E+03 0.  0.
          5    1    3    3  502    0 -0.20760751006E+02  0.41044702630E+02 -0.87080132042E+02  0.98570270329E+02  0.41800000000E+01 0. -1.
         -5    1    3    3    0  502 -0.80187431191E+02 -0.56246881555E+02 -0.35943062098E+02  0.10441796741E+03  0.41800000000E+01 0. -1.
        -11    1    1    2    0    0  0.89387557676E+02  0.14604803844E+02 -0.31963252241E+01  0.90629202013E+02  0.00000000000E+00 0.  1.
         11    1    1    2    0    0  0.11560624520E+02  0.59737508147E+00 -0.56549631131E+02  0.57722315246E+02  0.00000000000E+00 0. -1.
</event>
<event>
 7    1  0.2728221E-009  0.2517428E+03  0.7561462E-02  0.1112208E+00
         -1   -1    0    0    0  501 -0.00000000000E+00  0.00000000000E+00  0.26381455601E+03  0.26381455601E+03  0.00000000000E+00 0.  1.
          1   -1    0    0  501    0  0.00000000000E+00 -0.00000000000E+00 -0.29335804623E+03  0.29335804623E+03  0.00000000000E+00 0. -1.
         25    2    1    2    0    0  0.81576529292E+02 -0.23142970826E+03 -0.87310891003E+02  0.28893879110E+03  0.12509193945E+03 0.  0.
          5    1    3    3  502    0  0.47941898748E+01 -0.34479535193E+02  0.30876244448E+02  0.46718705835E+02  0.41800000000E+01 0. -1.
         -5    1    3    3    0  502  0.76782339417E+02 -0.19695017307E+03 -0.11818713545E+03  0.24222008526E+03  0.41800000000E+01 0. -1.
        -11    1    1    2    0    0 -0.58858552541E+02  0.59938868863E+02 -0.51365899295E+01  0.84162828873E+02  0.00000000000E+00 0.  1.
         11    1    1    2    0    0 -0.22717976751E+02  0.17149083940E+03  0.62903990716E+02  0.18407098227E+03  0.00000000000E+00 0. -1.
</event>
<event>
 7    1  0.2728221E-009  0.9816896E+02  0.7561462E-02  0.1284194E+00
         -2   -1    0    0    0  501 -0.00000000000E+00  0.00000000000E+00  0.66174249208E+02  0.66174249208E+02  0.00000000000E+00 0.  1.
          2   -1    0    0  501    0  0.00000000000E+00 -0.00000000000E+00 -0.19720236486E+03  0.19720236486E+03  0.00000000000E+00 0. -1.
         25    2    1    2    0    0  0.23964651904E+02 -0.14534683118E+02 -0.89486084006E+02  0.15633555719E+03  0.12508991030E+03 0.  0.
          5    1    3    3  502    0  0.64305459760E+02 -0.11385085135E+02 -0.88700071371E+01  0.66037578280E+02  0.41800000000E+01 0. -1.
         -5    1    3    3    0  502 -0.40340807857E+02 -0.31495979822E+01 -0.80616076869E+02  0.90297978912E+02  0.41800000000E+01 0. -1.
        -11    1    1    2    0    0 -0.17503432194E+02  0.50619940922E+02 -0.26960980478E+01  0.53628513891E+02  0.00000000000E+00 0.  1.
         11    1    1    2    0    0 -0.64612197101E+01 -0.36085257804E+02 -0.38845933602E+02  0.53412542987E+02  0.00000000000E+00 0. -1.
</event>
<event>
 7    1  0.2728221E-009  0.1227341E+03  0.7561462E-02  0.1238654E+00
          2   -1    0    0  501    0  0.00000000000E+00  0.00000000000E+00  0.16186910399E+03  0.16186910399E+03  0.00000000000E+00 0. -1.
         -2   -1    0    0    0  501 -0.00000000000E+00 -0.00000000000E+00 -0.14439714060E+03  0.14439714060E+03  0.00000000000E+00 0.  1.
         25    2    1    2    0    0 -0.10425487585E+03  0.28414225323E+01  0.50040507607E+02  0.17039933347E+03  0.12511885399E+03 0.  0.
          5    1    3    3  502    0 -0.45045323441E+02 -0.39464339259E+02  0.72498393633E+02  0.94127598060E+02  0.41800000000E+01 0.  1.
         -5    1    3    3    0  502 -0.59209552409E+02  0.42305761791E+02 -0.22457886026E+02  0.76271735407E+02  0.41800000000E+01 0.  1.
        -11    1    1    2    0    0  0.50584893672E+02 -0.22532392682E+02  0.19331994649E+02  0.58653782528E+02  0.00000000000E+00 0. -1.
         11    1    1    2    0    0  0.53669982179E+02  0.19690970149E+02 -0.51900538865E+02  0.77213128592E+02  0.00000000000E+00 0.  1.
</event>
<event>
 7    1  0.2728221E-009  0.8280850E+02  0.7561462E-02  0.1321265E+00
          2   -1    0    0  501    0  0.00000000000E+00  0.00000000000E+00  0.99715223527E+02  0.99715223527E+02  0.00000000000E+00 0. -1.
         -2   -1    0    0    0  501 -0.00000000000E+00 -0.00000000000E+00 -0.13976580204E+03  0.13976580204E+03  0.00000000000E+00 0.  1.
         25    2    1    2    0    0 -0.32446660431E+02  0.37554392518E+02 -0.22131233254E+02  0.13638464923E+03  0.12509141813E+03 0.  0.
          5    1    3    3  502    0 -0.22149843756E+02 -0.19470199321E+02  0.40943058369E+02  0.50631123517E+02  0.41800000000E+01 0.  1.
         -5    1    3    3    0  502 -0.10296816675E+02  0.57024591839E+02 -0.63074291622E+02  0.85753525710E+02  0.41800000000E+01 0.  1.
        -11    1    1    2    0    0 -0.17748871050E+02 -0.78438913800E+01  0.24295408077E+02  0.31093663489E+02  0.00000000000E+00 0. -1.
         11    1    1    2    0    0  0.50195531482E+02 -0.29710501138E+02 -0.42214753334E+02  0.72002712849E+02  0.00000000000E+00 0.  1.
</event>
<event>
 7    1  0.2728221E-009  0.1675229E+03  0.7561462E-02  0.1180456E+00
          2   -1    0    0  501    0  0.00000000000E+00  0.00000000000E+00  0.57779168822E+03  0.57779168822E+03  0.00000000000E+00 0. -1.
         -2   -1    0    0    0  501 -0.00000000000E+00 -0.00000000000E+00 -0.62922013869E+02  0.62922013869E+02  0.00000000000E+00 0.  1.
         25    2    1    2    0    0  0.12650002567E+03  0.70247695802E+02  0.37113416174E+03  0.41752272969E+03  0.12509064129E+03 0.  0.
          5    1    3    3  502    0 -0.86355726307E+01  0.26028651381E+02  0.10177908381E+02  0.29548706002E+02  0.41800000000E+01 0.  1.
         -5    1    3    3    0  502  0.13513559830E+03  0.44219044420E+02  0.36095625336E+03  0.38797402369E+03  0.41800000000E+01 0.  1.
        -11    1    1    2    0    0 -0.11716895373E+03 -0.86962474311E+02  0.14258492379E+03  0.20401347051E+03  0.00000000000E+00 0.  1.
         11    1    1    2    0    0 -0.93310719416E+01  0.16714778509E+02  0.11505888211E+01  0.19177501892E+02  0.00000000000E+00 0. -1.
</event>
<event>
 7    1  0.2728221E-009  0.1096253E+03  0.7561462E-02  0.1261265E+00
         -2   -1    0    0    0  501 -0.00000000000E+00  0.00000000000E+00  0.97911042967E+02  0.97911042967E+02  0.00000000000E+00 0.  1.
          2   -1    0    0  501    0  0.00000000000E+00 -0.00000000000E+00 -0.27687008456E+03  0.27687008456E+03  0.00000000000E+00 0. -1.
         25    2    1    2    0    0 -0.44312919540E+02  0.68803177781E+02  0.10463411258E+02  0.14984572157E+03  0.12508695050E+03 0.  0.
          5    1    3    3  502    0  0.78224852650E+01 -0.25159467417E+02 -0.25050273921E+02  0.36594790612E+02  0.41800000000E+01 0.  1.
         -5    1    3    3    0  502 -0.52135404805E+02  0.93962645198E+02  0.35513685179E+02  0.11325093095E+03  0.41800000000E+01 0.  1.
        -11    1    1    2    0    0  0.14526324819E+02 -0.43797858737E+02 -0.18616471425E+02  0.49757808945E+02  0.00000000000E+00 0.  1.
         11    1    1    2    0    0  0.29786594721E+02 -0.25005319044E+02 -0.17080598142E+03  0.17517759701E+03  0.00000000000E+00 0. -1.
</event>
<event>
 7    1  0.2728221E-009  0.1030791E+03  0.7561462E-02  0.1273951E+00
         -1   -1    0    0    0  501 -0.00000000000E+00  0.00000000000E+00  0.63225370181E+02  0.63225370181E+02  0.00000000000E+00 0.  1.
          1   -1    0    0  501    0  0.00000000000E+00 -0.00000000000E+00 -0.24317939407E+03  0.24317939407E+03  0.00000000000E+00 0. -1.
         25    2    1    2    0    0  0.42561776120E+02 -0.32975031973E+01 -0.14861124559E+03  0.19888486516E+03  0.12509000343E+03 0.  0.
          5    1    3    3  502    0  0.31716964326E+02 -0.55057282703E+02 -0.33080565011E+02  0.71756995381E+02  0.41800000000E+01 0.  1.
         -5    1    3    3    0  502  0.10844811794E+02  0.51759779506E+02 -0.11553068058E+03  0.12712786977E+03  0.41800000000E+01 0.  1.
        -11    1    1    2    0    0 -0.64607939028E+02  0.12032855849E+02  0.29977866326E+01  0.65787248993E+02  0.00000000000E+00 0.  1.
         11    1    1    2    0    0  0.22046162908E+02 -0.87353526516E+01 -0.34340564923E+02  0.41732650098E+02  0.00000000000E+00 0. -1.
</event>
<event>
 7    1  0.2728221E-009  0.1302351E+03  0.7561462E-02  0.1227107E+00
          4   -1    0    0  501    0  0.00000000000E+00  0.00000000000E+00  0.27290113644E+02  0.27290113644E+02  0.00000000000E+00 0. -1.
         -4   -1    0    0    0  501 -0.00000000000E+00 -0.00000000000E+00 -0.72782616947E+03  0.72782616947E+03  0.00000000000E+00 0.  1.
         25    2    1    2    0    0  0.42267170545E+02  0.76201134425E+02 -0.42510034455E+03  0.45160944331E+03  0.12509060620E+03 0.  0.
          5    1    3    3  502    0  0.41606412297E+02 -0.24034678131E+02 -0.18942580448E+03  0.19546960659E+03  0.41800000000E+01 0. -1.
         -5    1    3    3    0  502  0.66075824771E+00  0.10023581256E+03 -0.23567454007E+03  0.25613983672E+03  0.41800000000E+01 0. -1.
        -11    1    1    2    0    0 -0.53052767016E+02 -0.23333098094E+02 -0.21414627346E+03  0.22185052623E+03  0.00000000000E+00 0.  1.
         11    1    1    2    0    0  0.10785596471E+02 -0.52868036332E+02 -0.61289437815E+02  0.81656313562E+02  0.00000000000E+00 0. -1.
</event>
<event>
 7    1  0.2728221E-009  0.7869246E+02  0.7561462E-02  0.1332804E+00
         -2   -1    0    0    0  501 -0.00000000000E+00  0.00000000000E+00  0.53298344494E+02  0.53298344494E+02  0.00000000000E+00 0. -1.
          2   -1    0    0  501    0  0.00000000000E+00 -0.00000000000E+00 -0.31215015321E+03  0.31215015321E+03  0.00000000000E+00 0.  1.
         25    2    1    2    0    0  0.17105142542E+02 -0.37111410354E+02 -0.63702749092E+02  0.14620042162E+03  0.12508669138E+03 0.  0.
          5    1    3    3  502    0  0.11462212241E+02 -0.48034406935E+02 -0.97840409904E+02  0.10967636377E+03  0.41800000000E+01 0.  1.
         -5    1    3    3    0  502  0.56429303007E+01  0.10922996581E+02  0.34137660812E+02  0.36524057857E+02  0.41800000000E+01 0.  1.
        -11    1    1    2    0    0 -0.26892607902E+02  0.62278287772E+02 -0.16694703552E+03  0.18020296934E+03  0.00000000000E+00 0.  1.
         11    1    1    2    0    0  0.97874653598E+01 -0.25166877419E+02 -0.28202024099E+02  0.39045106742E+02  0.00000000000E+00 0. -1.
</event>
<event>
 7    1  0.2728221E-009  0.8781009E+02  0.7561462E-02  0.1308243E+00
         -2   -1    0    0    0  501 -0.00000000000E+00  0.00000000000E+00  0.74634738761E+02  0.74634738761E+02  0.00000000000E+00 0. -1.
          2   -1    0    0  501    0  0.00000000000E+00 -0.00000000000E+00 -0.22827771112E+03  0.22827771112E+03  0.00000000000E+00 0.  1.
         25    2    1    2    0    0 -0.42709622632E+02 -0.39569191848E+02 -0.12641595424E+03  0.18713027150E+03  0.12508761816E+03 0.  0.
          5    1    3    3  502    0 -0.20304418174E+02 -0.64228732446E+02 -0.12849588238E+02  0.68703593697E+02  0.41800000000E+01 0.  1.
         -5    1    3    3    0  502 -0.22405204458E+02  0.24659540598E+02 -0.11356636600E+03  0.11842667780E+03  0.41800000000E+01 0.  1.
        -11    1    1    2    0    0  0.13971753346E+02  0.43366921131E+02 -0.57835058571E+02  0.73626039822E+02  0.00000000000E+00 0.  1.
         11    1    1    2    0    0  0.28737869286E+02 -0.37977292826E+01  0.30608040444E+02  0.42156138564E+02  0.00000000000E+00 0. -1.
</event>
<event>
 7    1  0.2728221E-009  0.1115855E+03  0.7561462E-02  0.1257662E+00
          2   -1    0    0  501    0  0.00000000000E+00  0.00000000000E+00  0.90792881845E+02  0.90792881845E+02  0.00000000000E+00 0. -1.
         -2   -1    0    0    0  501 -0.00000000000E+00 -0.00000000000E+00 -0.18567242063E+03  0.18567242063E+03  0.00000000000E+00 0.  1.
         25    2    1    2    0    0  0.46354811116E+02 -0.38055978402E+02 -0.14310533770E+02  0.13946258452E+03  0.12509194657E+03 0.  0.
          5    1    3    3  502    0  0.63987631951E+01 -0.70823114721E+02  0.23815676365E+02  0.75110029889E+02  0.41800000000E+01 0. -1.
         -5    1    3    3    0  502  0.39956047921E+02  0.32767136319E+02 -0.38126210135E+02  0.64352554629E+02  0.41800000000E+01 0. -1.
        -11    1    1    2    0    0 -0.68117118305E+02  0.17895201195E+02 -0.26345973680E+02  0.75195015533E+02  0.00000000000E+00 0. -1.
         11    1    1    2    0    0  0.21762307189E+02  0.20160777208E+02 -0.54223031333E+02  0.61807702422E+02  0.00000000000E+00 0.  1.
</event>
<event>
 7    1  0.2728221E-009  0.9996732E+02  0.7561462E-02  0.1280365E+00
          2   -1    0    0  501    0  0.00000000000E+00  0.00000000000E+00  0.14143469476E+02  0.14143469476E+02  0.00000000000E+00 0.  1.
         -2   -1    0    0    0  501 -0.00000000000E+00 -0.00000000000E+00 -0.96037868419E+03  0.96037868419E+03  0.00000000000E+00 0. -1.
         25    2    1    2    0    0 -0.43168136919E+02  0.19330979844E+02 -0.60048139194E+03  0.61519551808E+03  0.12510175288E+03 0.  0.
          5    1    3    3  502    0 -0.61564620400E+02 -0.17949398865E+02 -0.15548904530E+03  0.16824594798E+03  0.41800000000E+01 0.  1.
         -5    1    3    3    0  502  0.18396483482E+02  0.37280378709E+02 -0.44499234665E+03  0.44694957010E+03  0.41800000000E+01 0.  1.
        -11    1    1    2    0    0 -0.13717719775E+02 -0.32693303396E+02 -0.18294803914E+03  0.18635185255E+03  0.00000000000E+00 0.  1.
         11    1    1    2    0    0  0.56885856694E+02  0.13362323551E+02 -0.16280578363E+03  0.17297478304E+03  0.00000000000E+00 0. -1.
</event>
<event>
 7    1  0.2728221E-009  0.9545853E+02  0.7561462E-02  0.1290147E+00
          1   -1    0    0  501    0  0.00000000000E+00  0.00000000000E+00  0.11666491052E+03  0.11666491052E+03  0.00000000000E+00 0. -1.
         -1   -1    0    0    0  501 -0.00000000000E+00 -0.00000000000E+00 -0.13704926441E+03  0.13704926441E+03  0.00000000000E+00 0.  1.
         25    2    1    2    0    0 -0.25702454333E+02 -0.18185275690E+02  0.48095569866E+02  0.13767200261E+03  0.12509626714E+03 0.  0.
          5    1    3    3  502    0  0.48968065065E+02  0.78080990707E+01  0.16535449667E+02  0.52437880420E+02  0.41800000000E+01 0. -1.
         -5    1    3    3    0  502 -0.74670519398E+02 -0.25993374761E+02  0.31560120198E+02  0.85234122190E+02  0.41800000000E+01 0. -1.
        -11    1    1    2    0    0  0.24406561261E+02  0.36341353733E+02 -0.82279524796E+02  0.93200291976E+02  0.00000000000E+00 0.  1.
         11    1    1    2    0    0  0.12958930718E+01 -0.18156078042E+02  0.13799601038E+02  0.22841880342E+02  0.00000000000E+00 0. -1.
</event>
<event>
 7    1  0.2728221E-009  0.9518180E+02  0.7561462E-02  0.1290767E+00
          1   -1    0    0  501    0  0.00000000000E+00  0.00000000000E+00  0.26259193842E+02  0.26259193842E+02  0.00000000000E+00 0. -1.
         -1   -1    0    0    0  501 -0.00000000000E+00 -0.00000000000E+00 -0.55868608845E+03  0.55868608845E+03  0.00000000000E+00 0.  1.
         25    2    1    2    0    0 -0.42179538847E+02 -0.25658621433E+02 -0.22614184514E+03  0.26310333810E+03  0.12508298863E+03 0.  0.
          5    1    3    3  502    0 -0.26325819287E+02  0.27491748148E+02 -0.95250433457E+01  0.39459394674E+02  0.41800000000E+01 0. -1.
         -5    1    3    3    0  502 -0.15853719560E+02 -0.53150369581E+02 -0.21661680180E+03  0.22364394343E+03  0.41800000000E+01 0. -1.
        -11    1    1    2    0    0  0.57490958686E+02 -0.93430814123E+01 -0.21796625866E+03  0.22561425801E+03  0.00000000000E+00 0.  1.
         11    1    1    2    0    0 -0.15311419839E+02  0.35001702846E+02 -0.88318790801E+02  0.96227686183E+02  0.00000000000E+00 0. -1.
</event>
<event>
 7    1  0.2728221E-009  0.1188093E+03  0.7561462E-02  0.1245074E+00
          3   -1    0    0  501    0  0.00000000000E+00  0.00000000000E+00  0.58000728371E+02  0.58000728371E+02  0.00000000000E+00 0. -1.
         -3   -1    0    0    0  501 -0.00000000000E+00 -0.00000000000E+00 -0.41179818659E+03  0.41179818659E+03  0.00000000000E+00 0.  1.
         25    2    1    2    0    0  0.82894724625E+02  0.58827772242E+02 -0.24499055499E+03  0.29326574772E+03  0.12510869112E+03 0.  0.
          5    1    3    3  502    0  0.19773878254E+01  0.42176906051E+02 -0.18821266752E+03  0.19293595332E+03  0.41800000000E+01 0. -1.
         -5    1    3    3    0  502  0.80917336799E+02  0.16650866191E+02 -0.56777887472E+02  0.10032979441E+03  0.41800000000E+01 0. -1.
        -11    1    1    2    0    0 -0.55509804481E+02 -0.98788165716E+01 -0.10637315075E+03  0.12039176306E+03  0.00000000000E+00 0.  1.
         11    1    1    2    0    0 -0.27384920144E+02 -0.48948955671E+02 -0.24337524698E+01  0.56141404183E+02  0.00000000000E+00 0. -1.
</event>
<event>
 7    1  0.2728221E-009  0.1373530E+03  0.7561462E-02  0.1216936E+00
         -2   -1    0    0    0  501 -0.00000000000E+00  0.00000000000E+00  0.38367489600E+02  0.38367489600E+02  0.00000000000E+00 0.  1.
          2   -1    0    0  501    0  0.00000000000E+00 -0.00000000000E+00 -0.73306480838E+03  0.73306480838E+03  0.00000000000E+00 0. -1.
         25    2    1    2    0    0 -0.72561673826E+02 -0.57936071592E+02 -0.16855713189E+03  0.22950445621E+03  0.12505600270E+03 0.  0.
          5    1    3    3  502    0  0.30634950024E+02  0.91276970017E+01 -0.41682395548E+02  0.52694492256E+02  0.41800000000E+01 0.  1.
         -5    1    3    3    0  502 -0.10319662385E+03 -0.67063768593E+02 -0.12687473634E+03  0.17680996396E+03  0.41800000000E+01 0.  1.
        -11    1    1    2    0    0 -0.14041081844E+01  0.44041653458E+02 -0.10123438600E+03  0.11040851266E+03  0.00000000000E+00 0.  1.
         11    1    1    2    0    0  0.73965782010E+02  0.13894418133E+02 -0.42490580089E+03  0.43151932910E+03  0.00000000000E+00 0. -1.
</event>
<event>
 7    1  0.2728221E-009  0.5990029E+02  0.7561462E-02  0.1398251E+00
         -4   -1    0    0    0  501 -0.00000000000E+00  0.00000000000E+00  0.26718757537E+03  0.26718757537E+03  0.00000000000E+00 0. -1.
          4   -1    0    0  501    0  0.00000000000E+00 -0.00000000000E+00 -0.45570126178E+02  0.45570126178E+02  0.00000000000E+00 0.  1.
         25    2    1    2    0    0  0.22155900233E+02  0.63084668217E+01  0.11651341634E+03  0.17249299849E+03  0.12509107751E+03 0.  0.
          5    1    3    3  502    0  0.42651089679E+01  0.41470096442E+02 -0.72553719660E+01  0.42521440189E+02  0.41800000000E+01 0.  1.
         -5    1    3    3    0  502  0.17890791266E+02 -0.35161629620E+02  0.12376878831E+03  0.12997155831E+03  0.41800000000E+01 0.  1.
        -11    1    1    2    0    0 -0.21240049309E+02  0.88747388199E+01  0.11806049422E+03  0.12028375194E+03  0.00000000000E+00 0. -1.
         11    1    1    2    0    0 -0.91585092482E+00 -0.15183205642E+02 -0.12956461368E+02  0.19980951120E+02  0.00000000000E+00 0.  1.
</event>
<event>
 7    1  0.2728221E-009  0.1064516E+03  0.7561462E-02  0.1267286E+00
          2   -1    0    0  501    0  0.00000000000E+00  0.00000000000E+00  0.54509040619E+03  0.54509040619E+03  0.00000000000E+00 0.  1.
         -2   -1    0    0    0  501 -0.00000000000E+00 -0.00000000000E+00 -0.33571627702E+02  0.33571627702E+02  0.00000000000E+00 0. -1.
         25    2    1    2    0    0  0.52436263119E+02 -0.98640628800E+01  0.15150416450E+03  0.20356416657E+03  0.12505197569E+03 0.  0.
          5    1    3    3  502    0  0.11804526011E+02 -0.55173792451E+02  0.12469509194E+03  0.13693002798E+03  0.41800000000E+01 0. -1.
         -5    1    3    3    0  502  0.40631737108E+02  0.45309729571E+02  0.26809072562E+02  0.66634138591E+02  0.41800000000E+01 0. -1.
        -11    1    1    2    0    0 -0.22077097912E+02 -0.34863256697E+02  0.23930281881E+03  0.24283468453E+03  0.00000000000E+00 0.  1.
         11    1    1    2    0    0 -0.30359165207E+02  0.44727319577E+02  0.12071179518E+03  0.13226318280E+03  0.00000000000E+00 0. -1.
</event>
<event>
 7    1  0.2728221E-009  0.7571051E+02  0.7561462E-02  0.1341685E+00
          1   -1    0    0  501    0  0.00000000000E+00  0.00000000000E+00  0.87729965669E+02  0.87729965669E+02  0.00000000000E+00 0. -1.
         -1   -1    0    0    0  501 -0.00000000000E+00 -0.00000000000E+00 -0.19933515743E+03  0.19933515743E+03  0.00000000000E+00 0.  1.
         25    2    1    2    0    0 -0.11324528115E+02  0.58507470693E+01  0.19463210451E+02  0.12726145960E+03  0.12511669097E+03 0.  0.
          5    1    3    3  502    0 -0.48722730351E+02 -0.15481955166E+02 -0.31671785647E+02  0.60284075797E+02  0.41800000000E+01 0. -1.
         -5    1    3    3    0  502  0.37398202236E+02  0.21332702235E+02  0.51134996098E+02  0.66977383803E+02  0.41800000000E+01 0. -1.
        -11    1    1    2    0    0 -0.22295303854E+02  0.18744296686E+01 -0.12213813066E+03  0.12417051591E+03  0.00000000000E+00 0.  1.
         11    1    1    2    0    0  0.33619831969E+02 -0.77251767379E+01 -0.89302715550E+01  0.35633147592E+02  0.00000000000E+00 0. -1.
</event>
<event>
 7    1  0.2728221E-009  0.1609870E+03  0.7561462E-02  0.1187587E+00
          2   -1    0    0  501    0  0.00000000000E+00  0.00000000000E+00  0.64305778375E+03  0.64305778375E+03  0.00000000000E+00 0. -1.
         -2   -1    0    0    0  501 -0.00000000000E+00 -0.00000000000E+00 -0.50824890797E+02  0.50824890797E+02  0.00000000000E+00 0.  1.
         25    2    1    2    0    0  0.16391279799E+02  0.13672245637E+03  0.23016828055E+03  0.29595116372E+03  0.12509176555E+03 0.  0.
          5    1    3    3  502    0  0.43392576674E+02  0.11610992262E+03  0.94201536356E+02  0.15574283834E+03  0.41800000000E+01 0. -1.
         -5    1    3    3    0  502 -0.27001296875E+02  0.20612533750E+02  0.13596674419E+03  0.14020832538E+03  0.41800000000E+01 0. -1.
        -11    1    1    2    0    0 -0.53053959507E+02 -0.87876645020E+02  0.20141474580E+03  0.22606398914E+03  0.00000000000E+00 0.  1.
         11    1    1    2    0    0  0.36662679708E+02 -0.48845811355E+02  0.16064986660E+03  0.17186752168E+03  0.00000000000E+00 0. -1.
</event>
<event>
 7    1  0.2728221E-009  0.1769840E+03  0.7561462E-02  0.1170754E+00
         -1   -1    0    0    0  501 -0.00000000000E+00  0.00000000000E+00  0.75363871230E+02  0.75363871230E+02  0.00000000000E+00 0.  1.
          1   -1    0    0  501    0  0.00000000000E+00 -0.00000000000E+00 -0.50203134257E+03  0.50203134257E+03  0.00000000000E+00 0. -1.
         25    2    1    2    0    0 -0.46270555981E+02  0.13423681653E+03 -0.11568764287E+03  0.22179464921E+03  0.12509495770E+03 0.  0.
          5    1    3    3  502    0 -0.84207734840E+02  0.94159591260E+02 -0.10735033477E+03  0.16582683139E+03  0.41800000000E+01 0.  1.
         -5    1    3    3    0  502  0.37937178858E+02  0.40077225271E+02 -0.83373081012E+01  0.55967817820E+02  0.41800000000E+01 0.  1.
        -11    1    1    2    0    0 -0.17410682431E+02 -0.96823336268E+02 -0.16852339620E+03  0.19513591514E+03  0.00000000000E+00 0. -1.
         11    1    1    2    0    0  0.63681238412E+02 -0.37413480263E+02 -0.14245643227E+03  0.16046464946E+03  0.00000000000E+00 0.  1.
</event>
<event>
 7    1  0.2728221E-009  0.1779539E+03  0.7561462E-02  0.1169798E+00
         -1   -1    0    0    0  501 -0.00000000000E+00  0.00000000000E+00  0.47671711301E+02  0.47671711301E+02  0.00000000000E+00 0.  1.
          1   -1    0    0  501    0  0.00000000000E+00 -0.00000000000E+00 -0.70563428576E+03  0.70563428576E+03  0.00000000000E+00 0. -1.
         25    2    1    2    0    0 -0.33921130774E+02  0.14145282123E+03 -0.36975241539E+03  0.41656110457E+03  0.12508701533E+03 0.  0.
          5    1    3    3  502    0  0.30022242288E+02  0.10817347737E+03 -0.16641780438E+03  0.20078643942E+03  0.41800000000E+01 0.  1.
         -5    1    3    3    0  502 -0.63943373061E+02  0.33279343858E+02 -0.20333461101E+03  0.21577466515E+03  0.41800000000E+01 0.  1.
        -11    1    1    2    0    0  0.56233614615E+02 -0.44041501867E+02 -0.91235115566E+02  0.11586940757E+03  0.00000000000E+00 0. -1.
         11    1    1    2    0    0 -0.22312483841E+02 -0.97411319365E+02 -0.19697504350E+03  0.22087548492E+03  0.00000000000E+00 0.  1.
</event>
<event>
 7    1  0.2728221E-009  0.1491145E+03  0.7561462E-02  0.1201565E+00
         -1   -1    0    0    0  501 -0.00000000000E+00  0.00000000000E+00  0.14313447560E+03  0.14313447560E+03  0.00000000000E+00 0.  1.
          1   -1    0    0  501    0  0.00000000000E+00 -0.00000000000E+00 -0.18905758754E+03  0.18905758754E+03  0.00000000000E+00 0. -1.
         25    2    1    2    0    0  0.11392465114E+01  0.12298990476E+03 -0.66036205120E+01  0.17555246274E+03  0.12508894762E+03 0.  0.
          5    1    3    3  502    0  0.40609409439E+02  0.50466636075E+02  0.44186555082E+02  0.78523433074E+02  0.41800000000E+01 0. -1.
         -5    1    3    3    0  502 -0.39470162927E+02  0.72523268681E+02 -0.50790175594E+02  0.97029029669E+02  0.41800000000E+01 0. -1.
        -11    1    1    2    0    0 -0.43959252065E+02 -0.67517957361E+02 -0.12139030127E+02  0.81476662062E+02  0.00000000000E+00 0.  1.
         11    1    1    2    0    0  0.42820005554E+02 -0.55471947395E+02 -0.27180461298E+02  0.75162938339E+02  0.00000000000E+00 0. -1.
</event>
<event>
 7    1  0.2728221E-009  0.1202398E+03  0.7561462E-02  0.1242702E+00
         -3   -1    0    0    0  501 -0.00000000000E+00  0.00000000000E+00  0.12566463071E+03  0.12566463071E+03  0.00000000000E+00 0.  1.
          3   -1    0    0  501    0  0.00000000000E+00 -0.00000000000E+00 -0.16101334571E+03  0.16101334571E+03  0.00000000000E+00 0. -1.
         25    2    1    2    0    0 -0.68707735584E+02  0.52812840183E+02 -0.57099207184E+02  0.16254298161E+03  0.12509976975E+03 0.  0.
          5    1    3    3  502    0 -0.88040969893E+02  0.25574700482E+01 -0.62771453006E+02  0.10823807438E+03  0.41800000000E+01 0. -1.
         -5    1    3    3    0  502  0.19333234309E+02  0.50255370135E+02  0.56722458222E+01  0.54304907227E+02  0.41800000000E+01 0. -1.
        -11    1    1    2    0    0  0.31731305773E+02  0.24239700933E+01  0.43766247856E+02  0.54113176293E+02  0.00000000000E+00 0.  1.
         11    1    1    2    0    0  0.36976429811E+02 -0.55236810276E+02 -0.22015755677E+02  0.70021818522E+02  0.00000000000E+00 0. -1.
</event>
<event>
 7    1  0.2728221E-009  0.1136514E+03  0.7561462E-02  0.1253954E+00
          2   -1    0    0  501    0  0.00000000000E+00  0.00000000000E+00  0.99679057780E+02  0.99679057780E+02  0.00000000000E+00 0. -1.
         -2   -1    0    0    0  501 -0.00000000000E+00 -0.00000000000E+00 -0.19737948506E+03  0.19737948506E+03  0.00000000000E+00 0.  1.
         25    2    1    2    0    0 -0.71924381694E+02 -0.22339839268E+02 -0.27497201493E+01  0.14604302273E+03  0.12509523742E+03 0.  0.
          5    1    3    3  502    0  0.23267964543E+02  0.18221349146E+02 -0.26367127843E+02  0.39826041347E+02  0.41800000000E+01 0. -1.
         -5    1    3    3    0  502 -0.95192346238E+02 -0.40561188414E+02  0.23617407694E+02  0.10621698138E+03  0.41800000000E+01 0. -1.
        -11    1    1    2    0    0  0.10007591514E+02  0.29890657429E+02  0.62510584939E+01  0.32135323582E+02  0.00000000000E+00 0.  1.
         11    1    1    2    0    0  0.61916790180E+02 -0.75508181612E+01 -0.10120176563E+03  0.11888019653E+03  0.00000000000E+00 0. -1.
</event>
<event>
 7    1  0.2728221E-009  0.1232811E+03  0.7561462E-02  0.1237780E+00
          1   -1    0    0  501    0  0.00000000000E+00  0.00000000000E+00  0.42163808647E+03  0.42163808647E+03  0.00000000000E+00 0. -1.
         -1   -1    0    0    0  501 -0.00000000000E+00 -0.00000000000E+00 -0.51921313404E+02  0.51921313404E+02  0.00000000000E+00 0.  1.
         25    2    1    2    0    0  0.43586858179E+02  0.80085757140E+02  0.27137486976E+03  0.31242867820E+03  0.12511521219E+03 0.  0.
          5    1    3    3  502    0  0.73182407485E+02  0.91273667250E+02  0.24298533852E+03  0.26971446797E+03  0.41800000000E+01 0.  1.
         -5    1    3    3    0  502 -0.29595549305E+02 -0.11187910110E+02  0.28389531243E+02  0.42714210229E+02  0.41800000000E+01 0.  1.
        -11    1    1    2    0    0  0.60751899464E+01 -0.79468023854E+01 -0.14916590497E+02  0.17960074418E+02  0.00000000000E+00 0.  1.
         11    1    1    2    0    0 -0.49662048126E+02 -0.72138954754E+02  0.11325849380E+03  0.14317064726E+03  0.00000000000E+00 0. -1.
</event>
<event>
 7    1  0.2728221E-009  0.1029895E+03  0.7561462E-02  0.1274132E+00
          2   -1    0    0  501    0  0.00000000000E+00  0.00000000000E+00  0.95358479618E+02  0.95358479618E+02  0.00000000000E+00 0. -1.
         -2   -1    0    0    0  501 -0.00000000000E+00 -0.00000000000E+00 -0.17856619302E+03  0.17856619302E+03  0.00000000000E+00 0.  1.
         25    2    1    2    0    0 -0.66672313309E+02  0.77376725993E+01 -0.74454289827E+02  0.16030185341E+03  0.12509266163E+03 0.  0.
          5    1    3    3  502    0 -0.16167537438E+02  0.37046754003E+02 -0.90835315778E+02  0.99510694106E+02  0.41800000000E+01 0. -1.
         -5    1    3    3    0  502 -0.50504775871E+02 -0.29309081404E+02  0.16381025951E+02  0.60791159306E+02  0.41800000000E+01 0. -1.
        -11    1    1    2    0    0  0.53256253252E+02  0.33848857372E+02  0.13582559294E+02  0.64548118275E+02  0.00000000000E+00 0. -1.
         11    1    1    2    0    0  0.13416060057E+02 -0.41586529972E+02 -0.22335982869E+02  0.49074700949E+02  0.00000000000E+00 0.  1.
</event>
<event>
 7    1  0.2728221E-009  0.2059954E+03  0.7561462E-02  0.1144777E+00
          1   -1    0    0  501    0  0.00000000000E+00  0.00000000000E+00  0.19067356911E+03  0.19067356911E+03  0.00000000000E+00 0. -1.
         -1   -1    0    0    0  501 -0.00000000000E+00 -0.00000000000E+00 -0.27733287365E+03  0.27733287365E+03  0.00000000000E+00 0.  1.
         25    2    1    2    0    0 -0.17851734977E+03 -0.83515424493E+02  0.30999375348E+01  0.23345498582E+03  0.12509336710E+03 0.  0.
          5    1    3    3  502    0 -0.34462789694E+02 -0.28279533154E+02  0.54727896488E+02  0.70710896777E+02  0.41800000000E+01 0. -1.
         -5    1    3    3    0  502 -0.14405456008E+03 -0.55235891340E+02 -0.51627958954E+02  0.16274408904E+03  0.41800000000E+01 0. -1.
        -11    1    1    2    0    0  0.17049189328E+02 -0.15854435750E+02  0.30125051001E+01  0.23475799809E+02  0.00000000000E+00 0. -1.
         11    1    1    2    0    0  0.16146816045E+03  0.99369860244E+02 -0.92771747173E+02  0.21107565714E+03  0.00000000000E+00 0.  1.
</event>
<event>
 7    1  0.2728221E-009  0.1556005E+03  0.7561462E-02  0.1193755E+00
          1   -1    0    0  501    0  0.00000000000E+00  0.00000000000E+00  0.25057051135E+04  0.25057051135E+04  0.00000000000E+00 0. -1.
         -1   -1    0    0    0  501 -0.00000000000E+00 -0.00000000000E+00 -0.12985086287E+02  0.12985086287E+02  0.00000000000E+00 0.  1.
         25    2    1    2    0    0 -0.56075611677E+02  0.11593835423E+03  0.17665954217E+04  0.17756949588E+04  0.12508807500E+03 0.  0.
          5    1    3    3  502    0  0.22388147333E+02  0.33751645151E+02  0.98821935312E+03  0.98905781680E+03  0.41800000000E+01 0. -1.
         -5    1    3    3    0  502 -0.78463759010E+02  0.82186709077E+02  0.77837606859E+03  0.78663714201E+03  0.41800000000E+01 0. -1.
        -11    1    1    2    0    0  0.79873140235E+02 -0.10066064405E+03  0.61929130456E+03  0.63248241374E+03  0.00000000000E+00 0. -1.
         11    1    1    2    0    0 -0.23797528558E+02 -0.15277710178E+02  0.10683330091E+03  0.11051282721E+03  0.00000000000E+00 0.  1.
</event>
<event>
 7    1  0.2728221E-009  0.1470320E+03  0.7561462E-02  0.1204168E+00
          1   -1    0    0  501    0  0.00000000000E+00  0.00000000000E+00  0.12679376649E+04  0.12679376649E+04  0.00000000000E+00 0. -1.
         -1   -1    0    0    0  501 -0.00000000000E+00 -0.00000000000E+00 -0.21574570671E+02  0.21574570671E+02  0.00000000000E+00 0.  1.
         25    2    1    2    0    0 -0.30452808480E+02  0.12010339333E+03  0.71846415992E+03  0.73972311013E+03  0.12508929584E+03 0.  0.
          5    1    3    3  502    0 -0.23085895956E+02  0.13363913101E+03  0.43182780372E+03  0.45264235373E+03  0.41800000000E+01 0. -1.
         -5    1    3    3    0  502 -0.73669125238E+01 -0.13535737684E+02  0.28663635620E+03  0.28708075639E+03  0.41800000000E+01 0. -1.
        -11    1    1    2    0    0 -0.15567695036E+02 -0.79599007265E+02  0.39759739813E+03  0.40578571449E+03  0.00000000000E+00 0. -1.
         11    1    1    2    0    0  0.46020503516E+02 -0.40504386062E+02  0.13030153614E+03  0.14400341091E+03  0.00000000000E+00 0.  1.
</event>
<event>
 7    1  0.2728221E-009  0.6062498E+02  0.7561462E-02  0.1395228E+00
         -1   -1    0    0    0  501 -0.00000000000E+00  0.00000000000E+00  0.93437767303E+02  0.93437767303E+02  0.00000000000E+00 0.  1.
          1   -1    0    0  501    0  0.00000000000E+00 -0.00000000000E+00 -0.14955475522E+03  0.14955475522E+03  0.00000000000E+00 0. -1.
         25    2    1    2    0    0  0.12682058820E+02 -0.43526405905E+02 -0.27041824938E+02  0.13577972605E+03  0.12509792598E+03 0.  0.
          5    1    3    3  502    0  0.22288872349E+02 -0.13974178534E+02  0.47752369600E+02  0.54679362640E+02  0.41800000000E+01 0. -1.
         -5    1    3    3    0  502 -0.96068135293E+01 -0.29552227370E+02 -0.74794194538E+02  0.81100363410E+02  0.41800000000E+01 0. -1.
        -11    1    1    2    0    0  0.16354644999E+02  0.11292417458E+02  0.28732484390E+02  0.34936353048E+02  0.00000000000E+00 0.  1.
         11    1    1    2    0    0 -0.29036703818E+02  0.32233988446E+02 -0.57807647370E+02  0.72276443426E+02  0.00000000000E+00 0. -1.
</event>
<event>
 7    1  0.2728221E-009  0.8963647E+02  0.7561462E-02  0.1303734E+00
          1   -1    0    0  501    0  0.00000000000E+00  0.00000000000E+00  0.21511029457E+02  0.21511029457E+02  0.00000000000E+00 0. -1.
         -1   -1    0    0    0  501 -0.00000000000E+00 -0.00000000000E+00 -0.59523139675E+03  0.59523139675E+03  0.00000000000E+00 0.  1.
         25    2    1    2    0    0 -0.15203401488E+01 -0.28082804917E+02 -0.27406091576E+03  0.30256772606E+03  0.12508752114E+03 0.  0.
          5    1    3    3  502    0  0.36285364464E+02 -0.30037786312E+02 -0.25615241525E+03  0.26048114811E+03  0.41800000000E+01 0. -1.
         -5    1    3    3    0  502 -0.37805704613E+02  0.19549813949E+01 -0.17908500502E+02  0.42086577952E+02  0.41800000000E+01 0. -1.
        -11    1    1    2    0    0 -0.16956989639E+02 -0.29167363635E+02 -0.92671622435E+02  0.98622026970E+02  0.00000000000E+00 0. -1.
         11    1    1    2    0    0  0.18477329788E+02  0.57250168553E+02 -0.20698782910E+03  0.21555267317E+03  0.00000000000E+00 0.  1.
</event>
<event>
 7    1  0.2728221E-009  0.1097853E+03  0.7561462E-02  0.1260968E+00
         -2   -1    0    0    0  501 -0.00000000000E+00  0.00000000000E+00  0.20958771293E+03  0.20958771293E+03  0.00000000000E+00 0.  1.
          2   -1    0    0  501    0  0.00000000000E+00 -0.00000000000E+00 -0.62227799146E+02  0.62227799146E+02  0.00000000000E+00 0. -1.
         25    2    1    2    0    0 -0.15809503429E+01  0.37062512468E+02  0.96035470966E+02  0.16200832276E+03  0.12509098978E+03 0.  0.
          5    1    3    3  502    0  0.22115374238E+02  0.78886498386E+02  0.64647091103E+02  0.10444562314E+03  0.41800000000E+01 0. -1.
         -5    1    3    3    0  502 -0.23696324581E+02 -0.41823985917E+02  0.31388379863E+02  0.57562699616E+02  0.41800000000E+01 0. -1.
        -11    1    1    2    0    0 -0.23845813927E+02  0.17171998762E+02  0.38700142837E+02  0.48592195247E+02  0.00000000000E+00 0.  1.
         11    1    1    2    0    0  0.25426764270E+02 -0.54234511230E+02  0.12624299986E+02  0.61214994076E+02  0.00000000000E+00 0. -1.
</event>
<event>
 7    1  0.2728221E-009  0.1021397E+03  0.7561462E-02  0.1275860E+00
         -2   -1    0    0    0  501 -0.00000000000E+00  0.00000000000E+00  0.28070137046E+03  0.28070137046E+03  0.00000000000E+00 0.  1.
          2   -1    0    0  501    0  0.00000000000E+00 -0.00000000000E+00 -0.43609879379E+02  0.43609879379E+02  0.00000000000E+00 0. -1.
         25    2    1    2    0    0  0.52908297024E+01  0.98868683477E+01  0.10931665593E+03  0.16650188977E+03  0.12508798899E+03 0.  0.
          5    1    3    3  502    0  0.56508974813E+02 -0.87137529661E+01  0.93380593007E+02  0.10957463792E+03  0.41800000000E+01 0. -1.
         -5    1    3    3    0  502 -0.51218145111E+02  0.18600621314E+02  0.15936062920E+02  0.56927251850E+02  0.41800000000E+01 0. -1.
        -11    1    1    2    0    0 -0.26416159745E+02 -0.44498931995E+02  0.78045682389E+02  0.93643456706E+02  0.00000000000E+00 0.  1.
         11    1    1    2    0    0  0.21125330043E+02  0.34612063648E+02  0.49729152767E+02  0.64165903362E+02  0.00000000000E+00 0. -1.
</event>
<event>
 7    1  0.2728221E-009  0.9082173E+02  0.7561462E-02  0.1300874E+00
         -2   -1    0    0    0  501 -0.00000000000E+00  0.00000000000E+00  0.50066472390E+02  0.50066472390E+02  0.00000000000E+00 0.  1.
          2   -1    0    0  501    0  0.00000000000E+00 -0.00000000000E+00 -0.27241117750E+03  0.27241117750E+03  0.00000000000E+00 0. -1.
         25    2    1    2    0    0  0.21648440822E+02  0.16985432792E+02 -0.15180493426E+03  0.19863210242E+03  0.12511120705E+03 0.  0.
          5    1    3    3  502    0  0.54878692144E+02 -0.30776319861E+02 -0.11025223022E+03  0.12701133565E+03  0.41800000000E+01 0. -1.
         -5    1    3    3    0  502 -0.33230251322E+02  0.47761752652E+02 -0.41552704038E+02  0.71620766767E+02  0.41800000000E+01 0. -1.
        -11    1    1    2    0    0 -0.39766963158E+01  0.19398759459E+02 -0.79908882799E+02  0.82325910456E+02  0.00000000000E+00 0. -1.
         11    1    1    2    0    0 -0.17671744506E+02 -0.36384192251E+02  0.93691119436E+01  0.41519637020E+02  0.00000000000E+00 0.  1.
</event>
<event>
 7    1  0.2728221E-009  0.9505970E+02  0.7561462E-02  0.1291042E+00
          2   -1    0    0  501    0  0.00000000000E+00  0.00000000000E+00  0.23027887749E+03  0.23027887749E+03  0.00000000000E+00 0. -1.
         -2   -1    0    0    0  501 -0.00000000000E+00 -0.00000000000E+00 -0.65670682171E+02  0.65670682171E+02  0.00000000000E+00 0.  1.
         25    2    1    2    0    0 -0.36884116434E+02 -0.23579955519E+02  0.46553235889E+02  0.14046504717E+03  0.12508706311E+03 0.  0.
          5    1    3    3  502    0  0.20491742760E+02 -0.27273420944E+02  0.70196386407E+02  0.78158531689E+02  0.41800000000E+01 0. -1.
         -5    1    3    3    0  502 -0.57375859193E+02  0.36934654246E+01 -0.23643150518E+02  0.62306515481E+02  0.41800000000E+01 0. -1.
        -11    1    1    2    0    0 -0.27868200204E+02 -0.31620338912E+01  0.17946376767E+02  0.33297259347E+02  0.00000000000E+00 0.  1.
         11    1    1    2    0    0  0.64752316638E+02  0.26741989410E+02  0.10010858266E+03  0.12218725314E+03  0.00000000000E+00 0. -1.
</event>
<event>
 7    1  0.2728221E-009  0.1066406E+03  0.7561462E-02  0.1266920E+00
         -2   -1    0    0    0  501 -0.00000000000E+00  0.00000000000E+00  0.21907768330E+02  0.21907768330E+02  0.00000000000E+00 0.  1.
          2   -1    0    0  501    0  0.00000000000E+00 -0.00000000000E+00 -0.91603997037E+03  0.91603997037E+03  0.00000000000E+00 0. -1.
         25    2    1    2    0    0  0.14278102595E+02 -0.79549416489E+02 -0.64459588881E+03  0.66158378587E+03  0.12512902129E+03 0.  0.
          5    1    3    3  502    0 -0.11376443985E+02  0.81111247821E+00 -0.44096160958E+03  0.44112888695E+03  0.41800000000E+01 0.  1.
         -5    1    3    3    0  502  0.25654546580E+02 -0.80360528967E+02 -0.20363427924E+03  0.22045489892E+03  0.41800000000E+01 0.  1.
        -11    1    1    2    0    0 -0.49787631569E+02  0.48466895649E+02 -0.12232556626E+03  0.14068188367E+03  0.00000000000E+00 0.  1.
         11    1    1    2    0    0  0.35509528974E+02  0.31082520840E+02 -0.12721074697E+03  0.13568206917E+03  0.00000000000E+00 0. -1.
</event>
<event>
 7    1  0.2728221E-009  0.2449822E+03  0.7561462E-02  0.1116518E+00
         -2   -1    0    0    0  501 -0.00000000000E+00  0.00000000000E+00  0.51822935678E+02  0.51822935678E+02  0.00000000000E+00 0.  1.
          2   -1    0    0  501    0  0.00000000000E+00 -0.00000000000E+00 -0.13220327638E+04  0.13220327638E+04  0.00000000000E+00 0. -1.
         25    2    1    2    0    0 -0.93385419638E+02 -0.21746083738E+03 -0.59262454715E+03  0.65027907529E+03  0.12509584116E+03 0.  0.
          5    1    3    3  502    0 -0.95198308097E+02 -0.11057799132E+03 -0.44236622170E+03  0.46582781854E+03  0.41800000000E+01 0.  1.
         -5    1    3    3    0  502  0.18128884592E+01 -0.10688284606E+03 -0.15025832545E+03  0.18445125674E+03  0.41800000000E+01 0.  1.
        -11    1    1    2    0    0  0.42504725134E+02  0.11524764681E+03 -0.22008158726E+03  0.25204082369E+03  0.00000000000E+00 0.  1.
         11    1    1    2    0    0  0.50880694504E+02  0.10221319056E+03 -0.45750369375E+03  0.47153580054E+03  0.00000000000E+00 0. -1.
</event>
<event>
 7    1  0.2763669E-009  0.2253063E+03  0.7561462E-02  0.1129988E+00
         -4   -1    0    0    0  501 -0.00000000000E+00  0.00000000000E+00  0.10314237547E+03  0.10314237547E+03  0.00000000000E+00 0.  1.
          4   -1    0    0  501    0  0.00000000000E+00 -0.00000000000E+00 -0.52326552692E+03  0.52326552692E+03  0.00000000000E+00 0. -1.
         25    2    1    2    0    0 -0.96917197460E+02  0.17918615866E+03 -0.24971678488E+03  0.34569731374E+03  0.12509011736E+03 0.  0.
          5    1    3    3  502    0 -0.12347743925E+03  0.17027308235E+03 -0.22592078491E+03  0.30870256564E+03  0.41800000000E+01 0.  1.
         -5    1    3    3    0  502  0.26560241788E+02  0.89130763091E+01 -0.23795999969E+02  0.36994748109E+02  0.41800000000E+01 0.  1.
        -11    1    1    2    0    0  0.69237474017E+02 -0.66944929465E+02 -0.34534217210E+02  0.10231355505E+03  0.00000000000E+00 0.  1.
         11    1    1    2    0    0  0.27679723443E+02 -0.11224122919E+03 -0.13587214937E+03  0.17839703359E+03  0.00000000000E+00 0. -1.
</event>
<event>
 7    1  0.2728221E-009  0.1245958E+03  0.7561462E-02  0.1235702E+00
         -1   -1    0    0    0  501 -0.00000000000E+00  0.00000000000E+00  0.53528895128E+02  0.53528895128E+02  0.00000000000E+00 0.  1.
          1   -1    0    0  501    0  0.00000000000E+00 -0.00000000000E+00 -0.34196608928E+03  0.34196608928E+03  0.00000000000E+00 0. -1.
         25    2    1    2    0    0  0.66132391576E+02  0.10934849987E+02 -0.22217333845E+03  0.26363233013E+03  0.12509176236E+03 0.  0.
          5    1    3    3  502    0  0.45340594224E+02 -0.53373828588E+02 -0.14419162411E+03  0.16035345936E+03  0.41800000000E+01 0.  1.
         -5    1    3    3    0  502  0.20791797352E+02  0.64308678575E+02 -0.77981714333E+02  0.10327887077E+03  0.41800000000E+01 0.  1.
        -11    1    1    2    0    0 -0.87939908261E+02 -0.14785573856E+02 -0.40647672440E+02  0.98001397612E+02  0.00000000000E+00 0. -1.
         11    1    1    2    0    0  0.21807516684E+02  0.38507238683E+01 -0.25616183265E+02  0.33861256671E+02  0.00000000000E+00 0.  1.
</event>
<event>
 7    1  0.2844589E-009  0.7466701E+02  0.7561462E-02  0.1344905E+00
         -1   -1    0    0    0  501 -0.00000000000E+00  0.00000000000E+00  0.78520172798E+02  0.78520172798E+02  0.00000000000E+00 0.  1.
          1   -1    0    0  501    0  0.00000000000E+00 -0.00000000000E+00 -0.24263914200E+03  0.24263914200E+03  0.00000000000E+00 0. -1.
         25    2    1    2    0    0 -0.45900622698E+02 -0.39655104374E+02 -0.15919415220E+03  0.21135166608E+03  0.12508938482E+03 0.  0.
          5    1    3    3  502    0 -0.31528377921E+02  0.68950708433E+01  0.10938057649E+02  0.34332115015E+02  0.41800000000E+01 0.  1.
         -5    1    3    3    0  502 -0.14372244777E+02 -0.46550175217E+02 -0.17013220985E+03  0.17701955107E+03  0.41800000000E+01 0.  1.
        -11    1    1    2    0    0  0.11896134791E+02 -0.40062586957E+01  0.37840671701E+02  0.39868340403E+02  0.00000000000E+00 0.  1.
         11    1    1    2    0    0  0.34004487908E+02  0.43661363070E+02 -0.42765488703E+02  0.69939308311E+02  0.00000000000E+00 0. -1.
</event>
<event>
 7    1  0.2728221E-009  0.7154620E+02  0.7561462E-02  0.1354913E+00
         -1   -1    0    0    0  501 -0.00000000000E+00  0.00000000000E+00  0.28453801851E+02  0.28453801851E+02  0.00000000000E+00 0.  1.
          1   -1    0    0  501    0  0.00000000000E+00 -0.00000000000E+00 -0.52779468252E+03  0.52779468252E+03  0.00000000000E+00 0. -1.
         25    2    1    2    0    0  0.15983477917E+01 -0.24116032089E+02 -0.39609960789E+03  0.41608499006E+03  0.12509069455E+03 0.  0.
          5    1    3    3  502    0  0.15999380743E+02  0.35573228404E+01 -0.38064468001E+03  0.38102031383E+03  0.41800000000E+01 0.  1.
         -5    1    3    3    0  502 -0.14401032951E+02 -0.27673354929E+02 -0.15454927874E+02  0.35064676224E+02  0.41800000000E+01 0.  1.
        -11    1    1    2    0    0  0.25963332473E+02 -0.26481154271E+02 -0.37352648243E+02  0.52636170980E+02  0.00000000000E+00 0.  1.
         11    1    1    2    0    0 -0.27561680265E+02  0.50597186360E+02 -0.65888624539E+02  0.87527323335E+02  0.00000000000E+00 0. -1.
</event>
<event>
 7    1  0.2728221E-009  0.1271690E+03  0.7561462E-02  0.1231718E+00
          2   -1    0    0  501    0  0.00000000000E+00  0.00000000000E+00  0.43788744744E+03  0.43788744744E+03  0.00000000000E+00 0. -1.
         -2   -1    0    0    0  501 -0.00000000000E+00 -0.00000000000E+00 -0.42888508885E+02  0.42888508885E+02  0.00000000000E+00 0.  1.
         25    2    1    2    0    0  0.67244864885E+02 -0.36296315202E+02  0.15605323323E+03  0.21408120039E+03  0.12505540536E+03 0.  0.
          5    1    3    3  502    0  0.72949890680E+02  0.23268342237E+02  0.47922463094E+02  0.90427524404E+02  0.41800000000E+01 0.  1.
         -5    1    3    3    0  502 -0.57050257955E+01 -0.59564657439E+02  0.10813077013E+03  0.12365367599E+03  0.41800000000E+01 0.  1.
        -11    1    1    2    0    0 -0.74399462739E+02 -0.61236064746E+01  0.16591394908E+03  0.18193465067E+03  0.00000000000E+00 0. -1.
         11    1    1    2    0    0  0.71545978539E+01  0.42419921676E+02  0.73031756242E+02  0.84760105269E+02  0.00000000000E+00 0.  1.
</event>
<event>
 7    1  0.2728221E-009  0.8578419E+02  0.7561462E-02  0.1313394E+00
         -1   -1    0    0    0  501 -0.00000000000E+00  0.00000000000E+00  0.12316134311E+03  0.12316134311E+03  0.00000000000E+00 0.  1.
          1   -1    0    0  501    0  0.00000000000E+00 -0.00000000000E+00 -0.13401285354E+03  0.13401285354E+03  0.00000000000E+00 0. -1.
         25    2    1    2    0    0  0.67292988102E+02  0.11765397929E+02 -0.97890606989E+01  0.14286310632E+03  0.12508905068E+03 0.  0.
          5    1    3    3  502    0  0.26991476275E+02  0.52626852058E+00  0.57418531324E+02  0.63585980291E+02  0.41800000000E+01 0.  1.
         -5    1    3    3    0  502  0.40301511826E+02  0.11239129408E+02 -0.67207592023E+02  0.79277126026E+02  0.41800000000E+01 0.  1.
        -11    1    1    2    0    0 -0.24358745207E+02  0.32447660153E+02  0.24715030829E+02  0.47508229459E+02  0.00000000000E+00 0.  1.
         11    1    1    2    0    0 -0.42934242895E+02 -0.44213058081E+02 -0.25777480563E+02  0.66802860882E+02  0.00000000000E+00 0. -1.
</event>
<event>
 7    1  0.2728221E-009  0.8984904E+02  0.7561462E-02  0.1303218E+00
          3   -1    0    0  501    0  0.00000000000E+00  0.00000000000E+00  0.73892299463E+02  0.73892299463E+02  0.00000000000E+00 0. -1.
         -3   -1    0    0    0  501 -0.00000000000E+00 -0.00000000000E+00 -0.18393102101E+03  0.18393102101E+03  0.00000000000E+00 0.  1.
         25    2    1    2    0    0  0.34153058494E+02  0.11348563176E+02 -0.77092972744E+02  0.15128168076E+03  0.12509036413E+03 0.  0.
          5    1    3    3  502    0 -0.18196073556E+02 -0.25245335376E+02  0.18346137870E+02  0.36365879968E+02  0.41800000000E+01 0. -1.
         -5    1    3    3    0  502  0.52349132050E+02  0.36593898551E+02 -0.95439110614E+02  0.11491580079E+03  0.41800000000E+01 0. -1.
        -11    1    1    2    0    0 -0.36488779846E+00  0.30501624048E+02  0.15444134511E+02  0.34190693229E+02  0.00000000000E+00 0. -1.
         11    1    1    2    0    0 -0.33788170695E+02 -0.41850187224E+02 -0.48389883314E+02  0.72350946481E+02  0.00000000000E+00 0.  1.
</event>
<event>
 7    1  0.2728221E-009  0.9080584E+02  0.7561462E-02  0.1300912E+00
          1   -1    0    0  501    0  0.00000000000E+00  0.00000000000E+00  0.14378408153E+03  0.14378408153E+03  0.00000000000E+00 0. -1.
         -1   -1    0    0    0  501 -0.00000000000E+00 -0.00000000000E+00 -0.93158433290E+02  0.93158433290E+02  0.00000000000E+00 0.  1.
         25    2    1    2    0    0 -0.34320921050E+02  0.21876054230E+02  0.15386953762E+02  0.13244487961E+03  0.12509356665E+03 0.  0.
          5    1    3    3  502    0 -0.55958981151E+02  0.24939793416E+02  0.57939280235E+02  0.84426497388E+02  0.41800000000E+01 0. -1.
         -5    1    3    3    0  502  0.21638060101E+02 -0.30637391859E+01 -0.42552326473E+02  0.48018382220E+02  0.41800000000E+01 0. -1.
        -11    1    1    2    0    0  0.23269757273E+02 -0.56768963861E+02  0.17351344054E+02  0.63759438532E+02  0.00000000000E+00 0. -1.
         11    1    1    2    0    0  0.11051163777E+02  0.34892909631E+02  0.17887350420E+02  0.40738196675E+02  0.00000000000E+00 0.  1.
</event>
<event>
 7    1  0.2728221E-009  0.1456707E+03  0.7561462E-02  0.1205896E+00
          2   -1    0    0  501    0  0.00000000000E+00  0.00000000000E+00  0.10488054210E+04  0.10488054210E+04  0.00000000000E+00 0. -1.
         -2   -1    0    0    0  501 -0.00000000000E+00 -0.00000000000E+00 -0.32968117512E+02  0.32968117512E+02  0.00000000000E+00 0.  1.
         25    2    1    2    0    0  0.20201124716E+02  0.12534958990E+03  0.77612069739E+03  0.79632398096E+03  0.12509172874E+03 0.  0.
          5    1    3    3  502    0  0.48148394140E+02  0.26788528323E+02  0.11840205896E+03  0.13066144449E+03  0.41800000000E+01 0.  1.
         -5    1    3    3    0  502 -0.27947269424E+02  0.98561061578E+02  0.65771863843E+03  0.66566253647E+03  0.41800000000E+01 0.  1.
        -11    1    1    2    0    0  0.11616279727E+02 -0.56837928299E+02  0.36235800285E+02  0.68399716888E+02  0.00000000000E+00 0.  1.
         11    1    1    2    0    0 -0.31817404443E+02 -0.68511661602E+02  0.20348080586E+03  0.21704984071E+03  0.00000000000E+00 0. -1.
</event>
<event>
 7    1  0.2728221E-009  0.9611727E+02  0.7561462E-02  0.1288679E+00
          2   -1    0    0  501    0  0.00000000000E+00  0.00000000000E+00  0.27423387809E+03  0.27423387809E+03  0.00000000000E+00 0. -1.
         -2   -1    0    0    0  501 -0.00000000000E+00 -0.00000000000E+00 -0.64744276543E+02  0.64744276543E+02  0.00000000000E+00 0.  1.
         25    2    1    2    0    0 -0.20240834996E+02  0.73212043654E+02  0.12339900186E+03  0.19142679128E+03  0.12508880055E+03 0.  0.
          5    1    3    3  502    0  0.22711570039E+02  0.58978753843E+02  0.13085413707E+03  0.14537739304E+03  0.41800000000E+01 0. -1.
         -5    1    3    3    0  502 -0.42952405035E+02  0.14233289811E+02 -0.74551352122E+01  0.46049398239E+02  0.41800000000E+01 0. -1.
        -11    1    1    2    0    0 -0.44960566249E+01 -0.47725131031E+02  0.98810767260E+02  0.10982472574E+03  0.00000000000E+00 0. -1.
         11    1    1    2    0    0  0.24736891621E+02 -0.25486912623E+02 -0.12720167578E+02  0.37726637609E+02  0.00000000000E+00 0.  1.
</event>
<event>
 7    1  0.2728221E-009  0.2545709E+03  0.7561462E-02  0.1110450E+00
          1   -1    0    0  501    0  0.00000000000E+00  0.00000000000E+00  0.16167188996E+04  0.16167188996E+04  0.00000000000E+00 0. -1.
         -1   -1    0    0    0  501 -0.00000000000E+00 -0.00000000000E+00 -0.11057534823E+03  0.11057534823E+03  0.00000000000E+00 0.  1.
         25    2    1    2    0    0  0.21360463354E+03 -0.11759198457E+03  0.14281679247E+04  0.14542233795E+04  0.12508877641E+03 0.  0.
          5    1    3    3  502    0  0.66250590397E+02 -0.75925853107E+02  0.85536293660E+03  0.86128804799E+03  0.41800000000E+01 0. -1.
         -5    1    3    3    0  502  0.14735404314E+03 -0.41666131463E+02  0.57280498814E+03  0.59293533153E+03  0.41800000000E+01 0. -1.
        -11    1    1    2    0    0 -0.10255230706E+03  0.98926336382E+02  0.13053606583E+02  0.14308666031E+03  0.00000000000E+00 0.  1.
         11    1    1    2    0    0 -0.11105232648E+03  0.18665648188E+02  0.64922020039E+02  0.12998420799E+03  0.00000000000E+00 0. -1.
</event>
<event>
 7    1  0.2728221E-009  0.2850749E+03  0.7561462E-02  0.1092949E+00
         -2   -1    0    0    0  501 -0.00000000000E+00  0.00000000000E+00  0.93322302730E+02  0.93322302730E+02  0.00000000000E+00 0.  1.
          2   -1    0    0  501    0  0.00000000000E+00 -0.00000000000E+00 -0.14346500010E+04  0.14346500010E+04  0.00000000000E+00 0. -1.
         25    2    1    2    0    0  0.16714957197E+02  0.28413228387E+03 -0.11068501837E+04  0.11496845713E+04  0.12508692860E+03 0.  0.
          5    1    3    3  502    0  0.13536912371E+02  0.10161127151E+03 -0.20161543208E+03  0.22621749125E+03  0.41800000000E+01 0.  1.
         -5    1    3    3    0  502  0.31780448257E+01  0.18252101236E+03 -0.90523475164E+03  0.92346708003E+03  0.41800000000E+01 0.  1.
        -11    1    1    2    0    0 -0.10786633557E+02 -0.25508956712E+03 -0.23723020526E+03  0.34851859205E+03  0.00000000000E+00 0. -1.
         11    1    1    2    0    0 -0.59283236402E+01 -0.29042716744E+02  0.27526906595E+01  0.29769140447E+02  0.00000000000E+00 0.  1.
</event>
<event>
 7    1  0.2728221E-009  0.2125619E+03  0.7561462E-02  0.1139553E+00
         -1   -1    0    0    0  501 -0.00000000000E+00  0.00000000000E+00  0.15284789821E+03  0.15284789821E+03  0.00000000000E+00 0.  1.
          1   -1    0    0  501    0  0.00000000000E+00 -0.00000000000E+00 -0.44885707830E+03  0.44885707830E+03  0.00000000000E+00 0. -1.
         25    2    1    2    0    0 -0.61316580198E+02  0.19843904635E+03 -0.19149803485E+02  0.24321273072E+03  0.12509172351E+03 0.  0.
          5    1    3    3  502    0 -0.13972701313E+02  0.10120371435E+03 -0.69714558451E+02  0.12375386960E+03  0.41800000000E+01 0. -1.
         -5    1    3    3    0  502 -0.47343878885E+02  0.97235331998E+02  0.50564754967E+02  0.11945886113E+03  0.41800000000E+01 0. -1.
        -11    1    1    2    0    0  0.38023010092E+02 -0.42707856721E+02 -0.13476403542E+03  0.14639349564E+03  0.00000000000E+00 0.  1.
         11    1    1    2    0    0  0.23293570106E+02 -0.15573118963E+03 -0.14209534119E+03  0.21209875016E+03  0.00000000000E+00 0. -1.
</event>
<event>
 7    1  0.2728221E-009  0.8637382E+02  0.7561462E-02  0.1311878E+00
          2   -1    0    0  501    0  0.00000000000E+00  0.00000000000E+00  0.61626721180E+03  0.61626721180E+03  0.00000000000E+00 0. -1.
         -2   -1    0    0    0  501 -0.00000000000E+00 -0.00000000000E+00 -0.26183535998E+02  0.26183535998E+02  0.00000000000E+00 0.  1.
         25    2    1    2    0    0  0.13157423563E+02 -0.50631213431E+02  0.22046385127E+03  0.25882112110E+03  0.12508966961E+03 0.  0.
          5    1    3    3  502    0 -0.73566474647E+01  0.57615847160E+01  0.19200072709E+03  0.19227341918E+03  0.41800000000E+01 0. -1.
         -5    1    3    3    0  502  0.20514071028E+02 -0.56392798147E+02  0.28463124178E+02  0.66547701921E+02  0.41800000000E+01 0. -1.
        -11    1    1    2    0    0 -0.38107206143E+02  0.63672623139E+02  0.28189497613E+03  0.29149809548E+03  0.00000000000E+00 0.  1.
         11    1    1    2    0    0  0.24949782580E+02 -0.13041409708E+02  0.87724848398E+02  0.92131531217E+02  0.00000000000E+00 0. -1.
</event>
<event>
 7    1  0.2728221E-009  0.1127512E+03  0.7561462E-02  0.1255558E+00
         -2   -1    0    0    0  501 -0.00000000000E+00  0.00000000000E+00  0.45430826328E+02  0.45430826328E+02  0.00000000000E+00 0.  1.
          2   -1    0    0  501    0  0.00000000000E+00 -0.00000000000E+00 -0.31762429140E+03  0.31762429140E+03  0.00000000000E+00 0. -1.
         25    2    1    2    0    0 -0.12574805405E+02  0.50960241245E+02 -0.18069453504E+03  0.22594834690E+03  0.12508824306E+03 0.  0.
          5    1    3    3  502    0  0.42948885289E+02  0.57908752368E+02 -0.13685341413E+03  0.15473965138E+03  0.41800000000E+01 0. -1.
         -5    1    3    3    0  502 -0.55523690694E+02 -0.69485111224E+01 -0.43841120912E+02  0.71208695522E+02  0.41800000000E+01 0. -1.
        -11    1    1    2    0    0 -0.32689159914E+02 -0.37922771738E+02 -0.25961970328E+02  0.56398064644E+02  0.00000000000E+00 0.  1.
         11    1    1    2    0    0  0.45263965319E+02 -0.13037469507E+02 -0.65536959701E+02  0.80708706187E+02  0.00000000000E+00 0. -1.
</event>
<event>
 6    1  0.2728221E-009  0.1034824E+03  0.7561462E-02  0.1273139E+00
          1   -1    0    0  501    0  0.00000000000E+00  0.00000000000E+00  0.15864629121E+03  0.15864629121E+03  0.00000000000E+00 0. -1.
         -1   -1    0    0    0  501 -0.00000000000E+00 -0.00000000000E+00 -0.87464306870E+02  0.87464306870E+02  0.00000000000E+00 0.  1.
          5    1    1    2  502    0  0.41593745943E+02  0.45122550863E+02 -0.15514472053E+02  0.63437020273E+02  0.41800000000E+01 0.  1.
         -5    1    1    2    0  502 -0.58849505112E+02 -0.16948775717E+02  0.25267053557E+02  0.66380883134E+02  0.41800000000E+01 0.  1.
        -11    1    1    2    0    0  0.46929198604E+02 -0.27491750551E+02  0.77287492659E+01  0.54935230911E+02  0.00000000000E+00 0.  1.
         11    1    1    2    0    0 -0.29673439436E+02 -0.68202459500E+00  0.53700653573E+02  0.61357463765E+02  0.00000000000E+00 0. -1.
</event>
<event>
 7    1  0.2728221E-009  0.2652504E+03  0.7561462E-02  0.1104029E+00
          2   -1    0    0  501    0  0.00000000000E+00  0.00000000000E+00  0.20637253960E+04  0.20637253960E+04  0.00000000000E+00 0. -1.
         -2   -1    0    0    0  501 -0.00000000000E+00 -0.00000000000E+00 -0.37160912786E+02  0.37160912786E+02  0.00000000000E+00 0.  1.
         25    2    1    2    0    0  0.22479416479E+03 -0.11414199990E+03  0.90366461860E+03  0.94647657303E+03  0.12508935889E+03 0.  0.
          5    1    3    3  502    0  0.57894525810E+02  0.10342388988E+02  0.98332620591E+02  0.11465390443E+03  0.41800000000E+01 0.  1.
         -5    1    3    3    0  502  0.16689963898E+03 -0.12448438889E+03  0.80533199801E+03  0.83182266860E+03  0.41800000000E+01 0.  1.
        -11    1    1    2    0    0 -0.10108676683E+03  0.93833917728E+02  0.48107427469E+03  0.50045558876E+03  0.00000000000E+00 0.  1.
         11    1    1    2    0    0 -0.12370739796E+03  0.20308082176E+02  0.64182558992E+03  0.65395414701E+03  0.00000000000E+00 0. -1.
</event>
<event>
 7    1  0.2728221E-009  0.1207800E+03  0.7561462E-02  0.1241816E+00
         -2   -1    0    0    0  501 -0.00000000000E+00  0.00000000000E+00  0.49134134637E+02  0.49134134637E+02  0.00000000000E+00 0.  1.
          2   -1    0    0  501    0  0.00000000000E+00 -0.00000000000E+00 -0.37507671236E+03  0.37507671236E+03  0.00000000000E+00 0. -1.
         25    2    1    2    0    0 -0.41177674625E+02 -0.65558531649E+02 -0.20436443536E+03  0.25180511938E+03  0.12508986269E+03 0.  0.
          5    1    3    3  502    0 -0.35335608315E+02 -0.10268925249E+03 -0.16123831892E+03  0.19444525111E+03  0.41800000000E+01 0.  1.
         -5    1    3    3    0  502 -0.58420663103E+01  0.37130720840E+02 -0.43126116442E+02  0.57359868272E+02  0.41800000000E+01 0.  1.
        -11    1    1    2    0    0  0.29097748409E+02  0.71918696899E+00  0.51340886368E+01  0.29555964855E+02  0.00000000000E+00 0.  1.
         11    1    1    2    0    0  0.12079926216E+02  0.64839344680E+02 -0.12671223100E+03  0.14284976276E+03  0.00000000000E+00 0. -1.
</event>
<event>
 7    1  0.2728221E-009  0.1264669E+03  0.7561462E-02  0.1232794E+00
         -1   -1    0    0    0  501 -0.00000000000E+00  0.00000000000E+00  0.84916909802E+02  0.84916909802E+02  0.00000000000E+00 0.  1.
          1   -1    0    0  501    0  0.00000000000E+00 -0.00000000000E+00 -0.20228540663E+03  0.20228540663E+03  0.00000000000E+00 0. -1.
         25    2    1    2    0    0 -0.40456151964E+02  0.60787106495E+02 -0.52254860920E+02  0.15400586804E+03  0.12512179808E+03 0.  0.
          5    1    3    3  502    0  0.42680396967E+02  0.18731433989E+02  0.61337814208E+00  0.46800977952E+02  0.41800000000E+01 0. -1.
         -5    1    3    3    0  502 -0.83136548931E+02  0.42055672506E+02 -0.52868239062E+02  0.10720489009E+03  0.41800000000E+01 0. -1.
        -11    1    1    2    0    0  0.27872497814E+02  0.17940788798E+02 -0.34362293507E+02  0.47744269312E+02  0.00000000000E+00 0. -1.
         11    1    1    2    0    0  0.12583654150E+02 -0.78727895293E+02 -0.30751342399E+02  0.85452179073E+02  0.00000000000E+00 0.  1.
</event>
<event>
 7    1  0.2728221E-009  0.1126403E+03  0.7561462E-02  0.1255757E+00
         -1   -1    0    0    0  501 -0.00000000000E+00  0.00000000000E+00  0.11166452051E+03  0.11166452051E+03  0.00000000000E+00 0.  1.
          1   -1    0    0  501    0  0.00000000000E+00 -0.00000000000E+00 -0.12831649590E+03  0.12831649590E+03  0.00000000000E+00 0. -1.
         25    2    1    2    0    0  0.27904912495E+02 -0.16425705704E+02 -0.47008414179E+02  0.13749843683E+03  0.12509013222E+03 0.  0.
          5    1    3    3  502    0  0.77513567473E+02 -0.82755805296E+01 -0.21520209309E+02  0.80977961101E+02  0.41800000000E+01 0.  1.
         -5    1    3    3    0  502 -0.49608654978E+02 -0.81501251739E+01 -0.25488204871E+02  0.56520475729E+02  0.41800000000E+01 0.  1.
        -11    1    1    2    0    0  0.14360663590E+02 -0.30440472936E+02  0.33052685916E+01  0.33819755348E+02  0.00000000000E+00 0. -1.
         11    1    1    2    0    0 -0.42265576085E+02  0.46866178640E+02  0.27051170193E+02  0.68662824228E+02  0.00000000000E+00 0.  1.
</event>
<event>
 7    1  0.2728221E-009  0.1556105E+03  0.7561462E-02  0.1193744E+00
          1   -1    0    0  501    0  0.00000000000E+00  0.00000000000E+00  0.43385886787E+03  0.43385886787E+03  0.00000000000E+00 0.  1.
         -1   -1    0    0    0  501 -0.00000000000E+00 -0.00000000000E+00 -0.17704532361E+03  0.17704532361E+03  0.00000000000E+00 0. -1.
         25    2    1    2    0    0 -0.14262013359E+02 -0.12954694527E+03  0.37293956707E+03  0.41438758248E+03  0.12508929517E+03 0.  0.
          5    1    3    3  502    0 -0.54605622519E+02 -0.62901627778E+02  0.98460526055E+02  0.12903618244E+03  0.41800000000E+01 0.  1.
         -5    1    3    3    0  502  0.40343609160E+02 -0.66645317492E+02  0.27447904102E+03  0.28535140004E+03  0.41800000000E+01 0.  1.
        -11    1    1    2    0    0  0.37351519413E+02  0.30862354604E+02 -0.70076214116E+02  0.85195637910E+02  0.00000000000E+00 0. -1.
         11    1    1    2    0    0 -0.23089506054E+02  0.98684590667E+02 -0.46049808695E+02  0.11132097110E+03  0.00000000000E+00 0.  1.
</event>
<event>
 7    1  0.2728221E-009  0.1141557E+03  0.7561462E-02  0.1253062E+00
          2   -1    0    0  501    0  0.00000000000E+00  0.00000000000E+00  0.23818600711E+03  0.23818600711E+03  0.00000000000E+00 0. -1.
         -2   -1    0    0    0  501 -0.00000000000E+00 -0.00000000000E+00 -0.10319941526E+03  0.10319941526E+03  0.00000000000E+00 0.  1.
         25    2    1    2    0    0  0.79424402801E+01  0.63228910939E+02  0.17329118754E+03  0.22302876112E+03  0.12510401699E+03 0.  0.
          5    1    3    3  502    0  0.22352416923E+02  0.87665547012E+02  0.66245343418E+02  0.11220871891E+03  0.41800000000E+01 0.  1.
         -5    1    3    3    0  502 -0.14409976643E+02 -0.24436636073E+02  0.10704584413E+03  0.11082004220E+03  0.41800000000E+01 0.  1.
        -11    1    1    2    0    0  0.39038635833E+02 -0.15229595913E+02 -0.28018983855E+02  0.50408522451E+02  0.00000000000E+00 0.  1.
         11    1    1    2    0    0 -0.46981076113E+02 -0.47999315025E+02 -0.10285611836E+02  0.67948138801E+02  0.00000000000E+00 0. -1.
</event>
<event>
 7    1  0.2728221E-009  0.1972510E+03  0.7561462E-02  0.1152079E+00
         -1   -1    0    0    0  501 -0.00000000000E+00  0.00000000000E+00  0.38721302456E+03  0.38721302456E+03  0.00000000000E+00 0.  1.
          1   -1    0    0  501    0  0.00000000000E+00 -0.00000000000E+00 -0.15391048045E+03  0.15391048045E+03  0.00000000000E+00 0. -1.
         25    2    1    2    0    0  0.15723718525E+03 -0.66412087960E+02  0.27247162644E+03  0.34499398000E+03  0.12508381657E+03 0.  0.
          5    1    3    3  502    0  0.13231812798E+03 -0.52439012177E-01  0.21978293696E+03  0.25657377403E+03  0.41800000000E+01 0. -1.
         -5    1    3    3    0  502  0.24919057273E+02 -0.66359648948E+02  0.52688689475E+02  0.88420205963E+02  0.41800000000E+01 0. -1.
        -11    1    1    2    0    0 -0.86114457597E+02  0.81319695860E+02 -0.34249756877E+02  0.12329492523E+03  0.00000000000E+00 0. -1.
         11    1    1    2    0    0 -0.71122727658E+02 -0.14907607900E+02 -0.49193254422E+01  0.72834599783E+02  0.00000000000E+00 0.  1.
</event>
<event>
 7    1  0.2728221E-009  0.1136353E+03  0.7561462E-02  0.1253982E+00
         -2   -1    0    0    0  501 -0.00000000000E+00  0.00000000000E+00  0.51492831924E+02  0.51492831924E+02  0.00000000000E+00 0.  1.
          2   -1    0    0  501    0  0.00000000000E+00 -0.00000000000E+00 -0.29569127677E+03  0.29569127677E+03  0.00000000000E+00 0. -1.
         25    2    1    2    0    0  0.51310864625E+02  0.31771357465E+02 -0.12478131848E+03  0.18670704590E+03  0.12508764752E+03 0.  0.
          5    1    3    3  502    0  0.30408425125E+02  0.72923285966E+02 -0.11459615705E+03  0.13925598575E+03  0.41800000000E+01 0.  1.
         -5    1    3    3    0  502  0.20902439500E+02 -0.41151928501E+02 -0.10185161427E+02  0.47451060154E+02  0.41800000000E+01 0.  1.
        -11    1    1    2    0    0  0.16701628655E+02 -0.29326867459E+02 -0.17745948235E+02  0.38130410874E+02  0.00000000000E+00 0.  1.
         11    1    1    2    0    0 -0.68012493280E+02 -0.24444900065E+01 -0.10167117813E+03  0.12234665192E+03  0.00000000000E+00 0. -1.
</event>
<event>
 7    1  0.2728221E-009  0.1261403E+03  0.7561462E-02  0.1233298E+00
         -4   -1    0    0    0  501 -0.00000000000E+00  0.00000000000E+00  0.23183427249E+03  0.23183427249E+03  0.00000000000E+00 0.  1.
          4   -1    0    0  501    0  0.00000000000E+00 -0.00000000000E+00 -0.10066289428E+03  0.10066289428E+03  0.00000000000E+00 0. -1.
         25    2    1    2    0    0 -0.31217448069E+02  0.10022242503E+03  0.87712881537E+02  0.18535610224E+03  0.12507706228E+03 0.  0.
          5    1    3    3  502    0 -0.22503004174E+02  0.14550748854E+02 -0.29355629754E+02  0.39966672207E+02  0.41800000000E+01 0.  1.
         -5    1    3    3    0  502 -0.87144438955E+01  0.85671676172E+02  0.11706851129E+03  0.14538943004E+03  0.41800000000E+01 0.  1.
        -11    1    1    2    0    0 -0.27043761453E+02 -0.66117270964E+02  0.33506017212E+02  0.78901912161E+02  0.00000000000E+00 0.  1.
         11    1    1    2    0    0  0.58261209522E+02 -0.34105154062E+02  0.99524794582E+01  0.68239152368E+02  0.00000000000E+00 0. -1.
</event>
<event>
 7    1  0.2728221E-009  0.1259011E+03  0.7561462E-02  0.1233668E+00
          2   -1    0    0  501    0  0.00000000000E+00  0.00000000000E+00  0.26021524613E+04  0.26021524613E+04  0.00000000000E+00 0. -1.
         -2   -1    0    0    0  501 -0.00000000000E+00 -0.00000000000E+00 -0.10383072822E+02  0.10383072822E+02  0.00000000000E+00 0.  1.
         25    2    1    2    0    0 -0.61614727439E+02 -0.16013544942E+02  0.22134253045E+04  0.22178709155E+04  0.12508801426E+03 0.  0.
          5    1    3    3  502    0  0.36078172759E+02  0.11233967772E+02  0.71652512264E+03  0.71753296813E+03  0.41800000000E+01 0.  1.
         -5    1    3    3    0  502 -0.97692900198E+02 -0.27247512714E+02  0.14969001818E+04  0.15003379474E+04  0.41800000000E+01 0.  1.
        -11    1    1    2    0    0  0.70261753094E+02  0.44056248998E+02  0.27457327869E+03  0.28682425350E+03  0.00000000000E+00 0.  1.
         11    1    1    2    0    0 -0.86470256546E+01 -0.28042704056E+02  0.10377080531E+03  0.10784036507E+03  0.00000000000E+00 0. -1.
</event>
<event>
 7    1  0.2728221E-009  0.1784334E+03  0.7561462E-02  0.1169328E+00
          1   -1    0    0  501    0  0.00000000000E+00  0.00000000000E+00  0.97990847757E+02  0.97990847757E+02  0.00000000000E+00 0. -1.
         -1   -1    0    0    0  501 -0.00000000000E+00 -0.00000000000E+00 -0.46076412389E+03  0.46076412389E+03  0.00000000000E+00 0.  1.
         25    2    1    2    0    0  0.11201596895E+03  0.10241391251E+03 -0.56598033794E+02  0.20466532005E+03  0.12509344118E+03 0.  0.
          5    1    3    3  502    0 -0.50113732210E+01 -0.15774544828E+02 -0.32285759364E+02  0.36521127909E+02  0.41800000000E+01 0. -1.
         -5    1    3    3    0  502  0.11702734217E+03  0.11818845734E+03 -0.24312274430E+02  0.16814419214E+03  0.41800000000E+01 0. -1.
        -11    1    1    2    0    0  0.35212324717E+01 -0.43657174884E+02 -0.11552989608E+03  0.12355365185E+03  0.00000000000E+00 0. -1.
         11    1    1    2    0    0 -0.11553720142E+03 -0.58756737627E+02 -0.19064534625E+03  0.23053599974E+03  0.00000000000E+00 0.  1.
</event>
<event>
 6    1  0.2728221E-009  0.7371131E+02  0.7561462E-02  0.1347909E+00
          1   -1    0    0  501    0  0.00000000000E+00  0.00000000000E+00  0.58399486590E+03  0.58399486590E+03  0.00000000000E+00 0. -1.
         -1   -1    0    0    0  501 -0.00000000000E+00 -0.00000000000E+00 -0.23500872841E+02  0.23500872841E+02  0.00000000000E+00 0.  1.
          5    1    1    2  502    0 -0.65333742049E+02 -0.10268789315E+02  0.35332636983E+03  0.35948705387E+03  0.41800000000E+01 0.  1.
         -5    1    1    2    0  502  0.27051349005E+02  0.33425973061E+00  0.14330535999E+02  0.30898606353E+02  0.41800000000E+01 0.  1.
        -11    1    1    2    0    0  0.13717941498E+02 -0.13917042843E+02 -0.16698319535E+01  0.19612606640E+02  0.00000000000E+00 0.  1.
         11    1    1    2    0    0  0.24564451546E+02  0.23851572427E+02  0.19450691919E+03  0.19749747188E+03  0.00000000000E+00 0. -1.
</event>
<event>
 7    1  0.2728221E-009  0.1049404E+03  0.7561462E-02  0.1270237E+00
         -1   -1    0    0    0  501 -0.00000000000E+00  0.00000000000E+00  0.21777317882E+03  0.21777317882E+03  0.00000000000E+00 0.  1.
          1   -1    0    0  501    0  0.00000000000E+00 -0.00000000000E+00 -0.74088710730E+02  0.74088710730E+02  0.00000000000E+00 0. -1.
         25    2    1    2    0    0 -0.43883822990E+02 -0.45504360143E+02  0.63909102576E+02  0.15403580530E+03  0.12508484804E+03 0.  0.
          5    1    3    3  502    0  0.20891362408E+02 -0.10688620354E+02  0.75768703743E+02  0.79429619760E+02  0.41800000000E+01 0.  1.
         -5    1    3    3    0  502 -0.64775185398E+02 -0.34815739789E+02 -0.11859601166E+02  0.74606185536E+02  0.41800000000E+01 0.  1.
        -11    1    1    2    0    0  0.20081044745E+02  0.73178949301E+02  0.54462394506E+02  0.93405349923E+02  0.00000000000E+00 0.  1.
         11    1    1    2    0    0  0.23802778244E+02 -0.27674589158E+02  0.25312971004E+02  0.44420734328E+02  0.00000000000E+00 0. -1.
</event>
<event>
 7    1  0.2728221E-009  0.1021113E+03  0.7561462E-02  0.1275918E+00
          1   -1    0    0  501    0  0.00000000000E+00  0.00000000000E+00  0.55494062351E+02  0.55494062351E+02  0.00000000000E+00 0. -1.
         -1   -1    0    0    0  501 -0.00000000000E+00 -0.00000000000E+00 -0.29668382803E+03  0.29668382803E+03  0.00000000000E+00 0.  1.
         25    2    1    2    0    0 -0.62508767197E+02  0.10003399827E+02 -0.10176411917E+03  0.17323680014E+03  0.12509052317E+03 0.  0.
          5    1    3    3  502    0 -0.36262946439E+02 -0.31525012217E+02 -0.11282933236E+03  0.12270598323E+03  0.41800000000E+01 0. -1.
         -5    1    3    3    0  502 -0.26245820758E+02  0.41528412044E+02  0.11065213191E+02  0.50530816905E+02  0.41800000000E+01 0. -1.
        -11    1    1    2    0    0  0.50885915610E+02 -0.46162832054E+02 -0.11443419277E+03  0.13347497123E+03  0.00000000000E+00 0.  1.
         11    1    1    2    0    0  0.11622851587E+02  0.36159432227E+02 -0.24991453737E+02  0.45466119011E+02  0.00000000000E+00 0. -1.
</event>
<event>
 7    1  0.2728221E-009  0.9174576E+02  0.7561462E-02  0.1298678E+00
          1   -1    0    0  501    0  0.00000000000E+00  0.00000000000E+00  0.19124370373E+02  0.19124370373E+02  0.00000000000E+00 0. -1.
         -1   -1    0    0    0  501 -0.00000000000E+00 -0.00000000000E+00 -0.12424314602E+04  0.12424314602E+04  0.00000000000E+00 0.  1.
         25    2    1    2    0    0 -0.30995725295E+02 -0.57764597068E+02 -0.10083875512E+04  0.10182290109E+04  0.12508949425E+03 0.  0.
          5    1    3    3  502    0 -0.43150202001E+02 -0.47979262584E+02 -0.99540877695E+03  0.99750691988E+03  0.41800000000E+01 0.  1.
         -5    1    3    3    0  502  0.12154476706E+02 -0.97853344835E+01 -0.12978774208E+02  0.20722090988E+02  0.41800000000E+01 0.  1.
        -11    1    1    2    0    0  0.47061378367E+02  0.68675361621E+02 -0.20553884356E+03  0.22175954284E+03  0.00000000000E+00 0.  1.
         11    1    1    2    0    0 -0.16065653072E+02 -0.10910764554E+02 -0.93806951433E+01  0.21567276906E+02  0.00000000000E+00 0. -1.
</event>
<event>
 7    1  0.2728221E-009  0.1298938E+03  0.7561462E-02  0.1227613E+00
         -1   -1    0    0    0  501 -0.00000000000E+00  0.00000000000E+00  0.19049843870E+03  0.19049843870E+03  0.00000000000E+00 0.  1.
          1   -1    0    0  501    0  0.00000000000E+00 -0.00000000000E+00 -0.10628219752E+03  0.10628219752E+03  0.00000000000E+00 0. -1.
         25    2    1    2    0    0  0.20169528139E+02 -0.88616927949E+02  0.32823881224E+02  0.15806688176E+03  0.12509181486E+03 0.  0.
          5    1    3    3  502    0 -0.40487285271E+02 -0.11758388604E+02 -0.19874185266E+02  0.46796747870E+02  0.41800000000E+01 0. -1.
         -5    1    3    3    0  502  0.60656813410E+02 -0.76858539345E+02  0.52698066490E+02  0.11127013389E+03  0.41800000000E+01 0. -1.
        -11    1    1    2    0    0  0.27025153059E+02  0.55610830457E+02  0.52499777316E+02  0.81111959539E+02  0.00000000000E+00 0.  1.
         11    1    1    2    0    0 -0.47194681198E+02  0.33006097492E+02 -0.11074173575E+01  0.57601794922E+02  0.00000000000E+00 0. -1.
</event>
<event>
 7    1  0.2728221E-009  0.1883444E+03  0.7561462E-02  0.1159963E+00
          1   -1    0    0  501    0  0.00000000000E+00  0.00000000000E+00  0.86988800047E+03  0.86988800047E+03  0.00000000000E+00 0. -1.
         -1   -1    0    0    0  501 -0.00000000000E+00 -0.00000000000E+00 -0.57712546453E+02  0.57712546453E+02  0.00000000000E+00 0.  1.
         25    2    1    2    0    0 -0.67160237942E+02 -0.15399410390E+03  0.21304350007E+03  0.29876230185E+03  0.12508676384E+03 0.  0.
          5    1    3    3  502    0 -0.85092999454E+02 -0.13089952311E+03  0.10861536585E+03  0.19023741431E+03  0.41800000000E+01 0.  1.
         -5    1    3    3    0  502  0.17932761512E+02 -0.23094580790E+02  0.10442813422E+03  0.10852488753E+03  0.41800000000E+01 0.  1.
        -11    1    1    2    0    0  0.51219866629E+02  0.18373869521E+02  0.17522666745E+03  0.18348149444E+03  0.00000000000E+00 0.  1.
         11    1    1    2    0    0  0.15940371313E+02  0.13562023438E+03  0.42390528649E+03  0.44535675063E+03  0.00000000000E+00 0. -1.
</event>
<event>
 7    1  0.2728221E-009  0.2201464E+03  0.7561462E-02  0.1133774E+00
         -3   -1    0    0    0  501 -0.00000000000E+00  0.00000000000E+00  0.34885678009E+02  0.34885678009E+02  0.00000000000E+00 0.  1.
          3   -1    0    0  501    0  0.00000000000E+00 -0.00000000000E+00 -0.22089108003E+04  0.22089108003E+04  0.00000000000E+00 0. -1.
         25    2    1    2    0    0  0.19308315906E+03  0.31694634681E+02 -0.17759089094E+04  0.17910301331E+04  0.12510326517E+03 0.  0.
          5    1    3    3  502    0  0.20097699643E+03  0.18267100788E+01 -0.15261340516E+04  0.15393172857E+04  0.41800000000E+01 0.  1.
         -5    1    3    3    0  502 -0.78938373771E+01  0.29867924602E+02 -0.24977485776E+03  0.25171284743E+03  0.41800000000E+01 0.  1.
        -11    1    1    2    0    0 -0.44665679898E+02 -0.39276141261E+02 -0.65586319503E+02  0.88539276815E+02  0.00000000000E+00 0.  1.
         11    1    1    2    0    0 -0.14841747916E+03  0.75815065800E+01 -0.33252989335E+03  0.36422706837E+03  0.00000000000E+00 0. -1.
</event>
<event>
 7    1  0.2728221E-009  0.1114911E+03  0.7561462E-02  0.1257833E+00
          1   -1    0    0  501    0  0.00000000000E+00  0.00000000000E+00  0.45222005815E+03  0.45222005815E+03  0.00000000000E+00 0. -1.
         -1   -1    0    0    0  501 -0.00000000000E+00 -0.00000000000E+00 -0.31787842480E+02  0.31787842480E+02  0.00000000000E+00 0.  1.
         25    2    1    2    0    0  0.43202018530E+02 -0.17989679344E+02  0.28133111323E+03  0.31142260743E+03  0.12508717834E+03 0.  0.
          5    1    3    3  502    0  0.18280861585E+02 -0.69043973124E+02  0.19757631694E+03  0.21013122933E+03  0.41800000000E+01 0.  1.
         -5    1    3    3    0  502  0.24921156945E+02  0.51054293780E+02  0.83754796287E+02  0.10129137810E+03  0.41800000000E+01 0.  1.
        -11    1    1    2    0    0 -0.35725895072E+02 -0.29540342023E+02  0.35606909589E+02  0.58453600368E+02  0.00000000000E+00 0.  1.
         11    1    1    2    0    0 -0.74761234581E+01  0.47530021367E+02  0.10349419285E+03  0.11413169282E+03  0.00000000000E+00 0. -1.
</event>
<event>
 7    1  0.2728221E-009  0.2295204E+03  0.7561462E-02  0.1126978E+00
          1   -1    0    0  501    0  0.00000000000E+00  0.00000000000E+00  0.84561207121E+03  0.84561207121E+03  0.00000000000E+00 0. -1.
         -1   -1    0    0    0  501 -0.00000000000E+00 -0.00000000000E+00 -0.66462531344E+02  0.66462531344E+02  0.00000000000E+00 0.  1.
         25    2    1    2    0    0 -0.12703712303E+03  0.16497294144E+03  0.34300486235E+03  0.42030323607E+03  0.12509185674E+03 0.  0.
          5    1    3    3  502    0  0.20586420570E+02  0.75120581970E+01  0.12592142962E+02  0.25617693000E+02  0.41800000000E+01 0. -1.
         -5    1    3    3    0  502 -0.14762354361E+03  0.15746088325E+03  0.33041271938E+03  0.39468554307E+03  0.41800000000E+01 0. -1.
        -11    1    1    2    0    0 -0.24176097208E+01 -0.42740345080E+02  0.13824764515E+03  0.14472385196E+03  0.00000000000E+00 0. -1.
         11    1    1    2    0    0  0.12945473276E+03 -0.12223259636E+03  0.29789703236E+03  0.34704751453E+03  0.00000000000E+00 0.  1.
</event>
<event>
 7    1  0.2884892E-009  0.1015795E+03  0.7561462E-02  0.1277009E+00
         -1   -1    0    0    0  501 -0.00000000000E+00  0.00000000000E+00  0.18451400142E+02  0.18451400142E+02  0.00000000000E+00 0.  1.
          1   -1    0    0  501    0  0.00000000000E+00 -0.00000000000E+00 -0.75625699264E+03  0.75625699264E+03  0.00000000000E+00 0. -1.
         25    2    1    2    0    0  0.13751973397E+02 -0.20811975285E+02 -0.55083570459E+03  0.56541150462E+03  0.12509173043E+03 0.  0.
          5    1    3    3  502    0 -0.14795967538E+02  0.39451975861E+02 -0.86652850392E+02  0.96444636636E+02  0.41800000000E+01 0.  1.
         -5    1    3    3    0  502  0.28547940935E+02 -0.60263951146E+02 -0.46418285419E+03  0.46896686798E+03  0.41800000000E+01 0.  1.
        -11    1    1    2    0    0 -0.52153039034E+02  0.19174540741E+02 -0.11413489833E+03  0.12694241809E+03  0.00000000000E+00 0.  1.
         11    1    1    2    0    0  0.38401065637E+02  0.16374345437E+01 -0.72834989581E+02  0.82354470074E+02  0.00000000000E+00 0. -1.
</event>
<event>
 7    1  0.2728221E-009  0.1251029E+03  0.7561462E-02  0.1234909E+00
          1   -1    0    0  501    0  0.00000000000E+00  0.00000000000E+00  0.23174807829E+03  0.23174807829E+03  0.00000000000E+00 0. -1.
         -1   -1    0    0    0  501 -0.00000000000E+00 -0.00000000000E+00 -0.92731295483E+02  0.92731295483E+02  0.00000000000E+00 0.  1.
         25    2    1    2    0    0  0.65553325370E+02  0.54056346250E+02  0.28647690853E+02  0.15390901309E+03  0.12509183459E+03 0.  0.
          5    1    3    3  502    0  0.32789469651E+02  0.92165437156E+02  0.32915352883E+02  0.10329816059E+03  0.41800000000E+01 0. -1.
         -5    1    3    3    0  502  0.32763855719E+02 -0.38109090907E+02 -0.42676620295E+01  0.50610852497E+02  0.41800000000E+01 0. -1.
        -11    1    1    2    0    0 -0.52400747618E+02 -0.68372865357E+01  0.10945618501E+03  0.12154523140E+03  0.00000000000E+00 0. -1.
         11    1    1    2    0    0 -0.13152577752E+02 -0.47219059714E+02  0.91290693394E+00  0.49025129279E+02  0.00000000000E+00 0.  1.
</event>
<event>
 7    1  0.2728221E-009  0.1390635E+03  0.7561462E-02  0.1214595E+00
          2   -1    0    0  501    0  0.00000000000E+00  0.00000000000E+00  0.10441610455E+03  0.10441610455E+03  0.00000000000E+00 0. -1.
         -2   -1    0    0    0  501 -0.00000000000E+00 -0.00000000000E+00 -0.29369925079E+03  0.29369925079E+03  0.00000000000E+00 0.  1.
         25    2    1    2    0    0 -0.11562125052E+03  0.67688139035E+02 -0.96936383166E+02  0.20735514320E+03  0.12509810267E+03 0.  0.
          5    1    3    3  502    0 -0.50403198744E+02  0.36174027184E+02  0.23730501918E+02  0.66555629421E+02  0.41800000000E+01 0.  1.
         -5    1    3    3    0  502 -0.65218051778E+02  0.31514111851E+02 -0.12066688508E+03  0.14079951378E+03  0.41800000000E+01 0.  1.
        -11    1    1    2    0    0  0.79153435734E+02 -0.17016074995E+02 -0.99098079580E+02  0.12796578673E+03  0.00000000000E+00 0.  1.
         11    1    1    2    0    0  0.36467814787E+02 -0.50672064039E+02  0.67513165084E+01  0.62794425421E+02  0.00000000000E+00 0. -1.
</event>
<event>
 7    1  0.2728221E-009  0.1647295E+03  0.7561462E-02  0.1183458E+00
          1   -1    0    0  501    0  0.00000000000E+00  0.00000000000E+00  0.60588782657E+03  0.60588782657E+03  0.00000000000E+00 0. -1.
         -1   -1    0    0    0  501 -0.00000000000E+00 -0.00000000000E+00 -0.77051801614E+02  0.77051801614E+02  0.00000000000E+00 0.  1.
         25    2    1    2    0    0  0.49606028318E+02 -0.13825411050E+03  0.45710146890E+03  0.49614962703E+03  0.12509093660E+03 0.  0.
          5    1    3    3  502    0  0.76486740474E+02 -0.55483395445E+02  0.32017906299E+03  0.33385735489E+03  0.41800000000E+01 0.  1.
         -5    1    3    3    0  502 -0.26880712155E+02 -0.82770715053E+02  0.13692240591E+03  0.16229227214E+03  0.41800000000E+01 0.  1.
        -11    1    1    2    0    0 -0.20872770290E+02  0.81567670972E+02 -0.82860248323E+01  0.84602693189E+02  0.00000000000E+00 0. -1.
         11    1    1    2    0    0 -0.28733258028E+02  0.56686439526E+02  0.80020580892E+02  0.10218730797E+03  0.00000000000E+00 0.  1.
</event>
<event>
 7    1  0.3350941E-009  0.2286668E+03  0.7561462E-02  0.1127582E+00
         -1   -1    0    0    0  501 -0.00000000000E+00  0.00000000000E+00  0.33241258808E+02  0.33241258808E+02  0.00000000000E+00 0.  1.
          1   -1    0    0  501    0  0.00000000000E+00 -0.00000000000E+00 -0.18798228938E+04  0.18798228938E+04  0.00000000000E+00 0. -1.
         25    2    1    2    0    0 -0.20602627611E+03 -0.89785884511E+02 -0.99095482274E+03  0.10237906514E+04  0.12508999025E+03 0.  0.
          5    1    3    3  502    0 -0.39196227009E+01  0.60144286381E+01 -0.24197166495E+03  0.24211422063E+03  0.41800000000E+01 0. -1.
         -5    1    3    3    0  502 -0.20210665341E+03 -0.95800313149E+02 -0.74898315779E+03  0.78167643076E+03  0.41800000000E+01 0. -1.
        -11    1    1    2    0    0  0.11692708266E+03  0.42157354678E+02 -0.30326480449E+03  0.32774796240E+03  0.00000000000E+00 0.  1.
         11    1    1    2    0    0  0.89099193454E+02  0.47628529832E+02 -0.55236200772E+03  0.56152553877E+03  0.00000000000E+00 0. -1.
</event>
<event>
 7    1  0.2728221E-009  0.1553197E+03  0.7561462E-02  0.1194084E+00
          2   -1    0    0  501    0  0.00000000000E+00  0.00000000000E+00  0.49473042350E+03  0.49473042350E+03  0.00000000000E+00 0.  1.
         -2   -1    0    0    0  501 -0.00000000000E+00 -0.00000000000E+00 -0.58709776680E+02  0.58709776680E+02  0.00000000000E+00 0. -1.
         25    2    1    2    0    0  0.10590366093E+03  0.79352403066E+02  0.24709157374E+03  0.30694251693E+03  0.12508826330E+03 0.  0.
          5    1    3    3  502    0 -0.69151683734E+01 -0.10333591994E+02  0.10040426994E+03  0.10125755527E+03  0.41800000000E+01 0. -1.
         -5    1    3    3    0  502  0.11281882931E+03  0.89685995060E+02  0.14668730379E+03  0.20568496165E+03  0.41800000000E+01 0. -1.
        -11    1    1    2    0    0 -0.11826158662E+03 -0.75838666947E+02  0.15006303408E+03  0.20556317878E+03  0.00000000000E+00 0. -1.
         11    1    1    2    0    0  0.12357925681E+02 -0.35137361184E+01  0.38866039005E+02  0.40934504475E+02  0.00000000000E+00 0.  1.
</event>
<event>
 7    1  0.2728221E-009  0.1581219E+03  0.7561462E-02  0.1190834E+00
          2   -1    0    0  501    0  0.00000000000E+00  0.00000000000E+00  0.24655524824E+03  0.24655524824E+03  0.00000000000E+00 0. -1.
         -2   -1    0    0    0  501 -0.00000000000E+00 -0.00000000000E+00 -0.17802336335E+03  0.17802336335E+03  0.00000000000E+00 0.  1.
         25    2    1    2    0    0  0.13907257907E+03 -0.25202607032E+02  0.14864446035E+03  0.24025368836E+03  0.12510118116E+03 0.  0.
          5    1    3    3  502    0  0.10908602904E+03 -0.58964628199E+02  0.15027418810E+03  0.19487532712E+03  0.41800000000E+01 0.  1.
         -5    1    3    3    0  502  0.29986550028E+02  0.33762021167E+02 -0.16297277584E+01  0.45378361236E+02  0.41800000000E+01 0.  1.
        -11    1    1    2    0    0 -0.50152615981E+02  0.28791792899E+02 -0.75648683095E+02  0.95220667305E+02  0.00000000000E+00 0.  1.
         11    1    1    2    0    0 -0.88919963084E+02 -0.35891858673E+01 -0.44638923568E+01  0.89104255931E+02  0.00000000000E+00 0. -1.
</event>
<event>
 7    1  0.2728221E-009  0.8874986E+02  0.7561462E-02  0.1305908E+00
          1   -1    0    0  501    0  0.00000000000E+00  0.00000000000E+00  0.53312591942E+02  0.53312591942E+02  0.00000000000E+00 0. -1.
         -1   -1    0    0    0  501 -0.00000000000E+00 -0.00000000000E+00 -0.26701403489E+03  0.26701403489E+03  0.00000000000E+00 0.  1.
         25    2    1    2    0    0  0.38193356419E+02 -0.80932271221E+01 -0.16577755407E+03  0.21131576143E+03  0.12509164959E+03 0.  0.
          5    1    3    3  502    0 -0.20109283885E+02  0.42818897768E+02 -0.33915803804E+02  0.58357479830E+02  0.41800000000E+01 0.  1.
         -5    1    3    3    0  502  0.58302640304E+02 -0.50912124890E+02 -0.13186175027E+03  0.15295828160E+03  0.41800000000E+01 0.  1.
        -11    1    1    2    0    0 -0.13918694552E+02  0.20851704646E+02 -0.69649768177E+02  0.74024413890E+02  0.00000000000E+00 0.  1.
         11    1    1    2    0    0 -0.24274661867E+02 -0.12758477524E+02  0.21725879304E+02  0.34986451507E+02  0.00000000000E+00 0. -1.
</event>
<event>
 7    1  0.2728221E-009  0.9194752E+02  0.7561462E-02  0.1298203E+00
          1   -1    0    0  501    0  0.00000000000E+00  0.00000000000E+00  0.85270611311E+03  0.85270611311E+03  0.00000000000E+00 0. -1.
         -1   -1    0    0    0  501 -0.00000000000E+00 -0.00000000000E+00 -0.24357430145E+02  0.24357430145E+02  0.00000000000E+00 0.  1.
         25    2    1    2    0    0 -0.74261099589E+01  0.62705391721E+02  0.66515693125E+03  0.67975763656E+03  0.12509831337E+03 0.  0.
          5    1    3    3  502    0  0.18616401670E+02  0.10613517474E+02  0.55193519440E+03  0.55236686033E+03  0.41800000000E+01 0. -1.
         -5    1    3    3    0  502 -0.26042511629E+02  0.52091874247E+02  0.11322173685E+03  0.12739077623E+03  0.41800000000E+01 0. -1.
        -11    1    1    2    0    0  0.40103850134E+02 -0.58210069174E+02  0.14046628636E+03  0.15724982846E+03  0.00000000000E+00 0. -1.
         11    1    1    2    0    0 -0.32677740175E+02 -0.44953225471E+01  0.22725465357E+02  0.40056078233E+02  0.00000000000E+00 0.  1.
</event>
<event>
 7    1  0.2728221E-009  0.1465593E+03  0.7561462E-02  0.1204766E+00
          3   -1    0    0  501    0  0.00000000000E+00  0.00000000000E+00  0.16723483062E+03  0.16723483062E+03  0.00000000000E+00 0. -1.
         -3   -1    0    0    0  501 -0.00000000000E+00 -0.00000000000E+00 -0.18865032976E+03  0.18865032976E+03  0.00000000000E+00 0.  1.
         25    2    1    2    0    0 -0.67435968343E+02  0.12117088263E+03  0.15331484905E+02  0.18738217707E+03  0.12508810188E+03 0.  0.
          5    1    3    3  502    0 -0.63696577389E+02  0.49308164523E+02  0.61806451805E+02  0.10161721776E+03  0.41800000000E+01 0.  1.
         -5    1    3    3    0  502 -0.37393909534E+01  0.71862718103E+02 -0.46474966900E+02  0.85764959314E+02  0.41800000000E+01 0.  1.
        -11    1    1    2    0    0  0.31377166462E+02 -0.35222596604E+02  0.28147113399E+02  0.54931028385E+02  0.00000000000E+00 0. -1.
         11    1    1    2    0    0  0.36058801881E+02 -0.85948286022E+02 -0.64894097436E+02  0.11357195492E+03  0.00000000000E+00 0.  1.
</event>
<event>
 7    1  0.2728221E-009  0.9481213E+02  0.7561462E-02  0.1291600E+00
         -4   -1    0    0    0  501 -0.00000000000E+00  0.00000000000E+00  0.19319060303E+03  0.19319060303E+03  0.00000000000E+00 0.  1.
          4   -1    0    0  501    0  0.00000000000E+00 -0.00000000000E+00 -0.90218216682E+02  0.90218216682E+02  0.00000000000E+00 0. -1.
         25    2    1    2    0    0 -0.58342159616E+02 -0.39543874934E+02  0.37733853502E+02  0.14845505769E+03  0.12509010680E+03 0.  0.
          5    1    3    3  502    0  0.85261224732E+01  0.20919333055E+02  0.52221928316E+02  0.57051866375E+02  0.41800000000E+01 0. -1.
         -5    1    3    3    0  502 -0.66868282090E+02 -0.60463207989E+02 -0.14488074813E+02  0.91403191310E+02  0.41800000000E+01 0. -1.
        -11    1    1    2    0    0  0.15109137813E+02  0.27739476898E+02 -0.20885145438E+02  0.37867584079E+02  0.00000000000E+00 0. -1.
         11    1    1    2    0    0  0.43233021803E+02  0.11804398036E+02  0.86123678280E+02  0.97086177943E+02  0.00000000000E+00 0.  1.
</event>
<event>
 7    1  0.2728221E-009  0.1103412E+03  0.7561462E-02  0.1259939E+00
          2   -1    0    0  501    0  0.00000000000E+00  0.00000000000E+00  0.78577337649E+03  0.78577337649E+03  0.00000000000E+00 0. -1.
         -2   -1    0    0    0  501 -0.00000000000E+00 -0.00000000000E+00 -0.16372918641E+02  0.16372918641E+02  0.00000000000E+00 0.  1.
         25    2    1    2    0    0 -0.30152806299E+02  0.61368513542E+01  0.43580695663E+03  0.45444579917E+03  0.12508568370E+03 0.  0.
          5    1    3    3  502    0 -0.36702700692E+02  0.62024434113E+02  0.23202014876E+03  0.24299164697E+03  0.41800000000E+01 0.  1.
         -5    1    3    3    0  502  0.65498943932E+01 -0.55887582759E+02  0.20378680787E+03  0.21145415220E+03  0.41800000000E+01 0.  1.
        -11    1    1    2    0    0  0.17157813469E+02 -0.46551789530E+02  0.23781811977E+03  0.24293809451E+03  0.00000000000E+00 0. -1.
         11    1    1    2    0    0  0.12994992830E+02  0.40414938176E+02  0.95775381453E+02  0.10476240146E+03  0.00000000000E+00 0.  1.
</event>
<event>
 7    1  0.2728221E-009  0.2025194E+03  0.7561462E-02  0.1147631E+00
          2   -1    0    0  501    0  0.00000000000E+00  0.00000000000E+00  0.20889642586E+03  0.20889642586E+03  0.00000000000E+00 0. -1.
         -2   -1    0    0    0  501 -0.00000000000E+00 -0.00000000000E+00 -0.22939416343E+03  0.22939416343E+03  0.00000000000E+00 0.  1.
         25    2    1    2    0    0 -0.16252893624E+03 -0.54034374152E+02 -0.90597613030E+02  0.23063124335E+03  0.12508986456E+03 0.  0.
          5    1    3    3  502    0  0.18239586250E+02 -0.17692437693E+02 -0.14762248463E+01  0.25794505188E+02  0.41800000000E+01 0.  1.
         -5    1    3    3    0  502 -0.18076852249E+03 -0.36341936459E+02 -0.89121388183E+02  0.20483673816E+03  0.41800000000E+01 0.  1.
        -11    1    1    2    0    0  0.26273810390E+01  0.33541739453E+02  0.60079825845E+01  0.34176706562E+02  0.00000000000E+00 0. -1.
         11    1    1    2    0    0  0.15990155520E+03  0.20492634699E+02  0.64091892879E+02  0.17348263938E+03  0.00000000000E+00 0.  1.
</event>
<event>
 7    1  0.2728221E-009  0.6876844E+02  0.7561462E-02  0.1364332E+00
         -1   -1    0    0    0  501 -0.00000000000E+00  0.00000000000E+00  0.93968867564E+02  0.93968867564E+02  0.00000000000E+00 0.  1.
          1   -1    0    0  501    0  0.00000000000E+00 -0.00000000000E+00 -0.14359078382E+03  0.14359078382E+03  0.00000000000E+00 0. -1.
         25    2    1    2    0    0 -0.13043824064E+02  0.44011079521E+02 -0.27906825865E+02  0.13613853726E+03  0.12509114250E+03 0.  0.
          5    1    3    3  502    0 -0.64375497009E+01  0.36239852386E+02  0.47327469462E+02  0.60101004258E+02  0.41800000000E+01 0.  1.
         -5    1    3    3    0  502 -0.66062743635E+01  0.77712271353E+01 -0.75234295327E+02  0.76037533006E+02  0.41800000000E+01 0.  1.
        -11    1    1    2    0    0 -0.30823216574E+02 -0.30996102497E+02  0.11116004131E+02  0.45104263632E+02  0.00000000000E+00 0.  1.
         11    1    1    2    0    0  0.43867040638E+02 -0.13014977024E+02 -0.32831094516E+02  0.56316850484E+02  0.00000000000E+00 0. -1.
</event>
<event>
 7    1  0.4260184E-009  0.7898261E+02  0.7561462E-02  0.1331964E+00
          2   -1    0    0  501    0  0.00000000000E+00  0.00000000000E+00  0.19832313031E+03  0.19832313031E+03  0.00000000000E+00 0. -1.
         -2   -1    0    0    0  501 -0.00000000000E+00 -0.00000000000E+00 -0.77010704237E+02  0.77010704237E+02  0.00000000000E+00 0.  1.
         25    2    1    2    0    0 -0.39268251297E+02 -0.42420112166E+02  0.82294908988E+02  0.16050326092E+03  0.12508950094E+03 0.  0.
          5    1    3    3  502    0 -0.10741105571E+02  0.21982912606E+02 -0.22941832426E+02  0.33799702227E+02  0.41800000000E+01 0.  1.
         -5    1    3    3    0  502 -0.28527145727E+02 -0.64403024772E+02  0.10523674141E+03  0.12670355870E+03  0.41800000000E+01 0.  1.
        -11    1    1    2    0    0  0.10912513381E+02  0.29438109105E+02 -0.27262359805E+02  0.41580301564E+02  0.00000000000E+00 0.  1.
         11    1    1    2    0    0  0.28355737917E+02  0.12982003060E+02  0.66279876894E+02  0.73250272063E+02  0.00000000000E+00 0. -1.
</event>
<event>
 7    1  0.2728221E-009  0.8389342E+02  0.7561462E-02  0.1318352E+00
         -2   -1    0    0    0  501 -0.00000000000E+00  0.00000000000E+00  0.52620602982E+02  0.52620602982E+02  0.00000000000E+00 0.  1.
          2   -1    0    0  501    0  0.00000000000E+00 -0.00000000000E+00 -0.32240916964E+03  0.32240916964E+03  0.00000000000E+00 0. -1.
         25    2    1    2    0    0  0.60796513855E+02 -0.14485909948E+02 -0.11617887617E+03  0.18179967469E+03  0.12509009859E+03 0.  0.
          5    1    3    3  502    0  0.19091055628E+02 -0.25494462934E+02 -0.13185797841E+03  0.13571453465E+03  0.41800000000E+01 0.  1.
         -5    1    3    3    0  502  0.41705458227E+02  0.11008552986E+02  0.15679102247E+02  0.46085140035E+02  0.41800000000E+01 0.  1.
        -11    1    1    2    0    0 -0.30897449516E+02  0.41698984218E+02 -0.23476506702E+02  0.56961425881E+02  0.00000000000E+00 0. -1.
         11    1    1    2    0    0 -0.29899064339E+02 -0.27213074270E+02 -0.13013318379E+03  0.13626867206E+03  0.00000000000E+00 0.  1.
</event>
<event>
 7    1  0.2728221E-009  0.1329982E+03  0.7561462E-02  0.1223074E+00
         -3   -1    0    0    0  501 -0.00000000000E+00  0.00000000000E+00  0.41038772925E+03  0.41038772925E+03  0.00000000000E+00 0.  1.
          3   -1    0    0  501    0  0.00000000000E+00 -0.00000000000E+00 -0.50223872599E+02  0.50223872599E+02  0.00000000000E+00 0. -1.
         25    2    1    2    0    0 -0.58288611994E+02  0.68188402457E+02  0.14903901750E+03  0.21425408010E+03  0.12507982085E+03 0.  0.
          5    1    3    3  502    0 -0.92678711138E+02  0.73935827307E+02  0.11919438780E+03  0.16816844098E+03  0.41800000000E+01 0.  1.
         -5    1    3    3    0  502  0.34390099143E+02 -0.57474248499E+01  0.29844629699E+02  0.46085639123E+02  0.41800000000E+01 0.  1.
        -11    1    1    2    0    0  0.72884756062E+02 -0.47750827086E+02  0.20137304137E+03  0.21941611368E+03  0.00000000000E+00 0.  1.
         11    1    1    2    0    0 -0.14596144067E+02 -0.20437575370E+02  0.97517977835E+01  0.26941408068E+02  0.00000000000E+00 0. -1.
</event>
<event>
 6    1  0.2728221E-009  0.1165019E+03  0.7561462E-02  0.1248982E+00
         -1   -1    0    0    0  501 -0.00000000000E+00  0.00000000000E+00  0.83858305526E+02  0.83858305526E+02  0.00000000000E+00 0.  1.
          1   -1    0    0  501    0  0.00000000000E+00 -0.00000000000E+00 -0.21122654273E+03  0.21122654273E+03  0.00000000000E+00 0. -1.
          5    1    1    2  502    0  0.21058550294E+02  0.19927025025E+02 -0.61018891263E+02  0.67685495919E+02  0.41800000000E+01 0.  1.
         -5    1    1    2    0  502 -0.85463977098E+02 -0.55261397607E+02 -0.42497410733E+02  0.11036945123E+03  0.41800000000E+01 0.  1.
        -11    1    1    2    0    0 -0.34317353232E+01  0.33824652239E+02  0.16808088889E+02  0.37926188294E+02  0.00000000000E+00 0.  1.
         11    1    1    2    0    0  0.67837162127E+02  0.15097203433E+01 -0.40660024102E+02  0.79103712814E+02  0.00000000000E+00 0. -1.
</event>
<event>
 7    1  0.2728221E-009  0.9570821E+02  0.7561462E-02  0.1289589E+00
         -2   -1    0    0    0  501 -0.00000000000E+00  0.00000000000E+00  0.17183839583E+02  0.17183839583E+02  0.00000000000E+00 0. -1.
          2   -1    0    0  501    0  0.00000000000E+00 -0.00000000000E+00 -0.83045687140E+03  0.83045687140E+03  0.00000000000E+00 0.  1.
         25    2    1    2    0    0  0.14607052351E+02 -0.28488396726E+02 -0.60583713953E+03  0.61944574561E+03  0.12509771143E+03 0.  0.
          5    1    3    3  502    0  0.10660023335E+02 -0.65425873678E+02 -0.53718566972E+03  0.54127635936E+03  0.41800000000E+01 0.  1.
         -5    1    3    3    0  502  0.39470290160E+01  0.36937476952E+02 -0.68651469803E+02  0.78169386257E+02  0.41800000000E+01 0.  1.
        -11    1    1    2    0    0  0.57450562797E+00 -0.28567264829E+02 -0.31078857673E+02  0.42217461681E+02  0.00000000000E+00 0. -1.
         11    1    1    2    0    0 -0.15181557979E+02  0.57055661556E+02 -0.17635703462E+03  0.18597750369E+03  0.00000000000E+00 0.  1.
</event>
<event>
 7    1  0.3805268E-009  0.1521345E+03  0.7561462E-02  0.1197874E+00
          2   -1    0    0  501    0  0.00000000000E+00  0.00000000000E+00  0.90379698985E+03  0.90379698985E+03  0.00000000000E+00 0. -1.
         -2   -1    0    0    0  501 -0.00000000000E+00 -0.00000000000E+00 -0.29710225002E+02  0.29710225002E+02  0.00000000000E+00 0.  1.
         25    2    1    2    0    0  0.11210887212E+03 -0.46859953152E+02  0.42504615021E+03  0.45942988760E+03  0.12508931764E+03 0.  0.
          5    1    3    3  502    0  0.27233989295E+02  0.32917201918E+02  0.21469605039E+03  0.21894542427E+03  0.41800000000E+01 0.  1.
         -5    1    3    3    0  502  0.84874882826E+02 -0.79777155070E+02  0.21035009982E+03  0.24048446333E+03  0.41800000000E+01 0.  1.
        -11    1    1    2    0    0 -0.64149612021E+02  0.67008788643E+02  0.21219023712E+03  0.23158162105E+03  0.00000000000E+00 0.  1.
         11    1    1    2    0    0 -0.47959260100E+02 -0.20148835491E+02  0.23685037751E+03  0.24249570621E+03  0.00000000000E+00 0. -1.
</event>
<event>
 7    1  0.2728221E-009  0.1247629E+03  0.7561462E-02  0.1235440E+00
         -2   -1    0    0    0  501 -0.00000000000E+00  0.00000000000E+00  0.97324753821E+02  0.97324753821E+02  0.00000000000E+00 0. -1.
          2   -1    0    0  501    0  0.00000000000E+00 -0.00000000000E+00 -0.19562767105E+03  0.19562767105E+03  0.00000000000E+00 0.  1.
         25    2    1    2    0    0  0.39069856708E+01  0.62107143616E+02 -0.11463695561E+03  0.18072632251E+03  0.12509120764E+03 0.  0.
          5    1    3    3  502    0 -0.52016820662E+02 -0.46921018102E+01 -0.39703866465E+02  0.65739142552E+02  0.41800000000E+01 0. -1.
         -5    1    3    3    0  502  0.55923806333E+02  0.66799245426E+02 -0.74933089149E+02  0.11498717995E+03  0.41800000000E+01 0. -1.
        -11    1    1    2    0    0  0.32064082730E+02 -0.66350278375E+02  0.18375462270E+02  0.75948156366E+02  0.00000000000E+00 0.  1.
         11    1    1    2    0    0 -0.35971068400E+02  0.42431347587E+01 -0.20414238842E+01  0.36277945999E+02  0.00000000000E+00 0. -1.
</event>
<event>
 7    1  0.2728221E-009  0.5610821E+02  0.7561462E-02  0.1414930E+00
          2   -1    0    0  501    0  0.00000000000E+00  0.00000000000E+00  0.16278689082E+03  0.16278689082E+03  0.00000000000E+00 0.  1.
         -2   -1    0    0    0  501 -0.00000000000E+00 -0.00000000000E+00 -0.90818277959E+02  0.90818277959E+02  0.00000000000E+00 0. -1.
         25    2    1    2    0    0  0.26348344056E+02  0.16769071105E+02  0.84941568025E+02  0.15439674542E+03  0.12509135876E+03 0.  0.
          5    1    3    3  502    0  0.12671011615E+02  0.32081920766E+02 -0.24789900725E+02  0.42682733667E+02  0.41800000000E+01 0.  1.
         -5    1    3    3    0  502  0.13677332442E+02 -0.15312849661E+02  0.10973146875E+03  0.11171401175E+03  0.41800000000E+01 0.  1.
        -11    1    1    2    0    0 -0.34822182044E+02  0.30574313970E+01 -0.47212961717E+02  0.58745178552E+02  0.00000000000E+00 0. -1.
         11    1    1    2    0    0  0.84738379876E+01 -0.19826502502E+02  0.34240006554E+02  0.40463244809E+02  0.00000000000E+00 0.  1.
</event>
<event>
 7    1  0.2728221E-009  0.9855253E+02  0.7561462E-02  0.1283370E+00
          1   -1    0    0  501    0  0.00000000000E+00  0.00000000000E+00  0.18715662096E+03  0.18715662096E+03  0.00000000000E+00 0. -1.
         -1   -1    0    0    0  501 -0.00000000000E+00 -0.00000000000E+00 -0.98873749508E+02  0.98873749508E+02  0.00000000000E+00 0.  1.
         25    2    1    2    0    0  0.28895229788E+02  0.75562685663E+02  0.82779872841E+02  0.17042423726E+03  0.12508900643E+03 0.  0.
          5    1    3    3  502    0 -0.13844047727E+02  0.61570612848E+02  0.10305661095E+03  0.12091623334E+03  0.41800000000E+01 0. -1.
         -5    1    3    3    0  502  0.42739277515E+02  0.13992072815E+02 -0.20276738108E+02  0.49508003923E+02  0.41800000000E+01 0. -1.
        -11    1    1    2    0    0  0.36416938650E+01 -0.41238182610E+02 -0.34322770144E+02  0.53776409229E+02  0.00000000000E+00 0.  1.
         11    1    1    2    0    0 -0.32536923653E+02 -0.34324503053E+02  0.39825768754E+02  0.61829723980E+02  0.00000000000E+00 0. -1.
</event>
<event>
 7    1  0.2728221E-009  0.1101997E+03  0.7561462E-02  0.1260201E+00
         -2   -1    0    0    0  501 -0.00000000000E+00  0.00000000000E+00  0.30726913443E+02  0.30726913443E+02  0.00000000000E+00 0.  1.
          2   -1    0    0  501    0  0.00000000000E+00 -0.00000000000E+00 -0.54932830192E+03  0.54932830192E+03  0.00000000000E+00 0. -1.
         25    2    1    2    0    0  0.51339394658E+02 -0.46632150328E+02 -0.32870620206E+03  0.35847716970E+03  0.12509125882E+03 0.  0.
          5    1    3    3  502    0  0.36218806513E+02 -0.71499101437E+02 -0.10160023094E+03  0.12947587721E+03  0.41800000000E+01 0. -1.
         -5    1    3    3    0  502  0.15120588145E+02  0.24866951109E+02 -0.22710597112E+03  0.22900129249E+03  0.41800000000E+01 0. -1.
        -11    1    1    2    0    0 -0.75828959659E+02  0.37579380033E+02 -0.11897456361E+03  0.14600406745E+03  0.00000000000E+00 0.  1.
         11    1    1    2    0    0  0.24489565001E+02  0.90527702957E+01 -0.70920622805E+02  0.75573978214E+02  0.00000000000E+00 0. -1.
</event>
<event>
 7    1  0.2728221E-009  0.1013915E+03  0.7561462E-02  0.1277397E+00
         -1   -1    0    0    0  501 -0.00000000000E+00  0.00000000000E+00  0.47508683773E+02  0.47508683773E+02  0.00000000000E+00 0.  1.
          1   -1    0    0  501    0  0.00000000000E+00 -0.00000000000E+00 -0.33319207811E+03  0.33319207811E+03  0.00000000000E+00 0. -1.
         25    2    1    2    0    0 -0.10792954496E+02 -0.43521156915E+02 -0.82422972521E+02  0.15636918356E+03  0.12508875330E+03 0.  0.
          5    1    3    3  502    0  0.38751877991E+02  0.19779647525E+02 -0.38390424745E+01  0.43876567222E+02  0.41800000000E+01 0.  1.
         -5    1    3    3    0  502 -0.49544832488E+02 -0.63300804440E+02 -0.78583930047E+02  0.11249261634E+03  0.41800000000E+01 0.  1.
        -11    1    1    2    0    0 -0.24795786999E+02  0.35264374487E+01 -0.13639104321E+03  0.13867149485E+03  0.00000000000E+00 0. -1.
         11    1    1    2    0    0  0.35588741495E+02  0.39994719466E+02 -0.66869378599E+02  0.85660083473E+02  0.00000000000E+00 0.  1.
</event>
<event>
 7    1  0.2728221E-009  0.1888760E+03  0.7561462E-02  0.1159479E+00
          4   -1    0    0  501    0  0.00000000000E+00  0.00000000000E+00  0.75883612399E+03  0.75883612399E+03  0.00000000000E+00 0.  1.
         -4   -1    0    0    0  501 -0.00000000000E+00 -0.00000000000E+00 -0.57833183345E+02  0.57833183345E+02  0.00000000000E+00 0. -1.
         25    2    1    2    0    0  0.15855893511E+03 -0.81838019813E+02  0.34364500953E+03  0.40691128527E+03  0.12508598690E+03 0.  0.
          5    1    3    3  502    0  0.19762537332E+02 -0.68853871887E+01  0.17369092911E+03  0.17499707910E+03  0.41800000000E+01 0. -1.
         -5    1    3    3    0  502  0.13879639778E+03 -0.74952632624E+02  0.16995408042E+03  0.23191420617E+03  0.41800000000E+01 0. -1.
        -11    1    1    2    0    0 -0.11624641403E+03  0.99256708740E+02  0.29687994122E+03  0.33392038348E+03  0.00000000000E+00 0.  1.
         11    1    1    2    0    0 -0.42312521077E+02 -0.17418688927E+02  0.60477989903E+02  0.75837638588E+02  0.00000000000E+00 0. -1.
</event>
<event>
 7    1  0.2728221E-009  0.2647739E+03  0.7561462E-02  0.1104308E+00
         -3   -1    0    0    0  501 -0.00000000000E+00  0.00000000000E+00  0.32962210880E+03  0.32962210880E+03  0.00000000000E+00 0.  1.
          3   -1    0    0  501    0  0.00000000000E+00 -0.00000000000E+00 -0.22489277254E+03  0.22489277254E+03  0.00000000000E+00 0. -1.
         25    2    1    2    0    0 -0.23102910626E+03 -0.89401690867E+02  0.41057293861E+02  0.28053529088E+03  0.12508891951E+03 0.  0.
          5    1    3    3  502    0  0.97946824383E+01  0.59933327451E+01 -0.10828242725E+02  0.16327249676E+02  0.41800000000E+01 0.  1.
         -5    1    3    3    0  502 -0.24082378870E+03 -0.95395023612E+02  0.51885536586E+02  0.26420804121E+03  0.41800000000E+01 0.  1.
        -11    1    1    2    0    0  0.19989015858E+03  0.46455763642E+02  0.77161316422E+02  0.21924434366E+03  0.00000000000E+00 0.  1.
         11    1    1    2    0    0  0.31138947675E+02  0.42945927225E+02 -0.13489274025E+02  0.54735246791E+02  0.00000000000E+00 0. -1.
</event>
<event>
 7    1  0.2728221E-009  0.6230284E+02  0.7561462E-02  0.1388414E+00
          1   -1    0    0  501    0  0.00000000000E+00  0.00000000000E+00  0.15564332275E+03  0.15564332275E+03  0.00000000000E+00 0. -1.
         -1   -1    0    0    0  501 -0.00000000000E+00 -0.00000000000E+00 -0.14055931139E+03  0.14055931139E+03  0.00000000000E+00 0.  1.
         25    2    1    2    0    0  0.51463561304E+02 -0.20165911327E+02 -0.75451798780E+02  0.15619146386E+03  0.12509051652E+03 0.  0.
          5    1    3    3  502    0  0.38724505600E+02 -0.25271942499E+02  0.26348532119E+02  0.53385166071E+02  0.41800000000E+01 0. -1.
         -5    1    3    3    0  502  0.12739055704E+02  0.51060311722E+01 -0.10180033090E+03  0.10280629779E+03  0.41800000000E+01 0. -1.
        -11    1    1    2    0    0 -0.42250952371E+02  0.28856069359E+02  0.10737443355E+03  0.11894151796E+03  0.00000000000E+00 0.  1.
         11    1    1    2    0    0 -0.92126089324E+01 -0.86901580325E+01 -0.16838623416E+02  0.21069652311E+02  0.00000000000E+00 0. -1.
</event>
<event>
 7    1  0.2728221E-009  0.1749023E+03  0.7561462E-02  0.1172830E+00
          3   -1    0    0  501    0  0.00000000000E+00  0.00000000000E+00  0.14358331692E+04  0.14358331692E+04  0.00000000000E+00 0. -1.
         -3   -1    0    0    0  501 -0.00000000000E+00 -0.00000000000E+00 -0.29960025473E+02  0.29960025473E+02  0.00000000000E+00 0.  1.
         25    2    1    2    0    0  0.16451352854E+03 -0.54540111905E+02  0.84272101069E+03  0.86940512658E+03  0.12508895791E+03 0.  0.
          5    1    3    3  502    0  0.12300768769E+03 -0.49239692280E+02  0.34000288730E+03  0.36493132819E+03  0.41800000000E+01 0.  1.
         -5    1    3    3    0  502  0.41505840849E+02 -0.53004196253E+01  0.50271812339E+03  0.50447379839E+03  0.41800000000E+01 0.  1.
        -11    1    1    2    0    0 -0.72771980099E+02  0.37551344013E+02  0.40129437349E+03  0.40956445002E+03  0.00000000000E+00 0. -1.
         11    1    1    2    0    0 -0.91741548444E+02  0.16988767892E+02  0.16185775959E+03  0.18682361811E+03  0.00000000000E+00 0.  1.
</event>
<event>
 7    1  0.2728221E-009  0.1139485E+03  0.7561462E-02  0.1253428E+00
         -2   -1    0    0    0  501 -0.00000000000E+00  0.00000000000E+00  0.24200494264E+02  0.24200494264E+02  0.00000000000E+00 0.  1.
          2   -1    0    0  501    0  0.00000000000E+00 -0.00000000000E+00 -0.80733850707E+03  0.80733850707E+03  0.00000000000E+00 0. -1.
         25    2    1    2    0    0 -0.21836597602E+02  0.64620594263E+02 -0.59416691698E+03  0.61101390570E+03  0.12510399487E+03 0.  0.
          5    1    3    3  502    0  0.50060747373E+02  0.16995900251E+02 -0.16736051014E+03  0.17556181763E+03  0.41800000000E+01 0.  1.
         -5    1    3    3    0  502 -0.71897344975E+02  0.47624694011E+02 -0.42680640684E+03  0.43545208808E+03  0.41800000000E+01 0.  1.
        -11    1    1    2    0    0  0.35508274071E+02 -0.17745918269E+02 -0.19628410949E+02  0.44283514530E+02  0.00000000000E+00 0.  1.
         11    1    1    2    0    0 -0.13671676469E+02 -0.46874675994E+02 -0.16934268488E+03  0.17624158110E+03  0.00000000000E+00 0. -1.
</event>
<event>
 7    1  0.2728221E-009  0.1895361E+03  0.7561462E-02  0.1158880E+00
          2   -1    0    0  501    0  0.00000000000E+00  0.00000000000E+00  0.54797816908E+03  0.54797816908E+03  0.00000000000E+00 0.  1.
         -2   -1    0    0    0  501 -0.00000000000E+00 -0.00000000000E+00 -0.16761160246E+03  0.16761160246E+03  0.00000000000E+00 0. -1.
         25    2    1    2    0    0 -0.13484649229E+03  0.85018703376E+02  0.46962276075E+03  0.51147399750E+03  0.12509339031E+03 0.  0.
          5    1    3    3  502    0 -0.15871764842E+03  0.78613770009E+02  0.40014539693E+03  0.43761310291E+03  0.41800000000E+01 0.  1.
         -5    1    3    3    0  502  0.23871156132E+02  0.64049333668E+01  0.69477363818E+02  0.73860894589E+02  0.41800000000E+01 0.  1.
        -11    1    1    2    0    0  0.39847692210E+01 -0.37351909688E+02  0.19860774675E+01  0.37616326865E+02  0.00000000000E+00 0.  1.
         11    1    1    2    0    0  0.13086172306E+03 -0.47666793688E+02 -0.91242271601E+02  0.16649944718E+03  0.00000000000E+00 0. -1.
</event>
<event>
 7    1  0.2728221E-009  0.7880407E+02  0.7561462E-02  0.1332480E+00
          1   -1    0    0  501    0  0.00000000000E+00  0.00000000000E+00  0.76099772000E+02  0.76099772000E+02  0.00000000000E+00 0. -1.
         -1   -1    0    0    0  501 -0.00000000000E+00 -0.00000000000E+00 -0.16596894902E+03  0.16596894902E+03  0.00000000000E+00 0.  1.
         25    2    1    2    0    0  0.20990277493E+02 -0.74093887161E+01 -0.35719908545E+02  0.13197357504E+03  0.12508246021E+03 0.  0.
          5    1    3    3  502    0  0.11134402871E+02 -0.48038537174E+02  0.27080853133E+02  0.56413836844E+02  0.41800000000E+01 0. -1.
         -5    1    3    3    0  502  0.98558746216E+01  0.40629148458E+02 -0.62800761678E+02  0.75559738196E+02  0.41800000000E+01 0. -1.
        -11    1    1    2    0    0  0.94336604501E+01  0.27880622610E+02 -0.65416570928E+02  0.71733191889E+02  0.00000000000E+00 0.  1.
         11    1    1    2    0    0 -0.30423937943E+02 -0.20471233894E+02  0.11267302453E+02  0.38361954091E+02  0.00000000000E+00 0. -1.
</event>
<event>
 7    1  0.2728221E-009  0.1310715E+03  0.7561462E-02  0.1225874E+00
          2   -1    0    0  501    0  0.00000000000E+00  0.00000000000E+00  0.10261357178E+04  0.10261357178E+04  0.00000000000E+00 0.  1.
         -2   -1    0    0    0  501 -0.00000000000E+00 -0.00000000000E+00 -0.26965911944E+02  0.26965911944E+02  0.00000000000E+00 0. -1.
         25    2    1    2    0    0 -0.37443458435E+02 -0.86691797124E+02  0.33319380770E+03  0.36821642252E+03  0.12509092716E+03 0.  0.
          5    1    3    3  502    0  0.11959321735E+02 -0.17039725203E+02 -0.28895706832E+01  0.21428943746E+02  0.41800000000E+01 0.  1.
         -5    1    3    3    0  502 -0.49402780169E+02 -0.69652071922E+02  0.33608337838E+03  0.34678747878E+03  0.41800000000E+01 0.  1.
        -11    1    1    2    0    0 -0.52350948362E+01  0.10771249913E+03  0.52907478472E+03  0.53995325400E+03  0.00000000000E+00 0.  1.
         11    1    1    2    0    0  0.42678553271E+02 -0.21020702002E+02  0.13690121344E+03  0.14493195322E+03  0.00000000000E+00 0. -1.
</event>
<event>
 7    1  0.2728221E-009  0.1150549E+03  0.7561462E-02  0.1251485E+00
         -1   -1    0    0    0  501 -0.00000000000E+00  0.00000000000E+00  0.18843750485E+02  0.18843750485E+02  0.00000000000E+00 0.  1.
          1   -1    0    0  501    0  0.00000000000E+00 -0.00000000000E+00 -0.75019795197E+03  0.75019795197E+03  0.00000000000E+00 0. -1.
         25    2    1    2    0    0 -0.15396956901E+02  0.37799453199E+02 -0.42634375803E+03  0.44618515445E+03  0.12508527931E+03 0.  0.
          5    1    3    3  502    0 -0.36914881016E+02 -0.37710497863E+02 -0.17452519937E+03  0.18237682886E+03  0.41800000000E+01 0.  1.
         -5    1    3    3    0  502  0.21517924115E+02  0.75509951062E+02 -0.25181855866E+03  0.26380832559E+03  0.41800000000E+01 0.  1.
        -11    1    1    2    0    0  0.12322275127E+02  0.29086853021E+02 -0.49517206654E+02  0.58735315082E+02  0.00000000000E+00 0.  1.
         11    1    1    2    0    0  0.30746817734E+01 -0.66886306219E+02 -0.25549323680E+03  0.26412123292E+03  0.00000000000E+00 0. -1.
</event>
<event>
 7    1  0.2728221E-009  0.1015180E+03  0.7561462E-02  0.1277136E+00
         -4   -1    0    0    0  501 -0.00000000000E+00  0.00000000000E+00  0.86837410739E+02  0.86837410739E+02  0.00000000000E+00 0.  1.
          4   -1    0    0  501    0  0.00000000000E+00 -0.00000000000E+00 -0.15560737514E+03  0.15560737514E+03  0.00000000000E+00 0. -1.
         25    2    1    2    0    0 -0.40793525610E+02 -0.38114982803E+01 -0.28134786407E+02  0.13460242520E+03  0.12509039696E+03 0.  0.
          5    1    3    3  502    0 -0.36072886481E+02 -0.53236750816E+02  0.17776299839E+02  0.66849637340E+02  0.41800000000E+01 0.  1.
         -5    1    3    3    0  502 -0.47206391290E+01  0.49425252536E+02 -0.45911086245E+02  0.67752787856E+02  0.41800000000E+01 0.  1.
        -11    1    1    2    0    0  0.15224202058E+02  0.40943993441E+02  0.46642277004E+01  0.43931104553E+02  0.00000000000E+00 0. -1.
         11    1    1    2    0    0  0.25569323552E+02 -0.37132495160E+02 -0.45299405694E+02  0.63911256129E+02  0.00000000000E+00 0.  1.
</event>
<event>
 7    1  0.2728221E-009  0.1442409E+03  0.7561462E-02  0.1207734E+00
         -2   -1    0    0    0  501 -0.00000000000E+00  0.00000000000E+00  0.14846300145E+03  0.14846300145E+03  0.00000000000E+00 0.  1.
          2   -1    0    0  501    0  0.00000000000E+00 -0.00000000000E+00 -0.16481389082E+03  0.16481389082E+03  0.00000000000E+00 0. -1.
         25    2    1    2    0    0  0.85567383852E+02  0.70497493917E+02 -0.23356213737E+02  0.16876334570E+03  0.12507549842E+03 0.  0.
          5    1    3    3  502    0  0.74831690086E+02  0.96845665509E+02  0.12163467072E+02  0.12306212699E+03  0.41800000000E+01 0.  1.
         -5    1    3    3    0  502  0.10735693767E+02 -0.26348171592E+02 -0.35519680809E+02  0.45701218711E+02  0.41800000000E+01 0.  1.
        -11    1    1    2    0    0 -0.47807085457E+02  0.95564884575E+01 -0.18899594530E+02  0.52288034625E+02  0.00000000000E+00 0. -1.
         11    1    1    2    0    0 -0.37760298395E+02 -0.80053982375E+02  0.25904918905E+02  0.92225511939E+02  0.00000000000E+00 0.  1.
</event>
<event>
 7    1  0.2728221E-009  0.1224641E+03  0.7561462E-02  0.1239087E+00
         -2   -1    0    0    0  501 -0.00000000000E+00  0.00000000000E+00  0.29953061139E+03  0.29953061139E+03  0.00000000000E+00 0.  1.
          2   -1    0    0  501    0  0.00000000000E+00 -0.00000000000E+00 -0.69231143531E+02  0.69231143531E+02  0.00000000000E+00 0. -1.
         25    2    1    2    0    0  0.69153665374E+02 -0.10237660251E+02  0.20329043903E+03  0.24871998289E+03  0.12509032003E+03 0.  0.
          5    1    3    3  502    0  0.92708437384E+02  0.28592263826E+02  0.14849279209E+03  0.17742591022E+03  0.41800000000E+01 0. -1.
         -5    1    3    3    0  502 -0.23554772010E+02 -0.38829924077E+02  0.54797646941E+02  0.71294072675E+02  0.41800000000E+01 0. -1.
        -11    1    1    2    0    0 -0.24328889759E+02 -0.32286464474E+02  0.40036727711E+02  0.56896838496E+02  0.00000000000E+00 0.  1.
         11    1    1    2    0    0 -0.44824775615E+02  0.42524124725E+02 -0.13027698886E+02  0.63144933533E+02  0.00000000000E+00 0. -1.
</event>
<event>
 7    1  0.2728221E-009  0.9105528E+02  0.7561462E-02  0.1300316E+00
          1   -1    0    0  501    0  0.00000000000E+00  0.00000000000E+00  0.13683689606E+04  0.13683689606E+04  0.00000000000E+00 0. -1.
         -1   -1    0    0    0  501 -0.00000000000E+00 -0.00000000000E+00 -0.91750133695E+01  0.91750133695E+01  0.00000000000E+00 0.  1.
         25    2    1    2    0    0 -0.34727500163E+01  0.11597150496E+02  0.95685208242E+03  0.96507044251E+03  0.12509395463E+03 0.  0.
          5    1    3    3  502    0  0.95025153491E+01  0.49830373009E+02  0.17728429761E+03  0.18444662765E+03  0.41800000000E+01 0. -1.
         -5    1    3    3    0  502 -0.12975265365E+02 -0.38233222512E+02  0.77956778481E+03  0.78062381486E+03  0.41800000000E+01 0. -1.
        -11    1    1    2    0    0  0.40252812687E+02  0.17332003897E+02  0.20958514902E+03  0.21411824298E+03  0.00000000000E+00 0.  1.
         11    1    1    2    0    0 -0.36780062671E+02 -0.28929154393E+02  0.19275671579E+03  0.19835528848E+03  0.00000000000E+00 0. -1.
</event>
<event>
 7    1  0.2728221E-009  0.9950530E+02  0.7561462E-02  0.1281340E+00
         -1   -1    0    0    0  501 -0.00000000000E+00  0.00000000000E+00  0.21533893532E+02  0.21533893532E+02  0.00000000000E+00 0.  1.
          1   -1    0    0  501    0  0.00000000000E+00 -0.00000000000E+00 -0.61047525596E+03  0.61047525596E+03  0.00000000000E+00 0. -1.
         25    2    1    2    0    0 -0.31097346294E+02  0.57004589161E+02 -0.38807008521E+03  0.41287106033E+03  0.12509018064E+03 0.  0.
          5    1    3    3  502    0 -0.31809685133E+02 -0.31116484163E+02 -0.72219525121E+02  0.84930700360E+02  0.41800000000E+01 0. -1.
         -5    1    3    3    0  502  0.71233883851E+00  0.88121073323E+02 -0.31585056009E+03  0.32794035997E+03  0.41800000000E+01 0. -1.
        -11    1    1    2    0    0  0.28763069895E+02 -0.41979044595E+02 -0.19697349373E+03  0.20344068326E+03  0.00000000000E+00 0. -1.
         11    1    1    2    0    0  0.23342763992E+01 -0.15025544566E+02 -0.38977834925E+01  0.15697405899E+02  0.00000000000E+00 0.  1.
</event>
<event>
 7    1  0.2728221E-009  0.1338687E+03  0.7561462E-02  0.1221826E+00
          1   -1    0    0  501    0  0.00000000000E+00  0.00000000000E+00  0.28044831547E+03  0.28044831547E+03  0.00000000000E+00 0. -1.
         -1   -1    0    0    0  501 -0.00000000000E+00 -0.00000000000E+00 -0.93810952616E+02  0.93810952616E+02  0.00000000000E+00 0.  1.
         25    2    1    2    0    0  0.33625288486E+02  0.10178975059E+03  0.15556495729E+03  0.22658073615E+03  0.12508621311E+03 0.  0.
          5    1    3    3  502    0  0.43576622364E+02  0.70364200771E+01  0.26772472606E+00  0.44339342583E+02  0.41800000000E+01 0. -1.
         -5    1    3    3    0  502 -0.99513338786E+01  0.94753330511E+02  0.15529723256E+03  0.18224139357E+03  0.41800000000E+01 0. -1.
        -11    1    1    2    0    0  0.12914977872E+02 -0.71148621719E+02 -0.16776622550E+02  0.74231920965E+02  0.00000000000E+00 0.  1.
         11    1    1    2    0    0 -0.46540266358E+02 -0.30641128869E+02  0.47849028115E+02  0.73446610967E+02  0.00000000000E+00 0. -1.
</event>
<event>
 7    1  0.2728221E-009  0.1233650E+03  0.7561462E-02  0.1237647E+00
          2   -1    0    0  501    0  0.00000000000E+00  0.00000000000E+00  0.30022684035E+03  0.30022684035E+03  0.00000000000E+00 0. -1.
         -2   -1    0    0    0  501 -0.00000000000E+00 -0.00000000000E+00 -0.98394807385E+02  0.98394807385E+02  0.00000000000E+00 0.  1.
         25    2    1    2    0    0 -0.20144405674E+02  0.11483871942E+03  0.33113814414E+02  0.17417589130E+03  0.12508792046E+03 0.  0.
          5    1    3    3  502    0 -0.35855501156E+02  0.53192875764E+02 -0.41128992290E+02  0.76316219783E+02  0.41800000000E+01 0. -1.
         -5    1    3    3    0  502  0.15711095482E+02  0.61645843659E+02  0.74242806704E+02  0.97859671515E+02  0.41800000000E+01 0. -1.
        -11    1    1    2    0    0  0.19324959550E+02 -0.46605849459E+02  0.96627216216E+01  0.51370492061E+02  0.00000000000E+00 0.  1.
         11    1    1    2    0    0  0.81944612440E+00 -0.68232869964E+02  0.15905549693E+03  0.17307526437E+03  0.00000000000E+00 0. -1.
</event>
<event>
 7    1  0.2728221E-009  0.8710342E+02  0.7561462E-02  0.1310022E+00
         -2   -1    0    0    0  501 -0.00000000000E+00  0.00000000000E+00  0.19247632705E+03  0.19247632705E+03  0.00000000000E+00 0.  1.
          2   -1    0    0  501    0  0.00000000000E+00 -0.00000000000E+00 -0.67320281585E+02  0.67320281585E+02  0.00000000000E+00 0. -1.
         25    2    1    2    0    0  0.27585405587E+02  0.15243964457E+02  0.96580125898E+02  0.16114032685E+03  0.12508057869E+03 0.  0.
          5    1    3    3  502    0 -0.66746038981E+01  0.56700053070E+02  0.90186320877E+02  0.10681990090E+03  0.41800000000E+01 0.  1.
         -5    1    3    3    0  502  0.34260009485E+02 -0.41456088612E+02  0.63938050201E+01  0.54320425952E+02  0.41800000000E+01 0.  1.
        -11    1    1    2    0    0  0.62686266020E+01 -0.26586887566E+02  0.50030814661E+02  0.57002111238E+02  0.00000000000E+00 0.  1.
         11    1    1    2    0    0 -0.33854032189E+02  0.11342923109E+02 -0.21454895095E+02  0.41654170543E+02  0.00000000000E+00 0. -1.
</event>
<event>
 7    1  0.2728221E-009  0.5655351E+02  0.7561462E-02  0.1412892E+00
          2   -1    0    0  501    0  0.00000000000E+00  0.00000000000E+00  0.18411048463E+03  0.18411048463E+03  0.00000000000E+00 0. -1.
         -2   -1    0    0    0  501 -0.00000000000E+00 -0.00000000000E+00 -0.74459005395E+02  0.74459005395E+02  0.00000000000E+00 0.  1.
         25    2    1    2    0    0  0.25940292467E+02  0.27502436865E+02  0.41040126154E+02  0.13698805018E+03  0.12510855738E+03 0.  0.
          5    1    3    3  502    0 -0.46787926348E+01  0.33289326952E+01 -0.43347512896E+02  0.43925529794E+02  0.41800000000E+01 0.  1.
         -5    1    3    3    0  502  0.30619085101E+02  0.24173504170E+02  0.84387639050E+02  0.93062520387E+02  0.41800000000E+01 0.  1.
        -11    1    1    2    0    0  0.15526050387E+02  0.23127185039E+01  0.68739217211E+02  0.70508771726E+02  0.00000000000E+00 0. -1.
         11    1    1    2    0    0 -0.41466342854E+02 -0.29815155369E+02 -0.12786413081E+00  0.51072668117E+02  0.00000000000E+00 0.  1.
</event>
<event>
 7    1  0.2728221E-009  0.1181296E+03  0.7561462E-02  0.1246215E+00
         -2   -1    0    0    0  501 -0.00000000000E+00  0.00000000000E+00  0.10808259423E+03  0.10808259423E+03  0.00000000000E+00 0.  1.
          2   -1    0    0  501    0  0.00000000000E+00 -0.00000000000E+00 -0.20477156708E+03  0.20477156708E+03  0.00000000000E+00 0. -1.
         25    2    1    2    0    0 -0.99933245522E+02 -0.14771100383E+02 -0.45503126504E+02  0.16710935841E+03  0.12510061623E+03 0.  0.
          5    1    3    3  502    0 -0.59409534129E+02 -0.26040165807E+02  0.36721859880E+02  0.74656214569E+02  0.41800000000E+01 0.  1.
         -5    1    3    3    0  502 -0.40523711392E+02  0.11269065424E+02 -0.82224986385E+02  0.92453143843E+02  0.41800000000E+01 0.  1.
        -11    1    1    2    0    0 -0.77721735474E+01  0.19694217971E+02  0.81395292724E+01  0.22683051821E+02  0.00000000000E+00 0.  1.
         11    1    1    2    0    0  0.10770541907E+03 -0.49231175881E+01 -0.59325375618E+02  0.12306175107E+03  0.00000000000E+00 0. -1.
</event>
<event>
 7    1  0.2728221E-009  0.2333503E+03  0.7561462E-02  0.1124304E+00
          2   -1    0    0  501    0  0.00000000000E+00  0.00000000000E+00  0.81984681810E+02  0.81984681810E+02  0.00000000000E+00 0. -1.
         -2   -1    0    0    0  501 -0.00000000000E+00 -0.00000000000E+00 -0.81392515828E+03  0.81392515828E+03  0.00000000000E+00 0.  1.
         25    2    1    2    0    0  0.21001588650E+03 -0.71397128448E+02 -0.24575331462E+03  0.35390184808E+03  0.12509038292E+03 0.  0.
          5    1    3    3  502    0  0.11551894372E+03 -0.89991387435E+02 -0.93803939209E+02  0.17395323389E+03  0.41800000000E+01 0. -1.
         -5    1    3    3    0  502  0.94496942774E+02  0.18594258987E+02 -0.15194937541E+03  0.17994861419E+03  0.41800000000E+01 0. -1.
        -11    1    1    2    0    0 -0.17698179744E+03  0.48156575127E+02 -0.30110823958E+03  0.35257309072E+03  0.00000000000E+00 0.  1.
         11    1    1    2    0    0 -0.33034089054E+02  0.23240553321E+02 -0.18507892227E+03  0.18943490129E+03  0.00000000000E+00 0. -1.
</event>
<event>
 7    1  0.2728221E-009  0.9616722E+02  0.7561462E-02  0.1288569E+00
         -3   -1    0    0    0  501 -0.00000000000E+00  0.00000000000E+00  0.55835698260E+03  0.55835698260E+03  0.00000000000E+00 0.  1.
          3   -1    0    0  501    0  0.00000000000E+00 -0.00000000000E+00 -0.41193025333E+02  0.41193025333E+02  0.00000000000E+00 0. -1.
         25    2    1    2    0    0  0.27659578076E+02 -0.22355793906E+02  0.47004267069E+03  0.48770080846E+03  0.12508849875E+03 0.  0.
          5    1    3    3  502    0  0.59964385521E+02 -0.10835645901E+02  0.43205344793E+03  0.43634939329E+03  0.41800000000E+01 0. -1.
         -5    1    3    3    0  502 -0.32304807446E+02 -0.11520148005E+02  0.37989222763E+02  0.51351415173E+02  0.41800000000E+01 0. -1.
        -11    1    1    2    0    0  0.21158250070E+02 -0.22159116006E+02 -0.10627399696E+00  0.30638362593E+02  0.00000000000E+00 0. -1.
         11    1    1    2    0    0 -0.48817828146E+02  0.44514909912E+02  0.47227560568E+02  0.81210836879E+02  0.00000000000E+00 0.  1.
</event>
<event>
 7    1  0.2728221E-009  0.1336059E+03  0.7561462E-02  0.1222201E+00
         -2   -1    0    0    0  501 -0.00000000000E+00  0.00000000000E+00  0.24996226975E+03  0.24996226975E+03  0.00000000000E+00 0.  1.
          2   -1    0    0  501    0  0.00000000000E+00 -0.00000000000E+00 -0.11130410952E+03  0.11130410952E+03  0.00000000000E+00 0. -1.
         25    2    1    2    0    0  0.53938624074E+02 -0.10407095041E+03  0.25150745870E+02  0.17326293392E+03  0.12508935354E+03 0.  0.
          5    1    3    3  502    0  0.12313198630E+02 -0.17740107871E+02 -0.47882873363E+02  0.52693151826E+02  0.41800000000E+01 0.  1.
         -5    1    3    3    0  502  0.41625425443E+02 -0.86330842539E+02  0.73033619234E+02  0.12056978210E+03  0.41800000000E+01 0.  1.
        -11    1    1    2    0    0 -0.42820433058E+02 -0.17729216694E+01  0.25243448341E+02  0.49738962822E+02  0.00000000000E+00 0. -1.
         11    1    1    2    0    0 -0.11118191016E+02  0.10584387208E+03  0.88263966025E+02  0.13826448252E+03  0.00000000000E+00 0.  1.
</event>
<event>
 7    1  0.2728221E-009  0.2478323E+03  0.7561462E-02  0.1114682E+00
         -2   -1    0    0    0  501 -0.00000000000E+00  0.00000000000E+00  0.62509759457E+03  0.62509759457E+03  0.00000000000E+00 0.  1.
          2   -1    0    0  501    0  0.00000000000E+00 -0.00000000000E+00 -0.10746637325E+03  0.10746637325E+03  0.00000000000E+00 0. -1.
         25    2    1    2    0    0  0.23392982281E+03 -0.36156501788E+01  0.24035123821E+03  0.35798274080E+03  0.12508673022E+03 0.  0.
          5    1    3    3  502    0  0.20918095371E+03  0.26341991466E+02  0.23920410876E+03  0.31888344259E+03  0.41800000000E+01 0. -1.
         -5    1    3    3    0  502  0.24748869094E+02 -0.29957641645E+02  0.11471294456E+01  0.39099298208E+02  0.41800000000E+01 0. -1.
        -11    1    1    2    0    0 -0.18186123700E+03  0.34591429252E+02  0.16979975874E+03  0.25120118346E+03  0.00000000000E+00 0. -1.
         11    1    1    2    0    0 -0.52068585808E+02 -0.30975779073E+02  0.10748022437E+03  0.12338004356E+03  0.00000000000E+00 0.  1.
</event>
<event>
 7    1  0.2728221E-009  0.1087912E+03  0.7561462E-02  0.1262825E+00
          1   -1    0    0  501    0  0.00000000000E+00  0.00000000000E+00  0.55412175027E+03  0.55412175027E+03  0.00000000000E+00 0. -1.
         -1   -1    0    0    0  501 -0.00000000000E+00 -0.00000000000E+00 -0.21729348808E+02  0.21729348808E+02  0.00000000000E+00 0.  1.
         25    2    1    2    0    0 -0.96855164200E+01  0.14050674278E+02  0.31501113221E+03  0.33936719567E+03  0.12508736708E+03 0.  0.
          5    1    3    3  502    0 -0.62245259448E+02  0.32150790351E+02  0.18741742503E+03  0.20012723265E+03  0.41800000000E+01 0. -1.
         -5    1    3    3    0  502  0.52559743028E+02 -0.18100116073E+02  0.12759370718E+03  0.13923996302E+03  0.41800000000E+01 0. -1.
        -11    1    1    2    0    0  0.46635819157E+02 -0.25264199160E+02  0.10466580451E+03  0.11733758998E+03  0.00000000000E+00 0.  1.
         11    1    1    2    0    0 -0.36950302737E+02  0.11213524882E+02  0.11271546475E+03  0.11914631344E+03  0.00000000000E+00 0. -1.
</event>
<event>
 7    1  0.2728221E-009  0.1320538E+03  0.7561462E-02  0.1224440E+00
          1   -1    0    0  501    0  0.00000000000E+00  0.00000000000E+00  0.66069590278E+03  0.66069590278E+03  0.00000000000E+00 0. -1.
         -1   -1    0    0    0  501 -0.00000000000E+00 -0.00000000000E+00 -0.34309225388E+02  0.34309225388E+02  0.00000000000E+00 0.  1.
         25    2    1    2    0    0 -0.38574703674E+02 -0.86630826575E+02  0.23847348239E+03  0.28549903201E+03  0.12508871889E+03 0.  0.
          5    1    3    3  502    0  0.11373498461E+02 -0.85552235110E+02  0.21171966485E+03  0.22867275807E+03  0.41800000000E+01 0.  1.
         -5    1    3    3    0  502 -0.49948202135E+02 -0.10785914649E+01  0.26753817544E+02  0.56826273934E+02  0.41800000000E+01 0.  1.
        -11    1    1    2    0    0 -0.52316055002E+01  0.83484180461E+02  0.29676701843E+03  0.30833040932E+03  0.00000000000E+00 0. -1.
         11    1    1    2    0    0  0.43806309174E+02  0.31466461143E+01  0.91146176566E+02  0.10117568684E+03  0.00000000000E+00 0.  1.
</event>
<event>
 7    1  0.2728221E-009  0.1421870E+03  0.7561462E-02  0.1210416E+00
         -1   -1    0    0    0  501 -0.00000000000E+00  0.00000000000E+00  0.26507245678E+03  0.26507245678E+03  0.00000000000E+00 0.  1.
          1   -1    0    0  501    0  0.00000000000E+00 -0.00000000000E+00 -0.11341724061E+03  0.11341724061E+03  0.00000000000E+00 0. -1.
         25    2    1    2    0    0  0.77393782793E+02 -0.90501023127E+02  0.11113321205E+02  0.17306350450E+03  0.12508891989E+03 0.  0.
          5    1    3    3  502    0  0.24973665716E+02 -0.85653631587E+02  0.54573134436E+02  0.10467056886E+03  0.41800000000E+01 0. -1.
         -5    1    3    3    0  502  0.52420117077E+02 -0.48473915403E+01 -0.43459813232E+02  0.68392935639E+02  0.41800000000E+01 0. -1.
        -11    1    1    2    0    0 -0.29107616852E+02  0.89322986270E+02  0.12131891115E+03  0.15344095749E+03  0.00000000000E+00 0.  1.
         11    1    1    2    0    0 -0.48286165941E+02  0.11780368575E+01  0.19222983823E+02  0.51985235396E+02  0.00000000000E+00 0. -1.
</event>
<event>
 7    1  0.2728221E-009  0.2879184E+03  0.7561462E-02  0.1091441E+00
          2   -1    0    0  501    0  0.00000000000E+00  0.00000000000E+00  0.38619267286E+03  0.38619267286E+03  0.00000000000E+00 0. -1.
         -2   -1    0    0    0  501 -0.00000000000E+00 -0.00000000000E+00 -0.23189940222E+03  0.23189940222E+03  0.00000000000E+00 0.  1.
         25    2    1    2    0    0  0.27631019965E+03 -0.55504991860E+01  0.40816878606E+02  0.30609168806E+03  0.12509184406E+03 0.  0.
          5    1    3    3  502    0  0.13110957884E+03 -0.59625292318E+02 -0.58784541951E+01  0.14421139266E+03  0.41800000000E+01 0.  1.
         -5    1    3    3    0  502  0.14520062080E+03  0.54074793132E+02  0.46695332801E+02  0.16188029540E+03  0.41800000000E+01 0.  1.
        -11    1    1    2    0    0 -0.14654474103E+03 -0.42944522340E+01  0.12231475296E+02  0.14711700253E+03  0.00000000000E+00 0. -1.
         11    1    1    2    0    0 -0.12976545861E+03  0.98449514201E+01  0.10124491674E+03  0.16488338450E+03  0.00000000000E+00 0.  1.
</event>
<event>
 7    1  0.2728221E-009  0.1308993E+03  0.7561462E-02  0.1226127E+00
         -2   -1    0    0    0  501 -0.00000000000E+00  0.00000000000E+00  0.62652934070E+02  0.62652934070E+02  0.00000000000E+00 0. -1.
          2   -1    0    0  501    0  0.00000000000E+00 -0.00000000000E+00 -0.30224742569E+03  0.30224742569E+03  0.00000000000E+00 0.  1.
         25    2    1    2    0    0  0.27566423465E+02 -0.75271013641E+02 -0.15194742573E+03  0.21251002275E+03  0.12508739499E+03 0.  0.
          5    1    3    3  502    0  0.77615464792E+02 -0.43709393568E+02 -0.87899562015E+02  0.12521372474E+03  0.41800000000E+01 0. -1.
         -5    1    3    3    0  502 -0.50049041327E+02 -0.31561620073E+02 -0.64047863716E+02  0.87296298009E+02  0.41800000000E+01 0. -1.
        -11    1    1    2    0    0 -0.28752937096E+02  0.92075493853E+02 -0.44811497073E+02  0.10636116881E+03  0.00000000000E+00 0.  1.
         11    1    1    2    0    0  0.11865136308E+01 -0.16804480212E+02 -0.42835568815E+02  0.46029168204E+02  0.00000000000E+00 0. -1.
</event>
<event>
 7    1  0.2728221E-009  0.1039673E+03  0.7561462E-02  0.1272168E+00
          1   -1    0    0  501    0  0.00000000000E+00  0.00000000000E+00  0.34160342944E+03  0.34160342944E+03  0.00000000000E+00 0. -1.
         -1   -1    0    0    0  501 -0.00000000000E+00 -0.00000000000E+00 -0.60142642409E+02  0.60142642409E+02  0.00000000000E+00 0.  1.
         25    2    1    2    0    0 -0.79312059700E+02 -0.46670385249E+02  0.17001153213E+03  0.23026486173E+03  0.12509779302E+03 0.  0.
          5    1    3    3  502    0  0.10730814833E+02 -0.59503314329E+01  0.11762635962E+03  0.11833845405E+03  0.41800000000E+01 0. -1.
         -5    1    3    3    0  502 -0.90042874533E+02 -0.40720053816E+02  0.52385172516E+02  0.11192640768E+03  0.41800000000E+01 0. -1.
        -11    1    1    2    0    0  0.38762497519E+02  0.38624991797E+02  0.23046036564E+01  0.54769812884E+02  0.00000000000E+00 0.  1.
         11    1    1    2    0    0  0.40549562181E+02  0.80453934516E+01  0.10914465124E+03  0.11671139723E+03  0.00000000000E+00 0. -1.
</event>
<event>
 7    1  0.2728221E-009  0.9852183E+02  0.7561462E-02  0.1283435E+00
         -1   -1    0    0    0  501 -0.00000000000E+00  0.00000000000E+00  0.20499935582E+03  0.20499935582E+03  0.00000000000E+00 0.  1.
          1   -1    0    0  501    0  0.00000000000E+00 -0.00000000000E+00 -0.93390858939E+02  0.93390858939E+02  0.00000000000E+00 0. -1.
         25    2    1    2    0    0 -0.25445347216E+02  0.72135851433E+02  0.26422010607E+02  0.14899529250E+03  0.12510166979E+03 0.  0.
          5    1    3    3  502    0  0.12100171284E+02  0.80680970456E+02  0.57031096134E+02  0.99628567515E+02  0.41800000000E+01 0.  1.
         -5    1    3    3    0  502 -0.37545518501E+02 -0.85451190226E+01 -0.30609085527E+02  0.49366724981E+02  0.41800000000E+01 0.  1.
        -11    1    1    2    0    0  0.63468268301E+01 -0.12789227434E+02  0.85868307004E+02  0.87047186611E+02  0.00000000000E+00 0.  1.
         11    1    1    2    0    0  0.19098520386E+02 -0.59346624000E+02 -0.68182073202E+00  0.62347735649E+02  0.00000000000E+00 0. -1.
</event>
<event>
 7    1  0.2728221E-009  0.3202323E+03  0.7561462E-02  0.1075542E+00
          1   -1    0    0  501    0  0.00000000000E+00  0.00000000000E+00  0.33908983978E+03  0.33908983978E+03  0.00000000000E+00 0. -1.
         -1   -1    0    0    0  501 -0.00000000000E+00 -0.00000000000E+00 -0.32661556132E+03  0.32661556132E+03  0.00000000000E+00 0.  1.
         25    2    1    2    0    0 -0.30852955145E+03 -0.17386069693E+02  0.64578658158E+02  0.33957442621E+03  0.12509048048E+03 0.  0.
          5    1    3    3  502    0 -0.28062189349E+03  0.81208565205E+01  0.20742773472E+02  0.28153566464E+03  0.41800000000E+01 0.  1.
         -5    1    3    3    0  502 -0.27907657965E+02 -0.25506926213E+02  0.43835884686E+02  0.58038761566E+02  0.41800000000E+01 0.  1.
        -11    1    1    2    0    0  0.19361532417E+03 -0.32600034090E+02 -0.25091938507E+02  0.19793751882E+03  0.00000000000E+00 0.  1.
         11    1    1    2    0    0  0.11491422728E+03  0.49986103783E+02 -0.27012441195E+02  0.12819345608E+03  0.00000000000E+00 0. -1.
</event>
<event>
 7    1  0.2728221E-009  0.1146406E+03  0.7561462E-02  0.1252210E+00
         -1   -1    0    0    0  501 -0.00000000000E+00  0.00000000000E+00  0.46589932334E+03  0.46589932334E+03  0.00000000000E+00 0.  1.
          1   -1    0    0  501    0  0.00000000000E+00 -0.00000000000E+00 -0.59718968648E+02  0.59718968648E+02  0.00000000000E+00 0. -1.
         25    2    1    2    0    0  0.61398861981E+02 -0.73789686376E+02  0.87546526943E+02  0.18035177760E+03  0.12509049219E+03 0.  0.
          5    1    3    3  502    0 -0.28230451510E+01 -0.26406301199E+02  0.96274160757E+02  0.99957234638E+02  0.41800000000E+01 0.  1.
         -5    1    3    3    0  502  0.64221907132E+02 -0.47383385178E+02 -0.87276338144E+01  0.80394542965E+02  0.41800000000E+01 0.  1.
        -11    1    1    2    0    0  0.30318040312E+01  0.55388273896E+02  0.79622798114E+02  0.97040417870E+02  0.00000000000E+00 0. -1.
         11    1    1    2    0    0 -0.64430666013E+02  0.18401412480E+02  0.23901102964E+03  0.24822609652E+03  0.00000000000E+00 0.  1.
</event>
<event>
 7    1  0.2728221E-009  0.2466743E+03  0.7561462E-02  0.1115425E+00
         -2   -1    0    0    0  501 -0.00000000000E+00  0.00000000000E+00  0.12328316780E+03  0.12328316780E+03  0.00000000000E+00 0.  1.
          2   -1    0    0  501    0  0.00000000000E+00 -0.00000000000E+00 -0.55086172623E+03  0.55086172623E+03  0.00000000000E+00 0. -1.
         25    2    1    2    0    0  0.21990174284E+03 -0.85895638148E+02 -0.23311860768E+03  0.35457787276E+03  0.12508535263E+03 0.  0.
          5    1    3    3  502    0  0.98235149201E+02  0.13552072239E+02 -0.43753052957E+02  0.10846937468E+03  0.41800000000E+01 0.  1.
         -5    1    3    3    0  502  0.12166659364E+03 -0.99447710387E+02 -0.18936555473E+03  0.24610849808E+03  0.41800000000E+01 0.  1.
        -11    1    1    2    0    0 -0.91361195973E+02  0.46148281968E+02 -0.29151547260E+02  0.10642530134E+03  0.00000000000E+00 0.  1.
         11    1    1    2    0    0 -0.12854054687E+03  0.39747356180E+02 -0.16530840349E+03  0.21314171994E+03  0.00000000000E+00 0. -1.
</event>
<event>
 7    1  0.2728221E-009  0.1275809E+03  0.7561462E-02  0.1231090E+00
         -1   -1    0    0    0  501 -0.00000000000E+00  0.00000000000E+00  0.32048811871E+02  0.32048811871E+02  0.00000000000E+00 0.  1.
          1   -1    0    0  501    0  0.00000000000E+00 -0.00000000000E+00 -0.56154133789E+03  0.56154133789E+03  0.00000000000E+00 0. -1.
         25    2    1    2    0    0  0.22546040824E+02  0.66573572275E+02 -0.21545462541E+03  0.25886197690E+03  0.12509381675E+03 0.  0.
          5    1    3    3  502    0  0.38079334733E+02  0.97833130400E+02 -0.18300009282E+03  0.21101626362E+03  0.41800000000E+01 0.  1.
         -5    1    3    3    0  502 -0.15533293909E+02 -0.31259558125E+02 -0.32454532588E+02  0.47845713281E+02  0.41800000000E+01 0.  1.
        -11    1    1    2    0    0 -0.30440503549E+02 -0.87463074566E+02 -0.26822513647E+03  0.28376246669E+03  0.00000000000E+00 0. -1.
         11    1    1    2    0    0  0.78944627253E+01  0.20889502291E+02 -0.45812764136E+02  0.50965706170E+02  0.00000000000E+00 0.  1.
</event>
<event>
 7    1  0.2728221E-009  0.1335070E+03  0.7561462E-02  0.1222343E+00
          2   -1    0    0  501    0  0.00000000000E+00  0.00000000000E+00  0.31072988440E+03  0.31072988440E+03  0.00000000000E+00 0. -1.
         -2   -1    0    0    0  501 -0.00000000000E+00 -0.00000000000E+00 -0.67725573610E+02  0.67725573610E+02  0.00000000000E+00 0.  1.
         25    2    1    2    0    0 -0.94686560117E+02 -0.10295176592E+02  0.11804723643E+03  0.19660482246E+03  0.12508705311E+03 0.  0.
          5    1    3    3  502    0 -0.64286572235E+02 -0.54966294337E+02  0.23933113288E+02  0.88001836313E+02  0.41800000000E+01 0.  1.
         -5    1    3    3    0  502 -0.30399987882E+02  0.44671117745E+02  0.94114123144E+02  0.10860298614E+03  0.41800000000E+01 0.  1.
        -11    1    1    2    0    0 -0.29062226094E+01 -0.24388479149E+02  0.84779055266E+01  0.25983050767E+02  0.00000000000E+00 0.  1.
         11    1    1    2    0    0  0.97592782726E+02  0.34683655740E+02  0.11647916883E+03  0.15586758479E+03  0.00000000000E+00 0. -1.
</event>
<event>
 7    1  0.2728221E-009  0.2028644E+03  0.7561462E-02  0.1147345E+00
         -1   -1    0    0    0  501 -0.00000000000E+00  0.00000000000E+00  0.42472793053E+03  0.42472793053E+03  0.00000000000E+00 0.  1.
          1   -1    0    0  501    0  0.00000000000E+00 -0.00000000000E+00 -0.11635012129E+03  0.11635012129E+03  0.00000000000E+00 0. -1.
         25    2    1    2    0    0  0.13396884501E+03 -0.13043489864E+03  0.22010581227E+03  0.31473045834E+03  0.12509108121E+03 0.  0.
          5    1    3    3  502    0  0.14067311020E+03 -0.12243886754E+03  0.23244364436E+03  0.29803979671E+03  0.41800000000E+01 0. -1.
         -5    1    3    3    0  502 -0.67042651952E+01 -0.79960310948E+01 -0.12337832089E+02  0.16690661633E+02  0.41800000000E+01 0. -1.
        -11    1    1    2    0    0 -0.11453233599E+03  0.49605759422E+02  0.45427334573E+02  0.13282330398E+03  0.00000000000E+00 0. -1.
         11    1    1    2    0    0 -0.19436509024E+02  0.80829139215E+02  0.42844662399E+02  0.93524289494E+02  0.00000000000E+00 0.  1.
</event>
<event>
 7    1  0.2728221E-009  0.8498492E+02  0.7561462E-02  0.1315472E+00
          2   -1    0    0  501    0  0.00000000000E+00  0.00000000000E+00  0.54740526930E+02  0.54740526930E+02  0.00000000000E+00 0. -1.
         -2   -1    0    0    0  501 -0.00000000000E+00 -0.00000000000E+00 -0.25638598433E+03  0.25638598433E+03  0.00000000000E+00 0.  1.
         25    2    1    2    0    0  0.28878300428E+02 -0.28115812967E+02 -0.86520716075E+02  0.15734752458E+03  0.12509178233E+03 0.  0.
          5    1    3    3  502    0  0.26938279953E+01  0.47878234224E+02 -0.17177992119E+02  0.51109077814E+02  0.41800000000E+01 0.  1.
         -5    1    3    3    0  502  0.26184472433E+02 -0.75994047191E+02 -0.69342723956E+02  0.10623844676E+03  0.41800000000E+01 0.  1.
        -11    1    1    2    0    0 -0.19176418277E+02  0.12267204263E+02 -0.12874337770E+03  0.13074049342E+03  0.00000000000E+00 0.  1.
         11    1    1    2    0    0 -0.97018821507E+01  0.15848608704E+02  0.13618636374E+02  0.23038493262E+02  0.00000000000E+00 0. -1.
</event>
<event>
 7    1  0.2728221E-009  0.1413356E+03  0.7561462E-02  0.1211543E+00
         -2   -1    0    0    0  501 -0.00000000000E+00  0.00000000000E+00  0.33492451542E+02  0.33492451542E+02  0.00000000000E+00 0.  1.
          2   -1    0    0  501    0  0.00000000000E+00 -0.00000000000E+00 -0.61206926269E+03  0.61206926269E+03  0.00000000000E+00 0. -1.
         25    2    1    2    0    0  0.63855560950E+02  0.65911901855E+02 -0.27281689722E+03  0.31384456837E+03  0.12508973665E+03 0.  0.
          5    1    3    3  502    0  0.48973055881E+02 -0.29820292878E+02 -0.87643601390E+02  0.10481642683E+03  0.41800000000E+01 0. -1.
         -5    1    3    3    0  502  0.14882505069E+02  0.95732194733E+02 -0.18517329583E+03  0.20902814154E+03  0.41800000000E+01 0. -1.
        -11    1    1    2    0    0 -0.84838263854E+02 -0.65569693427E+02 -0.26504524758E+03  0.28591239738E+03  0.00000000000E+00 0. -1.
         11    1    1    2    0    0  0.20982702905E+02 -0.34220842763E+00 -0.40714666339E+02  0.45804748476E+02  0.00000000000E+00 0.  1.
</event>
<event>
 7    1  0.2728221E-009  0.1210482E+03  0.7561462E-02  0.1241378E+00
         -4   -1    0    0    0  501 -0.00000000000E+00  0.00000000000E+00  0.56753748762E+03  0.56753748762E+03  0.00000000000E+00 0. -1.
          4   -1    0    0  501    0  0.00000000000E+00 -0.00000000000E+00 -0.26400206926E+02  0.26400206926E+02  0.00000000000E+00 0.  1.
         25    2    1    2    0    0  0.10027341135E+02 -0.54622972512E+02  0.29282753866E+03  0.32323403390E+03  0.12509219231E+03 0.  0.
          5    1    3    3  502    0  0.64935968712E+02 -0.48653221379E+02  0.18317553503E+03  0.20038603997E+03  0.41800000000E+01 0.  1.
         -5    1    3    3    0  502 -0.54908627577E+02 -0.59697511325E+01  0.10965200363E+03  0.12284799393E+03  0.41800000000E+01 0.  1.
        -11    1    1    2    0    0 -0.40652979992E+02  0.61828413381E+02  0.19790148014E+03  0.21128278047E+03  0.00000000000E+00 0. -1.
         11    1    1    2    0    0  0.30625638857E+02 -0.72054408691E+01  0.50408261900E+02  0.59420880179E+02  0.00000000000E+00 0.  1.
</event>
<event>
 7    1  0.2728221E-009  0.1088354E+03  0.7561462E-02  0.1262742E+00
          1   -1    0    0  501    0  0.00000000000E+00  0.00000000000E+00  0.26988967490E+02  0.26988967490E+02  0.00000000000E+00 0. -1.
         -1   -1    0    0    0  501 -0.00000000000E+00 -0.00000000000E+00 -0.64958787177E+03  0.64958787177E+03  0.00000000000E+00 0.  1.
         25    2    1    2    0    0  0.70288849746E+02  0.18595002033E+02 -0.37773560545E+03  0.40449803094E+03  0.12509265728E+03 0.  0.
          5    1    3    3  502    0  0.53593461797E+02 -0.42118038240E+02 -0.27963614562E+03  0.28785418988E+03  0.41800000000E+01 0.  1.
         -5    1    3    3    0  502  0.16695387949E+02  0.60713040273E+02 -0.98099459835E+02  0.11664384106E+03  0.41800000000E+01 0.  1.
        -11    1    1    2    0    0 -0.12608768841E+02 -0.25238843149E+02 -0.96692840124E+01  0.29824072635E+02  0.00000000000E+00 0. -1.
         11    1    1    2    0    0 -0.57680080905E+02  0.66438411164E+01 -0.23519401481E+03  0.24225473568E+03  0.00000000000E+00 0.  1.
</event>
<event>
 6    1  0.2728221E-009  0.1103825E+03  0.7561462E-02  0.1259863E+00
         -1   -1    0    0    0  501 -0.00000000000E+00  0.00000000000E+00  0.20754276417E+02  0.20754276417E+02  0.00000000000E+00 0.  1.
          1   -1    0    0  501    0  0.00000000000E+00 -0.00000000000E+00 -0.95907867289E+03  0.95907867289E+03  0.00000000000E+00 0. -1.
          5    1    1    2  502    0 -0.43768710085E+02 -0.71238739876E+02 -0.69729537121E+03  0.70230261650E+03  0.41800000000E+01 0.  1.
         -5    1    1    2    0  502  0.23242884887E+02  0.17503980400E+02 -0.54157770757E+02  0.61621080493E+02  0.41800000000E+01 0.  1.
        -11    1    1    2    0    0  0.29538598238E+02 -0.18504172129E+02 -0.51163078317E+02  0.61907945813E+02  0.00000000000E+00 0.  1.
         11    1    1    2    0    0 -0.90127730401E+01  0.72238931605E+02 -0.13570817619E+03  0.15400130649E+03  0.00000000000E+00 0. -1.
</event>
<event>
 7    1  0.2728221E-009  0.1333710E+03  0.7561462E-02  0.1222538E+00
         -2   -1    0    0    0  501 -0.00000000000E+00  0.00000000000E+00  0.87480546007E+02  0.87480546007E+02  0.00000000000E+00 0.  1.
          2   -1    0    0  501    0  0.00000000000E+00 -0.00000000000E+00 -0.30879504972E+03  0.30879504972E+03  0.00000000000E+00 0. -1.
         25    2    1    2    0    0  0.11346969604E+03 -0.39215149060E+02 -0.14771540512E+03  0.22777248749E+03  0.12508902956E+03 0.  0.
          5    1    3    3  502    0  0.84162233739E+02 -0.10740230299E+02 -0.16311146360E+03  0.18390610673E+03  0.41800000000E+01 0. -1.
         -5    1    3    3    0  502  0.29307462299E+02 -0.28474918761E+02  0.15396058480E+02  0.43866380767E+02  0.41800000000E+01 0. -1.
        -11    1    1    2    0    0 -0.21649181531E+02 -0.21602169456E+02  0.77878913055E+01  0.31559341520E+02  0.00000000000E+00 0.  1.
         11    1    1    2    0    0 -0.91820514507E+02  0.60817318516E+02 -0.81386989897E+02  0.13694376671E+03  0.00000000000E+00 0. -1.
</event>
<event>
 7    1  0.2728221E-009  0.1503373E+03  0.7561462E-02  0.1200059E+00
          2   -1    0    0  501    0  0.00000000000E+00  0.00000000000E+00  0.68605016934E+03  0.68605016934E+03  0.00000000000E+00 0. -1.
         -2   -1    0    0    0  501 -0.00000000000E+00 -0.00000000000E+00 -0.46674033377E+02  0.46674033377E+02  0.00000000000E+00 0.  1.
         25    2    1    2    0    0  0.11693541989E+03  0.45005070347E+02  0.47348566120E+03  0.50550540241E+03  0.12509073396E+03 0.  0.
          5    1    3    3  502    0  0.30911799856E+02 -0.42269617569E+02  0.17797958123E+03  0.18557064335E+03  0.41800000000E+01 0.  1.
         -5    1    3    3    0  502  0.86023620033E+02  0.87274687916E+02  0.29550607998E+03  0.31993475906E+03  0.41800000000E+01 0.  1.
        -11    1    1    2    0    0 -0.10284813228E+03 -0.36858198324E+02  0.17665340868E+03  0.20770818928E+03  0.00000000000E+00 0. -1.
         11    1    1    2    0    0 -0.14087287606E+02 -0.81468720227E+01 -0.10762933917E+02  0.19510611020E+02  0.00000000000E+00 0.  1.
</event>
<event>
 7    1  0.2728221E-009  0.1054415E+03  0.7561462E-02  0.1269252E+00
          2   -1    0    0  501    0  0.00000000000E+00  0.00000000000E+00  0.37812371596E+02  0.37812371596E+02  0.00000000000E+00 0. -1.
         -2   -1    0    0    0  501 -0.00000000000E+00 -0.00000000000E+00 -0.38975720941E+03  0.38975720941E+03  0.00000000000E+00 0.  1.
         25    2    1    2    0    0 -0.53295709915E+02  0.10561967453E+02 -0.21427247519E+03  0.25399251702E+03  0.12509003649E+03 0.  0.
          5    1    3    3  502    0 -0.34055159199E+02  0.51148277785E+02 -0.38750753115E+02  0.72766705679E+02  0.41800000000E+01 0. -1.
         -5    1    3    3    0  502 -0.19240550716E+02 -0.40586310332E+02 -0.17552172207E+03  0.18122581135E+03  0.41800000000E+01 0. -1.
        -11    1    1    2    0    0 -0.23727091365E+02  0.78456591136E+01 -0.21418537613E+02  0.32913264576E+02  0.00000000000E+00 0.  1.
         11    1    1    2    0    0  0.77022801280E+02 -0.18407626566E+02 -0.11625382502E+03  0.14066379941E+03  0.00000000000E+00 0. -1.
</event>
<event>
 7    1  0.2728221E-009  0.6801016E+02  0.7561462E-02  0.1366993E+00
          3   -1    0    0  501    0  0.00000000000E+00  0.00000000000E+00  0.10089609682E+03  0.10089609682E+03  0.00000000000E+00 0. -1.
         -3   -1    0    0    0  501 -0.00000000000E+00 -0.00000000000E+00 -0.14249847464E+03  0.14249847464E+03  0.00000000000E+00 0.  1.
         25    2    1    2    0    0 -0.19893964680E+02 -0.48394669758E+02 -0.21885089636E+02  0.13734376124E+03  0.12508612118E+03 0.  0.
          5    1    3    3  502    0 -0.44907170245E+01  0.33249330723E+01  0.48249750385E+02  0.48751743882E+02  0.41800000000E+01 0. -1.
         -5    1    3    3    0  502 -0.15403247655E+02 -0.51719602830E+02 -0.70134840021E+02  0.88592017361E+02  0.41800000000E+01 0. -1.
        -11    1    1    2    0    0  0.35562475172E+02  0.47343401117E+02 -0.46307512451E+02  0.75169628036E+02  0.00000000000E+00 0.  1.
         11    1    1    2    0    0 -0.15668510492E+02  0.10512686408E+01  0.26590224259E+02  0.30881182182E+02  0.00000000000E+00 0. -1.
</event>
<event>
 7    1  0.2728221E-009  0.1550703E+03  0.7561462E-02  0.1194378E+00
          2   -1    0    0  501    0  0.00000000000E+00  0.00000000000E+00  0.93220728977E+03  0.93220728977E+03  0.00000000000E+00 0. -1.
         -2   -1    0    0    0  501 -0.00000000000E+00 -0.00000000000E+00 -0.44326706713E+02  0.44326706713E+02  0.00000000000E+00 0.  1.
         25    2    1    2    0    0 -0.13427400161E+03  0.50342119989E+02  0.68144837859E+03  0.70751942564E+03  0.12509199982E+03 0.  0.
          5    1    3    3  502    0 -0.74768846106E+01  0.11331668285E+02  0.99263309552E+00  0.14239670995E+02  0.41800000000E+01 0. -1.
         -5    1    3    3    0  502 -0.12679711700E+03  0.39010451704E+02  0.68045574550E+03  0.69327975465E+03  0.41800000000E+01 0. -1.
        -11    1    1    2    0    0  0.11306138854E+03 -0.50272409665E+01  0.17948239589E+03  0.21218407377E+03  0.00000000000E+00 0. -1.
         11    1    1    2    0    0  0.21212613074E+02 -0.45314879022E+02  0.26949808571E+02  0.56830497061E+02  0.00000000000E+00 0.  1.
</event>
<event>
 7    1  0.2728221E-009  0.7995132E+02  0.7561462E-02  0.1329190E+00
         -1   -1    0    0    0  501 -0.00000000000E+00  0.00000000000E+00  0.27081472096E+03  0.27081472096E+03  0.00000000000E+00 0.  1.
          1   -1    0    0  501    0  0.00000000000E+00 -0.00000000000E+00 -0.55430672303E+02  0.55430672303E+02  0.00000000000E+00 0. -1.
         25    2    1    2    0    0 -0.28689513675E+02 -0.42984124995E+02  0.85946639987E+02  0.16032439380E+03  0.12508542331E+03 0.  0.
          5    1    3    3  502    0  0.11818776358E+02 -0.50782160870E+01  0.10162604780E+03  0.10252218172E+03  0.41800000000E+01 0.  1.
         -5    1    3    3    0  502 -0.40508290033E+02 -0.37905908908E+02 -0.15679407814E+02  0.57802212077E+02  0.41800000000E+01 0.  1.
        -11    1    1    2    0    0  0.40124070294E+02 -0.58846067141E+01  0.99584201676E+02  0.10752480103E+03  0.00000000000E+00 0.  1.
         11    1    1    2    0    0 -0.11434556619E+02  0.48868731709E+02  0.29853206995E+02  0.58396198436E+02  0.00000000000E+00 0. -1.
</event>
<event>
 7    1  0.2728221E-009  0.9695519E+02  0.7561462E-02  0.1286832E+00
         -3   -1    0    0    0  501 -0.00000000000E+00  0.00000000000E+00  0.23702709894E+03  0.23702709894E+03  0.00000000000E+00 0.  1.
          3   -1    0    0  501    0  0.00000000000E+00 -0.00000000000E+00 -0.75514336352E+02  0.75514336352E+02  0.00000000000E+00 0. -1.
         25    2    1    2    0    0 -0.10924989565E+01 -0.27165062417E+02  0.17849564248E+03  0.21965258935E+03  0.12508969365E+03 0.  0.
          5    1    3    3  502    0 -0.15251241412E+02  0.44216096770E+02  0.34537169510E+02  0.58291955328E+02  0.41800000000E+01 0. -1.
         -5    1    3    3    0  502  0.14158742455E+02 -0.71381159187E+02  0.14395847297E+03  0.16136063403E+03  0.41800000000E+01 0. -1.
        -11    1    1    2    0    0  0.71820805603E+01  0.49955803557E+02 -0.36489048045E+02  0.62278529345E+02  0.00000000000E+00 0. -1.
         11    1    1    2    0    0 -0.60895816038E+01 -0.22790741140E+02  0.19506168161E+02  0.30610316596E+02  0.00000000000E+00 0.  1.
</event>
<event>
 7    1  0.2728221E-009  0.1057423E+03  0.7561462E-02  0.1268664E+00
         -1   -1    0    0    0  501 -0.00000000000E+00  0.00000000000E+00  0.29251407791E+02  0.29251407791E+02  0.00000000000E+00 0.  1.
          1   -1    0    0  501    0  0.00000000000E+00 -0.00000000000E+00 -0.52513626953E+03  0.52513626953E+03  0.00000000000E+00 0. -1.
         25    2    1    2    0    0  0.35646206083E+02 -0.34965279924E+02 -0.21254469190E+03  0.25162929736E+03  0.12509530138E+03 0.  0.
          5    1    3    3  502    0  0.35248677426E+02  0.25987031009E+02 -0.17380474714E+03  0.17928568702E+03  0.41800000000E+01 0. -1.
         -5    1    3    3    0  502  0.39752865712E+00 -0.60952310934E+02 -0.38739944759E+02  0.72343610341E+02  0.41800000000E+01 0. -1.
        -11    1    1    2    0    0 -0.61191692000E+02 -0.22777222074E+01 -0.15201388596E+03  0.16388359501E+03  0.00000000000E+00 0.  1.
         11    1    1    2    0    0  0.25545485917E+02  0.37243002132E+02 -0.13132628388E+03  0.13887478495E+03  0.00000000000E+00 0. -1.
</event>
<event>
 7    1  0.2728221E-009  0.1135613E+03  0.7561462E-02  0.1254114E+00
          4   -1    0    0  501    0  0.00000000000E+00  0.00000000000E+00  0.56057505525E+03  0.56057505525E+03  0.00000000000E+00 0. -1.
         -4   -1    0    0    0  501 -0.00000000000E+00 -0.00000000000E+00 -0.29067039117E+02  0.29067039117E+02  0.00000000000E+00 0.  1.
         25    2    1    2    0    0  0.35458781789E+02 -0.37038796040E+02  0.19846555912E+03  0.24013435384E+03  0.12508689827E+03 0.  0.
          5    1    3    3  502    0  0.56117728547E+02 -0.68004996868E+02  0.93027117828E+02  0.12823960429E+03  0.41800000000E+01 0. -1.
         -5    1    3    3    0  502 -0.20658946758E+02  0.30966200829E+02  0.10543844129E+03  0.11189474955E+03  0.41800000000E+01 0. -1.
        -11    1    1    2    0    0 -0.42319297142E+02 -0.17958062890E+02  0.10151794257E+03  0.11144194721E+03  0.00000000000E+00 0.  1.
         11    1    1    2    0    0  0.68605153524E+01  0.54996858930E+02  0.23152451444E+03  0.23806579333E+03  0.00000000000E+00 0. -1.
</event>
<event>
 7    1  0.2728221E-009  0.1621141E+03  0.7561462E-02  0.1186330E+00
         -2   -1    0    0    0  501 -0.00000000000E+00  0.00000000000E+00  0.62130573676E+02  0.62130573676E+02  0.00000000000E+00 0.  1.
          2   -1    0    0  501    0  0.00000000000E+00 -0.00000000000E+00 -0.50182951867E+03  0.50182951867E+03  0.00000000000E+00 0. -1.
         25    2    1    2    0    0  0.74844367351E+01  0.12986126118E+03 -0.16508256551E+03  0.24457926968E+03  0.12508717670E+03 0.  0.
          5    1    3    3  502    0 -0.22976739955E+02 -0.17862254243E+02 -0.23085232932E+02  0.37381694519E+02  0.41800000000E+01 0.  1.
         -5    1    3    3    0  502  0.30461176690E+02  0.14772351542E+03 -0.14199733258E+03  0.20719757516E+03  0.41800000000E+01 0.  1.
        -11    1    1    2    0    0 -0.19995291214E+02 -0.81627905583E+01 -0.34192893364E+01  0.21866283635E+02  0.00000000000E+00 0.  1.
         11    1    1    2    0    0  0.12510854479E+02 -0.12169847062E+03 -0.27119709014E+03  0.29751453902E+03  0.00000000000E+00 0. -1.
</event>
<event>
 7    1  0.2728221E-009  0.1001548E+03  0.7561462E-02  0.1279971E+00
         -1   -1    0    0    0  501 -0.00000000000E+00  0.00000000000E+00  0.12587669488E+02  0.12587669488E+02  0.00000000000E+00 0.  1.
          1   -1    0    0  501    0  0.00000000000E+00 -0.00000000000E+00 -0.98049741402E+03  0.98049741402E+03  0.00000000000E+00 0. -1.
         25    2    1    2    0    0 -0.19931579923E+02  0.43370600472E+01 -0.62504081324E+03  0.63776308374E+03  0.12509858029E+03 0.  0.
          5    1    3    3  502    0 -0.51049084901E+02 -0.34996899067E+02 -0.48504089278E+03  0.48899175053E+03  0.41800000000E+01 0.  1.
         -5    1    3    3    0  502  0.31117504978E+02  0.39333959114E+02 -0.13999992046E+03  0.14877133321E+03  0.41800000000E+01 0.  1.
        -11    1    1    2    0    0 -0.27698157562E+02  0.20282794540E+02 -0.19574707880E+03  0.19873474418E+03  0.00000000000E+00 0. -1.
         11    1    1    2    0    0  0.47629737485E+02 -0.24619854587E+02 -0.14712185249E+03  0.15658725559E+03  0.00000000000E+00 0.  1.
</event>
<event>
 7    1  0.2728221E-009  0.1505370E+03  0.7561462E-02  0.1199815E+00
         -2   -1    0    0    0  501 -0.00000000000E+00  0.00000000000E+00  0.49883856287E+02  0.49883856287E+02  0.00000000000E+00 0.  1.
          2   -1    0    0  501    0  0.00000000000E+00 -0.00000000000E+00 -0.59551026116E+03  0.59551026116E+03  0.00000000000E+00 0. -1.
         25    2    1    2    0    0  0.31176466004E+02 -0.11897868837E+03 -0.38292768439E+03  0.42119991674E+03  0.12509139887E+03 0.  0.
          5    1    3    3  502    0  0.59350311181E+02 -0.61709756405E+02 -0.32071580769E+03  0.33197387725E+03  0.41800000000E+01 0.  1.
         -5    1    3    3    0  502 -0.28173845177E+02 -0.57268931970E+02 -0.62211876698E+02  0.89226039491E+02  0.41800000000E+01 0.  1.
        -11    1    1    2    0    0 -0.58667202181E+02  0.49806633779E+02 -0.10411820582E+03  0.12947255370E+03  0.00000000000E+00 0.  1.
         11    1    1    2    0    0  0.27490736177E+02  0.69172054596E+02 -0.58580514670E+02  0.94721647006E+02  0.00000000000E+00 0. -1.
</event>
<event>
 7    1  0.2728221E-009  0.8974339E+02  0.7561462E-02  0.1303474E+00
          2   -1    0    0  501    0  0.00000000000E+00  0.00000000000E+00  0.26949752892E+03  0.26949752892E+03  0.00000000000E+00 0. -1.
         -2   -1    0    0    0  501 -0.00000000000E+00 -0.00000000000E+00 -0.43480703129E+02  0.43480703129E+02  0.00000000000E+00 0.  1.
         25    2    1    2    0    0  0.92115305187E+01 -0.90054395617E+01  0.13622630667E+03  0.18540600153E+03  0.12510726812E+03 0.  0.
          5    1    3    3  502    0  0.49076640743E+02 -0.98129777616E+01  0.77465584424E+01  0.50816264787E+02  0.41800000000E+01 0. -1.
         -5    1    3    3    0  502 -0.39865110224E+02  0.80753819990E+00  0.12847974823E+03  0.13458973674E+03  0.41800000000E+01 0. -1.
        -11    1    1    2    0    0 -0.33423299027E+02  0.38519159303E+02  0.39899197053E+02  0.64751744971E+02  0.00000000000E+00 0.  1.
         11    1    1    2    0    0  0.24211768508E+02 -0.29513719741E+02  0.49891322068E+02  0.62820485552E+02  0.00000000000E+00 0. -1.
</event>
<event>
 7    1  0.2728221E-009  0.1448385E+03  0.7561462E-02  0.1206963E+00
          2   -1    0    0  501    0  0.00000000000E+00  0.00000000000E+00  0.78977403095E+02  0.78977403095E+02  0.00000000000E+00 0.  1.
         -2   -1    0    0    0  501 -0.00000000000E+00 -0.00000000000E+00 -0.32068844838E+03  0.32068844838E+03  0.00000000000E+00 0. -1.
         25    2    1    2    0    0  0.64754089519E+02 -0.75866568680E+02 -0.56212607208E+02  0.16957968204E+03  0.12509429642E+03 0.  0.
          5    1    3    3  502    0 -0.14169997483E+02  0.25886406054E+02 -0.22383850363E+01  0.29889423123E+02  0.41800000000E+01 0.  1.
         -5    1    3    3    0  502  0.78924087002E+02 -0.10175297473E+03 -0.53974222172E+02  0.13969025891E+03  0.41800000000E+01 0.  1.
        -11    1    1    2    0    0 -0.38708749244E+02  0.92399758334E+02 -0.16505236599E+03  0.19307606306E+03  0.00000000000E+00 0.  1.
         11    1    1    2    0    0 -0.26045340275E+02 -0.16533189654E+02 -0.20446072084E+02  0.37010106374E+02  0.00000000000E+00 0. -1.
</event>
<event>
 7    1  0.2728221E-009  0.7769285E+02  0.7561462E-02  0.1335729E+00
         -2   -1    0    0    0  501 -0.00000000000E+00  0.00000000000E+00  0.15784096968E+03  0.15784096968E+03  0.00000000000E+00 0.  1.
          2   -1    0    0  501    0  0.00000000000E+00 -0.00000000000E+00 -0.77937765061E+02  0.77937765061E+02  0.00000000000E+00 0. -1.
         25    2    1    2    0    0 -0.21337087911E+02 -0.27674563948E+02  0.46519326334E+02  0.13796126091E+03  0.12509240177E+03 0.  0.
          5    1    3    3  502    0  0.13747388665E+02  0.80185741621E+01 -0.37005806866E+02  0.40499263802E+02  0.41800000000E+01 0. -1.
         -5    1    3    3    0  502 -0.35084476576E+02 -0.35693138110E+02  0.83525133201E+02  0.97461997111E+02  0.41800000000E+01 0. -1.
        -11    1    1    2    0    0  0.52799975121E+02  0.16472115643E+02  0.80372907960E+01  0.55890661204E+02  0.00000000000E+00 0. -1.
         11    1    1    2    0    0 -0.31462887210E+02  0.11202448305E+02  0.25346587492E+02  0.41926812628E+02  0.00000000000E+00 0.  1.
</event>
<event>
 7    1  0.2728221E-009  0.1084609E+03  0.7561462E-02  0.1263447E+00
          2   -1    0    0  501    0  0.00000000000E+00  0.00000000000E+00  0.74001149238E+02  0.74001149238E+02  0.00000000000E+00 0. -1.
         -2   -1    0    0    0  501 -0.00000000000E+00 -0.00000000000E+00 -0.16845165273E+03  0.16845165273E+03  0.00000000000E+00 0.  1.
         25    2    1    2    0    0  0.17939671633E+02 -0.18864368073E+02 -0.50695351912E+02  0.13745804578E+03  0.12508796682E+03 0.  0.
          5    1    3    3  502    0  0.17491506467E+02  0.50994075750E+02 -0.59664773081E+01  0.54400549736E+02  0.41800000000E+01 0. -1.
         -5    1    3    3    0  502  0.44816516637E+00 -0.69858443823E+02 -0.44728874604E+02  0.83057496042E+02  0.41800000000E+01 0. -1.
        -11    1    1    2    0    0 -0.52740171587E+02  0.23533210869E+02 -0.15152832650E+02  0.59707169169E+02  0.00000000000E+00 0. -1.
         11    1    1    2    0    0  0.34800499954E+02 -0.46688427966E+01 -0.28602318931E+02  0.45287587023E+02  0.00000000000E+00 0.  1.
</event>
<event>
 7    1  0.2728221E-009  0.1395924E+03  0.7561462E-02  0.1213879E+00
         -2   -1    0    0    0  501 -0.00000000000E+00  0.00000000000E+00  0.52451049620E+02  0.52451049620E+02  0.00000000000E+00 0.  1.
          2   -1    0    0  501    0  0.00000000000E+00 -0.00000000000E+00 -0.40596307096E+03  0.40596307096E+03  0.00000000000E+00 0. -1.
         25    2    1    2    0    0  0.86058406099E+02 -0.53314064776E+02 -0.20899556941E+03  0.26377151042E+03  0.12509125834E+03 0.  0.
          5    1    3    3  502    0  0.11595813751E+03 -0.49296268029E+02 -0.18951481553E+03  0.22761755074E+03  0.41800000000E+01 0. -1.
         -5    1    3    3    0  502 -0.29899731414E+02 -0.40177967465E+01 -0.19480753881E+02  0.36153959688E+02  0.41800000000E+01 0. -1.
        -11    1    1    2    0    0 -0.65303908986E+02  0.70216772492E+02 -0.13628458708E+03  0.16663878403E+03  0.00000000000E+00 0. -1.
         11    1    1    2    0    0 -0.20754497113E+02 -0.16902707717E+02 -0.82318648430E+01  0.28003826120E+02  0.00000000000E+00 0.  1.
</event>
<event>
 7    1  0.2728221E-009  0.1076963E+03  0.7561462E-02  0.1264896E+00
         -1   -1    0    0    0  501 -0.00000000000E+00  0.00000000000E+00  0.11357042142E+02  0.11357042142E+02  0.00000000000E+00 0.  1.
          1   -1    0    0  501    0  0.00000000000E+00 -0.00000000000E+00 -0.11785091178E+04  0.11785091178E+04  0.00000000000E+00 0. -1.
         25    2    1    2    0    0 -0.27135203493E+02  0.12910010160E+02 -0.73144319668E+03  0.74267044683E+03  0.12508898833E+03 0.  0.
          5    1    3    3  502    0 -0.57191136032E+02  0.45614361193E+02 -0.29544701471E+03  0.30439761315E+03  0.41800000000E+01 0. -1.
         -5    1    3    3    0  502  0.30055932540E+02 -0.32704351033E+02 -0.43599618197E+03  0.43827283369E+03  0.41800000000E+01 0. -1.
        -11    1    1    2    0    0  0.13826590481E+02  0.40326245986E+02 -0.13669736034E+03  0.14319060389E+03  0.00000000000E+00 0. -1.
         11    1    1    2    0    0  0.13308613011E+02 -0.53236256146E+02 -0.29901151859E+03  0.30400510917E+03  0.00000000000E+00 0.  1.
</event>
<event>
 6    1  0.2728221E-009  0.1118515E+03  0.7561462E-02  0.1257179E+00
         -1   -1    0    0    0  501 -0.00000000000E+00  0.00000000000E+00  0.11464546705E+03  0.11464546705E+03  0.00000000000E+00 0.  1.
          1   -1    0    0  501    0  0.00000000000E+00 -0.00000000000E+00 -0.16740750155E+03  0.16740750155E+03  0.00000000000E+00 0. -1.
          5    1    1    2  502    0 -0.25263111701E+02  0.17369313523E+01 -0.75323639406E+02  0.79576157213E+02  0.41800000000E+01 0.  1.
         -5    1    1    2    0  502 -0.29267858826E+01  0.72746407197E+02  0.24967726038E+02  0.77080902818E+02  0.41800000000E+01 0.  1.
        -11    1    1    2    0    0 -0.26880953594E+02  0.60468709866E+01  0.28175443254E+01  0.27696369272E+02  0.00000000000E+00 0.  1.
         11    1    1    2    0    0  0.55070851177E+02 -0.80530209536E+02 -0.52236654545E+01  0.97699539293E+02  0.00000000000E+00 0. -1.
</event>
<event>
 6    1  0.2728221E-009  0.1893548E+03  0.7561462E-02  0.1159045E+00
         -4   -1    0    0    0  501 -0.00000000000E+00  0.00000000000E+00  0.69294053257E+02  0.69294053257E+02  0.00000000000E+00 0. -1.
          4   -1    0    0  501    0  0.00000000000E+00 -0.00000000000E+00 -0.57958678202E+03  0.57958678202E+03  0.00000000000E+00 0.  1.
          5    1    1    2  502    0 -0.85026531703E+02  0.12984922822E+03 -0.13680213938E+03  0.20693629673E+03  0.41800000000E+01 0. -1.
         -5    1    1    2    0  502 -0.37681291188E+02 -0.28326619186E+02 -0.46345641683E+02  0.66239474357E+02  0.41800000000E+01 0. -1.
        -11    1    1    2    0    0  0.49795792386E+02 -0.89217922197E+02 -0.24347076547E+03  0.26404066395E+03  0.00000000000E+00 0.  1.
         11    1    1    2    0    0  0.72912030505E+02 -0.12304686836E+02 -0.83674182225E+02  0.11166440024E+03  0.00000000000E+00 0. -1.
</event>
<event>
 7    1  0.2728221E-009  0.1494639E+03  0.7561462E-02  0.1201133E+00
         -1   -1    0    0    0  501 -0.00000000000E+00  0.00000000000E+00  0.94866924946E+02  0.94866924946E+02  0.00000000000E+00 0.  1.
          1   -1    0    0  501    0  0.00000000000E+00 -0.00000000000E+00 -0.27021949583E+03  0.27021949583E+03  0.00000000000E+00 0. -1.
         25    2    1    2    0    0 -0.17039670587E+02 -0.11525413506E+03 -0.74580369949E+02  0.18650132363E+03  0.12508655447E+03 0.  0.
          5    1    3    3  502    0  0.84021257052E+00 -0.14002581475E+03 -0.60192850663E+02  0.15247487145E+03  0.41800000000E+01 0. -1.
         -5    1    3    3    0  502 -0.17879883157E+02  0.24771679688E+02 -0.14387519286E+02  0.34026452173E+02  0.41800000000E+01 0. -1.
        -11    1    1    2    0    0  0.28620028407E+02  0.28192753072E+02  0.56854540325E+01  0.40574151123E+02  0.00000000000E+00 0.  1.
         11    1    1    2    0    0 -0.11580357821E+02  0.87061381991E+02 -0.10645765497E+03  0.13801094602E+03  0.00000000000E+00 0. -1.
</event>
<event>
 7    1  0.2728221E-009  0.9616855E+02  0.7561462E-02  0.1288566E+00
         -2   -1    0    0    0  501 -0.00000000000E+00  0.00000000000E+00  0.17041546416E+03  0.17041546416E+03  0.00000000000E+00 0.  1.
          2   -1    0    0  501    0  0.00000000000E+00 -0.00000000000E+00 -0.12462402255E+03  0.12462402255E+03  0.00000000000E+00 0. -1.
         25    2    1    2    0    0  0.64749592401E+02  0.66232889591E+02 -0.50396325543E+01  0.15573011988E+03  0.12508863642E+03 0.  0.
          5    1    3    3  502    0  0.32044977948E+02  0.56693319181E+02  0.55810135886E+02  0.85867669813E+02  0.41800000000E+01 0. -1.
         -5    1    3    3    0  502  0.32704614453E+02  0.95395704102E+01 -0.60849768441E+02  0.69862450068E+02  0.41800000000E+01 0. -1.
        -11    1    1    2    0    0 -0.41794853147E+02 -0.46083591791E+02 -0.17360208918E+02  0.64590123360E+02  0.00000000000E+00 0. -1.
         11    1    1    2    0    0 -0.22954739253E+02 -0.20149297800E+02  0.68191283086E+02  0.74719243471E+02  0.00000000000E+00 0.  1.
</event>
<event>
 7    1  0.2728221E-009  0.8690296E+02  0.7561462E-02  0.1310530E+00
         -1   -1    0    0    0  501 -0.00000000000E+00  0.00000000000E+00  0.53441070951E+02  0.53441070951E+02  0.00000000000E+00 0. -1.
          1   -1    0    0  501    0  0.00000000000E+00 -0.00000000000E+00 -0.28809677953E+03  0.28809677953E+03  0.00000000000E+00 0.  1.
         25    2    1    2    0    0 -0.58704370462E+02  0.12207470066E+02 -0.11997314062E+03  0.18340681949E+03  0.12509708841E+03 0.  0.
          5    1    3    3  502    0  0.13199249027E+02  0.17823005306E+02 -0.10780942019E+03  0.11014637159E+03  0.41800000000E+01 0. -1.
         -5    1    3    3    0  502 -0.71903619489E+02 -0.56155352395E+01 -0.12163720427E+02  0.73260447898E+02  0.41800000000E+01 0. -1.
        -11    1    1    2    0    0  0.50121426035E+02  0.13486261086E+02 -0.11980171730E+03  0.13056219994E+03  0.00000000000E+00 0.  1.
         11    1    1    2    0    0  0.85829444272E+01 -0.25693731152E+02  0.51191493369E+01  0.27568831050E+02  0.00000000000E+00 0. -1.
</event>
<event>
 7    1  0.2728221E-009  0.9994584E+02  0.7561462E-02  0.1280410E+00
          3   -1    0    0  501    0  0.00000000000E+00  0.00000000000E+00  0.92274609687E+02  0.92274609687E+02  0.00000000000E+00 0. -1.
         -3   -1    0    0    0  501 -0.00000000000E+00 -0.00000000000E+00 -0.20310672585E+03  0.20310672585E+03  0.00000000000E+00 0.  1.
         25    2    1    2    0    0  0.63695898985E+02 -0.52969736767E+02 -0.46569619692E+02  0.15710775994E+03  0.12510458902E+03 0.  0.
          5    1    3    3  502    0  0.76421752269E+02 -0.49213795029E+02  0.16539025970E+02  0.92484018193E+02  0.41800000000E+01 0. -1.
         -5    1    3    3    0  502 -0.12725853283E+02 -0.37559417377E+01 -0.63108645661E+02  0.64623741747E+02  0.41800000000E+01 0. -1.
        -11    1    1    2    0    0  0.59439447807E+01  0.13943595818E+02 -0.56002911920E+02  0.58017932464E+02  0.00000000000E+00 0.  1.
         11    1    1    2    0    0 -0.69639843766E+02  0.39026140949E+02 -0.82595845474E+01  0.80255643129E+02  0.00000000000E+00 0. -1.
</event>
<event>
 7    1  0.2728221E-009  0.1441659E+03  0.7561462E-02  0.1207831E+00
          1   -1    0    0  501    0  0.00000000000E+00  0.00000000000E+00  0.23518670282E+03  0.23518670282E+03  0.00000000000E+00 0. -1.
         -1   -1    0    0    0  501 -0.00000000000E+00 -0.00000000000E+00 -0.12297393069E+03  0.12297393069E+03  0.00000000000E+00 0.  1.
         25    2    1    2    0    0  0.38019243958E+02  0.12548555330E+03  0.54038685896E+02  0.18910098232E+03  0.12508762906E+03 0.  0.
          5    1    3    3  502    0 -0.12768209554E+02  0.98547713081E+02  0.78280195723E+02  0.12656990310E+03  0.41800000000E+01 0.  1.
         -5    1    3    3    0  502  0.50787453512E+02  0.26937840223E+02 -0.24241509827E+02  0.62531079224E+02  0.41800000000E+01 0.  1.
        -11    1    1    2    0    0 -0.31755607602E+02 -0.97011877199E+02 -0.21067125915E+01  0.10209878143E+03  0.00000000000E+00 0.  1.
         11    1    1    2    0    0 -0.62636363569E+01 -0.28473676105E+02  0.60280798830E+02  0.66960869759E+02  0.00000000000E+00 0. -1.
</event>
<event>
 7    1  0.2728221E-009  0.1038775E+03  0.7561462E-02  0.1272347E+00
          1   -1    0    0  501    0  0.00000000000E+00  0.00000000000E+00  0.36324887837E+03  0.36324887837E+03  0.00000000000E+00 0. -1.
         -1   -1    0    0    0  501 -0.00000000000E+00 -0.00000000000E+00 -0.80714684471E+02  0.80714684471E+02  0.00000000000E+00 0.  1.
         25    2    1    2    0    0  0.98693449681E+02  0.16147684854E+02  0.26309508809E+03  0.30800561192E+03  0.12508911568E+03 0.  0.
          5    1    3    3  502    0  0.27302145090E+02 -0.91729203680E+01 -0.48702369084E+01  0.29508324286E+02  0.41800000000E+01 0. -1.
         -5    1    3    3    0  502  0.71391304590E+02  0.25320605222E+02  0.26796532499E+03  0.27849728763E+03  0.41800000000E+01 0. -1.
        -11    1    1    2    0    0 -0.15170335405E+02 -0.11678471350E+02  0.44664193797E+02  0.48594402733E+02  0.00000000000E+00 0. -1.
         11    1    1    2    0    0 -0.83523114275E+02 -0.44692135036E+01 -0.25225087987E+02  0.87363548185E+02  0.00000000000E+00 0.  1.
</event>
<event>
 7    1  0.2728221E-009  0.1436976E+03  0.7561462E-02  0.1208438E+00
         -2   -1    0    0    0  501 -0.00000000000E+00  0.00000000000E+00  0.63880469880E+02  0.63880469880E+02  0.00000000000E+00 0. -1.
          2   -1    0    0  501    0  0.00000000000E+00 -0.00000000000E+00 -0.44816789593E+03  0.44816789593E+03  0.00000000000E+00 0.  1.
         25    2    1    2    0    0 -0.72244367060E+02  0.97067865046E+02 -0.13248109535E+03  0.21871571077E+03  0.12507558721E+03 0.  0.
          5    1    3    3  502    0 -0.89683647327E+02  0.83816362825E+02 -0.48882103947E+02  0.13219406856E+03  0.41800000000E+01 0.  1.
         -5    1    3    3    0  502  0.17439280267E+02  0.13251502221E+02 -0.83598991407E+02  0.86521642215E+02  0.41800000000E+01 0.  1.
        -11    1    1    2    0    0 -0.15350192599E+02 -0.22499200878E+02 -0.95178905158E+02  0.98999325453E+02  0.00000000000E+00 0. -1.
         11    1    1    2    0    0  0.87594559658E+02 -0.74568664168E+02 -0.15662742554E+03  0.19433332958E+03  0.00000000000E+00 0.  1.
</event>
<event>
 7    1  0.2728221E-009  0.1288018E+03  0.7561462E-02  0.1229244E+00
         -1   -1    0    0    0  501 -0.00000000000E+00  0.00000000000E+00  0.28904861025E+02  0.28904861025E+02  0.00000000000E+00 0.  1.
          1   -1    0    0  501    0  0.00000000000E+00 -0.00000000000E+00 -0.16764702926E+04  0.16764702926E+04  0.00000000000E+00 0. -1.
         25    2    1    2    0    0 -0.21857556200E+02 -0.98571743880E+02 -0.14849982971E+04  0.14936706146E+04  0.12505127345E+03 0.  0.
          5    1    3    3  502    0  0.46826633742E+02 -0.54639650979E+02 -0.91792387341E+03  0.92074965917E+03  0.41800000000E+01 0. -1.
         -5    1    3    3    0  502 -0.68684189942E+02 -0.43932092901E+02 -0.56707442369E+03  0.57292095540E+03  0.41800000000E+01 0. -1.
        -11    1    1    2    0    0 -0.49253523435E+01  0.27387774216E+02 -0.12273404819E+03  0.12584909955E+03  0.00000000000E+00 0.  1.
         11    1    1    2    0    0  0.26782908544E+02  0.71183969663E+02 -0.39833086262E+02  0.85855439480E+02  0.00000000000E+00 0. -1.
</event>
<event>
 7    1  0.2728221E-009  0.1964650E+03  0.7561462E-02  0.1152756E+00
         -2   -1    0    0    0  501 -0.00000000000E+00  0.00000000000E+00  0.26859614117E+02  0.26859614117E+02  0.00000000000E+00 0.  1.
          2   -1    0    0  501    0  0.00000000000E+00 -0.00000000000E+00 -0.24088325534E+04  0.24088325534E+04  0.00000000000E+00 0. -1.
         25    2    1    2    0    0 -0.18014183228E+03  0.14930233574E+02 -0.18960429736E+04  0.19087436597E+04  0.12509759890E+03 0.  0.
          5    1    3    3  502    0 -0.16028110650E+03 -0.16983998684E+02 -0.10948250124E+04  0.11066335298E+04  0.41800000000E+01 0.  1.
         -5    1    3    3    0  502 -0.19860725774E+02  0.31914232259E+02 -0.80121796120E+03  0.80211012984E+03  0.41800000000E+01 0.  1.
        -11    1    1    2    0    0  0.14555811114E+03 -0.40242854058E+02 -0.29666134313E+03  0.33288827484E+03  0.00000000000E+00 0.  1.
         11    1    1    2    0    0  0.34583721140E+02  0.25312620484E+02 -0.18926862264E+03  0.19406023302E+03  0.00000000000E+00 0. -1.
</event>
<event>
 7    1  0.2728221E-009  0.2721132E+03  0.7561462E-02  0.1100076E+00
         -2   -1    0    0    0  501 -0.00000000000E+00  0.00000000000E+00  0.32865259467E+02  0.32865259467E+02  0.00000000000E+00 0.  1.
          2   -1    0    0  501    0  0.00000000000E+00 -0.00000000000E+00 -0.26622294525E+04  0.26622294525E+04  0.00000000000E+00 0. -1.
         25    2    1    2    0    0  0.57700320981E+02 -0.25454623689E+03 -0.17328324163E+04  0.17568377665E+04  0.12509053076E+03 0.  0.
          5    1    3    3  502    0  0.53380649164E+02 -0.76126186465E+02 -0.91647881928E+03  0.92119248182E+03  0.41800000000E+01 0. -1.
         -5    1    3    3    0  502  0.43196718174E+01 -0.17842005042E+03 -0.81635359706E+03  0.83564528467E+03  0.41800000000E+01 0. -1.
        -11    1    1    2    0    0 -0.60776124925E+02  0.93239622436E+02 -0.44708704213E+03  0.46073223004E+03  0.00000000000E+00 0. -1.
         11    1    1    2    0    0  0.30758039437E+01  0.16130661445E+03 -0.44944473461E+03  0.47752471549E+03  0.00000000000E+00 0.  1.
</event>
<event>
 7    1  0.2728221E-009  0.1133332E+03  0.7561462E-02  0.1254519E+00
          2   -1    0    0  501    0  0.00000000000E+00  0.00000000000E+00  0.14851894304E+04  0.14851894304E+04  0.00000000000E+00 0. -1.
         -2   -1    0    0    0  501 -0.00000000000E+00 -0.00000000000E+00 -0.13574802217E+02  0.13574802217E+02  0.00000000000E+00 0.  1.
         25    2    1    2    0    0  0.44770849478E+02 -0.17268346211E+02  0.12226656091E+04  0.12299857189E+04  0.12510416524E+03 0.  0.
          5    1    3    3  502    0  0.71064994862E+02  0.26779984777E+02  0.53260925258E+03  0.53801253649E+03  0.41800000000E+01 0.  1.
         -5    1    3    3    0  502 -0.26294145384E+02 -0.44048330988E+02  0.69005635653E+03  0.69197318238E+03  0.41800000000E+01 0.  1.
        -11    1    1    2    0    0  0.26233890010E+02  0.78514310910E+00  0.93040918355E+02  0.96671846590E+02  0.00000000000E+00 0. -1.
         11    1    1    2    0    0 -0.71004739488E+02  0.16483203102E+02  0.15590810076E+03  0.17210666721E+03  0.00000000000E+00 0.  1.
</event>
<event>
 7    1  0.2728221E-009  0.7132086E+02  0.7561462E-02  0.1355658E+00
         -2   -1    0    0    0  501 -0.00000000000E+00  0.00000000000E+00  0.88921231471E+02  0.88921231471E+02  0.00000000000E+00 0.  1.
          2   -1    0    0  501    0  0.00000000000E+00 -0.00000000000E+00 -0.16254823968E+03  0.16254823968E+03  0.00000000000E+00 0. -1.
         25    2    1    2    0    0  0.36354512052E+02 -0.35284190611E+02 -0.22898362689E+02  0.13689070471E+03  0.12509238733E+03 0.  0.
          5    1    3    3  502    0  0.69204663207E+01  0.23791260099E+02 -0.57137644675E+02  0.62418745183E+02  0.41800000000E+01 0.  1.
         -5    1    3    3    0  502  0.29434045731E+02 -0.59075450710E+02  0.34239281987E+02  0.74471959526E+02  0.41800000000E+01 0.  1.
        -11    1    1    2    0    0 -0.22164190030E+02  0.15556128345E+02 -0.75299450918E+02  0.80020320903E+02  0.00000000000E+00 0. -1.
         11    1    1    2    0    0 -0.14190322022E+02  0.19728062266E+02  0.24570805400E+02  0.34558445536E+02  0.00000000000E+00 0.  1.
</event>
<event>
 7    1  0.2728221E-009  0.1084989E+03  0.7561462E-02  0.1263375E+00
         -2   -1    0    0    0  501 -0.00000000000E+00  0.00000000000E+00  0.15066619677E+02  0.15066619677E+02  0.00000000000E+00 0. -1.
          2   -1    0    0  501    0  0.00000000000E+00 -0.00000000000E+00 -0.13787624645E+04  0.13787624645E+04  0.00000000000E+00 0.  1.
         25    2    1    2    0    0 -0.89777568899E+02  0.26183344803E+01 -0.90253241410E+03  0.91557602901E+03  0.12509132204E+03 0.  0.
          5    1    3    3  502    0 -0.32550244235E+02  0.74573727437E+01 -0.77403275726E+03  0.77476403667E+03  0.41800000000E+01 0. -1.
         -5    1    3    3    0  502 -0.57227324664E+02 -0.48390382634E+01 -0.12849965684E+03  0.14081199235E+03  0.41800000000E+01 0. -1.
        -11    1    1    2    0    0  0.80381922457E+01 -0.36428095968E+02 -0.16486325148E+03  0.16903109300E+03  0.00000000000E+00 0.  1.
         11    1    1    2    0    0  0.81739376653E+02  0.33809761488E+02 -0.29630017921E+03  0.30922196213E+03  0.00000000000E+00 0. -1.
</event>
<event>
 7    1  0.2728221E-009  0.9928233E+02  0.7561462E-02  0.1281812E+00
         -1   -1    0    0    0  501 -0.00000000000E+00  0.00000000000E+00  0.14659384031E+02  0.14659384031E+02  0.00000000000E+00 0.  1.
          1   -1    0    0  501    0  0.00000000000E+00 -0.00000000000E+00 -0.10153471233E+04  0.10153471233E+04  0.00000000000E+00 0. -1.
         25    2    1    2    0    0  0.35921999132E+02  0.29242974392E+02 -0.67869121367E+03  0.69167556394E+03  0.12509108946E+03 0.  0.
          5    1    3    3  502    0 -0.14934233748E+02  0.43215754094E+02 -0.94190054322E+02  0.10478488189E+03  0.41800000000E+01 0.  1.
         -5    1    3    3    0  502  0.50856232880E+02 -0.13972779703E+02 -0.58450115935E+03  0.58689068205E+03  0.41800000000E+01 0.  1.
        -11    1    1    2    0    0 -0.37743735297E+01  0.31123479682E+02 -0.14987830189E+03  0.15312224613E+03  0.00000000000E+00 0.  1.
         11    1    1    2    0    0 -0.32147625602E+02 -0.60366454073E+02 -0.17211822374E+03  0.18520869729E+03  0.00000000000E+00 0. -1.
</event>
<event>
 7    1  0.2728221E-009  0.2560442E+03  0.7561462E-02  0.1109544E+00
          2   -1    0    0  501    0  0.00000000000E+00  0.00000000000E+00  0.16214178386E+03  0.16214178386E+03  0.00000000000E+00 0. -1.
         -2   -1    0    0    0  501 -0.00000000000E+00 -0.00000000000E+00 -0.51502999412E+03  0.51502999412E+03  0.00000000000E+00 0.  1.
         25    2    1    2    0    0  0.25071035407E+03 -0.14727441640E+01 -0.71333321661E+02  0.28912865581E+03  0.12509630778E+03 0.  0.
          5    1    3    3  502    0  0.20458983393E+03 -0.12913748945E+02 -0.20968063572E+01  0.20505032079E+03  0.41800000000E+01 0.  1.
         -5    1    3    3    0  502  0.46120520135E+02  0.11441004781E+02 -0.69236515303E+02  0.84078335017E+02  0.41800000000E+01 0.  1.
        -11    1    1    2    0    0 -0.16642781353E+03  0.32431354109E+02 -0.22571572139E+03  0.28230762782E+03  0.00000000000E+00 0.  1.
         11    1    1    2    0    0 -0.84282540539E+02 -0.30958609945E+02 -0.55839167213E+02  0.10573549434E+03  0.00000000000E+00 0. -1.
</event>
<event>
 7    1  0.2728221E-009  0.5618579E+02  0.7561462E-02  0.1414573E+00
          1   -1    0    0  501    0  0.00000000000E+00  0.00000000000E+00  0.10338026792E+03  0.10338026792E+03  0.00000000000E+00 0.  1.
         -1   -1    0    0    0  501 -0.00000000000E+00 -0.00000000000E+00 -0.11755201838E+03  0.11755201838E+03  0.00000000000E+00 0. -1.
         25    2    1    2    0    0 -0.17747911648E+02 -0.14113965858E+02 -0.17457074203E+02  0.12832203291E+03  0.12509037649E+03 0.  0.
          5    1    3    3  502    0 -0.12330646303E+02 -0.30377919580E+02 -0.67555641078E+02  0.75207046729E+02  0.41800000000E+01 0. -1.
         -5    1    3    3    0  502 -0.54172653454E+01  0.16263953722E+02  0.50098566875E+02  0.53114986185E+02  0.41800000000E+01 0. -1.
        -11    1    1    2    0    0  0.21319497971E+02 -0.18887265865E+02 -0.32893251905E+02  0.43511100038E+02  0.00000000000E+00 0. -1.
         11    1    1    2    0    0 -0.35715863224E+01  0.33001231724E+02  0.36178575648E+02  0.49099153353E+02  0.00000000000E+00 0.  1.
</event>
<event>
 7    1  0.2728221E-009  0.8914648E+02  0.7561462E-02  0.1304932E+00
         -2   -1    0    0    0  501 -0.00000000000E+00  0.00000000000E+00  0.24355561593E+03  0.24355561593E+03  0.00000000000E+00 0. -1.
          2   -1    0    0  501    0  0.00000000000E+00 -0.00000000000E+00 -0.72363393824E+02  0.72363393824E+02  0.00000000000E+00 0.  1.
         25    2    1    2    0    0  0.72722519626E+02  0.83695823713E+01  0.73894438342E+02  0.16268542400E+03  0.12509014508E+03 0.  0.
          5    1    3    3  502    0  0.14414248047E+02 -0.12770979115E+02  0.95011365683E+02  0.97033501757E+02  0.41800000000E+01 0.  1.
         -5    1    3    3    0  502  0.58308271579E+02  0.21140561486E+02 -0.21116927341E+02  0.65651922247E+02  0.41800000000E+01 0.  1.
        -11    1    1    2    0    0 -0.28934292998E+02 -0.34815141822E+02  0.22867130803E+01  0.45326774296E+02  0.00000000000E+00 0.  1.
         11    1    1    2    0    0 -0.43788226628E+02  0.26445559450E+02  0.95011070684E+02  0.10790681146E+03  0.00000000000E+00 0. -1.
</event>
<event>
 7    1  0.2728221E-009  0.1040006E+03  0.7561462E-02  0.1272101E+00
         -2   -1    0    0    0  501 -0.00000000000E+00  0.00000000000E+00  0.12164601761E+02  0.12164601761E+02  0.00000000000E+00 0. -1.
          2   -1    0    0  501    0  0.00000000000E+00 -0.00000000000E+00 -0.12350494106E+04  0.12350494106E+04  0.00000000000E+00 0.  1.
         25    2    1    2    0    0  0.27876604827E+02 -0.16179988765E+02 -0.98457558167E+03  0.99301320388E+03  0.12508896803E+03 0.  0.
          5    1    3    3  502    0  0.75276177962E+02 -0.35670790982E+01 -0.46205874102E+03  0.46818263485E+03  0.41800000000E+01 0.  1.
         -5    1    3    3    0  502 -0.47399573135E+02 -0.12612909667E+02 -0.52251684065E+03  0.52483056903E+03  0.41800000000E+01 0.  1.
        -11    1    1    2    0    0 -0.40415974522E+02 -0.19937077246E+02 -0.85131623449E+02  0.96324095411E+02  0.00000000000E+00 0. -1.
         11    1    1    2    0    0  0.12539369695E+02  0.36117066011E+02 -0.15317760376E+03  0.15787671311E+03  0.00000000000E+00 0.  1.
</event>
<event>
 7    1  0.2728221E-009  0.1087963E+03  0.7561462E-02  0.1262815E+00
         -1   -1    0    0    0  501 -0.00000000000E+00  0.00000000000E+00  0.51570058726E+02  0.51570058726E+02  0.00000000000E+00 0.  1.
          1   -1    0    0  501    0  0.00000000000E+00 -0.00000000000E+00 -0.25742573835E+03  0.25742573835E+03  0.00000000000E+00 0. -1.
         25    2    1    2    0    0  0.66507249605E+01 -0.39665999983E+02 -0.11631862695E+03  0.17549066981E+03  0.12509727623E+03 0.  0.
          5    1    3    3  502    0 -0.33771724027E+01 -0.81759713354E+02 -0.99458985249E+02  0.12886278814E+03  0.41800000000E+01 0. -1.
         -5    1    3    3    0  502  0.10027897363E+02  0.42093713371E+02 -0.16859641698E+02  0.46627881671E+02  0.41800000000E+01 0. -1.
        -11    1    1    2    0    0  0.38280802640E+02  0.18412660651E+02 -0.66050331829E+02  0.78530836349E+02  0.00000000000E+00 0.  1.
         11    1    1    2    0    0 -0.44931527600E+02  0.21253339332E+02 -0.23486720848E+02  0.54974290913E+02  0.00000000000E+00 0. -1.
</event>
<event>
 7    1  0.2728221E-009  0.1104981E+03  0.7561462E-02  0.1259650E+00
         -1   -1    0    0    0  501 -0.00000000000E+00  0.00000000000E+00  0.37379538348E+02  0.37379538348E+02  0.00000000000E+00 0.  1.
          1   -1    0    0  501    0  0.00000000000E+00 -0.00000000000E+00 -0.38417872388E+03  0.38417872388E+03  0.00000000000E+00 0. -1.
         25    2    1    2    0    0  0.27063315823E+01  0.50840428054E+02 -0.19414215032E+03  0.23649817156E+03  0.12509251482E+03 0.  0.
          5    1    3    3  502    0 -0.42559383343E+02  0.60916976199E+02 -0.16642786270E+03  0.18231260237E+03  0.41800000000E+01 0. -1.
         -5    1    3    3    0  502  0.45265714925E+02 -0.10076548145E+02 -0.27714287624E+02  0.54185569193E+02  0.41800000000E+01 0. -1.
        -11    1    1    2    0    0 -0.43815083961E+02 -0.34503746995E+02 -0.57392482898E+02  0.80026040964E+02  0.00000000000E+00 0.  1.
         11    1    1    2    0    0  0.41108752379E+02 -0.16336681060E+02 -0.95264552312E+02  0.10503404971E+03  0.00000000000E+00 0. -1.
</event>
<event>
 7    1  0.2728221E-009  0.1005867E+03  0.7561462E-02  0.1279067E+00
         -3   -1    0    0    0  501 -0.00000000000E+00  0.00000000000E+00  0.76273827304E+03  0.76273827304E+03  0.00000000000E+00 0.  1.
          3   -1    0    0  501    0  0.00000000000E+00 -0.00000000000E+00 -0.20894386580E+02  0.20894386580E+02  0.00000000000E+00 0. -1.
         25    2    1    2    0    0  0.37003227921E+02  0.43692604418E+02  0.43981411163E+03  0.46082798236E+03  0.12509074300E+03 0.  0.
          5    1    3    3  502    0 -0.16692356109E+02  0.30267070568E+02  0.26373288110E+02  0.43677832351E+02  0.41800000000E+01 0.  1.
         -5    1    3    3    0  502  0.53695584030E+02  0.13425533851E+02  0.41344082352E+03  0.41715015001E+03  0.41800000000E+01 0.  1.
        -11    1    1    2    0    0 -0.15885687660E+02 -0.73010620480E+02  0.16568690763E+03  0.18175548722E+03  0.00000000000E+00 0. -1.
         11    1    1    2    0    0 -0.21117540261E+02  0.29318016062E+02  0.13634286720E+03  0.14104919003E+03  0.00000000000E+00 0.  1.
</event>
<event>
 7    1  0.2728221E-009  0.1382292E+03  0.7561462E-02  0.1215732E+00
         -2   -1    0    0    0  501 -0.00000000000E+00  0.00000000000E+00  0.14286911272E+03  0.14286911272E+03  0.00000000000E+00 0.  1.
          2   -1    0    0  501    0  0.00000000000E+00 -0.00000000000E+00 -0.60401628196E+03  0.60401628196E+03  0.00000000000E+00 0. -1.
         25    2    1    2    0    0 -0.89456513840E+02  0.96577464949E+02  0.68001549252E+02  0.19391145291E+03  0.12509103191E+03 0.  0.
          5    1    3    3  502    0 -0.38329506899E+01  0.39985043886E+02  0.80864641209E+02  0.90388372280E+02  0.41800000000E+01 0.  1.
         -5    1    3    3    0  502 -0.85623563150E+02  0.56592421063E+02 -0.12863091956E+02  0.10352308063E+03  0.41800000000E+01 0.  1.
        -11    1    1    2    0    0  0.73093044168E+01 -0.19025205209E+02 -0.12046060814E+02  0.23674711095E+02  0.00000000000E+00 0.  1.
         11    1    1    2    0    0  0.82147209424E+02 -0.77552259740E+02 -0.51710265768E+03  0.52929923067E+03  0.00000000000E+00 0. -1.
</event>
<event>
 7    1  0.2728221E-009  0.1423897E+03  0.7561462E-02  0.1210149E+00
          2   -1    0    0  501    0  0.00000000000E+00  0.00000000000E+00  0.41486544501E+03  0.41486544501E+03  0.00000000000E+00 0. -1.
         -2   -1    0    0    0  501 -0.00000000000E+00 -0.00000000000E+00 -0.62355572701E+02  0.62355572701E+02  0.00000000000E+00 0.  1.
         25    2    1    2    0    0 -0.52973640256E+01  0.10499479960E+03  0.27157198190E+03  0.31693747788E+03  0.12508418573E+03 0.  0.
          5    1    3    3  502    0 -0.50812462398E+02  0.26863673987E+02  0.45526392690E+02  0.73441733002E+02  0.41800000000E+01 0.  1.
         -5    1    3    3    0  502  0.45515098372E+02  0.78131125616E+02  0.22604558921E+03  0.24349574488E+03  0.41800000000E+01 0.  1.
        -11    1    1    2    0    0  0.45453743229E+02 -0.69464934367E+02  0.36671781578E+02  0.90753729644E+02  0.00000000000E+00 0.  1.
         11    1    1    2    0    0 -0.40156379203E+02 -0.35529865236E+02  0.44266108833E+02  0.69529810194E+02  0.00000000000E+00 0. -1.
</event>
<event>
 7    1  0.2728221E-009  0.1261570E+03  0.7561462E-02  0.1233272E+00
          2   -1    0    0  501    0  0.00000000000E+00  0.00000000000E+00  0.70438697681E+02  0.70438697681E+02  0.00000000000E+00 0.  1.
         -2   -1    0    0    0  501 -0.00000000000E+00 -0.00000000000E+00 -0.27671851827E+03  0.27671851827E+03  0.00000000000E+00 0. -1.
         25    2    1    2    0    0 -0.69626334836E+02  0.40932328905E+02 -0.76456663019E+02  0.16738116068E+03  0.12509016580E+03 0.  0.
          5    1    3    3  502    0  0.24278308070E+02 -0.39028121692E+01  0.14722578350E+02  0.28963682412E+02  0.41800000000E+01 0.  1.
         -5    1    3    3    0  502 -0.93904642906E+02  0.44835141074E+02 -0.91179241369E+02  0.13841747827E+03  0.41800000000E+01 0.  1.
        -11    1    1    2    0    0  0.28058933368E+02 -0.68043003442E+02 -0.65440058392E+02  0.98486320378E+02  0.00000000000E+00 0.  1.
         11    1    1    2    0    0  0.41567401467E+02  0.27110674537E+02 -0.64383099178E+02  0.81289734889E+02  0.00000000000E+00 0. -1.
</event>
<event>
 7    1  0.2728221E-009  0.1859548E+03  0.7561462E-02  0.1162161E+00
         -4   -1    0    0    0  501 -0.00000000000E+00  0.00000000000E+00  0.10877506074E+04  0.10877506074E+04  0.00000000000E+00 0.  1.
          4   -1    0    0  501    0  0.00000000000E+00 -0.00000000000E+00 -0.73482043592E+02  0.73482043592E+02  0.00000000000E+00 0. -1.
         25    2    1    2    0    0 -0.16901191691E+03 -0.32111152212E+02  0.91897978180E+03  0.94327665601E+03  0.12510338227E+03 0.  0.
          5    1    3    3  502    0 -0.13199510888E+03 -0.26152037710E+01  0.84561420392E+03  0.85586821551E+03  0.41800000000E+01 0.  1.
         -5    1    3    3    0  502 -0.37016808035E+02 -0.29495948441E+02  0.73365577885E+02  0.87408440496E+02  0.41800000000E+01 0.  1.
        -11    1    1    2    0    0  0.28435254525E+02 -0.27551295495E+02  0.34241531421E+01  0.39741192837E+02  0.00000000000E+00 0. -1.
         11    1    1    2    0    0  0.14057666239E+03  0.59662447706E+02  0.91864628900E+02  0.17821480218E+03  0.00000000000E+00 0.  1.
</event>
<event>
 7    1  0.2728221E-009  0.2606811E+03  0.7561462E-02  0.1106735E+00
         -2   -1    0    0    0  501 -0.00000000000E+00  0.00000000000E+00  0.49870220496E+02  0.49870220496E+02  0.00000000000E+00 0.  1.
          2   -1    0    0  501    0  0.00000000000E+00 -0.00000000000E+00 -0.14196601619E+04  0.14196601619E+04  0.00000000000E+00 0. -1.
         25    2    1    2    0    0 -0.14492771469E+03 -0.19397893849E+03 -0.65277600615E+03  0.70738847780E+03  0.12510025283E+03 0.  0.
          5    1    3    3  502    0 -0.68398530479E+02 -0.17363534552E+03 -0.38085372807E+03  0.42413986699E+03  0.41800000000E+01 0. -1.
         -5    1    3    3    0  502 -0.76529184213E+02 -0.20343592973E+02 -0.27192227808E+03  0.28324861081E+03  0.41800000000E+01 0. -1.
        -11    1    1    2    0    0  0.11847032710E+03  0.91875855765E+02 -0.47619197959E+03  0.49923460688E+03  0.00000000000E+00 0.  1.
         11    1    1    2    0    0  0.26457387589E+02  0.10210308273E+03 -0.24082195562E+03  0.26290729768E+03  0.00000000000E+00 0. -1.
</event>
<event>
 7    1  0.2728221E-009  0.9280756E+02  0.7561462E-02  0.1296192E+00
         -1   -1    0    0    0  501 -0.00000000000E+00  0.00000000000E+00  0.13037104599E+03  0.13037104599E+03  0.00000000000E+00 0.  1.
          1   -1    0    0  501    0  0.00000000000E+00 -0.00000000000E+00 -0.13042664821E+03  0.13042664821E+03  0.00000000000E+00 0. -1.
         25    2    1    2    0    0  0.54426531246E+02 -0.13035683373E+02  0.50796518245E+02  0.14614203081E+03  0.12508009657E+03 0.  0.
          5    1    3    3  502    0 -0.35518385730E+02  0.91203775154E+01  0.37235242925E+02  0.52427785825E+02  0.41800000000E+01 0.  1.
         -5    1    3    3    0  502  0.89944916976E+02 -0.22156060889E+02  0.13561275320E+02  0.93714244980E+02  0.41800000000E+01 0.  1.
        -11    1    1    2    0    0 -0.34541376880E+02  0.76675826430E+01 -0.74993829195E+02  0.82921486707E+02  0.00000000000E+00 0. -1.
         11    1    1    2    0    0 -0.19885154366E+02  0.53681007305E+01  0.24141708727E+02  0.31734176685E+02  0.00000000000E+00 0.  1.
</event>
<event>
 7    1  0.2728221E-009  0.1746349E+03  0.7561462E-02  0.1173099E+00
         -1   -1    0    0    0  501 -0.00000000000E+00  0.00000000000E+00  0.24493951887E+03  0.24493951887E+03  0.00000000000E+00 0.  1.
          1   -1    0    0  501    0  0.00000000000E+00 -0.00000000000E+00 -0.15815824867E+03  0.15815824867E+03  0.00000000000E+00 0. -1.
         25    2    1    2    0    0 -0.11606662310E+03  0.10204023239E+03 -0.83035049127E+01  0.19899973671E+03  0.12509307332E+03 0.  0.
          5    1    3    3  502    0 -0.75553478564E+02  0.15622518716E+01 -0.40581245640E+02  0.85878278114E+02  0.41800000000E+01 0.  1.
         -5    1    3    3    0  502 -0.40513144536E+02  0.10047798051E+03  0.32277740727E+02  0.11312145860E+03  0.41800000000E+01 0.  1.
        -11    1    1    2    0    0  0.10243045787E+03 -0.55150809094E+02  0.10207620282E+03  0.15476808982E+03  0.00000000000E+00 0.  1.
         11    1    1    2    0    0  0.13636165229E+02 -0.46889423293E+02 -0.69914277074E+01  0.49329941012E+02  0.00000000000E+00 0. -1.
</event>
<event>
 7    1  0.2728221E-009  0.1257939E+03  0.7561462E-02  0.1233834E+00
         -1   -1    0    0    0  501 -0.00000000000E+00  0.00000000000E+00  0.22983488495E+02  0.22983488495E+02  0.00000000000E+00 0.  1.
          1   -1    0    0  501    0  0.00000000000E+00 -0.00000000000E+00 -0.83873732813E+03  0.83873732813E+03  0.00000000000E+00 0. -1.
         25    2    1    2    0    0  0.33210486893E+01  0.48073120973E+02 -0.43382174467E+03  0.45406044322E+03  0.12509007004E+03 0.  0.
          5    1    3    3  502    0  0.48209388202E+02  0.42039540795E+02 -0.11204863955E+03  0.12908848952E+03  0.41800000000E+01 0. -1.
         -5    1    3    3    0  502 -0.44888339513E+02  0.60335801784E+01 -0.32177310512E+03  0.32497195370E+03  0.41800000000E+01 0. -1.
        -11    1    1    2    0    0  0.22252486313E+02 -0.90099403118E+02 -0.23249529244E+03  0.25033405002E+03  0.00000000000E+00 0.  1.
         11    1    1    2    0    0 -0.25573535003E+02  0.42026282145E+02 -0.14943680252E+03  0.15732632339E+03  0.00000000000E+00 0. -1.
</event>
<event>
 7    1  0.2728221E-009  0.1389900E+03  0.7561462E-02  0.1214695E+00
          1   -1    0    0  501    0  0.00000000000E+00  0.00000000000E+00  0.15053035175E+03  0.15053035175E+03  0.00000000000E+00 0. -1.
         -1   -1    0    0    0  501 -0.00000000000E+00 -0.00000000000E+00 -0.14467915884E+03  0.14467915884E+03  0.00000000000E+00 0.  1.
         25    2    1    2    0    0  0.77845854990E+02  0.36002233100E+02 -0.46087035532E+02  0.15852109250E+03  0.12509509981E+03 0.  0.
          5    1    3    3  502    0  0.10325177781E+03 -0.46859423874E+01 -0.33848147441E+02  0.10883959372E+03  0.41800000000E+01 0.  1.
         -5    1    3    3    0  502 -0.25405922819E+02  0.40688175488E+02 -0.12238888091E+02  0.49681498775E+02  0.41800000000E+01 0.  1.
        -11    1    1    2    0    0 -0.20022431196E+02 -0.60396187681E+02  0.24238237372E+02  0.68088834535E+02  0.00000000000E+00 0. -1.
         11    1    1    2    0    0 -0.57823423795E+02  0.24393954581E+02  0.27699991064E+02  0.68599583558E+02  0.00000000000E+00 0.  1.
</event>
<event>
 7    1  0.2728221E-009  0.1634402E+03  0.7561462E-02  0.1184867E+00
         -2   -1    0    0    0  501 -0.00000000000E+00  0.00000000000E+00  0.15177577188E+02  0.15177577188E+02  0.00000000000E+00 0.  1.
          2   -1    0    0  501    0  0.00000000000E+00 -0.00000000000E+00 -0.21772548740E+04  0.21772548740E+04  0.00000000000E+00 0. -1.
         25    2    1    2    0    0 -0.13728470961E+03  0.32721612953E+02 -0.13561072069E+04  0.13691573860E+04  0.12508955129E+03 0.  0.
          5    1    3    3  502    0  0.29581398306E+01 -0.16432885896E+02 -0.28808339750E+02  0.33558652674E+02  0.41800000000E+01 0. -1.
         -5    1    3    3    0  502 -0.14024284944E+03  0.49154498848E+02 -0.13272988671E+04  0.13355987334E+04  0.41800000000E+01 0. -1.
        -11    1    1    2    0    0  0.14053463807E+03 -0.45578053257E+02 -0.78243487354E+03  0.79626105943E+03  0.00000000000E+00 0. -1.
         11    1    1    2    0    0 -0.32499284592E+01  0.12856440304E+02 -0.23535216378E+02  0.27014005669E+02  0.00000000000E+00 0.  1.
</event>
<event>
 7    1  0.2728221E-009  0.1031446E+03  0.7561462E-02  0.1273819E+00
         -2   -1    0    0    0  501 -0.00000000000E+00  0.00000000000E+00  0.22847482352E+03  0.22847482352E+03  0.00000000000E+00 0.  1.
          2   -1    0    0  501    0  0.00000000000E+00 -0.00000000000E+00 -0.10529718991E+03  0.10529718991E+03  0.00000000000E+00 0. -1.
         25    2    1    2    0    0 -0.32384854565E+02 -0.72719095620E+02  0.14920669603E+03  0.21035124168E+03  0.12509260995E+03 0.  0.
          5    1    3    3  502    0 -0.23558688385E+01 -0.45413678312E+02  0.16142424006E+03  0.16775938118E+03  0.41800000000E+01 0.  1.
         -5    1    3    3    0  502 -0.30028985726E+02 -0.27305417308E+02 -0.12217544034E+02  0.42591860494E+02  0.41800000000E+01 0.  1.
        -11    1    1    2    0    0  0.63097909155E+02  0.58232920353E+02 -0.12075397065E+02  0.86707752634E+02  0.00000000000E+00 0.  1.
         11    1    1    2    0    0 -0.30713054590E+02  0.14486175267E+02 -0.13953665354E+02  0.36713019120E+02  0.00000000000E+00 0. -1.
</event>
<event>
 7    1  0.2728221E-009  0.2089209E+03  0.7561462E-02  0.1142423E+00
          2   -1    0    0  501    0  0.00000000000E+00  0.00000000000E+00  0.48380598670E+03  0.48380598670E+03  0.00000000000E+00 0. -1.
         -2   -1    0    0    0  501 -0.00000000000E+00 -0.00000000000E+00 -0.12096902783E+03  0.12096902783E+03  0.00000000000E+00 0.  1.
         25    2    1    2    0    0  0.16130485705E+03  0.89186148388E+02  0.32641842534E+03  0.39518363423E+03  0.12509072865E+03 0.  0.
          5    1    3    3  502    0  0.18103355035E+03  0.74925636066E+02  0.30477748313E+03  0.36234484116E+03  0.41800000000E+01 0. -1.
         -5    1    3    3    0  502 -0.19728693300E+02  0.14260512322E+02  0.21640942207E+02  0.32838793075E+02  0.41800000000E+01 0. -1.
        -11    1    1    2    0    0 -0.91924294227E+02 -0.10903554436E+02  0.48132115715E+02  0.10433438518E+03  0.00000000000E+00 0.  1.
         11    1    1    2    0    0 -0.69380562820E+02 -0.78282593952E+02 -0.11713582173E+02  0.10525699511E+03  0.00000000000E+00 0. -1.
</event>
<event>
 7    1  0.3377533E-009  0.1159764E+03  0.7561462E-02  0.1249886E+00
          4   -1    0    0  501    0  0.00000000000E+00  0.00000000000E+00  0.27903912066E+03  0.27903912066E+03  0.00000000000E+00 0. -1.
         -4   -1    0    0    0  501 -0.00000000000E+00 -0.00000000000E+00 -0.59273571208E+02  0.59273571208E+02  0.00000000000E+00 0.  1.
         25    2    1    2    0    0  0.50198643766E+02 -0.32766403111E+01  0.60425693667E+02  0.14775292709E+03  0.12509605430E+03 0.  0.
          5    1    3    3  502    0  0.88383812498E+02 -0.75977988947E+01  0.18477736822E+02  0.90710109788E+02  0.41800000000E+01 0.  1.
         -5    1    3    3    0  502 -0.38185168732E+02  0.43211585835E+01  0.41947956845E+02  0.57042817305E+02  0.41800000000E+01 0.  1.
        -11    1    1    2    0    0 -0.14469955042E+02 -0.43376518116E+02  0.71925676874E+02  0.85230305153E+02  0.00000000000E+00 0. -1.
         11    1    1    2    0    0 -0.35728688724E+02  0.46653158428E+02  0.87414178912E+02  0.10532945962E+03  0.00000000000E+00 0.  1.
</event>
<event>
 7    1  0.2728221E-009  0.7643862E+02  0.7561462E-02  0.1339473E+00
          1   -1    0    0  501    0  0.00000000000E+00  0.00000000000E+00  0.21948408522E+03  0.21948408522E+03  0.00000000000E+00 0. -1.
         -1   -1    0    0    0  501 -0.00000000000E+00 -0.00000000000E+00 -0.65184277529E+02  0.65184277529E+02  0.00000000000E+00 0.  1.
         25    2    1    2    0    0 -0.24470262556E+02 -0.46522499696E+02  0.82966070345E+02  0.15904036062E+03  0.12508929111E+03 0.  0.
          5    1    3    3  502    0  0.20948266119E+02 -0.85520267646E+01 -0.26148395403E+02  0.34830704807E+02  0.41800000000E+01 0.  1.
         -5    1    3    3    0  502 -0.45418528675E+02 -0.37970472931E+02  0.10911446575E+03  0.12420965581E+03  0.41800000000E+01 0.  1.
        -11    1    1    2    0    0  0.31649173471E+02  0.98418895112E+01 -0.11232584740E+02  0.34995770180E+02  0.00000000000E+00 0.  1.
         11    1    1    2    0    0 -0.71789109151E+01  0.36680610185E+02  0.82566322085E+02  0.90632231950E+02  0.00000000000E+00 0. -1.
</event>
<event>
 7    1  0.2728221E-009  0.1047738E+03  0.7561462E-02  0.1270566E+00
         -1   -1    0    0    0  501 -0.00000000000E+00  0.00000000000E+00  0.90224784561E+02  0.90224784561E+02  0.00000000000E+00 0.  1.
          1   -1    0    0  501    0  0.00000000000E+00 -0.00000000000E+00 -0.15622681429E+03  0.15622681429E+03  0.00000000000E+00 0. -1.
         25    2    1    2    0    0 -0.45254884232E+02  0.10173841075E+02 -0.31530414712E+02  0.13708375337E+03  0.12508507823E+03 0.  0.
          5    1    3    3  502    0 -0.76034934743E+02 -0.58539164473E+01  0.16051537209E+02  0.78042961796E+02  0.41800000000E+01 0. -1.
         -5    1    3    3    0  502  0.30780050511E+02  0.16027757522E+02 -0.47581951920E+02  0.59040791570E+02  0.41800000000E+01 0. -1.
        -11    1    1    2    0    0  0.10958890589E+01  0.35017599410E+02 -0.29828872794E+02  0.46012986139E+02  0.00000000000E+00 0. -1.
         11    1    1    2    0    0  0.44158995173E+02 -0.45191440485E+02 -0.46427422263E+01  0.63354859349E+02  0.00000000000E+00 0.  1.
</event>
<event>
 7    1  0.2728221E-009  0.1552609E+03  0.7561462E-02  0.1194153E+00
          1   -1    0    0  501    0  0.00000000000E+00  0.00000000000E+00  0.40235068946E+03  0.40235068946E+03  0.00000000000E+00 0. -1.
         -1   -1    0    0    0  501 -0.00000000000E+00 -0.00000000000E+00 -0.76411239153E+02  0.76411239153E+02  0.00000000000E+00 0.  1.
         25    2    1    2    0    0 -0.13090916523E+03 -0.18620376531E+02  0.11954452614E+03  0.21776977410E+03  0.12509537489E+03 0.  0.
          5    1    3    3  502    0 -0.82028180629E+00 -0.33089008666E+02 -0.86981745569E+01  0.34477325844E+02  0.41800000000E+01 0. -1.
         -5    1    3    3    0  502 -0.13008888343E+03  0.14468632134E+02  0.12824270070E+03  0.18329244826E+03  0.41800000000E+01 0. -1.
        -11    1    1    2    0    0  0.61816071271E+02  0.40294235488E+02  0.51431912408E+02  0.89944948134E+02  0.00000000000E+00 0.  1.
         11    1    1    2    0    0  0.69093093962E+02 -0.21673858957E+02  0.15496301175E+03  0.17104720637E+03  0.00000000000E+00 0. -1.
</event>
<event>
 7    1  0.2728221E-009  0.1175186E+03  0.7561462E-02  0.1247248E+00
          1   -1    0    0  501    0  0.00000000000E+00  0.00000000000E+00  0.27803884076E+03  0.27803884076E+03  0.00000000000E+00 0. -1.
         -1   -1    0    0    0  501 -0.00000000000E+00 -0.00000000000E+00 -0.77768767995E+02  0.77768767995E+02  0.00000000000E+00 0.  1.
         25    2    1    2    0    0 -0.76185510209E+02  0.38119886919E+02  0.46101814780E+02  0.15817644366E+03  0.12504819974E+03 0.  0.
          5    1    3    3  502    0 -0.31897284575E+02  0.55075951979E+02 -0.28354332453E+02  0.69801417024E+02  0.41800000000E+01 0. -1.
         -5    1    3    3    0  502 -0.44288225634E+02 -0.16956065060E+02  0.74456147234E+02  0.88375026637E+02  0.41800000000E+01 0. -1.
        -11    1    1    2    0    0  0.52937558186E+02 -0.67753828651E+02  0.10627169043E+03  0.13669908028E+03  0.00000000000E+00 0.  1.
         11    1    1    2    0    0  0.23247952023E+02  0.29633941732E+02  0.47896567564E+02  0.60932084817E+02  0.00000000000E+00 0. -1.
</event>
<event>
 7    1  0.2728221E-009  0.3202500E+03  0.7561462E-02  0.1075534E+00
         -2   -1    0    0    0  501 -0.00000000000E+00  0.00000000000E+00  0.34175579865E+03  0.34175579865E+03  0.00000000000E+00 0.  1.
          2   -1    0    0  501    0  0.00000000000E+00 -0.00000000000E+00 -0.32367734382E+03  0.32367734382E+03  0.00000000000E+00 0. -1.
         25    2    1    2    0    0 -0.25760541874E+03 -0.17823685087E+03  0.28053139052E+02  0.33847423362E+03  0.12509556923E+03 0.  0.
          5    1    3    3  502    0 -0.16757344897E+02 -0.11881141743E+02  0.40350908322E+02  0.45471291377E+02  0.41800000000E+01 0.  1.
         -5    1    3    3    0  502 -0.24084807384E+03 -0.16635570913E+03 -0.12297769270E+02  0.29300294224E+03  0.41800000000E+01 0.  1.
        -11    1    1    2    0    0  0.13358109527E+03  0.14753614573E+03 -0.45761405341E+01  0.19907728241E+03  0.00000000000E+00 0. -1.
         11    1    1    2    0    0  0.12402432347E+03  0.30700705140E+02 -0.53985436872E+01  0.12788162644E+03  0.00000000000E+00 0.  1.
</event>
<event>
 7    1  0.2728221E-009  0.1929335E+03  0.7561462E-02  0.1155842E+00
          1   -1    0    0  501    0  0.00000000000E+00  0.00000000000E+00  0.30537699622E+03  0.30537699622E+03  0.00000000000E+00 0. -1.
         -1   -1    0    0    0  501 -0.00000000000E+00 -0.00000000000E+00 -0.14348694026E+03  0.14348694026E+03  0.00000000000E+00 0.  1.
         25    2    1    2    0    0  0.14963002592E+03 -0.88691015146E+02  0.39548784957E+02  0.21787788167E+03  0.12510565178E+03 0.  0.
          5    1    3    3  502    0 -0.67662346825E+01  0.19850995176E+02  0.14460723683E+02  0.25815283665E+02  0.41800000000E+01 0. -1.
         -5    1    3    3    0  502  0.15639626060E+03 -0.10854201032E+03  0.25088061274E+02  0.19206259801E+03  0.41800000000E+01 0. -1.
        -11    1    1    2    0    0 -0.13801521870E+03  0.79680233652E+02  0.65543601864E+02  0.17231687083E+03  0.00000000000E+00 0.  1.
         11    1    1    2    0    0 -0.11614807220E+02  0.90107814947E+01  0.56797669137E+02  0.58669183984E+02  0.00000000000E+00 0. -1.
</event>
<event>
 7    1  0.2728221E-009  0.1137400E+03  0.7561462E-02  0.1253797E+00
         -1   -1    0    0    0  501 -0.00000000000E+00  0.00000000000E+00  0.10202123969E+03  0.10202123969E+03  0.00000000000E+00 0.  1.
          1   -1    0    0  501    0  0.00000000000E+00 -0.00000000000E+00 -0.13866567611E+03  0.13866567611E+03  0.00000000000E+00 0. -1.
         25    2    1    2    0    0 -0.45655631409E+02  0.64897727751E+01 -0.80932579647E+01  0.13352328651E+03  0.12504564521E+03 0.  0.
          5    1    3    3  502    0 -0.34486806002E+01  0.59146762382E+02  0.16387669728E+02  0.61613805411E+02  0.41800000000E+01 0. -1.
         -5    1    3    3    0  502 -0.42206950809E+02 -0.52656989607E+02 -0.24480927692E+02  0.71909481097E+02  0.41800000000E+01 0. -1.
        -11    1    1    2    0    0 -0.19107254687E+02 -0.26515833092E+02  0.21361349643E+01  0.32752704603E+02  0.00000000000E+00 0. -1.
         11    1    1    2    0    0  0.64762886095E+02  0.20026060317E+02 -0.30687313423E+02  0.74410924684E+02  0.00000000000E+00 0.  1.
</event>
<event>
 7    1  0.2728221E-009  0.1287727E+03  0.7561462E-02  0.1229288E+00
          2   -1    0    0  501    0  0.00000000000E+00  0.00000000000E+00  0.16962596490E+04  0.16962596490E+04  0.00000000000E+00 0. -1.
         -2   -1    0    0    0  501 -0.00000000000E+00 -0.00000000000E+00 -0.14902985363E+02  0.14902985363E+02  0.00000000000E+00 0.  1.
         25    2    1    2    0    0  0.36094576595E+02  0.91911138797E+02  0.12183752156E+04  0.12287537151E+04  0.12508817087E+03 0.  0.
          5    1    3    3  502    0  0.68728486495E+02  0.49106934718E+02  0.41296279214E+03  0.42153390846E+03  0.41800000000E+01 0.  1.
         -5    1    3    3    0  502 -0.32633909900E+02  0.42804204079E+02  0.80541242346E+03  0.80721980664E+03  0.41800000000E+01 0.  1.
        -11    1    1    2    0    0 -0.88381624260E+01 -0.91294831327E+02  0.42972982996E+03  0.43940936050E+03  0.00000000000E+00 0. -1.
         11    1    1    2    0    0 -0.27256414169E+02 -0.61630747028E+00  0.33251618061E+02  0.42999558741E+02  0.00000000000E+00 0.  1.
</event>
<event>
 7    1  0.2728221E-009  0.2537104E+03  0.7561462E-02  0.1110982E+00
          2   -1    0    0  501    0  0.00000000000E+00  0.00000000000E+00  0.26621627500E+03  0.26621627500E+03  0.00000000000E+00 0. -1.
         -2   -1    0    0    0  501 -0.00000000000E+00 -0.00000000000E+00 -0.30088052839E+03  0.30088052839E+03  0.00000000000E+00 0.  1.
         25    2    1    2    0    0  0.18630593836E+03 -0.14512185334E+03 -0.12859546191E+03  0.29657293612E+03  0.12509379931E+03 0.  0.
          5    1    3    3  502    0  0.81737747126E+02 -0.13656366764E+03 -0.98998453334E+02  0.18748029440E+03  0.41800000000E+01 0.  1.
         -5    1    3    3    0  502  0.10456819123E+03 -0.85581857032E+01 -0.29597008577E+02  0.10909264172E+03  0.41800000000E+01 0.  1.
        -11    1    1    2    0    0 -0.58765396768E+02  0.14250198275E+02 -0.84533126436E+01  0.61056518921E+02  0.00000000000E+00 0.  1.
         11    1    1    2    0    0 -0.12754054159E+03  0.13087165507E+03  0.10238452117E+03  0.20946734835E+03  0.00000000000E+00 0. -1.
</event>
<event>
 7    1  0.2728221E-009  0.1041163E+03  0.7561462E-02  0.1271871E+00
         -1   -1    0    0    0  501 -0.00000000000E+00  0.00000000000E+00  0.11385886083E+02  0.11385886083E+02  0.00000000000E+00 0.  1.
          1   -1    0    0  501    0  0.00000000000E+00 -0.00000000000E+00 -0.10922521416E+04  0.10922521416E+04  0.00000000000E+00 0. -1.
         25    2    1    2    0    0  0.26076433685E+00 -0.19902586214E+02 -0.74071586871E+03  0.75146781326E+03  0.12509074816E+03 0.  0.
          5    1    3    3  502    0 -0.75240920712E+01  0.52220449065E+02 -0.26484000226E+03  0.27007644558E+03  0.41800000000E+01 0. -1.
         -5    1    3    3    0  502  0.77848564081E+01 -0.72123035279E+02 -0.47587586645E+03  0.48139136768E+03  0.41800000000E+01 0. -1.
        -11    1    1    2    0    0 -0.17959890046E+02  0.46980341650E+02 -0.27347556387E+03  0.27806221280E+03  0.00000000000E+00 0. -1.
         11    1    1    2    0    0  0.17699125709E+02 -0.27077755436E+02 -0.66674822906E+02  0.74108001592E+02  0.00000000000E+00 0.  1.
</event>
<event>
 7    1  0.2728221E-009  0.9781785E+02  0.7561462E-02  0.1284953E+00
         -2   -1    0    0    0  501 -0.00000000000E+00  0.00000000000E+00  0.16204539173E+03  0.16204539173E+03  0.00000000000E+00 0.  1.
          2   -1    0    0  501    0  0.00000000000E+00 -0.00000000000E+00 -0.93045779873E+02  0.93045779873E+02  0.00000000000E+00 0. -1.
         25    2    1    2    0    0  0.51697998260E+02 -0.14145425118E+02  0.59952213643E+02  0.14870418464E+03  0.12508353421E+03 0.  0.
          5    1    3    3  502    0  0.45372536910E+02 -0.66218346836E+02  0.20551348584E+02  0.82966058674E+02  0.41800000000E+01 0.  1.
         -5    1    3    3    0  502  0.63254613497E+01  0.52072921718E+02  0.39400865059E+02  0.65738125961E+02  0.41800000000E+01 0.  1.
        -11    1    1    2    0    0 -0.52148882150E+00  0.11369629081E+02 -0.36245025846E+02  0.37990029147E+02  0.00000000000E+00 0. -1.
         11    1    1    2    0    0 -0.51176509438E+02  0.27757960373E+01  0.45292424060E+02  0.68396957821E+02  0.00000000000E+00 0.  1.
</event>
<event>
 7    1  0.2728221E-009  0.8219132E+02  0.7561462E-02  0.1322945E+00
         -1   -1    0    0    0  501 -0.00000000000E+00  0.00000000000E+00  0.84130920746E+02  0.84130920746E+02  0.00000000000E+00 0.  1.
          1   -1    0    0  501    0  0.00000000000E+00 -0.00000000000E+00 -0.27721750077E+03  0.27721750077E+03  0.00000000000E+00 0. -1.
         25    2    1    2    0    0  0.47552001614E+02 -0.10921408846E+02 -0.21545714302E+03  0.25386992039E+03  0.12509071098E+03 0.  0.
          5    1    3    3  502    0  0.70422092062E+02 -0.47286045679E+01 -0.49817693778E+02  0.86492229506E+02  0.41800000000E+01 0.  1.
         -5    1    3    3    0  502 -0.22870090448E+02 -0.61928042778E+01 -0.16563944924E+03  0.16737769089E+03  0.41800000000E+01 0.  1.
        -11    1    1    2    0    0 -0.31222631177E+02  0.30824032971E+02 -0.27199770904E+02  0.51621712907E+02  0.00000000000E+00 0. -1.
         11    1    1    2    0    0 -0.16329370437E+02 -0.19902624126E+02  0.49570333903E+02  0.55856788211E+02  0.00000000000E+00 0.  1.
</event>
<event>
 7    1  0.2728221E-009  0.2322169E+03  0.7561462E-02  0.1125089E+00
          1   -1    0    0  501    0  0.00000000000E+00  0.00000000000E+00  0.30689095108E+02  0.30689095108E+02  0.00000000000E+00 0. -1.
         -1   -1    0    0    0  501 -0.00000000000E+00 -0.00000000000E+00 -0.18869135912E+04  0.18869135912E+04  0.00000000000E+00 0.  1.
         25    2    1    2    0    0 -0.20028063635E+03  0.86323038474E+02 -0.10750666505E+04  0.11040754941E+04  0.12510153258E+03 0.  0.
          5    1    3    3  502    0 -0.18598763263E+03  0.10623273194E+03 -0.10348677390E+04  0.10568091135E+04  0.41800000000E+01 0.  1.
         -5    1    3    3    0  502 -0.14293003725E+02 -0.19909693468E+02 -0.40198911545E+02  0.47266380641E+02  0.41800000000E+01 0.  1.
        -11    1    1    2    0    0  0.64561849152E+02 -0.57806486127E+02 -0.25136239842E+03  0.26588132229E+03  0.00000000000E+00 0. -1.
         11    1    1    2    0    0  0.13571878720E+03 -0.28516552347E+02 -0.52979544718E+03  0.54764586989E+03  0.00000000000E+00 0.  1.
</event>
<event>
 7    1  0.2728221E-009  0.2138785E+03  0.7561462E-02  0.1138531E+00
         -2   -1    0    0    0  501 -0.00000000000E+00  0.00000000000E+00  0.19223060266E+03  0.19223060266E+03  0.00000000000E+00 0.  1.
          2   -1    0    0  501    0  0.00000000000E+00 -0.00000000000E+00 -0.46045584889E+03  0.46045584889E+03  0.00000000000E+00 0. -1.
         25    2    1    2    0    0 -0.67430801474E+02  0.19155748444E+03 -0.34330645089E+03  0.41802928924E+03  0.12509190467E+03 0.  0.
          5    1    3    3  502    0 -0.29417932693E+02  0.89014417657E+00 -0.86247337550E+01  0.30952634023E+02  0.41800000000E+01 0.  1.
         -5    1    3    3    0  502 -0.38012868781E+02  0.19066734026E+03 -0.33468171713E+03  0.38707665522E+03  0.41800000000E+01 0.  1.
        -11    1    1    2    0    0  0.18289285877E+01 -0.16826172832E+02  0.41768134039E+02  0.45067084364E+02  0.00000000000E+00 0.  1.
         11    1    1    2    0    0  0.65601872886E+02 -0.17473131161E+03  0.33313070617E+02  0.18959007795E+03  0.00000000000E+00 0. -1.
</event>
<event>
 7    1  0.2728221E-009  0.1096960E+03  0.7561462E-02  0.1261134E+00
         -4   -1    0    0    0  501 -0.00000000000E+00  0.00000000000E+00  0.18333091030E+02  0.18333091030E+02  0.00000000000E+00 0.  1.
          4   -1    0    0  501    0  0.00000000000E+00 -0.00000000000E+00 -0.88074919013E+03  0.88074919013E+03  0.00000000000E+00 0. -1.
         25    2    1    2    0    0 -0.57550133362E+02  0.38475150101E+01 -0.59303974260E+03  0.60882707260E+03  0.12508975496E+03 0.  0.
          5    1    3    3  502    0 -0.20236087814E+02  0.50926609909E+02 -0.12020440896E+03  0.13217258104E+03  0.41800000000E+01 0.  1.
         -5    1    3    3    0  502 -0.37314045548E+02 -0.47079094899E+02 -0.47283533365E+03  0.47665449155E+03  0.41800000000E+01 0.  1.
        -11    1    1    2    0    0 -0.23288527770E+02 -0.16337186083E+01 -0.32961105798E+02  0.40391324039E+02  0.00000000000E+00 0. -1.
         11    1    1    2    0    0  0.80838661132E+02 -0.22137964019E+01 -0.23641525070E+03  0.24986388453E+03  0.00000000000E+00 0.  1.
</event>
<event>
 7    1  0.2759626E-009  0.1404234E+03  0.7561462E-02  0.1212760E+00
          4   -1    0    0  501    0  0.00000000000E+00  0.00000000000E+00  0.24991715682E+03  0.24991715682E+03  0.00000000000E+00 0. -1.
         -4   -1    0    0    0  501 -0.00000000000E+00 -0.00000000000E+00 -0.13945576021E+03  0.13945576021E+03  0.00000000000E+00 0.  1.
         25    2    1    2    0    0 -0.60598685024E+02 -0.85779832248E+02  0.17189309778E+03  0.23711778916E+03  0.12508888289E+03 0.  0.
          5    1    3    3  502    0 -0.26824075748E+02 -0.10871532073E+03  0.15818039269E+03  0.19384803593E+03  0.41800000000E+01 0.  1.
         -5    1    3    3    0  502 -0.33774609277E+02  0.22935488484E+02  0.13712705093E+02  0.43269753232E+02  0.41800000000E+01 0.  1.
        -11    1    1    2    0    0  0.44809481168E+02  0.45912338888E+01  0.61292843145E+01  0.45459181222E+02  0.00000000000E+00 0. -1.
         11    1    1    2    0    0  0.15789203856E+02  0.81188598359E+02 -0.67560985487E+02  0.10679594665E+03  0.00000000000E+00 0.  1.
</event>
<event>
 7    1  0.2728221E-009  0.1188070E+03  0.7561462E-02  0.1245078E+00
          2   -1    0    0  501    0  0.00000000000E+00  0.00000000000E+00  0.31544125963E+02  0.31544125963E+02  0.00000000000E+00 0. -1.
         -2   -1    0    0    0  501 -0.00000000000E+00 -0.00000000000E+00 -0.53978384343E+03  0.53978384343E+03  0.00000000000E+00 0.  1.
         25    2    1    2    0    0  0.60849518682E+02 -0.14907768532E+02 -0.31493556845E+03  0.34461047830E+03  0.12508822483E+03 0.  0.
          5    1    3    3  502    0  0.73106864985E+02  0.39781725935E+02 -0.17575559530E+03  0.19451144209E+03  0.41800000000E+01 0.  1.
         -5    1    3    3    0  502 -0.12257346303E+02 -0.54689494467E+02 -0.13917997315E+03  0.15009903621E+03  0.41800000000E+01 0.  1.
        -11    1    1    2    0    0 -0.76518677863E+02  0.10069857363E+00 -0.19009982749E+03  0.20492208913E+03  0.00000000000E+00 0.  1.
         11    1    1    2    0    0  0.15669159181E+02  0.14807069958E+02 -0.32043215230E+01  0.21795401960E+02  0.00000000000E+00 0. -1.
</event>
<event>
 7    1  0.2728221E-009  0.9945209E+02  0.7561462E-02  0.1281452E+00
          2   -1    0    0  501    0  0.00000000000E+00  0.00000000000E+00  0.21877849844E+03  0.21877849844E+03  0.00000000000E+00 0. -1.
         -2   -1    0    0    0  501 -0.00000000000E+00 -0.00000000000E+00 -0.88848492746E+02  0.88848492746E+02  0.00000000000E+00 0.  1.
         25    2    1    2    0    0 -0.21358348022E+02 -0.27128568886E+02  0.14928202894E+03  0.19779853253E+03  0.12508795717E+03 0.  0.
          5    1    3    3  502    0  0.22491408295E+02 -0.47504129928E+02  0.14705054305E+02  0.54737709392E+02  0.41800000000E+01 0. -1.
         -5    1    3    3    0  502 -0.43849756317E+02  0.20375561042E+02  0.13457697463E+03  0.14306082314E+03  0.41800000000E+01 0. -1.
        -11    1    1    2    0    0  0.53332059990E+02 -0.33972197531E+01 -0.33905793726E+02  0.63288644898E+02  0.00000000000E+00 0.  1.
         11    1    1    2    0    0 -0.31973711968E+02  0.30525788639E+02  0.14553770481E+02  0.46539813754E+02  0.00000000000E+00 0. -1.
</event>
<event>
 7    1  0.2728221E-009  0.1313519E+03  0.7561462E-02  0.1225463E+00
         -2   -1    0    0    0  501 -0.00000000000E+00  0.00000000000E+00  0.12338392907E+03  0.12338392907E+03  0.00000000000E+00 0.  1.
          2   -1    0    0  501    0  0.00000000000E+00 -0.00000000000E+00 -0.15176653287E+03  0.15176653287E+03  0.00000000000E+00 0. -1.
         25    2    1    2    0    0  0.54941189744E+02  0.63104503188E+02 -0.22692571253E+02  0.15219734691E+03  0.12509343294E+03 0.  0.
          5    1    3    3  502    0  0.94854648541E+02  0.54105977823E+02 -0.18787054804E+02  0.11088411525E+03  0.41800000000E+01 0. -1.
         -5    1    3    3    0  502 -0.39913458797E+02  0.89985253657E+01 -0.39055164490E+01  0.41313231666E+02  0.41800000000E+01 0. -1.
        -11    1    1    2    0    0 -0.15807684227E+02 -0.70687338964E+02 -0.27544564504E+02  0.77493779132E+02  0.00000000000E+00 0. -1.
         11    1    1    2    0    0 -0.39133505517E+02  0.75828357759E+01  0.21854531958E+02  0.45459335890E+02  0.00000000000E+00 0.  1.
</event>
<event>
 7    1  0.2728221E-009  0.1259497E+03  0.7561462E-02  0.1233593E+00
         -2   -1    0    0    0  501 -0.00000000000E+00  0.00000000000E+00  0.42232045762E+02  0.42232045762E+02  0.00000000000E+00 0.  1.
          2   -1    0    0  501    0  0.00000000000E+00 -0.00000000000E+00 -0.48310531984E+03  0.48310531984E+03  0.00000000000E+00 0. -1.
         25    2    1    2    0    0 -0.55376725721E+02  0.57106057927E+02 -0.29563455034E+03  0.33072225194E+03  0.12509890873E+03 0.  0.
          5    1    3    3  502    0 -0.31496979794E+02 -0.22653162927E+02 -0.22269507014E+02  0.44929153891E+02  0.41800000000E+01 0. -1.
         -5    1    3    3    0  502 -0.23879745927E+02  0.79759220854E+02 -0.27336504333E+03  0.28579309805E+03  0.41800000000E+01 0. -1.
        -11    1    1    2    0    0 -0.28583952263E+02 -0.11305047832E+01 -0.30505516984E+02  0.41819934654E+02  0.00000000000E+00 0.  1.
         11    1    1    2    0    0  0.83960677984E+02 -0.55975553144E+02 -0.11473320675E+03  0.15279517901E+03  0.00000000000E+00 0. -1.
</event>
<event>
 7    1  0.2728221E-009  0.9894503E+02  0.7561462E-02  0.1282530E+00
          4   -1    0    0  501    0  0.00000000000E+00  0.00000000000E+00  0.61080872198E+03  0.61080872198E+03  0.00000000000E+00 0. -1.
         -4   -1    0    0    0  501 -0.00000000000E+00 -0.00000000000E+00 -0.24436994813E+02  0.24436994813E+02  0.00000000000E+00 0.  1.
         25    2    1    2    0    0 -0.13157144200E+02  0.38287020415E+01  0.46457816796E+03  0.48132007892E+03  0.12509346437E+03 0.  0.
          5    1    3    3  502    0 -0.65080504610E+01 -0.60447491936E+02  0.21362788848E+03  0.22214995192E+03  0.41800000000E+01 0. -1.
         -5    1    3    3    0  502 -0.66490937392E+01  0.64276193978E+02  0.25095027948E+03  0.25917012700E+03  0.41800000000E+01 0. -1.
        -11    1    1    2    0    0  0.41562912987E+02 -0.10807337602E+02  0.11654828975E+03  0.12420860729E+03  0.00000000000E+00 0. -1.
         11    1    1    2    0    0 -0.28405768786E+02  0.69786355607E+01  0.52452694582E+01  0.29717030577E+02  0.00000000000E+00 0.  1.
</event>
<event>
 7    1  0.2728221E-009  0.1216913E+03  0.7561462E-02  0.1240333E+00
         -1   -1    0    0    0  501 -0.00000000000E+00  0.00000000000E+00  0.41650902778E+02  0.41650902778E+02  0.00000000000E+00 0.  1.
          1   -1    0    0  501    0  0.00000000000E+00 -0.00000000000E+00 -0.53014312255E+03  0.53014312255E+03  0.00000000000E+00 0. -1.
         25    2    1    2    0    0 -0.77509870615E+02  0.14797773186E+02 -0.40282477126E+03  0.42911808797E+03  0.12509109859E+03 0.  0.
          5    1    3    3  502    0  0.80405953142E+01 -0.43384894883E+02 -0.12500318186E+03  0.13262793126E+03  0.41800000000E+01 0.  1.
         -5    1    3    3    0  502 -0.85550465929E+02  0.58182668069E+02 -0.27782158940E+03  0.29649015670E+03  0.41800000000E+01 0.  1.
        -11    1    1    2    0    0  0.54565024690E+02 -0.35099605091E+02 -0.90814896517E+02  0.11160945133E+03  0.00000000000E+00 0. -1.
         11    1    1    2    0    0  0.22944845925E+02  0.20301831905E+02  0.51474480045E+01  0.31066486029E+02  0.00000000000E+00 0.  1.
</event>
<event>
 7    1  0.2728221E-009  0.9463545E+02  0.7561462E-02  0.1291999E+00
          2   -1    0    0  501    0  0.00000000000E+00  0.00000000000E+00  0.31631000258E+02  0.31631000258E+02  0.00000000000E+00 0. -1.
         -2   -1    0    0    0  501 -0.00000000000E+00 -0.00000000000E+00 -0.46386029093E+03  0.46386029093E+03  0.00000000000E+00 0.  1.
         25    2    1    2    0    0 -0.29393278950E+02 -0.36200573660E+02 -0.18453158522E+03  0.22775819038E+03  0.12508973164E+03 0.  0.
          5    1    3    3  502    0  0.11554300401E+02  0.16633523553E+02 -0.15181984649E+03  0.15322178094E+03  0.41800000000E+01 0. -1.
         -5    1    3    3    0  502 -0.40947579351E+02 -0.52834097213E+02 -0.32711738723E+02  0.74536409448E+02  0.41800000000E+01 0. -1.
        -11    1    1    2    0    0  0.42065479884E+01 -0.30256077117E+02 -0.75642607332E+02  0.81577749984E+02  0.00000000000E+00 0.  1.
         11    1    1    2    0    0  0.25186730962E+02  0.66456650777E+02 -0.17205509812E+03  0.18615535082E+03  0.00000000000E+00 0. -1.
</event>
<event>
 7    1  0.2728221E-009  0.1621648E+03  0.7561462E-02  0.1186274E+00
         -2   -1    0    0    0  501 -0.00000000000E+00  0.00000000000E+00  0.11030804089E+03  0.11030804089E+03  0.00000000000E+00 0. -1.
          2   -1    0    0  501    0  0.00000000000E+00 -0.00000000000E+00 -0.26475639034E+03  0.26475639034E+03  0.00000000000E+00 0.  1.
         25    2    1    2    0    0 -0.68032720958E+02 -0.10905276682E+03 -0.59796902973E+02  0.18905961423E+03  0.12508761353E+03 0.  0.
          5    1    3    3  502    0  0.28666205880E+02 -0.67936274547E+02 -0.30406199210E+02  0.79869256346E+02  0.41800000000E+01 0.  1.
         -5    1    3    3    0  502 -0.96698926838E+02 -0.41116492268E+02 -0.29390703763E+02  0.10919035789E+03  0.41800000000E+01 0.  1.
        -11    1    1    2    0    0  0.68638521484E+02  0.46838474128E+02 -0.14198731378E+02  0.84301205584E+02  0.00000000000E+00 0. -1.
         11    1    1    2    0    0 -0.60580052684E+00  0.62214292688E+02 -0.80452715098E+02  0.10170361142E+03  0.00000000000E+00 0.  1.
</event>
<event>
 7    1  0.2728221E-009  0.1186625E+03  0.7561462E-02  0.1245320E+00
         -1   -1    0    0    0  501 -0.00000000000E+00  0.00000000000E+00  0.59363807526E+03  0.59363807526E+03  0.00000000000E+00 0.  1.
          1   -1    0    0  501    0  0.00000000000E+00 -0.00000000000E+00 -0.26207873728E+02  0.26207873728E+02  0.00000000000E+00 0. -1.
         25    2    1    2    0    0 -0.15892568593E+02  0.65073636343E+02  0.35010917165E+03  0.37777200381E+03  0.12509237750E+03 0.  0.
          5    1    3    3  502    0 -0.62155818500E+02  0.17114853665E+02  0.10119626281E+03  0.12006006829E+03  0.41800000000E+01 0. -1.
         -5    1    3    3    0  502  0.46263249907E+02  0.47958782678E+02  0.24891290884E+03  0.25771193553E+03  0.41800000000E+01 0. -1.
        -11    1    1    2    0    0  0.43626433519E+02 -0.10705929689E+02  0.10586643194E+03  0.11500253929E+03  0.00000000000E+00 0.  1.
         11    1    1    2    0    0 -0.27733864927E+02 -0.54367706654E+02  0.11145459795E+03  0.12707140589E+03  0.00000000000E+00 0. -1.
</event>
<event>
 7    1  0.2728221E-009  0.9144654E+02  0.7561462E-02  0.1299386E+00
          2   -1    0    0  501    0  0.00000000000E+00  0.00000000000E+00  0.45864857348E+03  0.45864857348E+03  0.00000000000E+00 0. -1.
         -2   -1    0    0    0  501 -0.00000000000E+00 -0.00000000000E+00 -0.38136227721E+02  0.38136227721E+02  0.00000000000E+00 0.  1.
         25    2    1    2    0    0 -0.15642130601E+02 -0.25990500560E+02  0.10355729895E+03  0.16520592039E+03  0.12509476246E+03 0.  0.
          5    1    3    3  502    0 -0.31817311475E+02 -0.63779136487E+02  0.10116174290E+03  0.12381958725E+03  0.41800000000E+01 0. -1.
         -5    1    3    3    0  502  0.16175180874E+02  0.37788635927E+02  0.23955560564E+01  0.41386333135E+02  0.41800000000E+01 0. -1.
        -11    1    1    2    0    0  0.24566217752E+02  0.43822369776E+02  0.30324928232E+03  0.30738254078E+03  0.00000000000E+00 0. -1.
         11    1    1    2    0    0 -0.89240871510E+01 -0.17831869216E+02  0.13705764488E+02  0.24196340042E+02  0.00000000000E+00 0.  1.
</event>
<event>
 7    1  0.2728221E-009  0.1826099E+03  0.7561462E-02  0.1165301E+00
         -4   -1    0    0    0  501 -0.00000000000E+00  0.00000000000E+00  0.83162921060E+03  0.83162921060E+03  0.00000000000E+00 0. -1.
          4   -1    0    0  501    0  0.00000000000E+00 -0.00000000000E+00 -0.44504920540E+02  0.44504920540E+02  0.00000000000E+00 0.  1.
         25    2    1    2    0    0 -0.42906891444E+02  0.15312994481E+03  0.45901990060E+03  0.50163501383E+03  0.12509451074E+03 0.  0.
          5    1    3    3  502    0 -0.62237195065E+02  0.24236648590E+02  0.10661540541E+03  0.12587772105E+03  0.41800000000E+01 0. -1.
         -5    1    3    3    0  502  0.19330303621E+02  0.12889329622E+03  0.35240449519E+03  0.37575729278E+03  0.41800000000E+01 0. -1.
        -11    1    1    2    0    0 -0.12915306648E+02 -0.32738735477E+02  0.23710145765E+02  0.42435845209E+02  0.00000000000E+00 0.  1.
         11    1    1    2    0    0  0.55822198092E+02 -0.12039120934E+03  0.30439424370E+03  0.33206327210E+03  0.00000000000E+00 0. -1.
</event>
<event>
 7    1  0.2728221E-009  0.7906357E+02  0.7561462E-02  0.1331730E+00
         -1   -1    0    0    0  501 -0.00000000000E+00  0.00000000000E+00  0.23898936321E+03  0.23898936321E+03  0.00000000000E+00 0.  1.
          1   -1    0    0  501    0  0.00000000000E+00 -0.00000000000E+00 -0.60137722621E+02  0.60137722621E+02  0.00000000000E+00 0. -1.
         25    2    1    2    0    0  0.15307576773E+02 -0.93649148869E+01  0.40996087253E+02  0.13285141084E+03  0.12508714824E+03 0.  0.
          5    1    3    3  502    0  0.13481247076E+02 -0.36586079300E+02  0.77636785874E+02  0.86978319955E+02  0.41800000000E+01 0.  1.
         -5    1    3    3    0  502  0.18263296969E+01  0.27221164413E+02 -0.36640698621E+02  0.45873090888E+02  0.41800000000E+01 0.  1.
        -11    1    1    2    0    0  0.17805815009E+02 -0.33026509421E+02  0.72469423784E+02  0.81606462711E+02  0.00000000000E+00 0. -1.
         11    1    1    2    0    0 -0.33113391781E+02  0.42391424308E+02  0.65386129554E+02  0.84669212280E+02  0.00000000000E+00 0.  1.
</event>
<event>
 7    1  0.2728221E-009  0.1349614E+03  0.7561462E-02  0.1220274E+00
          1   -1    0    0  501    0  0.00000000000E+00  0.00000000000E+00  0.28135803496E+03  0.28135803496E+03  0.00000000000E+00 0. -1.
         -1   -1    0    0    0  501 -0.00000000000E+00 -0.00000000000E+00 -0.83802774217E+02  0.83802774217E+02  0.00000000000E+00 0.  1.
         25    2    1    2    0    0  0.27789713873E+02 -0.10398928329E+03  0.91960141261E+02  0.18891741331E+03  0.12508829776E+03 0.  0.
          5    1    3    3  502    0 -0.10488125792E+02  0.12340203640E+02  0.59991259379E+02  0.62279250239E+02  0.41800000000E+01 0.  1.
         -5    1    3    3    0  502  0.38277839665E+02 -0.11632948693E+03  0.31968881882E+02  0.12663816307E+03  0.41800000000E+01 0.  1.
        -11    1    1    2    0    0 -0.52790713466E+02  0.81074665021E+02  0.10436207405E+03  0.14230742509E+03  0.00000000000E+00 0.  1.
         11    1    1    2    0    0  0.25000999593E+02  0.22914618264E+02  0.12330454277E+01  0.33935970767E+02  0.00000000000E+00 0. -1.
</event>
<event>
 7    1  0.2977100E-009  0.1162320E+03  0.7561462E-02  0.1249446E+00
         -2   -1    0    0    0  501 -0.00000000000E+00  0.00000000000E+00  0.34620903375E+02  0.34620903375E+02  0.00000000000E+00 0.  1.
          2   -1    0    0  501    0  0.00000000000E+00 -0.00000000000E+00 -0.45473067335E+03  0.45473067335E+03  0.00000000000E+00 0. -1.
         25    2    1    2    0    0 -0.25889321023E+02  0.32021982085E+02 -0.14285405382E+03  0.19429279847E+03  0.12508695601E+03 0.  0.
          5    1    3    3  502    0 -0.39680155259E+02 -0.40982213027E+02 -0.58729054535E+02  0.81979453234E+02  0.41800000000E+01 0.  1.
         -5    1    3    3    0  502  0.13790834235E+02  0.73004195112E+02 -0.84124999285E+02  0.11231334523E+03  0.41800000000E+01 0.  1.
        -11    1    1    2    0    0 -0.28014803623E+02  0.12751314941E+02 -0.79085329484E+02  0.84864094848E+02  0.00000000000E+00 0.  1.
         11    1    1    2    0    0  0.53904124647E+02 -0.44773297026E+02 -0.19817038667E+03  0.21019468341E+03  0.00000000000E+00 0. -1.
</event>
<event>
 7    1  0.2728221E-009  0.9452653E+02  0.7561462E-02  0.1292246E+00
         -1   -1    0    0    0  501 -0.00000000000E+00  0.00000000000E+00  0.30374119701E+02  0.30374119701E+02  0.00000000000E+00 0.  1.
          1   -1    0    0  501    0  0.00000000000E+00 -0.00000000000E+00 -0.42809500037E+03  0.42809500037E+03  0.00000000000E+00 0. -1.
         25    2    1    2    0    0  0.16738436075E+02  0.28656855110E+02 -0.23078477011E+03  0.26459365319E+03  0.12508717203E+03 0.  0.
          5    1    3    3  502    0  0.47921529830E+02  0.29330113118E+00 -0.24461026375E+02  0.53966408609E+02  0.41800000000E+01 0.  1.
         -5    1    3    3    0  502 -0.31183093755E+02  0.28363553979E+02 -0.20632374373E+03  0.21062724458E+03  0.41800000000E+01 0.  1.
        -11    1    1    2    0    0  0.35129362640E+02 -0.30739047149E+02 -0.78542784521E+02  0.91367007938E+02  0.00000000000E+00 0.  1.
         11    1    1    2    0    0 -0.51867798715E+02  0.20821920385E+01 -0.88393326035E+02  0.10250845894E+03  0.00000000000E+00 0. -1.
</event>
<event>
 7    1  0.2728221E-009  0.8576960E+02  0.7561462E-02  0.1313432E+00
         -1   -1    0    0    0  501 -0.00000000000E+00  0.00000000000E+00  0.24559735915E+02  0.24559735915E+02  0.00000000000E+00 0.  1.
          1   -1    0    0  501    0  0.00000000000E+00 -0.00000000000E+00 -0.75810767422E+03  0.75810767422E+03  0.00000000000E+00 0. -1.
         25    2    1    2    0    0  0.57731747328E+02  0.26801667779E+02 -0.56654290842E+03  0.58366958318E+03  0.12509209088E+03 0.  0.
          5    1    3    3  502    0  0.13512074784E+02  0.30884784175E+01  0.41229335798E+00  0.14482998644E+02  0.41800000000E+01 0. -1.
         -5    1    3    3    0  502  0.44219672544E+02  0.23713189361E+02 -0.56695520178E+03  0.56918658453E+03  0.41800000000E+01 0. -1.
        -11    1    1    2    0    0 -0.55442842114E+02  0.20680550702E+02 -0.10876424254E+03  0.12381944264E+03  0.00000000000E+00 0.  1.
         11    1    1    2    0    0 -0.22889052135E+01 -0.47482218481E+02 -0.58240787343E+02  0.75178384322E+02  0.00000000000E+00 0. -1.
</event>
<event>
 7    1  0.2728221E-009  0.1503198E+03  0.7561462E-02  0.1200081E+00
         -1   -1    0    0    0  501 -0.00000000000E+00  0.00000000000E+00  0.34757535515E+02  0.34757535515E+02  0.00000000000E+00 0.  1.
          1   -1    0    0  501    0  0.00000000000E+00 -0.00000000000E+00 -0.86925842978E+03  0.86925842978E+03  0.00000000000E+00 0. -1.
         25    2    1    2    0    0  0.15519020095E+02 -0.12199099322E+03 -0.29725387002E+03  0.34515237727E+03  0.12509059870E+03 0.  0.
          5    1    3    3  502    0 -0.53806776724E+02 -0.71342037733E+02 -0.15198961431E+03  0.17636091071E+03  0.41800000000E+01 0.  1.
         -5    1    3    3    0  502  0.69325796819E+02 -0.50648955491E+02 -0.14526425571E+03  0.16879146656E+03  0.41800000000E+01 0.  1.
        -11    1    1    2    0    0 -0.21460903160E+02  0.80522907858E+02 -0.48395603169E+03  0.49107835389E+03  0.00000000000E+00 0. -1.
         11    1    1    2    0    0  0.59418830659E+01  0.41468085366E+02 -0.53290992561E+02  0.67785234133E+02  0.00000000000E+00 0.  1.
</event>
<event>
 7    1  0.2728221E-009  0.1248875E+03  0.7561462E-02  0.1235245E+00
          2   -1    0    0  501    0  0.00000000000E+00  0.00000000000E+00  0.67380548488E+03  0.67380548488E+03  0.00000000000E+00 0. -1.
         -2   -1    0    0    0  501 -0.00000000000E+00 -0.00000000000E+00 -0.25449868506E+02  0.25449868506E+02  0.00000000000E+00 0.  1.
         25    2    1    2    0    0 -0.71694297503E+02  0.15613638662E+02  0.35153170167E+03  0.38027059679E+03  0.12508929407E+03 0.  0.
          5    1    3    3  502    0 -0.85917763945E+02 -0.25183546152E+02  0.29889456647E+03  0.31204407930E+03  0.41800000000E+01 0.  1.
         -5    1    3    3    0  502  0.14223466442E+02  0.40797184815E+02  0.52637135200E+02  0.68226517488E+02  0.41800000000E+01 0.  1.
        -11    1    1    2    0    0  0.65058501481E+02  0.29288907755E+02  0.18719400377E+03  0.20032983747E+03  0.00000000000E+00 0.  1.
         11    1    1    2    0    0  0.66357960226E+01 -0.44902546418E+02  0.10962991093E+03  0.11865491913E+03  0.00000000000E+00 0. -1.
</event>
<event>
 7    1  0.2851472E-009  0.2079131E+03  0.7561462E-02  0.1143229E+00
          2   -1    0    0  501    0  0.00000000000E+00  0.00000000000E+00  0.19530725475E+04  0.19530725475E+04  0.00000000000E+00 0. -1.
         -2   -1    0    0    0  501 -0.00000000000E+00 -0.00000000000E+00 -0.24191850977E+02  0.24191850977E+02  0.00000000000E+00 0.  1.
         25    2    1    2    0    0 -0.17685570780E+03  0.12558791453E+02  0.12889419067E+04  0.13070792826E+04  0.12509735210E+03 0.  0.
          5    1    3    3  502    0 -0.14780784077E+03 -0.43075872104E+02  0.93076897266E+03  0.94342516472E+03  0.41800000000E+01 0. -1.
         -5    1    3    3    0  502 -0.29047867026E+02  0.55634663557E+02  0.35817293402E+03  0.36365411786E+03  0.41800000000E+01 0. -1.
        -11    1    1    2    0    0  0.48601835695E+02  0.37343989697E+02  0.20945042588E+03  0.21823426152E+03  0.00000000000E+00 0. -1.
         11    1    1    2    0    0  0.12825387210E+03 -0.49902781150E+02  0.43048836398E+03  0.45195085441E+03  0.00000000000E+00 0.  1.
</event>
<event>
 7    1  0.2728221E-009  0.2198665E+03  0.7561462E-02  0.1133983E+00
          1   -1    0    0  501    0  0.00000000000E+00  0.00000000000E+00  0.28673451760E+03  0.28673451760E+03  0.00000000000E+00 0. -1.
         -1   -1    0    0    0  501 -0.00000000000E+00 -0.00000000000E+00 -0.23261342936E+03  0.23261342936E+03  0.00000000000E+00 0.  1.
         25    2    1    2    0    0 -0.88781183804E+02 -0.18406955032E+03 -0.88688906312E+02  0.25549350246E+03  0.12509000657E+03 0.  0.
          5    1    3    3  502    0 -0.92217206487E+02 -0.19655664804E+03 -0.98766000909E+02  0.23855968728E+03  0.41800000000E+01 0.  1.
         -5    1    3    3    0  502  0.34360226823E+01  0.12487097713E+02  0.10077094597E+02  0.16933815184E+02  0.41800000000E+01 0.  1.
        -11    1    1    2    0    0  0.41811633856E+01  0.51737750374E+02  0.50021757898E+00  0.51908835073E+02  0.00000000000E+00 0.  1.
         11    1    1    2    0    0  0.84600020419E+02  0.13233179995E+03  0.14230977697E+03  0.21194560943E+03  0.00000000000E+00 0. -1.
</event>
<event>
 7    1  0.2728221E-009  0.1058817E+03  0.7561462E-02  0.1268392E+00
         -1   -1    0    0    0  501 -0.00000000000E+00  0.00000000000E+00  0.89766285182E+02  0.89766285182E+02  0.00000000000E+00 0.  1.
          1   -1    0    0  501    0  0.00000000000E+00 -0.00000000000E+00 -0.14426798510E+03  0.14426798510E+03  0.00000000000E+00 0. -1.
         25    2    1    2    0    0  0.49866869278E+02  0.30064244934E+02 -0.15981476774E+02  0.13890140034E+03  0.12509047903E+03 0.  0.
          5    1    3    3  502    0  0.46981814002E+02  0.77114532510E+02 -0.64361594964E+01  0.90624712525E+02  0.41800000000E+01 0.  1.
         -5    1    3    3    0  502  0.28850552759E+01 -0.47050287576E+02 -0.95453172780E+01  0.48276687820E+02  0.41800000000E+01 0.  1.
        -11    1    1    2    0    0 -0.69322822489E+01 -0.30326223891E+02 -0.41762363278E+02  0.52075247280E+02  0.00000000000E+00 0. -1.
         11    1    1    2    0    0 -0.42934587029E+02  0.26197895686E+00  0.32421401342E+01  0.43057622658E+02  0.00000000000E+00 0.  1.
</event>
<event>
 7    1  0.3179583E-009  0.1113224E+03  0.7561462E-02  0.1258140E+00
          1   -1    0    0  501    0  0.00000000000E+00  0.00000000000E+00  0.20967629561E+03  0.20967629561E+03  0.00000000000E+00 0. -1.
         -1   -1    0    0    0  501 -0.00000000000E+00 -0.00000000000E+00 -0.74145567208E+02  0.74145567208E+02  0.00000000000E+00 0.  1.
         25    2    1    2    0    0  0.36718839967E+02  0.85598372781E+01  0.12968254394E+03  0.18408130338E+03  0.12508724966E+03 0.  0.
          5    1    3    3  502    0  0.20584002829E+01  0.63400893945E+02  0.80432016027E+02  0.10252166584E+03  0.41800000000E+01 0. -1.
         -5    1    3    3    0  502  0.34660439684E+02 -0.54841056666E+02  0.49250527916E+02  0.81559637538E+02  0.41800000000E+01 0. -1.
        -11    1    1    2    0    0 -0.95293260252E+01 -0.46454974747E+02 -0.13408370281E+02  0.49281407517E+02  0.00000000000E+00 0.  1.
         11    1    1    2    0    0 -0.27189513941E+02  0.37895137469E+02  0.19256554737E+02  0.50459151920E+02  0.00000000000E+00 0. -1.
</event>
<event>
 7    1  0.3076259E-009  0.7320862E+02  0.7561462E-02  0.1349510E+00
          1   -1    0    0  501    0  0.00000000000E+00  0.00000000000E+00  0.24419216611E+03  0.24419216611E+03  0.00000000000E+00 0. -1.
         -1   -1    0    0    0  501 -0.00000000000E+00 -0.00000000000E+00 -0.62875310210E+02  0.62875310210E+02  0.00000000000E+00 0.  1.
         25    2    1    2    0    0 -0.28273348088E+02  0.40454455936E+02  0.59591801108E+02  0.14708805429E+03  0.12509103781E+03 0.  0.
          5    1    3    3  502    0  0.41837559757E+01 -0.11972056010E+02 -0.33094498989E+02  0.35686863165E+02  0.41800000000E+01 0.  1.
         -5    1    3    3    0  502 -0.32457104064E+02  0.52426511947E+02  0.92686300097E+02  0.11140119113E+03  0.41800000000E+01 0.  1.
        -11    1    1    2    0    0  0.28512016422E+02  0.22095648610E+01 -0.24277314403E+01  0.28700368242E+02  0.00000000000E+00 0.  1.
         11    1    1    2    0    0 -0.23866833372E+00 -0.42664020797E+02  0.12415278623E+03  0.13127905378E+03  0.00000000000E+00 0. -1.
</event>
<event>
 7    1  0.2728221E-009  0.1718169E+03  0.7561462E-02  0.1175966E+00
         -1   -1    0    0    0  501 -0.00000000000E+00  0.00000000000E+00  0.15406391876E+04  0.15406391876E+04  0.00000000000E+00 0.  1.
          1   -1    0    0  501    0  0.00000000000E+00 -0.00000000000E+00 -0.20743355557E+02  0.20743355557E+02  0.00000000000E+00 0. -1.
         25    2    1    2    0    0  0.10472529742E+03  0.92744972492E+02  0.69173448005E+03  0.71673765632E+03  0.12508900536E+03 0.  0.
          5    1    3    3  502    0  0.25950522033E+02  0.95973793146E+02  0.27173050377E+03  0.28937750024E+03  0.41800000000E+01 0.  1.
         -5    1    3    3    0  502  0.78774775383E+02 -0.32288206540E+01  0.42000397628E+03  0.42736015609E+03  0.41800000000E+01 0.  1.
        -11    1    1    2    0    0 -0.23139734925E+02 -0.79150574622E+02  0.45687453010E+03  0.46425703769E+03  0.00000000000E+00 0.  1.
         11    1    1    2    0    0 -0.81585562491E+02 -0.13594397870E+02  0.37128682192E+03  0.38038784917E+03  0.00000000000E+00 0. -1.
</event>
<event>
 7    1  0.2728221E-009  0.1307403E+03  0.7561462E-02  0.1226361E+00
         -2   -1    0    0    0  501 -0.00000000000E+00  0.00000000000E+00  0.66948763540E+02  0.66948763540E+02  0.00000000000E+00 0.  1.
          2   -1    0    0  501    0  0.00000000000E+00 -0.00000000000E+00 -0.41775065660E+03  0.41775065660E+03  0.00000000000E+00 0. -1.
         25    2    1    2    0    0 -0.10940313427E+03 -0.12939939341E+01 -0.93988574336E+02  0.19092652133E+03  0.12509342202E+03 0.  0.
          5    1    3    3  502    0 -0.12804704408E+03 -0.14063706786E+02 -0.10423983168E+03  0.16576262623E+03  0.41800000000E+01 0.  1.
         -5    1    3    3    0  502  0.18643909812E+02  0.12769712852E+02  0.10251257341E+02  0.25163895097E+02  0.41800000000E+01 0.  1.
        -11    1    1    2    0    0  0.65158920943E+02  0.40501234692E+01 -0.23588217303E+03  0.24474984787E+03  0.00000000000E+00 0. -1.
         11    1    1    2    0    0  0.44244213330E+02 -0.27561295352E+01 -0.20931145688E+02  0.49023050935E+02  0.00000000000E+00 0.  1.
</event>
<event>
 7    1  0.2728221E-009  0.1048666E+03  0.7561462E-02  0.1270383E+00
          2   -1    0    0  501    0  0.00000000000E+00  0.00000000000E+00  0.47078762694E+03  0.47078762694E+03  0.00000000000E+00 0. -1.
         -2   -1    0    0    0  501 -0.00000000000E+00 -0.00000000000E+00 -0.27714800366E+02  0.27714800366E+02  0.00000000000E+00 0.  1.
         25    2    1    2    0    0  0.25629079091E+02 -0.31729334154E+02  0.26852440576E+03  0.29902398636E+03  0.12508552110E+03 0.  0.
          5    1    3    3  502    0  0.33154306080E+02 -0.76409827409E+02  0.20083564311E+03  0.21746286506E+03  0.41800000000E+01 0. -1.
         -5    1    3    3    0  502 -0.75252269887E+01  0.44680493255E+02  0.67688762641E+02  0.81561121294E+02  0.41800000000E+01 0. -1.
        -11    1    1    2    0    0 -0.49974231133E+02  0.20318060564E+02  0.55371317810E+02  0.77306081252E+02  0.00000000000E+00 0.  1.
         11    1    1    2    0    0  0.24345152042E+02  0.11411273590E+02  0.11917710301E+03  0.12217235970E+03  0.00000000000E+00 0. -1.
</event>
<event>
 7    1  0.2728221E-009  0.1165884E+03  0.7561462E-02  0.1248834E+00
         -1   -1    0    0    0  501 -0.00000000000E+00  0.00000000000E+00  0.16474366637E+03  0.16474366637E+03  0.00000000000E+00 0.  1.
          1   -1    0    0  501    0  0.00000000000E+00 -0.00000000000E+00 -0.17980002623E+03  0.17980002623E+03  0.00000000000E+00 0. -1.
         25    2    1    2    0    0  0.82999404546E+02  0.17370609140E+01  0.96777385532E+02  0.17859687673E+03  0.12505624131E+03 0.  0.
          5    1    3    3  502    0 -0.28425930188E+02 -0.17706567082E+02  0.38804351520E+02  0.51427678557E+02  0.41800000000E+01 0.  1.
         -5    1    3    3    0  502  0.11142533473E+03  0.19443627996E+02  0.57973034013E+02  0.12716919817E+03  0.41800000000E+01 0.  1.
        -11    1    1    2    0    0 -0.65603952751E+02  0.83489298661E+01 -0.12534483290E+03  0.14172124181E+03  0.00000000000E+00 0. -1.
         11    1    1    2    0    0 -0.17395451795E+02 -0.10085990780E+02  0.13511087507E+02  0.24225574065E+02  0.00000000000E+00 0.  1.
</event>
<event>
 7    1  0.2728221E-009  0.9311602E+02  0.7561462E-02  0.1295477E+00
          1   -1    0    0  501    0  0.00000000000E+00  0.00000000000E+00  0.46979325675E+03  0.46979325675E+03  0.00000000000E+00 0. -1.
         -1   -1    0    0    0  501 -0.00000000000E+00 -0.00000000000E+00 -0.31863321834E+02  0.31863321834E+02  0.00000000000E+00 0.  1.
         25    2    1    2    0    0 -0.49906292380E+02  0.28362263945E+02  0.21894240085E+03  0.25860847019E+03  0.12509000730E+03 0.  0.
          5    1    3    3  502    0 -0.20287541049E+01  0.34563520547E+02  0.52311848584E+00  0.34878343550E+02  0.41800000000E+01 0. -1.
         -5    1    3    3    0  502 -0.47877538275E+02 -0.62012566027E+01  0.21841928237E+03  0.22373012664E+03  0.41800000000E+01 0. -1.
        -11    1    1    2    0    0  0.66534707073E+02 -0.44246312479E+02  0.14486300122E+03  0.16543848565E+03  0.00000000000E+00 0.  1.
         11    1    1    2    0    0 -0.16628414693E+02  0.15884048535E+02  0.74124532850E+02  0.77609622749E+02  0.00000000000E+00 0. -1.
</event>
<event>
 7    1  0.2728221E-009  0.1445008E+03  0.7561462E-02  0.1207398E+00
         -2   -1    0    0    0  501 -0.00000000000E+00  0.00000000000E+00  0.30248939516E+02  0.30248939516E+02  0.00000000000E+00 0.  1.
          2   -1    0    0  501    0  0.00000000000E+00 -0.00000000000E+00 -0.82883271200E+03  0.82883271200E+03  0.00000000000E+00 0. -1.
         25    2    1    2    0    0  0.10928463975E+03 -0.34340798231E+02 -0.45485469803E+03  0.48545097228E+03  0.12508967687E+03 0.  0.
          5    1    3    3  502    0  0.71782362606E+02 -0.62751882066E+02 -0.15592856156E+03  0.18281601405E+03  0.41800000000E+01 0.  1.
         -5    1    3    3    0  502  0.37502277145E+02  0.28411083836E+02 -0.29892613647E+03  0.30263495823E+03  0.41800000000E+01 0.  1.
        -11    1    1    2    0    0 -0.54265392028E+02 -0.29732808943E+02 -0.15309184445E+03  0.16512384908E+03  0.00000000000E+00 0.  1.
         11    1    1    2    0    0 -0.55019247723E+02  0.64073607174E+02 -0.19063723000E+03  0.20850683015E+03  0.00000000000E+00 0. -1.
</event>
<event>
 7    1  0.2728221E-009  0.1559838E+03  0.7561462E-02  0.1193307E+00
         -2   -1    0    0    0  501 -0.00000000000E+00  0.00000000000E+00  0.22384019445E+02  0.22384019445E+02  0.00000000000E+00 0. -1.
          2   -1    0    0  501    0  0.00000000000E+00 -0.00000000000E+00 -0.25101145339E+04  0.25101145339E+04  0.00000000000E+00 0.  1.
         25    2    1    2    0    0  0.12274135917E+03 -0.67444000245E+02 -0.21306806420E+04  0.21389394086E+04  0.12509061030E+03 0.  0.
          5    1    3    3  502    0  0.83089043423E+02 -0.66569907152E+02 -0.73437409702E+03  0.74206342616E+03  0.41800000000E+01 0. -1.
         -5    1    3    3    0  502  0.39652315745E+02 -0.87409309304E+00 -0.13963065450E+04  0.13968759824E+04  0.41800000000E+01 0. -1.
        -11    1    1    2    0    0 -0.48232288183E+02 -0.18618964803E+02 -0.11303797237E+03  0.12430045322E+03  0.00000000000E+00 0.  1.
         11    1    1    2    0    0 -0.74509070985E+02  0.86062965048E+02 -0.24401190011E+03  0.26925869161E+03  0.00000000000E+00 0. -1.
</event>
<event>
 7    1  0.2949528E-009  0.1466815E+03  0.7561462E-02  0.1204611E+00
         -1   -1    0    0    0  501 -0.00000000000E+00  0.00000000000E+00  0.22029133805E+02  0.22029133805E+02  0.00000000000E+00 0.  1.
          1   -1    0    0  501    0  0.00000000000E+00 -0.00000000000E+00 -0.11608220625E+04  0.11608220625E+04  0.00000000000E+00 0. -1.
         25    2    1    2    0    0  0.15329755826E+02  0.11191274273E+03 -0.49661955791E+03  0.52444084027E+03  0.12509095190E+03 0.  0.
          5    1    3    3  502    0 -0.39595469381E+02  0.64748160511E+02 -0.12892733878E+03  0.14966581630E+03  0.41800000000E+01 0. -1.
         -5    1    3    3    0  502  0.54925225208E+02  0.47164582215E+02 -0.36769221913E+03  0.37477502397E+03  0.41800000000E+01 0. -1.
        -11    1    1    2    0    0 -0.42618581497E+02 -0.16674168023E+02 -0.22865741975E+03  0.23319216748E+03  0.00000000000E+00 0. -1.
         11    1    1    2    0    0  0.27288825670E+02 -0.95238574702E+02 -0.41351595106E+03  0.42521818858E+03  0.00000000000E+00 0.  1.
</event>
<event>
 7    1  0.2728221E-009  0.1652365E+03  0.7561462E-02  0.1182908E+00
         -3   -1    0    0    0  501 -0.00000000000E+00  0.00000000000E+00  0.38044826178E+03  0.38044826178E+03  0.00000000000E+00 0.  1.
          3   -1    0    0  501    0  0.00000000000E+00 -0.00000000000E+00 -0.90570306015E+02  0.90570306015E+02  0.00000000000E+00 0. -1.
         25    2    1    2    0    0 -0.12899836965E+03 -0.57598319861E+02  0.21957790630E+03  0.28951788168E+03  0.12509197037E+03 0.  0.
          5    1    3    3  502    0 -0.14042568415E+03 -0.48342112898E+02  0.12631733188E+03  0.19501249545E+03  0.41800000000E+01 0. -1.
         -5    1    3    3    0  502  0.11427314500E+02 -0.92562069627E+01  0.93260574423E+02  0.94505386226E+02  0.41800000000E+01 0. -1.
        -11    1    1    2    0    0  0.91923976733E+02  0.81209106450E+02  0.59038228753E+02  0.13612659154E+03  0.00000000000E+00 0. -1.
         11    1    1    2    0    0  0.37074392918E+02 -0.23610786589E+02  0.11261820710E+02  0.45374094584E+02  0.00000000000E+00 0.  1.
</event>
<event>
 7    1  0.2728221E-009  0.7901507E+02  0.7561462E-02  0.1331870E+00
         -2   -1    0    0    0  501 -0.00000000000E+00  0.00000000000E+00  0.89407698269E+02  0.89407698269E+02  0.00000000000E+00 0.  1.
          2   -1    0    0  501    0  0.00000000000E+00 -0.00000000000E+00 -0.18426059292E+03  0.18426059292E+03  0.00000000000E+00 0. -1.
         25    2    1    2    0    0  0.50448742457E+02 -0.19151145628E+02 -0.10440492491E+03  0.17163969517E+03  0.12509178477E+03 0.  0.
          5    1    3    3  502    0 -0.17722559043E+02 -0.27043584772E+02 -0.97185064900E+02  0.10250782319E+03  0.41800000000E+01 0.  1.
         -5    1    3    3    0  502  0.68171301500E+02  0.78924391447E+01 -0.72198600095E+01  0.69131871973E+02  0.41800000000E+01 0.  1.
        -11    1    1    2    0    0 -0.28660030622E+02  0.16160315865E+01  0.47130695895E+02  0.55184340251E+02  0.00000000000E+00 0.  1.
         11    1    1    2    0    0 -0.21788711835E+02  0.17535114041E+02 -0.37578665639E+02  0.46844255774E+02  0.00000000000E+00 0. -1.
</event>
<event>
 7    1  0.2728221E-009  0.1404369E+03  0.7561462E-02  0.1212742E+00
         -2   -1    0    0    0  501 -0.00000000000E+00  0.00000000000E+00  0.26265910919E+02  0.26265910919E+02  0.00000000000E+00 0.  1.
          2   -1    0    0  501    0  0.00000000000E+00 -0.00000000000E+00 -0.85104161395E+03  0.85104161395E+03  0.00000000000E+00 0. -1.
         25    2    1    2    0    0 -0.92338148663E+02 -0.45101651483E+02 -0.42980898564E+03  0.45928624646E+03  0.12509036489E+03 0.  0.
          5    1    3    3  502    0 -0.11778258666E+03 -0.37745786963E+02 -0.40216073469E+03  0.42077097224E+03  0.41800000000E+01 0. -1.
         -5    1    3    3    0  502  0.25444437998E+02 -0.73558645199E+01 -0.27648250950E+02  0.38515274223E+02  0.41800000000E+01 0. -1.
        -11    1    1    2    0    0  0.10494409540E+03  0.27200887230E+02 -0.36595381082E+03  0.38167439406E+03  0.00000000000E+00 0.  1.
         11    1    1    2    0    0 -0.12605946740E+02  0.17900764252E+02 -0.29012906572E+02  0.36346884347E+02  0.00000000000E+00 0. -1.
</event>
<event>
 7    1  0.2728221E-009  0.1152347E+03  0.7561462E-02  0.1251172E+00
          2   -1    0    0  501    0  0.00000000000E+00  0.00000000000E+00  0.64558962990E+03  0.64558962990E+03  0.00000000000E+00 0. -1.
         -2   -1    0    0    0  501 -0.00000000000E+00 -0.00000000000E+00 -0.20964303129E+02  0.20964303129E+02  0.00000000000E+00 0.  1.
         25    2    1    2    0    0 -0.32805138176E+02  0.14259241874E+02  0.37086983437E+03  0.39302688403E+03  0.12508474910E+03 0.  0.
          5    1    3    3  502    0 -0.52845793449E+02 -0.43653885355E+02  0.19685982727E+03  0.20849365358E+03  0.41800000000E+01 0. -1.
         -5    1    3    3    0  502  0.20040655272E+02  0.57913127229E+02  0.17401000710E+03  0.18453323045E+03  0.41800000000E+01 0. -1.
        -11    1    1    2    0    0 -0.29967584487E+02 -0.21927649683E+02  0.70743013300E+02  0.79896507254E+02  0.00000000000E+00 0.  1.
         11    1    1    2    0    0  0.62772722664E+02  0.76684078092E+01  0.18301247910E+03  0.19363054175E+03  0.00000000000E+00 0. -1.
</event>
<event>
 7    1  0.2728221E-009  0.2683044E+03  0.7561462E-02  0.1102254E+00
         -2   -1    0    0    0  501 -0.00000000000E+00  0.00000000000E+00  0.54678588309E+03  0.54678588309E+03  0.00000000000E+00 0.  1.
          2   -1    0    0  501    0  0.00000000000E+00 -0.00000000000E+00 -0.30042949367E+03  0.30042949367E+03  0.00000000000E+00 0. -1.
         25    2    1    2    0    0 -0.11458306995E+03  0.23439229554E+03 -0.17874839515E+03  0.34009547327E+03  0.12507963081E+03 0.  0.
          5    1    3    3  502    0 -0.59530279722E+02  0.77064032731E+02 -0.25349320914E+01  0.97501885239E+02  0.41800000000E+01 0. -1.
         -5    1    3    3    0  502 -0.55052790227E+02  0.15732826281E+03 -0.17621346306E+03  0.24259358803E+03  0.41800000000E+01 0. -1.
        -11    1    1    2    0    0  0.63246213664E+02 -0.20207913559E+03  0.29052291745E+03  0.35949913233E+03  0.00000000000E+00 0.  1.
         11    1    1    2    0    0  0.51336856286E+02 -0.32313159951E+02  0.13458186712E+03  0.14762077116E+03  0.00000000000E+00 0. -1.
</event>
<event>
 7    1  0.2728221E-009  0.2145409E+03  0.7561462E-02  0.1138020E+00
         -1   -1    0    0    0  501 -0.00000000000E+00  0.00000000000E+00  0.18729300511E+03  0.18729300511E+03  0.00000000000E+00 0.  1.
          1   -1    0    0  501    0  0.00000000000E+00 -0.00000000000E+00 -0.28218617284E+03  0.28218617284E+03  0.00000000000E+00 0. -1.
         25    2    1    2    0    0 -0.19095767548E+03 -0.59814945598E+02 -0.17257951401E+02  0.23661816090E+03  0.12509058972E+03 0.  0.
          5    1    3    3  502    0 -0.10075164759E+03  0.63420329357E+01  0.42628991473E+02  0.10966229611E+03  0.41800000000E+01 0. -1.
         -5    1    3    3    0  502 -0.90206027897E+02 -0.66156978534E+02 -0.59886942874E+02  0.12695586479E+03  0.41800000000E+01 0. -1.
        -11    1    1    2    0    0  0.12608624001E+03 -0.25521665867E+01 -0.65347988001E+02  0.14203736483E+03  0.00000000000E+00 0. -1.
         11    1    1    2    0    0  0.64871435478E+02  0.62367112185E+02 -0.12287228327E+02  0.90823652223E+02  0.00000000000E+00 0.  1.
</event>
<event>
 7    1  0.2728221E-009  0.1199622E+03  0.7561462E-02  0.1243159E+00
         -2   -1    0    0    0  501 -0.00000000000E+00  0.00000000000E+00  0.22811568861E+03  0.22811568861E+03  0.00000000000E+00 0.  1.
          2   -1    0    0  501    0  0.00000000000E+00 -0.00000000000E+00 -0.93389232296E+02  0.93389232296E+02  0.00000000000E+00 0. -1.
         25    2    1    2    0    0 -0.41373175019E+02 -0.85294812173E+02  0.98209230473E+02  0.18515180199E+03  0.12509673151E+03 0.  0.
          5    1    3    3  502    0 -0.31070008756E+02 -0.10084135281E+02  0.10381910421E+03  0.10891700523E+03  0.41800000000E+01 0. -1.
         -5    1    3    3    0  502 -0.10303166263E+02 -0.75210676892E+02 -0.56098737370E+01  0.76234796760E+02  0.41800000000E+01 0. -1.
        -11    1    1    2    0    0  0.19504148217E+02  0.10174588352E+03  0.24448715963E+02  0.10644424044E+03  0.00000000000E+00 0.  1.
         11    1    1    2    0    0  0.21869026802E+02 -0.16451071342E+02  0.12068509883E+02  0.29908878488E+02  0.00000000000E+00 0. -1.
</event>
<event>
 7    1  0.2728221E-009  0.1069537E+03  0.7561462E-02  0.1266317E+00
          2   -1    0    0  501    0  0.00000000000E+00  0.00000000000E+00  0.16706171561E+03  0.16706171561E+03  0.00000000000E+00 0. -1.
         -2   -1    0    0    0  501 -0.00000000000E+00 -0.00000000000E+00 -0.74192887580E+02  0.74192887580E+02  0.00000000000E+00 0.  1.
         25    2    1    2    0    0 -0.20384274345E+02  0.12129339427E+02  0.66056206708E+02  0.14343181888E+03  0.12508646892E+03 0.  0.
          5    1    3    3  502    0 -0.71544031980E+02 -0.12866572426E+01  0.23541790359E+02  0.75444630638E+02  0.41800000000E+01 0. -1.
         -5    1    3    3    0  502  0.51159757635E+02  0.13415996670E+02  0.42514416349E+02  0.67987188245E+02  0.41800000000E+01 0. -1.
        -11    1    1    2    0    0 -0.33980714238E+02 -0.44775810345E+01 -0.45820830654E+01  0.34579374738E+02  0.00000000000E+00 0.  1.
         11    1    1    2    0    0  0.54364988584E+02 -0.76517583927E+01  0.31394704385E+02  0.63243409567E+02  0.00000000000E+00 0. -1.
</event>
<event>
 7    1  0.2728221E-009  0.9499488E+02  0.7561462E-02  0.1291188E+00
          1   -1    0    0  501    0  0.00000000000E+00  0.00000000000E+00  0.24936977230E+03  0.24936977230E+03  0.00000000000E+00 0. -1.
         -1   -1    0    0    0  501 -0.00000000000E+00 -0.00000000000E+00 -0.54638117053E+02  0.54638117053E+02  0.00000000000E+00 0.  1.
         25    2    1    2    0    0  0.66216070284E+01 -0.20008405817E+02  0.62692725635E+02  0.14150159802E+03  0.12509253540E+03 0.  0.
          5    1    3    3  502    0 -0.57601204691E+02 -0.12075986322E+02  0.45236417753E+02  0.74347388108E+02  0.41800000000E+01 0.  1.
         -5    1    3    3    0  502  0.64222811719E+02 -0.79324194955E+01  0.17456307882E+02  0.67154209913E+02  0.41800000000E+01 0.  1.
        -11    1    1    2    0    0 -0.17194119150E+02  0.39993535699E+02  0.19468802006E+02  0.47688100011E+02  0.00000000000E+00 0.  1.
         11    1    1    2    0    0  0.10572512121E+02 -0.19985129882E+02  0.11257012761E+03  0.11481819132E+03  0.00000000000E+00 0. -1.
</event>
<event>
 7    1  0.2728221E-009  0.1196985E+03  0.7561462E-02  0.1243595E+00
         -1   -1    0    0    0  501 -0.00000000000E+00  0.00000000000E+00  0.40252606106E+02  0.40252606106E+02  0.00000000000E+00 0.  1.
          1   -1    0    0  501    0  0.00000000000E+00 -0.00000000000E+00 -0.41626628916E+03  0.41626628916E+03  0.00000000000E+00 0. -1.
         25    2    1    2    0    0  0.63091033024E+02  0.15642728734E+02 -0.25601090568E+03  0.29225819396E+03  0.12509234468E+03 0.  0.
          5    1    3    3  502    0  0.12776901496E+02  0.60049870688E+02 -0.18268756266E+03  0.19277306382E+03  0.41800000000E+01 0. -1.
         -5    1    3    3    0  502  0.50314131527E+02 -0.44407141954E+02 -0.73323343017E+02  0.99485130140E+02  0.41800000000E+01 0. -1.
        -11    1    1    2    0    0  0.21121033983E+02  0.88810821481E+01 -0.36893289067E+02  0.43429097099E+02  0.00000000000E+00 0.  1.
         11    1    1    2    0    0 -0.84212067007E+02 -0.24523810882E+02 -0.83109488309E+02  0.12083160421E+03  0.00000000000E+00 0. -1.
</event>
<event>
 7    1  0.2728221E-009  0.1384692E+03  0.7561462E-02  0.1215404E+00
          1   -1    0    0  501    0  0.00000000000E+00  0.00000000000E+00  0.61957748052E+02  0.61957748052E+02  0.00000000000E+00 0. -1.
         -1   -1    0    0    0  501 -0.00000000000E+00 -0.00000000000E+00 -0.43502911785E+03  0.43502911785E+03  0.00000000000E+00 0.  1.
         25    2    1    2    0    0  0.12151396503E+03  0.13498238239E+01 -0.16820275346E+03  0.24229530826E+03  0.12508950560E+03 0.  0.
          5    1    3    3  502    0  0.59503323364E+02 -0.47203292976E+02 -0.27293523603E+02  0.80815872140E+02  0.41800000000E+01 0.  1.
         -5    1    3    3    0  502  0.62010641663E+02  0.48553116800E+02 -0.14090922986E+03  0.16147943612E+03  0.41800000000E+01 0.  1.
        -11    1    1    2    0    0 -0.66341704798E+02  0.46536505484E+01 -0.33311333224E+02  0.74380932907E+02  0.00000000000E+00 0. -1.
         11    1    1    2    0    0 -0.55172260228E+02 -0.60034743723E+01 -0.17155728312E+03  0.18031062474E+03  0.00000000000E+00 0.  1.
</event>
<event>
 7    1  0.2832258E-009  0.9332229E+02  0.7561462E-02  0.1295000E+00
          3   -1    0    0  501    0  0.00000000000E+00  0.00000000000E+00  0.39640700580E+03  0.39640700580E+03  0.00000000000E+00 0. -1.
         -3   -1    0    0    0  501 -0.00000000000E+00 -0.00000000000E+00 -0.37718688300E+02  0.37718688300E+02  0.00000000000E+00 0.  1.
         25    2    1    2    0    0  0.11024847511E+02  0.48717675258E+02  0.25032736325E+03  0.28426170839E+03  0.12508385556E+03 0.  0.
          5    1    3    3  502    0  0.47725410376E+02 -0.22552536819E+02  0.79586500999E+02  0.95591920442E+02  0.41800000000E+01 0. -1.
         -5    1    3    3    0  502 -0.36700562865E+02  0.71270212077E+02  0.17074086225E+03  0.18866978795E+03  0.41800000000E+01 0. -1.
        -11    1    1    2    0    0  0.48892677822E+01 -0.19986921962E+02 -0.12865373901E+02  0.24267258489E+02  0.00000000000E+00 0.  1.
         11    1    1    2    0    0 -0.15914115293E+02 -0.28730753296E+02  0.12122632815E+03  0.12559672721E+03  0.00000000000E+00 0. -1.
</event>
<event>
 7    1  0.2728221E-009  0.1010908E+03  0.7561462E-02  0.1278019E+00
         -1   -1    0    0    0  501 -0.00000000000E+00  0.00000000000E+00  0.74680309618E+02  0.74680309618E+02  0.00000000000E+00 0.  1.
          1   -1    0    0  501    0  0.00000000000E+00 -0.00000000000E+00 -0.27445237678E+03  0.27445237678E+03  0.00000000000E+00 0. -1.
         25    2    1    2    0    0 -0.29581980911E+02  0.99838748452E+01 -0.14992506745E+01  0.12895794646E+03  0.12511248080E+03 0.  0.
          5    1    3    3  502    0 -0.39610696689E+02  0.59439098136E+02 -0.21200812299E+02  0.74625468317E+02  0.41800000000E+01 0. -1.
         -5    1    3    3    0  502  0.10028715778E+02 -0.49455223291E+02  0.19701561625E+02  0.54332478144E+02  0.41800000000E+01 0. -1.
        -11    1    1    2    0    0 -0.24833191310E+02 -0.10726792900E+01 -0.15564570914E+02  0.29327357522E+02  0.00000000000E+00 0.  1.
         11    1    1    2    0    0  0.54415172221E+02 -0.89111955553E+01 -0.18270824557E+03  0.19084738241E+03  0.00000000000E+00 0. -1.
</event>
<event>
 7    1  0.2728221E-009  0.7583259E+02  0.7561462E-02  0.1341312E+00
          1   -1    0    0  501    0  0.00000000000E+00  0.00000000000E+00  0.19139225213E+03  0.19139225213E+03  0.00000000000E+00 0. -1.
         -1   -1    0    0    0  501 -0.00000000000E+00 -0.00000000000E+00 -0.68305763716E+02  0.68305763716E+02  0.00000000000E+00 0.  1.
         25    2    1    2    0    0  0.47657013627E+01 -0.30020112010E+02  0.94528121851E+02  0.15970803644E+03  0.12508865676E+03 0.  0.
          5    1    3    3  502    0  0.57995536828E+01 -0.52996724162E+02  0.11614730363E+03  0.12786694700E+03  0.41800000000E+01 0.  1.
         -5    1    3    3    0  502 -0.10338523201E+01  0.22976612152E+02 -0.21619181774E+02  0.31841089447E+02  0.41800000000E+01 0.  1.
        -11    1    1    2    0    0 -0.14292239118E+02  0.50361457457E+02 -0.11926421147E+02  0.53691563747E+02  0.00000000000E+00 0.  1.
         11    1    1    2    0    0  0.95265377552E+01 -0.20341345447E+02  0.40484787709E+02  0.46298415654E+02  0.00000000000E+00 0. -1.
</event>
<event>
 7    1  0.2728221E-009  0.9655626E+02  0.7561462E-02  0.1287709E+00
          2   -1    0    0  501    0  0.00000000000E+00  0.00000000000E+00  0.93946739693E+02  0.93946739693E+02  0.00000000000E+00 0. -1.
         -2   -1    0    0    0  501 -0.00000000000E+00 -0.00000000000E+00 -0.28608936316E+03  0.28608936316E+03  0.00000000000E+00 0.  1.
         25    2    1    2    0    0 -0.43347999225E+02 -0.27457993554E+01 -0.23545784437E+03  0.27013798633E+03  0.12509015442E+03 0.  0.
          5    1    3    3  502    0 -0.21605764436E-01  0.52942578451E+02 -0.15065596193E+03  0.15974231858E+03  0.41800000000E+01 0. -1.
         -5    1    3    3    0  502 -0.43326393460E+02 -0.55688377806E+02 -0.84801882444E+02  0.11039566775E+03  0.41800000000E+01 0. -1.
        -11    1    1    2    0    0 -0.12650656130E+02 -0.30882733543E+01 -0.20819576806E+02  0.24556695853E+02  0.00000000000E+00 0.  1.
         11    1    1    2    0    0  0.55998655355E+02  0.58340727097E+01  0.64134797705E+02  0.85341420674E+02  0.00000000000E+00 0. -1.
</event>
<event>
 7    1  0.3012751E-009  0.1357233E+03  0.7561462E-02  0.1219202E+00
          2   -1    0    0  501    0  0.00000000000E+00  0.00000000000E+00  0.57761915126E+03  0.57761915126E+03  0.00000000000E+00 0. -1.
         -2   -1    0    0    0  501 -0.00000000000E+00 -0.00000000000E+00 -0.39668367805E+02  0.39668367805E+02  0.00000000000E+00 0.  1.
         25    2    1    2    0    0 -0.66580106855E+02 -0.76179050268E+02  0.35133523944E+03  0.38641762406E+03  0.12508385741E+03 0.  0.
          5    1    3    3  502    0 -0.99497658148E+02 -0.51664277586E+02  0.30164990157E+03  0.32183709710E+03  0.41800000000E+01 0.  1.
         -5    1    3    3    0  502  0.32917551293E+02 -0.24514772681E+02  0.49685337871E+02  0.64580526957E+02  0.41800000000E+01 0.  1.
        -11    1    1    2    0    0 -0.81443860330E+01  0.27835755854E+02  0.61436664242E+01  0.29646331391E+02  0.00000000000E+00 0.  1.
         11    1    1    2    0    0  0.74724492888E+02  0.48343294414E+02  0.18047187759E+03  0.20122356362E+03  0.00000000000E+00 0. -1.
</event>
<event>
 7    1  0.2728221E-009  0.9427879E+02  0.7561462E-02  0.1292809E+00
          2   -1    0    0  501    0  0.00000000000E+00  0.00000000000E+00  0.60172469019E+02  0.60172469019E+02  0.00000000000E+00 0. -1.
         -2   -1    0    0    0  501 -0.00000000000E+00 -0.00000000000E+00 -0.20277787640E+03  0.20277787640E+03  0.00000000000E+00 0.  1.
         25    2    1    2    0    0 -0.41224886828E+02 -0.23983216909E+01 -0.71534696403E+02  0.14990002106E+03  0.12509020858E+03 0.  0.
          5    1    3    3  502    0  0.22075341593E+02  0.43108496330E+02 -0.80499447692E+01  0.49274102459E+02  0.41800000000E+01 0. -1.
         -5    1    3    3    0  502 -0.63300228421E+02 -0.45506818021E+02 -0.63484751633E+02  0.10062591860E+03  0.41800000000E+01 0. -1.
        -11    1    1    2    0    0  0.33132180798E+02  0.22603254127E+02 -0.14799348137E+01  0.40135255184E+02  0.00000000000E+00 0. -1.
         11    1    1    2    0    0  0.80927060295E+01 -0.20204932436E+02 -0.69590776165E+02  0.72915069175E+02  0.00000000000E+00 0.  1.
</event>
<event>
 7    1  0.2728221E-009  0.5222796E+02  0.7561462E-02  0.1433682E+00
          2   -1    0    0  501    0  0.00000000000E+00  0.00000000000E+00  0.30489195394E+03  0.30489195394E+03  0.00000000000E+00 0. -1.
         -2   -1    0    0    0  501 -0.00000000000E+00 -0.00000000000E+00 -0.38250869466E+02  0.38250869466E+02  0.00000000000E+00 0.  1.
         25    2    1    2    0    0  0.25359544164E+02  0.23824138167E+02  0.18364248492E+03  0.22491012287E+03  0.12509718247E+03 0.  0.
          5    1    3    3  502    0 -0.38201473266E+01 -0.11196386449E+02 -0.15860367751E+02  0.20223161481E+02  0.41800000000E+01 0.  1.
         -5    1    3    3    0  502  0.29179691491E+02  0.35020524616E+02  0.19950285267E+03  0.20468696139E+03  0.41800000000E+01 0.  1.
        -11    1    1    2    0    0 -0.91540934784E+01  0.68559281986E+01 -0.12311159086E+02  0.16803744134E+02  0.00000000000E+00 0. -1.
         11    1    1    2    0    0 -0.16205450686E+02 -0.30680066366E+02  0.95309758649E+02  0.10142895641E+03  0.00000000000E+00 0.  1.
</event>
<event>
 7    1  0.2728221E-009  0.1168038E+03  0.7561462E-02  0.1248465E+00
          1   -1    0    0  501    0  0.00000000000E+00  0.00000000000E+00  0.11124471760E+04  0.11124471760E+04  0.00000000000E+00 0. -1.
         -1   -1    0    0    0  501 -0.00000000000E+00 -0.00000000000E+00 -0.18191654290E+02  0.18191654290E+02  0.00000000000E+00 0.  1.
         25    2    1    2    0    0  0.78872949088E+02  0.31709732127E+02  0.74234649135E+03  0.75759754210E+03  0.12509705578E+03 0.  0.
          5    1    3    3  502    0  0.72261456992E+02 -0.15658347195E+02  0.64308743894E+03  0.64733749198E+03  0.41800000000E+01 0.  1.
         -5    1    3    3    0  502  0.66114920967E+01  0.47368079322E+02  0.99259052404E+02  0.11026005011E+03  0.41800000000E+01 0.  1.
        -11    1    1    2    0    0 -0.73069950715E+02  0.60671276343E+01  0.14339359045E+03  0.16105200874E+03  0.00000000000E+00 0.  1.
         11    1    1    2    0    0 -0.58029983734E+01 -0.37776859762E+02  0.20851543989E+03  0.21198927944E+03  0.00000000000E+00 0. -1.
</event>
<event>
 7    1  0.2728221E-009  0.1134544E+03  0.7561462E-02  0.1254303E+00
         -1   -1    0    0    0  501 -0.00000000000E+00  0.00000000000E+00  0.45025098437E+02  0.45025098437E+02  0.00000000000E+00 0.  1.
          1   -1    0    0  501    0  0.00000000000E+00 -0.00000000000E+00 -0.98603966390E+03  0.98603966390E+03  0.00000000000E+00 0. -1.
         25    2    1    2    0    0 -0.36739136713E+02  0.47701550192E+02 -0.90516061041E+03  0.91574459046E+03  0.12508885747E+03 0.  0.
          5    1    3    3  502    0 -0.27302320178E+02  0.84561383790E+02 -0.43350169356E+03  0.44253500995E+03  0.41800000000E+01 0.  1.
         -5    1    3    3    0  502 -0.94368165352E+01 -0.36859833598E+02 -0.47165891685E+03  0.47320958051E+03  0.41800000000E+01 0.  1.
        -11    1    1    2    0    0 -0.15366354249E+02 -0.44940047912E+02  0.67317111038E+01  0.47969247270E+02  0.00000000000E+00 0.  1.
         11    1    1    2    0    0  0.52105490962E+02 -0.27615022802E+01 -0.42585666154E+02  0.67350924604E+02  0.00000000000E+00 0. -1.
</event>
<event>
 7    1  0.2728221E-009  0.1065836E+03  0.7561462E-02  0.1267030E+00
          1   -1    0    0  501    0  0.00000000000E+00  0.00000000000E+00  0.49650546160E+03  0.49650546160E+03  0.00000000000E+00 0. -1.
         -1   -1    0    0    0  501 -0.00000000000E+00 -0.00000000000E+00 -0.25389125493E+02  0.25389125493E+02  0.00000000000E+00 0.  1.
         25    2    1    2    0    0 -0.28874453951E+02  0.21210859114E+02  0.29393748394E+03  0.32145081466E+03  0.12509095549E+03 0.  0.
          5    1    3    3  502    0  0.33093679141E+02 -0.32649293438E+02  0.12846695595E+03  0.13668357301E+03  0.41800000000E+01 0. -1.
         -5    1    3    3    0  502 -0.61968133092E+02  0.53860152552E+02  0.16547052799E+03  0.18476724164E+03  0.41800000000E+01 0. -1.
        -11    1    1    2    0    0 -0.22272137676E+02 -0.24399062282E+02  0.30096490133E+02  0.44689608134E+02  0.00000000000E+00 0.  1.
         11    1    1    2    0    0  0.51146591627E+02  0.31882031680E+01  0.14708236204E+03  0.15575416430E+03  0.00000000000E+00 0. -1.
</event>
<event>
 7    1  0.2728221E-009  0.9667707E+02  0.7561462E-02  0.1287443E+00
          2   -1    0    0  501    0  0.00000000000E+00  0.00000000000E+00  0.23614220157E+03  0.23614220157E+03  0.00000000000E+00 0. -1.
         -2   -1    0    0    0  501 -0.00000000000E+00 -0.00000000000E+00 -0.58409685061E+02  0.58409685061E+02  0.00000000000E+00 0.  1.
         25    2    1    2    0    0  0.39752139908E+02  0.89232525611E+01  0.83951783259E+02  0.15605916614E+03  0.12508678731E+03 0.  0.
          5    1    3    3  502    0  0.41334547729E+02 -0.30961082790E+02 -0.11005228580E+02  0.52969056435E+02  0.41800000000E+01 0. -1.
         -5    1    3    3    0  502 -0.15824078213E+01  0.39884335352E+02  0.94957011839E+02  0.10309010970E+03  0.41800000000E+01 0. -1.
        -11    1    1    2    0    0 -0.11826419194E+02 -0.50198243769E+02  0.40823565974E+02  0.65774549845E+02  0.00000000000E+00 0. -1.
         11    1    1    2    0    0 -0.27925720714E+02  0.41274991208E+02  0.52957167282E+02  0.72718170653E+02  0.00000000000E+00 0.  1.
</event>
<event>
 7    1  0.2728221E-009  0.6373216E+02  0.7561462E-02  0.1382805E+00
          2   -1    0    0  501    0  0.00000000000E+00  0.00000000000E+00  0.84340094949E+02  0.84340094949E+02  0.00000000000E+00 0. -1.
         -2   -1    0    0    0  501 -0.00000000000E+00 -0.00000000000E+00 -0.16721946871E+03  0.16721946871E+03  0.00000000000E+00 0.  1.
         25    2    1    2    0    0 -0.35218326926E+02 -0.97705504859E+01 -0.13901120270E+02  0.13106130422E+03  0.12509208653E+03 0.  0.
          5    1    3    3  502    0 -0.27321236572E+01 -0.19308908130E+02  0.52636288138E+02  0.56288095205E+02  0.41800000000E+01 0. -1.
         -5    1    3    3    0  502 -0.32486203269E+02  0.95383576440E+01 -0.66537408408E+02  0.74773209019E+02  0.41800000000E+01 0. -1.
        -11    1    1    2    0    0 -0.11787992356E+02  0.21889804837E+02  0.10804220612E+02  0.27108144581E+02  0.00000000000E+00 0. -1.
         11    1    1    2    0    0  0.47006319282E+02 -0.12119254351E+02 -0.79782474103E+02  0.93390114854E+02  0.00000000000E+00 0.  1.
</event>
<event>
 7    1  0.2728221E-009  0.8531063E+02  0.7561462E-02  0.1314622E+00
          1   -1    0    0  501    0  0.00000000000E+00  0.00000000000E+00  0.18725644919E+04  0.18725644919E+04  0.00000000000E+00 0. -1.
         -1   -1    0    0    0  501 -0.00000000000E+00 -0.00000000000E+00 -0.77283060469E+01  0.77283060469E+01  0.00000000000E+00 0.  1.
         25    2    1    2    0    0  0.20453880190E+02 -0.33653393160E+02  0.13521716359E+04  0.13585163011E+04  0.12508994883E+03 0.  0.
          5    1    3    3  502    0  0.42132024299E+02 -0.13468884827E+02  0.12746393616E+04  0.12754134596E+04  0.41800000000E+01 0.  1.
         -5    1    3    3    0  502 -0.21678144109E+02 -0.20184508333E+02  0.77532274294E+02  0.83102841503E+02  0.41800000000E+01 0.  1.
        -11    1    1    2    0    0  0.30556933946E+02  0.33396544523E+02  0.20775129029E+03  0.21262561938E+03  0.00000000000E+00 0.  1.
         11    1    1    2    0    0 -0.51010814136E+02  0.25684863698E+00  0.30491325957E+03  0.30915087740E+03  0.00000000000E+00 0. -1.
</event>
<event>
 7    1  0.3403188E-009  0.1196763E+03  0.7561462E-02  0.1243632E+00
         -3   -1    0    0    0  501 -0.00000000000E+00  0.00000000000E+00  0.34181216973E+03  0.34181216973E+03  0.00000000000E+00 0.  1.
          3   -1    0    0  501    0  0.00000000000E+00 -0.00000000000E+00 -0.71275742984E+02  0.71275742984E+02  0.00000000000E+00 0. -1.
         25    2    1    2    0    0 -0.54763425288E+02  0.92927771190E+02  0.10765390780E+03  0.19715622447E+03  0.12508640843E+03 0.  0.
          5    1    3    3  502    0 -0.34180425031E+02  0.60727019310E+02 -0.12571362014E+02  0.70933658248E+02  0.41800000000E+01 0.  1.
         -5    1    3    3    0  502 -0.20583000257E+02  0.32200751880E+02  0.12022526981E+03  0.12622256622E+03  0.41800000000E+01 0.  1.
        -11    1    1    2    0    0  0.78651541565E+01 -0.82729409352E+02  0.13989470241E+03  0.16271614420E+03  0.00000000000E+00 0.  1.
         11    1    1    2    0    0  0.46898271131E+02 -0.10198361838E+02  0.22987816545E+02  0.53215544052E+02  0.00000000000E+00 0. -1.
</event>
<event>
 7    1  0.2728221E-009  0.1008890E+03  0.7561462E-02  0.1278438E+00
          1   -1    0    0  501    0  0.00000000000E+00  0.00000000000E+00  0.39840311894E+03  0.39840311894E+03  0.00000000000E+00 0. -1.
         -1   -1    0    0    0  501 -0.00000000000E+00 -0.00000000000E+00 -0.31482438827E+02  0.31482438827E+02  0.00000000000E+00 0.  1.
         25    2    1    2    0    0 -0.73276882384E+01 -0.10673872475E+02  0.15904306045E+03  0.20275276964E+03  0.12508542660E+03 0.  0.
          5    1    3    3  502    0  0.34367700771E+02 -0.51013737432E+02  0.11238743651E+03  0.12818716218E+03  0.41800000000E+01 0.  1.
         -5    1    3    3    0  502 -0.41695389009E+02  0.40339864957E+02  0.46655623944E+02  0.74565607454E+02  0.41800000000E+01 0.  1.
        -11    1    1    2    0    0  0.53885624527E+01 -0.35418729298E+02  0.43238973500E+02  0.56152754338E+02  0.00000000000E+00 0.  1.
         11    1    1    2    0    0  0.19391257857E+01  0.46092601773E+02  0.16463864616E+03  0.17098003379E+03  0.00000000000E+00 0. -1.
</event>
<event>
 7    1  0.3958002E-009  0.8106228E+02  0.7561462E-02  0.1326064E+00
         -1   -1    0    0    0  501 -0.00000000000E+00  0.00000000000E+00  0.29072211583E+02  0.29072211583E+02  0.00000000000E+00 0.  1.
          1   -1    0    0  501    0  0.00000000000E+00 -0.00000000000E+00 -0.50116696618E+03  0.50116696618E+03  0.00000000000E+00 0. -1.
         25    2    1    2    0    0  0.24361544896E+02  0.25838996491E+02 -0.35192958945E+03  0.37518358120E+03  0.12508854888E+03 0.  0.
          5    1    3    3  502    0 -0.42945311347E+02 -0.25731500510E+01 -0.58319337625E+02  0.72591586350E+02  0.41800000000E+01 0.  1.
         -5    1    3    3    0  502  0.67306856243E+02  0.28412146542E+02 -0.29361025182E+03  0.30259199484E+03  0.41800000000E+01 0.  1.
        -11    1    1    2    0    0  0.17334834133E+01 -0.18546559472E+02  0.10654693767E+02  0.21459318075E+02  0.00000000000E+00 0.  1.
         11    1    1    2    0    0 -0.26095028309E+02 -0.72924370191E+01 -0.13081985891E+03  0.13359627849E+03  0.00000000000E+00 0. -1.
</event>
<event>
 7    1  0.2728221E-009  0.1139624E+03  0.7561462E-02  0.1253403E+00
         -2   -1    0    0    0  501 -0.00000000000E+00  0.00000000000E+00  0.26164553122E+02  0.26164553122E+02  0.00000000000E+00 0.  1.
          2   -1    0    0  501    0  0.00000000000E+00 -0.00000000000E+00 -0.67212583255E+03  0.67212583255E+03  0.00000000000E+00 0. -1.
         25    2    1    2    0    0  0.54527254825E+01  0.63318238807E+02 -0.47219483812E+03  0.49259936465E+03  0.12508891769E+03 0.  0.
          5    1    3    3  502    0  0.59964063462E+02  0.50019574119E+01 -0.19632083287E+03  0.20537782330E+03  0.41800000000E+01 0.  1.
         -5    1    3    3    0  502 -0.54511337980E+02  0.58316281395E+02 -0.27587400525E+03  0.28722154135E+03  0.41800000000E+01 0.  1.
        -11    1    1    2    0    0  0.19338625274E+02 -0.59530119581E+02 -0.52017045054E+02  0.81385444282E+02  0.00000000000E+00 0.  1.
         11    1    1    2    0    0 -0.24791350757E+02 -0.37881192257E+01 -0.12174939626E+03  0.12430557674E+03  0.00000000000E+00 0. -1.
</event>
<event>
 7    1  0.2728221E-009  0.8335898E+02  0.7561462E-02  0.1319781E+00
          3   -1    0    0  501    0  0.00000000000E+00  0.00000000000E+00  0.86395097323E+02  0.86395097323E+02  0.00000000000E+00 0. -1.
         -3   -1    0    0    0  501 -0.00000000000E+00 -0.00000000000E+00 -0.15248597832E+03  0.15248597832E+03  0.00000000000E+00 0.  1.
         25    2    1    2    0    0  0.15901622082E+02 -0.90586531889E+01 -0.13890273752E+02  0.12718783164E+03  0.12509549964E+03 0.  0.
          5    1    3    3  502    0 -0.34307386901E+02 -0.48778059228E+02 -0.19260254849E+02  0.62807051156E+02  0.41800000000E+01 0. -1.
         -5    1    3    3    0  502  0.50209008983E+02  0.39719406039E+02  0.53699810973E+01  0.64380780487E+02  0.41800000000E+01 0. -1.
        -11    1    1    2    0    0  0.87759465371E+01  0.15017460197E+02  0.24983100713E+02  0.30441692949E+02  0.00000000000E+00 0. -1.
         11    1    1    2    0    0 -0.24677568619E+02 -0.59588070082E+01 -0.77183707961E+02  0.81251551053E+02  0.00000000000E+00 0.  1.
</event>
<event>
 7    1  0.2728221E-009  0.1079234E+03  0.7561462E-02  0.1264464E+00
         -2   -1    0    0    0  501 -0.00000000000E+00  0.00000000000E+00  0.28867764630E+03  0.28867764630E+03  0.00000000000E+00 0.  1.
          2   -1    0    0  501    0  0.00000000000E+00 -0.00000000000E+00 -0.41226931577E+02  0.41226931577E+02  0.00000000000E+00 0. -1.
         25    2    1    2    0    0  0.54556339990E+01 -0.77569464249E+01  0.14208651240E+03  0.18954561538E+03  0.12509607966E+03 0.  0.
          5    1    3    3  502    0 -0.59331586726E+02  0.32749821323E+01  0.69680264322E+02  0.91672102231E+02  0.41800000000E+01 0. -1.
         -5    1    3    3    0  502  0.64787220725E+02 -0.11031928557E+02  0.72406248073E+02  0.97873513154E+02  0.41800000000E+01 0. -1.
        -11    1    1    2    0    0 -0.23766317056E+01 -0.41251758353E+02  0.63865759846E+02  0.76067017991E+02  0.00000000000E+00 0. -1.
         11    1    1    2    0    0 -0.30790022935E+01  0.49008704778E+02  0.41498442479E+02  0.64291944497E+02  0.00000000000E+00 0.  1.
</event>
<event>
 7    1  0.2728221E-009  0.1121288E+03  0.7561462E-02  0.1256678E+00
         -2   -1    0    0    0  501 -0.00000000000E+00  0.00000000000E+00  0.22850663767E+03  0.22850663767E+03  0.00000000000E+00 0.  1.
          2   -1    0    0  501    0  0.00000000000E+00 -0.00000000000E+00 -0.10110929370E+03  0.10110929370E+03  0.00000000000E+00 0. -1.
         25    2    1    2    0    0  0.84942639388E+02 -0.21268047112E+02  0.13268556634E+03  0.20228869453E+03  0.12509066554E+03 0.  0.
          5    1    3    3  502    0  0.88928723587E+01  0.16412098904E+02  0.11359607437E+03  0.11519540218E+03  0.41800000000E+01 0.  1.
         -5    1    3    3    0  502  0.76049767029E+02 -0.37680146015E+02  0.19089491965E+02  0.87093292350E+02  0.41800000000E+01 0.  1.
        -11    1    1    2    0    0  0.15336452568E+02 -0.56169665458E+01  0.14260586475E+02  0.21682283486E+02  0.00000000000E+00 0.  1.
         11    1    1    2    0    0 -0.10027909196E+03  0.26885013658E+02 -0.19548808836E+02  0.10564495336E+03  0.00000000000E+00 0. -1.
</event>
<event>
 7    1  0.2728221E-009  0.8423664E+02  0.7561462E-02  0.1317441E+00
          2   -1    0    0  501    0  0.00000000000E+00  0.00000000000E+00  0.49036821505E+03  0.49036821505E+03  0.00000000000E+00 0. -1.
         -2   -1    0    0    0  501 -0.00000000000E+00 -0.00000000000E+00 -0.34504554383E+02  0.34504554383E+02  0.00000000000E+00 0.  1.
         25    2    1    2    0    0  0.69899286327E+02 -0.64656741326E+01  0.26094503081E+03  0.29776463301E+03  0.12507498711E+03 0.  0.
          5    1    3    3  502    0  0.13904109307E+02  0.28589123067E+02  0.21454279049E+03  0.21692566368E+03  0.41800000000E+01 0. -1.
         -5    1    3    3    0  502  0.55995177021E+02 -0.35054797199E+02  0.46402240316E+02  0.80838969332E+02  0.41800000000E+01 0. -1.
        -11    1    1    2    0    0 -0.24966473814E+02  0.15861615369E+01 -0.19740150322E+01  0.25094570298E+02  0.00000000000E+00 0.  1.
         11    1    1    2    0    0 -0.44932812513E+02  0.48795125958E+01  0.19689264489E+03  0.20201356612E+03  0.00000000000E+00 0. -1.
</event>
<event>
 7    1  0.2728221E-009  0.8662680E+02  0.7561462E-02  0.1311232E+00
          1   -1    0    0  501    0  0.00000000000E+00  0.00000000000E+00  0.27174567926E+02  0.27174567926E+02  0.00000000000E+00 0. -1.
         -1   -1    0    0    0  501 -0.00000000000E+00 -0.00000000000E+00 -0.47376375307E+03  0.47376375307E+03  0.00000000000E+00 0.  1.
         25    2    1    2    0    0 -0.13504228269E+02 -0.33693825830E+02 -0.24512767688E+03  0.27758237452E+03  0.12508700408E+03 0.  0.
          5    1    3    3  502    0 -0.45097804912E+02 -0.29034360308E+02 -0.23876665335E+03  0.24475251426E+03  0.41800000000E+01 0.  1.
         -5    1    3    3    0  502  0.31593576643E+02 -0.46594655217E+01 -0.63610235302E+01  0.32829860256E+02  0.41800000000E+01 0.  1.
        -11    1    1    2    0    0 -0.10273925706E+01  0.58494198517E+02 -0.83581574594E+02  0.10202208784E+03  0.00000000000E+00 0. -1.
         11    1    1    2    0    0  0.14531620840E+02 -0.24800372687E+02 -0.11787993368E+03  0.12133385865E+03  0.00000000000E+00 0.  1.
</event>
<event>
 7    1  0.2728221E-009  0.8412674E+02  0.7561462E-02  0.1317732E+00
         -1   -1    0    0    0  501 -0.00000000000E+00  0.00000000000E+00  0.14302089402E+02  0.14302089402E+02  0.00000000000E+00 0.  1.
          1   -1    0    0  501    0  0.00000000000E+00 -0.00000000000E+00 -0.10370250873E+04  0.10370250873E+04  0.00000000000E+00 0. -1.
         25    2    1    2    0    0  0.31462736518E+01 -0.41127594694E+02 -0.73636416991E+03  0.74805168837E+03  0.12509100553E+03 0.  0.
          5    1    3    3  502    0 -0.18731367775E+01  0.16439593542E+02 -0.59541748267E+03  0.59566200143E+03  0.41800000000E+01 0.  1.
         -5    1    3    3    0  502  0.50194104293E+01 -0.57567188236E+02 -0.14094668725E+03  0.15238968695E+03  0.41800000000E+01 0.  1.
        -11    1    1    2    0    0 -0.37102692262E+02  0.45834964103E+02 -0.22883827257E+03  0.23631421603E+03  0.00000000000E+00 0. -1.
         11    1    1    2    0    0  0.33956418610E+02 -0.47073694087E+01 -0.57520555406E+02  0.66961272283E+02  0.00000000000E+00 0.  1.
</event>
<event>
 7    1  0.2728221E-009  0.1145316E+03  0.7561462E-02  0.1252401E+00
         -3   -1    0    0    0  501 -0.00000000000E+00  0.00000000000E+00  0.21170469046E+02  0.21170469046E+02  0.00000000000E+00 0.  1.
          3   -1    0    0  501    0  0.00000000000E+00 -0.00000000000E+00 -0.64711450454E+03  0.64711450454E+03  0.00000000000E+00 0. -1.
         25    2    1    2    0    0 -0.38239036440E+02  0.17750454755E+02 -0.32175677287E+03  0.34778028089E+03  0.12508557206E+03 0.  0.
          5    1    3    3  502    0  0.45309721065E+02 -0.22574780302E+01 -0.98412931920E+02  0.10844650570E+03  0.41800000000E+01 0. -1.
         -5    1    3    3    0  502 -0.83548757506E+02  0.20007932785E+02 -0.22334384095E+03  0.23933377518E+03  0.41800000000E+01 0. -1.
        -11    1    1    2    0    0  0.42541750002E+02 -0.49604884898E+02 -0.16106125618E+03  0.17381361668E+03  0.00000000000E+00 0.  1.
         11    1    1    2    0    0 -0.43027135619E+01  0.31854430142E+02 -0.14312600644E+03  0.14669107602E+03  0.00000000000E+00 0. -1.
</event>
<event>
 7    1  0.2728221E-009  0.1085707E+03  0.7561462E-02  0.1263240E+00
         -3   -1    0    0    0  501 -0.00000000000E+00  0.00000000000E+00  0.16641751340E+03  0.16641751340E+03  0.00000000000E+00 0.  1.
          3   -1    0    0  501    0  0.00000000000E+00 -0.00000000000E+00 -0.89628500494E+02  0.89628500494E+02  0.00000000000E+00 0. -1.
         25    2    1    2    0    0 -0.44491439163E+02 -0.27907362671E+02  0.22839718498E+02  0.13757665781E+03  0.12508946791E+03 0.  0.
          5    1    3    3  502    0  0.43410636475E+02 -0.17504399245E+02  0.98682069061E+01  0.48018134695E+02  0.41800000000E+01 0.  1.
         -5    1    3    3    0  502 -0.87902075638E+02 -0.10402963427E+02  0.12971511592E+02  0.89558523115E+02  0.41800000000E+01 0.  1.
        -11    1    1    2    0    0 -0.11961788402E+02 -0.82169741126E+01 -0.15995203444E+02  0.21597443797E+02  0.00000000000E+00 0. -1.
         11    1    1    2    0    0  0.56453227565E+02  0.36124336784E+02  0.69944497854E+02  0.96871912290E+02  0.00000000000E+00 0.  1.
</event>
<event>
 7    1  0.2728221E-009  0.9602050E+02  0.7561462E-02  0.1288894E+00
          3   -1    0    0  501    0  0.00000000000E+00  0.00000000000E+00  0.64160162401E+02  0.64160162401E+02  0.00000000000E+00 0. -1.
         -3   -1    0    0    0  501 -0.00000000000E+00 -0.00000000000E+00 -0.24317567222E+03  0.24317567222E+03  0.00000000000E+00 0.  1.
         25    2    1    2    0    0  0.15756307047E+02  0.49912689021E+02 -0.61105789447E+02  0.14873223754E+03  0.12509125965E+03 0.  0.
          5    1    3    3  502    0 -0.44086698270E+02 -0.95133438505E+01 -0.14004422724E+01  0.45316380197E+02  0.41800000000E+01 0. -1.
         -5    1    3    3    0  502  0.59843005318E+02  0.59426032872E+02 -0.59705347175E+02  0.10341585734E+03  0.41800000000E+01 0. -1.
        -11    1    1    2    0    0  0.10498536952E+02 -0.19352709989E+02  0.10231269663E+02  0.24278087671E+02  0.00000000000E+00 0. -1.
         11    1    1    2    0    0 -0.26254843999E+02 -0.30559979033E+02 -0.12814099004E+03  0.13432550941E+03  0.00000000000E+00 0.  1.
</event>
<event>
 7    1  0.2728221E-009  0.1073849E+03  0.7561462E-02  0.1265491E+00
          1   -1    0    0  501    0  0.00000000000E+00  0.00000000000E+00  0.45883071556E+03  0.45883071556E+03  0.00000000000E+00 0. -1.
         -1   -1    0    0    0  501 -0.00000000000E+00 -0.00000000000E+00 -0.27151842140E+02  0.27151842140E+02  0.00000000000E+00 0.  1.
         25    2    1    2    0    0  0.11793066819E+02 -0.21914923565E+02  0.23557849810E+03  0.26788882360E+03  0.12509137757E+03 0.  0.
          5    1    3    3  502    0 -0.49939313763E+02  0.17956148005E+02  0.85226357057E+02  0.10048563403E+03  0.41800000000E+01 0. -1.
         -5    1    3    3    0  502  0.61732380582E+02 -0.39871071570E+02  0.15035214104E+03  0.16740318956E+03  0.41800000000E+01 0. -1.
        -11    1    1    2    0    0  0.26131069829E+02 -0.18873036200E+02  0.34734357980E+02  0.47386706259E+02  0.00000000000E+00 0.  1.
         11    1    1    2    0    0 -0.37924136648E+02  0.40787959764E+02  0.16136601734E+03  0.17070702784E+03  0.00000000000E+00 0. -1.
</event>
<event>
 7    1  0.2728221E-009  0.1340715E+03  0.7561462E-02  0.1221536E+00
          2   -1    0    0  501    0  0.00000000000E+00  0.00000000000E+00  0.17201976438E+03  0.17201976438E+03  0.00000000000E+00 0. -1.
         -2   -1    0    0    0  501 -0.00000000000E+00 -0.00000000000E+00 -0.13866246874E+03  0.13866246874E+03  0.00000000000E+00 0.  1.
         25    2    1    2    0    0  0.14387844532E+02 -0.77887358435E+02  0.39197781404E+02  0.15314993617E+03  0.12507991928E+03 0.  0.
          5    1    3    3  502    0  0.55141491566E+02 -0.65133388898E+02  0.61037426084E+02  0.10500467715E+03  0.41800000000E+01 0.  1.
         -5    1    3    3    0  502 -0.40753647034E+02 -0.12753969537E+02 -0.21839644680E+02  0.48145259011E+02  0.41800000000E+01 0.  1.
        -11    1    1    2    0    0 -0.64135234134E+02  0.30231527429E+02 -0.39169456842E+02  0.81003208933E+02  0.00000000000E+00 0.  1.
         11    1    1    2    0    0  0.49747389602E+02  0.47655831006E+02  0.33328971074E+02  0.76529088025E+02  0.00000000000E+00 0. -1.
</event>
<event>
 7    1  0.2728221E-009  0.9841105E+02  0.7561462E-02  0.1283673E+00
         -2   -1    0    0    0  501 -0.00000000000E+00  0.00000000000E+00  0.39907733350E+02  0.39907733350E+02  0.00000000000E+00 0. -1.
          2   -1    0    0  501    0  0.00000000000E+00 -0.00000000000E+00 -0.47026187803E+03  0.47026187803E+03  0.00000000000E+00 0.  1.
         25    2    1    2    0    0 -0.27253843672E+02  0.52602535088E+02 -0.12603414193E+03  0.18719618368E+03  0.12509199639E+03 0.  0.
          5    1    3    3  502    0  0.15100932123E+02 -0.26426811443E+02 -0.81288528756E+02  0.86900585852E+02  0.41800000000E+01 0.  1.
         -5    1    3    3    0  502 -0.42354775795E+02  0.79029346531E+02 -0.44745613174E+02  0.10029559783E+03  0.41800000000E+01 0.  1.
        -11    1    1    2    0    0  0.39322317727E+02 -0.50635171940E+02 -0.30405746386E+03  0.31074283039E+03  0.00000000000E+00 0.  1.
         11    1    1    2    0    0 -0.12068474054E+02 -0.19673631483E+01 -0.26253888524E+00  0.12230597304E+02  0.00000000000E+00 0. -1.
</event>
<event>
 7    1  0.2728221E-009  0.1491615E+03  0.7561462E-02  0.1201507E+00
          2   -1    0    0  501    0  0.00000000000E+00  0.00000000000E+00  0.33982840198E+03  0.33982840198E+03  0.00000000000E+00 0. -1.
         -2   -1    0    0    0  501 -0.00000000000E+00 -0.00000000000E+00 -0.86860315967E+02  0.86860315967E+02  0.00000000000E+00 0.  1.
         25    2    1    2    0    0 -0.74365740700E+02  0.90608473250E+02  0.56303774130E+02  0.18043810768E+03  0.12509051485E+03 0.  0.
          5    1    3    3  502    0 -0.10850401339E+03  0.55495841244E+02  0.45177651893E+02  0.13004384625E+03  0.41800000000E+01 0.  1.
         -5    1    3    3    0  502  0.34138272690E+02  0.35112632006E+02  0.11126122237E+02  0.50394261426E+02  0.41800000000E+01 0.  1.
        -11    1    1    2    0    0  0.20223999422E+02 -0.63571779842E+02  0.38776271423E+02  0.77162040994E+02  0.00000000000E+00 0.  1.
         11    1    1    2    0    0  0.54141741278E+02 -0.27036693408E+02  0.15788804046E+03  0.16908856928E+03  0.00000000000E+00 0. -1.
</event>
<event>
 7    1  0.2728221E-009  0.1733824E+03  0.7561462E-02  0.1174366E+00
          2   -1    0    0  501    0  0.00000000000E+00  0.00000000000E+00  0.94815579659E+03  0.94815579659E+03  0.00000000000E+00 0. -1.
         -2   -1    0    0    0  501 -0.00000000000E+00 -0.00000000000E+00 -0.36774702579E+02  0.36774702579E+02  0.00000000000E+00 0.  1.
         25    2    1    2    0    0  0.14396246451E+03 -0.49199043554E+02  0.44419332128E+03  0.48590261183E+03  0.12509158419E+03 0.  0.
          5    1    3    3  502    0  0.15995802970E+03 -0.31877026051E+02  0.31752287065E+03  0.35698874190E+03  0.41800000000E+01 0.  1.
         -5    1    3    3    0  502 -0.15995565196E+02 -0.17322017503E+02  0.12667045064E+03  0.12891386993E+03  0.41800000000E+01 0.  1.
        -11    1    1    2    0    0 -0.68882167818E+02  0.49085427777E+02  0.34825428540E+03  0.35837854228E+03  0.00000000000E+00 0. -1.
         11    1    1    2    0    0 -0.75080296689E+02  0.11361577669E+00  0.11893348732E+03  0.14064934506E+03  0.00000000000E+00 0.  1.
</event>
<event>
 7    1  0.2728221E-009  0.2076197E+03  0.7561462E-02  0.1143465E+00
          1   -1    0    0  501    0  0.00000000000E+00  0.00000000000E+00  0.77934797538E+03  0.77934797538E+03  0.00000000000E+00 0. -1.
         -1   -1    0    0    0  501 -0.00000000000E+00 -0.00000000000E+00 -0.59458821703E+02  0.59458821703E+02  0.00000000000E+00 0.  1.
         25    2    1    2    0    0  0.18293629411E+03 -0.32276554835E+02  0.37448801218E+03  0.43634555585E+03  0.12509480064E+03 0.  0.
          5    1    3    3  502    0  0.46850495207E+02  0.45487266890E+02  0.86743680046E+02  0.10865541302E+03  0.41800000000E+01 0. -1.
         -5    1    3    3    0  502  0.13608579890E+03 -0.77763821726E+02  0.28774433213E+03  0.32769014283E+03  0.41800000000E+01 0. -1.
        -11    1    1    2    0    0 -0.11260507721E+03 -0.63293248396E+01  0.26894241315E+03  0.29163330632E+03  0.00000000000E+00 0. -1.
         11    1    1    2    0    0 -0.70331216902E+02  0.38605879675E+02  0.76458728350E+02  0.11082793491E+03  0.00000000000E+00 0.  1.
</event>
<event>
 7    1  0.2728221E-009  0.1160418E+03  0.7561462E-02  0.1249773E+00
          2   -1    0    0  501    0  0.00000000000E+00  0.00000000000E+00  0.30961096012E+03  0.30961096012E+03  0.00000000000E+00 0. -1.
         -2   -1    0    0    0  501 -0.00000000000E+00 -0.00000000000E+00 -0.78636450832E+02  0.78636450832E+02  0.00000000000E+00 0.  1.
         25    2    1    2    0    0 -0.94762370453E+01 -0.96283288494E+02  0.53548853067E+02  0.16695983537E+03  0.12509131165E+03 0.  0.
          5    1    3    3  502    0 -0.32450463382E+02 -0.89293582073E+02  0.84738494906E+02  0.12737527740E+03  0.41800000000E+01 0.  1.
         -5    1    3    3    0  502  0.22974226337E+02 -0.69897064210E+01 -0.31189641839E+02  0.39584557970E+02  0.41800000000E+01 0.  1.
        -11    1    1    2    0    0  0.31023985665E+02  0.30982133170E+02  0.17506250078E+02  0.47210687922E+02  0.00000000000E+00 0.  1.
         11    1    1    2    0    0 -0.21547748619E+02  0.65301155324E+02  0.15991940614E+03  0.17407688766E+03  0.00000000000E+00 0. -1.
</event>
<event>
 7    1  0.2728221E-009  0.9526171E+02  0.7561462E-02  0.1290588E+00
          1   -1    0    0  501    0  0.00000000000E+00  0.00000000000E+00  0.45976326608E+03  0.45976326608E+03  0.00000000000E+00 0. -1.
         -1   -1    0    0    0  501 -0.00000000000E+00 -0.00000000000E+00 -0.31175885320E+02  0.31175885320E+02  0.00000000000E+00 0.  1.
         25    2    1    2    0    0  0.28159496018E+02 -0.27381127988E+02  0.18124777699E+03  0.22369751423E+03  0.12508851996E+03 0.  0.
          5    1    3    3  502    0 -0.26697461129E+02 -0.20463540307E+02 -0.27175630173E+00  0.33897745709E+02  0.41800000000E+01 0.  1.
         -5    1    3    3    0  502  0.54856957147E+02 -0.69175876809E+01  0.18151953329E+03  0.18979976852E+03  0.41800000000E+01 0.  1.
        -11    1    1    2    0    0 -0.15931769604E+02 -0.34552406747E+02  0.95681325875E+02  0.10296895754E+03  0.00000000000E+00 0.  1.
         11    1    1    2    0    0 -0.12227726414E+02  0.61933534735E+02  0.15165827790E+03  0.16427267963E+03  0.00000000000E+00 0. -1.
</event>
<event>
 7    1  0.2728221E-009  0.1932813E+03  0.7561462E-02  0.1155535E+00
         -1   -1    0    0    0  501 -0.00000000000E+00  0.00000000000E+00  0.18923158965E+03  0.18923158965E+03  0.00000000000E+00 0.  1.
          1   -1    0    0  501    0  0.00000000000E+00 -0.00000000000E+00 -0.24900431300E+03  0.24900431300E+03  0.00000000000E+00 0. -1.
         25    2    1    2    0    0  0.17165171487E+03 -0.21649565213E+02  0.40575910219E+02  0.21731494630E+03  0.12508543681E+03 0.  0.
          5    1    3    3  502    0  0.18258558173E+03 -0.44348007894E+02  0.36514506248E+02  0.19145501306E+03  0.41800000000E+01 0.  1.
         -5    1    3    3    0  502 -0.10933866859E+02  0.22698442681E+02  0.40614039708E+01  0.25859933234E+02  0.41800000000E+01 0.  1.
        -11    1    1    2    0    0 -0.24351597647E+02  0.48253314543E+01 -0.63459913643E+02  0.68142826263E+02  0.00000000000E+00 0. -1.
         11    1    1    2    0    0 -0.14730011723E+03  0.16824233758E+02 -0.36888719932E+02  0.15277813009E+03  0.00000000000E+00 0.  1.
</event>
<event>
 7    1  0.2728221E-009  0.1044753E+03  0.7561462E-02  0.1271157E+00
          1   -1    0    0  501    0  0.00000000000E+00  0.00000000000E+00  0.55807288622E+03  0.55807288622E+03  0.00000000000E+00 0. -1.
         -1   -1    0    0    0  501 -0.00000000000E+00 -0.00000000000E+00 -0.23472685462E+02  0.23472685462E+02  0.00000000000E+00 0.  1.
         25    2    1    2    0    0  0.24680110307E+02  0.61390879530E+00  0.22366812928E+03  0.25745301540E+03  0.12508052747E+03 0.  0.
          5    1    3    3  502    0 -0.69540074874E+01  0.56361170163E+02  0.14570972626E+03  0.15644084009E+03  0.41800000000E+01 0.  1.
         -5    1    3    3    0  502  0.31634117794E+02 -0.55747261367E+02  0.77958403028E+02  0.10101217531E+03  0.41800000000E+01 0.  1.
        -11    1    1    2    0    0 -0.16414463159E+02 -0.42249827565E+02  0.11489789113E+03  0.12351521330E+03  0.00000000000E+00 0.  1.
         11    1    1    2    0    0 -0.82656471479E+01  0.41635918769E+02  0.19603418034E+03  0.20057734298E+03  0.00000000000E+00 0. -1.
</event>
<event>
 7    1  0.2728221E-009  0.9403751E+02  0.7561462E-02  0.1293359E+00
         -1   -1    0    0    0  501 -0.00000000000E+00  0.00000000000E+00  0.40398050226E+03  0.40398050226E+03  0.00000000000E+00 0.  1.
          1   -1    0    0  501    0  0.00000000000E+00 -0.00000000000E+00 -0.33662525494E+02  0.33662525494E+02  0.00000000000E+00 0. -1.
         25    2    1    2    0    0  0.15219358002E+02  0.21109018634E+02  0.27872096851E+03  0.30660920777E+03  0.12508640403E+03 0.  0.
          5    1    3    3  502    0 -0.16052050395E+02 -0.37916002135E+02  0.19541093279E+03  0.19974532934E+03  0.41800000000E+01 0.  1.
         -5    1    3    3    0  502  0.31271408397E+02  0.59025020769E+02  0.83310035727E+02  0.10686387843E+03  0.41800000000E+01 0.  1.
        -11    1    1    2    0    0  0.24206193352E+02 -0.30789127899E+02  0.79580937314E+02  0.88696312083E+02  0.00000000000E+00 0.  1.
         11    1    1    2    0    0 -0.39425551354E+02  0.96801092654E+01  0.12016070940E+02  0.42337507907E+02  0.00000000000E+00 0. -1.
</event>
<event>
 7    1  0.2728221E-009  0.2250538E+03  0.7561462E-02  0.1130170E+00
          1   -1    0    0  501    0  0.00000000000E+00  0.00000000000E+00  0.31462821187E+03  0.31462821187E+03  0.00000000000E+00 0. -1.
         -1   -1    0    0    0  501 -0.00000000000E+00 -0.00000000000E+00 -0.20589811117E+03  0.20589811117E+03  0.00000000000E+00 0.  1.
         25    2    1    2    0    0  0.19956146998E+03 -0.12198394522E+02  0.17255221031E+03  0.29222439181E+03  0.12508896336E+03 0.  0.
          5    1    3    3  502    0  0.77304031505E+02  0.53198620563E+02  0.46583954008E+02  0.10485010104E+03  0.41800000000E+01 0.  1.
         -5    1    3    3    0  502  0.12225743848E+03 -0.65397015085E+02  0.12596825630E+03  0.18737429077E+03  0.41800000000E+01 0.  1.
        -11    1    1    2    0    0 -0.20359983391E+03 -0.10594265260E+01 -0.66497819426E+02  0.21418677537E+03  0.00000000000E+00 0.  1.
         11    1    1    2    0    0  0.40383639300E+01  0.13257821048E+02  0.26757098199E+01  0.14115155869E+02  0.00000000000E+00 0. -1.
</event>
<event>
 7    1  0.2728221E-009  0.2237829E+03  0.7561462E-02  0.1131094E+00
          1   -1    0    0  501    0  0.00000000000E+00  0.00000000000E+00  0.14382022460E+03  0.14382022460E+03  0.00000000000E+00 0. -1.
         -1   -1    0    0    0  501 -0.00000000000E+00 -0.00000000000E+00 -0.49773096282E+03  0.49773096282E+03  0.00000000000E+00 0.  1.
         25    2    1    2    0    0  0.18749780629E+03 -0.11551487588E+03 -0.30869981368E+03  0.39930298905E+03  0.12509271834E+03 0.  0.
          5    1    3    3  502    0  0.95702255479E+02 -0.63358747270E+02 -0.61080533038E+02  0.13008288310E+03  0.41800000000E+01 0.  1.
         -5    1    3    3    0  502  0.91795550815E+02 -0.52156128606E+02 -0.24761928064E+03  0.26922010595E+03  0.41800000000E+01 0.  1.
        -11    1    1    2    0    0 -0.63010921064E+02  0.98643276677E+01 -0.46562406956E+02  0.78966694722E+02  0.00000000000E+00 0.  1.
         11    1    1    2    0    0 -0.12448688523E+03  0.10565054821E+03  0.13514824199E+01  0.16328150365E+03  0.00000000000E+00 0. -1.
</event>
<event>
 7    1  0.2728221E-009  0.1245674E+03  0.7561462E-02  0.1235747E+00
          1   -1    0    0  501    0  0.00000000000E+00  0.00000000000E+00  0.17119267781E+03  0.17119267781E+03  0.00000000000E+00 0. -1.
         -1   -1    0    0    0  501 -0.00000000000E+00 -0.00000000000E+00 -0.11561654363E+03  0.11561654363E+03  0.00000000000E+00 0.  1.
         25    2    1    2    0    0 -0.13598719157E+02  0.83393592719E+02  0.37317036783E+00  0.15095592627E+03  0.12509250957E+03 0.  0.
          5    1    3    3  502    0  0.41151857103E+02  0.11261439121E+02  0.33534269434E+02  0.54427152971E+02  0.41800000000E+01 0. -1.
         -5    1    3    3    0  502 -0.54750576260E+02  0.72132153599E+02 -0.33161099066E+02  0.96528773300E+02  0.41800000000E+01 0. -1.
        -11    1    1    2    0    0  0.43432925171E+02 -0.25194780336E+02  0.49002087885E+02  0.70159821566E+02  0.00000000000E+00 0. -1.
         11    1    1    2    0    0 -0.29834206014E+02 -0.58198812384E+02  0.62008759305E+01  0.65693473600E+02  0.00000000000E+00 0.  1.
</event>
<event>
 7    1  0.2728221E-009  0.1127651E+03  0.7561462E-02  0.1255533E+00
          1   -1    0    0  501    0  0.00000000000E+00  0.00000000000E+00  0.38582820083E+03  0.38582820083E+03  0.00000000000E+00 0. -1.
         -1   -1    0    0    0  501 -0.00000000000E+00 -0.00000000000E+00 -0.35844091148E+02  0.35844091148E+02  0.00000000000E+00 0.  1.
         25    2    1    2    0    0  0.36330701276E+02 -0.18274410900E+02  0.22540120606E+03  0.26097430587E+03  0.12509200887E+03 0.  0.
          5    1    3    3  502    0  0.79562686584E+02 -0.15234218243E+02  0.18312709464E+03  0.20028806178E+03  0.41800000000E+01 0. -1.
         -5    1    3    3    0  502 -0.43231985308E+02 -0.30401926575E+01  0.42274111420E+02  0.60686244087E+02  0.41800000000E+01 0. -1.
        -11    1    1    2    0    0 -0.22790351345E+02 -0.37279706842E+02  0.45215366414E+02  0.62877706833E+02  0.00000000000E+00 0.  1.
         11    1    1    2    0    0 -0.13540349931E+02  0.55554117742E+02  0.79367537210E+02  0.97820279273E+02  0.00000000000E+00 0. -1.
</event>
<event>
 7    1  0.2728221E-009  0.8928013E+02  0.7561462E-02  0.1304604E+00
         -2   -1    0    0    0  501 -0.00000000000E+00  0.00000000000E+00  0.72413067908E+02  0.72413067908E+02  0.00000000000E+00 0.  1.
          2   -1    0    0  501    0  0.00000000000E+00 -0.00000000000E+00 -0.24210351974E+03  0.24210351974E+03  0.00000000000E+00 0. -1.
         25    2    1    2    0    0 -0.36256671205E+02 -0.22782991838E+02 -0.16985152331E+03  0.21524767587E+03  0.12509360924E+03 0.  0.
          5    1    3    3  502    0 -0.50958357652E+02 -0.66764303564E+02 -0.12457711391E+03  0.15030354671E+03  0.41800000000E+01 0.  1.
         -5    1    3    3    0  502  0.14701686447E+02  0.43981311726E+02 -0.45274409400E+02  0.64944129157E+02  0.41800000000E+01 0.  1.
        -11    1    1    2    0    0  0.63122392407E+01  0.16003157880E+02 -0.42993265810E+02  0.46307303219E+02  0.00000000000E+00 0. -1.
         11    1    1    2    0    0  0.29944431964E+02  0.67798339580E+01  0.43154337288E+02  0.52961608557E+02  0.00000000000E+00 0.  1.
</event>
<event>
 7    1  0.2728221E-009  0.1111769E+03  0.7561462E-02  0.1258406E+00
          1   -1    0    0  501    0  0.00000000000E+00  0.00000000000E+00  0.30123960351E+03  0.30123960351E+03  0.00000000000E+00 0. -1.
         -1   -1    0    0    0  501 -0.00000000000E+00 -0.00000000000E+00 -0.91406529171E+02  0.91406529171E+02  0.00000000000E+00 0.  1.
         25    2    1    2    0    0  0.45366385301E+02 -0.15466746288E+01 -0.26696600301E+02  0.13572307069E+03  0.12509013683E+03 0.  0.
          5    1    3    3  502    0 -0.26704442774E+02 -0.42065419437E+02 -0.14369255842E+02  0.52024750742E+02  0.41800000000E+01 0. -1.
         -5    1    3    3    0  502  0.72070828075E+02  0.40518744808E+02 -0.12327344459E+02  0.83698319945E+02  0.41800000000E+01 0. -1.
        -11    1    1    2    0    0 -0.13988044956E+02 -0.37179849698E+02  0.16516954641E+03  0.16987932684E+03  0.00000000000E+00 0. -1.
         11    1    1    2    0    0 -0.31378340344E+02  0.38726524327E+02  0.71360128231E+02  0.87043735158E+02  0.00000000000E+00 0.  1.
</event>
<event>
 7    1  0.2728221E-009  0.9834842E+02  0.7561462E-02  0.1283808E+00
         -2   -1    0    0    0  501 -0.00000000000E+00  0.00000000000E+00  0.87207926045E+02  0.87207926045E+02  0.00000000000E+00 0.  1.
          2   -1    0    0  501    0  0.00000000000E+00 -0.00000000000E+00 -0.18312624482E+03  0.18312624482E+03  0.00000000000E+00 0. -1.
         25    2    1    2    0    0  0.27745936182E+01 -0.64013066103E+02 -0.70081456166E+02  0.15704860537E+03  0.12508989947E+03 0.  0.
          5    1    3    3  502    0 -0.99797803602E+01 -0.71020328790E+02  0.12648297562E+02  0.72944739006E+02  0.41800000000E+01 0. -1.
         -5    1    3    3    0  502  0.12754373978E+02  0.70072626873E+01 -0.82729753728E+02  0.84103866367E+02  0.41800000000E+01 0. -1.
        -11    1    1    2    0    0 -0.30913139485E+02  0.73728982221E+02 -0.13581247172E+02  0.81092757303E+02  0.00000000000E+00 0.  1.
         11    1    1    2    0    0  0.28138545867E+02 -0.97159161189E+01 -0.12255615439E+02  0.32192808193E+02  0.00000000000E+00 0. -1.
</event>
<event>
 7    1  0.2728221E-009  0.1248903E+03  0.7561462E-02  0.1235241E+00
          1   -1    0    0  501    0  0.00000000000E+00  0.00000000000E+00  0.92416102344E+02  0.92416102344E+02  0.00000000000E+00 0. -1.
         -1   -1    0    0    0  501 -0.00000000000E+00 -0.00000000000E+00 -0.41177422667E+03  0.41177422667E+03  0.00000000000E+00 0.  1.
         25    2    1    2    0    0  0.81869955798E+02 -0.67464722695E+01  0.12607735478E+02  0.15017938317E+03  0.12508672026E+03 0.  0.
          5    1    3    3  502    0  0.82459445080E+02 -0.41770590087E+02  0.44453132077E+02  0.10265425286E+03  0.41800000000E+01 0.  1.
         -5    1    3    3    0  502 -0.58948928235E+00  0.35024117817E+02 -0.31845396599E+02  0.47525130311E+02  0.41800000000E+01 0.  1.
        -11    1    1    2    0    0 -0.93336158076E+02 -0.17673802442E+02 -0.27581200578E+03  0.29171263982E+03  0.00000000000E+00 0. -1.
         11    1    1    2    0    0  0.11466202278E+02  0.24420274711E+02 -0.56153854030E+02  0.62298306029E+02  0.00000000000E+00 0.  1.
</event>
<event>
 7    1  0.2728221E-009  0.1080427E+03  0.7561462E-02  0.1264238E+00
         -1   -1    0    0    0  501 -0.00000000000E+00  0.00000000000E+00  0.19446346424E+03  0.19446346424E+03  0.00000000000E+00 0.  1.
          1   -1    0    0  501    0  0.00000000000E+00 -0.00000000000E+00 -0.89057361382E+02  0.89057361382E+02  0.00000000000E+00 0. -1.
         25    2    1    2    0    0  0.51595295361E+02  0.30968520575E+02  0.12713040177E+02  0.13938902420E+03  0.12508618991E+03 0.  0.
          5    1    3    3  502    0 -0.35421711340E+02 -0.60594128081E+01 -0.17276760509E+02  0.40092056215E+02  0.41800000000E+01 0. -1.
         -5    1    3    3    0  502  0.87017006702E+02  0.37027933383E+02  0.29989800686E+02  0.99296967986E+02  0.41800000000E+01 0. -1.
        -11    1    1    2    0    0 -0.28933278912E+02 -0.48581975082E+02  0.11082065753E+02  0.57620787159E+02  0.00000000000E+00 0. -1.
         11    1    1    2    0    0 -0.22662016449E+02  0.17613454507E+02  0.81610996926E+02  0.86511014261E+02  0.00000000000E+00 0.  1.
</event>
<event>
 7    1  0.2728221E-009  0.1431364E+03  0.7561462E-02  0.1209170E+00
         -1   -1    0    0    0  501 -0.00000000000E+00  0.00000000000E+00  0.33133219929E+03  0.33133219929E+03  0.00000000000E+00 0.  1.
          1   -1    0    0  501    0  0.00000000000E+00 -0.00000000000E+00 -0.79805626738E+02  0.79805626738E+02  0.00000000000E+00 0. -1.
         25    2    1    2    0    0 -0.10185213637E+03  0.63169899629E+02  0.12389884314E+03  0.21298584966E+03  0.12509098657E+03 0.  0.
          5    1    3    3  502    0 -0.11476331682E+03  0.80886260732E+02  0.12829812301E+03  0.19023955118E+03  0.41800000000E+01 0.  1.
         -5    1    3    3    0  502  0.12911180451E+02 -0.17716361103E+02 -0.43992798731E+01  0.22746298485E+02  0.41800000000E+01 0.  1.
        -11    1    1    2    0    0  0.10910952246E+02 -0.20088961319E+02  0.86453354464E+02  0.89424816152E+02  0.00000000000E+00 0.  1.
         11    1    1    2    0    0  0.90941184127E+02 -0.43080938311E+02  0.41174374952E+02  0.10872716022E+03  0.00000000000E+00 0. -1.
</event>
<event>
 7    1  0.2728221E-009  0.1107546E+03  0.7561462E-02  0.1259179E+00
          1   -1    0    0  501    0  0.00000000000E+00  0.00000000000E+00  0.76341659247E+02  0.76341659247E+02  0.00000000000E+00 0. -1.
         -1   -1    0    0    0  501 -0.00000000000E+00 -0.00000000000E+00 -0.18067948059E+03  0.18067948059E+03  0.00000000000E+00 0.  1.
         25    2    1    2    0    0 -0.40715080852E+02 -0.37644750095E+02 -0.61092651524E+02  0.14985179826E+03  0.12509358238E+03 0.  0.
          5    1    3    3  502    0 -0.23575287626E+02 -0.81763615851E+02 -0.21162312612E+02  0.87786097640E+02  0.41800000000E+01 0.  1.
         -5    1    3    3    0  502 -0.17139793226E+02  0.44118865757E+02 -0.39930338912E+02  0.62065700617E+02  0.41800000000E+01 0.  1.
        -11    1    1    2    0    0 -0.19808136813E+02  0.74858239701E+01 -0.32367504775E+02  0.38678872913E+02  0.00000000000E+00 0.  1.
         11    1    1    2    0    0  0.60523217665E+02  0.30158926124E+02 -0.10877665045E+02  0.68490468667E+02  0.00000000000E+00 0. -1.
</event>
<event>
 7    1  0.2728221E-009  0.1010339E+03  0.7561462E-02  0.1278137E+00
          1   -1    0    0  501    0  0.00000000000E+00  0.00000000000E+00  0.13420971811E+03  0.13420971811E+03  0.00000000000E+00 0. -1.
         -1   -1    0    0    0  501 -0.00000000000E+00 -0.00000000000E+00 -0.11941679198E+03  0.11941679198E+03  0.00000000000E+00 0.  1.
         25    2    1    2    0    0  0.35533461349E+02 -0.14839871702E+02 -0.42816855547E+02  0.13774695000E+03  0.12513229179E+03 0.  0.
          5    1    3    3  502    0  0.43259262983E+02  0.47440456694E+02 -0.37869134400E+02  0.74655907370E+02  0.41800000000E+01 0.  1.
         -5    1    3    3    0  502 -0.77258016333E+01 -0.62280328396E+02 -0.49477211471E+01  0.63091042633E+02  0.41800000000E+01 0.  1.
        -11    1    1    2    0    0  0.13721636247E+02 -0.12445450165E+02 -0.15111767731E+02  0.23906862091E+02  0.00000000000E+00 0.  1.
         11    1    1    2    0    0 -0.49255097596E+02  0.27285321867E+02  0.72721549410E+02  0.91972697999E+02  0.00000000000E+00 0. -1.
</event>
<event>
 7    1  0.2728221E-009  0.1238777E+03  0.7561462E-02  0.1236834E+00
         -1   -1    0    0    0  501 -0.00000000000E+00  0.00000000000E+00  0.13553524159E+03  0.13553524159E+03  0.00000000000E+00 0.  1.
          1   -1    0    0  501    0  0.00000000000E+00 -0.00000000000E+00 -0.16842784879E+03  0.16842784879E+03  0.00000000000E+00 0. -1.
         25    2    1    2    0    0 -0.72943437129E+02 -0.38315800806E+02  0.20575336299E+02  0.15119525569E+03  0.12509122778E+03 0.  0.
          5    1    3    3  502    0 -0.42588754058E+02 -0.61415150341E+02  0.60183459475E+02  0.96047612453E+02  0.41800000000E+01 0.  1.
         -5    1    3    3    0  502 -0.30354683072E+02  0.23099349535E+02 -0.39608123176E+02  0.55147643239E+02  0.41800000000E+01 0.  1.
        -11    1    1    2    0    0 -0.27377348367E+02  0.69521790269E+00  0.88983840354E+01  0.28795551218E+02  0.00000000000E+00 0.  1.
         11    1    1    2    0    0  0.10032078550E+03  0.37620582903E+02 -0.62366327535E+02  0.12397228348E+03  0.00000000000E+00 0. -1.
</event>
<event>
 7    1  0.2728221E-009  0.1048300E+03  0.7561462E-02  0.1270455E+00
          1   -1    0    0  501    0  0.00000000000E+00  0.00000000000E+00  0.95076342715E+03  0.95076342715E+03  0.00000000000E+00 0. -1.
         -1   -1    0    0    0  501 -0.00000000000E+00 -0.00000000000E+00 -0.13034299911E+02  0.13034299911E+02  0.00000000000E+00 0.  1.
         25    2    1    2    0    0 -0.19945038261E+02  0.93581079383E+01  0.54126319111E+03  0.55596770582E+03  0.12509544007E+03 0.  0.
          5    1    3    3  502    0 -0.51834576266E+02  0.43416065843E+02  0.19249230031E+03  0.20406502922E+03  0.41800000000E+01 0.  1.
         -5    1    3    3    0  502  0.31889538006E+02 -0.34057957905E+02  0.34877089080E+03  0.35190267660E+03  0.41800000000E+01 0.  1.
        -11    1    1    2    0    0 -0.14192161950E+02  0.35772380716E+02  0.18199655472E+03  0.18602103809E+03  0.00000000000E+00 0. -1.
         11    1    1    2    0    0  0.34137200211E+02 -0.45130488654E+02  0.21446938141E+03  0.22180898315E+03  0.00000000000E+00 0.  1.
</event>
<event>
 7    1  0.2728221E-009  0.1508479E+03  0.7561462E-02  0.1199435E+00
          2   -1    0    0  501    0  0.00000000000E+00  0.00000000000E+00  0.12541839171E+03  0.12541839171E+03  0.00000000000E+00 0.  1.
         -2   -1    0    0    0  501 -0.00000000000E+00 -0.00000000000E+00 -0.24687431988E+03  0.24687431988E+03  0.00000000000E+00 0. -1.
         25    2    1    2    0    0  0.12792414354E+03 -0.48840814850E+02 -0.72877741281E+02  0.19926907087E+03  0.12508791203E+03 0.  0.
          5    1    3    3  502    0  0.11257129556E+03 -0.49671053759E+02 -0.10603510806E+03  0.16248208119E+03  0.41800000000E+01 0. -1.
         -5    1    3    3    0  502  0.15352847978E+02  0.83023890943E+00  0.33157366783E+02  0.36786989679E+02  0.41800000000E+01 0. -1.
        -11    1    1    2    0    0 -0.75798720683E+02 -0.17979552851E+02 -0.58676857274E+01  0.78122596691E+02  0.00000000000E+00 0. -1.
         11    1    1    2    0    0 -0.52125422856E+02  0.66820367701E+02 -0.42710501165E+02  0.94901044027E+02  0.00000000000E+00 0.  1.
</event>
<event>
 7    1  0.2728221E-009  0.1596626E+03  0.7561462E-02  0.1189078E+00
          2   -1    0    0  501    0  0.00000000000E+00  0.00000000000E+00  0.16130770453E+04  0.16130770453E+04  0.00000000000E+00 0. -1.
         -2   -1    0    0    0  501 -0.00000000000E+00 -0.00000000000E+00 -0.18586754211E+02  0.18586754211E+02  0.00000000000E+00 0.  1.
         25    2    1    2    0    0  0.75155027704E+02  0.10961127208E+03  0.74533023681E+03  0.76735063177E+03  0.12508765333E+03 0.  0.
          5    1    3    3  502    0  0.64260496045E+01  0.84771441614E+02  0.58425956396E+03  0.59042713514E+03  0.41800000000E+01 0.  1.
         -5    1    3    3    0  502  0.68728978099E+02  0.24839830468E+02  0.16107067285E+03  0.17692349663E+03  0.41800000000E+01 0.  1.
        -11    1    1    2    0    0  0.12704281829E+02  0.73856726443E+01  0.68167042056E+02  0.69733009112E+02  0.00000000000E+00 0.  1.
         11    1    1    2    0    0 -0.87859309532E+02 -0.11699694473E+03  0.78099301225E+03  0.79458015865E+03  0.00000000000E+00 0. -1.
</event>
<event>
 7    1  0.2728221E-009  0.2056119E+03  0.7561462E-02  0.1145089E+00
         -2   -1    0    0    0  501 -0.00000000000E+00  0.00000000000E+00  0.27295816759E+02  0.27295816759E+02  0.00000000000E+00 0.  1.
          2   -1    0    0  501    0  0.00000000000E+00 -0.00000000000E+00 -0.18544216947E+04  0.18544216947E+04  0.00000000000E+00 0. -1.
         25    2    1    2    0    0 -0.11474878846E+03  0.15965361362E+03 -0.97618538666E+03  0.10036142000E+04  0.12508793928E+03 0.  0.
          5    1    3    3  502    0 -0.10074463706E+02  0.32903130669E+02 -0.39280614464E+02  0.52388451967E+02  0.41800000000E+01 0. -1.
         -5    1    3    3    0  502 -0.10467432475E+03  0.12675048295E+03 -0.93690477220E+03  0.95122574805E+03  0.41800000000E+01 0. -1.
        -11    1    1    2    0    0  0.89749046856E+02 -0.16380434026E+03 -0.79568692488E+03  0.81731538327E+03  0.00000000000E+00 0. -1.
         11    1    1    2    0    0  0.24999741601E+02  0.41507266458E+01 -0.55253566399E+02  0.60787928174E+02  0.00000000000E+00 0.  1.
</event>
<event>
 7    1  0.2728221E-009  0.1142699E+03  0.7561462E-02  0.1252861E+00
          1   -1    0    0  501    0  0.00000000000E+00  0.00000000000E+00  0.19182003921E+03  0.19182003921E+03  0.00000000000E+00 0. -1.
         -1   -1    0    0    0  501 -0.00000000000E+00 -0.00000000000E+00 -0.14847151727E+03  0.14847151727E+03  0.00000000000E+00 0.  1.
         25    2    1    2    0    0 -0.50902228918E+01  0.11104937370E+03  0.87258653883E+02  0.18873249996E+03  0.12509200652E+03 0.  0.
          5    1    3    3  502    0 -0.85783939792E+01  0.95028538592E+02  0.11910632748E+03  0.15266892819E+03  0.41800000000E+01 0. -1.
         -5    1    3    3    0  502  0.34881710873E+01  0.16020835110E+02 -0.31847673597E+02  0.36063571768E+02  0.41800000000E+01 0. -1.
        -11    1    1    2    0    0 -0.14410810941E+02 -0.46465125577E+02  0.25362663585E+02  0.54862957184E+02  0.00000000000E+00 0. -1.
         11    1    1    2    0    0  0.19501033833E+02 -0.64584248125E+02 -0.69272795528E+02  0.96696099336E+02  0.00000000000E+00 0.  1.
</event>
<event>
 7    1  0.2728221E-009  0.1402843E+03  0.7561462E-02  0.1212947E+00
          2   -1    0    0  501    0  0.00000000000E+00  0.00000000000E+00  0.22172695067E+03  0.22172695067E+03  0.00000000000E+00 0. -1.
         -2   -1    0    0    0  501 -0.00000000000E+00 -0.00000000000E+00 -0.94421927274E+02  0.94421927274E+02  0.00000000000E+00 0.  1.
         25    2    1    2    0    0 -0.68409974142E+01 -0.93660619938E+02  0.87510991855E+02  0.17923307125E+03  0.12508880509E+03 0.  0.
          5    1    3    3  502    0 -0.61925829132E+02 -0.60900095644E+02  0.27151774943E+02  0.91095121964E+02  0.41800000000E+01 0.  1.
         -5    1    3    3    0  502  0.55084831718E+02 -0.32760524294E+02  0.60359216911E+02  0.88137949281E+02  0.41800000000E+01 0.  1.
        -11    1    1    2    0    0 -0.16306982121E+02 -0.12616946576E+02 -0.12603499798E+01  0.20656560432E+02  0.00000000000E+00 0.  1.
         11    1    1    2    0    0  0.23147979535E+02  0.10627756651E+03  0.41054381523E+02  0.11625924627E+03  0.00000000000E+00 0. -1.
</event>
<event>
 7    1  0.2728221E-009  0.1205045E+03  0.7561462E-02  0.1242267E+00
          1   -1    0    0  501    0  0.00000000000E+00  0.00000000000E+00  0.28363950746E+03  0.28363950746E+03  0.00000000000E+00 0. -1.
         -1   -1    0    0    0  501 -0.00000000000E+00 -0.00000000000E+00 -0.71475945244E+02  0.71475945244E+02  0.00000000000E+00 0.  1.
         25    2    1    2    0    0  0.74482271639E+02 -0.48680849894E+02  0.80392919637E+02  0.17328547464E+03  0.12508956895E+03 0.  0.
          5    1    3    3  502    0 -0.28075120026E+02  0.12187467459E+02  0.32104332220E+02  0.44552298199E+02  0.41800000000E+01 0. -1.
         -5    1    3    3    0  502  0.10255739167E+03 -0.60868317353E+02  0.48288587417E+02  0.12873317644E+03  0.41800000000E+01 0. -1.
        -11    1    1    2    0    0 -0.40926889651E+02  0.37237886277E+02  0.11595292784E+02  0.56534248785E+02  0.00000000000E+00 0.  1.
         11    1    1    2    0    0 -0.33555381988E+02  0.11442963616E+02  0.12017534980E+03  0.12529572928E+03  0.00000000000E+00 0. -1.
</event>
<event>
 7    1  0.2728221E-009  0.1345943E+03  0.7561462E-02  0.1220794E+00
         -2   -1    0    0    0  501 -0.00000000000E+00  0.00000000000E+00  0.41694506099E+02  0.41694506099E+02  0.00000000000E+00 0. -1.
          2   -1    0    0  501    0  0.00000000000E+00 -0.00000000000E+00 -0.56107138113E+03  0.56107138113E+03  0.00000000000E+00 0.  1.
         25    2    1    2    0    0  0.95322865869E+02 -0.48545197149E+02 -0.29349979043E+03  0.33650231323E+03  0.12509434401E+03 0.  0.
          5    1    3    3  502    0  0.80167588949E+02  0.14337152808E+02 -0.23658022903E+03  0.25024003165E+03  0.41800000000E+01 0.  1.
         -5    1    3    3    0  502  0.15155276920E+02 -0.62882349957E+02 -0.56919561401E+02  0.86262281587E+02  0.41800000000E+01 0.  1.
        -11    1    1    2    0    0  0.14142809952E+01  0.22632344897E+02 -0.11347504641E+03  0.11571866481E+03  0.00000000000E+00 0.  1.
         11    1    1    2    0    0 -0.96737146864E+02  0.25912852252E+02 -0.11240203818E+03  0.15054490919E+03  0.00000000000E+00 0. -1.
</event>
<event>
 7    1  0.3073554E-009  0.8856659E+02  0.7561462E-02  0.1306360E+00
         -2   -1    0    0    0  501 -0.00000000000E+00  0.00000000000E+00  0.91586265582E+02  0.91586265582E+02  0.00000000000E+00 0.  1.
          2   -1    0    0  501    0  0.00000000000E+00 -0.00000000000E+00 -0.18640842936E+03  0.18640842936E+03  0.00000000000E+00 0. -1.
         25    2    1    2    0    0 -0.52315271105E+02  0.15499374956E+02 -0.10337663442E+03  0.17120503552E+03  0.12508923786E+03 0.  0.
          5    1    3    3  502    0  0.10368860461E+02  0.18459368025E+02 -0.10608095564E+03  0.10825388254E+03  0.41800000000E+01 0. -1.
         -5    1    3    3    0  502 -0.62684131565E+02 -0.29599930687E+01  0.27043212155E+01  0.62951152986E+02  0.41800000000E+01 0. -1.
        -11    1    1    2    0    0 -0.44641548365E+01  0.23407051918E+02  0.26520460457E+02  0.35653240816E+02  0.00000000000E+00 0.  1.
         11    1    1    2    0    0  0.56779425941E+02 -0.38906426874E+02 -0.17965989817E+02  0.71136418608E+02  0.00000000000E+00 0. -1.
</event>
<event>
 7    1  0.2728221E-009  0.8877105E+02  0.7561462E-02  0.1305855E+00
         -1   -1    0    0    0  501 -0.00000000000E+00  0.00000000000E+00  0.48135669909E+02  0.48135669909E+02  0.00000000000E+00 0.  1.
          1   -1    0    0  501    0  0.00000000000E+00 -0.00000000000E+00 -0.38793699619E+03  0.38793699619E+03  0.00000000000E+00 0. -1.
         25    2    1    2    0    0  0.79811210888E+02 -0.26333402968E+02 -0.20095945402E+03  0.25118862898E+03  0.12509095761E+03 0.  0.
          5    1    3    3  502    0  0.65051796356E+02 -0.42804573996E+01 -0.21223011105E+03  0.22205663908E+03  0.41800000000E+01 0.  1.
         -5    1    3    3    0  502  0.14759414532E+02 -0.22052945569E+02  0.11270657030E+02  0.29131989899E+02  0.41800000000E+01 0.  1.
        -11    1    1    2    0    0 -0.63251888944E+02  0.14207296056E+02 -0.25441659722E+02  0.69641415592E+02  0.00000000000E+00 0.  1.
         11    1    1    2    0    0 -0.16559321944E+02  0.12126106912E+02 -0.11340021254E+03  0.11524262153E+03  0.00000000000E+00 0. -1.
</event>
<event>
 7    1  0.2728221E-009  0.5061140E+02  0.7561462E-02  0.1442071E+00
         -1   -1    0    0    0  501 -0.00000000000E+00  0.00000000000E+00  0.92096436412E+02  0.92096436412E+02  0.00000000000E+00 0.  1.
          1   -1    0    0  501    0  0.00000000000E+00 -0.00000000000E+00 -0.13084695646E+03  0.13084695646E+03  0.00000000000E+00 0. -1.
         25    2    1    2    0    0 -0.38449720328E+01 -0.10608295043E+02 -0.17084791309E+02  0.12675247364E+03  0.12508788808E+03 0.  0.
          5    1    3    3  502    0 -0.18657585243E+02  0.16652101057E+02  0.48137299704E+02  0.54406525155E+02  0.41800000000E+01 0. -1.
         -5    1    3    3    0  502  0.14812613211E+02 -0.27260396099E+02 -0.65222091013E+02  0.72345948482E+02  0.41800000000E+01 0. -1.
        -11    1    1    2    0    0  0.96733867782E+01  0.26193875637E+02  0.30549772527E+02  0.41388188341E+02  0.00000000000E+00 0.  1.
         11    1    1    2    0    0 -0.58284147454E+01 -0.15585580595E+02 -0.52215501271E+02  0.54802730899E+02  0.00000000000E+00 0. -1.
</event>
<event>
 7    1  0.2728221E-009  0.1289326E+03  0.7561462E-02  0.1229048E+00
          3   -1    0    0  501    0  0.00000000000E+00  0.00000000000E+00  0.18922683984E+03  0.18922683984E+03  0.00000000000E+00 0. -1.
         -3   -1    0    0    0  501 -0.00000000000E+00 -0.00000000000E+00 -0.11525494705E+03  0.11525494705E+03  0.00000000000E+00 0.  1.
         25    2    1    2    0    0  0.66320297261E+02 -0.73225477638E+02  0.45265465121E+02  0.16570834305E+03  0.12509972110E+03 0.  0.
          5    1    3    3  502    0 -0.79411869430E+01 -0.51052548844E+02  0.67374435541E+02  0.85007130042E+02  0.41800000000E+01 0. -1.
         -5    1    3    3    0  502  0.74261484204E+02 -0.22172928795E+02 -0.22108970420E+02  0.80701213006E+02  0.41800000000E+01 0. -1.
        -11    1    1    2    0    0 -0.12126623170E+02 -0.18356860792E+02  0.23557592179E+02  0.32233359690E+02  0.00000000000E+00 0. -1.
         11    1    1    2    0    0 -0.54193674091E+02  0.91582338431E+02  0.51488354899E+01  0.10654008415E+03  0.00000000000E+00 0.  1.
</event>
<event>
 7    1  0.2728221E-009  0.1057768E+03  0.7561462E-02  0.1268597E+00
          1   -1    0    0  501    0  0.00000000000E+00  0.00000000000E+00  0.58602050426E+03  0.58602050426E+03  0.00000000000E+00 0. -1.
         -1   -1    0    0    0  501 -0.00000000000E+00 -0.00000000000E+00 -0.29162104801E+02  0.29162104801E+02  0.00000000000E+00 0.  1.
         25    2    1    2    0    0  0.54819779925E+02 -0.45568317957E+02  0.34247699462E+03  0.37151066131E+03  0.12509196518E+03 0.  0.
          5    1    3    3  502    0 -0.13488152806E+02 -0.15998757838E+02  0.25784293519E+03  0.25872445216E+03  0.41800000000E+01 0.  1.
         -5    1    3    3    0  502  0.68307932731E+02 -0.29569560119E+02  0.84634059429E+02  0.11278620915E+03  0.41800000000E+01 0.  1.
        -11    1    1    2    0    0 -0.10902781431E+02 -0.27964348213E+02  0.61508822245E+02  0.68441293295E+02  0.00000000000E+00 0.  1.
         11    1    1    2    0    0 -0.43916998494E+02  0.73532666170E+02  0.15287258259E+03  0.17523065445E+03  0.00000000000E+00 0. -1.
</event>
<event>
 7    1  0.2728221E-009  0.1324521E+03  0.7561462E-02  0.1223862E+00
          4   -1    0    0  501    0  0.00000000000E+00  0.00000000000E+00  0.11347578366E+03  0.11347578366E+03  0.00000000000E+00 0. -1.
         -4   -1    0    0    0  501 -0.00000000000E+00 -0.00000000000E+00 -0.18359857918E+03  0.18359857918E+03  0.00000000000E+00 0.  1.
         25    2    1    2    0    0  0.63679447726E+02 -0.65860863646E+02 -0.60569759057E+02  0.16646540087E+03  0.12509719641E+03 0.  0.
          5    1    3    3  502    0  0.92558158260E+02 -0.15110597889E+02 -0.22185171633E+02  0.96462412728E+02  0.41800000000E+01 0.  1.
         -5    1    3    3    0  502 -0.28878710533E+02 -0.50750265757E+02 -0.38384587424E+02  0.70002988138E+02  0.41800000000E+01 0.  1.
        -11    1    1    2    0    0  0.11781439865E+02 -0.78682091554E+00 -0.26037162604E+02  0.28589425473E+02  0.00000000000E+00 0.  1.
         11    1    1    2    0    0 -0.75460887591E+02  0.66647684561E+02  0.16484126134E+02  0.10201953650E+03  0.00000000000E+00 0. -1.
</event>
<event>
 7    1  0.2728221E-009  0.1138029E+03  0.7561462E-02  0.1253685E+00
          1   -1    0    0  501    0  0.00000000000E+00  0.00000000000E+00  0.58934667592E+02  0.58934667592E+02  0.00000000000E+00 0. -1.
         -1   -1    0    0    0  501 -0.00000000000E+00 -0.00000000000E+00 -0.22974033331E+03  0.22974033331E+03  0.00000000000E+00 0.  1.
         25    2    1    2    0    0 -0.44106101764E+01 -0.32176071925E+02 -0.67482087393E+02  0.14579361269E+03  0.12508873769E+03 0.  0.
          5    1    3    3  502    0  0.57123833296E+02 -0.35097398176E+02 -0.30065201462E+02  0.73595845183E+02  0.41800000000E+01 0. -1.
         -5    1    3    3    0  502 -0.61534443473E+02  0.29213262510E+01 -0.37416885931E+02  0.72197767510E+02  0.41800000000E+01 0. -1.
        -11    1    1    2    0    0 -0.27688348158E+02  0.53436890468E+02 -0.62539061019E+02  0.86794470099E+02  0.00000000000E+00 0.  1.
         11    1    1    2    0    0  0.32098958335E+02 -0.21260818543E+02 -0.40784517302E+02  0.56086918108E+02  0.00000000000E+00 0. -1.
</event>
<event>
 7    1  0.2728221E-009  0.8142693E+02  0.7561462E-02  0.1325050E+00
         -1   -1    0    0    0  501 -0.00000000000E+00  0.00000000000E+00  0.83294414318E+02  0.83294414318E+02  0.00000000000E+00 0.  1.
          1   -1    0    0  501    0  0.00000000000E+00 -0.00000000000E+00 -0.27008027761E+03  0.27008027761E+03  0.00000000000E+00 0. -1.
         25    2    1    2    0    0 -0.37340520813E+02  0.34656965559E+02  0.41385860068E+01  0.13512944760E+03  0.12508964768E+03 0.  0.
          5    1    3    3  502    0 -0.45533992741E+02  0.31685743394E+02  0.58023959369E+02  0.80383972844E+02  0.41800000000E+01 0.  1.
         -5    1    3    3    0  502  0.81934719282E+01  0.29712221652E+01 -0.53885373362E+02  0.54745474752E+02  0.41800000000E+01 0.  1.
        -11    1    1    2    0    0  0.18295205967E+02 -0.61770404389E+02 -0.81343404884E+02  0.10376438184E+03  0.00000000000E+00 0.  1.
         11    1    1    2    0    0  0.19045314846E+02  0.27113438830E+02 -0.10958104441E+03  0.11448086249E+03  0.00000000000E+00 0. -1.
</event>
<event>
 7    1  0.2728221E-009  0.1374595E+03  0.7561462E-02  0.1216789E+00
          2   -1    0    0  501    0  0.00000000000E+00  0.00000000000E+00  0.10184917227E+04  0.10184917227E+04  0.00000000000E+00 0. -1.
         -2   -1    0    0    0  501 -0.00000000000E+00 -0.00000000000E+00 -0.28305215064E+02  0.28305215064E+02  0.00000000000E+00 0.  1.
         25    2    1    2    0    0  0.61453829590E+02 -0.96373185298E+02  0.71399681679E+03  0.73382849124E+03  0.12509370950E+03 0.  0.
          5    1    3    3  502    0  0.87777103763E+02 -0.55797623278E+02  0.31190526172E+03  0.32881690862E+03  0.41800000000E+01 0. -1.
         -5    1    3    3    0  502 -0.26323274173E+02 -0.40575562021E+02  0.40209155507E+03  0.40501158262E+03  0.41800000000E+01 0. -1.
        -11    1    1    2    0    0 -0.28553430294E+02  0.10678834433E+02  0.11111698904E+02  0.32446968101E+02  0.00000000000E+00 0.  1.
         11    1    1    2    0    0 -0.32900399296E+02  0.85694350865E+02  0.26507799196E+03  0.28052147844E+03  0.00000000000E+00 0. -1.
</event>
<event>
 7    1  0.2728221E-009  0.2637124E+03  0.7561462E-02  0.1104933E+00
         -1   -1    0    0    0  501 -0.00000000000E+00  0.00000000000E+00  0.41837462265E+03  0.41837462265E+03  0.00000000000E+00 0.  1.
          1   -1    0    0  501    0  0.00000000000E+00 -0.00000000000E+00 -0.16773161338E+03  0.16773161338E+03  0.00000000000E+00 0. -1.
         25    2    1    2    0    0 -0.11169507034E+02  0.24123629713E+03  0.13693790386E+03  0.30450588314E+03  0.12510849057E+03 0.  0.
          5    1    3    3  502    0 -0.66404812644E+02  0.15201473497E+03  0.96590949087E+02  0.19200354849E+03  0.41800000000E+01 0. -1.
         -5    1    3    3    0  502  0.55235305610E+02  0.89221562166E+02  0.40346954778E+02  0.11250233465E+03  0.41800000000E+01 0. -1.
        -11    1    1    2    0    0 -0.10359579826E+02 -0.23328876439E+03  0.11078794240E+03  0.25846650976E+03  0.00000000000E+00 0.  1.
         11    1    1    2    0    0  0.21529086860E+02 -0.79475327376E+01  0.29171630037E+01  0.23133843123E+02  0.00000000000E+00 0. -1.
</event>
<event>
 7    1  0.2728221E-009  0.9717733E+02  0.7561462E-02  0.1286346E+00
         -1   -1    0    0    0  501 -0.00000000000E+00  0.00000000000E+00  0.23869565448E+03  0.23869565448E+03  0.00000000000E+00 0.  1.
          1   -1    0    0  501    0  0.00000000000E+00 -0.00000000000E+00 -0.56462930592E+02  0.56462930592E+02  0.00000000000E+00 0. -1.
         25    2    1    2    0    0  0.30126319306E+01  0.31733736329E+02  0.13637619188E+03  0.18778264830E+03  0.12509097217E+03 0.  0.
          5    1    3    3  502    0 -0.56516979007E+02 -0.21487787168E+01  0.39701159730E+02  0.69227455897E+02  0.41800000000E+01 0. -1.
         -5    1    3    3    0  502  0.59529610938E+02  0.33882515046E+02  0.96675032149E+02  0.11855519240E+03  0.41800000000E+01 0. -1.
        -11    1    1    2    0    0 -0.21658291789E+02 -0.42346740389E+02 -0.90583602620E+01  0.48418817782E+02  0.00000000000E+00 0. -1.
         11    1    1    2    0    0  0.18645659858E+02  0.10613004060E+02  0.54914892272E+02  0.58957118994E+02  0.00000000000E+00 0.  1.
</event>
<event>
 7    1  0.2728221E-009  0.5110776E+02  0.7561462E-02  0.1439457E+00
         -3   -1    0    0    0  501 -0.00000000000E+00  0.00000000000E+00  0.54097195004E+02  0.54097195004E+02  0.00000000000E+00 0.  1.
          3   -1    0    0  501    0  0.00000000000E+00 -0.00000000000E+00 -0.54644444346E+03  0.54644444346E+03  0.00000000000E+00 0. -1.
         25    2    1    2    0    0  0.61454292372E+01 -0.35782353396E+02 -0.49397321280E+03  0.51086919064E+03  0.12513853068E+03 0.  0.
          5    1    3    3  502    0  0.27887043862E+02 -0.32568653299E+02 -0.48476662538E+03  0.48667705706E+03  0.41800000000E+01 0.  1.
         -5    1    3    3    0  502 -0.21741614625E+02 -0.32137000976E+01 -0.92065874240E+01  0.24192133573E+02  0.41800000000E+01 0.  1.
        -11    1    1    2    0    0 -0.66878748654E+01  0.22562328086E+02 -0.39771424737E+02  0.46212038956E+02  0.00000000000E+00 0. -1.
         11    1    1    2    0    0  0.54244562819E+00  0.13220025310E+02  0.41397389082E+02  0.43460408871E+02  0.00000000000E+00 0.  1.
</event>
<event>
 7    1  0.2728221E-009  0.1096735E+03  0.7561462E-02  0.1261176E+00
          1   -1    0    0  501    0  0.00000000000E+00  0.00000000000E+00  0.54452747865E+03  0.54452747865E+03  0.00000000000E+00 0. -1.
         -1   -1    0    0    0  501 -0.00000000000E+00 -0.00000000000E+00 -0.35937954973E+02  0.35937954973E+02  0.00000000000E+00 0.  1.
         25    2    1    2    0    0 -0.34556828839E+02  0.29920167740E+02  0.12224042179E+03  0.18077465009E+03  0.12508941817E+03 0.  0.
          5    1    3    3  502    0 -0.74594764574E+02  0.55361741408E+00  0.10325632889E+03  0.12745205863E+03  0.41800000000E+01 0.  1.
         -5    1    3    3    0  502  0.40037935736E+02  0.29366550326E+02  0.18984092904E+02  0.53322591454E+02  0.41800000000E+01 0.  1.
        -11    1    1    2    0    0  0.16487760659E+02 -0.58617562950E+02  0.31318227378E+03  0.31904702090E+03  0.00000000000E+00 0. -1.
         11    1    1    2    0    0  0.18069068180E+02  0.28697395210E+02  0.73166828103E+02  0.80643762632E+02  0.00000000000E+00 0.  1.
</event>
<event>
 7    1  0.2728221E-009  0.1014564E+03  0.7561462E-02  0.1277263E+00
         -3   -1    0    0    0  501 -0.00000000000E+00  0.00000000000E+00  0.66963915778E+02  0.66963915778E+02  0.00000000000E+00 0.  1.
          3   -1    0    0  501    0  0.00000000000E+00 -0.00000000000E+00 -0.20369244316E+03  0.20369244316E+03  0.00000000000E+00 0. -1.
         25    2    1    2    0    0  0.34826538328E+02 -0.67835263758E+01 -0.45347228497E+02  0.13770382378E+03  0.12508824065E+03 0.  0.
          5    1    3    3  502    0  0.64457986002E+02  0.20557096674E+02 -0.63872156986E+02  0.93137269775E+02  0.41800000000E+01 0. -1.
         -5    1    3    3    0  502 -0.29631447674E+02 -0.27340623050E+02  0.18524928488E+02  0.44566554001E+02  0.41800000000E+01 0. -1.
        -11    1    1    2    0    0 -0.17274210053E+02 -0.40568215917E+02 -0.56074959302E+02  0.71334280233E+02  0.00000000000E+00 0. -1.
         11    1    1    2    0    0 -0.17552328275E+02  0.47351742293E+02 -0.35306339586E+02  0.61618254933E+02  0.00000000000E+00 0.  1.
</event>
<event>
 7    1  0.2728221E-009  0.1288789E+03  0.7561462E-02  0.1229129E+00
          2   -1    0    0  501    0  0.00000000000E+00  0.00000000000E+00  0.10080839851E+04  0.10080839851E+04  0.00000000000E+00 0. -1.
         -2   -1    0    0    0  501 -0.00000000000E+00 -0.00000000000E+00 -0.18399377282E+02  0.18399377282E+02  0.00000000000E+00 0.  1.
         25    2    1    2    0    0 -0.34818818043E+02  0.74743992733E+02  0.60249884590E+03  0.62084764029E+03  0.12509164081E+03 0.  0.
          5    1    3    3  502    0  0.96706463743E+00 -0.32770060630E+02  0.87990473295E+02  0.93992594806E+02  0.41800000000E+01 0.  1.
         -5    1    3    3    0  502 -0.35785882681E+02  0.10751405336E+03  0.51450837261E+03  0.52685504549E+03  0.41800000000E+01 0.  1.
        -11    1    1    2    0    0 -0.23834268056E+02 -0.22144048772E+02  0.52185077224E+02  0.61495638175E+02  0.00000000000E+00 0.  1.
         11    1    1    2    0    0  0.58653086099E+02 -0.52599943962E+02  0.33500068473E+03  0.34414008395E+03  0.00000000000E+00 0. -1.
</event>
<event>
 7    1  0.2728221E-009  0.1572646E+03  0.7561462E-02  0.1191820E+00
          2   -1    0    0  501    0  0.00000000000E+00  0.00000000000E+00  0.17083144408E+03  0.17083144408E+03  0.00000000000E+00 0. -1.
         -2   -1    0    0    0  501 -0.00000000000E+00 -0.00000000000E+00 -0.14691828872E+03  0.14691828872E+03  0.00000000000E+00 0.  1.
         25    2    1    2    0    0  0.11428099801E+03 -0.14943688210E+01  0.25319690272E+02  0.17132125991E+03  0.12508999855E+03 0.  0.
          5    1    3    3  502    0 -0.14794352555E+02  0.31691306697E+02  0.12466975853E+02  0.37364551042E+02  0.41800000000E+01 0. -1.
         -5    1    3    3    0  502  0.12907535057E+03 -0.33185675518E+02  0.12852714419E+02  0.13395670887E+03  0.41800000000E+01 0. -1.
        -11    1    1    2    0    0 -0.87555011259E+01 -0.33628860123E+02  0.45787648366E+01  0.35050308424E+02  0.00000000000E+00 0. -1.
         11    1    1    2    0    0 -0.10552549689E+03  0.35123228944E+02 -0.59852997533E+01  0.11137816446E+03  0.00000000000E+00 0.  1.
</event>
<event>
 7    1  0.2728221E-009  0.1148299E+03  0.7561462E-02  0.1251878E+00
          1   -1    0    0  501    0  0.00000000000E+00  0.00000000000E+00  0.69175765016E+03  0.69175765016E+03  0.00000000000E+00 0. -1.
         -1   -1    0    0    0  501 -0.00000000000E+00 -0.00000000000E+00 -0.21696894393E+02  0.21696894393E+02  0.00000000000E+00 0.  1.
         25    2    1    2    0    0  0.41577384224E+02  0.19485993663E+02  0.47389304102E+03  0.49227030527E+03  0.12508819404E+03 0.  0.
          5    1    3    3  502    0 -0.19445021169E+02  0.54265917591E+02  0.14836703184E+03  0.15922671634E+03  0.41800000000E+01 0. -1.
         -5    1    3    3    0  502  0.61022405393E+02 -0.34779923928E+02  0.32552600919E+03  0.33304358893E+03  0.41800000000E+01 0. -1.
        -11    1    1    2    0    0 -0.64751716315E+02 -0.35007897808E+02  0.13030160107E+03  0.14965575471E+03  0.00000000000E+00 0.  1.
         11    1    1    2    0    0  0.23174332091E+02  0.15521904145E+02  0.65866113666E+02  0.71528484575E+02  0.00000000000E+00 0. -1.
</event>
<event>
 7    1  0.2728221E-009  0.1009232E+03  0.7561462E-02  0.1278366E+00
         -1   -1    0    0    0  501 -0.00000000000E+00  0.00000000000E+00  0.45292243061E+02  0.45292243061E+02  0.00000000000E+00 0.  1.
          1   -1    0    0  501    0  0.00000000000E+00 -0.00000000000E+00 -0.55898575682E+03  0.55898575682E+03  0.00000000000E+00 0. -1.
         25    2    1    2    0    0  0.72901447901E+01  0.61185609218E+02 -0.44057936562E+03  0.46212037357E+03  0.12509291457E+03 0.  0.
          5    1    3    3  502    0  0.59205279791E+02  0.66157747367E+01 -0.13971859596E+03  0.15194667515E+03  0.41800000000E+01 0. -1.
         -5    1    3    3    0  502 -0.51915135000E+02  0.54569834481E+02 -0.30086076966E+03  0.31017369843E+03  0.41800000000E+01 0. -1.
        -11    1    1    2    0    0 -0.14384274137E+02 -0.18573935487E+02 -0.92043375375E+02  0.94994112304E+02  0.00000000000E+00 0. -1.
         11    1    1    2    0    0  0.70941293472E+01 -0.42611673731E+02  0.18929227236E+02  0.47163514003E+02  0.00000000000E+00 0.  1.
</event>
<event>
 7    1  0.2728221E-009  0.1219549E+03  0.7561462E-02  0.1239907E+00
         -1   -1    0    0    0  501 -0.00000000000E+00  0.00000000000E+00  0.32174719436E+02  0.32174719436E+02  0.00000000000E+00 0.  1.
          1   -1    0    0  501    0  0.00000000000E+00 -0.00000000000E+00 -0.57564417367E+03  0.57564417367E+03  0.00000000000E+00 0. -1.
         25    2    1    2    0    0 -0.72217819091E+02 -0.25200281142E+02 -0.36681473944E+03  0.39504462340E+03  0.12512687099E+03 0.  0.
          5    1    3    3  502    0 -0.89462766030E+02  0.69945212107E+01 -0.33365827525E+03  0.34553990634E+03  0.41800000000E+01 0. -1.
         -5    1    3    3    0  502  0.17244946939E+02 -0.32194802353E+02 -0.33156464187E+02  0.49504717056E+02  0.41800000000E+01 0. -1.
        -11    1    1    2    0    0 -0.21179550589E+02  0.47461655206E+01 -0.21669440013E+02  0.30670247485E+02  0.00000000000E+00 0. -1.
         11    1    1    2    0    0  0.93397369680E+02  0.20454115622E+02 -0.15498527478E+03  0.18210402222E+03  0.00000000000E+00 0.  1.
</event>
<event>
 7    1  0.2728221E-009  0.1378540E+03  0.7561462E-02  0.1216246E+00
         -2   -1    0    0    0  501 -0.00000000000E+00  0.00000000000E+00  0.10816029201E+03  0.10816029201E+03  0.00000000000E+00 0.  1.
          2   -1    0    0  501    0  0.00000000000E+00 -0.00000000000E+00 -0.25596169578E+03  0.25596169578E+03  0.00000000000E+00 0. -1.
         25    2    1    2    0    0 -0.39696893168E+02 -0.11263762691E+03 -0.38716938787E+02  0.17722815332E+03  0.12509092157E+03 0.  0.
          5    1    3    3  502    0 -0.25994795939E+02 -0.12523013914E+03  0.65207588939E+01  0.12813395281E+03  0.41800000000E+01 0.  1.
         -5    1    3    3    0  502 -0.13702097229E+02  0.12592512234E+02 -0.45237697681E+02  0.49094200516E+02  0.41800000000E+01 0.  1.
        -11    1    1    2    0    0  0.33570161034E+02  0.27740082186E+02  0.57784312661E+01  0.43930150687E+02  0.00000000000E+00 0. -1.
         11    1    1    2    0    0  0.61267321336E+01  0.84897544722E+02 -0.11486289625E+03  0.14296368378E+03  0.00000000000E+00 0.  1.
</event>
<event>
 7    1  0.2728221E-009  0.1409303E+03  0.7561462E-02  0.1212083E+00
         -2   -1    0    0    0  501 -0.00000000000E+00  0.00000000000E+00  0.19852443936E+02  0.19852443936E+02  0.00000000000E+00 0.  1.
          2   -1    0    0  501    0  0.00000000000E+00 -0.00000000000E+00 -0.11641896218E+04  0.11641896218E+04  0.00000000000E+00 0. -1.
         25    2    1    2    0    0  0.10257458506E+03 -0.24662405427E+02 -0.63387710363E+03  0.65465754303E+03  0.12508611594E+03 0.  0.
          5    1    3    3  502    0 -0.12766890466E+02 -0.29555682788E+02 -0.51098610384E+02  0.60539840274E+02  0.41800000000E+01 0.  1.
         -5    1    3    3    0  502  0.11534147552E+03  0.48932773612E+01 -0.58277849324E+03  0.59411770275E+03  0.41800000000E+01 0.  1.
        -11    1    1    2    0    0 -0.79198707543E+02  0.54375380652E+02 -0.28446342164E+03  0.30024749050E+03  0.00000000000E+00 0.  1.
         11    1    1    2    0    0 -0.23375877516E+02 -0.29712975225E+02 -0.22599665257E+03  0.22913703219E+03  0.00000000000E+00 0. -1.
</event>
<event>
 7    1  0.2728221E-009  0.1382930E+03  0.7561462E-02  0.1215644E+00
         -1   -1    0    0    0  501 -0.00000000000E+00  0.00000000000E+00  0.10381112943E+03  0.10381112943E+03  0.00000000000E+00 0.  1.
          1   -1    0    0  501    0  0.00000000000E+00 -0.00000000000E+00 -0.19769168229E+03  0.19769168229E+03  0.00000000000E+00 0. -1.
         25    2    1    2    0    0  0.18373892907E+02 -0.86541749649E+02 -0.19558660620E+02  0.15445839663E+03  0.12509108965E+03 0.  0.
          5    1    3    3  502    0  0.52835569751E+02 -0.10054781459E+03 -0.34708212990E+01  0.11371446456E+03  0.41800000000E+01 0.  1.
         -5    1    3    3    0  502 -0.34461676844E+02  0.14006064944E+02 -0.16087839321E+02  0.40743932065E+02  0.41800000000E+01 0.  1.
        -11    1    1    2    0    0  0.26748234774E+02  0.73959427392E+02 -0.35875570944E+02  0.86443747919E+02  0.00000000000E+00 0.  1.
         11    1    1    2    0    0 -0.45122127681E+02  0.12582322257E+02 -0.38446321305E+02  0.60600667172E+02  0.00000000000E+00 0. -1.
</event>
<event>
 7    1  0.2728221E-009  0.1035973E+03  0.7561462E-02  0.1272908E+00
         -2   -1    0    0    0  501 -0.00000000000E+00  0.00000000000E+00  0.22997074842E+03  0.22997074842E+03  0.00000000000E+00 0.  1.
          2   -1    0    0  501    0  0.00000000000E+00 -0.00000000000E+00 -0.10382809073E+03  0.10382809073E+03  0.00000000000E+00 0. -1.
         25    2    1    2    0    0  0.65019653857E+02 -0.87853512120E+01 -0.25706054401E+02  0.14357274559E+03  0.12509034439E+03 0.  0.
          5    1    3    3  502    0  0.67413736739E+02  0.17751667382E+02  0.34284191562E+02  0.77798533321E+02  0.41800000000E+01 0.  1.
         -5    1    3    3    0  502 -0.23940828819E+01 -0.26537018594E+02 -0.59990245963E+02  0.65774212268E+02  0.41800000000E+01 0.  1.
        -11    1    1    2    0    0 -0.52262116165E+02 -0.36234412061E+02  0.61439597314E+02  0.88425593136E+02  0.00000000000E+00 0. -1.
         11    1    1    2    0    0 -0.12757537692E+02  0.45019763273E+02  0.90409114770E+02  0.10180050042E+03  0.00000000000E+00 0.  1.
</event>
<event>
 7    1  0.3600865E-009  0.1550177E+03  0.7561462E-02  0.1194439E+00
          2   -1    0    0  501    0  0.00000000000E+00  0.00000000000E+00  0.74420541874E+03  0.74420541874E+03  0.00000000000E+00 0. -1.
         -2   -1    0    0    0  501 -0.00000000000E+00 -0.00000000000E+00 -0.43618741805E+02  0.43618741805E+02  0.00000000000E+00 0.  1.
         25    2    1    2    0    0  0.12757506316E+03  0.97701215712E+01  0.51244592207E+03  0.54279556226E+03  0.12512133049E+03 0.  0.
          5    1    3    3  502    0  0.11914848594E+03 -0.23217973327E+02  0.24813297693E+03  0.27626596356E+03  0.41800000000E+01 0.  1.
         -5    1    3    3    0  502  0.84265772259E+01  0.32988094898E+02  0.26431294515E+03  0.26652959869E+03  0.41800000000E+01 0.  1.
        -11    1    1    2    0    0 -0.61258031223E+02  0.38406079507E+02  0.11098880129E+03  0.13246164481E+03  0.00000000000E+00 0. -1.
         11    1    1    2    0    0 -0.66317031940E+02 -0.48176201078E+02  0.77151953570E+02  0.11256695348E+03  0.00000000000E+00 0.  1.
</event>
<event>
 7    1  0.2728221E-009  0.9218624E+02  0.7561462E-02  0.1297642E+00
          2   -1    0    0  501    0  0.00000000000E+00  0.00000000000E+00  0.14281125109E+03  0.14281125109E+03  0.00000000000E+00 0. -1.
         -2   -1    0    0    0  501 -0.00000000000E+00 -0.00000000000E+00 -0.92996172026E+02  0.92996172026E+02  0.00000000000E+00 0.  1.
         25    2    1    2    0    0  0.94488559539E+01  0.20807984308E+02  0.56304378038E+02  0.13906557398E+03  0.12508716078E+03 0.  0.
          5    1    3    3  502    0 -0.29158605487E+02  0.59234793352E+02  0.52219581563E+02  0.84281327209E+02  0.41800000000E+01 0. -1.
         -5    1    3    3    0  502  0.38607461441E+02 -0.38426809044E+02  0.40847964750E+01  0.54784246773E+02  0.41800000000E+01 0. -1.
        -11    1    1    2    0    0 -0.21796535663E+02  0.14501435224E+02 -0.39141173547E+02  0.47089404935E+02  0.00000000000E+00 0.  1.
         11    1    1    2    0    0  0.12347679710E+02 -0.35309419533E+02  0.32651874576E+02  0.49652444203E+02  0.00000000000E+00 0. -1.
</event>
<event>
 7    1  0.2822299E-009  0.2317655E+03  0.7561462E-02  0.1125403E+00
          1   -1    0    0  501    0  0.00000000000E+00  0.00000000000E+00  0.12797155973E+04  0.12797155973E+04  0.00000000000E+00 0. -1.
         -1   -1    0    0    0  501 -0.00000000000E+00 -0.00000000000E+00 -0.46111827055E+02  0.46111827055E+02  0.00000000000E+00 0.  1.
         25    2    1    2    0    0  0.20294431944E+03  0.41451656908E+02  0.81225969359E+03  0.84753540916E+03  0.12508326550E+03 0.  0.
          5    1    3    3  502    0  0.13489673782E+02  0.50229518856E+02  0.16582812749E+03  0.17384307904E+03  0.41800000000E+01 0.  1.
         -5    1    3    3    0  502  0.18945464566E+03 -0.87778619477E+01  0.64643156610E+03  0.67369233012E+03  0.41800000000E+01 0.  1.
        -11    1    1    2    0    0 -0.10411256500E+03  0.18948738855E+02  0.15314120802E+03  0.18614701311E+03  0.00000000000E+00 0.  1.
         11    1    1    2    0    0 -0.98831754437E+02 -0.60400395763E+02  0.26820286861E+03  0.29214500206E+03  0.00000000000E+00 0. -1.
</event>
<event>
 7    1  0.2728221E-009  0.3121016E+03  0.7561462E-02  0.1079343E+00
         -2   -1    0    0    0  501 -0.00000000000E+00  0.00000000000E+00  0.15810216076E+03  0.15810216076E+03  0.00000000000E+00 0.  1.
          2   -1    0    0  501    0  0.00000000000E+00 -0.00000000000E+00 -0.64838425567E+03  0.64838425567E+03  0.00000000000E+00 0. -1.
         25    2    1    2    0    0  0.20025544518E+03  0.21871098983E+03 -0.31276440311E+03  0.44878310528E+03  0.12509181962E+03 0.  0.
          5    1    3    3  502    0  0.14565043554E+03  0.79992813094E+02 -0.20927105207E+03  0.26725408351E+03  0.41800000000E+01 0.  1.
         -5    1    3    3    0  502  0.54605009638E+02  0.13871817674E+03 -0.10349335104E+03  0.18152902177E+03  0.41800000000E+01 0.  1.
        -11    1    1    2    0    0 -0.14045994897E+03 -0.89730156503E+02 -0.11437876957E+03  0.20214598977E+03  0.00000000000E+00 0.  1.
         11    1    1    2    0    0 -0.59795496207E+02 -0.12898083333E+03 -0.63138922231E+02  0.15555732137E+03  0.00000000000E+00 0. -1.
</event>
<event>
 7    1  0.2728221E-009  0.8000557E+02  0.7561462E-02  0.1329036E+00
         -2   -1    0    0    0  501 -0.00000000000E+00  0.00000000000E+00  0.44628089544E+02  0.44628089544E+02  0.00000000000E+00 0.  1.
          2   -1    0    0  501    0  0.00000000000E+00 -0.00000000000E+00 -0.35922091191E+03  0.35922091191E+03  0.00000000000E+00 0. -1.
         25    2    1    2    0    0 -0.54486720019E+02  0.24509085871E+02 -0.18444958026E+03  0.23072055248E+03  0.12506329489E+03 0.  0.
          5    1    3    3  502    0 -0.51284989506E+02  0.23205857159E+01 -0.71978491101E+01  0.52007852277E+02  0.41800000000E+01 0.  1.
         -5    1    3    3    0  502 -0.32017305138E+01  0.22188500155E+02 -0.17725173115E+03  0.17871270020E+03  0.41800000000E+01 0.  1.
        -11    1    1    2    0    0  0.66498359359E+02 -0.10627607629E+02 -0.34359022856E+02  0.75601060131E+02  0.00000000000E+00 0.  1.
         11    1    1    2    0    0 -0.12011639339E+02 -0.13881478242E+02 -0.95784219249E+02  0.97527388846E+02  0.00000000000E+00 0. -1.
</event>
<event>
 7    1  0.2728221E-009  0.1915144E+03  0.7561462E-02  0.1157102E+00
          2   -1    0    0  501    0  0.00000000000E+00  0.00000000000E+00  0.17256361122E+04  0.17256361122E+04  0.00000000000E+00 0. -1.
         -2   -1    0    0    0  501 -0.00000000000E+00 -0.00000000000E+00 -0.24968746590E+02  0.24968746590E+02  0.00000000000E+00 0.  1.
         25    2    1    2    0    0 -0.36978143274E+02  0.17313776100E+03  0.88869571940E+03  0.91475230669E+03  0.12509050139E+03 0.  0.
          5    1    3    3  502    0  0.21446425086E+02  0.34999818482E+02  0.61498628866E+02  0.74057343965E+02  0.41800000000E+01 0. -1.
         -5    1    3    3    0  502 -0.58424568360E+02  0.13813794252E+03  0.82719709054E+03  0.84069496272E+03  0.41800000000E+01 0. -1.
        -11    1    1    2    0    0 -0.20011006716E+02 -0.80598611086E+02  0.46166175227E+03  0.46907158303E+03  0.00000000000E+00 0. -1.
         11    1    1    2    0    0  0.56989149990E+02 -0.92539149913E+02  0.35030989392E+03  0.36678096906E+03  0.00000000000E+00 0.  1.
</event>
<event>
 7    1  0.2728221E-009  0.1140490E+03  0.7561462E-02  0.1253250E+00
          2   -1    0    0  501    0  0.00000000000E+00  0.00000000000E+00  0.38517940653E+03  0.38517940653E+03  0.00000000000E+00 0. -1.
         -2   -1    0    0    0  501 -0.00000000000E+00 -0.00000000000E+00 -0.37019408420E+02  0.37019408420E+02  0.00000000000E+00 0.  1.
         25    2    1    2    0    0 -0.47977276596E+02 -0.85745918060E+00  0.22887436667E+03  0.26520527785E+03  0.12509120422E+03 0.  0.
          5    1    3    3  502    0 -0.68633660267E+02  0.45631135522E+02  0.15134578562E+03  0.17238271107E+03  0.41800000000E+01 0.  1.
         -5    1    3    3    0  502  0.20656383671E+02 -0.46488594702E+02  0.77528581048E+02  0.92822566777E+02  0.41800000000E+01 0.  1.
        -11    1    1    2    0    0  0.16233404422E+02  0.40566126756E+02  0.85308126484E+02  0.95846807476E+02  0.00000000000E+00 0.  1.
         11    1    1    2    0    0  0.31743872174E+02 -0.39708667576E+02  0.33977504962E+02  0.61146729632E+02  0.00000000000E+00 0. -1.
</event>
<event>
 7    1  0.2728221E-009  0.7502255E+02  0.7561462E-02  0.1343801E+00
         -2   -1    0    0    0  501 -0.00000000000E+00  0.00000000000E+00  0.16930751083E+02  0.16930751083E+02  0.00000000000E+00 0.  1.
          2   -1    0    0  501    0  0.00000000000E+00 -0.00000000000E+00 -0.17514653750E+04  0.17514653750E+04  0.00000000000E+00 0. -1.
         25    2    1    2    0    0  0.18409239631E+02  0.10252650676E+02 -0.15982182912E+04  0.16032472077E+04  0.12512348267E+03 0.  0.
          5    1    3    3  502    0  0.41156892158E+02 -0.91801999977E+01 -0.14974222979E+04  0.14980217544E+04  0.41800000000E+01 0. -1.
         -5    1    3    3    0  502 -0.22747652527E+02  0.19432850673E+02 -0.10079599327E+03  0.10522545339E+03  0.41800000000E+01 0. -1.
        -11    1    1    2    0    0  0.29145666179E+02 -0.56078166607E+01 -0.10224082947E+03  0.10646175218E+03  0.00000000000E+00 0. -1.
         11    1    1    2    0    0 -0.47554905810E+02 -0.46448340150E+01 -0.34075503251E+02  0.58687166157E+02  0.00000000000E+00 0.  1.
</event>
<event>
 7    1  0.2728221E-009  0.1322735E+03  0.7561462E-02  0.1224121E+00
         -2   -1    0    0    0  501 -0.00000000000E+00  0.00000000000E+00  0.30321687265E+02  0.30321687265E+02  0.00000000000E+00 0. -1.
          2   -1    0    0  501    0  0.00000000000E+00 -0.00000000000E+00 -0.76620298997E+03  0.76620298997E+03  0.00000000000E+00 0.  1.
         25    2    1    2    0    0 -0.45913892323E+02  0.82121881151E+02 -0.53378717119E+03  0.55626181413E+03  0.12508546221E+03 0.  0.
          5    1    3    3  502    0 -0.82735251388E+02  0.25763307166E+02 -0.34661655156E+03  0.35730851660E+03  0.41800000000E+01 0.  1.
         -5    1    3    3    0  502  0.36821359064E+02  0.56358573985E+02 -0.18717061963E+03  0.19895329753E+03  0.41800000000E+01 0.  1.
        -11    1    1    2    0    0  0.25581712584E+02  0.16316724036E+00 -0.11844854368E+03  0.12117965234E+03  0.00000000000E+00 0.  1.
         11    1    1    2    0    0  0.20332179739E+02 -0.82285048391E+02 -0.83645587839E+02  0.11908321077E+03  0.00000000000E+00 0. -1.
</event>
<event>
 7    1  0.2728221E-009  0.8896813E+02  0.7561462E-02  0.1305370E+00
         -2   -1    0    0    0  501 -0.00000000000E+00  0.00000000000E+00  0.14802407428E+02  0.14802407428E+02  0.00000000000E+00 0.  1.
          2   -1    0    0  501    0  0.00000000000E+00 -0.00000000000E+00 -0.10377417332E+04  0.10377417332E+04  0.00000000000E+00 0. -1.
         25    2    1    2    0    0 -0.18721213927E+02 -0.60198160923E+02 -0.46145034873E+03  0.48223291603E+03  0.12505142356E+03 0.  0.
          5    1    3    3  502    0  0.13491722193E+02 -0.32295435090E+02 -0.23889562904E+02  0.42581748568E+02  0.41800000000E+01 0. -1.
         -5    1    3    3    0  502 -0.32212936120E+02 -0.27902725833E+02 -0.43756078582E+03  0.43965116746E+03  0.41800000000E+01 0. -1.
        -11    1    1    2    0    0  0.45872491690E+02  0.56002698749E+02 -0.41567071358E+03  0.42192739883E+03  0.00000000000E+00 0. -1.
         11    1    1    2    0    0 -0.27151277763E+02  0.41954621741E+01 -0.14581826347E+03  0.14838382576E+03  0.00000000000E+00 0.  1.
</event>
<event>
 7    1  0.2728221E-009  0.1601062E+03  0.7561462E-02  0.1188577E+00
          1   -1    0    0  501    0  0.00000000000E+00  0.00000000000E+00  0.13388575112E+03  0.13388575112E+03  0.00000000000E+00 0. -1.
         -1   -1    0    0    0  501 -0.00000000000E+00 -0.00000000000E+00 -0.20974075228E+03  0.20974075228E+03  0.00000000000E+00 0.  1.
         25    2    1    2    0    0  0.96877947173E+02  0.67983423452E+02 -0.85541191489E+02  0.19228076788E+03  0.12509003055E+03 0.  0.
          5    1    3    3  502    0 -0.19688834343E+02 -0.17907222128E+02 -0.87149839869E+01  0.28315051616E+02  0.41800000000E+01 0.  1.
         -5    1    3    3    0  502  0.11656678152E+03  0.85890645580E+02 -0.76826207502E+02  0.16396571627E+03  0.41800000000E+01 0.  1.
        -11    1    1    2    0    0 -0.27455184082E+02 -0.73810765881E+02 -0.88709008951E+01  0.79249663568E+02  0.00000000000E+00 0.  1.
         11    1    1    2    0    0 -0.69422763091E+02  0.58273424290E+01  0.18557091222E+02  0.72096071943E+02  0.00000000000E+00 0. -1.
</event>
<event>
 7    1  0.2728221E-009  0.2455636E+03  0.7561462E-02  0.1116141E+00
         -2   -1    0    0    0  501 -0.00000000000E+00  0.00000000000E+00  0.16108992274E+03  0.16108992274E+03  0.00000000000E+00 0.  1.
          2   -1    0    0  501    0  0.00000000000E+00 -0.00000000000E+00 -0.43448000560E+03  0.43448000560E+03  0.00000000000E+00 0. -1.
         25    2    1    2    0    0  0.14789200988E+03  0.18945265239E+03 -0.14815148841E+03  0.30880548347E+03  0.12509040339E+03 0.  0.
          5    1    3    3  502    0  0.40767861029E+02  0.12967677000E+02 -0.80943946221E+02  0.91649189683E+02  0.41800000000E+01 0.  1.
         -5    1    3    3    0  502  0.10712414885E+03  0.17648497539E+03 -0.67207542188E+02  0.21715629378E+03  0.41800000000E+01 0.  1.
        -11    1    1    2    0    0 -0.11608978332E+03 -0.13048504972E+03 -0.13271112141E+03  0.21935229139E+03  0.00000000000E+00 0. -1.
         11    1    1    2    0    0 -0.31802226559E+02 -0.58967602666E+02  0.74725269648E+01  0.67412153485E+02  0.00000000000E+00 0.  1.
</event>
<event>
 7    1  0.2728221E-009  0.1061157E+03  0.7561462E-02  0.1267937E+00
          2   -1    0    0  501    0  0.00000000000E+00  0.00000000000E+00  0.56086901965E+03  0.56086901965E+03  0.00000000000E+00 0.  1.
         -2   -1    0    0    0  501 -0.00000000000E+00 -0.00000000000E+00 -0.25016262139E+02  0.25016262139E+02  0.00000000000E+00 0. -1.
         25    2    1    2    0    0 -0.15266641511E+02  0.38122564151E+02  0.36138125486E+03  0.38461714732E+03  0.12509012114E+03 0.  0.
          5    1    3    3  502    0  0.43103113964E+02 -0.50776647504E+01  0.23315455225E+03  0.23719649817E+03  0.41800000000E+01 0. -1.
         -5    1    3    3    0  502 -0.58369755475E+02  0.43200228901E+02  0.12822670261E+03  0.14742064914E+03  0.41800000000E+01 0. -1.
        -11    1    1    2    0    0 -0.31758611578E+02 -0.37125444683E+02  0.59114983877E+02  0.76690868889E+02  0.00000000000E+00 0.  1.
         11    1    1    2    0    0  0.47025253090E+02 -0.99711946803E+00  0.11535651877E+03  0.12457726558E+03  0.00000000000E+00 0. -1.
</event>
<event>
 7    1  0.2728221E-009  0.1123703E+03  0.7561462E-02  0.1256242E+00
          2   -1    0    0  501    0  0.00000000000E+00  0.00000000000E+00  0.13939205274E+03  0.13939205274E+03  0.00000000000E+00 0. -1.
         -2   -1    0    0    0  501 -0.00000000000E+00 -0.00000000000E+00 -0.12716766401E+03  0.12716766401E+03  0.00000000000E+00 0.  1.
         25    2    1    2    0    0 -0.50516215666E+02 -0.28331067051E+02 -0.43549197443E+02  0.14456232306E+03  0.12508874947E+03 0.  0.
          5    1    3    3  502    0 -0.57517746080E+02  0.37684674421E+02 -0.86084047867E+01  0.69426240236E+02  0.41800000000E+01 0.  1.
         -5    1    3    3    0  502  0.70015304141E+01 -0.66015741473E+02 -0.34940792656E+02  0.75136082821E+02  0.41800000000E+01 0.  1.
        -11    1    1    2    0    0  0.66428969636E+02  0.13936058824E+02  0.64163886449E+01  0.68177648725E+02  0.00000000000E+00 0.  1.
         11    1    1    2    0    0 -0.15912753970E+02  0.14395008228E+02  0.49357197522E+02  0.53819744964E+02  0.00000000000E+00 0. -1.
</event>
<event>
 7    1  0.2728221E-009  0.1530896E+03  0.7561462E-02  0.1196727E+00
          2   -1    0    0  501    0  0.00000000000E+00  0.00000000000E+00  0.27518721535E+03  0.27518721535E+03  0.00000000000E+00 0. -1.
         -2   -1    0    0    0  501 -0.00000000000E+00 -0.00000000000E+00 -0.12722869852E+03  0.12722869852E+03  0.00000000000E+00 0.  1.
         25    2    1    2    0    0  0.89409708126E+02  0.10731570441E+03  0.14368872212E+03  0.23622996692E+03  0.12508953626E+03 0.  0.
          5    1    3    3  502    0  0.88541962296E+02  0.42618422640E+02  0.14025168441E+03  0.17130095275E+03  0.41800000000E+01 0. -1.
         -5    1    3    3    0  502  0.86774582966E+00  0.64697281774E+02  0.34370377168E+01  0.64929014162E+02  0.41800000000E+01 0. -1.
        -11    1    1    2    0    0 -0.51716743817E+02 -0.38318205650E+02  0.44126209973E+02  0.78038637109E+02  0.00000000000E+00 0. -1.
         11    1    1    2    0    0 -0.37692964308E+02 -0.68997498764E+02 -0.39856415270E+02  0.88147309841E+02  0.00000000000E+00 0.  1.
</event>
<event>
 7    1  0.2728221E-009  0.1213376E+03  0.7561462E-02  0.1240907E+00
         -3   -1    0    0    0  501 -0.00000000000E+00  0.00000000000E+00  0.27236942203E+03  0.27236942203E+03  0.00000000000E+00 0.  1.
          3   -1    0    0  501    0  0.00000000000E+00 -0.00000000000E+00 -0.88267838624E+02  0.88267838624E+02  0.00000000000E+00 0. -1.
         25    2    1    2    0    0  0.73205825406E+02 -0.74534918161E+02  0.13726152734E+03  0.21307558375E+03  0.12508369439E+03 0.  0.
          5    1    3    3  502    0  0.31403452109E+02 -0.15121015790E+02 -0.19566242829E+02  0.40188707136E+02  0.41800000000E+01 0.  1.
         -5    1    3    3    0  502  0.41802373297E+02 -0.59413902372E+02  0.15682777017E+03  0.17288687661E+03  0.41800000000E+01 0.  1.
        -11    1    1    2    0    0 -0.27213402147E+02 -0.17194977577E+02 -0.50323026020E+01  0.32581598791E+02  0.00000000000E+00 0. -1.
         11    1    1    2    0    0 -0.45992423259E+02  0.91729895739E+02  0.51872358669E+02  0.11498007812E+03  0.00000000000E+00 0.  1.
</event>
<event>
 7    1  0.2728221E-009  0.1736932E+03  0.7561462E-02  0.1174050E+00
          1   -1    0    0  501    0  0.00000000000E+00  0.00000000000E+00  0.86219878308E+03  0.86219878308E+03  0.00000000000E+00 0. -1.
         -1   -1    0    0    0  501 -0.00000000000E+00 -0.00000000000E+00 -0.37848422546E+02  0.37848422546E+02  0.00000000000E+00 0.  1.
         25    2    1    2    0    0 -0.13448398097E+03  0.55498094279E+02  0.46275018057E+03  0.50095263578E+03  0.12509929683E+03 0.  0.
          5    1    3    3  502    0  0.23736545943E+02  0.32485176633E+01  0.44451277513E+02  0.50669171622E+02  0.41800000000E+01 0.  1.
         -5    1    3    3    0  502 -0.15822052691E+03  0.52249576616E+02  0.41829890306E+03  0.45028346415E+03  0.41800000000E+01 0.  1.
        -11    1    1    2    0    0  0.12150081721E+03 -0.26128713586E+02  0.20905241732E+03  0.24320376528E+03  0.00000000000E+00 0.  1.
         11    1    1    2    0    0  0.12983163753E+02 -0.29369380694E+02  0.15254776264E+03  0.15589080457E+03  0.00000000000E+00 0. -1.
</event>
<event>
 7    1  0.2728221E-009  0.7424871E+02  0.7561462E-02  0.1346213E+00
          1   -1    0    0  501    0  0.00000000000E+00  0.00000000000E+00  0.42857667839E+03  0.42857667839E+03  0.00000000000E+00 0. -1.
         -1   -1    0    0    0  501 -0.00000000000E+00 -0.00000000000E+00 -0.30855605199E+02  0.30855605199E+02  0.00000000000E+00 0.  1.
         25    2    1    2    0    0 -0.34670760877E+02 -0.20202858189E+02  0.20700702027E+03  0.24517235491E+03  0.12508940815E+03 0.  0.
          5    1    3    3  502    0  0.23514772931E+01  0.47864182329E+01  0.19958588913E+03  0.19970087327E+03  0.41800000000E+01 0. -1.
         -5    1    3    3    0  502 -0.37022238170E+02 -0.24989276422E+02  0.74211311437E+01  0.45471481641E+02  0.41800000000E+01 0. -1.
        -11    1    1    2    0    0  0.37920644146E+02 -0.28882276994E+02  0.10747666969E+03  0.11757293781E+03  0.00000000000E+00 0. -1.
         11    1    1    2    0    0 -0.32498832695E+01  0.49085135184E+02  0.83237383229E+02  0.96686990873E+02  0.00000000000E+00 0.  1.
</event>
<event>
 7    1  0.2728221E-009  0.8504597E+02  0.7561462E-02  0.1315312E+00
          1   -1    0    0  501    0  0.00000000000E+00  0.00000000000E+00  0.22213043498E+03  0.22213043498E+03  0.00000000000E+00 0. -1.
         -1   -1    0    0    0  501 -0.00000000000E+00 -0.00000000000E+00 -0.57048030566E+02  0.57048030566E+02  0.00000000000E+00 0.  1.
         25    2    1    2    0    0 -0.13270158368E+02  0.30592546900E+02  0.94238312810E+02  0.16012790698E+03  0.12509230977E+03 0.  0.
          5    1    3    3  502    0  0.55178429510E+02  0.77987684460E+01  0.29937624070E+02  0.63397268138E+02  0.41800000000E+01 0.  1.
         -5    1    3    3    0  502 -0.68448587878E+02  0.22793778454E+02  0.64300688740E+02  0.96730638843E+02  0.41800000000E+01 0.  1.
        -11    1    1    2    0    0 -0.71384529074E+01 -0.13709893696E+02  0.86775834553E+02  0.88141727674E+02  0.00000000000E+00 0. -1.
         11    1    1    2    0    0  0.20408611275E+02 -0.16882653205E+02 -0.15931742951E+02  0.30908830888E+02  0.00000000000E+00 0.  1.
</event>
<event>
 7    1  0.2728221E-009  0.1353340E+03  0.7561462E-02  0.1219749E+00
          1   -1    0    0  501    0  0.00000000000E+00  0.00000000000E+00  0.48582118538E+03  0.48582118538E+03  0.00000000000E+00 0. -1.
         -1   -1    0    0    0  501 -0.00000000000E+00 -0.00000000000E+00 -0.40766009451E+02  0.40766009451E+02  0.00000000000E+00 0.  1.
         25    2    1    2    0    0 -0.59825153543E+02 -0.61223517162E+02  0.30023559877E+03  0.33632831970E+03  0.12509178956E+03 0.  0.
          5    1    3    3  502    0 -0.61536180514E+02 -0.97307573556E+02  0.22898573355E+03  0.25633455474E+03  0.41800000000E+01 0.  1.
         -5    1    3    3    0  502  0.17110269707E+01  0.36084056395E+02  0.71249865217E+02  0.79993764961E+02  0.41800000000E+01 0.  1.
        -11    1    1    2    0    0  0.65341305485E+02  0.77814639727E+02  0.13826582797E+03  0.17158683965E+03  0.00000000000E+00 0. -1.
         11    1    1    2    0    0 -0.55161519417E+01 -0.16591122565E+02  0.65537491829E+01  0.18672035469E+02  0.00000000000E+00 0.  1.
</event>
<event>
 7    1  0.2728221E-009  0.9383121E+02  0.7561462E-02  0.1293830E+00
          2   -1    0    0  501    0  0.00000000000E+00  0.00000000000E+00  0.71085287806E+02  0.71085287806E+02  0.00000000000E+00 0.  1.
         -2   -1    0    0    0  501 -0.00000000000E+00 -0.00000000000E+00 -0.19299786066E+03  0.19299786066E+03  0.00000000000E+00 0. -1.
         25    2    1    2    0    0 -0.91418754002E+01  0.23634442311E+01 -0.18937703140E+02  0.12687213545E+03  0.12509493355E+03 0.  0.
          5    1    3    3  502    0 -0.40480601906E+02 -0.43436364793E+02 -0.34869917295E+02  0.68983914424E+02  0.41800000000E+01 0. -1.
         -5    1    3    3    0  502  0.31338726506E+02  0.45799809024E+02  0.15932214155E+02  0.57888221026E+02  0.41800000000E+01 0. -1.
        -11    1    1    2    0    0  0.28320931015E+02 -0.28427850047E+02 -0.96081960839E+02  0.10412473765E+03  0.00000000000E+00 0. -1.
         11    1    1    2    0    0 -0.19179055615E+02  0.26064405816E+02 -0.68929088748E+01  0.33086275366E+02  0.00000000000E+00 0.  1.
</event>
<event>
 7    1  0.2728221E-009  0.1001610E+03  0.7561462E-02  0.1279958E+00
         -1   -1    0    0    0  501 -0.00000000000E+00  0.00000000000E+00  0.24653831917E+03  0.24653831917E+03  0.00000000000E+00 0.  1.
          1   -1    0    0  501    0  0.00000000000E+00 -0.00000000000E+00 -0.78160117899E+02  0.78160117899E+02  0.00000000000E+00 0. -1.
         25    2    1    2    0    0  0.73968321002E+02  0.41161783945E+02  0.72691351405E+02  0.16762732217E+03  0.12509708870E+03 0.  0.
          5    1    3    3  502    0  0.18916099979E+01  0.68495334542E+01  0.86169032535E+02  0.86562514202E+02  0.41800000000E+01 0. -1.
         -5    1    3    3    0  502  0.72076711004E+02  0.34312250491E+02 -0.13477681130E+02  0.81064807972E+02  0.41800000000E+01 0. -1.
        -11    1    1    2    0    0 -0.37890871369E+02  0.18695563923E+02  0.49534551011E+01  0.42541496928E+02  0.00000000000E+00 0. -1.
         11    1    1    2    0    0 -0.36077449633E+02 -0.59857347867E+02  0.90733394762E+02  0.11452961796E+03  0.00000000000E+00 0.  1.
</event>
<event>
 7    1  0.2728221E-009  0.1385077E+03  0.7561462E-02  0.1215351E+00
         -2   -1    0    0    0  501 -0.00000000000E+00  0.00000000000E+00  0.12922853836E+03  0.12922853836E+03  0.00000000000E+00 0.  1.
          2   -1    0    0  501    0  0.00000000000E+00 -0.00000000000E+00 -0.21050427057E+03  0.21050427057E+03  0.00000000000E+00 0. -1.
         25    2    1    2    0    0  0.90645420371E+02 -0.78743614850E+02 -0.14348112986E+02  0.17398446026E+03  0.12509026722E+03 0.  0.
          5    1    3    3  502    0  0.11081235173E+03 -0.50147438108E+02 -0.42467813346E+02  0.12889969129E+03  0.41800000000E+01 0. -1.
         -5    1    3    3    0  502 -0.20166931361E+02 -0.28596176742E+02  0.28119700361E+02  0.45084768971E+02  0.41800000000E+01 0. -1.
        -11    1    1    2    0    0 -0.30016151143E+02  0.25971981126E+02  0.22403197468E+02  0.45578683503E+02  0.00000000000E+00 0.  1.
         11    1    1    2    0    0 -0.60629269228E+02  0.52771633724E+02 -0.89330816696E+02  0.12016966516E+03  0.00000000000E+00 0. -1.
</event>
<event>
 7    1  0.2728221E-009  0.1209433E+03  0.7561462E-02  0.1241549E+00
         -2   -1    0    0    0  501 -0.00000000000E+00  0.00000000000E+00  0.15781268998E+02  0.15781268998E+02  0.00000000000E+00 0.  1.
          2   -1    0    0  501    0  0.00000000000E+00 -0.00000000000E+00 -0.10432111501E+04  0.10432111501E+04  0.00000000000E+00 0. -1.
         25    2    1    2    0    0 -0.49657871045E+02 -0.44326114214E+02 -0.61726412779E+03  0.63331937745E+03  0.12509085436E+03 0.  0.
          5    1    3    3  502    0 -0.10874655701E+02 -0.84497854785E+02 -0.39572906807E+03  0.40481738268E+03  0.41800000000E+01 0. -1.
         -5    1    3    3    0  502 -0.38783215343E+02  0.40171740571E+02 -0.22153505971E+03  0.22850199477E+03  0.41800000000E+01 0. -1.
        -11    1    1    2    0    0  0.41319444461E+02 -0.12493371852E+02 -0.83502943637E+02  0.94000651204E+02  0.00000000000E+00 0.  1.
         11    1    1    2    0    0  0.83384265838E+01  0.56819486065E+02 -0.32666280963E+03  0.33167239039E+03  0.00000000000E+00 0. -1.
</event>
<event>
 7    1  0.2728221E-009  0.1021893E+03  0.7561462E-02  0.1275758E+00
          1   -1    0    0  501    0  0.00000000000E+00  0.00000000000E+00  0.73198933984E+03  0.73198933984E+03  0.00000000000E+00 0. -1.
         -1   -1    0    0    0  501 -0.00000000000E+00 -0.00000000000E+00 -0.26614103693E+02  0.26614103693E+02  0.00000000000E+00 0.  1.
         25    2    1    2    0    0  0.82113037890E+02  0.91473148748E+01  0.45292385476E+03  0.47708833082E+03  0.12508810029E+03 0.  0.
          5    1    3    3  502    0  0.59102321283E+02  0.38512790335E+02  0.42359555149E+03  0.42944962807E+03  0.41800000000E+01 0. -1.
         -5    1    3    3    0  502  0.23010716607E+02 -0.29365475460E+02  0.29328303263E+02  0.47638702754E+02  0.41800000000E+01 0. -1.
        -11    1    1    2    0    0 -0.75707306332E+01 -0.19495643016E+02  0.32089650037E+01  0.21158769230E+02  0.00000000000E+00 0.  1.
         11    1    1    2    0    0 -0.74542307257E+02  0.10348328141E+02  0.24924241639E+03  0.26035634348E+03  0.00000000000E+00 0. -1.
</event>
<event>
 7    1  0.2728221E-009  0.1174353E+03  0.7561462E-02  0.1247389E+00
         -2   -1    0    0    0  501 -0.00000000000E+00  0.00000000000E+00  0.35459658484E+02  0.35459658484E+02  0.00000000000E+00 0.  1.
          2   -1    0    0  501    0  0.00000000000E+00 -0.00000000000E+00 -0.40437132762E+03  0.40437132762E+03  0.00000000000E+00 0. -1.
         25    2    1    2    0    0 -0.14430886978E+02  0.48745612857E+02 -0.21229157354E+03  0.25159410030E+03  0.12508994299E+03 0.  0.
          5    1    3    3  502    0 -0.45151678133E+02  0.78635847340E+02 -0.15888723785E+03  0.18298879003E+03  0.41800000000E+01 0.  1.
         -5    1    3    3    0  502  0.30720791155E+02 -0.29890234484E+02 -0.53404335686E+02  0.68605310266E+02  0.41800000000E+01 0.  1.
        -11    1    1    2    0    0 -0.34684566057E+02 -0.45917012289E+01 -0.78474238919E+02  0.85920364389E+02  0.00000000000E+00 0.  1.
         11    1    1    2    0    0  0.49115453036E+02 -0.44153911628E+02 -0.78145856682E+02  0.10231652142E+03  0.00000000000E+00 0. -1.
</event>
<event>
 7    1  0.2728221E-009  0.8433388E+02  0.7561462E-02  0.1317184E+00
          2   -1    0    0  501    0  0.00000000000E+00  0.00000000000E+00  0.17987726483E+04  0.17987726483E+04  0.00000000000E+00 0. -1.
         -2   -1    0    0    0  501 -0.00000000000E+00 -0.00000000000E+00 -0.15493958316E+02  0.15493958316E+02  0.00000000000E+00 0.  1.
         25    2    1    2    0    0  0.45353393688E+02  0.27771108516E+02  0.15757618422E+04  0.15816133318E+04  0.12508870135E+03 0.  0.
          5    1    3    3  502    0  0.15493463833E+02 -0.24812366919E+02  0.92322936736E+02  0.96936566998E+02  0.41800000000E+01 0. -1.
         -5    1    3    3    0  502  0.29859929855E+02  0.52583475435E+02  0.14834389055E+04  0.14846767648E+04  0.41800000000E+01 0. -1.
        -11    1    1    2    0    0 -0.12563386625E+02  0.18152129179E+02  0.52891845808E+01  0.22700527543E+02  0.00000000000E+00 0.  1.
         11    1    1    2    0    0 -0.32790007063E+02 -0.45923237695E+02  0.20222766325E+03  0.20995274732E+03  0.00000000000E+00 0. -1.
</event>
<event>
 7    1  0.2728221E-009  0.1537934E+03  0.7561462E-02  0.1195888E+00
         -2   -1    0    0    0  501 -0.00000000000E+00  0.00000000000E+00  0.62825340738E+03  0.62825340738E+03  0.00000000000E+00 0.  1.
          2   -1    0    0  501    0  0.00000000000E+00 -0.00000000000E+00 -0.39344588739E+02  0.39344588739E+02  0.00000000000E+00 0. -1.
         25    2    1    2    0    0 -0.75281698015E+02  0.82280559298E+02  0.35419268596E+03  0.39183924428E+03  0.12509240616E+03 0.  0.
          5    1    3    3  502    0 -0.19644513446E+01  0.90932117263E+02  0.16073473292E+03  0.18473125287E+03  0.41800000000E+01 0.  1.
         -5    1    3    3    0  502 -0.73317246671E+02 -0.86515579647E+01  0.19345795303E+03  0.20710799141E+03  0.41800000000E+01 0.  1.
        -11    1    1    2    0    0  0.15472169683E+02 -0.81317061048E+02  0.15908416187E+03  0.17933104307E+03  0.00000000000E+00 0.  1.
         11    1    1    2    0    0  0.59809528332E+02 -0.96349824969E+00  0.75631970815E+02  0.96427708764E+02  0.00000000000E+00 0. -1.
</event>
<event>
 7    1  0.2728221E-009  0.9615451E+02  0.7561462E-02  0.1288597E+00
         -1   -1    0    0    0  501 -0.00000000000E+00  0.00000000000E+00  0.16289557802E+03  0.16289557802E+03  0.00000000000E+00 0.  1.
          1   -1    0    0  501    0  0.00000000000E+00 -0.00000000000E+00 -0.90055893209E+02  0.90055893209E+02  0.00000000000E+00 0. -1.
         25    2    1    2    0    0  0.29578950674E+02  0.48734966479E+02  0.42082913730E+02  0.14375911988E+03  0.12508277915E+03 0.  0.
          5    1    3    3  502    0  0.15023783834E+01  0.78159544191E+02  0.60479225185E+02  0.98926136930E+02  0.41800000000E+01 0.  1.
         -5    1    3    3    0  502  0.28076572291E+02 -0.29424577712E+02 -0.18396311454E+02  0.44832982951E+02  0.41800000000E+01 0.  1.
        -11    1    1    2    0    0 -0.23868073859E+02  0.20250044328E+00  0.50701486427E+02  0.56038974670E+02  0.00000000000E+00 0.  1.
         11    1    1    2    0    0 -0.57108768154E+01 -0.48937466922E+02 -0.19944715342E+02  0.53153376683E+02  0.00000000000E+00 0. -1.
</event>
<event>
 7    1  0.2728221E-009  0.1206030E+03  0.7561462E-02  0.1242106E+00
          2   -1    0    0  501    0  0.00000000000E+00  0.00000000000E+00  0.27087766683E+03  0.27087766683E+03  0.00000000000E+00 0. -1.
         -2   -1    0    0    0  501 -0.00000000000E+00 -0.00000000000E+00 -0.58356088234E+02  0.58356088234E+02  0.00000000000E+00 0.  1.
         25    2    1    2    0    0 -0.55908517152E+02 -0.18828689732E+02  0.12191457994E+03  0.18435718251E+03  0.12507647299E+03 0.  0.
          5    1    3    3  502    0  0.10242261946E+02 -0.59503561484E+02  0.53342114677E+02  0.80674849596E+02  0.41800000000E+01 0.  1.
         -5    1    3    3    0  502 -0.66150779098E+02  0.40674871752E+02  0.68572465261E+02  0.10368233292E+03  0.41800000000E+01 0.  1.
        -11    1    1    2    0    0 -0.58580652872E+01 -0.25963694498E+02  0.54102019625E+02  0.60294766675E+02  0.00000000000E+00 0. -1.
         11    1    1    2    0    0  0.61766582439E+02  0.44792384230E+02  0.36504979034E+02  0.84581805877E+02  0.00000000000E+00 0.  1.
</event>
<event>
 7    1  0.2728221E-009  0.1284093E+03  0.7561462E-02  0.1229835E+00
          1   -1    0    0  501    0  0.00000000000E+00  0.00000000000E+00  0.73957674213E+02  0.73957674213E+02  0.00000000000E+00 0. -1.
         -1   -1    0    0    0  501 -0.00000000000E+00 -0.00000000000E+00 -0.42010341130E+03  0.42010341130E+03  0.00000000000E+00 0.  1.
         25    2    1    2    0    0  0.15162942834E+01 -0.99403981472E+02 -0.32064008580E+03  0.35824680950E+03  0.12508901316E+03 0.  0.
          5    1    3    3  502    0 -0.39055573465E+02 -0.15385167361E+02 -0.20650494237E+03  0.21076955381E+03  0.41800000000E+01 0. -1.
         -5    1    3    3    0  502  0.40571867748E+02 -0.84018814111E+02 -0.11413514343E+03  0.14747725568E+03  0.41800000000E+01 0. -1.
        -11    1    1    2    0    0 -0.72293418676E+01  0.10944646669E+03 -0.20918011300E+01  0.10970491369E+03  0.00000000000E+00 0. -1.
         11    1    1    2    0    0  0.57130475842E+01 -0.10042485219E+02 -0.23413850159E+02  0.26109362331E+02  0.00000000000E+00 0.  1.
</event>
<event>
 7    1  0.2728221E-009  0.7829683E+02  0.7561462E-02  0.1333955E+00
          1   -1    0    0  501    0  0.00000000000E+00  0.00000000000E+00  0.76200905703E+02  0.76200905703E+02  0.00000000000E+00 0. -1.
         -1   -1    0    0    0  501 -0.00000000000E+00 -0.00000000000E+00 -0.22932848710E+03  0.22932848710E+03  0.00000000000E+00 0.  1.
         25    2    1    2    0    0 -0.20705052075E+01  0.28254842789E+02 -0.16523226604E+03  0.20917555640E+03  0.12510031384E+03 0.  0.
          5    1    3    3  502    0  0.35558713814E+02 -0.16140555750E+01 -0.15601454508E+03  0.16007822457E+03  0.41800000000E+01 0.  1.
         -5    1    3    3    0  502 -0.37629219021E+02  0.29868898364E+02 -0.92177209596E+01  0.49097331835E+02  0.41800000000E+01 0.  1.
        -11    1    1    2    0    0  0.33280202738E+02 -0.51009963272E+01  0.37138076356E+02  0.50128123575E+02  0.00000000000E+00 0. -1.
         11    1    1    2    0    0 -0.31209697530E+02 -0.23153846461E+02 -0.25033391714E+02  0.46225712830E+02  0.00000000000E+00 0.  1.
</event>
<event>
 7    1  0.3912283E-009  0.5698904E+02  0.7561462E-02  0.1410920E+00
         -2   -1    0    0    0  501 -0.00000000000E+00  0.00000000000E+00  0.21659767759E+02  0.21659767759E+02  0.00000000000E+00 0.  1.
          2   -1    0    0  501    0  0.00000000000E+00 -0.00000000000E+00 -0.61356137466E+03  0.61356137466E+03  0.00000000000E+00 0. -1.
         25    2    1    2    0    0  0.11791794476E+02  0.24266491275E+02 -0.41742163552E+03  0.43659533082E+03  0.12508697806E+03 0.  0.
          5    1    3    3  502    0  0.89978895190E+01  0.61085332111E+01 -0.41759089286E+03  0.41775339902E+03  0.41800000000E+01 0. -1.
         -5    1    3    3    0  502  0.27939049571E+01  0.18157958064E+02  0.16925734068E+00  0.18841931802E+02  0.41800000000E+01 0. -1.
        -11    1    1    2    0    0  0.34019730975E+02 -0.11803642569E+02 -0.31067177396E+02  0.47558780313E+02  0.00000000000E+00 0.  1.
         11    1    1    2    0    0 -0.45811525451E+02 -0.12462848706E+02 -0.14341279399E+03  0.15106703128E+03  0.00000000000E+00 0. -1.
</event>
<event>
 7    1  0.2728221E-009  0.1040024E+03  0.7561462E-02  0.1272098E+00
         -2   -1    0    0    0  501 -0.00000000000E+00  0.00000000000E+00  0.27848539677E+03  0.27848539677E+03  0.00000000000E+00 0. -1.
          2   -1    0    0  501    0  0.00000000000E+00 -0.00000000000E+00 -0.56710421537E+02  0.56710421537E+02  0.00000000000E+00 0.  1.
         25    2    1    2    0    0 -0.53870830616E+01 -0.22411513009E+02  0.20046869074E+03  0.23741624669E+03  0.12508989425E+03 0.  0.
          5    1    3    3  502    0 -0.31827296686E+02 -0.66513078825E+02  0.98206824022E+02  0.12287806620E+03  0.41800000000E+01 0.  1.
         -5    1    3    3    0  502  0.26440213624E+02  0.44101565816E+02  0.10226186672E+03  0.11453818049E+03  0.41800000000E+01 0.  1.
        -11    1    1    2    0    0  0.20578527090E+02 -0.25228709689E+02 -0.15137887509E+02  0.35904306260E+02  0.00000000000E+00 0.  1.
         11    1    1    2    0    0 -0.15191444029E+02  0.47640222697E+02  0.36444171995E+02  0.61875265355E+02  0.00000000000E+00 0. -1.
</event>
<event>
 7    1  0.2728221E-009  0.1095555E+03  0.7561462E-02  0.1261395E+00
          2   -1    0    0  501    0  0.00000000000E+00  0.00000000000E+00  0.95911493423E+03  0.95911493423E+03  0.00000000000E+00 0. -1.
         -2   -1    0    0    0  501 -0.00000000000E+00 -0.00000000000E+00 -0.13169327612E+02  0.13169327612E+02  0.00000000000E+00 0.  1.
         25    2    1    2    0    0  0.12257669586E+02  0.18586301339E+02  0.64305864086E+03  0.65548964463E+03  0.12508620052E+03 0.  0.
          5    1    3    3  502    0 -0.52314711622E+02  0.31100051173E+02  0.29368314606E+03  0.29995217105E+03  0.41800000000E+01 0.  1.
         -5    1    3    3    0  502  0.64572381209E+02 -0.12513749834E+02  0.34937549480E+03  0.35553747358E+03  0.41800000000E+01 0.  1.
        -11    1    1    2    0    0  0.34151552611E+02 -0.28807560878E+02  0.12835894501E+03  0.13591255598E+03  0.00000000000E+00 0.  1.
         11    1    1    2    0    0 -0.46409222198E+02  0.10221259539E+02  0.17452802074E+03  0.18088206123E+03  0.00000000000E+00 0. -1.
</event>
<event>
 7    1  0.3228378E-009  0.1437878E+03  0.7561462E-02  0.1208321E+00
         -1   -1    0    0    0  501 -0.00000000000E+00  0.00000000000E+00  0.36367596528E+03  0.36367596528E+03  0.00000000000E+00 0.  1.
          1   -1    0    0  501    0  0.00000000000E+00 -0.00000000000E+00 -0.76219306535E+02  0.76219306535E+02  0.00000000000E+00 0. -1.
         25    2    1    2    0    0  0.65278913262E+02  0.10690248930E+03  0.16676903884E+03  0.24320690859E+03  0.12509280289E+03 0.  0.
          5    1    3    3  502    0  0.89344448895E+02  0.10474281291E+03  0.94882540900E+02  0.16725327014E+03  0.41800000000E+01 0.  1.
         -5    1    3    3    0  502 -0.24065535633E+02  0.21596763856E+01  0.71886497942E+02  0.75953638449E+02  0.41800000000E+01 0.  1.
        -11    1    1    2    0    0 -0.34858310971E+02 -0.60832757679E+02  0.71948579733E+01  0.70480438647E+02  0.00000000000E+00 0. -1.
         11    1    1    2    0    0 -0.30420602291E+02 -0.46069731620E+02  0.11349276193E+03  0.12620792458E+03  0.00000000000E+00 0.  1.
</event>
<event>
 7    1  0.2728221E-009  0.9528997E+02  0.7561462E-02  0.1290524E+00
         -2   -1    0    0    0  501 -0.00000000000E+00  0.00000000000E+00  0.30201612392E+02  0.30201612392E+02  0.00000000000E+00 0. -1.
          2   -1    0    0  501    0  0.00000000000E+00 -0.00000000000E+00 -0.41309095195E+03  0.41309095195E+03  0.00000000000E+00 0.  1.
         25    2    1    2    0    0  0.53219280091E+01 -0.27973964424E+02 -0.22012912705E+03  0.25478550559E+03  0.12509178902E+03 0.  0.
          5    1    3    3  502    0  0.39479272484E+02  0.31305554439E+02 -0.14261944606E+03  0.15131566174E+03  0.41800000000E+01 0. -1.
         -5    1    3    3    0  502 -0.34157344475E+02 -0.59279518864E+02 -0.77509680995E+02  0.10346984385E+03  0.41800000000E+01 0. -1.
        -11    1    1    2    0    0 -0.28766512333E+02 -0.67808508173E+01 -0.13506773230E+03  0.13826346039E+03  0.00000000000E+00 0.  1.
         11    1    1    2    0    0  0.23444584324E+02  0.34754815242E+02 -0.27692480207E+02  0.50243598365E+02  0.00000000000E+00 0. -1.
</event>
<event>
 7    1  0.2728221E-009  0.1213500E+03  0.7561462E-02  0.1240887E+00
          2   -1    0    0  501    0  0.00000000000E+00  0.00000000000E+00  0.79922579703E+02  0.79922579703E+02  0.00000000000E+00 0. -1.
         -2   -1    0    0    0  501 -0.00000000000E+00 -0.00000000000E+00 -0.30611982905E+03  0.30611982905E+03  0.00000000000E+00 0.  1.
         25    2    1    2    0    0 -0.56939135926E+02  0.40782253732E+02 -0.19481197943E+03  0.24187664624E+03  0.12508935705E+03 0.  0.
          5    1    3    3  502    0  0.24060173909E+02  0.47642517902E+02 -0.11966676558E+03  0.13109656237E+03  0.41800000000E+01 0.  1.
         -5    1    3    3    0  502 -0.80999309835E+02 -0.68602641699E+01 -0.75145213853E+02  0.11078008387E+03  0.41800000000E+01 0.  1.
        -11    1    1    2    0    0 -0.16037311233E+02 -0.29973193400E+02 -0.56751655678E+02  0.66153897061E+02  0.00000000000E+00 0.  1.
         11    1    1    2    0    0  0.72976447159E+02 -0.10809060333E+02  0.25366385758E+02  0.78011865454E+02  0.00000000000E+00 0. -1.
</event>
<event>
 7    1  0.2728221E-009  0.1172385E+03  0.7561462E-02  0.1247723E+00
          2   -1    0    0  501    0  0.00000000000E+00  0.00000000000E+00  0.46530240213E+02  0.46530240213E+02  0.00000000000E+00 0. -1.
         -2   -1    0    0    0  501 -0.00000000000E+00 -0.00000000000E+00 -0.65525833357E+03  0.65525833357E+03  0.00000000000E+00 0.  1.
         25    2    1    2    0    0 -0.80470164400E+02  0.77000837881E+02 -0.16534215725E+03  0.23534981022E+03  0.12508768050E+03 0.  0.
          5    1    3    3  502    0 -0.55422709548E+02  0.41266973093E+02 -0.53172856749E+01  0.69428997752E+02  0.41800000000E+01 0.  1.
         -5    1    3    3    0  502 -0.25047454853E+02  0.35733864787E+02 -0.16002487158E+03  0.16592081247E+03  0.41800000000E+01 0.  1.
        -11    1    1    2    0    0  0.46935925569E+02 -0.74153205057E+02 -0.40905513358E+03  0.41836321688E+03  0.00000000000E+00 0.  1.
         11    1    1    2    0    0  0.33534238831E+02 -0.28476328236E+01 -0.34330802517E+02  0.48075546676E+02  0.00000000000E+00 0. -1.
</event>
<event>
 7    1  0.2728221E-009  0.7018392E+02  0.7561462E-02  0.1359469E+00
         -2   -1    0    0    0  501 -0.00000000000E+00  0.00000000000E+00  0.33870219019E+02  0.33870219019E+02  0.00000000000E+00 0.  1.
          2   -1    0    0  501    0  0.00000000000E+00 -0.00000000000E+00 -0.41791026697E+03  0.41791026697E+03  0.00000000000E+00 0. -1.
         25    2    1    2    0    0  0.46684353812E+02  0.14975861454E+02 -0.20292327246E+03  0.24337114674E+03  0.12509178728E+03 0.  0.
          5    1    3    3  502    0  0.29644411741E+02  0.12225827481E+02  0.66769194117E+01  0.33019928193E+02  0.41800000000E+01 0. -1.
         -5    1    3    3    0  502  0.17039942071E+02  0.27500339735E+01 -0.20960019187E+03  0.21035121855E+03  0.41800000000E+01 0. -1.
        -11    1    1    2    0    0 -0.67159846064E+02 -0.46023864486E+01 -0.17012600405E+03  0.18296033488E+03  0.00000000000E+00 0. -1.
         11    1    1    2    0    0  0.20475492252E+02 -0.10373475006E+02 -0.10990771444E+02  0.25449004373E+02  0.00000000000E+00 0.  1.
</event>
<event>
 7    1  0.2728221E-009  0.1341454E+03  0.7561462E-02  0.1221431E+00
          1   -1    0    0  501    0  0.00000000000E+00  0.00000000000E+00  0.29562108864E+03  0.29562108864E+03  0.00000000000E+00 0. -1.
         -1   -1    0    0    0  501 -0.00000000000E+00 -0.00000000000E+00 -0.74822512024E+02  0.74822512024E+02  0.00000000000E+00 0.  1.
         25    2    1    2    0    0  0.87679812099E+02  0.18374213513E+02  0.58911932362E+02  0.16475315165E+03  0.12509046340E+03 0.  0.
          5    1    3    3  502    0  0.27396384006E+02  0.68125187895E+02  0.15197944881E+02  0.75100286357E+02  0.41800000000E+01 0.  1.
         -5    1    3    3    0  502  0.60283428093E+02 -0.49750974382E+02  0.43713987480E+02  0.89652865297E+02  0.41800000000E+01 0.  1.
        -11    1    1    2    0    0 -0.30353761574E+02 -0.44181569133E+02  0.11622447132E+03  0.12799019348E+03  0.00000000000E+00 0. -1.
         11    1    1    2    0    0 -0.57326050525E+02  0.25807355621E+02  0.45662172938E+02  0.77700255536E+02  0.00000000000E+00 0.  1.
</event>
<event>
 7    1  0.2728221E-009  0.7125484E+02  0.7561462E-02  0.1355877E+00
         -2   -1    0    0    0  501 -0.00000000000E+00  0.00000000000E+00  0.16686139592E+03  0.16686139592E+03  0.00000000000E+00 0.  1.
          2   -1    0    0  501    0  0.00000000000E+00 -0.00000000000E+00 -0.77215507787E+02  0.77215507787E+02  0.00000000000E+00 0. -1.
         25    2    1    2    0    0 -0.33345257581E+02 -0.20237660836E+01  0.43513583798E+02  0.13659140823E+03  0.12509108279E+03 0.  0.
          5    1    3    3  502    0 -0.45122330459E+02 -0.27042374311E+01 -0.34852621751E+02  0.57232117286E+02  0.41800000000E+01 0.  1.
         -5    1    3    3    0  502  0.11777072878E+02  0.68047134756E+00  0.78366205549E+02  0.79359290943E+02  0.41800000000E+01 0.  1.
        -11    1    1    2    0    0 -0.20464895564E+02 -0.17929124200E+02  0.41874607126E+02  0.49937442535E+02  0.00000000000E+00 0.  1.
         11    1    1    2    0    0  0.53810153145E+02  0.19952890284E+02  0.42576972097E+01  0.57548052944E+02  0.00000000000E+00 0. -1.
</event>
<event>
 6    1  0.2728221E-009  0.1375813E+03  0.7561462E-02  0.1216621E+00
         -1   -1    0    0    0  501 -0.00000000000E+00  0.00000000000E+00  0.54806120530E+02  0.54806120530E+02  0.00000000000E+00 0.  1.
          1   -1    0    0  501    0  0.00000000000E+00 -0.00000000000E+00 -0.36456627296E+03  0.36456627296E+03  0.00000000000E+00 0. -1.
          5    1    1    2  502    0 -0.21924107650E+02  0.44373786103E+02 -0.84676898105E+02  0.98169999806E+02  0.41800000000E+01 0.  1.
         -5    1    1    2    0  502  0.97484889706E+02  0.36644919091E+01 -0.69730272110E+02  0.11998548025E+03  0.41800000000E+01 0.  1.
        -11    1    1    2    0    0 -0.96059218472E+02 -0.47923159350E+02 -0.12874196124E+03  0.16762605776E+03  0.00000000000E+00 0.  1.
         11    1    1    2    0    0  0.20498436416E+02 -0.11511866228E+00 -0.26611020972E+02  0.33590855675E+02  0.00000000000E+00 0. -1.
</event>
<event>
 7    1  0.2728221E-009  0.1184050E+03  0.7561462E-02  0.1245752E+00
          2   -1    0    0  501    0  0.00000000000E+00  0.00000000000E+00  0.31359989779E+03  0.31359989779E+03  0.00000000000E+00 0. -1.
         -2   -1    0    0    0  501 -0.00000000000E+00 -0.00000000000E+00 -0.56486846623E+02  0.56486846623E+02  0.00000000000E+00 0.  1.
         25    2    1    2    0    0 -0.17488568665E+02 -0.74703291480E+01  0.21500817448E+03  0.24946657007E+03  0.12507357290E+03 0.  0.
          5    1    3    3  502    0 -0.38239597593E+02  0.51015451339E+02  0.98790732750E+02  0.11765170792E+03  0.41800000000E+01 0. -1.
         -5    1    3    3    0  502  0.20751028927E+02 -0.58485780487E+02  0.11621744173E+03  0.13181486215E+03  0.41800000000E+01 0. -1.
        -11    1    1    2    0    0 -0.69931942362E+01  0.55961935682E+02  0.92913648420E+01  0.57157435837E+02  0.00000000000E+00 0.  1.
         11    1    1    2    0    0  0.24481762902E+02 -0.48491606534E+02  0.32813511842E+02  0.63462738504E+02  0.00000000000E+00 0. -1.
</event>
<event>
 7    1  0.2728221E-009  0.7235063E+02  0.7561462E-02  0.1352277E+00
         -1   -1    0    0    0  501 -0.00000000000E+00  0.00000000000E+00  0.22232869082E+02  0.22232869082E+02  0.00000000000E+00 0.  1.
          1   -1    0    0  501    0  0.00000000000E+00 -0.00000000000E+00 -0.71018760601E+03  0.71018760601E+03  0.00000000000E+00 0. -1.
         25    2    1    2    0    0 -0.40781018191E+01  0.32866112124E+02 -0.54663556811E+03  0.56174398415E+03  0.12509615166E+03 0.  0.
          5    1    3    3  502    0 -0.11977685766E+02  0.42685361915E+02 -0.58955528701E+02  0.73883231133E+02  0.41800000000E+01 0.  1.
         -5    1    3    3    0  502  0.78995839472E+01 -0.98192497908E+01 -0.48768003941E+03  0.48786075302E+03  0.41800000000E+01 0.  1.
        -11    1    1    2    0    0  0.25193557808E+02 -0.52391159336E+02 -0.12439107171E+03  0.13730508969E+03  0.00000000000E+00 0. -1.
         11    1    1    2    0    0 -0.21115455989E+02  0.19525047212E+02 -0.16928097096E+02  0.33371401252E+02  0.00000000000E+00 0.  1.
</event>
<event>
 7    1  0.2728221E-009  0.1636044E+03  0.7561462E-02  0.1184686E+00
          2   -1    0    0  501    0  0.00000000000E+00  0.00000000000E+00  0.82376965274E+03  0.82376965274E+03  0.00000000000E+00 0. -1.
         -2   -1    0    0    0  501 -0.00000000000E+00 -0.00000000000E+00 -0.44911408691E+02  0.44911408691E+02  0.00000000000E+00 0.  1.
         25    2    1    2    0    0 -0.11379653914E+03 -0.10971072613E+03  0.40085956321E+03  0.44868917161E+03  0.12508991788E+03 0.  0.
          5    1    3    3  502    0 -0.32988177487E+02 -0.72506969448E+02  0.70242942512E+02  0.10628745855E+03  0.41800000000E+01 0.  1.
         -5    1    3    3    0  502 -0.80808361658E+02 -0.37203756683E+02  0.33061662070E+03  0.34240171306E+03  0.41800000000E+01 0.  1.
        -11    1    1    2    0    0  0.85856373561E+02  0.76631538682E+02  0.15625482496E+03  0.19405999053E+03  0.00000000000E+00 0.  1.
         11    1    1    2    0    0  0.27940165583E+02  0.33079187448E+02  0.22174385588E+03  0.22593189929E+03  0.00000000000E+00 0. -1.
</event>
<event>
 7    1  0.2728221E-009  0.1369973E+03  0.7561462E-02  0.1217427E+00
          1   -1    0    0  501    0  0.00000000000E+00  0.00000000000E+00  0.51660725066E+03  0.51660725066E+03  0.00000000000E+00 0. -1.
         -1   -1    0    0    0  501 -0.00000000000E+00 -0.00000000000E+00 -0.47436049335E+02  0.47436049335E+02  0.00000000000E+00 0.  1.
         25    2    1    2    0    0 -0.44544695109E+02 -0.98935353689E+02  0.22285797611E+03  0.27764304159E+03  0.12509015531E+03 0.  0.
          5    1    3    3  502    0 -0.82809854115E+02 -0.33283292799E+02  0.12600608591E+03  0.15446765229E+03  0.41800000000E+01 0.  1.
         -5    1    3    3    0  502  0.38265159007E+02 -0.65652060890E+02  0.96851890204E+02  0.12317538930E+03  0.41800000000E+01 0.  1.
        -11    1    1    2    0    0  0.12040414212E+02  0.23536958433E+02 -0.34011325189E+00  0.26440039026E+02  0.00000000000E+00 0.  1.
         11    1    1    2    0    0  0.32504280897E+02  0.75398395256E+02  0.24665333846E+03  0.25996021938E+03  0.00000000000E+00 0. -1.
</event>
<event>
 7    1  0.2728221E-009  0.6707349E+02  0.7561462E-02  0.1370337E+00
          2   -1    0    0  501    0  0.00000000000E+00  0.00000000000E+00  0.35057702224E+03  0.35057702224E+03  0.00000000000E+00 0. -1.
         -2   -1    0    0    0  501 -0.00000000000E+00 -0.00000000000E+00 -0.37019020551E+02  0.37019020551E+02  0.00000000000E+00 0.  1.
         25    2    1    2    0    0 -0.21675987293E+02  0.27171563265E+02  0.19675762042E+03  0.23573007198E+03  0.12508782263E+03 0.  0.
          5    1    3    3  502    0  0.17073928322E+01  0.22527707947E+02  0.20784263406E+03  0.20910869362E+03  0.41800000000E+01 0. -1.
         -5    1    3    3    0  502 -0.23383380126E+02  0.46438553182E+01 -0.11085013643E+02  0.26621378360E+02  0.41800000000E+01 0. -1.
        -11    1    1    2    0    0  0.51907943633E+02 -0.12641584280E+02  0.10212192197E+03  0.11525246728E+03  0.00000000000E+00 0. -1.
         11    1    1    2    0    0 -0.30231956340E+02 -0.14529978985E+02  0.14678459294E+02  0.36613503529E+02  0.00000000000E+00 0.  1.
</event>
<event>
 7    1  0.2728221E-009  0.1407592E+03  0.7561462E-02  0.1212311E+00
          1   -1    0    0  501    0  0.00000000000E+00  0.00000000000E+00  0.66697658287E+02  0.66697658287E+02  0.00000000000E+00 0. -1.
         -1   -1    0    0    0  501 -0.00000000000E+00 -0.00000000000E+00 -0.33025868743E+03  0.33025868743E+03  0.00000000000E+00 0.  1.
         25    2    1    2    0    0 -0.74522550291E+02  0.63398624518E+02 -0.11233143511E+03  0.19453024436E+03  0.12510263212E+03 0.  0.
          5    1    3    3  502    0 -0.95055796431E+02  0.85275593782E+02 -0.82985243628E+02  0.15235338654E+03  0.41800000000E+01 0. -1.
         -5    1    3    3    0  502  0.20533246140E+02 -0.21876969263E+02 -0.29346191479E+02  0.42176857819E+02  0.41800000000E+01 0. -1.
        -11    1    1    2    0    0  0.88950964376E+02 -0.43885897894E+02 -0.80801085700E+02  0.12793381706E+03  0.00000000000E+00 0. -1.
         11    1    1    2    0    0 -0.14428414085E+02 -0.19512726624E+02 -0.70428508332E+02  0.74492284293E+02  0.00000000000E+00 0.  1.
</event>
<event>
 7    1  0.2728221E-009  0.9869622E+02  0.7561462E-02  0.1283062E+00
          2   -1    0    0  501    0  0.00000000000E+00  0.00000000000E+00  0.27967217334E+03  0.27967217334E+03  0.00000000000E+00 0. -1.
         -2   -1    0    0    0  501 -0.00000000000E+00 -0.00000000000E+00 -0.52351403516E+02  0.52351403516E+02  0.00000000000E+00 0.  1.
         25    2    1    2    0    0  0.29228301471E+02  0.45601464293E+02  0.12485310294E+03  0.18485145396E+03  0.12509186850E+03 0.  0.
          5    1    3    3  502    0  0.25885661691E+02 -0.16559606909E+02 -0.12930613168E+02  0.33600018140E+02  0.41800000000E+01 0.  1.
         -5    1    3    3    0  502  0.33426397804E+01  0.62161071202E+02  0.13778371611E+03  0.15125143582E+03  0.41800000000E+01 0.  1.
        -11    1    1    2    0    0 -0.57271727963E+02 -0.49471241569E+02  0.62262699940E+02  0.98000501886E+02  0.00000000000E+00 0.  1.
         11    1    1    2    0    0  0.28043426492E+02  0.38697772757E+01  0.40204966937E+02  0.49171621002E+02  0.00000000000E+00 0. -1.
</event>
<event>
 7    1  0.2728221E-009  0.9801936E+02  0.7561462E-02  0.1284517E+00
         -4   -1    0    0    0  501 -0.00000000000E+00  0.00000000000E+00  0.49257913234E+03  0.49257913234E+03  0.00000000000E+00 0.  1.
          4   -1    0    0  501    0  0.00000000000E+00 -0.00000000000E+00 -0.32536782579E+02  0.32536782579E+02  0.00000000000E+00 0. -1.
         25    2    1    2    0    0 -0.46120096341E+02 -0.38148524303E+02  0.19446714792E+03  0.23884420289E+03  0.12508680362E+03 0.  0.
          5    1    3    3  502    0  0.25146739205E+02 -0.88583564533E+01 -0.26934667046E+01  0.27121138151E+02  0.41800000000E+01 0.  1.
         -5    1    3    3    0  502 -0.71266835546E+02 -0.29290167850E+02  0.19716061462E+03  0.21172306473E+03  0.41800000000E+01 0.  1.
        -11    1    1    2    0    0  0.54281129725E+02  0.14587028310E+01  0.78453312287E+02  0.95412216550E+02  0.00000000000E+00 0. -1.
         11    1    1    2    0    0 -0.81610333841E+01  0.36689821473E+02  0.18712188955E+03  0.19085949548E+03  0.00000000000E+00 0.  1.
</event>
<event>
 7    1  0.2728221E-009  0.1840550E+03  0.7561462E-02  0.1163935E+00
         -1   -1    0    0    0  501 -0.00000000000E+00  0.00000000000E+00  0.43811090416E+03  0.43811090416E+03  0.00000000000E+00 0.  1.
          1   -1    0    0  501    0  0.00000000000E+00 -0.00000000000E+00 -0.84784869148E+02  0.84784869148E+02  0.00000000000E+00 0. -1.
         25    2    1    2    0    0  0.15025904125E+03  0.38758225644E+02  0.14328939686E+03  0.24547718318E+03  0.12508883514E+03 0.  0.
          5    1    3    3  502    0  0.15473910912E+03  0.59491928828E+02  0.14918993096E+03  0.22306633406E+03  0.41800000000E+01 0.  1.
         -5    1    3    3    0  502 -0.44800678681E+01 -0.20733703184E+02 -0.59005341062E+01  0.22410849126E+02  0.41800000000E+01 0.  1.
        -11    1    1    2    0    0 -0.47673818681E+02  0.30758478298E+02  0.55929615547E+02  0.79668054263E+02  0.00000000000E+00 0. -1.
         11    1    1    2    0    0 -0.10258522257E+03 -0.69516703942E+02  0.15410702261E+03  0.19775053586E+03  0.00000000000E+00 0.  1.
</event>
<event>
 7    1  0.2728221E-009  0.9815080E+02  0.7561462E-02  0.1284233E+00
         -4   -1    0    0    0  501 -0.00000000000E+00  0.00000000000E+00  0.61095485040E+02  0.61095485040E+02  0.00000000000E+00 0.  1.
          4   -1    0    0  501    0  0.00000000000E+00 -0.00000000000E+00 -0.24367236500E+03  0.24367236500E+03  0.00000000000E+00 0. -1.
         25    2    1    2    0    0  0.11082727095E+02  0.44056604004E+02 -0.14874727048E+03  0.19959495432E+03  0.12509430090E+03 0.  0.
          5    1    3    3  502    0  0.54149751071E+02 -0.16251485593E+02 -0.46930926421E+02  0.73595452167E+02  0.41800000000E+01 0.  1.
         -5    1    3    3    0  502 -0.43067023976E+02  0.60308089597E+02 -0.10181634405E+03  0.12599950215E+03  0.41800000000E+01 0.  1.
        -11    1    1    2    0    0 -0.20659372061E+02 -0.36992474608E+00 -0.52718848953E+02  0.56623524557E+02  0.00000000000E+00 0. -1.
         11    1    1    2    0    0  0.95766449663E+01 -0.43686679258E+02  0.18889239466E+02  0.48549371170E+02  0.00000000000E+00 0.  1.
</event>
<event>
 7    1  0.2728221E-009  0.1693332E+03  0.7561462E-02  0.1178545E+00
          2   -1    0    0  501    0  0.00000000000E+00  0.00000000000E+00  0.61448403367E+03  0.61448403367E+03  0.00000000000E+00 0. -1.
         -2   -1    0    0    0  501 -0.00000000000E+00 -0.00000000000E+00 -0.61690425167E+02  0.61690425167E+02  0.00000000000E+00 0.  1.
         25    2    1    2    0    0  0.12678029287E+03 -0.48043100900E+02  0.44073456091E+03  0.47776871453E+03  0.12503843088E+03 0.  0.
          5    1    3    3  502    0 -0.21143612759E+02  0.42831121858E+01  0.10333809423E+03  0.10564862294E+03  0.41800000000E+01 0.  1.
         -5    1    3    3    0  502  0.14792390563E+03 -0.52326213086E+02  0.33739646668E+03  0.37212009159E+03  0.41800000000E+01 0.  1.
        -11    1    1    2    0    0 -0.59231856918E+01  0.37997537952E+02  0.47181572286E+02  0.60868692959E+02  0.00000000000E+00 0. -1.
         11    1    1    2    0    0 -0.12085710718E+03  0.10045562948E+02  0.64877475305E+02  0.13753705135E+03  0.00000000000E+00 0.  1.
</event>
<event>
 7    1  0.2728221E-009  0.1032915E+03  0.7561462E-02  0.1273523E+00
          4   -1    0    0  501    0  0.00000000000E+00  0.00000000000E+00  0.26050312821E+03  0.26050312821E+03  0.00000000000E+00 0. -1.
         -4   -1    0    0    0  501 -0.00000000000E+00 -0.00000000000E+00 -0.90156908050E+02  0.90156908050E+02  0.00000000000E+00 0.  1.
         25    2    1    2    0    0 -0.30831127962E+02 -0.28955224367E+02  0.20601057291E+03  0.24470424065E+03  0.12510334037E+03 0.  0.
          5    1    3    3  502    0  0.25246711081E+02  0.36640588731E+02  0.84736933602E+02  0.95800571394E+02  0.41800000000E+01 0.  1.
         -5    1    3    3    0  502 -0.56077839043E+02 -0.65595813098E+02  0.12127363930E+03  0.14890366926E+03  0.41800000000E+01 0.  1.
        -11    1    1    2    0    0  0.11825706069E+02 -0.19855346791E+02 -0.46989789855E+02  0.52365279249E+02  0.00000000000E+00 0.  1.
         11    1    1    2    0    0  0.19005421892E+02  0.48810571158E+02  0.11325437107E+02  0.53590516360E+02  0.00000000000E+00 0. -1.
</event>
<event>
 7    1  0.2728221E-009  0.1144174E+03  0.7561462E-02  0.1252601E+00
         -2   -1    0    0    0  501 -0.00000000000E+00  0.00000000000E+00  0.32115216683E+03  0.32115216683E+03  0.00000000000E+00 0.  1.
          2   -1    0    0  501    0  0.00000000000E+00 -0.00000000000E+00 -0.72211057204E+02  0.72211057204E+02  0.00000000000E+00 0. -1.
         25    2    1    2    0    0  0.59180934318E+02 -0.81942552529E+02  0.17751398713E+03  0.23953319529E+03  0.12509185072E+03 0.  0.
          5    1    3    3  502    0  0.76142044346E+02 -0.50508869705E+02  0.44450685124E+02  0.10169607979E+03  0.41800000000E+01 0.  1.
         -5    1    3    3    0  502 -0.16961110029E+02 -0.31433682824E+02  0.13306330200E+03  0.13783711550E+03  0.41800000000E+01 0.  1.
        -11    1    1    2    0    0 -0.45647807048E+02  0.68617655089E+02  0.26263647813E+01  0.82456065090E+02  0.00000000000E+00 0.  1.
         11    1    1    2    0    0 -0.13533127270E+02  0.13324897440E+02  0.68800757719E+02  0.71373963657E+02  0.00000000000E+00 0. -1.
</event>
<event>
 7    1  0.2728221E-009  0.1101869E+03  0.7561462E-02  0.1260224E+00
          2   -1    0    0  501    0  0.00000000000E+00  0.00000000000E+00  0.13630224921E+04  0.13630224921E+04  0.00000000000E+00 0. -1.
         -2   -1    0    0    0  501 -0.00000000000E+00 -0.00000000000E+00 -0.13554104749E+02  0.13554104749E+02  0.00000000000E+00 0.  1.
         25    2    1    2    0    0 -0.53730703597E+02 -0.64608807968E+02  0.72765369379E+03  0.74309341122E+03  0.12508650259E+03 0.  0.
          5    1    3    3  502    0 -0.10964680306E+01 -0.50181191740E+02  0.62261425626E+03  0.62464817197E+03  0.41800000000E+01 0.  1.
         -5    1    3    3    0  502 -0.52634235566E+02 -0.14427616228E+02  0.10503943753E+03  0.11844523925E+03  0.41800000000E+01 0.  1.
        -11    1    1    2    0    0  0.46588354551E+02  0.83199783366E+02  0.57095939077E+03  0.57886725995E+03  0.00000000000E+00 0. -1.
         11    1    1    2    0    0  0.71423490461E+01 -0.18590975398E+02  0.50855302754E+02  0.54615925647E+02  0.00000000000E+00 0.  1.
</event>
<event>
 7    1  0.2728221E-009  0.8407715E+02  0.7561462E-02  0.1317864E+00
         -2   -1    0    0    0  501 -0.00000000000E+00  0.00000000000E+00  0.28067091455E+03  0.28067091455E+03  0.00000000000E+00 0.  1.
          2   -1    0    0  501    0  0.00000000000E+00 -0.00000000000E+00 -0.43918979489E+02  0.43918979489E+02  0.00000000000E+00 0. -1.
         25    2    1    2    0    0  0.16914666889E+02 -0.13696344404E+02  0.12338175708E+03  0.17703994282E+03  0.12508552101E+03 0.  0.
          5    1    3    3  502    0  0.59173840653E+02 -0.15568256359E+02  0.18795258220E+02  0.64145523267E+02  0.41800000000E+01 0.  1.
         -5    1    3    3    0  502 -0.42259173764E+02  0.18719119553E+01  0.10458649886E+03  0.11289441955E+03  0.41800000000E+01 0.  1.
        -11    1    1    2    0    0 -0.38097252362E+02  0.18866831999E+02  0.12446272310E+02  0.44297490692E+02  0.00000000000E+00 0. -1.
         11    1    1    2    0    0  0.21182585473E+02 -0.51704875949E+01  0.10092390567E+03  0.10325246052E+03  0.00000000000E+00 0.  1.
</event>
<event>
 7    1  0.2728221E-009  0.1265888E+03  0.7561462E-02  0.1232607E+00
          1   -1    0    0  501    0  0.00000000000E+00  0.00000000000E+00  0.29306051681E+03  0.29306051681E+03  0.00000000000E+00 0. -1.
         -1   -1    0    0    0  501 -0.00000000000E+00 -0.00000000000E+00 -0.79621463667E+02  0.79621463667E+02  0.00000000000E+00 0.  1.
         25    2    1    2    0    0 -0.65148818714E+02 -0.73428949384E+02  0.66642243472E+02  0.17241485327E+03  0.12509801688E+03 0.  0.
          5    1    3    3  502    0  0.19668658333E+02 -0.61058161034E+02  0.57257861005E+02  0.86086527380E+02  0.41800000000E+01 0.  1.
         -5    1    3    3    0  502 -0.84817477048E+02 -0.12370788351E+02  0.93843824670E+01  0.86328325893E+02  0.41800000000E+01 0.  1.
        -11    1    1    2    0    0  0.33144547581E+02  0.14836803577E+02  0.12479654449E+03  0.12997257130E+03  0.00000000000E+00 0. -1.
         11    1    1    2    0    0  0.32004271133E+02  0.58592145808E+02  0.22000265179E+02  0.70294555899E+02  0.00000000000E+00 0.  1.
</event>
<event>
 7    1  0.2728221E-009  0.2075840E+03  0.7561462E-02  0.1143494E+00
          2   -1    0    0  501    0  0.00000000000E+00  0.00000000000E+00  0.57950001487E+03  0.57950001487E+03  0.00000000000E+00 0. -1.
         -2   -1    0    0    0  501 -0.00000000000E+00 -0.00000000000E+00 -0.82996741924E+02  0.82996741924E+02  0.00000000000E+00 0.  1.
         25    2    1    2    0    0  0.82023888109E+02  0.16293524908E+03  0.35145771938E+03  0.41526771882E+03  0.12509570805E+03 0.  0.
          5    1    3    3  502    0  0.21078858756E+02 -0.16323516514E+02  0.20248796487E+02  0.33738133276E+02  0.41800000000E+01 0.  1.
         -5    1    3    3    0  502  0.60945029353E+02  0.17925876559E+03  0.33120892289E+03  0.38152958555E+03  0.41800000000E+01 0.  1.
        -11    1    1    2    0    0 -0.97844367386E+02 -0.13556701185E+03  0.13206227348E+03  0.21305487323E+03  0.00000000000E+00 0.  1.
         11    1    1    2    0    0  0.15820479278E+02 -0.27368237228E+02  0.12983280079E+02  0.34174164733E+02  0.00000000000E+00 0. -1.
</event>
<event>
 7    1  0.2728221E-009  0.1295512E+03  0.7561462E-02  0.1228123E+00
          1   -1    0    0  501    0  0.00000000000E+00  0.00000000000E+00  0.25654800843E+02  0.25654800843E+02  0.00000000000E+00 0. -1.
         -1   -1    0    0    0  501 -0.00000000000E+00 -0.00000000000E+00 -0.77598553683E+03  0.77598553683E+03  0.00000000000E+00 0.  1.
         25    2    1    2    0    0 -0.82978500256E+02 -0.31813724217E+02 -0.42930456524E+03  0.45590233409E+03  0.12508790483E+03 0.  0.
          5    1    3    3  502    0  0.32088800461E+02 -0.89033035611E+01 -0.13344866658E+03  0.13760442922E+03  0.41800000000E+01 0. -1.
         -5    1    3    3    0  502 -0.11506730072E+03 -0.22910420656E+02 -0.29585589867E+03  0.31829790487E+03  0.41800000000E+01 0. -1.
        -11    1    1    2    0    0  0.45416353307E+02 -0.15264395105E+02 -0.24024755963E+03  0.24497864563E+03  0.00000000000E+00 0.  1.
         11    1    1    2    0    0  0.37562146949E+02  0.47078119322E+02 -0.80778611109E+02  0.10075935795E+03  0.00000000000E+00 0. -1.
</event>
<event>
 7    1  0.2728221E-009  0.1114950E+03  0.7561462E-02  0.1257826E+00
          2   -1    0    0  501    0  0.00000000000E+00  0.00000000000E+00  0.41589984369E+03  0.41589984369E+03  0.00000000000E+00 0. -1.
         -2   -1    0    0    0  501 -0.00000000000E+00 -0.00000000000E+00 -0.48389891120E+02  0.48389891120E+02  0.00000000000E+00 0.  1.
         25    2    1    2    0    0  0.78269543828E+02 -0.40959659355E+02  0.23585076340E+03  0.28120634593E+03  0.12509041214E+03 0.  0.
          5    1    3    3  502    0  0.67665223914E+02 -0.69718105910E+02  0.23001330469E+03  0.24972542833E+03  0.41800000000E+01 0.  1.
         -5    1    3    3    0  502  0.10604319914E+02  0.28758446555E+02  0.58374587143E+01  0.31480917607E+02  0.41800000000E+01 0.  1.
        -11    1    1    2    0    0 -0.78531343153E+02  0.30342481581E+02  0.14399818439E+03  0.16680322285E+03  0.00000000000E+00 0. -1.
         11    1    1    2    0    0  0.26179932529E+00  0.10617177774E+02 -0.12338995222E+02  0.16280166027E+02  0.00000000000E+00 0.  1.
</event>
<event>
 7    1  0.3037636E-009  0.9049390E+02  0.7561462E-02  0.1301660E+00
         -3   -1    0    0    0  501 -0.00000000000E+00  0.00000000000E+00  0.36615328690E+02  0.36615328690E+02  0.00000000000E+00 0.  1.
          3   -1    0    0  501    0  0.00000000000E+00 -0.00000000000E+00 -0.43279530987E+03  0.43279530987E+03  0.00000000000E+00 0. -1.
         25    2    1    2    0    0 -0.43255345705E+01 -0.36162904651E+02 -0.31744292973E+03  0.34313875354E+03  0.12509086548E+03 0.  0.
          5    1    3    3  502    0 -0.49888005441E+02 -0.19160270991E+02 -0.26929036538E+03  0.27457367383E+03  0.41800000000E+01 0.  1.
         -5    1    3    3    0  502  0.45562470870E+02 -0.17002633660E+02 -0.48152564346E+02  0.68565079714E+02  0.41800000000E+01 0.  1.
        -11    1    1    2    0    0  0.31069387369E+02  0.40951525543E+02 -0.10009698627E+02  0.52369154494E+02  0.00000000000E+00 0.  1.
         11    1    1    2    0    0 -0.26743852799E+02 -0.47886208919E+01 -0.68727352821E+02  0.73902730520E+02  0.00000000000E+00 0. -1.
</event>
<event>
 7    1  0.2974413E-009  0.1129623E+03  0.7561462E-02  0.1255180E+00
         -1   -1    0    0    0  501 -0.00000000000E+00  0.00000000000E+00  0.35759688826E+02  0.35759688826E+02  0.00000000000E+00 0.  1.
          1   -1    0    0  501    0  0.00000000000E+00 -0.00000000000E+00 -0.41360110158E+03  0.41360110158E+03  0.00000000000E+00 0. -1.
         25    2    1    2    0    0  0.28526250975E+02 -0.25468937077E+02 -0.13804060677E+03  0.19016930916E+03  0.12508694287E+03 0.  0.
          5    1    3    3  502    0  0.52652941571E+02 -0.65234368983E+02 -0.93232883482E+02  0.12544998252E+03  0.41800000000E+01 0.  1.
         -5    1    3    3    0  502 -0.24126690595E+02  0.39765431906E+02 -0.44807723290E+02  0.64719326636E+02  0.41800000000E+01 0.  1.
        -11    1    1    2    0    0 -0.59912676195E+02  0.11843443990E+02 -0.18255110737E+03  0.19249598109E+03  0.00000000000E+00 0.  1.
         11    1    1    2    0    0  0.31386425219E+02  0.13625493086E+02 -0.57249698616E+02  0.66695500159E+02  0.00000000000E+00 0. -1.
</event>
<event>
 7    1  0.2728221E-009  0.1303611E+03  0.7561462E-02  0.1226921E+00
         -2   -1    0    0    0  501 -0.00000000000E+00  0.00000000000E+00  0.29633624926E+02  0.29633624926E+02  0.00000000000E+00 0. -1.
          2   -1    0    0  501    0  0.00000000000E+00 -0.00000000000E+00 -0.68360587082E+03  0.68360587082E+03  0.00000000000E+00 0.  1.
         25    2    1    2    0    0 -0.47467365818E+02  0.72927494123E+02 -0.32034699775E+03  0.35474125378E+03  0.12509031916E+03 0.  0.
          5    1    3    3  502    0 -0.81927521641E+02  0.35382092060E+02 -0.26373243786E+03  0.27845337566E+03  0.41800000000E+01 0. -1.
         -5    1    3    3    0  502  0.34460155823E+02  0.37545402063E+02 -0.56614559899E+02  0.76287878119E+02  0.41800000000E+01 0. -1.
        -11    1    1    2    0    0  0.68092270595E+02 -0.33801850710E+02 -0.27342942257E+03  0.28380058413E+03  0.00000000000E+00 0.  1.
         11    1    1    2    0    0 -0.20624904776E+02 -0.39125643413E+02 -0.60195825565E+02  0.74697657827E+02  0.00000000000E+00 0. -1.
</event>
<event>
 7    1  0.2728221E-009  0.8070624E+02  0.7561462E-02  0.1327059E+00
         -1   -1    0    0    0  501 -0.00000000000E+00  0.00000000000E+00  0.34835972976E+03  0.34835972976E+03  0.00000000000E+00 0.  1.
          1   -1    0    0  501    0  0.00000000000E+00 -0.00000000000E+00 -0.45784931077E+02  0.45784931077E+02  0.00000000000E+00 0. -1.
         25    2    1    2    0    0  0.17543032238E+02  0.51363548024E+02  0.21789585199E+03  0.25704250986E+03  0.12508508110E+03 0.  0.
          5    1    3    3  502    0  0.18943845515E+02  0.68550081342E+02  0.47273131283E+02  0.85499732609E+02  0.41800000000E+01 0. -1.
         -5    1    3    3    0  502 -0.14008132772E+01 -0.17186533318E+02  0.17062272071E+03  0.17154277725E+03  0.41800000000E+01 0. -1.
        -11    1    1    2    0    0  0.84279421912E+00 -0.53865458688E+02  0.36717741098E+01  0.53997035723E+02  0.00000000000E+00 0. -1.
         11    1    1    2    0    0 -0.18385826457E+02  0.25019106643E+01  0.81007172580E+02  0.83105115251E+02  0.00000000000E+00 0.  1.
</event>
<event>
 7    1  0.2728221E-009  0.1247304E+03  0.7561462E-02  0.1235491E+00
         -2   -1    0    0    0  501 -0.00000000000E+00  0.00000000000E+00  0.49586056920E+02  0.49586056920E+02  0.00000000000E+00 0.  1.
          2   -1    0    0  501    0  0.00000000000E+00 -0.00000000000E+00 -0.63319145220E+03  0.63319145220E+03  0.00000000000E+00 0. -1.
         25    2    1    2    0    0 -0.35665709371E+02  0.87385632132E+02 -0.50601520239E+03  0.52972265849E+03  0.12508564401E+03 0.  0.
          5    1    3    3  502    0  0.24420263094E+02  0.32371390598E+02 -0.41769346485E+02  0.58364431674E+02  0.41800000000E+01 0. -1.
         -5    1    3    3    0  502 -0.60085972465E+02  0.55014241534E+02 -0.46424585591E+03  0.47135822681E+03  0.41800000000E+01 0. -1.
        -11    1    1    2    0    0  0.62635062709E+02 -0.74200156489E+02 -0.40174666165E+02  0.10508481386E+03  0.00000000000E+00 0.  1.
         11    1    1    2    0    0 -0.26969353338E+02 -0.13185475643E+02 -0.37415526721E+02  0.47970036764E+02  0.00000000000E+00 0. -1.
</event>
<event>
 7    1  0.2728221E-009  0.1566362E+03  0.7561462E-02  0.1192548E+00
          1   -1    0    0  501    0  0.00000000000E+00  0.00000000000E+00  0.85527971734E+03  0.85527971734E+03  0.00000000000E+00 0. -1.
         -1   -1    0    0    0  501 -0.00000000000E+00 -0.00000000000E+00 -0.47284897017E+02  0.47284897017E+02  0.00000000000E+00 0.  1.
         25    2    1    2    0    0  0.29817074865E+02 -0.13415516307E+03  0.20334377431E+03  0.27546573784E+03  0.12508403752E+03 0.  0.
          5    1    3    3  502    0  0.48350542983E+02 -0.96793259578E+02  0.55259927642E+02  0.12156414813E+03  0.41800000000E+01 0.  1.
         -5    1    3    3    0  502 -0.18533468118E+02 -0.37361903494E+02  0.14808384666E+03  0.15390158971E+03  0.41800000000E+01 0.  1.
        -11    1    1    2    0    0  0.31340692668E+02  0.50905833910E+02  0.16560564290E+03  0.17606496501E+03  0.00000000000E+00 0. -1.
         11    1    1    2    0    0 -0.61157767533E+02  0.83249329163E+02  0.43904540312E+03  0.45103391151E+03  0.00000000000E+00 0.  1.
</event>
<event>
 7    1  0.2728221E-009  0.1229378E+03  0.7561462E-02  0.1238328E+00
          1   -1    0    0  501    0  0.00000000000E+00  0.00000000000E+00  0.94002747508E+03  0.94002747508E+03  0.00000000000E+00 0. -1.
         -1   -1    0    0    0  501 -0.00000000000E+00 -0.00000000000E+00 -0.29063422376E+02  0.29063422376E+02  0.00000000000E+00 0.  1.
         25    2    1    2    0    0 -0.56637638328E+01 -0.93902521697E+02  0.71083857837E+03  0.72786601535E+03  0.12509072709E+03 0.  0.
          5    1    3    3  502    0  0.13555028173E+02  0.20052815777E+01  0.43380831378E+03  0.43404479659E+03  0.41800000000E+01 0.  1.
         -5    1    3    3    0  502 -0.19218792006E+02 -0.95907803275E+02  0.27703026459E+03  0.29382121876E+03  0.41800000000E+01 0.  1.
        -11    1    1    2    0    0 -0.16072416478E+02 -0.15366343827E+02  0.45509980973E+02  0.50651806110E+02  0.00000000000E+00 0. -1.
         11    1    1    2    0    0  0.21736180311E+02  0.10926886552E+03  0.15461549336E+03  0.19057307600E+03  0.00000000000E+00 0.  1.
</event>
<event>
 7    1  0.2728221E-009  0.8394894E+02  0.7561462E-02  0.1318204E+00
          1   -1    0    0  501    0  0.00000000000E+00  0.00000000000E+00  0.24844249807E+03  0.24844249807E+03  0.00000000000E+00 0. -1.
         -1   -1    0    0    0  501 -0.00000000000E+00 -0.00000000000E+00 -0.81768481276E+02  0.81768481276E+02  0.00000000000E+00 0.  1.
         25    2    1    2    0    0 -0.30779366805E+02  0.10745315998E+02 -0.86978640510E+01  0.12956420147E+03  0.12509355789E+03 0.  0.
          5    1    3    3  502    0  0.12051208559E+02 -0.29239671617E+02  0.41465788862E+02  0.52317053338E+02  0.41800000000E+01 0. -1.
         -5    1    3    3    0  502 -0.42830575363E+02  0.39984987615E+02 -0.50163652913E+02  0.77247148129E+02  0.41800000000E+01 0. -1.
        -11    1    1    2    0    0  0.47593526015E+02  0.11890805041E+02  0.16232729765E+03  0.16957796592E+03  0.00000000000E+00 0. -1.
         11    1    1    2    0    0 -0.16814159211E+02 -0.22636121039E+02  0.13044583190E+02  0.31068811954E+02  0.00000000000E+00 0.  1.
</event>
<event>
 7    1  0.2728221E-009  0.1633829E+03  0.7561462E-02  0.1184930E+00
          2   -1    0    0  501    0  0.00000000000E+00  0.00000000000E+00  0.10571186793E+04  0.10571186793E+04  0.00000000000E+00 0.  1.
         -2   -1    0    0    0  501 -0.00000000000E+00 -0.00000000000E+00 -0.48053334496E+02  0.48053334496E+02  0.00000000000E+00 0. -1.
         25    2    1    2    0    0 -0.14062807644E+03  0.66266123563E+01  0.86059772783E+03  0.88096311553E+03  0.12508954356E+03 0.  0.
          5    1    3    3  502    0 -0.30379298088E+02 -0.38518918226E+02  0.10440131719E+03  0.11542840311E+03  0.41800000000E+01 0.  1.
         -5    1    3    3    0  502 -0.11024877835E+03  0.45145530583E+02  0.75619641063E+03  0.76553471242E+03  0.41800000000E+01 0.  1.
        -11    1    1    2    0    0  0.79425782545E+02  0.32353025017E+02  0.11712715132E+03  0.14516866996E+03  0.00000000000E+00 0.  1.
         11    1    1    2    0    0  0.61202293895E+02 -0.38979637373E+02  0.31340465699E+02  0.79040228352E+02  0.00000000000E+00 0. -1.
</event>
<event>
 7    1  0.2728221E-009  0.1129143E+03  0.7561462E-02  0.1255266E+00
         -3   -1    0    0    0  501 -0.00000000000E+00  0.00000000000E+00  0.48927793717E+03  0.48927793717E+03  0.00000000000E+00 0.  1.
          3   -1    0    0  501    0  0.00000000000E+00 -0.00000000000E+00 -0.29489985884E+02  0.29489985884E+02  0.00000000000E+00 0. -1.
         25    2    1    2    0    0 -0.24450339375E+02  0.23992786284E+02  0.34250116651E+03  0.36623637440E+03  0.12509420441E+03 0.  0.
          5    1    3    3  502    0  0.47422558476E+02 -0.11955368694E+02  0.13825342524E+03  0.14670825431E+03  0.41800000000E+01 0.  1.
         -5    1    3    3    0  502 -0.71872897851E+02  0.35948154977E+02  0.20424774127E+03  0.21952812008E+03  0.41800000000E+01 0.  1.
        -11    1    1    2    0    0 -0.12122310437E+02 -0.49966744109E+02  0.74651619777E+02  0.90644857894E+02  0.00000000000E+00 0.  1.
         11    1    1    2    0    0  0.36572649812E+02  0.25973957825E+02  0.42635164993E+02  0.61886690761E+02  0.00000000000E+00 0. -1.
</event>
<event>
 7    1  0.2728221E-009  0.1281568E+03  0.7561462E-02  0.1230217E+00
         -1   -1    0    0    0  501 -0.00000000000E+00  0.00000000000E+00  0.17487124626E+03  0.17487124626E+03  0.00000000000E+00 0.  1.
          1   -1    0    0  501    0  0.00000000000E+00 -0.00000000000E+00 -0.11793030493E+03  0.11793030493E+03  0.00000000000E+00 0. -1.
         25    2    1    2    0    0 -0.88455617562E+02 -0.35237575659E+01  0.53800087504E+00  0.15324650454E+03  0.12508952220E+03 0.  0.
          5    1    3    3  502    0  0.15169567148E+02  0.37060806498E+02  0.99740591092E+01  0.41479795092E+02  0.41800000000E+01 0.  1.
         -5    1    3    3    0  502 -0.10362518471E+03 -0.40584564064E+02 -0.94360582342E+01  0.11176670945E+03  0.41800000000E+01 0.  1.
        -11    1    1    2    0    0  0.29961718308E+02  0.28248298185E+02  0.63470559930E+02  0.75658329959E+02  0.00000000000E+00 0.  1.
         11    1    1    2    0    0  0.58493899254E+02 -0.24724540619E+02 -0.70676194702E+01  0.63896716690E+02  0.00000000000E+00 0. -1.
</event>
<event>
 7    1  0.2728221E-009  0.1094620E+03  0.7561462E-02  0.1261569E+00
          1   -1    0    0  501    0  0.00000000000E+00  0.00000000000E+00  0.31818618254E+03  0.31818618254E+03  0.00000000000E+00 0. -1.
         -1   -1    0    0    0  501 -0.00000000000E+00 -0.00000000000E+00 -0.55153661361E+02  0.55153661361E+02  0.00000000000E+00 0.  1.
         25    2    1    2    0    0 -0.62114629654E+02  0.80224193546E+01  0.19774811877E+03  0.24222814137E+03  0.12509023769E+03 0.  0.
          5    1    3    3  502    0  0.13324563109E+01 -0.35526572422E+02  0.14371339528E+03  0.14810444008E+03  0.41800000000E+01 0.  1.
         -5    1    3    3    0  502 -0.63447085965E+02  0.43548991777E+02  0.54034723490E+02  0.94123701292E+02  0.41800000000E+01 0.  1.
        -11    1    1    2    0    0  0.83404886991E+02 -0.12405975284E+02  0.69129390214E+02  0.10903740637E+03  0.00000000000E+00 0. -1.
         11    1    1    2    0    0 -0.21290257336E+02  0.43835559295E+01 -0.38449878004E+01  0.22074296166E+02  0.00000000000E+00 0.  1.
</event>
<event>
 7    1  0.2728221E-009  0.1416502E+03  0.7561462E-02  0.1211126E+00
         -2   -1    0    0    0  501 -0.00000000000E+00  0.00000000000E+00  0.25088444706E+02  0.25088444706E+02  0.00000000000E+00 0.  1.
          2   -1    0    0  501    0  0.00000000000E+00 -0.00000000000E+00 -0.11600994492E+04  0.11600994492E+04  0.00000000000E+00 0. -1.
         25    2    1    2    0    0 -0.91398102471E+02  0.89929046243E+02 -0.73804114781E+03  0.75946924754E+03  0.12509178873E+03 0.  0.
          5    1    3    3  502    0 -0.41466339346E+02  0.16382875693E+02 -0.56268409121E+02  0.71912879095E+02  0.41800000000E+01 0.  1.
         -5    1    3    3    0  502 -0.49931763125E+02  0.73546170551E+02 -0.68177273869E+03  0.68755636845E+03  0.41800000000E+01 0.  1.
        -11    1    1    2    0    0  0.24519642650E+02  0.12248059348E+02 -0.11885059765E+03  0.12197004712E+03  0.00000000000E+00 0. -1.
         11    1    1    2    0    0  0.66878459821E+02 -0.10217710559E+03 -0.27811925902E+03  0.30374859923E+03  0.00000000000E+00 0.  1.
</event>
<event>
 7    1  0.2728221E-009  0.2675984E+03  0.7561462E-02  0.1102662E+00
          2   -1    0    0  501    0  0.00000000000E+00  0.00000000000E+00  0.13888897588E+04  0.13888897588E+04  0.00000000000E+00 0. -1.
         -2   -1    0    0    0  501 -0.00000000000E+00 -0.00000000000E+00 -0.60397069416E+02  0.60397069416E+02  0.00000000000E+00 0.  1.
         25    2    1    2    0    0  0.11934898252E+03  0.22056924047E+03  0.91675735862E+03  0.95863780872E+03  0.12508966483E+03 0.  0.
          5    1    3    3  502    0 -0.18582712703E+01  0.90300250638E+02  0.45222741098E+03  0.46117750604E+03  0.41800000000E+01 0.  1.
         -5    1    3    3    0  502  0.12120725379E+03  0.13026898984E+03  0.46452994764E+03  0.49746030268E+03  0.41800000000E+01 0.  1.
        -11    1    1    2    0    0 -0.59143845323E+02 -0.19055767000E+03  0.31228623920E+03  0.37058455881E+03  0.00000000000E+00 0.  1.
         11    1    1    2    0    0 -0.60205137194E+02 -0.30011570475E+02  0.99449091549E+02  0.12006446067E+03  0.00000000000E+00 0. -1.
</event>
<event>
 7    1  0.2728221E-009  0.1418718E+03  0.7561462E-02  0.1210832E+00
          2   -1    0    0  501    0  0.00000000000E+00  0.00000000000E+00  0.66016491280E+03  0.66016491280E+03  0.00000000000E+00 0.  1.
         -2   -1    0    0    0  501 -0.00000000000E+00 -0.00000000000E+00 -0.33621852968E+02  0.33621852968E+02  0.00000000000E+00 0. -1.
         25    2    1    2    0    0  0.25352659884E+02  0.93387139204E+02  0.27378076614E+03  0.31617652075E+03  0.12509104377E+03 0.  0.
          5    1    3    3  502    0 -0.22636620571E+02 -0.20247047607E+02  0.29797217830E+02  0.42751679711E+02  0.41800000000E+01 0.  1.
         -5    1    3    3    0  502  0.47989280455E+02  0.11363418681E+03  0.24398354831E+03  0.27342484104E+03  0.41800000000E+01 0.  1.
        -11    1    1    2    0    0  0.21699144455E+00 -0.10251412555E+03  0.31380759490E+03  0.33012785347E+03  0.00000000000E+00 0.  1.
         11    1    1    2    0    0 -0.25569651329E+02  0.91269863476E+01  0.38954698795E+02  0.47482391548E+02  0.00000000000E+00 0. -1.
</event>
<event>
 7    1  0.2728221E-009  0.9757674E+02  0.7561462E-02  0.1285476E+00
         -1   -1    0    0    0  501 -0.00000000000E+00  0.00000000000E+00  0.33205198700E+03  0.33205198700E+03  0.00000000000E+00 0.  1.
          1   -1    0    0  501    0  0.00000000000E+00 -0.00000000000E+00 -0.41280587527E+02  0.41280587527E+02  0.00000000000E+00 0. -1.
         25    2    1    2    0    0  0.29244093080E+02  0.27526298485E+02  0.21255120985E+03  0.24987670129E+03  0.12508970760E+03 0.  0.
          5    1    3    3  502    0 -0.46761820935E+01 -0.31128494694E+02  0.16240010265E+03  0.16547542296E+03  0.41800000000E+01 0.  1.
         -5    1    3    3    0  502  0.33920275174E+02  0.58654793179E+02  0.50151107201E+02  0.84401278333E+02  0.41800000000E+01 0.  1.
        -11    1    1    2    0    0  0.22247717158E+02 -0.36984772138E+02  0.35495598588E+02  0.55881766329E+02  0.00000000000E+00 0.  1.
         11    1    1    2    0    0 -0.51491810238E+02  0.94584736530E+01  0.42724591027E+02  0.67574106904E+02  0.00000000000E+00 0. -1.
</event>
<event>
 7    1  0.2728221E-009  0.1015362E+03  0.7561462E-02  0.1277098E+00
          2   -1    0    0  501    0  0.00000000000E+00  0.00000000000E+00  0.53583659806E+02  0.53583659806E+02  0.00000000000E+00 0.  1.
         -2   -1    0    0    0  501 -0.00000000000E+00 -0.00000000000E+00 -0.24559824937E+03  0.24559824937E+03  0.00000000000E+00 0. -1.
         25    2    1    2    0    0 -0.92587012875E+01  0.17536674628E+02 -0.15264627673E+03  0.19835264021E+03  0.12509846350E+03 0.  0.
          5    1    3    3  502    0 -0.39256887686E+02  0.57526980222E+02 -0.11901019370E+03  0.13795417822E+03  0.41800000000E+01 0.  1.
         -5    1    3    3    0  502  0.29998186398E+02 -0.39990305594E+02 -0.33636083033E+02  0.60398461988E+02  0.41800000000E+01 0.  1.
        -11    1    1    2    0    0 -0.35882844624E+02 -0.10951407896E+02  0.41952752770E+01  0.37750658376E+02  0.00000000000E+00 0.  1.
         11    1    1    2    0    0  0.45141545911E+02 -0.65852667313E+01 -0.43563588105E+02  0.63078610588E+02  0.00000000000E+00 0. -1.
</event>
<event>
 7    1  0.2728221E-009  0.1622484E+03  0.7561462E-02  0.1186181E+00
         -2   -1    0    0    0  501 -0.00000000000E+00  0.00000000000E+00  0.20292088814E+02  0.20292088814E+02  0.00000000000E+00 0. -1.
          2   -1    0    0  501    0  0.00000000000E+00 -0.00000000000E+00 -0.13573246694E+04  0.13573246694E+04  0.00000000000E+00 0.  1.
         25    2    1    2    0    0 -0.44249543148E+02  0.11495016044E+03 -0.63412997288E+03  0.65797649349E+03  0.12506271239E+03 0.  0.
          5    1    3    3  502    0 -0.28687886637E+02  0.14048107188E+03 -0.55631749818E+03  0.57451245207E+03  0.41800000000E+01 0. -1.
         -5    1    3    3    0  502 -0.15561656511E+02 -0.25530911441E+02 -0.77812474698E+02  0.83464041426E+02  0.41800000000E+01 0. -1.
        -11    1    1    2    0    0 -0.15250372615E+02 -0.80871450947E+02 -0.45727698665E+03  0.46462351206E+03  0.00000000000E+00 0.  1.
         11    1    1    2    0    0  0.59499915763E+02 -0.34078709493E+02 -0.24562562103E+03  0.25501675263E+03  0.00000000000E+00 0. -1.
</event>
<event>
 7    1  0.2728221E-009  0.2182528E+03  0.7561462E-02  0.1135192E+00
          2   -1    0    0  501    0  0.00000000000E+00  0.00000000000E+00  0.68390681343E+03  0.68390681343E+03  0.00000000000E+00 0. -1.
         -2   -1    0    0    0  501 -0.00000000000E+00 -0.00000000000E+00 -0.82648442149E+02  0.82648442149E+02  0.00000000000E+00 0.  1.
         25    2    1    2    0    0  0.18955490461E+03 -0.57488465694E+02  0.42628569477E+03  0.48641882474E+03  0.12509114257E+03 0.  0.
          5    1    3    3  502    0  0.65141330004E+01 -0.32692514248E+02  0.15227568670E+03  0.15593778111E+03  0.41800000000E+01 0.  1.
         -5    1    3    3    0  502  0.18304077161E+03 -0.24795951446E+02  0.27401000806E+03  0.33048104363E+03  0.41800000000E+01 0.  1.
        -11    1    1    2    0    0 -0.12769762723E+03 -0.81490643234E+01  0.11294264294E+03  0.17067258668E+03  0.00000000000E+00 0. -1.
         11    1    1    2    0    0 -0.61857277383E+02  0.65637530017E+02  0.62030033569E+02  0.10946384415E+03  0.00000000000E+00 0.  1.
</event>
<event>
 7    1  0.2728221E-009  0.9084848E+02  0.7561462E-02  0.1300810E+00
          1   -1    0    0  501    0  0.00000000000E+00  0.00000000000E+00  0.26142858206E+03  0.26142858206E+03  0.00000000000E+00 0. -1.
         -1   -1    0    0    0  501 -0.00000000000E+00 -0.00000000000E+00 -0.59667304564E+02  0.59667304564E+02  0.00000000000E+00 0.  1.
         25    2    1    2    0    0 -0.57752978293E+02 -0.20222153922E+02  0.11943216753E+03  0.18346350295E+03  0.12510184757E+03 0.  0.
          5    1    3    3  502    0 -0.38581834285E+02 -0.45728039691E+02  0.13499451540E+03  0.14771798516E+03  0.41800000000E+01 0.  1.
         -5    1    3    3    0  502 -0.19171144007E+02  0.25505885769E+02 -0.15562347869E+02  0.35745517797E+02  0.41800000000E+01 0.  1.
        -11    1    1    2    0    0  0.35057320590E+02  0.44273209119E+02  0.89912241176E+01  0.57183694213E+02  0.00000000000E+00 0.  1.
         11    1    1    2    0    0  0.22695657703E+02 -0.24051055197E+02  0.73337885845E+02  0.80448689454E+02  0.00000000000E+00 0. -1.
</event>
<event>
 7    1  0.2728221E-009  0.1453875E+03  0.7561462E-02  0.1206258E+00
         -2   -1    0    0    0  501 -0.00000000000E+00  0.00000000000E+00  0.16276900445E+03  0.16276900445E+03  0.00000000000E+00 0.  1.
          2   -1    0    0  501    0  0.00000000000E+00 -0.00000000000E+00 -0.13298268599E+03  0.13298268599E+03  0.00000000000E+00 0. -1.
         25    2    1    2    0    0  0.85748628782E+02 -0.52410531000E+02  0.21411088941E+02  0.16188472073E+03  0.12509411248E+03 0.  0.
          5    1    3    3  502    0  0.84032839314E+02  0.20193288921E+02  0.18060852764E+01  0.86544909409E+02  0.41800000000E+01 0.  1.
         -5    1    3    3    0  502  0.17157894682E+01 -0.72603819920E+02  0.19605003664E+02  0.75339811317E+02  0.41800000000E+01 0.  1.
        -11    1    1    2    0    0 -0.24832310231E+02  0.64752437313E+02 -0.73939121998E+01  0.69743757477E+02  0.00000000000E+00 0.  1.
         11    1    1    2    0    0 -0.60916318552E+02 -0.12341906313E+02  0.15769141719E+02  0.64123212240E+02  0.00000000000E+00 0. -1.
</event>
<event>
 7    1  0.2728221E-009  0.1016199E+03  0.7561462E-02  0.1276926E+00
         -4   -1    0    0    0  501 -0.00000000000E+00  0.00000000000E+00  0.35793683883E+03  0.35793683883E+03  0.00000000000E+00 0.  1.
          4   -1    0    0  501    0  0.00000000000E+00 -0.00000000000E+00 -0.33182490631E+02  0.33182490631E+02  0.00000000000E+00 0. -1.
         25    2    1    2    0    0  0.49088967123E+01  0.21144738188E+02  0.17631170309E+03  0.21726264948E+03  0.12508415164E+03 0.  0.
          5    1    3    3  502    0 -0.51607905091E+02 -0.48168430323E+01  0.34634596658E+02  0.62478840661E+02  0.41800000000E+01 0. -1.
         -5    1    3    3    0  502  0.56516801803E+02  0.25961581220E+02  0.14167710644E+03  0.15478380882E+03  0.41800000000E+01 0. -1.
        -11    1    1    2    0    0 -0.39779064532E+01  0.33759125711E+02  0.73198100028E+02  0.80706035439E+02  0.00000000000E+00 0.  1.
         11    1    1    2    0    0 -0.93099025909E+00 -0.54903863899E+02  0.75244545075E+02  0.93150644536E+02  0.00000000000E+00 0. -1.
</event>
<event>
 7    1  0.2728221E-009  0.1592238E+03  0.7561462E-02  0.1189576E+00
          2   -1    0    0  501    0  0.00000000000E+00  0.00000000000E+00  0.94632516281E+03  0.94632516281E+03  0.00000000000E+00 0. -1.
         -2   -1    0    0    0  501 -0.00000000000E+00 -0.00000000000E+00 -0.50437318950E+02  0.50437318950E+02  0.00000000000E+00 0.  1.
         25    2    1    2    0    0  0.53923089354E+02 -0.12493677462E+03  0.76453749024E+03  0.78656292230E+03  0.12508700788E+03 0.  0.
          5    1    3    3  502    0  0.90130376636E+01 -0.10506708805E+03  0.27507625035E+03  0.29462644780E+03  0.41800000000E+01 0. -1.
         -5    1    3    3    0  502  0.44910051690E+02 -0.19869686573E+02  0.48946123989E+03  0.49193647450E+03  0.41800000000E+01 0. -1.
        -11    1    1    2    0    0  0.25848777514E+02  0.28690134459E+02  0.24363143952E+02  0.45660112762E+02  0.00000000000E+00 0.  1.
         11    1    1    2    0    0 -0.79771866868E+02  0.96246640165E+02  0.10698720967E+03  0.16453944670E+03  0.00000000000E+00 0. -1.
</event>
<event>
 7    1  0.2728221E-009  0.1229432E+03  0.7561462E-02  0.1238319E+00
         -2   -1    0    0    0  501 -0.00000000000E+00  0.00000000000E+00  0.28486215302E+02  0.28486215302E+02  0.00000000000E+00 0.  1.
          2   -1    0    0  501    0  0.00000000000E+00 -0.00000000000E+00 -0.64586162671E+03  0.64586162671E+03  0.00000000000E+00 0. -1.
         25    2    1    2    0    0  0.32834072186E+02 -0.69199989589E+02 -0.40534811791E+03  0.43106997748E+03  0.12509002333E+03 0.  0.
          5    1    3    3  502    0  0.49574598932E+02 -0.90489433900E+02 -0.37985819464E+03  0.39364412728E+03  0.41800000000E+01 0.  1.
         -5    1    3    3    0  502 -0.16740526746E+02  0.21289444311E+02 -0.25489923268E+02  0.37425850197E+02  0.41800000000E+01 0.  1.
        -11    1    1    2    0    0 -0.85375583791E+01 -0.20542232342E+02 -0.70648335999E+02  0.74067945780E+02  0.00000000000E+00 0. -1.
         11    1    1    2    0    0 -0.24296513807E+02  0.89742221932E+02 -0.14137895750E+03  0.16920991875E+03  0.00000000000E+00 0.  1.
</event>
<event>
 7    1  0.2728221E-009  0.1596827E+03  0.7561462E-02  0.1189055E+00
         -1   -1    0    0    0  501 -0.00000000000E+00  0.00000000000E+00  0.10512994451E+03  0.10512994451E+03  0.00000000000E+00 0.  1.
          1   -1    0    0  501    0  0.00000000000E+00 -0.00000000000E+00 -0.27374987574E+03  0.27374987574E+03  0.00000000000E+00 0. -1.
         25    2    1    2    0    0  0.11618012123E+03  0.16408654935E+02 -0.27750863364E+02  0.17373851440E+03  0.12509155224E+03 0.  0.
          5    1    3    3  502    0  0.48292188296E+02  0.69409632043E+02 -0.21125507012E+02  0.87255899039E+02  0.41800000000E+01 0. -1.
         -5    1    3    3    0  502  0.67887932935E+02 -0.53000977107E+02 -0.66253563526E+01  0.86482615359E+02  0.41800000000E+01 0. -1.
        -11    1    1    2    0    0 -0.97470116583E+02  0.27056699937E+02 -0.10467143975E+03  0.14556304111E+03  0.00000000000E+00 0. -1.
         11    1    1    2    0    0 -0.18710004648E+02 -0.43465354872E+02 -0.36197628115E+02  0.59578264738E+02  0.00000000000E+00 0.  1.
</event>
<event>
 7    1  0.2728221E-009  0.9771845E+02  0.7561462E-02  0.1285168E+00
         -2   -1    0    0    0  501 -0.00000000000E+00  0.00000000000E+00  0.59019040881E+02  0.59019040881E+02  0.00000000000E+00 0. -1.
          2   -1    0    0  501    0  0.00000000000E+00 -0.00000000000E+00 -0.26356586920E+03  0.26356586920E+03  0.00000000000E+00 0.  1.
         25    2    1    2    0    0 -0.13142420708E+02  0.52302615245E+02 -0.77655004955E+02  0.15683869450E+03  0.12513908068E+03 0.  0.
          5    1    3    3  502    0  0.16407791257E+02  0.77826276631E+02 -0.12297288233E+02  0.80590574176E+02  0.41800000000E+01 0.  1.
         -5    1    3    3    0  502 -0.29550211964E+02 -0.25523661386E+02 -0.65357716722E+02  0.76248120323E+02  0.41800000000E+01 0.  1.
        -11    1    1    2    0    0 -0.15213685352E+02 -0.44618778296E+02 -0.12794021334E+03  0.13634877993E+03  0.00000000000E+00 0.  1.
         11    1    1    2    0    0  0.28356106059E+02 -0.76838369486E+01  0.10483899818E+01  0.29397435648E+02  0.00000000000E+00 0. -1.
</event>
<event>
 7    1  0.2728221E-009  0.8408041E+02  0.7561462E-02  0.1317855E+00
         -4   -1    0    0    0  501 -0.00000000000E+00  0.00000000000E+00  0.11781400587E+03  0.11781400587E+03  0.00000000000E+00 0.  1.
          4   -1    0    0  501    0  0.00000000000E+00 -0.00000000000E+00 -0.12684593541E+03  0.12684593541E+03  0.00000000000E+00 0. -1.
         25    2    1    2    0    0 -0.51872261237E+02 -0.19932644834E+02 -0.99179993489E-01  0.13687646303E+03  0.12508842664E+03 0.  0.
          5    1    3    3  502    0 -0.13545772651E+02  0.78639513534E+01  0.58913674979E+02  0.61103381144E+02  0.41800000000E+01 0. -1.
         -5    1    3    3    0  502 -0.38326488586E+02 -0.27796596188E+02 -0.59012854973E+02  0.75773081889E+02  0.41800000000E+01 0. -1.
        -11    1    1    2    0    0  0.29490286417E+02  0.55238519033E+02  0.70848412209E+01  0.63017187758E+02  0.00000000000E+00 0.  1.
         11    1    1    2    0    0  0.22381974821E+02 -0.35305874198E+02 -0.16017590768E+02  0.44766290485E+02  0.00000000000E+00 0. -1.
</event>
<event>
 7    1  0.2728221E-009  0.1439440E+03  0.7561462E-02  0.1208118E+00
         -1   -1    0    0    0  501 -0.00000000000E+00  0.00000000000E+00  0.35431641207E+03  0.35431641207E+03  0.00000000000E+00 0.  1.
          1   -1    0    0  501    0  0.00000000000E+00 -0.00000000000E+00 -0.65217705765E+02  0.65217705765E+02  0.00000000000E+00 0. -1.
         25    2    1    2    0    0 -0.37080069569E+02  0.99699751595E+02  0.16939882515E+03  0.23591979366E+03  0.12508882865E+03 0.  0.
          5    1    3    3  502    0 -0.11656037316E+02 -0.26130464572E+02  0.86956798989E+01  0.30195225344E+02  0.41800000000E+01 0. -1.
         -5    1    3    3    0  502 -0.25424032252E+02  0.12583021617E+03  0.16070314525E+03  0.20572456832E+03  0.41800000000E+01 0. -1.
        -11    1    1    2    0    0  0.25897821582E+02  0.40218538552E+01  0.19235230617E+01  0.26278744492E+02  0.00000000000E+00 0. -1.
         11    1    1    2    0    0  0.11182247987E+02 -0.10372160545E+03  0.11777635809E+03  0.15733557968E+03  0.00000000000E+00 0.  1.
</event>
<event>
 7    1  0.2728221E-009  0.8312918E+02  0.7561462E-02  0.1320399E+00
          1   -1    0    0  501    0  0.00000000000E+00  0.00000000000E+00  0.22493130596E+03  0.22493130596E+03  0.00000000000E+00 0. -1.
         -1   -1    0    0    0  501 -0.00000000000E+00 -0.00000000000E+00 -0.73634741278E+02  0.73634741278E+02  0.00000000000E+00 0.  1.
         25    2    1    2    0    0  0.47234000001E+02  0.39978642380E+02  0.51188709272E+02  0.14864901995E+03  0.12508758760E+03 0.  0.
          5    1    3    3  502    0  0.18332639451E+02  0.12388451872E+02 -0.41729843165E+02  0.47417418947E+02  0.41800000000E+01 0.  1.
         -5    1    3    3    0  502  0.28901360550E+02  0.27590190508E+02  0.92918552437E+02  0.10123160100E+03  0.41800000000E+01 0.  1.
        -11    1    1    2    0    0 -0.21237456467E+02 -0.64453198703E+02  0.36706100657E+02  0.77152979240E+02  0.00000000000E+00 0.  1.
         11    1    1    2    0    0 -0.25996543535E+02  0.24474556323E+02  0.63401754748E+02  0.72764048047E+02  0.00000000000E+00 0. -1.
</event>
<event>
 7    1  0.2728221E-009  0.2304681E+03  0.7561462E-02  0.1126311E+00
         -2   -1    0    0    0  501 -0.00000000000E+00  0.00000000000E+00  0.24301478496E+02  0.24301478496E+02  0.00000000000E+00 0.  1.
          2   -1    0    0  501    0  0.00000000000E+00 -0.00000000000E+00 -0.25827856545E+04  0.25827856545E+04  0.00000000000E+00 0. -1.
         25    2    1    2    0    0  0.12468963436E+03  0.18624762980E+03 -0.14703125112E+04  0.14925487920E+04  0.12508929324E+03 0.  0.
          5    1    3    3  502    0  0.47138065975E+02  0.13171084693E+03 -0.55678098166E+03  0.57410127887E+03  0.41800000000E+01 0. -1.
         -5    1    3    3    0  502  0.77551568385E+02  0.54536782870E+02 -0.91353152958E+03  0.91844751314E+03  0.41800000000E+01 0. -1.
        -11    1    1    2    0    0 -0.96864885945E+02 -0.11991977483E+03 -0.89964260566E+03  0.91275428043E+03  0.00000000000E+00 0.  1.
         11    1    1    2    0    0 -0.27824748415E+02 -0.66327854969E+02 -0.18852905908E+03  0.20178406053E+03  0.00000000000E+00 0. -1.
</event>
<event>
 7    1  0.2728221E-009  0.1218284E+03  0.7561462E-02  0.1240111E+00
         -1   -1    0    0    0  501 -0.00000000000E+00  0.00000000000E+00  0.41046274312E+02  0.41046274312E+02  0.00000000000E+00 0.  1.
          1   -1    0    0  501    0  0.00000000000E+00 -0.00000000000E+00 -0.40464516688E+03  0.40464516688E+03  0.00000000000E+00 0. -1.
         25    2    1    2    0    0  0.71971859744E+01  0.66704269720E+02 -0.20320917396E+03  0.24787758299E+03  0.12509224070E+03 0.  0.
          5    1    3    3  502    0 -0.52730862182E+02  0.12346510714E+01 -0.81999151858E+02  0.97587916748E+02  0.41800000000E+01 0. -1.
         -5    1    3    3    0  502  0.59928048156E+02  0.65469618649E+02 -0.12121002210E+03  0.15028966624E+03  0.41800000000E+01 0. -1.
        -11    1    1    2    0    0 -0.36482308110E+02 -0.96128624062E+01 -0.10981217559E+03  0.11611235868E+03  0.00000000000E+00 0. -1.
         11    1    1    2    0    0  0.29285122135E+02 -0.57091407314E+02 -0.50577543020E+02  0.81701499530E+02  0.00000000000E+00 0.  1.
</event>
<event>
 6    1  0.2728221E-009  0.2327006E+03  0.7561462E-02  0.1124753E+00
         -1   -1    0    0    0  501 -0.00000000000E+00  0.00000000000E+00  0.79968479460E+02  0.79968479460E+02  0.00000000000E+00 0. -1.
          1   -1    0    0  501    0  0.00000000000E+00 -0.00000000000E+00 -0.12995525163E+04  0.12995525163E+04  0.00000000000E+00 0.  1.
          5    1    1    2  502    0 -0.45411809061E+01 -0.62089183115E+02 -0.10377291404E+03  0.12108665935E+03  0.41800000000E+01 0. -1.
         -5    1    1    2    0  502  0.29582039687E+02 -0.16763788086E+03 -0.93602606368E+03  0.95138836469E+03  0.41800000000E+01 0. -1.
        -11    1    1    2    0    0 -0.20911502899E+02  0.72761868845E+02 -0.10974467547E+02  0.76498493117E+02  0.00000000000E+00 0. -1.
         11    1    1    2    0    0 -0.41293558825E+01  0.15696519513E+03 -0.16881059154E+03  0.23054747857E+03  0.00000000000E+00 0.  1.
</event>
<event>
 7    1  0.2728221E-009  0.1089521E+03  0.7561462E-02  0.1262523E+00
         -1   -1    0    0    0  501 -0.00000000000E+00  0.00000000000E+00  0.23990646884E+02  0.23990646884E+02  0.00000000000E+00 0.  1.
          1   -1    0    0  501    0  0.00000000000E+00 -0.00000000000E+00 -0.67466374275E+03  0.67466374275E+03  0.00000000000E+00 0. -1.
         25    2    1    2    0    0 -0.40375332957E+02 -0.48272602943E+02 -0.42820135451E+03  0.45051603896E+03  0.12509152509E+03 0.  0.
          5    1    3    3  502    0 -0.23635758468E+02 -0.89952299501E+02 -0.25251104680E+03  0.26912704513E+03  0.41800000000E+01 0.  1.
         -5    1    3    3    0  502 -0.16739574489E+02  0.41679696558E+02 -0.17569030771E+03  0.18138899383E+03  0.41800000000E+01 0.  1.
        -11    1    1    2    0    0  0.36086098563E+02  0.52582473919E+01 -0.21000425887E+02  0.42081748569E+02  0.00000000000E+00 0.  1.
         11    1    1    2    0    0  0.42892343933E+01  0.43014355551E+02 -0.20147131546E+03  0.20605660210E+03  0.00000000000E+00 0. -1.
</event>
<event>
 7    1  0.2728221E-009  0.9309044E+02  0.7561462E-02  0.1295536E+00
          1   -1    0    0  501    0  0.00000000000E+00  0.00000000000E+00  0.17762758383E+03  0.17762758383E+03  0.00000000000E+00 0. -1.
         -1   -1    0    0    0  501 -0.00000000000E+00 -0.00000000000E+00 -0.74042145446E+02  0.74042145446E+02  0.00000000000E+00 0.  1.
         25    2    1    2    0    0  0.21401297695E+02  0.19359885301E+02  0.58563196221E+02  0.14110377418E+03  0.12509119247E+03 0.  0.
          5    1    3    3  502    0  0.23601384865E+02 -0.43707477459E+02 -0.66150927288E+01  0.50285194692E+02  0.41800000000E+01 0. -1.
         -5    1    3    3    0  502 -0.22000871705E+01  0.63067362760E+02  0.65178288949E+02  0.90818579483E+02  0.41800000000E+01 0. -1.
        -11    1    1    2    0    0 -0.41785191961E+02 -0.28674208356E+02 -0.95514537530E+01  0.51569785348E+02  0.00000000000E+00 0.  1.
         11    1    1    2    0    0  0.20383894266E+02  0.93143230552E+01  0.54573695914E+02  0.58996169750E+02  0.00000000000E+00 0. -1.
</event>
<event>
 7    1  0.2728221E-009  0.1206250E+03  0.7561462E-02  0.1242070E+00
         -2   -1    0    0    0  501 -0.00000000000E+00  0.00000000000E+00  0.15060003650E+02  0.15060003650E+02  0.00000000000E+00 0.  1.
          2   -1    0    0  501    0  0.00000000000E+00 -0.00000000000E+00 -0.10328948986E+04  0.10328948986E+04  0.00000000000E+00 0. -1.
         25    2    1    2    0    0  0.55173304803E+02  0.20333652754E+02 -0.62935583777E+03  0.64435473362E+03  0.12508677471E+03 0.  0.
          5    1    3    3  502    0  0.94454011596E+02  0.16264882427E+02 -0.38379295539E+03  0.39560158204E+03  0.41800000000E+01 0. -1.
         -5    1    3    3    0  502 -0.39280706792E+02  0.40687703274E+01 -0.24556288237E+03  0.24875315157E+03  0.41800000000E+01 0. -1.
        -11    1    1    2    0    0 -0.52470031606E+02  0.26437474526E+02 -0.16197748628E+03  0.17230423773E+03  0.00000000000E+00 0.  1.
         11    1    1    2    0    0 -0.27032731973E+01 -0.46771127281E+02 -0.22650157087E+03  0.23129593087E+03  0.00000000000E+00 0. -1.
</event>
<event>
 7    1  0.2728221E-009  0.1004608E+03  0.7561462E-02  0.1279330E+00
         -2   -1    0    0    0  501 -0.00000000000E+00  0.00000000000E+00  0.42535485554E+02  0.42535485554E+02  0.00000000000E+00 0.  1.
          2   -1    0    0  501    0  0.00000000000E+00 -0.00000000000E+00 -0.30187843747E+03  0.30187843747E+03  0.00000000000E+00 0. -1.
         25    2    1    2    0    0 -0.25137647980E+02  0.21404503029E+02 -0.14088371320E+03  0.19125605417E+03  0.12506239848E+03 0.  0.
          5    1    3    3  502    0  0.26581790032E+02  0.41361820295E+02 -0.11837798316E+02  0.50744434260E+02  0.41800000000E+01 0.  1.
         -5    1    3    3    0  502 -0.51719438012E+02 -0.19957317266E+02 -0.12904591488E+03  0.14051161991E+03  0.41800000000E+01 0.  1.
        -11    1    1    2    0    0 -0.21548710053E+02  0.23024607053E+02 -0.50179227031E+02  0.59265793341E+02  0.00000000000E+00 0. -1.
         11    1    1    2    0    0  0.46686358033E+02 -0.44429110082E+02 -0.68280011691E+02  0.93892075520E+02  0.00000000000E+00 0.  1.
</event>
<event>
 7    1  0.2728221E-009  0.1273945E+03  0.7561462E-02  0.1231374E+00
         -2   -1    0    0    0  501 -0.00000000000E+00  0.00000000000E+00  0.13494133898E+03  0.13494133898E+03  0.00000000000E+00 0.  1.
          2   -1    0    0  501    0  0.00000000000E+00 -0.00000000000E+00 -0.24446924095E+03  0.24446924095E+03  0.00000000000E+00 0. -1.
         25    2    1    2    0    0  0.26056451119E+02  0.11299673092E+03  0.34107766419E+02  0.17394501009E+03  0.12508527875E+03 0.  0.
          5    1    3    3  502    0  0.17984531694E+02  0.90958233901E+02  0.79803362076E+02  0.12240462693E+03  0.41800000000E+01 0.  1.
         -5    1    3    3    0  502  0.80719194251E+01  0.22038497024E+02 -0.45695595657E+02  0.51540383164E+02  0.41800000000E+01 0.  1.
        -11    1    1    2    0    0  0.26510497949E+02 -0.31693677829E+02 -0.13917063286E+02  0.43600233559E+02  0.00000000000E+00 0.  1.
         11    1    1    2    0    0 -0.52566949068E+02 -0.81303053095E+02 -0.12971860511E+03  0.16186533628E+03  0.00000000000E+00 0. -1.
</event>
<event>
 7    1  0.2728221E-009  0.2502671E+03  0.7561462E-02  0.1113136E+00
         -2   -1    0    0    0  501 -0.00000000000E+00  0.00000000000E+00  0.50642700355E+03  0.50642700355E+03  0.00000000000E+00 0.  1.
          2   -1    0    0  501    0  0.00000000000E+00 -0.00000000000E+00 -0.18857700681E+03  0.18857700681E+03  0.00000000000E+00 0. -1.
         25    2    1    2    0    0 -0.40932315334E+02 -0.23909895324E+03  0.33937402933E+03  0.43550637540E+03  0.12508919759E+03 0.  0.
          5    1    3    3  502    0 -0.24102595244E+02 -0.92329352648E+02  0.43875009715E+02  0.10511010101E+03  0.41800000000E+01 0. -1.
         -5    1    3    3    0  502 -0.16829720090E+02 -0.14676960059E+03  0.29549901962E+03  0.33039627439E+03  0.41800000000E+01 0. -1.
        -11    1    1    2    0    0 -0.78177620610E+01  0.18192386462E+03 -0.30248508025E+01  0.18211688457E+03  0.00000000000E+00 0.  1.
         11    1    1    2    0    0  0.48750077395E+02  0.57175088617E+02 -0.18499181784E+02  0.77380750391E+02  0.00000000000E+00 0. -1.
</event>
<event>
 7    1  0.2728221E-009  0.1297737E+03  0.7561462E-02  0.1227792E+00
         -1   -1    0    0    0  501 -0.00000000000E+00  0.00000000000E+00  0.47299117593E+03  0.47299117593E+03  0.00000000000E+00 0.  1.
          1   -1    0    0  501    0  0.00000000000E+00 -0.00000000000E+00 -0.43525307108E+02  0.43525307108E+02  0.00000000000E+00 0. -1.
         25    2    1    2    0    0 -0.74589857155E+02  0.38323387550E+02  0.16005429173E+03  0.21976610029E+03  0.12508970265E+03 0.  0.
          5    1    3    3  502    0 -0.54045843094E+02  0.76630180788E+02  0.14659405404E+03  0.17407017792E+03  0.41800000000E+01 0. -1.
         -5    1    3    3    0  502 -0.20544014060E+02 -0.38306793238E+02  0.13460237697E+02  0.45695922364E+02  0.41800000000E+01 0. -1.
        -11    1    1    2    0    0  0.79933833113E+02 -0.59835334860E+02  0.23983733682E+03  0.25979151854E+03  0.00000000000E+00 0.  1.
         11    1    1    2    0    0 -0.53439759585E+01  0.21511947310E+02  0.29574240272E+02  0.36958864211E+02  0.00000000000E+00 0. -1.
</event>
<event>
 7    1  0.2728221E-009  0.6761535E+02  0.7561462E-02  0.1368395E+00
          1   -1    0    0  501    0  0.00000000000E+00  0.00000000000E+00  0.29821090630E+03  0.29821090630E+03  0.00000000000E+00 0. -1.
         -1   -1    0    0    0  501 -0.00000000000E+00 -0.00000000000E+00 -0.39456358675E+02  0.39456358675E+02  0.00000000000E+00 0.  1.
         25    2    1    2    0    0  0.67757190438E+01  0.88366318763E+01  0.15186237347E+03  0.19706199557E+03  0.12508898108E+03 0.  0.
          5    1    3    3  502    0  0.48233782992E+01 -0.22747926902E+02  0.16188945087E+03  0.16360440049E+03  0.41800000000E+01 0. -1.
         -5    1    3    3    0  502  0.19523407446E+01  0.31584558779E+02 -0.10027077393E+02  0.33457595082E+02  0.41800000000E+01 0. -1.
        -11    1    1    2    0    0  0.23627050088E+02 -0.33182905463E+02  0.19994033820E+02  0.45377352272E+02  0.00000000000E+00 0.  1.
         11    1    1    2    0    0 -0.30402769132E+02  0.24346273587E+02  0.86898140329E+02  0.95227917131E+02  0.00000000000E+00 0. -1.
</event>
<event>
 7    1  0.2728221E-009  0.1977661E+03  0.7561462E-02  0.1151638E+00
          1   -1    0    0  501    0  0.00000000000E+00  0.00000000000E+00  0.15077885946E+04  0.15077885946E+04  0.00000000000E+00 0. -1.
         -1   -1    0    0    0  501 -0.00000000000E+00 -0.00000000000E+00 -0.27207210065E+02  0.27207210065E+02  0.00000000000E+00 0.  1.
         25    2    1    2    0    0 -0.40885300145E+02  0.15946763440E+03  0.61790411692E+03  0.65157861581E+03  0.12509060992E+03 0.  0.
          5    1    3    3  502    0 -0.71079259542E+02  0.16097087162E+03  0.51533924084E+03  0.54456945213E+03  0.41800000000E+01 0. -1.
         -5    1    3    3    0  502  0.30193959397E+02 -0.15032372206E+01  0.10256487608E+03  0.10700916368E+03  0.41800000000E+01 0. -1.
        -11    1    1    2    0    0  0.69156006622E+02 -0.86508688324E+02  0.45371033030E+03  0.46703251517E+03  0.00000000000E+00 0. -1.
         11    1    1    2    0    0 -0.28270706477E+02 -0.72958946078E+02  0.40896693731E+03  0.41638467368E+03  0.00000000000E+00 0.  1.
</event>
<event>
 7    1  0.2728221E-009  0.1025872E+03  0.7561462E-02  0.1274948E+00
          1   -1    0    0  501    0  0.00000000000E+00  0.00000000000E+00  0.49824939318E+03  0.49824939318E+03  0.00000000000E+00 0. -1.
         -1   -1    0    0    0  501 -0.00000000000E+00 -0.00000000000E+00 -0.25687849328E+02  0.25687849328E+02  0.00000000000E+00 0.  1.
         25    2    1    2    0    0  0.23606184490E+02 -0.87065378843E+01  0.21231745908E+03  0.24770742368E+03  0.12508880272E+03 0.  0.
          5    1    3    3  502    0  0.38170119069E+02  0.48420172607E+02  0.14786610456E+03  0.16026018963E+03  0.41800000000E+01 0. -1.
         -5    1    3    3    0  502 -0.14563934579E+02 -0.57126710492E+02  0.64451354526E+02  0.87447234046E+02  0.41800000000E+01 0. -1.
        -11    1    1    2    0    0  0.18252632924E+02 -0.24705087387E+02  0.45429553197E+02  0.54839258339E+02  0.00000000000E+00 0.  1.
         11    1    1    2    0    0 -0.41858817414E+02  0.33411625272E+02  0.21481453158E+03  0.22139056049E+03  0.00000000000E+00 0. -1.
</event>
<event>
 7    1  0.2728221E-009  0.1187792E+03  0.7561462E-02  0.1245125E+00
         -1   -1    0    0    0  501 -0.00000000000E+00  0.00000000000E+00  0.15964521743E+03  0.15964521743E+03  0.00000000000E+00 0.  1.
          1   -1    0    0  501    0  0.00000000000E+00 -0.00000000000E+00 -0.12614809331E+03  0.12614809331E+03  0.00000000000E+00 0. -1.
         25    2    1    2    0    0 -0.43545742675E+02 -0.77942921885E+02  0.13935177655E+02  0.15431621126E+03  0.12509185866E+03 0.  0.
          5    1    3    3  502    0 -0.65329270079E+01 -0.71235543983E+02 -0.44752352526E+02  0.84483296091E+02  0.41800000000E+01 0. -1.
         -5    1    3    3    0  502 -0.37012815667E+02 -0.67073779022E+01  0.58687530181E+02  0.69832915166E+02  0.41800000000E+01 0. -1.
        -11    1    1    2    0    0 -0.73746252233E+01  0.76767309494E+02  0.22857247558E+02  0.80436674907E+02  0.00000000000E+00 0. -1.
         11    1    1    2    0    0  0.50920367898E+02  0.11756123908E+01 -0.32953010928E+01  0.51040424574E+02  0.00000000000E+00 0.  1.
</event>
<event>
 7    1  0.2728221E-009  0.1825097E+03  0.7561462E-02  0.1165396E+00
         -2   -1    0    0    0  501 -0.00000000000E+00  0.00000000000E+00  0.18734243271E+03  0.18734243271E+03  0.00000000000E+00 0.  1.
          2   -1    0    0  501    0  0.00000000000E+00 -0.00000000000E+00 -0.20351327651E+03  0.20351327651E+03  0.00000000000E+00 0. -1.
         25    2    1    2    0    0 -0.15708290614E+03 -0.35964951598E+02 -0.27219270498E+02  0.20580563673E+03  0.12508618740E+03 0.  0.
          5    1    3    3  502    0 -0.47889394433E+02 -0.73349773368E+02 -0.27017162789E+01  0.87740270247E+02  0.41800000000E+01 0.  1.
         -5    1    3    3    0  502 -0.10919351170E+03  0.37384821769E+02 -0.24517554219E+02  0.11806536648E+03  0.41800000000E+01 0.  1.
        -11    1    1    2    0    0  0.31586955390E+02  0.13441349353E+02  0.41604793709E+02  0.53938525033E+02  0.00000000000E+00 0.  1.
         11    1    1    2    0    0  0.12549595075E+03  0.22523602245E+02 -0.30556367015E+02  0.13111154746E+03  0.00000000000E+00 0. -1.
</event>
<event>
 7    1  0.2728221E-009  0.8976276E+02  0.7561462E-02  0.1303427E+00
         -1   -1    0    0    0  501 -0.00000000000E+00  0.00000000000E+00  0.71983208769E+02  0.71983208769E+02  0.00000000000E+00 0.  1.
          1   -1    0    0  501    0  0.00000000000E+00 -0.00000000000E+00 -0.21310383890E+03  0.21310383890E+03  0.00000000000E+00 0. -1.
         25    2    1    2    0    0  0.50115340604E+02 -0.32548778297E+02 -0.76058830965E+02  0.15815005565E+03  0.12512203644E+03 0.  0.
          5    1    3    3  502    0  0.72018198794E+01  0.28747931487E+02 -0.77621258022E+02  0.83191597360E+02  0.41800000000E+01 0. -1.
         -5    1    3    3    0  502  0.42913520724E+02 -0.61296709784E+02  0.15624270573E+01  0.74958458293E+02  0.41800000000E+01 0. -1.
        -11    1    1    2    0    0 -0.11444106179E+02  0.34082053227E+02  0.14260371745E+02  0.38677023163E+02  0.00000000000E+00 0.  1.
         11    1    1    2    0    0 -0.38671234424E+02 -0.15332749300E+01 -0.79322170907E+02  0.88259968850E+02  0.00000000000E+00 0. -1.
</event>
<event>
 6    1  0.2728221E-009  0.1742516E+03  0.7561462E-02  0.1173485E+00
         -1   -1    0    0    0  501 -0.00000000000E+00  0.00000000000E+00  0.45019706164E+02  0.45019706164E+02  0.00000000000E+00 0.  1.
          1   -1    0    0  501    0  0.00000000000E+00 -0.00000000000E+00 -0.72889260406E+03  0.72889260406E+03  0.00000000000E+00 0. -1.
          5    1    1    2  502    0  0.10390424131E+02  0.21194107356E+02 -0.62727918888E+02  0.67152180220E+02  0.41800000000E+01 0.  1.
         -5    1    1    2    0  502 -0.11771102936E+03 -0.11652107471E+03 -0.32757968255E+03  0.36709531202E+03  0.41800000000E+01 0.  1.
        -11    1    1    2    0    0 -0.95752237463E+01  0.34813379409E+01  0.45466459468E+00  0.10198595175E+02  0.00000000000E+00 0.  1.
         11    1    1    2    0    0  0.11689582898E+03  0.91845629417E+02 -0.29401996105E+03  0.32946622281E+03  0.00000000000E+00 0. -1.
</event>
<event>
 7    1  0.2728221E-009  0.5997753E+02  0.7561462E-02  0.1397926E+00
          2   -1    0    0  501    0  0.00000000000E+00  0.00000000000E+00  0.23286537787E+03  0.23286537787E+03  0.00000000000E+00 0. -1.
         -2   -1    0    0    0  501 -0.00000000000E+00 -0.00000000000E+00 -0.61038841799E+02  0.61038841799E+02  0.00000000000E+00 0.  1.
         25    2    1    2    0    0 -0.86183168843E+01  0.42867172804E+02  0.12621643967E+03  0.18300354169E+03  0.12509131360E+03 0.  0.
          5    1    3    3  502    0 -0.89060733984E+01  0.35980032514E+02 -0.15979318134E+02  0.40579451587E+02  0.41800000000E+01 0.  1.
         -5    1    3    3    0  502  0.28775651413E+00  0.68871402901E+01  0.14219575780E+03  0.14242409010E+03  0.41800000000E+01 0.  1.
        -11    1    1    2    0    0  0.33317798640E+02 -0.12825800361E+02 -0.15131228681E+02  0.38775390939E+02  0.00000000000E+00 0. -1.
         11    1    1    2    0    0 -0.24699481755E+02 -0.30041372443E+02  0.60741325082E+02  0.72125287036E+02  0.00000000000E+00 0.  1.
</event>
<event>
 7    1  0.2728221E-009  0.8181146E+02  0.7561462E-02  0.1323988E+00
          1   -1    0    0  501    0  0.00000000000E+00  0.00000000000E+00  0.34632797729E+03  0.34632797729E+03  0.00000000000E+00 0. -1.
         -1   -1    0    0    0  501 -0.00000000000E+00 -0.00000000000E+00 -0.51545300266E+02  0.51545300266E+02  0.00000000000E+00 0.  1.
         25    2    1    2    0    0 -0.48604920574E+02 -0.32345731077E+02  0.96645683633E+02  0.16851285369E+03  0.12509000388E+03 0.  0.
          5    1    3    3  502    0  0.32219219626E+01  0.21805260547E+02  0.90444032991E+02  0.93185007766E+02  0.41800000000E+01 0.  1.
         -5    1    3    3    0  502 -0.51826842536E+02 -0.54150991624E+02  0.62016506418E+01  0.75327845926E+02  0.41800000000E+01 0.  1.
        -11    1    1    2    0    0  0.11579230610E+02 -0.58044598520E+01 -0.88289720654E+01  0.15675493084E+02  0.00000000000E+00 0.  1.
         11    1    1    2    0    0  0.37025689964E+02  0.38150190929E+02  0.20696596546E+03  0.21368493078E+03  0.00000000000E+00 0. -1.
</event>
<event>
 7    1  0.2728221E-009  0.2836744E+03  0.7561462E-02  0.1093699E+00
         -3   -1    0    0    0  501 -0.00000000000E+00  0.00000000000E+00  0.20264391897E+04  0.20264391897E+04  0.00000000000E+00 0.  1.
          3   -1    0    0  501    0  0.00000000000E+00 -0.00000000000E+00 -0.49207161735E+02  0.49207161735E+02  0.00000000000E+00 0. -1.
         25    2    1    2    0    0 -0.55850808991E+02  0.25741160604E+03  0.56150448380E+03  0.63270336909E+03  0.12508485177E+03 0.  0.
          5    1    3    3  502    0 -0.91735683603E+02  0.21062219607E+03  0.47841671075E+03  0.53073266966E+03  0.41800000000E+01 0. -1.
         -5    1    3    3    0  502  0.35884874612E+02  0.46789409976E+02  0.83087773053E+02  0.10197069943E+03  0.41800000000E+01 0. -1.
        -11    1    1    2    0    0 -0.17700906635E+02 -0.13116774068E+03  0.63155111957E+03  0.64527134983E+03  0.00000000000E+00 0. -1.
         11    1    1    2    0    0  0.73551715626E+02 -0.12624386536E+03  0.78417642464E+03  0.79767163255E+03  0.00000000000E+00 0.  1.
</event>
<event>
 7    1  0.2728221E-009  0.1241699E+03  0.7561462E-02  0.1236372E+00
          4   -1    0    0  501    0  0.00000000000E+00  0.00000000000E+00  0.21361519852E+03  0.21361519852E+03  0.00000000000E+00 0. -1.
         -4   -1    0    0    0  501 -0.00000000000E+00 -0.00000000000E+00 -0.77286144168E+02  0.77286144168E+02  0.00000000000E+00 0.  1.
         25    2    1    2    0    0 -0.25135337102E+02  0.60334449340E+02  0.51476086708E+02  0.15023208825E+03  0.12509141412E+03 0.  0.
          5    1    3    3  502    0 -0.74433660254E+02  0.51664167286E+02  0.29224390772E+02  0.95294770980E+02  0.41800000000E+01 0. -1.
         -5    1    3    3    0  502  0.49298323151E+02  0.86702820537E+01  0.22251695936E+02  0.54937317267E+02  0.41800000000E+01 0. -1.
        -11    1    1    2    0    0  0.33250722086E+02  0.11449309108E+02  0.98198924360E+01  0.36512018374E+02  0.00000000000E+00 0.  1.
         11    1    1    2    0    0 -0.81153849834E+01 -0.71783758447E+02  0.75033075212E+02  0.10415723607E+03  0.00000000000E+00 0. -1.
</event>
<event>
 7    1  0.2728221E-009  0.1184313E+03  0.7561462E-02  0.1245708E+00
         -2   -1    0    0    0  501 -0.00000000000E+00  0.00000000000E+00  0.15933086948E+03  0.15933086948E+03  0.00000000000E+00 0.  1.
          2   -1    0    0  501    0  0.00000000000E+00 -0.00000000000E+00 -0.15080679229E+03  0.15080679229E+03  0.00000000000E+00 0. -1.
         25    2    1    2    0    0 -0.65111474730E+02  0.33543421708E+02  0.87188590190E+02  0.16915399608E+03  0.12508620567E+03 0.  0.
          5    1    3    3  502    0 -0.80089883878E+02 -0.12472267555E+02  0.89124764709E+02  0.12054311694E+03  0.41800000000E+01 0.  1.
         -5    1    3    3    0  502  0.14978409148E+02  0.46015689263E+02 -0.19361745194E+01  0.48610879139E+02  0.41800000000E+01 0.  1.
        -11    1    1    2    0    0  0.49064004502E+02 -0.59185422766E+02 -0.27695815846E+02  0.81714435818E+02  0.00000000000E+00 0.  1.
         11    1    1    2    0    0  0.16047470229E+02  0.25642001058E+02 -0.50968697155E+02  0.59269229864E+02  0.00000000000E+00 0. -1.
</event>
<event>
 7    1  0.2728221E-009  0.1401816E+03  0.7561462E-02  0.1213085E+00
         -1   -1    0    0    0  501 -0.00000000000E+00  0.00000000000E+00  0.52309010487E+02  0.52309010487E+02  0.00000000000E+00 0.  1.
          1   -1    0    0  501    0  0.00000000000E+00 -0.00000000000E+00 -0.51037229686E+03  0.51037229686E+03  0.00000000000E+00 0. -1.
         25    2    1    2    0    0  0.11992592851E+03 -0.22187195594E+02 -0.25966229170E+03  0.31296409696E+03  0.12509004867E+03 0.  0.
          5    1    3    3  502    0  0.12999992136E+02 -0.43642980705E+02 -0.15554738937E+03  0.16213010917E+03  0.41800000000E+01 0. -1.
         -5    1    3    3    0  502  0.10692593638E+03  0.21455785112E+02 -0.10411490233E+03  0.15083398779E+03  0.41800000000E+01 0. -1.
        -11    1    1    2    0    0 -0.23803746842E+02  0.16968425062E+02 -0.12578222244E+03  0.12913447756E+03  0.00000000000E+00 0. -1.
         11    1    1    2    0    0 -0.96122181673E+02  0.52187705314E+01 -0.72618772237E+02  0.12058273283E+03  0.00000000000E+00 0.  1.
</event>
<event>
 7    1  0.2728221E-009  0.1014021E+03  0.7561462E-02  0.1277375E+00
         -1   -1    0    0    0  501 -0.00000000000E+00  0.00000000000E+00  0.35089260396E+02  0.35089260396E+02  0.00000000000E+00 0.  1.
          1   -1    0    0  501    0  0.00000000000E+00 -0.00000000000E+00 -0.59381916267E+03  0.59381916267E+03  0.00000000000E+00 0. -1.
         25    2    1    2    0    0  0.11551207572E+02  0.73263836210E+02 -0.21726996651E+03  0.26145324281E+03  0.12510211725E+03 0.  0.
          5    1    3    3  502    0  0.76425707495E+01  0.29386287039E+02  0.81629886990E+01  0.31718599246E+02  0.41800000000E+01 0.  1.
         -5    1    3    3    0  502  0.39086368221E+01  0.43877549171E+02 -0.22543295521E+03  0.22973464357E+03  0.41800000000E+01 0.  1.
        -11    1    1    2    0    0  0.26408929554E+02 -0.84326929950E+02 -0.28602614530E+03  0.29936502546E+03  0.00000000000E+00 0.  1.
         11    1    1    2    0    0 -0.37960137126E+02  0.11063093740E+02 -0.55433790469E+02  0.68090154791E+02  0.00000000000E+00 0. -1.
</event>
<event>
 7    1  0.2728221E-009  0.1023075E+03  0.7561462E-02  0.1275517E+00
          1   -1    0    0  501    0  0.00000000000E+00  0.00000000000E+00  0.21397325262E+03  0.21397325262E+03  0.00000000000E+00 0. -1.
         -1   -1    0    0    0  501 -0.00000000000E+00 -0.00000000000E+00 -0.10553503857E+03  0.10553503857E+03  0.00000000000E+00 0.  1.
         25    2    1    2    0    0 -0.32921621329E+02 -0.86877156313E+02  0.81343397343E+02  0.17577233889E+03  0.12509074061E+03 0.  0.
          5    1    3    3  502    0 -0.31982804863E+02 -0.82583426969E+02  0.11294941758E+03  0.14358957326E+03  0.41800000000E+01 0.  1.
         -5    1    3    3    0  502 -0.93881646630E+00 -0.42937293446E+01 -0.31606020239E+02  0.32182765627E+02  0.41800000000E+01 0.  1.
        -11    1    1    2    0    0  0.30641217562E+02  0.89381917024E+01 -0.32533839271E+02  0.45576596871E+02  0.00000000000E+00 0.  1.
         11    1    1    2    0    0  0.22804037669E+01  0.77938964611E+02  0.59628655974E+02  0.98159355434E+02  0.00000000000E+00 0. -1.
</event>
<event>
 7    1  0.2728221E-009  0.1087542E+03  0.7561462E-02  0.1262894E+00
         -2   -1    0    0    0  501 -0.00000000000E+00  0.00000000000E+00  0.17161760003E+02  0.17161760003E+02  0.00000000000E+00 0.  1.
          2   -1    0    0  501    0  0.00000000000E+00 -0.00000000000E+00 -0.11642547700E+04  0.11642547700E+04  0.00000000000E+00 0. -1.
         25    2    1    2    0    0 -0.51372692232E+02  0.22886359037E+02 -0.92198580137E+03  0.93213269111E+03  0.12510234602E+03 0.  0.
          5    1    3    3  502    0 -0.42629750272E+02  0.72620783545E+02 -0.49202047128E+03  0.49919203757E+03  0.41800000000E+01 0. -1.
         -5    1    3    3    0  502 -0.87429419605E+01 -0.49734424508E+02 -0.42996533009E+03  0.43294065354E+03  0.41800000000E+01 0. -1.
        -11    1    1    2    0    0  0.53422643555E+02 -0.39088110224E+02 -0.22323884199E+03  0.23284638666E+03  0.00000000000E+00 0. -1.
         11    1    1    2    0    0 -0.20499513222E+01  0.16201751188E+02 -0.18683666338E+01  0.16437452231E+02  0.00000000000E+00 0.  1.
</event>
<event>
 7    1  0.2728221E-009  0.2221623E+03  0.7561462E-02  0.1132281E+00
         -1   -1    0    0    0  501 -0.00000000000E+00  0.00000000000E+00  0.10205988375E+03  0.10205988375E+03  0.00000000000E+00 0.  1.
          1   -1    0    0  501    0  0.00000000000E+00 -0.00000000000E+00 -0.50855489804E+03  0.50855489804E+03  0.00000000000E+00 0. -1.
         25    2    1    2    0    0  0.19439356443E+03 -0.25770489060E+02 -0.25093556225E+03  0.34215263452E+03  0.12508714125E+03 0.  0.
          5    1    3    3  502    0  0.18299510436E+03 -0.57830134944E+02 -0.17901337705E+03  0.26247817870E+03  0.41800000000E+01 0. -1.
         -5    1    3    3    0  502  0.11398460063E+02  0.32059645883E+02 -0.71922185203E+02  0.79674455820E+02  0.41800000000E+01 0. -1.
        -11    1    1    2    0    0 -0.65344655238E+02  0.55408202678E+02 -0.50612329875E+02  0.99506787847E+02  0.00000000000E+00 0. -1.
         11    1    1    2    0    0 -0.12904890919E+03 -0.29637713618E+02 -0.10494712216E+03  0.16895535943E+03  0.00000000000E+00 0.  1.
</event>
<event>
 6    1  0.2728221E-009  0.1243003E+03  0.7561462E-02  0.1236167E+00
         -3   -1    0    0    0  501 -0.00000000000E+00  0.00000000000E+00  0.67139838672E+03  0.67139838672E+03  0.00000000000E+00 0.  1.
          3   -1    0    0  501    0  0.00000000000E+00 -0.00000000000E+00 -0.28863001840E+02  0.28863001840E+02  0.00000000000E+00 0. -1.
          5    1    1    2  502    0 -0.72983538608E+00 -0.10561469882E+03  0.31044652085E+03  0.32794742257E+03  0.41800000000E+01 0.  1.
         -5    1    1    2    0  502  0.22529925059E+01  0.33451865154E+02  0.18613030876E+03  0.18917205792E+03  0.41800000000E+01 0.  1.
        -11    1    1    2    0    0 -0.30050731809E+02 -0.15318891125E+01  0.27623202439E+02  0.40846474505E+02  0.00000000000E+00 0. -1.
         11    1    1    2    0    0  0.28527574689E+02  0.73694722778E+02  0.11833535283E+03  0.14229543356E+03  0.00000000000E+00 0.  1.
</event>
<event>
 7    1  0.2728221E-009  0.1222152E+03  0.7561462E-02  0.1239487E+00
          2   -1    0    0  501    0  0.00000000000E+00  0.00000000000E+00  0.43824344055E+02  0.43824344055E+02  0.00000000000E+00 0. -1.
         -2   -1    0    0    0  501 -0.00000000000E+00 -0.00000000000E+00 -0.45040422964E+03  0.45040422964E+03  0.00000000000E+00 0.  1.
         25    2    1    2    0    0  0.27544333699E+02  0.65028900516E+02 -0.12867587614E+03  0.19285406410E+03  0.12509100974E+03 0.  0.
          5    1    3    3  502    0  0.66262679502E+02  0.40368814604E+01 -0.86423416381E+02  0.10905740876E+03  0.41800000000E+01 0.  1.
         -5    1    3    3    0  502 -0.38718345803E+02  0.60992019055E+02 -0.42252459762E+02  0.83796655339E+02  0.41800000000E+01 0.  1.
        -11    1    1    2    0    0 -0.54653177056E+02 -0.52128191513E+02 -0.12907986908E+03  0.14955243466E+03  0.00000000000E+00 0. -1.
         11    1    1    2    0    0  0.27108843357E+02 -0.12900709003E+02 -0.14882414037E+03  0.15182207493E+03  0.00000000000E+00 0.  1.
</event>
<event>
 7    1  0.2728221E-009  0.1151917E+03  0.7561462E-02  0.1251247E+00
         -3   -1    0    0    0  501 -0.00000000000E+00  0.00000000000E+00  0.36966927909E+03  0.36966927909E+03  0.00000000000E+00 0.  1.
          3   -1    0    0  501    0  0.00000000000E+00 -0.00000000000E+00 -0.38724066474E+02  0.38724066474E+02  0.00000000000E+00 0. -1.
         25    2    1    2    0    0  0.48682171042E+02 -0.16170284587E+02  0.19465185581E+03  0.23699960151E+03  0.12509210312E+03 0.  0.
          5    1    3    3  502    0 -0.27596596710E+00  0.49798753552E+02  0.50612377736E+02  0.71127190248E+02  0.41800000000E+01 0.  1.
         -5    1    3    3    0  502  0.48958137009E+02 -0.65969038139E+02  0.14403947808E+03  0.16587241126E+03  0.41800000000E+01 0.  1.
        -11    1    1    2    0    0 -0.50409331587E+02  0.46017159176E+02  0.11807535568E+03  0.13638353738E+03  0.00000000000E+00 0.  1.
         11    1    1    2    0    0  0.17271605447E+01 -0.29846874590E+02  0.18218001121E+02  0.35010206671E+02  0.00000000000E+00 0. -1.
</event>
<event>
 7    1  0.2728221E-009  0.7333880E+02  0.7561462E-02  0.1349094E+00
          1   -1    0    0  501    0  0.00000000000E+00  0.00000000000E+00  0.23136030106E+03  0.23136030106E+03  0.00000000000E+00 0.  1.
         -1   -1    0    0    0  501 -0.00000000000E+00 -0.00000000000E+00 -0.61659675033E+02  0.61659675033E+02  0.00000000000E+00 0. -1.
         25    2    1    2    0    0  0.38817748727E+02 -0.24898029743E+02  0.12060657270E+03  0.17978684237E+03  0.12510249322E+03 0.  0.
          5    1    3    3  502    0  0.38031304146E+02 -0.52631687298E+02  0.13379907278E+03  0.14878218603E+03  0.41800000000E+01 0. -1.
         -5    1    3    3    0  502  0.78644458112E+00  0.27733657556E+02 -0.13192500081E+02  0.31004656342E+02  0.41800000000E+01 0. -1.
        -11    1    1    2    0    0 -0.58353954005E+01  0.19216237804E+02 -0.24919293772E+02  0.32004481513E+02  0.00000000000E+00 0. -1.
         11    1    1    2    0    0 -0.32982353327E+02  0.56817919385E+01  0.74013347095E+02  0.81228652204E+02  0.00000000000E+00 0.  1.
</event>
<event>
 7    1  0.2728221E-009  0.1225451E+03  0.7561462E-02  0.1238957E+00
          2   -1    0    0  501    0  0.00000000000E+00  0.00000000000E+00  0.15632447339E+03  0.15632447339E+03  0.00000000000E+00 0. -1.
         -2   -1    0    0    0  501 -0.00000000000E+00 -0.00000000000E+00 -0.10941970489E+03  0.10941970489E+03  0.00000000000E+00 0.  1.
         25    2    1    2    0    0 -0.66938667388E+02  0.90782941007E+01  0.51302677676E+02  0.15113960988E+03  0.12509203142E+03 0.  0.
          5    1    3    3  502    0  0.17129043116E+02  0.38393384256E+02 -0.94257178116E+01  0.43287095409E+02  0.41800000000E+01 0. -1.
         -5    1    3    3    0  502 -0.84067710504E+02 -0.29315090155E+02  0.60728395487E+02  0.10785251448E+03  0.41800000000E+01 0. -1.
        -11    1    1    2    0    0  0.83945310340E+02  0.13937044080E+02  0.26382156612E+01  0.85135283565E+02  0.00000000000E+00 0.  1.
         11    1    1    2    0    0 -0.17006642952E+02 -0.23015338181E+02 -0.70361248328E+01  0.29469284836E+02  0.00000000000E+00 0. -1.
</event>
<event>
 7    1  0.2728221E-009  0.8997202E+02  0.7561462E-02  0.1302919E+00
         -1   -1    0    0    0  501 -0.00000000000E+00  0.00000000000E+00  0.31889423007E+03  0.31889423007E+03  0.00000000000E+00 0.  1.
          1   -1    0    0  501    0  0.00000000000E+00 -0.00000000000E+00 -0.43618202482E+02  0.43618202482E+02  0.00000000000E+00 0. -1.
         25    2    1    2    0    0  0.43477105811E+02  0.78854385971E+01  0.17713533665E+03  0.22130574383E+03  0.12508743299E+03 0.  0.
          5    1    3    3  502    0  0.13346408918E+02 -0.36211800527E+02  0.27937785179E+01  0.38919130602E+02  0.41800000000E+01 0.  1.
         -5    1    3    3    0  502  0.30130696893E+02  0.44097239124E+02  0.17434155813E+03  0.18238661323E+03  0.41800000000E+01 0.  1.
        -11    1    1    2    0    0 -0.74783917131E+01 -0.39159803346E+02  0.81450138447E+02  0.90683744925E+02  0.00000000000E+00 0.  1.
         11    1    1    2    0    0 -0.35998714098E+02  0.31274364748E+02  0.16690552491E+02  0.50522943794E+02  0.00000000000E+00 0. -1.
</event>
<event>
 7    1  0.2728221E-009  0.6076412E+02  0.7561462E-02  0.1394653E+00
          1   -1    0    0  501    0  0.00000000000E+00  0.00000000000E+00  0.17186550681E+03  0.17186550681E+03  0.00000000000E+00 0. -1.
         -1   -1    0    0    0  501 -0.00000000000E+00 -0.00000000000E+00 -0.73679414064E+02  0.73679414064E+02  0.00000000000E+00 0.  1.
         25    2    1    2    0    0 -0.20466515355E+02  0.27113656511E+02  0.55879431362E+02  0.14115144853E+03  0.12508873632E+03 0.  0.
          5    1    3    3  502    0  0.15949717418E+02  0.36515494807E+02 -0.28168977473E+02  0.48976918427E+02  0.41800000000E+01 0. -1.
         -5    1    3    3    0  502 -0.36416232773E+02 -0.94018382952E+01  0.84048408835E+02  0.92174530107E+02  0.41800000000E+01 0. -1.
        -11    1    1    2    0    0  0.66715910964E+01 -0.28945836209E+02 -0.23032926993E+02  0.37588392988E+02  0.00000000000E+00 0.  1.
         11    1    1    2    0    0  0.13794924258E+02  0.18321796972E+01  0.65339588380E+02  0.66805079353E+02  0.00000000000E+00 0. -1.
</event>
<event>
 7    1  0.2728221E-009  0.1994395E+03  0.7561462E-02  0.1150213E+00
          2   -1    0    0  501    0  0.00000000000E+00  0.00000000000E+00  0.16498033657E+03  0.16498033657E+03  0.00000000000E+00 0. -1.
         -2   -1    0    0    0  501 -0.00000000000E+00 -0.00000000000E+00 -0.29434795535E+03  0.29434795535E+03  0.00000000000E+00 0.  1.
         25    2    1    2    0    0  0.10974708383E+01  0.16776585693E+03 -0.16375249315E+03  0.26572391059E+03  0.12509088879E+03 0.  0.
          5    1    3    3  502    0 -0.49909250009E+02  0.14471591859E+03 -0.11906160928E+03  0.19397620868E+03  0.41800000000E+01 0. -1.
         -5    1    3    3    0  502  0.51006720848E+02  0.23049938335E+02 -0.44690883873E+02  0.71747701916E+02  0.41800000000E+01 0. -1.
        -11    1    1    2    0    0  0.41600397215E+02 -0.54476040276E+02  0.21578368748E+02  0.71859988940E+02  0.00000000000E+00 0. -1.
         11    1    1    2    0    0 -0.42697868053E+02 -0.11328981665E+03  0.12806505624E+02  0.12174439239E+03  0.00000000000E+00 0.  1.
</event>
<event>
 7    1  0.2728221E-009  0.1257945E+03  0.7561462E-02  0.1233833E+00
          1   -1    0    0  501    0  0.00000000000E+00  0.00000000000E+00  0.23257828580E+04  0.23257828580E+04  0.00000000000E+00 0. -1.
         -1   -1    0    0    0  501 -0.00000000000E+00 -0.00000000000E+00 -0.92491926529E+01  0.92491926529E+01  0.00000000000E+00 0.  1.
         25    2    1    2    0    0 -0.79884784680E+01 -0.69340501944E+02  0.18162642435E+04  0.18219042495E+04  0.12508945317E+03 0.  0.
          5    1    3    3  502    0 -0.53152672732E+02  0.17852962027E+01  0.47416428909E+03  0.47715578101E+03  0.41800000000E+01 0. -1.
         -5    1    3    3    0  502  0.45164194264E+02 -0.71125798147E+02  0.13420999544E+04  0.13447484685E+04  0.41800000000E+01 0. -1.
        -11    1    1    2    0    0 -0.38307337137E+02  0.51692622673E+02  0.29986151760E+03  0.30668633660E+03  0.00000000000E+00 0.  1.
         11    1    1    2    0    0  0.46295815605E+02  0.17647879271E+02  0.20040790427E+03  0.20644146453E+03  0.00000000000E+00 0. -1.
</event>
<event>
 7    1  0.2728221E-009  0.1194104E+03  0.7561462E-02  0.1244073E+00
         -2   -1    0    0    0  501 -0.00000000000E+00  0.00000000000E+00  0.55492945520E+03  0.55492945520E+03  0.00000000000E+00 0.  1.
          2   -1    0    0  501    0  0.00000000000E+00 -0.00000000000E+00 -0.33538805213E+02  0.33538805213E+02  0.00000000000E+00 0. -1.
         25    2    1    2    0    0 -0.56977239955E+02 -0.59074091042E+02  0.31601061149E+03  0.34963632202E+03  0.12508675788E+03 0.  0.
          5    1    3    3  502    0  0.51506747312E+01 -0.58238157997E+02  0.25784412825E+03  0.26442253946E+03  0.41800000000E+01 0. -1.
         -5    1    3    3    0  502 -0.62127914686E+02 -0.83593304456E+00  0.58166483238E+02  0.85213782568E+02  0.41800000000E+01 0. -1.
        -11    1    1    2    0    0  0.11795807483E+02  0.70376735940E+02  0.15247944682E+03  0.16835084715E+03  0.00000000000E+00 0.  1.
         11    1    1    2    0    0  0.45181432472E+02 -0.11302644898E+02  0.52900591680E+02  0.70481091237E+02  0.00000000000E+00 0. -1.
</event>
<event>
 7    1  0.2728221E-009  0.9454408E+02  0.7561462E-02  0.1292206E+00
          2   -1    0    0  501    0  0.00000000000E+00  0.00000000000E+00  0.58755832470E+02  0.58755832470E+02  0.00000000000E+00 0. -1.
         -2   -1    0    0    0  501 -0.00000000000E+00 -0.00000000000E+00 -0.25542951574E+03  0.25542951574E+03  0.00000000000E+00 0.  1.
         25    2    1    2    0    0  0.57213901202E+02  0.44600930159E+00 -0.11737623891E+03  0.18082495603E+03  0.12508738485E+03 0.  0.
          5    1    3    3  502    0  0.61333943355E+02 -0.19746552642E+02 -0.13738269476E+03  0.15180005326E+03  0.41800000000E+01 0.  1.
         -5    1    3    3    0  502 -0.41200421524E+01  0.20192561944E+02  0.20006455854E+02  0.29024902774E+02  0.41800000000E+01 0.  1.
        -11    1    1    2    0    0 -0.70986735081E+02  0.24415848278E+02 -0.40591421158E+02  0.85339988728E+02  0.00000000000E+00 0. -1.
         11    1    1    2    0    0  0.13772833879E+02 -0.24861857579E+02 -0.38706023205E+02  0.48020403452E+02  0.00000000000E+00 0.  1.
</event>
<event>
 7    1  0.2728221E-009  0.1262951E+03  0.7561462E-02  0.1233059E+00
          2   -1    0    0  501    0  0.00000000000E+00  0.00000000000E+00  0.43537809940E+03  0.43537809940E+03  0.00000000000E+00 0.  1.
         -2   -1    0    0    0  501 -0.00000000000E+00 -0.00000000000E+00 -0.40498627022E+02  0.40498627022E+02  0.00000000000E+00 0. -1.
         25    2    1    2    0    0  0.48577980561E+02 -0.56244629014E+02  0.24408243013E+03  0.28416527578E+03  0.12510152985E+03 0.  0.
          5    1    3    3  502    0  0.77896644147E+02 -0.90809656842E+01  0.85532664593E+02  0.11611916388E+03  0.41800000000E+01 0.  1.
         -5    1    3    3    0  502 -0.29318663586E+02 -0.47163663330E+02  0.15854976554E+03  0.16804611190E+03  0.41800000000E+01 0.  1.
        -11    1    1    2    0    0 -0.70916082267E+02  0.16559473992E+02  0.91297071000E+02  0.11678382626E+03  0.00000000000E+00 0. -1.
         11    1    1    2    0    0  0.22338101706E+02  0.39685155022E+02  0.59499971243E+02  0.74927624378E+02  0.00000000000E+00 0.  1.
</event>
<event>
 7    1  0.2728221E-009  0.7628544E+02  0.7561462E-02  0.1339936E+00
         -1   -1    0    0    0  501 -0.00000000000E+00  0.00000000000E+00  0.90879345571E+02  0.90879345571E+02  0.00000000000E+00 0.  1.
          1   -1    0    0  501    0  0.00000000000E+00 -0.00000000000E+00 -0.13664297935E+03  0.13664297935E+03  0.00000000000E+00 0. -1.
         25    2    1    2    0    0 -0.87505086324E+01  0.10723542033E+02 -0.15548202059E+01  0.12585724493E+03  0.12508422315E+03 0.  0.
          5    1    3    3  502    0 -0.12114093137E+02  0.55834317499E+02 -0.37035130010E+02  0.68215068115E+02  0.41800000000E+01 0. -1.
         -5    1    3    3    0  502  0.33635845045E+01 -0.45110775467E+02  0.35480309804E+02  0.57642176813E+02  0.41800000000E+01 0. -1.
        -11    1    1    2    0    0  0.21613532888E+02 -0.23359619237E+02  0.18229001714E+02  0.36675783813E+02  0.00000000000E+00 0.  1.
         11    1    1    2    0    0 -0.12863024256E+02  0.12636077204E+02 -0.62437815287E+02  0.64989296179E+02  0.00000000000E+00 0. -1.
</event>
<event>
 7    1  0.2728221E-009  0.1505119E+03  0.7561462E-02  0.1199845E+00
          2   -1    0    0  501    0  0.00000000000E+00  0.00000000000E+00  0.10647024967E+04  0.10647024967E+04  0.00000000000E+00 0. -1.
         -2   -1    0    0    0  501 -0.00000000000E+00 -0.00000000000E+00 -0.27772554664E+02  0.27772554664E+02  0.00000000000E+00 0.  1.
         25    2    1    2    0    0  0.86873541971E+02  0.96230173178E+02  0.47403187601E+03  0.50711129671E+03  0.12509352201E+03 0.  0.
          5    1    3    3  502    0  0.35039925312E+02  0.12684841657E+01  0.20489242293E+02  0.40825076457E+02  0.41800000000E+01 0. -1.
         -5    1    3    3    0  502  0.51833616658E+02  0.94961689013E+02  0.45354263372E+03  0.46628622025E+03  0.41800000000E+01 0. -1.
        -11    1    1    2    0    0 -0.58714456912E+02 -0.16241316831E+01  0.15676236114E+03  0.16740508691E+03  0.00000000000E+00 0. -1.
         11    1    1    2    0    0 -0.28159085059E+02 -0.94606041495E+02  0.40613570492E+03  0.41795866778E+03  0.00000000000E+00 0.  1.
</event>
<event>
 7    1  0.2728221E-009  0.1115456E+03  0.7561462E-02  0.1257734E+00
         -2   -1    0    0    0  501 -0.00000000000E+00  0.00000000000E+00  0.21170378305E+03  0.21170378305E+03  0.00000000000E+00 0.  1.
          2   -1    0    0  501    0  0.00000000000E+00 -0.00000000000E+00 -0.10427835898E+03  0.10427835898E+03  0.00000000000E+00 0. -1.
         25    2    1    2    0    0  0.36486836793E+02 -0.30053484663E+02  0.15341681547E+03  0.20352085929E+03  0.12509804035E+03 0.  0.
          5    1    3    3  502    0  0.72394537565E+02 -0.44304485836E+02  0.65147805518E+02  0.10707738089E+03  0.41800000000E+01 0. -1.
         -5    1    3    3    0  502 -0.35907700772E+02  0.14251001174E+02  0.88269009948E+02  0.96443478402E+02  0.41800000000E+01 0. -1.
        -11    1    1    2    0    0 -0.11799801289E+01 -0.29768054954E+02 -0.12138644890E+01  0.29816151929E+02  0.00000000000E+00 0.  1.
         11    1    1    2    0    0 -0.35306856664E+02  0.59821539616E+02 -0.44777526912E+02  0.82645130806E+02  0.00000000000E+00 0. -1.
</event>
<event>
 7    1  0.2728221E-009  0.1553717E+03  0.7561462E-02  0.1194023E+00
          2   -1    0    0  501    0  0.00000000000E+00  0.00000000000E+00  0.37672794914E+03  0.37672794914E+03  0.00000000000E+00 0. -1.
         -2   -1    0    0    0  501 -0.00000000000E+00 -0.00000000000E+00 -0.94107706037E+02  0.94107706037E+02  0.00000000000E+00 0.  1.
         25    2    1    2    0    0  0.51089546159E+02 -0.12167551341E+03  0.24510843260E+03  0.30518890859E+03  0.12508818452E+03 0.  0.
          5    1    3    3  502    0  0.89373298874E+02 -0.10082933669E+03  0.15799024173E+03  0.20768372727E+03  0.41800000000E+01 0.  1.
         -5    1    3    3    0  502 -0.38283752715E+02 -0.20846176721E+02  0.87118190862E+02  0.97505181323E+02  0.41800000000E+01 0.  1.
        -11    1    1    2    0    0 -0.41665310383E+02  0.91562670455E+02 -0.17616064508E+02  0.10212759881E+03  0.00000000000E+00 0.  1.
         11    1    1    2    0    0 -0.94242357758E+01  0.30112842952E+02  0.55127875015E+02  0.63519147777E+02  0.00000000000E+00 0. -1.
</event>
<event>
 7    1  0.2728221E-009  0.9939036E+02  0.7561462E-02  0.1281583E+00
          1   -1    0    0  501    0  0.00000000000E+00  0.00000000000E+00  0.66691878309E+03  0.66691878309E+03  0.00000000000E+00 0. -1.
         -1   -1    0    0    0  501 -0.00000000000E+00 -0.00000000000E+00 -0.28543510369E+02  0.28543510369E+02  0.00000000000E+00 0.  1.
         25    2    1    2    0    0  0.11140051918E+02 -0.35929997456E+02  0.15758944440E+03  0.20468574697E+03  0.12508699595E+03 0.  0.
          5    1    3    3  502    0 -0.99095756399E+01 -0.64037702469E+02  0.15635242041E+03  0.16930026224E+03  0.41800000000E+01 0.  1.
         -5    1    3    3    0  502  0.21049627558E+02  0.28107705013E+02  0.12370239858E+01  0.35385484732E+02  0.41800000000E+01 0.  1.
        -11    1    1    2    0    0  0.31637084873E+02 -0.12363985006E+02  0.15925474050E+03  0.16283686817E+03  0.00000000000E+00 0.  1.
         11    1    1    2    0    0 -0.42777136791E+02  0.48293982461E+02  0.32153108783E+03  0.32793967832E+03  0.00000000000E+00 0. -1.
</event>
<event>
 7    1  0.2728221E-009  0.9847413E+02  0.7561462E-02  0.1283538E+00
         -2   -1    0    0    0  501 -0.00000000000E+00  0.00000000000E+00  0.19984484802E+02  0.19984484802E+02  0.00000000000E+00 0. -1.
          2   -1    0    0  501    0  0.00000000000E+00 -0.00000000000E+00 -0.67274831576E+03  0.67274831576E+03  0.00000000000E+00 0.  1.
         25    2    1    2    0    0  0.22754190383E+02 -0.33642189282E+02 -0.38440198817E+03  0.40627775558E+03  0.12508867291E+03 0.  0.
          5    1    3    3  502    0 -0.18079244125E+02  0.22355887920E+02 -0.27614402335E+03  0.27766821716E+03  0.41800000000E+01 0. -1.
         -5    1    3    3    0  502  0.40833434508E+02 -0.55998077202E+02 -0.10825796482E+03  0.12860953842E+03  0.41800000000E+01 0. -1.
        -11    1    1    2    0    0  0.31033506253E+01  0.60849850338E+02 -0.19072498583E+03  0.20022076638E+03  0.00000000000E+00 0.  1.
         11    1    1    2    0    0 -0.25857541008E+02 -0.27207661056E+02 -0.77636856958E+02  0.86234278599E+02  0.00000000000E+00 0. -1.
</event>
<event>
 7    1  0.2728221E-009  0.7985396E+02  0.7561462E-02  0.1329466E+00
          2   -1    0    0  501    0  0.00000000000E+00  0.00000000000E+00  0.18130606379E+03  0.18130606379E+03  0.00000000000E+00 0. -1.
         -2   -1    0    0    0  501 -0.00000000000E+00 -0.00000000000E+00 -0.69596568955E+02  0.69596568955E+02  0.00000000000E+00 0.  1.
         25    2    1    2    0    0 -0.25506659657E+02 -0.64542444760E+01  0.53306142882E+02  0.13849940087E+03  0.12509313416E+03 0.  0.
          5    1    3    3  502    0 -0.38809367260E+02 -0.22508853712E+02 -0.28937878558E+02  0.53550804830E+02  0.41800000000E+01 0. -1.
         -5    1    3    3    0  502  0.13302707604E+02  0.16054609236E+02  0.82244021440E+02  0.84948596045E+02  0.41800000000E+01 0. -1.
        -11    1    1    2    0    0  0.47215683107E+02 -0.26332456060E+02  0.46526810345E+02  0.71326454099E+02  0.00000000000E+00 0. -1.
         11    1    1    2    0    0 -0.21709023451E+02  0.32786700536E+02  0.11876541604E+02  0.41076777767E+02  0.00000000000E+00 0.  1.
</event>
<event>
 7    1  0.2728221E-009  0.9523568E+02  0.7561462E-02  0.1290646E+00
          1   -1    0    0  501    0  0.00000000000E+00  0.00000000000E+00  0.25181933700E+03  0.25181933700E+03  0.00000000000E+00 0. -1.
         -1   -1    0    0    0  501 -0.00000000000E+00 -0.00000000000E+00 -0.76749760319E+02  0.76749760319E+02  0.00000000000E+00 0.  1.
         25    2    1    2    0    0 -0.65795621597E+02  0.33128035227E+02  0.14972626391E+03  0.20857007346E+03  0.12512789816E+03 0.  0.
          5    1    3    3  502    0 -0.32488657163E+02 -0.99033970918E+01 -0.13251711074E+02  0.36697007570E+02  0.41800000000E+01 0. -1.
         -5    1    3    3    0  502 -0.33306964435E+02  0.43031432319E+02  0.16297797499E+03  0.17187306589E+03  0.41800000000E+01 0. -1.
        -11    1    1    2    0    0  0.76302202205E+02 -0.10884539018E+02 -0.91674996060E+01  0.77617925120E+02  0.00000000000E+00 0.  1.
         11    1    1    2    0    0 -0.10506580607E+02 -0.22243496209E+02  0.34510812374E+02  0.42381098739E+02  0.00000000000E+00 0. -1.
</event>
<event>
 7    1  0.2728221E-009  0.1267990E+03  0.7561462E-02  0.1232284E+00
          1   -1    0    0  501    0  0.00000000000E+00  0.00000000000E+00  0.58174824997E+03  0.58174824997E+03  0.00000000000E+00 0. -1.
         -1   -1    0    0    0  501 -0.00000000000E+00 -0.00000000000E+00 -0.36044281775E+02  0.36044281775E+02  0.00000000000E+00 0.  1.
         25    2    1    2    0    0  0.73052911256E+02  0.49799030776E+02  0.37261933506E+03  0.40287446836E+03  0.12508396015E+03 0.  0.
          5    1    3    3  502    0  0.12032604731E+02  0.63015410936E+02  0.75162382725E+02  0.98906934888E+02  0.41800000000E+01 0.  1.
         -5    1    3    3    0  502  0.61020306525E+02 -0.13216380161E+02  0.29745695233E+03  0.30396753347E+03  0.41800000000E+01 0.  1.
        -11    1    1    2    0    0 -0.93958412493E+02 -0.48624172996E+02  0.15208859855E+03  0.18526585030E+03  0.00000000000E+00 0. -1.
         11    1    1    2    0    0  0.20905501237E+02 -0.11748577791E+01  0.20996034591E+02  0.29652213093E+02  0.00000000000E+00 0.  1.
</event>
<event>
 6    1  0.2728221E-009  0.1100018E+03  0.7561462E-02  0.1260566E+00
          2   -1    0    0  501    0  0.00000000000E+00  0.00000000000E+00  0.67984299055E+02  0.67984299055E+02  0.00000000000E+00 0. -1.
         -2   -1    0    0    0  501 -0.00000000000E+00 -0.00000000000E+00 -0.23520815502E+03  0.23520815502E+03  0.00000000000E+00 0.  1.
          5    1    1    2  502    0 -0.77588087512E+02 -0.14551701395E+02 -0.11650747844E+03  0.14079463154E+03  0.41800000000E+01 0. -1.
         -5    1    1    2    0  502  0.46294390333E+02 -0.16989609053E+02 -0.34539570594E+02  0.60351236349E+02  0.41800000000E+01 0. -1.
        -11    1    1    2    0    0  0.23233210806E+02  0.58700906920E+02 -0.30711488172E+02  0.70205228177E+02  0.00000000000E+00 0.  1.
         11    1    1    2    0    0  0.80604863725E+01 -0.27159596473E+02  0.14534681242E+02  0.31841358011E+02  0.00000000000E+00 0. -1.
</event>
<event>
 7    1  0.2728221E-009  0.1028051E+03  0.7561462E-02  0.1274505E+00
         -2   -1    0    0    0  501 -0.00000000000E+00  0.00000000000E+00  0.32264525566E+03  0.32264525566E+03  0.00000000000E+00 0.  1.
          2   -1    0    0  501    0  0.00000000000E+00 -0.00000000000E+00 -0.39296975150E+02  0.39296975150E+02  0.00000000000E+00 0. -1.
         25    2    1    2    0    0  0.14979711342E+01  0.17844970307E+02  0.12238879871E+03  0.17591832671E+03  0.12509017843E+03 0.  0.
          5    1    3    3  502    0  0.52721490241E+02  0.37449294343E+02  0.93572718860E+02  0.11382148872E+03  0.41800000000E+01 0. -1.
         -5    1    3    3    0  502 -0.51223519107E+02 -0.19604324035E+02  0.28816079852E+02  0.62096837992E+02  0.41800000000E+01 0. -1.
        -11    1    1    2    0    0 -0.38223486840E+01 -0.51712559637E+02  0.13046249591E+03  0.14038967915E+03  0.00000000000E+00 0.  1.
         11    1    1    2    0    0  0.23243775498E+01  0.33867589330E+02  0.30496985892E+02  0.45634224946E+02  0.00000000000E+00 0. -1.
</event>
<event>
 7    1  0.2728221E-009  0.1267562E+03  0.7561462E-02  0.1232350E+00
         -2   -1    0    0    0  501 -0.00000000000E+00  0.00000000000E+00  0.25737332470E+02  0.25737332470E+02  0.00000000000E+00 0.  1.
          2   -1    0    0  501    0  0.00000000000E+00 -0.00000000000E+00 -0.84712680899E+03  0.84712680899E+03  0.00000000000E+00 0. -1.
         25    2    1    2    0    0 -0.40005640031E+01 -0.91097903692E+02 -0.48400642021E+03  0.50815977609E+03  0.12509720486E+03 0.  0.
          5    1    3    3  502    0  0.37030049320E+02  0.13411127098E+02 -0.17317495124E+03  0.17764604983E+03  0.41800000000E+01 0.  1.
         -5    1    3    3    0  502 -0.41030613323E+02 -0.10450903079E+03 -0.31083146896E+03  0.33051372626E+03  0.41800000000E+01 0.  1.
        -11    1    1    2    0    0  0.23746365617E+02  0.36987623701E+02 -0.33115901424E+02  0.55033054742E+02  0.00000000000E+00 0.  1.
         11    1    1    2    0    0 -0.19745801614E+02  0.54110279991E+02 -0.30426715488E+03  0.30967131062E+03  0.00000000000E+00 0. -1.
</event>
<event>
 7    1  0.3774111E-009  0.1446684E+03  0.7561462E-02  0.1207182E+00
          2   -1    0    0  501    0  0.00000000000E+00  0.00000000000E+00  0.34808753580E+03  0.34808753580E+03  0.00000000000E+00 0. -1.
         -2   -1    0    0    0  501 -0.00000000000E+00 -0.00000000000E+00 -0.68711103239E+02  0.68711103239E+02  0.00000000000E+00 0.  1.
         25    2    1    2    0    0 -0.99408132375E+02 -0.45034907783E+02  0.17095551490E+03  0.23829302230E+03  0.12509059398E+03 0.  0.
          5    1    3    3  502    0  0.16621248074E+02 -0.27162683213E+02  0.90181860435E+02  0.95730442381E+02  0.41800000000E+01 0. -1.
         -5    1    3    3    0  502 -0.11602938045E+03 -0.17872224570E+02  0.80773654464E+02  0.14256257992E+03  0.41800000000E+01 0. -1.
        -11    1    1    2    0    0  0.33805186857E+01  0.43577380389E+02  0.48583302597E+02  0.65351000600E+02  0.00000000000E+00 0. -1.
         11    1    1    2    0    0  0.96027613689E+02  0.14575273936E+01  0.59837615068E+02  0.11315461614E+03  0.00000000000E+00 0.  1.
</event>
<event>
 7    1  0.2728221E-009  0.1093248E+03  0.7561462E-02  0.1261825E+00
         -2   -1    0    0    0  501 -0.00000000000E+00  0.00000000000E+00  0.25495954190E+02  0.25495954190E+02  0.00000000000E+00 0.  1.
          2   -1    0    0  501    0  0.00000000000E+00 -0.00000000000E+00 -0.60946879951E+03  0.60946879951E+03  0.00000000000E+00 0. -1.
         25    2    1    2    0    0 -0.54198892174E+02  0.10376084116E+02 -0.27522708714E+03  0.30731479258E+03  0.12508896517E+03 0.  0.
          5    1    3    3  502    0  0.18991247407E+02  0.38008075170E+02 -0.17482946493E+03  0.17996692881E+03  0.41800000000E+01 0. -1.
         -5    1    3    3    0  502 -0.73190139581E+02 -0.27631991054E+02 -0.10039762221E+03  0.12734786377E+03  0.41800000000E+01 0. -1.
        -11    1    1    2    0    0  0.66026114910E+02  0.16665456785E+02 -0.13275520728E+03  0.14920164329E+03  0.00000000000E+00 0.  1.
         11    1    1    2    0    0 -0.11827222737E+02 -0.27041540901E+02 -0.17599055089E+03  0.17844831783E+03  0.00000000000E+00 0. -1.
</event>
<event>
 7    1  0.2728221E-009  0.1858678E+03  0.7561462E-02  0.1162242E+00
          1   -1    0    0  501    0  0.00000000000E+00  0.00000000000E+00  0.14213426024E+04  0.14213426024E+04  0.00000000000E+00 0. -1.
         -1   -1    0    0    0  501 -0.00000000000E+00 -0.00000000000E+00 -0.24736646325E+02  0.24736646325E+02  0.00000000000E+00 0.  1.
         25    2    1    2    0    0 -0.14943010790E+03 -0.27030975183E+02  0.65437261260E+03  0.68331022447E+03  0.12509722611E+03 0.  0.
          5    1    3    3  502    0 -0.62088477702E+02  0.49676372932E+02  0.29670710224E+03  0.30720562822E+03  0.41800000000E+01 0.  1.
         -5    1    3    3    0  502 -0.87341630202E+02 -0.76707348114E+02  0.35766551036E+03  0.37610459625E+03  0.41800000000E+01 0.  1.
        -11    1    1    2    0    0  0.68156792507E+02 -0.32046900605E+02  0.32205169564E+03  0.33074105713E+03  0.00000000000E+00 0.  1.
         11    1    1    2    0    0  0.81273315397E+02  0.59077875788E+02  0.42018164784E+03  0.43202796713E+03  0.00000000000E+00 0. -1.
</event>
<event>
 6    1  0.2728221E-009  0.1090824E+03  0.7561462E-02  0.1262279E+00
         -1   -1    0    0    0  501 -0.00000000000E+00  0.00000000000E+00  0.12373024578E+03  0.12373024578E+03  0.00000000000E+00 0.  1.
          1   -1    0    0  501    0  0.00000000000E+00 -0.00000000000E+00 -0.17264092272E+03  0.17264092272E+03  0.00000000000E+00 0. -1.
          5    1    1    2  502    0 -0.66183181080E+02  0.25172418280E+02 -0.68012581158E+02  0.98270278801E+02  0.41800000000E+01 0.  1.
         -5    1    1    2    0  502  0.61906580091E+01 -0.71048106374E+02 -0.26427818459E+02  0.76171252152E+02  0.41800000000E+01 0.  1.
        -11    1    1    2    0    0  0.28094889769E+02  0.25511049650E+02  0.68032279308E+02  0.77900754253E+02  0.00000000000E+00 0.  1.
         11    1    1    2    0    0  0.31897633302E+02  0.20364638444E+02 -0.22502556625E+02  0.44028883292E+02  0.00000000000E+00 0. -1.
</event>
<event>
 7    1  0.2728221E-009  0.1229288E+03  0.7561462E-02  0.1238342E+00
          2   -1    0    0  501    0  0.00000000000E+00  0.00000000000E+00  0.22037467031E+03  0.22037467031E+03  0.00000000000E+00 0. -1.
         -2   -1    0    0    0  501 -0.00000000000E+00 -0.00000000000E+00 -0.11391125352E+03  0.11391125352E+03  0.00000000000E+00 0.  1.
         25    2    1    2    0    0 -0.10160513011E+03 -0.54540846388E+02  0.54076590680E+02  0.17852390610E+03  0.12509276958E+03 0.  0.
          5    1    3    3  502    0 -0.94666312023E+02 -0.25086992889E+02 -0.18524327429E+02  0.99758162327E+02  0.41800000000E+01 0. -1.
         -5    1    3    3    0  502 -0.69388180918E+01 -0.29453853499E+02  0.72600918108E+02  0.78765743776E+02  0.41800000000E+01 0. -1.
        -11    1    1    2    0    0  0.64085958943E+02  0.22414755721E+02 -0.17565675579E+02  0.70128342104E+02  0.00000000000E+00 0.  1.
         11    1    1    2    0    0  0.37519171171E+02  0.32126090667E+02  0.69952501695E+02  0.85633675621E+02  0.00000000000E+00 0. -1.
</event>
<event>
 7    1  0.2728221E-009  0.1297350E+03  0.7561462E-02  0.1227849E+00
          1   -1    0    0  501    0  0.00000000000E+00  0.00000000000E+00  0.14088016564E+03  0.14088016564E+03  0.00000000000E+00 0. -1.
         -1   -1    0    0    0  501 -0.00000000000E+00 -0.00000000000E+00 -0.15567341497E+03  0.15567341497E+03  0.00000000000E+00 0.  1.
         25    2    1    2    0    0 -0.76192225875E+02  0.63084000644E+02  0.11027113850E+02  0.15985439879E+03  0.12508790970E+03 0.  0.
          5    1    3    3  502    0 -0.71976776022E+02  0.10886881265E+02  0.55010755910E+02  0.91339127081E+02  0.41800000000E+01 0. -1.
         -5    1    3    3    0  502 -0.42154498527E+01  0.52197119379E+02 -0.43983642060E+02  0.68515271712E+02  0.41800000000E+01 0. -1.
        -11    1    1    2    0    0  0.94533893440E+02 -0.35675482571E+02 -0.22797595700E+02  0.10358150141E+03  0.00000000000E+00 0.  1.
         11    1    1    2    0    0 -0.18341667565E+02 -0.27408518072E+02 -0.30227674762E+01  0.33117680402E+02  0.00000000000E+00 0. -1.
</event>
<event>
 7    1  0.2728221E-009  0.3734226E+03  0.7561462E-02  0.1053392E+00
         -2   -1    0    0    0  501 -0.00000000000E+00  0.00000000000E+00  0.36790635500E+03  0.36790635500E+03  0.00000000000E+00 0.  1.
          2   -1    0    0  501    0  0.00000000000E+00 -0.00000000000E+00 -0.53236535733E+03  0.53236535733E+03  0.00000000000E+00 0. -1.
         25    2    1    2    0    0 -0.15118545916E+03 -0.33094293174E+03 -0.31383592171E+03  0.49650840744E+03  0.12508935114E+03 0.  0.
          5    1    3    3  502    0 -0.12007876463E+03 -0.17244535725E+03 -0.23952795542E+03  0.31866506677E+03  0.41800000000E+01 0.  1.
         -5    1    3    3    0  502 -0.31106694526E+02 -0.15849757450E+03 -0.74307966290E+02  0.17784334067E+03  0.41800000000E+01 0.  1.
        -11    1    1    2    0    0  0.10860331137E+02  0.12743341517E+03  0.48914470273E+02  0.13693008251E+03  0.00000000000E+00 0.  1.
         11    1    1    2    0    0  0.14032512802E+03  0.20350951658E+03  0.10046244911E+03  0.26683322239E+03  0.00000000000E+00 0. -1.
</event>
<event>
 7    1  0.2728221E-009  0.1332880E+03  0.7561462E-02  0.1222657E+00
          2   -1    0    0  501    0  0.00000000000E+00  0.00000000000E+00  0.27617723462E+03  0.27617723462E+03  0.00000000000E+00 0. -1.
         -2   -1    0    0    0  501 -0.00000000000E+00 -0.00000000000E+00 -0.67733608771E+02  0.67733608771E+02  0.00000000000E+00 0.  1.
         25    2    1    2    0    0 -0.69329803049E+02  0.45096841340E+02  0.12049080206E+03  0.19236872463E+03  0.12508935264E+03 0.  0.
          5    1    3    3  502    0  0.23811885260E+02  0.44469052799E+02  0.17773816534E+02  0.53645908425E+02  0.41800000000E+01 0.  1.
         -5    1    3    3    0  502 -0.93141688310E+02  0.62778854041E+00  0.10271698553E+03  0.13872281620E+03  0.41800000000E+01 0.  1.
        -11    1    1    2    0    0  0.85562840235E+02 -0.12718641711E+02  0.69073787173E+02  0.11069756795E+03  0.00000000000E+00 0.  1.
         11    1    1    2    0    0 -0.16233037186E+02 -0.32378199629E+02  0.18879036615E+02  0.40844550812E+02  0.00000000000E+00 0. -1.
</event>
<event>
 7    1  0.2728221E-009  0.1134551E+03  0.7561462E-02  0.1254302E+00
          1   -1    0    0  501    0  0.00000000000E+00  0.00000000000E+00  0.29791027518E+02  0.29791027518E+02  0.00000000000E+00 0. -1.
         -1   -1    0    0    0  501 -0.00000000000E+00 -0.00000000000E+00 -0.70656507754E+03  0.70656507754E+03  0.00000000000E+00 0.  1.
         25    2    1    2    0    0  0.86042402702E+02  0.36104508466E+02 -0.43377910224E+03  0.46099700719E+03  0.12508837077E+03 0.  0.
          5    1    3    3  502    0  0.43064016125E+02 -0.56006120422E+01 -0.30397915912E+02  0.53173132613E+02  0.41800000000E+01 0.  1.
         -5    1    3    3    0  502  0.42978386577E+02  0.41705120508E+02 -0.40338118633E+03  0.40782387457E+03  0.41800000000E+01 0.  1.
        -11    1    1    2    0    0 -0.19341647447E+02  0.25802785766E+02 -0.10677229512E+03  0.11153567180E+03  0.00000000000E+00 0.  1.
         11    1    1    2    0    0 -0.66700755255E+02 -0.61907294232E+02 -0.13622265266E+03  0.16382342607E+03  0.00000000000E+00 0. -1.
</event>
<event>
 7    1  0.2728221E-009  0.1002425E+03  0.7561462E-02  0.1279787E+00
          2   -1    0    0  501    0  0.00000000000E+00  0.00000000000E+00  0.18680069402E+02  0.18680069402E+02  0.00000000000E+00 0. -1.
         -2   -1    0    0    0  501 -0.00000000000E+00 -0.00000000000E+00 -0.71566265506E+03  0.71566265506E+03  0.00000000000E+00 0.  1.
         25    2    1    2    0    0  0.15983284866E+02  0.26401144517E+02 -0.50086096319E+03  0.51716593255E+03  0.12508561675E+03 0.  0.
          5    1    3    3  502    0 -0.31653747904E+02 -0.30593332236E+02 -0.98304236805E+02  0.10779196217E+03  0.41800000000E+01 0.  1.
         -5    1    3    3    0  502  0.47637032770E+02  0.56994476752E+02 -0.40255672638E+03  0.40937397038E+03  0.41800000000E+01 0.  1.
        -11    1    1    2    0    0 -0.34479046060E+02  0.14170975608E+02 -0.14321229746E+03  0.14798440226E+03  0.00000000000E+00 0. -1.
         11    1    1    2    0    0  0.18495761194E+02 -0.40572120124E+02 -0.52909325009E+02  0.69192389657E+02  0.00000000000E+00 0.  1.
</event>
<event>
 7    1  0.2728221E-009  0.9066105E+02  0.7561462E-02  0.1301259E+00
         -1   -1    0    0    0  501 -0.00000000000E+00  0.00000000000E+00  0.28507433144E+03  0.28507433144E+03  0.00000000000E+00 0.  1.
          1   -1    0    0  501    0  0.00000000000E+00 -0.00000000000E+00 -0.43174356864E+02  0.43174356864E+02  0.00000000000E+00 0. -1.
         25    2    1    2    0    0  0.19144863087E+02  0.13693065949E+02  0.12443815147E+03  0.17800776593E+03  0.12509150792E+03 0.  0.
          5    1    3    3  502    0 -0.30694912418E+02  0.31946706516E+02  0.11581807435E+03  0.12407283527E+03  0.41800000000E+01 0.  1.
         -5    1    3    3    0  502  0.49839775505E+02 -0.18253640568E+02  0.86200771225E+01  0.53934930666E+02  0.41800000000E+01 0.  1.
        -11    1    1    2    0    0 -0.36285615076E+02 -0.38836747793E+02  0.38531262148E+02  0.65647520923E+02  0.00000000000E+00 0. -1.
         11    1    1    2    0    0  0.17140751989E+02  0.25143681845E+02  0.78930560953E+02  0.84593401443E+02  0.00000000000E+00 0.  1.
</event>
<event>
 7    1  0.2728221E-009  0.2361517E+03  0.7561462E-02  0.1122383E+00
         -1   -1    0    0    0  501 -0.00000000000E+00  0.00000000000E+00  0.34482619941E+03  0.34482619941E+03  0.00000000000E+00 0.  1.
          1   -1    0    0  501    0  0.00000000000E+00 -0.00000000000E+00 -0.19675626819E+03  0.19675626819E+03  0.00000000000E+00 0. -1.
         25    2    1    2    0    0 -0.13358659712E+03  0.18142268495E+03  0.15015260101E+03  0.29823103895E+03  0.12504550956E+03 0.  0.
          5    1    3    3  502    0 -0.85118996044E+02  0.78531329515E+02  0.14318477361E+03  0.18420576809E+03  0.41800000000E+01 0.  1.
         -5    1    3    3    0  502 -0.48467601079E+02  0.10289135543E+03  0.69678273973E+01  0.11402527086E+03  0.41800000000E+01 0.  1.
        -11    1    1    2    0    0  0.87928780229E+02 -0.17584891007E+03  0.57574075330E+01  0.19669127410E+03  0.00000000000E+00 0.  1.
         11    1    1    2    0    0  0.45657816894E+02 -0.55737748742E+01 -0.78400773255E+01  0.46660154547E+02  0.00000000000E+00 0. -1.
</event>
<event>
 7    1  0.2728221E-009  0.1022413E+03  0.7561462E-02  0.1275652E+00
         -2   -1    0    0    0  501 -0.00000000000E+00  0.00000000000E+00  0.52999203768E+02  0.52999203768E+02  0.00000000000E+00 0.  1.
          2   -1    0    0  501    0  0.00000000000E+00 -0.00000000000E+00 -0.29036785813E+03  0.29036785813E+03  0.00000000000E+00 0. -1.
         25    2    1    2    0    0  0.52167445924E+02 -0.25769121962E+02 -0.12732340736E+03  0.18773148839E+03  0.12508545723E+03 0.  0.
          5    1    3    3  502    0 -0.26831918655E+02  0.30154641810E+02 -0.30517221331E+02  0.50774279701E+02  0.41800000000E+01 0.  1.
         -5    1    3    3    0  502  0.78999364579E+02 -0.55923763772E+02 -0.96806186027E+02  0.13695720869E+03  0.41800000000E+01 0.  1.
        -11    1    1    2    0    0 -0.48350534024E+02  0.81971193889E+01 -0.12369383428E+03  0.13306063109E+03  0.00000000000E+00 0. -1.
         11    1    1    2    0    0 -0.38169118996E+01  0.17572002574E+02  0.13648587274E+02  0.22574942424E+02  0.00000000000E+00 0.  1.
</event>
<event>
 7    1  0.2728221E-009  0.1056871E+03  0.7561462E-02  0.1268772E+00
         -2   -1    0    0    0  501 -0.00000000000E+00  0.00000000000E+00  0.29747006379E+02  0.29747006379E+02  0.00000000000E+00 0.  1.
          2   -1    0    0  501    0  0.00000000000E+00 -0.00000000000E+00 -0.45619969518E+03  0.45619969518E+03  0.00000000000E+00 0. -1.
         25    2    1    2    0    0  0.20819859100E+01 -0.53921301705E+01 -0.15376047905E+03  0.19830023083E+03  0.12508911581E+03 0.  0.
          5    1    3    3  502    0  0.49196344952E+02  0.34902525835E+02 -0.55693113522E+02  0.82204999605E+02  0.41800000000E+01 0.  1.
         -5    1    3    3    0  502 -0.47114359042E+02 -0.40294656006E+02 -0.98067365530E+02  0.11609523122E+03  0.41800000000E+01 0.  1.
        -11    1    1    2    0    0  0.41837258205E+02  0.13804917170E+02 -0.10030549274E+03  0.10955420478E+03  0.00000000000E+00 0.  1.
         11    1    1    2    0    0 -0.43919244115E+02 -0.84127869993E+01 -0.17238671701E+03  0.17809226595E+03  0.00000000000E+00 0. -1.
</event>
<event>
 7    1  0.2728221E-009  0.2498549E+03  0.7561462E-02  0.1113397E+00
          1   -1    0    0  501    0  0.00000000000E+00  0.00000000000E+00  0.81442683191E+03  0.81442683191E+03  0.00000000000E+00 0.  1.
         -1   -1    0    0    0  501 -0.00000000000E+00 -0.00000000000E+00 -0.97713000212E+02  0.97713000212E+02  0.00000000000E+00 0. -1.
         25    2    1    2    0    0 -0.24242749311E+03  0.18869314736E+02  0.51526743955E+03  0.58333092670E+03  0.12508914951E+03 0.  0.
          5    1    3    3  502    0 -0.14172969811E+03  0.39812090956E+02  0.41195886293E+03  0.43749272801E+03  0.41800000000E+01 0. -1.
         -5    1    3    3    0  502 -0.10069779500E+03 -0.20942776220E+02  0.10330857662E+03  0.14583819869E+03  0.41800000000E+01 0. -1.
        -11    1    1    2    0    0  0.15499861157E+03  0.15033009328E+02  0.79109893604E+02  0.17466807443E+03  0.00000000000E+00 0. -1.
         11    1    1    2    0    0  0.87428881543E+02 -0.33902324064E+02  0.12233649854E+03  0.15414083100E+03  0.00000000000E+00 0.  1.
</event>
<event>
 7    1  0.2728221E-009  0.8992445E+02  0.7561462E-02  0.1303035E+00
         -2   -1    0    0    0  501 -0.00000000000E+00  0.00000000000E+00  0.26262791634E+02  0.26262791634E+02  0.00000000000E+00 0.  1.
          2   -1    0    0  501    0  0.00000000000E+00 -0.00000000000E+00 -0.54963178261E+03  0.54963178261E+03  0.00000000000E+00 0. -1.
         25    2    1    2    0    0  0.40566906091E+01 -0.50933361783E+02 -0.29498087676E+03  0.32445478032E+03  0.12508606133E+03 0.  0.
          5    1    3    3  502    0  0.69064232508E+01  0.10563475790E+02 -0.24414414799E+03  0.24450587540E+03  0.41800000000E+01 0. -1.
         -5    1    3    3    0  502 -0.28497326417E+01 -0.61496837573E+02 -0.50836728763E+02  0.79948904926E+02  0.41800000000E+01 0. -1.
        -11    1    1    2    0    0  0.16061483632E+02  0.73141124205E+02 -0.15393941694E+03  0.17118685521E+03  0.00000000000E+00 0. -1.
         11    1    1    2    0    0 -0.20118174241E+02 -0.22207762423E+02 -0.74448697273E+02  0.80252938714E+02  0.00000000000E+00 0.  1.
</event>
<event>
 7    1  0.2728221E-009  0.1000743E+03  0.7561462E-02  0.1280140E+00
         -2   -1    0    0    0  501 -0.00000000000E+00  0.00000000000E+00  0.35425376287E+02  0.35425376287E+02  0.00000000000E+00 0. -1.
          2   -1    0    0  501    0  0.00000000000E+00 -0.00000000000E+00 -0.34910099836E+03  0.34910099836E+03  0.00000000000E+00 0.  1.
         25    2    1    2    0    0  0.25614911681E+02 -0.36270701103E+01 -0.17933827356E+03  0.22017999074E+03  0.12509089742E+03 0.  0.
          5    1    3    3  502    0  0.60912674234E+02 -0.38037028245E+02 -0.13835246340E+03  0.15593603153E+03  0.41800000000E+01 0. -1.
         -5    1    3    3    0  502 -0.35297762552E+02  0.34409958135E+02 -0.40985810162E+02  0.64243959207E+02  0.41800000000E+01 0. -1.
        -11    1    1    2    0    0  0.26191602579E+02  0.60404785286E+01 -0.84206604510E+01  0.28167267332E+02  0.00000000000E+00 0. -1.
         11    1    1    2    0    0 -0.51806514260E+02 -0.24134084184E+01 -0.12591668806E+03  0.13617911658E+03  0.00000000000E+00 0.  1.
</event>
<event>
 7    1  0.2728221E-009  0.9772081E+02  0.7561462E-02  0.1285163E+00
          3   -1    0    0  501    0  0.00000000000E+00  0.00000000000E+00  0.16440838285E+03  0.16440838285E+03  0.00000000000E+00 0. -1.
         -3   -1    0    0    0  501 -0.00000000000E+00 -0.00000000000E+00 -0.10185676172E+03  0.10185676172E+03  0.00000000000E+00 0.  1.
         25    2    1    2    0    0 -0.34973444350E+02  0.22876498604E+02  0.93958620967E+02  0.16193264084E+03  0.12508989455E+03 0.  0.
          5    1    3    3  502    0  0.32793791200E+02  0.35626244936E+02  0.43641456403E+01  0.48797338418E+02  0.41800000000E+01 0.  1.
         -5    1    3    3    0  502 -0.67767235549E+02 -0.12749746332E+02  0.89594475326E+02  0.11313530242E+03  0.41800000000E+01 0.  1.
        -11    1    1    2    0    0 -0.18519196008E+02 -0.14697641353E+02  0.19036012501E+02  0.30353765072E+02  0.00000000000E+00 0. -1.
         11    1    1    2    0    0  0.53492640358E+02 -0.81788572514E+01 -0.50443012336E+02  0.73978738648E+02  0.00000000000E+00 0.  1.
</event>
<event>
 7    1  0.2728221E-009  0.9370436E+02  0.7561462E-02  0.1294121E+00
          3   -1    0    0  501    0  0.00000000000E+00  0.00000000000E+00  0.18880402160E+03  0.18880402160E+03  0.00000000000E+00 0. -1.
         -3   -1    0    0    0  501 -0.00000000000E+00 -0.00000000000E+00 -0.85044728018E+02  0.85044728018E+02  0.00000000000E+00 0.  1.
         25    2    1    2    0    0  0.63350348703E+02 -0.67082971666E+01  0.38058772065E+02  0.14544721889E+03  0.12509258739E+03 0.  0.
          5    1    3    3  502    0  0.68669163888E+02 -0.42599816219E+02 -0.13730737399E+02  0.82074380658E+02  0.41800000000E+01 0. -1.
         -5    1    3    3    0  502 -0.53188151842E+01  0.35891519052E+02  0.51789509464E+02  0.63372838231E+02  0.41800000000E+01 0. -1.
        -11    1    1    2    0    0 -0.37619594146E+02 -0.10445816122E+02  0.83885495886E+02  0.92526349535E+02  0.00000000000E+00 0. -1.
         11    1    1    2    0    0 -0.25730754558E+02  0.17154113288E+02 -0.18184974371E+02  0.35875181194E+02  0.00000000000E+00 0.  1.
</event>
<event>
 7    1  0.2728221E-009  0.1119114E+03  0.7561462E-02  0.1257071E+00
          1   -1    0    0  501    0  0.00000000000E+00  0.00000000000E+00  0.93793280871E+03  0.93793280871E+03  0.00000000000E+00 0. -1.
         -1   -1    0    0    0  501 -0.00000000000E+00 -0.00000000000E+00 -0.16181964949E+02  0.16181964949E+02  0.00000000000E+00 0.  1.
         25    2    1    2    0    0 -0.48281771299E+02  0.23317088314E+02  0.60886832212E+03  0.62389074469E+03  0.12507682270E+03 0.  0.
          5    1    3    3  502    0 -0.67493283514E+02 -0.21213004799E+02  0.20101284852E+03  0.21314073417E+03  0.41800000000E+01 0. -1.
         -5    1    3    3    0  502  0.19211512215E+02  0.44530093113E+02  0.40785547360E+03  0.41075001051E+03  0.41800000000E+01 0. -1.
        -11    1    1    2    0    0 -0.21921491678E+02 -0.26013764929E+02  0.78889111089E+02  0.85911347397E+02  0.00000000000E+00 0.  1.
         11    1    1    2    0    0  0.70203262977E+02  0.26966766150E+01  0.23399341055E+03  0.24431268157E+03  0.00000000000E+00 0. -1.
</event>
<event>
 7    1  0.2728221E-009  0.1569344E+03  0.7561462E-02  0.1192202E+00
         -2   -1    0    0    0  501 -0.00000000000E+00  0.00000000000E+00  0.77131187346E+02  0.77131187346E+02  0.00000000000E+00 0.  1.
          2   -1    0    0  501    0  0.00000000000E+00 -0.00000000000E+00 -0.49138091408E+03  0.49138091408E+03  0.00000000000E+00 0. -1.
         25    2    1    2    0    0 -0.28831686047E+02 -0.11158674491E+03 -0.52039441485E+02  0.17787329444E+03  0.12509171693E+03 0.  0.
          5    1    3    3  502    0 -0.79760296154E+01 -0.13678563126E+03 -0.40559291385E+02  0.14295612783E+03  0.41800000000E+01 0.  1.
         -5    1    3    3    0  502 -0.20855656432E+02  0.25198886342E+02 -0.11480150100E+02  0.34917166614E+02  0.41800000000E+01 0.  1.
        -11    1    1    2    0    0  0.35385783630E+02  0.35363155674E+01 -0.61544854726E+02  0.71080435805E+02  0.00000000000E+00 0.  1.
         11    1    1    2    0    0 -0.65540975835E+01  0.10805042935E+03 -0.30066543053E+03  0.31955837118E+03  0.00000000000E+00 0. -1.
</event>
<event>
 7    1  0.2728221E-009  0.1256200E+03  0.7561462E-02  0.1234104E+00
         -1   -1    0    0    0  501 -0.00000000000E+00  0.00000000000E+00  0.19128088489E+02  0.19128088489E+02  0.00000000000E+00 0.  1.
          1   -1    0    0  501    0  0.00000000000E+00 -0.00000000000E+00 -0.14092901216E+04  0.14092901216E+04  0.00000000000E+00 0. -1.
         25    2    1    2    0    0 -0.68720623694E+02  0.63547324788E+01 -0.11847289691E+04  0.11933117340E+04  0.12508899817E+03 0.  0.
          5    1    3    3  502    0 -0.10503263300E+03  0.17887869495E+01 -0.81511826259E+03  0.82187000685E+03  0.41800000000E+01 0.  1.
         -5    1    3    3    0  502  0.36312009309E+02  0.45659455293E+01 -0.36961070654E+03  0.37144172715E+03  0.41800000000E+01 0.  1.
        -11    1    1    2    0    0  0.75435719604E+02 -0.32602810916E+02 -0.11970579599E+03  0.14519975435E+03  0.00000000000E+00 0.  1.
         11    1    1    2    0    0 -0.67150959094E+01  0.26248078437E+02 -0.85727267962E+02  0.89906721701E+02  0.00000000000E+00 0. -1.
</event>
<event>
 7    1  0.2728221E-009  0.1254773E+03  0.7561462E-02  0.1234325E+00
          3   -1    0    0  501    0  0.00000000000E+00  0.00000000000E+00  0.50475868664E+02  0.50475868664E+02  0.00000000000E+00 0. -1.
         -3   -1    0    0    0  501 -0.00000000000E+00 -0.00000000000E+00 -0.37110859636E+03  0.37110859636E+03  0.00000000000E+00 0.  1.
         25    2    1    2    0    0 -0.81415173004E+02  0.19042482970E+02 -0.18011026668E+03  0.23468756795E+03  0.12508996694E+03 0.  0.
          5    1    3    3  502    0 -0.84642158449E+02  0.63240955149E+02 -0.12102855295E+03  0.16071433173E+03  0.41800000000E+01 0.  1.
         -5    1    3    3    0  502  0.32269854444E+01 -0.44198472180E+02 -0.59081713732E+02  0.73973236212E+02  0.41800000000E+01 0.  1.
        -11    1    1    2    0    0  0.60793306154E+02  0.13405917689E+02 -0.13419629692E+03  0.14793306192E+03  0.00000000000E+00 0.  1.
         11    1    1    2    0    0  0.20621866851E+02 -0.32448400659E+02 -0.63261640853E+01  0.38963835152E+02  0.00000000000E+00 0. -1.
</event>
<event>
 7    1  0.2728221E-009  0.1862516E+03  0.7561462E-02  0.1161886E+00
         -1   -1    0    0    0  501 -0.00000000000E+00  0.00000000000E+00  0.34367651223E+02  0.34367651223E+02  0.00000000000E+00 0.  1.
          1   -1    0    0  501    0  0.00000000000E+00 -0.00000000000E+00 -0.10848543624E+04  0.10848543624E+04  0.00000000000E+00 0. -1.
         25    2    1    2    0    0 -0.13903545262E+03  0.69981969393E+02 -0.65800532871E+03  0.68763851979E+03  0.12508952064E+03 0.  0.
          5    1    3    3  502    0 -0.13044996974E+03  0.99169720906E+02 -0.48561376090E+03  0.51253295048E+03  0.41800000000E+01 0. -1.
         -5    1    3    3    0  502 -0.85854828719E+01 -0.29187751514E+02 -0.17239156781E+03  0.17510556932E+03  0.41800000000E+01 0. -1.
        -11    1    1    2    0    0  0.95875509361E+02 -0.26100107462E+00 -0.24022017383E+03  0.25864630933E+03  0.00000000000E+00 0.  1.
         11    1    1    2    0    0  0.43159943256E+02 -0.69720968318E+02 -0.15226120866E+03  0.17293718451E+03  0.00000000000E+00 0. -1.
</event>
<event>
 7    1  0.2728221E-009  0.1230831E+03  0.7561462E-02  0.1238096E+00
         -3   -1    0    0    0  501 -0.00000000000E+00  0.00000000000E+00  0.15300839945E+03  0.15300839945E+03  0.00000000000E+00 0.  1.
          3   -1    0    0  501    0  0.00000000000E+00 -0.00000000000E+00 -0.12500118873E+03  0.12500118873E+03  0.00000000000E+00 0. -1.
         25    2    1    2    0    0 -0.79026826236E+02  0.11161590171E+02 -0.15405986743E+02  0.14918115732E+03  0.12509137825E+03 0.  0.
          5    1    3    3  502    0 -0.68376877212E+02  0.58185820124E+02 -0.35689098412E+02  0.96706624108E+02  0.41800000000E+01 0. -1.
         -5    1    3    3    0  502 -0.10649949024E+02 -0.47024229953E+02  0.20283111669E+02  0.52474533212E+02  0.41800000000E+01 0. -1.
        -11    1    1    2    0    0  0.42469939815E+02 -0.42246532817E+02  0.52894722822E+02  0.79914435651E+02  0.00000000000E+00 0.  1.
         11    1    1    2    0    0  0.36556886421E+02  0.31084942646E+02 -0.94815253599E+01  0.48913995208E+02  0.00000000000E+00 0. -1.
</event>
<event>
 7    1  0.2728221E-009  0.9883283E+02  0.7561462E-02  0.1282770E+00
          2   -1    0    0  501    0  0.00000000000E+00  0.00000000000E+00  0.12378181997E+03  0.12378181997E+03  0.00000000000E+00 0. -1.
         -2   -1    0    0    0  501 -0.00000000000E+00 -0.00000000000E+00 -0.11429734196E+03  0.11429734196E+03  0.00000000000E+00 0.  1.
         25    2    1    2    0    0 -0.23005165827E+02 -0.41163499277E+02 -0.53203949323E+01  0.13379263181E+03  0.12509392630E+03 0.  0.
          5    1    3    3  502    0 -0.70377512946E+02 -0.26656884428E+02  0.20022042796E+02  0.77986783583E+02  0.41800000000E+01 0. -1.
         -5    1    3    3    0  502  0.47372347119E+02 -0.14506614849E+02 -0.25342437729E+02  0.55805848224E+02  0.41800000000E+01 0. -1.
        -11    1    1    2    0    0  0.10816969673E+02  0.53882232618E+02  0.43856434614E+02  0.70311369506E+02  0.00000000000E+00 0. -1.
         11    1    1    2    0    0  0.12188196153E+02 -0.12718733341E+02 -0.29051561676E+02  0.33975160619E+02  0.00000000000E+00 0.  1.
</event>
<event>
 7    1  0.2728221E-009  0.1763592E+03  0.7561462E-02  0.1171374E+00
         -1   -1    0    0    0  501 -0.00000000000E+00  0.00000000000E+00  0.31030870313E+02  0.31030870313E+02  0.00000000000E+00 0.  1.
          1   -1    0    0  501    0  0.00000000000E+00 -0.00000000000E+00 -0.12556386277E+04  0.12556386277E+04  0.00000000000E+00 0. -1.
         25    2    1    2    0    0 -0.14997494068E+03 -0.43573713322E+02 -0.80457713787E+03  0.82908487850E+03  0.12508482585E+03 0.  0.
          5    1    3    3  502    0  0.16739977598E+02 -0.18358988719E+02 -0.51253855138E+02  0.57111377004E+02  0.41800000000E+01 0.  1.
         -5    1    3    3    0  502 -0.16671491827E+03 -0.25214724603E+02 -0.75332328273E+03  0.77197350150E+03  0.41800000000E+01 0.  1.
        -11    1    1    2    0    0  0.42328645559E+02  0.26311585810E+02 -0.25479464095E+03  0.25962342505E+03  0.00000000000E+00 0. -1.
         11    1    1    2    0    0  0.10764629512E+03  0.17262127512E+02 -0.16523597862E+03  0.19796119450E+03  0.00000000000E+00 0.  1.
</event>
<event>
 7    1  0.2728221E-009  0.1214659E+03  0.7561462E-02  0.1240698E+00
          1   -1    0    0  501    0  0.00000000000E+00  0.00000000000E+00  0.22411568905E+03  0.22411568905E+03  0.00000000000E+00 0. -1.
         -1   -1    0    0    0  501 -0.00000000000E+00 -0.00000000000E+00 -0.11713451914E+03  0.11713451914E+03  0.00000000000E+00 0.  1.
         25    2    1    2    0    0 -0.86553891376E+01  0.71101306874E+02 -0.44348773518E+02  0.15081486523E+03  0.12509195922E+03 0.  0.
          5    1    3    3  502    0  0.90714595696E+01  0.98545811404E+02 -0.58421887343E+02  0.11499633753E+03  0.41800000000E+01 0.  1.
         -5    1    3    3    0  502 -0.17726848707E+02 -0.27444504530E+02  0.14073113825E+02  0.35818527701E+02  0.41800000000E+01 0.  1.
        -11    1    1    2    0    0  0.37874652783E+02 -0.44085093955E+01  0.28342722884E+02  0.47510359070E+02  0.00000000000E+00 0.  1.
         11    1    1    2    0    0 -0.29219263646E+02 -0.66692797479E+02  0.12298722054E+03  0.14292498389E+03  0.00000000000E+00 0. -1.
</event>
<event>
 7    1  0.2728221E-009  0.1046059E+03  0.7561462E-02  0.1270898E+00
         -1   -1    0    0    0  501 -0.00000000000E+00  0.00000000000E+00  0.33855885421E+02  0.33855885421E+02  0.00000000000E+00 0.  1.
          1   -1    0    0  501    0  0.00000000000E+00 -0.00000000000E+00 -0.65121518435E+03  0.65121518435E+03  0.00000000000E+00 0. -1.
         25    2    1    2    0    0 -0.19224656934E+02 -0.87978461934E+02 -0.43088635039E+03  0.45762387796E+03  0.12508704781E+03 0.  0.
          5    1    3    3  502    0 -0.12248002042E+02 -0.56437795528E+02 -0.53501744969E+02  0.78836206357E+02  0.41800000000E+01 0.  1.
         -5    1    3    3    0  502 -0.69766548921E+01 -0.31540666406E+02 -0.37738460542E+03  0.37878767161E+03  0.41800000000E+01 0.  1.
        -11    1    1    2    0    0  0.24989305651E+02  0.10123898841E+03 -0.18569064537E+03  0.21296669681E+03  0.00000000000E+00 0.  1.
         11    1    1    2    0    0 -0.57646487165E+01 -0.13260526474E+02 -0.78230316563E+00  0.14480495000E+02  0.00000000000E+00 0. -1.
</event>
<event>
 7    1  0.2728221E-009  0.1020489E+03  0.7561462E-02  0.1276045E+00
          2   -1    0    0  501    0  0.00000000000E+00  0.00000000000E+00  0.24275082843E+03  0.24275082843E+03  0.00000000000E+00 0. -1.
         -2   -1    0    0    0  501 -0.00000000000E+00 -0.00000000000E+00 -0.59338515228E+02  0.59338515228E+02  0.00000000000E+00 0.  1.
         25    2    1    2    0    0  0.37736802657E+02  0.24658030403E+02  0.70887001758E+02  0.15068200474E+03  0.12509202531E+03 0.  0.
          5    1    3    3  502    0  0.62253902420E+02  0.44619614442E+02  0.42705840399E+01  0.76825572875E+02  0.41800000000E+01 0. -1.
         -5    1    3    3    0  502 -0.24517099763E+02 -0.19961584039E+02  0.66616417718E+02  0.73856431864E+02  0.41800000000E+01 0. -1.
        -11    1    1    2    0    0  0.14235820376E+02 -0.39056447710E+02  0.24726445428E+02  0.48367983140E+02  0.00000000000E+00 0.  1.
         11    1    1    2    0    0 -0.51972623034E+02  0.14398417308E+02  0.87798866021E+02  0.10303935578E+03  0.00000000000E+00 0. -1.
</event>
<event>
 7    1  0.2728221E-009  0.1574769E+03  0.7561462E-02  0.1191575E+00
         -2   -1    0    0    0  501 -0.00000000000E+00  0.00000000000E+00  0.18737820936E+03  0.18737820936E+03  0.00000000000E+00 0.  1.
          2   -1    0    0  501    0  0.00000000000E+00 -0.00000000000E+00 -0.21339504086E+03  0.21339504086E+03  0.00000000000E+00 0. -1.
         25    2    1    2    0    0  0.11594747991E+03 -0.89151734821E+02 -0.96677018737E+02  0.21537519972E+03  0.12509268877E+03 0.  0.
          5    1    3    3  502    0  0.67374999886E+02 -0.49725265034E+02  0.17005109422E+02  0.85549042887E+02  0.41800000000E+01 0. -1.
         -5    1    3    3    0  502  0.48572480020E+02 -0.39426469788E+02 -0.11368212816E+03  0.12982615683E+03  0.41800000000E+01 0. -1.
        -11    1    1    2    0    0 -0.54762557200E+02 -0.62062970329E+01  0.73247913376E+01  0.55597737023E+02  0.00000000000E+00 0.  1.
         11    1    1    2    0    0 -0.61184922706E+02  0.95358031854E+02  0.63335395893E+02  0.12980031348E+03  0.00000000000E+00 0. -1.
</event>
<event>
 7    1  0.2728221E-009  0.1450379E+03  0.7561462E-02  0.1206706E+00
         -2   -1    0    0    0  501 -0.00000000000E+00  0.00000000000E+00  0.33683474865E+03  0.33683474865E+03  0.00000000000E+00 0.  1.
          2   -1    0    0  501    0  0.00000000000E+00 -0.00000000000E+00 -0.83664111361E+02  0.83664111361E+02  0.00000000000E+00 0. -1.
         25    2    1    2    0    0 -0.11295157740E+03 -0.16625751534E+02  0.20582472183E+03  0.26655223698E+03  0.12510717196E+03 0.  0.
          5    1    3    3  502    0 -0.59989869631E+02  0.44487516459E+02  0.15173673571E+03  0.16917279019E+03  0.41800000000E+01 0.  1.
         -5    1    3    3    0  502 -0.52961707771E+02 -0.61113267993E+02  0.54087986120E+02  0.97379446790E+02  0.41800000000E+01 0.  1.
        -11    1    1    2    0    0  0.11294118521E+03 -0.46345156931E+01  0.61229700700E+02  0.12855452656E+03  0.00000000000E+00 0.  1.
         11    1    1    2    0    0  0.10392194438E-01  0.21260267227E+02 -0.13883785236E+02  0.25392096468E+02  0.00000000000E+00 0. -1.
</event>
<event>
 7    1  0.2728221E-009  0.1449567E+03  0.7561462E-02  0.1206811E+00
          1   -1    0    0  501    0  0.00000000000E+00  0.00000000000E+00  0.28707020158E+03  0.28707020158E+03  0.00000000000E+00 0. -1.
         -1   -1    0    0    0  501 -0.00000000000E+00 -0.00000000000E+00 -0.99001271328E+02  0.99001271328E+02  0.00000000000E+00 0.  1.
         25    2    1    2    0    0  0.88554710198E+02  0.75169823350E+02  0.39315430288E+02  0.17515812869E+03  0.12506889281E+03 0.  0.
          5    1    3    3  502    0  0.48354136039E+02  0.85892215877E+02  0.71957724541E+02  0.12211053084E+03  0.41800000000E+01 0. -1.
         -5    1    3    3    0  502  0.40200574159E+02 -0.10722392527E+02 -0.32642294254E+02  0.53047597857E+02  0.41800000000E+01 0. -1.
        -11    1    1    2    0    0 -0.10137572735E+03 -0.34955385440E+02  0.10981539099E+03  0.15348725408E+03  0.00000000000E+00 0. -1.
         11    1    1    2    0    0  0.12821017154E+02 -0.40214437910E+02  0.38938108975E+02  0.57426090132E+02  0.00000000000E+00 0.  1.
</event>
<event>
 7    1  0.2728221E-009  0.1164560E+03  0.7561462E-02  0.1249061E+00
         -1   -1    0    0    0  501 -0.00000000000E+00  0.00000000000E+00  0.53256877174E+02  0.53256877174E+02  0.00000000000E+00 0.  1.
          1   -1    0    0  501    0  0.00000000000E+00 -0.00000000000E+00 -0.40366971534E+03  0.40366971534E+03  0.00000000000E+00 0. -1.
         25    2    1    2    0    0  0.53873859549E+02 -0.71548355969E+02 -0.22625802273E+03  0.27360821579E+03  0.12508878012E+03 0.  0.
          5    1    3    3  502    0  0.49431474733E+02  0.72281845682E+01 -0.16832793682E+03  0.17563451842E+03  0.41800000000E+01 0. -1.
         -5    1    3    3    0  502  0.44423848164E+01 -0.78776540537E+02 -0.57930085908E+02  0.97973697364E+02  0.41800000000E+01 0. -1.
        -11    1    1    2    0    0  0.78775372135E+00  0.41276067309E+02  0.32547798022E+01  0.41411687722E+02  0.00000000000E+00 0.  1.
         11    1    1    2    0    0 -0.54661613270E+02  0.30272288660E+02 -0.12740959524E+03  0.14190668901E+03  0.00000000000E+00 0. -1.
</event>
<event>
 7    1  0.2728221E-009  0.9524197E+02  0.7561462E-02  0.1290632E+00
         -2   -1    0    0    0  501 -0.00000000000E+00  0.00000000000E+00  0.14153215256E+03  0.14153215256E+03  0.00000000000E+00 0.  1.
          2   -1    0    0  501    0  0.00000000000E+00 -0.00000000000E+00 -0.12938662193E+03  0.12938662193E+03  0.00000000000E+00 0. -1.
         25    2    1    2    0    0  0.39770181002E+02 -0.28380879518E+02 -0.49452189564E+02  0.14310898301E+03  0.12509004895E+03 0.  0.
          5    1    3    3  502    0 -0.26302029541E+02  0.32135259249E+02 -0.23604824798E+01  0.41803300378E+02  0.41800000000E+01 0.  1.
         -5    1    3    3    0  502  0.66072210543E+02 -0.60516138767E+02 -0.47091707084E+02  0.10130568263E+03  0.41800000000E+01 0.  1.
        -11    1    1    2    0    0  0.82150313940E+00  0.16828647821E+02  0.80009942168E+02  0.81764717945E+02  0.00000000000E+00 0.  1.
         11    1    1    2    0    0 -0.40591684141E+02  0.11552231696E+02 -0.18412221976E+02  0.46045073534E+02  0.00000000000E+00 0. -1.
</event>
<event>
 7    1  0.2728221E-009  0.1277908E+03  0.7561462E-02  0.1230771E+00
          2   -1    0    0  501    0  0.00000000000E+00  0.00000000000E+00  0.41741081722E+03  0.41741081722E+03  0.00000000000E+00 0. -1.
         -2   -1    0    0    0  501 -0.00000000000E+00 -0.00000000000E+00 -0.56545439573E+02  0.56545439573E+02  0.00000000000E+00 0.  1.
         25    2    1    2    0    0 -0.80133650801E+02  0.18014015931E+02  0.28382226545E+03  0.32085565752E+03  0.12508943936E+03 0.  0.
          5    1    3    3  502    0 -0.78879347263E+02 -0.38212783553E+02  0.12841091380E+03  0.15552814355E+03  0.41800000000E+01 0.  1.
         -5    1    3    3    0  502 -0.12543035373E+01  0.56226799484E+02  0.15541135164E+03  0.16532751398E+03  0.41800000000E+01 0.  1.
        -11    1    1    2    0    0  0.85935985426E+01  0.26040336761E+02  0.61938478790E+02  0.67737170220E+02  0.00000000000E+00 0. -1.
         11    1    1    2    0    0  0.71540052258E+02 -0.44054352692E+02  0.15104633406E+02  0.85363429046E+02  0.00000000000E+00 0.  1.
</event>
<event>
 7    1  0.2728221E-009  0.1107529E+03  0.7561462E-02  0.1259182E+00
          1   -1    0    0  501    0  0.00000000000E+00  0.00000000000E+00  0.17013458539E+03  0.17013458539E+03  0.00000000000E+00 0. -1.
         -1   -1    0    0    0  501 -0.00000000000E+00 -0.00000000000E+00 -0.89763414336E+02  0.89763414336E+02  0.00000000000E+00 0.  1.
         25    2    1    2    0    0 -0.23141912631E+02  0.56628375135E+02  0.31078991608E+02  0.14267681811E+03  0.12509376370E+03 0.  0.
          5    1    3    3  502    0  0.43625728248E+02 -0.91835045639E+01  0.37456724852E+01  0.44933766631E+02  0.41800000000E+01 0. -1.
         -5    1    3    3    0  502 -0.66767640879E+02  0.65811879699E+02  0.27333319122E+02  0.97743051478E+02  0.41800000000E+01 0. -1.
        -11    1    1    2    0    0  0.30878300164E+02 -0.64708431274E+02  0.53725911192E+01  0.71899340987E+02  0.00000000000E+00 0.  1.
         11    1    1    2    0    0 -0.77363875331E+01  0.80800561391E+01  0.43919588325E+02  0.45321840628E+02  0.00000000000E+00 0. -1.
</event>
<event>
 7    1  0.2728221E-009  0.1497238E+03  0.7561462E-02  0.1200813E+00
         -2   -1    0    0    0  501 -0.00000000000E+00  0.00000000000E+00  0.33914207163E+02  0.33914207163E+02  0.00000000000E+00 0.  1.
          2   -1    0    0  501    0  0.00000000000E+00 -0.00000000000E+00 -0.79864417791E+03  0.79864417791E+03  0.00000000000E+00 0. -1.
         25    2    1    2    0    0 -0.64903492200E+02  0.10166841954E+03 -0.48035755670E+03  0.51082300846E+03  0.12509129812E+03 0.  0.
          5    1    3    3  502    0 -0.42841017451E+02  0.12328316113E+03 -0.44464325716E+03  0.46342117899E+03  0.41800000000E+01 0.  1.
         -5    1    3    3    0  502 -0.22062474749E+02 -0.21614741590E+02 -0.35714299535E+02  0.47401829473E+02  0.41800000000E+01 0.  1.
        -11    1    1    2    0    0 -0.13846650292E+02 -0.19166668916E+02 -0.11590024271E+03  0.11828760367E+03  0.00000000000E+00 0. -1.
         11    1    1    2    0    0  0.78750142491E+02 -0.82501750627E+02 -0.16847217133E+03  0.20344777293E+03  0.00000000000E+00 0.  1.
</event>
<event>
 7    1  0.2728221E-009  0.1215693E+03  0.7561462E-02  0.1240530E+00
         -1   -1    0    0    0  501 -0.00000000000E+00  0.00000000000E+00  0.24836201235E+03  0.24836201235E+03  0.00000000000E+00 0. -1.
          1   -1    0    0  501    0  0.00000000000E+00 -0.00000000000E+00 -0.80108357922E+02  0.80108357922E+02  0.00000000000E+00 0.  1.
         25    2    1    2    0    0  0.81838841793E+01 -0.86161249869E+02  0.53754321749E+02  0.16132808685E+03  0.12508592071E+03 0.  0.
          5    1    3    3  502    0 -0.55988044154E+02 -0.46117514654E+02  0.44014150558E+02  0.84948243628E+02  0.41800000000E+01 0. -1.
         -5    1    3    3    0  502  0.64171928333E+02 -0.40043735214E+02  0.97401711905E+01  0.76379843223E+02  0.41800000000E+01 0. -1.
        -11    1    1    2    0    0  0.13865761215E+02  0.53861124345E+02  0.11531334399E+03  0.12802518249E+03  0.00000000000E+00 0. -1.
         11    1    1    2    0    0 -0.22049645395E+02  0.32300125524E+02 -0.81401130959E+00  0.39117100932E+02  0.00000000000E+00 0.  1.
</event>
<event>
 7    1  0.2728221E-009  0.1935906E+03  0.7561462E-02  0.1155262E+00
         -3   -1    0    0    0  501 -0.00000000000E+00  0.00000000000E+00  0.62764546832E+02  0.62764546832E+02  0.00000000000E+00 0.  1.
          3   -1    0    0  501    0  0.00000000000E+00 -0.00000000000E+00 -0.77146504979E+03  0.77146504979E+03  0.00000000000E+00 0. -1.
         25    2    1    2    0    0 -0.14075440609E+03 -0.96825191280E+02 -0.53062923710E+03  0.57131592144E+03  0.12509026470E+03 0.  0.
          5    1    3    3  502    0 -0.14677986393E+03 -0.57920593525E+02 -0.31788004489E+03  0.35491452344E+03  0.41800000000E+01 0.  1.
         -5    1    3    3    0  502  0.60254578452E+01 -0.38904597754E+02 -0.21274919221E+03  0.21640139800E+03  0.41800000000E+01 0.  1.
        -11    1    1    2    0    0  0.15175837212E+03  0.86646757367E+02 -0.17557199789E+03  0.24771715829E+03  0.00000000000E+00 0. -1.
         11    1    1    2    0    0 -0.11003966027E+02  0.10178433913E+02 -0.24992679683E+01  0.15196516891E+02  0.00000000000E+00 0.  1.
</event>
<event>
 7    1  0.2728221E-009  0.2581076E+03  0.7561462E-02  0.1108286E+00
         -2   -1    0    0    0  501 -0.00000000000E+00  0.00000000000E+00  0.34576005483E+03  0.34576005483E+03  0.00000000000E+00 0.  1.
          2   -1    0    0  501    0  0.00000000000E+00 -0.00000000000E+00 -0.19408756081E+03  0.19408756081E+03  0.00000000000E+00 0. -1.
         25    2    1    2    0    0  0.16736751219E+03 -0.16326094678E+03  0.98533573923E+02  0.28288409141E+03  0.12509405702E+03 0.  0.
          5    1    3    3  502    0  0.75472911954E+02 -0.15499725089E+03  0.71173000549E+02  0.18655663116E+03  0.41800000000E+01 0. -1.
         -5    1    3    3    0  502  0.91894600237E+02 -0.82636958873E+01  0.27360573374E+02  0.96327460248E+02  0.41800000000E+01 0. -1.
        -11    1    1    2    0    0 -0.10334770872E+03  0.36867938435E+02  0.23406888149E+02  0.11219570488E+03  0.00000000000E+00 0.  1.
         11    1    1    2    0    0 -0.64019803475E+02  0.12639300835E+03  0.29732031942E+02  0.14476781935E+03  0.00000000000E+00 0. -1.
</event>
<event>
 7    1  0.2728221E-009  0.8535818E+02  0.7561462E-02  0.1314498E+00
         -2   -1    0    0    0  501 -0.00000000000E+00  0.00000000000E+00  0.79934023494E+03  0.79934023494E+03  0.00000000000E+00 0.  1.
          2   -1    0    0  501    0  0.00000000000E+00 -0.00000000000E+00 -0.19800149690E+02  0.19800149690E+02  0.00000000000E+00 0. -1.
         25    2    1    2    0    0  0.90642600372E+01  0.32316135161E+02  0.61017652631E+03  0.62377022113E+03  0.12508957632E+03 0.  0.
          5    1    3    3  502    0 -0.26214648199E+02 -0.10061264031E+00  0.52716993516E+03  0.52783788310E+03  0.41800000000E+01 0. -1.
         -5    1    3    3    0  502  0.35278908236E+02  0.32416747802E+02  0.83006591151E+02  0.95932338025E+02  0.41800000000E+01 0. -1.
        -11    1    1    2    0    0 -0.47506194026E+02 -0.27590021445E+01  0.67902490174E+02  0.82916818170E+02  0.00000000000E+00 0. -1.
         11    1    1    2    0    0  0.38441933989E+02 -0.29557133017E+02  0.10146106876E+03  0.11245334533E+03  0.00000000000E+00 0.  1.
</event>
<event>
 7    1  0.2728221E-009  0.7981469E+02  0.7561462E-02  0.1329578E+00
         -2   -1    0    0    0  501 -0.00000000000E+00  0.00000000000E+00  0.14782553036E+02  0.14782553036E+02  0.00000000000E+00 0.  1.
          2   -1    0    0  501    0  0.00000000000E+00 -0.00000000000E+00 -0.91872548927E+03  0.91872548927E+03  0.00000000000E+00 0. -1.
         25    2    1    2    0    0 -0.11410063682E+02 -0.41102792185E+02 -0.50357758883E+03  0.52063225816E+03  0.12509169113E+03 0.  0.
          5    1    3    3  502    0  0.14429008920E+02 -0.66656454872E+01 -0.45613374331E+03  0.45642972221E+03  0.41800000000E+01 0. -1.
         -5    1    3    3    0  502 -0.25839072603E+02 -0.34437146697E+02 -0.47443845521E+02  0.64202535958E+02  0.41800000000E+01 0. -1.
        -11    1    1    2    0    0  0.28705516605E+02 -0.20939451895E+02 -0.11664250346E+03  0.12193416643E+03  0.00000000000E+00 0. -1.
         11    1    1    2    0    0 -0.17295452923E+02  0.62042244080E+02 -0.28372284394E+03  0.29094161771E+03  0.00000000000E+00 0.  1.
</event>
<event>
 7    1  0.2728221E-009  0.8827961E+02  0.7561462E-02  0.1307072E+00
         -1   -1    0    0    0  501 -0.00000000000E+00  0.00000000000E+00  0.15809692743E+03  0.15809692743E+03  0.00000000000E+00 0.  1.
          1   -1    0    0  501    0  0.00000000000E+00 -0.00000000000E+00 -0.73918646727E+02  0.73918646727E+02  0.00000000000E+00 0. -1.
         25    2    1    2    0    0  0.10007936454E+02  0.47921001785E+01  0.48082616650E+02  0.13447231788E+03  0.12509093986E+03 0.  0.
          5    1    3    3  502    0  0.34943808327E+02 -0.32610030207E+02 -0.20653939984E+02  0.52235442444E+02  0.41800000000E+01 0. -1.
         -5    1    3    3    0  502 -0.24935871873E+02  0.37402130385E+02  0.68736556634E+02  0.82236875435E+02  0.41800000000E+01 0. -1.
        -11    1    1    2    0    0  0.33439740508E+01  0.38236079092E+02  0.35805537370E+02  0.52490155393E+02  0.00000000000E+00 0.  1.
         11    1    1    2    0    0 -0.13351910505E+02 -0.43028179271E+02  0.29012667842E+00  0.45053100881E+02  0.00000000000E+00 0. -1.
</event>
<event>
 7    1  0.2728221E-009  0.1535913E+03  0.7561462E-02  0.1196128E+00
         -1   -1    0    0    0  501 -0.00000000000E+00  0.00000000000E+00  0.85689817350E+03  0.85689817350E+03  0.00000000000E+00 0.  1.
          1   -1    0    0  501    0  0.00000000000E+00 -0.00000000000E+00 -0.32658080264E+02  0.32658080264E+02  0.00000000000E+00 0. -1.
         25    2    1    2    0    0 -0.64212639040E+02  0.77262813937E+02  0.30456192124E+03  0.34423588309E+03  0.12509026304E+03 0.  0.
          5    1    3    3  502    0 -0.44345779589E+01 -0.32561577265E+02  0.89458161918E+02  0.95394742672E+02  0.41800000000E+01 0. -1.
         -5    1    3    3    0  502 -0.59778061081E+02  0.10982439120E+03  0.21510375932E+03  0.24884114042E+03  0.41800000000E+01 0. -1.
        -11    1    1    2    0    0  0.57934833216E+02 -0.10531610179E+03  0.48781585938E+03  0.50240644787E+03  0.00000000000E+00 0.  1.
         11    1    1    2    0    0  0.62778058236E+01  0.28053287855E+02  0.31862312614E+02  0.42913922806E+02  0.00000000000E+00 0. -1.
</event>
<event>
 7    1  0.2728221E-009  0.1816350E+03  0.7561462E-02  0.1166230E+00
         -2   -1    0    0    0  501 -0.00000000000E+00  0.00000000000E+00  0.11568983877E+03  0.11568983877E+03  0.00000000000E+00 0.  1.
          2   -1    0    0  501    0  0.00000000000E+00 -0.00000000000E+00 -0.34193381449E+03  0.34193381449E+03  0.00000000000E+00 0. -1.
         25    2    1    2    0    0  0.15976647690E+03 -0.25495091693E+02 -0.14116381824E+03  0.24849563134E+03  0.12509008104E+03 0.  0.
          5    1    3    3  502    0  0.48754368493E+02 -0.66741266818E+02 -0.80157926010E+02  0.11521350028E+03  0.41800000000E+01 0. -1.
         -5    1    3    3    0  502  0.11101210840E+03  0.41246175125E+02 -0.61005892231E+02  0.13328213107E+03  0.41800000000E+01 0. -1.
        -11    1    1    2    0    0 -0.77302897120E+02  0.16643504578E+02 -0.97208577625E+02  0.12530862585E+03  0.00000000000E+00 0. -1.
         11    1    1    2    0    0 -0.82463579775E+02  0.88515871148E+01  0.12128420143E+02  0.83819396079E+02  0.00000000000E+00 0.  1.
</event>
<event>
 7    1  0.2728221E-009  0.1529753E+03  0.7561462E-02  0.1196864E+00
         -3   -1    0    0    0  501 -0.00000000000E+00  0.00000000000E+00  0.13115994142E+03  0.13115994142E+03  0.00000000000E+00 0.  1.
          3   -1    0    0  501    0  0.00000000000E+00 -0.00000000000E+00 -0.20314534863E+03  0.20314534863E+03  0.00000000000E+00 0. -1.
         25    2    1    2    0    0  0.99903194837E+02 -0.68006158721E+02 -0.20236553989E+02  0.17511050718E+03  0.12509470670E+03 0.  0.
          5    1    3    3  502    0  0.24350983746E+02  0.30430761466E+02 -0.31716046377E+02  0.50422035367E+02  0.41800000000E+01 0. -1.
         -5    1    3    3    0  502  0.75552211091E+02 -0.98436920186E+02  0.11479492388E+02  0.12468847181E+03  0.41800000000E+01 0. -1.
        -11    1    1    2    0    0  0.11956785295E+02  0.13900979901E+02  0.95120447791E+01  0.20656256986E+02  0.00000000000E+00 0.  1.
         11    1    1    2    0    0 -0.11185998013E+03  0.54105178820E+02 -0.61260898007E+02  0.13853852589E+03  0.00000000000E+00 0. -1.
</event>
<event>
 7    1  0.2728221E-009  0.1103851E+03  0.7561462E-02  0.1259858E+00
         -4   -1    0    0    0  501 -0.00000000000E+00  0.00000000000E+00  0.59468736886E+02  0.59468736886E+02  0.00000000000E+00 0.  1.
          4   -1    0    0  501    0  0.00000000000E+00 -0.00000000000E+00 -0.35710001563E+03  0.35710001563E+03  0.00000000000E+00 0. -1.
         25    2    1    2    0    0 -0.38432440080E+02 -0.81563059900E+02 -0.21169444370E+03  0.26190144469E+03  0.12509294164E+03 0.  0.
          5    1    3    3  502    0 -0.64120587608E+02 -0.32447424598E+02 -0.42013465869E+02  0.83347998372E+02  0.41800000000E+01 0.  1.
         -5    1    3    3    0  502  0.25688147529E+02 -0.49115635302E+02 -0.16968097784E+03  0.17855344632E+03  0.41800000000E+01 0.  1.
        -11    1    1    2    0    0  0.24266251614E+02  0.72328164097E+02 -0.10085839804E+02  0.76954132141E+02  0.00000000000E+00 0.  1.
         11    1    1    2    0    0  0.14166188466E+02  0.92348958037E+01 -0.75850995234E+02  0.77713175679E+02  0.00000000000E+00 0. -1.
</event>
<event>
 7    1  0.2728221E-009  0.9599565E+02  0.7561462E-02  0.1288949E+00
         -2   -1    0    0    0  501 -0.00000000000E+00  0.00000000000E+00  0.23383247126E+02  0.23383247126E+02  0.00000000000E+00 0.  1.
          2   -1    0    0  501    0  0.00000000000E+00 -0.00000000000E+00 -0.50683899519E+03  0.50683899519E+03  0.00000000000E+00 0. -1.
         25    2    1    2    0    0 -0.16255156045E+02 -0.90333579499E+01 -0.24895976630E+03  0.27924289685E+03  0.12509915486E+03 0.  0.
          5    1    3    3  502    0  0.44418647047E+02 -0.22352091274E+02 -0.17790506980E+03  0.18477098920E+03  0.41800000000E+01 0. -1.
         -5    1    3    3    0  502 -0.60673803092E+02  0.13318733325E+02 -0.71054696503E+02  0.94471907645E+02  0.41800000000E+01 0. -1.
        -11    1    1    2    0    0 -0.62059359393E+01 -0.32245547597E+02 -0.15659808432E+03  0.16000390306E+03  0.00000000000E+00 0.  1.
         11    1    1    2    0    0  0.22461091984E+02  0.41278905547E+02 -0.77897897435E+02  0.90975442407E+02  0.00000000000E+00 0. -1.
</event>
<event>
 7    1  0.2728221E-009  0.1414155E+03  0.7561462E-02  0.1211437E+00
          2   -1    0    0  501    0  0.00000000000E+00  0.00000000000E+00  0.71400790254E+03  0.71400790254E+03  0.00000000000E+00 0. -1.
         -2   -1    0    0    0  501 -0.00000000000E+00 -0.00000000000E+00 -0.36697812209E+02  0.36697812209E+02  0.00000000000E+00 0.  1.
         25    2    1    2    0    0 -0.70026310923E+01 -0.11425943019E+03  0.45220900485E+03  0.48295379637E+03  0.12508849319E+03 0.  0.
          5    1    3    3  502    0  0.42472339853E+02  0.61389177223E-02  0.15305375693E+03  0.15889249385E+03  0.41800000000E+01 0.  1.
         -5    1    3    3    0  502 -0.49474970945E+02 -0.11426556910E+03  0.29915524792E+03  0.32406130252E+03  0.41800000000E+01 0.  1.
        -11    1    1    2    0    0 -0.45564803630E+01  0.55130830574E+02  0.28705764135E+02  0.62323277254E+02  0.00000000000E+00 0.  1.
         11    1    1    2    0    0  0.11559111455E+02  0.59128599612E+02  0.19639532135E+03  0.20542864113E+03  0.00000000000E+00 0. -1.
</event>
<event>
 7    1  0.2728221E-009  0.1317583E+03  0.7561462E-02  0.1224870E+00
         -2   -1    0    0    0  501 -0.00000000000E+00  0.00000000000E+00  0.57052065641E+02  0.57052065641E+02  0.00000000000E+00 0.  1.
          2   -1    0    0  501    0  0.00000000000E+00 -0.00000000000E+00 -0.44854125050E+03  0.44854125050E+03  0.00000000000E+00 0. -1.
         25    2    1    2    0    0 -0.10663824833E+03  0.27456728034E+01 -0.13151974398E+03  0.21053345783E+03  0.12509052355E+03 0.  0.
          5    1    3    3  502    0 -0.21754775565E+02  0.39240438635E+02 -0.10508523840E+03  0.11433924091E+03  0.41800000000E+01 0.  1.
         -5    1    3    3    0  502 -0.84883472762E+02 -0.36494765832E+02 -0.26434505587E+02  0.96194216910E+02  0.41800000000E+01 0.  1.
        -11    1    1    2    0    0  0.20362359472E+02 -0.29312049234E+02 -0.25647445831E+02  0.43950123905E+02  0.00000000000E+00 0.  1.
         11    1    1    2    0    0  0.86275888855E+02  0.26566376431E+02 -0.23432199505E+03  0.25110973441E+03  0.00000000000E+00 0. -1.
</event>
<event>
 7    1  0.2728221E-009  0.9036463E+02  0.7561462E-02  0.1301971E+00
         -3   -1    0    0    0  501 -0.00000000000E+00  0.00000000000E+00  0.49619174118E+03  0.49619174118E+03  0.00000000000E+00 0.  1.
          3   -1    0    0  501    0  0.00000000000E+00 -0.00000000000E+00 -0.25084853094E+02  0.25084853094E+02  0.00000000000E+00 0. -1.
         25    2    1    2    0    0 -0.21629197345E+02 -0.52105389725E+01  0.36309345642E+03  0.38468136143E+03  0.12509164579E+03 0.  0.
          5    1    3    3  502    0 -0.68837173221E+02 -0.90732031920E+01  0.13705696160E+03  0.15369763354E+03  0.41800000000E+01 0.  1.
         -5    1    3    3    0  502  0.47207975876E+02  0.38626642195E+01  0.22603649482E+03  0.23098372789E+03  0.41800000000E+01 0.  1.
        -11    1    1    2    0    0  0.30907691419E+02 -0.19961656598E+02  0.10290567036E+03  0.10928554394E+03  0.00000000000E+00 0.  1.
         11    1    1    2    0    0 -0.92784940738E+01  0.25172195570E+02  0.51077613094E+01  0.27309688898E+02  0.00000000000E+00 0. -1.
</event>
<event>
 7    1  0.2728221E-009  0.9514280E+02  0.7561462E-02  0.1290855E+00
         -1   -1    0    0    0  501 -0.00000000000E+00  0.00000000000E+00  0.11401402641E+03  0.11401402641E+03  0.00000000000E+00 0.  1.
          1   -1    0    0  501    0  0.00000000000E+00 -0.00000000000E+00 -0.12014454623E+03  0.12014454623E+03  0.00000000000E+00 0. -1.
         25    2    1    2    0    0 -0.41573590095E+01 -0.24604934510E+02 -0.42200902743E+01  0.12762640294E+03  0.12509197867E+03 0.  0.
          5    1    3    3  502    0  0.20383298783E+02 -0.69069967918E+02  0.14048706611E+02  0.73491345714E+02  0.41800000000E+01 0.  1.
         -5    1    3    3    0  502 -0.24540657793E+02  0.44465033408E+02 -0.18268796885E+02  0.54135057222E+02  0.41800000000E+01 0.  1.
        -11    1    1    2    0    0 -0.83324757049E+01 -0.19577165727E+02 -0.41026412899E+02  0.46215388396E+02  0.00000000000E+00 0. -1.
         11    1    1    2    0    0  0.12489834714E+02  0.44182100237E+02  0.39115983354E+02  0.60316781299E+02  0.00000000000E+00 0.  1.
</event>
<event>
 6    1  0.2728221E-009  0.9378372E+02  0.7561462E-02  0.1293939E+00
          2   -1    0    0  501    0  0.00000000000E+00  0.00000000000E+00  0.71573210245E+03  0.71573210245E+03  0.00000000000E+00 0. -1.
         -2   -1    0    0    0  501 -0.00000000000E+00 -0.00000000000E+00 -0.24050245615E+02  0.24050245615E+02  0.00000000000E+00 0.  1.
          5    1    1    2  502    0  0.42858318735E+02 -0.15969250727E+02  0.18663227626E+02  0.49574599534E+02  0.41800000000E+01 0. -1.
         -5    1    1    2    0  502  0.39597282013E+01  0.45900863033E+02  0.22716827623E+03  0.23183068563E+03  0.41800000000E+01 0. -1.
        -11    1    1    2    0    0 -0.52751814741E+02 -0.51070781769E+02  0.40854277046E+03  0.41508815209E+03  0.00000000000E+00 0. -1.
         11    1    1    2    0    0  0.59337678048E+01  0.21139169463E+02  0.37307582521E+02  0.43288910815E+02  0.00000000000E+00 0.  1.
</event>
<event>
 7    1  0.2728221E-009  0.1254912E+03  0.7561462E-02  0.1234304E+00
         -2   -1    0    0    0  501 -0.00000000000E+00  0.00000000000E+00  0.63072783528E+02  0.63072783528E+02  0.00000000000E+00 0.  1.
          2   -1    0    0  501    0  0.00000000000E+00 -0.00000000000E+00 -0.30872696546E+03  0.30872696546E+03  0.00000000000E+00 0. -1.
         25    2    1    2    0    0 -0.11367574982E+02  0.63553543440E+02 -0.21305582914E+03  0.25535500529E+03  0.12508044513E+03 0.  0.
          5    1    3    3  502    0  0.27309458308E+02 -0.28243633168E+02 -0.44392422572E+02  0.59427846245E+02  0.41800000000E+01 0.  1.
         -5    1    3    3    0  502 -0.38677033290E+02  0.91797176608E+02 -0.16866340656E+03  0.19592715904E+03  0.41800000000E+01 0.  1.
        -11    1    1    2    0    0  0.45930316015E+01  0.23758645921E+02 -0.78613769513E+01  0.25443475448E+02  0.00000000000E+00 0.  1.
         11    1    1    2    0    0  0.67745433809E+01 -0.87312189361E+02 -0.24736975844E+02  0.91001268249E+02  0.00000000000E+00 0. -1.
</event>
<event>
 7    1  0.2728221E-009  0.1931162E+03  0.7561462E-02  0.1155680E+00
         -1   -1    0    0    0  501 -0.00000000000E+00  0.00000000000E+00  0.12759299470E+03  0.12759299470E+03  0.00000000000E+00 0.  1.
          1   -1    0    0  501    0  0.00000000000E+00 -0.00000000000E+00 -0.34676217268E+03  0.34676217268E+03  0.00000000000E+00 0. -1.
         25    2    1    2    0    0  0.81839294881E+02 -0.15004820719E+03 -0.50445161205E+02  0.21772618824E+03  0.12509134298E+03 0.  0.
          5    1    3    3  502    0  0.98951822824E+02 -0.80805312721E+02 -0.67098016754E+02  0.14436266157E+03  0.41800000000E+01 0. -1.
         -5    1    3    3    0  502 -0.17112527943E+02 -0.69242894466E+02  0.16652855549E+02  0.73363526664E+02  0.41800000000E+01 0. -1.
        -11    1    1    2    0    0 -0.48386888442E+02  0.19453813401E+02 -0.19886198072E+02  0.55814000956E+02  0.00000000000E+00 0. -1.
         11    1    1    2    0    0 -0.33452406439E+02  0.13059439379E+03 -0.14883781870E+03  0.20081497818E+03  0.00000000000E+00 0.  1.
</event>
<event>
 7    1  0.2728221E-009  0.2238495E+03  0.7561462E-02  0.1131045E+00
          1   -1    0    0  501    0  0.00000000000E+00  0.00000000000E+00  0.43690107420E+03  0.43690107420E+03  0.00000000000E+00 0. -1.
         -1   -1    0    0    0  501 -0.00000000000E+00 -0.00000000000E+00 -0.14433891108E+03  0.14433891108E+03  0.00000000000E+00 0.  1.
         25    2    1    2    0    0  0.15191848841E+03  0.16006729696E+03  0.70393916436E+02  0.26325613446E+03  0.12509085571E+03 0.  0.
          5    1    3    3  502    0  0.36554587353E+02  0.43334820728E+02 -0.36310007860E+02  0.67453936985E+02  0.41800000000E+01 0.  1.
         -5    1    3    3    0  502  0.11536390106E+03  0.11673247624E+03  0.10670392430E+03  0.19580219748E+03  0.41800000000E+01 0.  1.
        -11    1    1    2    0    0 -0.20783944707E+02 -0.54509944323E+02  0.45768871079E+02  0.74149146641E+02  0.00000000000E+00 0.  1.
         11    1    1    2    0    0 -0.13113454371E+03 -0.10555735264E+03  0.17639937560E+03  0.24383470418E+03  0.00000000000E+00 0. -1.
</event>
<event>
 7    1  0.2728221E-009  0.2047876E+03  0.7561462E-02  0.1145761E+00
          2   -1    0    0  501    0  0.00000000000E+00  0.00000000000E+00  0.24630979045E+04  0.24630979045E+04  0.00000000000E+00 0. -1.
         -2   -1    0    0    0  501 -0.00000000000E+00 -0.00000000000E+00 -0.35760807648E+02  0.35760807648E+02  0.00000000000E+00 0.  1.
         25    2    1    2    0    0 -0.12429832750E+03  0.13697578807E+03  0.21017606067E+04  0.21135888481E+04  0.12509088700E+03 0.  0.
          5    1    3    3  502    0 -0.57480532304E+02  0.14366266472E+03  0.15620006434E+04  0.15696516987E+04  0.41800000000E+01 0. -1.
         -5    1    3    3    0  502 -0.66817795201E+02 -0.66868766470E+01  0.53975996335E+03  0.54393714942E+03  0.41800000000E+01 0. -1.
        -11    1    1    2    0    0  0.40681980279E+02 -0.24993783662E+02  0.25235439889E+02  0.54005001320E+02  0.00000000000E+00 0.  1.
         11    1    1    2    0    0  0.83616347226E+02 -0.11198200441E+03  0.30034105027E+03  0.33126486278E+03  0.00000000000E+00 0. -1.
</event>
<event>
 7    1  0.2728221E-009  0.6638261E+02  0.7561462E-02  0.1372845E+00
         -1   -1    0    0    0  501 -0.00000000000E+00  0.00000000000E+00  0.20525869129E+03  0.20525869129E+03  0.00000000000E+00 0.  1.
          1   -1    0    0  501    0  0.00000000000E+00 -0.00000000000E+00 -0.92054583220E+02  0.92054583220E+02  0.00000000000E+00 0. -1.
         25    2    1    2    0    0 -0.13426530928E+02  0.37108238583E+02 -0.26332401198E+02  0.13378085711E+03  0.12508648717E+03 0.  0.
          5    1    3    3  502    0  0.10329530597E+02  0.92480124998E+01  0.48365840556E+02  0.50487145594E+02  0.41800000000E+01 0.  1.
         -5    1    3    3    0  502 -0.23756061525E+02  0.27860226083E+02 -0.74698241754E+02  0.83293711514E+02  0.41800000000E+01 0.  1.
        -11    1    1    2    0    0  0.17311067557E+02  0.18704135632E+02  0.68645626484E+02  0.73223901734E+02  0.00000000000E+00 0.  1.
         11    1    1    2    0    0 -0.38845366287E+01 -0.55812374215E+02  0.70890882782E+02  0.90308515667E+02  0.00000000000E+00 0. -1.
</event>
<event>
 7    1  0.2728221E-009  0.3481188E+03  0.7561462E-02  0.1063390E+00
          2   -1    0    0  501    0  0.00000000000E+00  0.00000000000E+00  0.15822511645E+04  0.15822511645E+04  0.00000000000E+00 0. -1.
         -2   -1    0    0    0  501 -0.00000000000E+00 -0.00000000000E+00 -0.81348113451E+02  0.81348113451E+02  0.00000000000E+00 0.  1.
         25    2    1    2    0    0 -0.34038781534E+03 -0.15918277896E+02  0.81243959670E+03  0.88984590242E+03  0.12510146027E+03 0.  0.
          5    1    3    3  502    0 -0.88077507950E+02 -0.32588306797E+02  0.35410354976E+03  0.36636926932E+03  0.41800000000E+01 0.  1.
         -5    1    3    3    0  502 -0.25231030739E+03  0.16670028901E+02  0.45833604694E+03  0.52347663310E+03  0.41800000000E+01 0.  1.
        -11    1    1    2    0    0  0.20699233468E+03 -0.28044541503E+02  0.35461550723E+03  0.41156345913E+03  0.00000000000E+00 0.  1.
         11    1    1    2    0    0  0.13339548066E+03  0.43962819399E+02  0.33384794714E+03  0.36218991643E+03  0.00000000000E+00 0. -1.
</event>
<event>
 7    1  0.2728221E-009  0.9556554E+02  0.7561462E-02  0.1289907E+00
          2   -1    0    0  501    0  0.00000000000E+00  0.00000000000E+00  0.19725121005E+03  0.19725121005E+03  0.00000000000E+00 0. -1.
         -2   -1    0    0    0  501 -0.00000000000E+00 -0.00000000000E+00 -0.84591196070E+02  0.84591196070E+02  0.00000000000E+00 0.  1.
         25    2    1    2    0    0 -0.29004482787E+02  0.58146440473E+02  0.84950980713E+02  0.16457928941E+03  0.12508958717E+03 0.  0.
          5    1    3    3  502    0 -0.23799332742E+02  0.64530537767E+02 -0.96056583073E+01  0.69572549292E+02  0.41800000000E+01 0. -1.
         -5    1    3    3    0  502 -0.52051500441E+01 -0.63840972945E+01  0.94556639020E+02  0.95006740119E+02  0.41800000000E+01 0. -1.
        -11    1    1    2    0    0  0.59070710773E+02 -0.15969392117E+02  0.22534712186E+02  0.65208769419E+02  0.00000000000E+00 0. -1.
         11    1    1    2    0    0 -0.30066227986E+02 -0.42177048355E+02  0.51743210825E+01  0.52054347292E+02  0.00000000000E+00 0.  1.
</event>
<event>
 7    1  0.2728221E-009  0.9971351E+02  0.7561462E-02  0.1280900E+00
         -2   -1    0    0    0  501 -0.00000000000E+00  0.00000000000E+00  0.41552033377E+02  0.41552033377E+02  0.00000000000E+00 0.  1.
          2   -1    0    0  501    0  0.00000000000E+00 -0.00000000000E+00 -0.30310926894E+03  0.30310926894E+03  0.00000000000E+00 0. -1.
         25    2    1    2    0    0  0.25898582799E+01 -0.24921923283E+02 -0.12989317870E+03  0.18206666130E+03  0.12509285215E+03 0.  0.
          5    1    3    3  502    0  0.90945560433E+01 -0.65563505784E+02 -0.12353156760E+03  0.14020985998E+03  0.41800000000E+01 0.  1.
         -5    1    3    3    0  502 -0.65046977635E+01  0.40641582501E+02 -0.63616110969E+01  0.41856801322E+02  0.41800000000E+01 0.  1.
        -11    1    1    2    0    0  0.19583999767E+02 -0.28105971398E+02 -0.72081775400E+02  0.79807650135E+02  0.00000000000E+00 0. -1.
         11    1    1    2    0    0 -0.22173858047E+02  0.53027894681E+02 -0.59582281462E+02  0.82786990881E+02  0.00000000000E+00 0.  1.
</event>
<event>
 7    1  0.2728221E-009  0.8726452E+02  0.7561462E-02  0.1309615E+00
         -3   -1    0    0    0  501 -0.00000000000E+00  0.00000000000E+00  0.24631969786E+03  0.24631969786E+03  0.00000000000E+00 0.  1.
          3   -1    0    0  501    0  0.00000000000E+00 -0.00000000000E+00 -0.69089400541E+02  0.69089400541E+02  0.00000000000E+00 0. -1.
         25    2    1    2    0    0  0.22242473375E+02  0.20639264024E+02  0.18623365670E+03  0.22639562407E+03  0.12510514325E+03 0.  0.
          5    1    3    3  502    0 -0.29568868874E+02 -0.15592644270E+02  0.45672663648E+01  0.33996777551E+02  0.41800000000E+01 0. -1.
         -5    1    3    3    0  502  0.51811342249E+02  0.36231908294E+02  0.18166639033E+03  0.19239884652E+03  0.41800000000E+01 0. -1.
        -11    1    1    2    0    0 -0.38643626052E+02  0.12407265538E+02  0.16869350367E+02  0.43952759349E+02  0.00000000000E+00 0.  1.
         11    1    1    2    0    0  0.16401152677E+02 -0.33046529562E+02 -0.25872709746E+02  0.45060714984E+02  0.00000000000E+00 0. -1.
</event>
<event>
 7    1  0.2728221E-009  0.1229947E+03  0.7561462E-02  0.1238237E+00
          3   -1    0    0  501    0  0.00000000000E+00  0.00000000000E+00  0.27377285878E+03  0.27377285878E+03  0.00000000000E+00 0. -1.
         -3   -1    0    0    0  501 -0.00000000000E+00 -0.00000000000E+00 -0.74641542917E+02  0.74641542917E+02  0.00000000000E+00 0.  1.
         25    2    1    2    0    0 -0.77035593687E+02 -0.48193608993E+02  0.69461097545E+02  0.16949794784E+03  0.12509038175E+03 0.  0.
          5    1    3    3  502    0  0.23789217483E+02 -0.17937303888E+02  0.55629854691E+02  0.63244184493E+02  0.41800000000E+01 0.  1.
         -5    1    3    3    0  502 -0.10082481117E+03 -0.30256305105E+02  0.13831242854E+02  0.10625376334E+03  0.41800000000E+01 0.  1.
        -11    1    1    2    0    0  0.67251699465E+02  0.63148776772E+01  0.37624290750E+02  0.77319182713E+02  0.00000000000E+00 0.  1.
         11    1    1    2    0    0  0.97838942219E+01  0.41878731315E+02  0.92045927569E+02  0.10159727115E+03  0.00000000000E+00 0. -1.
</event>
<event>
 7    1  0.2728221E-009  0.1078168E+03  0.7561462E-02  0.1264667E+00
         -2   -1    0    0    0  501 -0.00000000000E+00  0.00000000000E+00  0.13440197596E+02  0.13440197596E+02  0.00000000000E+00 0.  1.
          2   -1    0    0  501    0  0.00000000000E+00 -0.00000000000E+00 -0.11170475533E+04  0.11170475533E+04  0.00000000000E+00 0. -1.
         25    2    1    2    0    0 -0.54398520499E+01 -0.62370789754E+01 -0.80397664329E+03  0.81369200252E+03  0.12509092242E+03 0.  0.
          5    1    3    3  502    0  0.55326480252E+02  0.19439570208E+02 -0.41387051897E+03  0.41802535232E+03  0.41800000000E+01 0.  1.
         -5    1    3    3    0  502 -0.60766332302E+02 -0.25676649184E+02 -0.39010612431E+03  0.39566665020E+03  0.41800000000E+01 0.  1.
        -11    1    1    2    0    0 -0.40064022903E+02 -0.11842587714E+02 -0.21499952010E+03  0.21902092699E+03  0.00000000000E+00 0. -1.
         11    1    1    2    0    0  0.45503874953E+02  0.18079666690E+02 -0.84631192284E+02  0.97774821354E+02  0.00000000000E+00 0.  1.
</event>
<event>
 7    1  0.2728221E-009  0.7798401E+02  0.7561462E-02  0.1334872E+00
         -2   -1    0    0    0  501 -0.00000000000E+00  0.00000000000E+00  0.64038757808E+02  0.64038757808E+02  0.00000000000E+00 0.  1.
          2   -1    0    0  501    0  0.00000000000E+00 -0.00000000000E+00 -0.20429971169E+03  0.20429971169E+03  0.00000000000E+00 0. -1.
         25    2    1    2    0    0 -0.19214048354E+01  0.37832651886E+02 -0.11055179376E+03  0.17118418250E+03  0.12508926370E+03 0.  0.
          5    1    3    3  502    0 -0.18589749087E+02  0.72169322463E+02 -0.27253182293E+02  0.79461929381E+02  0.41800000000E+01 0.  1.
         -5    1    3    3    0  502  0.16668344252E+02 -0.34336670576E+02 -0.83298611463E+02  0.91722253124E+02  0.41800000000E+01 0.  1.
        -11    1    1    2    0    0 -0.70033034689E+01 -0.30744273586E+02  0.25641982593E+02  0.40641947408E+02  0.00000000000E+00 0.  1.
         11    1    1    2    0    0  0.89247083043E+01 -0.70883783001E+01 -0.55351142723E+02  0.56512339591E+02  0.00000000000E+00 0. -1.
</event>
<event>
 7    1  0.2728221E-009  0.1919591E+03  0.7561462E-02  0.1156706E+00
          3   -1    0    0  501    0  0.00000000000E+00  0.00000000000E+00  0.79163929172E+03  0.79163929172E+03  0.00000000000E+00 0. -1.
         -3   -1    0    0    0  501 -0.00000000000E+00 -0.00000000000E+00 -0.66500701845E+02  0.66500701845E+02  0.00000000000E+00 0.  1.
         25    2    1    2    0    0 -0.96179496647E+01 -0.16150985935E+03  0.59785241357E+03  0.63186504024E+03  0.12509189037E+03 0.  0.
          5    1    3    3  502    0  0.48136270646E+02 -0.11014488107E+03  0.43868196106E+03  0.45487177395E+03  0.41800000000E+01 0.  1.
         -5    1    3    3    0  502 -0.57754220311E+02 -0.51364978284E+02  0.15917045251E+03  0.17699326629E+03  0.41800000000E+01 0.  1.
        -11    1    1    2    0    0 -0.36921009387E+02  0.11358254375E+03  0.71180267169E+02  0.13903519559E+03  0.00000000000E+00 0.  1.
         11    1    1    2    0    0  0.46538959052E+02  0.47927315601E+02  0.56105909136E+02  0.87239757739E+02  0.00000000000E+00 0. -1.
</event>
<event>
 7    1  0.2728221E-009  0.9688462E+02  0.7561462E-02  0.1286987E+00
          3   -1    0    0  501    0  0.00000000000E+00  0.00000000000E+00  0.47378861129E+03  0.47378861129E+03  0.00000000000E+00 0. -1.
         -3   -1    0    0    0  501 -0.00000000000E+00 -0.00000000000E+00 -0.40626339524E+02  0.40626339524E+02  0.00000000000E+00 0.  1.
         25    2    1    2    0    0  0.37857475166E+02  0.23994022762E+02  0.39724450295E+03  0.41888059898E+03  0.12509540170E+03 0.  0.
          5    1    3    3  502    0  0.62009510440E+02 -0.12248392246E+02  0.99599357306E+02  0.11803688777E+03  0.41800000000E+01 0.  1.
         -5    1    3    3    0  502 -0.24152035273E+02  0.36242415008E+02  0.29764514564E+03  0.30084371122E+03  0.41800000000E+01 0.  1.
        -11    1    1    2    0    0 -0.24433343206E+02  0.25542853348E+02  0.52193339991E+01  0.35730478094E+02  0.00000000000E+00 0.  1.
         11    1    1    2    0    0 -0.13424131960E+02 -0.49536876110E+02  0.30698434815E+02  0.59803873736E+02  0.00000000000E+00 0. -1.
</event>
<event>
 7    1  0.2728221E-009  0.9610726E+02  0.7561462E-02  0.1288702E+00
          3   -1    0    0  501    0  0.00000000000E+00  0.00000000000E+00  0.82411847238E+02  0.82411847238E+02  0.00000000000E+00 0. -1.
         -3   -1    0    0    0  501 -0.00000000000E+00 -0.00000000000E+00 -0.21079752212E+03  0.21079752212E+03  0.00000000000E+00 0.  1.
         25    2    1    2    0    0  0.35574207734E+02 -0.21804548242E+02 -0.12252445350E+03  0.18000182000E+03  0.12508977145E+03 0.  0.
          5    1    3    3  502    0 -0.88253343172E+01  0.47976503217E+02 -0.42318783229E+02  0.64714628954E+02  0.41800000000E+01 0. -1.
         -5    1    3    3    0  502  0.44399542052E+02 -0.69781051459E+02 -0.80205670267E+02  0.11528719105E+03  0.41800000000E+01 0. -1.
        -11    1    1    2    0    0  0.30628183640E+01 -0.99611103463E+01  0.42424050911E+02  0.43685291247E+02  0.00000000000E+00 0. -1.
         11    1    1    2    0    0 -0.38637026098E+02  0.31765658589E+02 -0.48285272293E+02  0.69522258103E+02  0.00000000000E+00 0.  1.
</event>
<event>
 7    1  0.2728221E-009  0.1178559E+03  0.7561462E-02  0.1246677E+00
         -1   -1    0    0    0  501 -0.00000000000E+00  0.00000000000E+00  0.74776249905E+02  0.74776249905E+02  0.00000000000E+00 0.  1.
          1   -1    0    0  501    0  0.00000000000E+00 -0.00000000000E+00 -0.48785367797E+03  0.48785367797E+03  0.00000000000E+00 0. -1.
         25    2    1    2    0    0 -0.98257800038E+02  0.48141911929E+02 -0.52140476777E+02  0.17417672535E+03  0.12508662352E+03 0.  0.
          5    1    3    3  502    0 -0.26115439492E+02  0.30623817343E+02 -0.84034295616E+02  0.93268802974E+02  0.41800000000E+01 0.  1.
         -5    1    3    3    0  502 -0.72142360546E+02  0.17518094585E+02  0.31893818839E+02  0.80907922376E+02  0.41800000000E+01 0.  1.
        -11    1    1    2    0    0  0.28135783558E+02 -0.41930067153E+02 -0.55604837370E+02  0.75110923219E+02  0.00000000000E+00 0.  1.
         11    1    1    2    0    0  0.70122016480E+02 -0.62118447753E+01 -0.30533211392E+03  0.31334227930E+03  0.00000000000E+00 0. -1.
</event>
<event>
 7    1  0.2728221E-009  0.1213783E+03  0.7561462E-02  0.1240840E+00
         -2   -1    0    0    0  501 -0.00000000000E+00  0.00000000000E+00  0.12824662779E+03  0.12824662779E+03  0.00000000000E+00 0.  1.
          2   -1    0    0  501    0  0.00000000000E+00 -0.00000000000E+00 -0.13847188223E+03  0.13847188223E+03  0.00000000000E+00 0. -1.
         25    2    1    2    0    0  0.48966083065E+02 -0.25753258539E+02  0.44644016331E+02  0.14387989219E+03  0.12508967810E+03 0.  0.
          5    1    3    3  502    0 -0.21849412296E+02  0.35519762982E+02  0.53931411158E+01  0.42256464015E+02  0.41800000000E+01 0.  1.
         -5    1    3    3    0  502  0.70815495360E+02 -0.61273021521E+02  0.39250875215E+02  0.10162342818E+03  0.41800000000E+01 0.  1.
        -11    1    1    2    0    0  0.23991176101E+02  0.24284109994E+02 -0.30861440082E+02  0.46018724589E+02  0.00000000000E+00 0. -1.
         11    1    1    2    0    0 -0.72957259165E+02  0.14691485454E+01 -0.24007830684E+02  0.76819893234E+02  0.00000000000E+00 0.  1.
</event>
<event>
 7    1  0.2728221E-009  0.1397646E+03  0.7561462E-02  0.1213646E+00
         -1   -1    0    0    0  501 -0.00000000000E+00  0.00000000000E+00  0.44583383333E+03  0.44583383333E+03  0.00000000000E+00 0.  1.
          1   -1    0    0  501    0  0.00000000000E+00 -0.00000000000E+00 -0.53116568116E+02  0.53116568116E+02  0.00000000000E+00 0. -1.
         25    2    1    2    0    0 -0.96079912154E+02 -0.51666758388E+02  0.23122708903E+03  0.28462973969E+03  0.12508924244E+03 0.  0.
          5    1    3    3  502    0 -0.64600170285E+02  0.21019794944E+02  0.43351716990E+02  0.80696081357E+02  0.41800000000E+01 0.  1.
         -5    1    3    3    0  502 -0.31479741869E+02 -0.72686553332E+02  0.18787537204E+03  0.20393365834E+03  0.41800000000E+01 0.  1.
        -11    1    1    2    0    0  0.11886244346E+02 -0.18875556283E+02  0.62847967136E+02  0.66689102579E+02  0.00000000000E+00 0.  1.
         11    1    1    2    0    0  0.84193667808E+02  0.70542314671E+02  0.98642209047E+02  0.14763155917E+03  0.00000000000E+00 0. -1.
</event>
<event>
 7    1  0.2728221E-009  0.1568035E+03  0.7561462E-02  0.1192354E+00
         -2   -1    0    0    0  501 -0.00000000000E+00  0.00000000000E+00  0.61515771305E+02  0.61515771305E+02  0.00000000000E+00 0.  1.
          2   -1    0    0  501    0  0.00000000000E+00 -0.00000000000E+00 -0.50531254581E+03  0.50531254581E+03  0.00000000000E+00 0. -1.
         25    2    1    2    0    0 -0.12021453867E+03  0.66161267369E+02 -0.27081511882E+03  0.32836593014E+03  0.12511797189E+03 0.  0.
          5    1    3    3  502    0  0.48704650661E+01  0.33261217060E+02 -0.70994421000E+01  0.34610756542E+02  0.41800000000E+01 0. -1.
         -5    1    3    3    0  502 -0.12508500373E+03  0.32900050309E+02 -0.26371567672E+03  0.29375517360E+03  0.41800000000E+01 0. -1.
        -11    1    1    2    0    0  0.10847276548E+03 -0.30350484198E+02 -0.16525512034E+03  0.19999186869E+03  0.00000000000E+00 0. -1.
         11    1    1    2    0    0  0.11741773184E+02 -0.35810783171E+02 -0.77265353486E+01  0.38470518288E+02  0.00000000000E+00 0.  1.
</event>
<event>
 7    1  0.2728221E-009  0.1206268E+03  0.7561462E-02  0.1242067E+00
          2   -1    0    0  501    0  0.00000000000E+00  0.00000000000E+00  0.68413372823E+03  0.68413372823E+03  0.00000000000E+00 0. -1.
         -2   -1    0    0    0  501 -0.00000000000E+00 -0.00000000000E+00 -0.36211704816E+02  0.36211704816E+02  0.00000000000E+00 0.  1.
         25    2    1    2    0    0  0.41705622202E+01  0.83142208359E+02  0.52642815675E+03  0.54745170359E+03  0.12508694231E+03 0.  0.
          5    1    3    3  502    0 -0.18623684313E+02  0.10780114059E+03  0.31855568845E+03  0.33684288114E+03  0.41800000000E+01 0. -1.
         -5    1    3    3    0  502  0.22794246533E+02 -0.24658932234E+02  0.20787246831E+03  0.21060882245E+03  0.41800000000E+01 0. -1.
        -11    1    1    2    0    0  0.23578130215E+02 -0.31963857794E+02  0.10518667038E+03  0.11243599092E+03  0.00000000000E+00 0. -1.
         11    1    1    2    0    0 -0.27748692435E+02 -0.51178350564E+02  0.16307196282E+02  0.60457738536E+02  0.00000000000E+00 0.  1.
</event>
<event>
 7    1  0.2728221E-009  0.1017259E+03  0.7561462E-02  0.1276708E+00
          1   -1    0    0  501    0  0.00000000000E+00  0.00000000000E+00  0.15595209533E+04  0.15595209533E+04  0.00000000000E+00 0. -1.
         -1   -1    0    0    0  501 -0.00000000000E+00 -0.00000000000E+00 -0.82166961005E+01  0.82166961005E+01  0.00000000000E+00 0.  1.
         25    2    1    2    0    0  0.17811995003E+02  0.44298210181E+02  0.10343324566E+04  0.10429621017E+04  0.12508683475E+03 0.  0.
          5    1    3    3  502    0 -0.23981968332E+02 -0.23316538686E+02  0.10616983468E+03  0.11139255799E+03  0.41800000000E+01 0.  1.
         -5    1    3    3    0  502  0.41793963335E+02  0.67614748866E+02  0.92816262190E+03  0.93156954369E+03  0.41800000000E+01 0.  1.
        -11    1    1    2    0    0 -0.38694626019E+02  0.26257494628E+01  0.21704602824E+03  0.22048389288E+03  0.00000000000E+00 0.  1.
         11    1    1    2    0    0  0.20882631016E+02 -0.46923959643E+02  0.29992577239E+03  0.30429165485E+03  0.00000000000E+00 0. -1.
</event>
<event>
 7    1  0.2728221E-009  0.7395013E+02  0.7561462E-02  0.1347153E+00
          2   -1    0    0  501    0  0.00000000000E+00  0.00000000000E+00  0.62579423362E+02  0.62579423362E+02  0.00000000000E+00 0.  1.
         -2   -1    0    0    0  501 -0.00000000000E+00 -0.00000000000E+00 -0.20902071698E+03  0.20902071698E+03  0.00000000000E+00 0. -1.
         25    2    1    2    0    0  0.85591066518E+01 -0.31334286422E+02 -0.10657751156E+03  0.16751542734E+03  0.12509019392E+03 0.  0.
          5    1    3    3  502    0  0.35656114139E+02  0.19947140322E+02  0.53173045597E+01  0.41412474090E+02  0.41800000000E+01 0. -1.
         -5    1    3    3    0  502 -0.27097007487E+02 -0.51281426743E+02 -0.11189481612E+03  0.12610295325E+03  0.41800000000E+01 0. -1.
        -11    1    1    2    0    0  0.13486648204E+02  0.19352915634E+02  0.25099458126E+02  0.34444271244E+02  0.00000000000E+00 0.  1.
         11    1    1    2    0    0 -0.22045754856E+02  0.11981370788E+02 -0.64963240187E+02  0.69640441761E+02  0.00000000000E+00 0. -1.
</event>
<event>
 7    1  0.2728221E-009  0.1387202E+03  0.7561462E-02  0.1215061E+00
         -2   -1    0    0    0  501 -0.00000000000E+00  0.00000000000E+00  0.40747300365E+03  0.40747300365E+03  0.00000000000E+00 0.  1.
          2   -1    0    0  501    0  0.00000000000E+00 -0.00000000000E+00 -0.52310974129E+02  0.52310974129E+02  0.00000000000E+00 0. -1.
         25    2    1    2    0    0 -0.10205863208E+02  0.94831148888E+02  0.19941652673E+03  0.25399082642E+03  0.12508909757E+03 0.  0.
          5    1    3    3  502    0  0.29261653275E+02  0.10099850538E+03  0.93711173271E+02  0.14091202517E+03  0.41800000000E+01 0.  1.
         -5    1    3    3    0  502 -0.39467516483E+02 -0.61673564903E+01  0.10570535346E+03  0.11307880126E+03  0.41800000000E+01 0.  1.
        -11    1    1    2    0    0 -0.38201379730E+02 -0.20547571639E+02  0.33641500686E+02  0.54893521311E+02  0.00000000000E+00 0.  1.
         11    1    1    2    0    0  0.48407242938E+02 -0.74283577249E+02  0.12210400211E+03  0.15089963005E+03  0.00000000000E+00 0. -1.
</event>
<event>
 7    1  0.2728221E-009  0.5530809E+02  0.7561462E-02  0.1418648E+00
          1   -1    0    0  501    0  0.00000000000E+00  0.00000000000E+00  0.17387673090E+03  0.17387673090E+03  0.00000000000E+00 0. -1.
         -1   -1    0    0    0  501 -0.00000000000E+00 -0.00000000000E+00 -0.82988684543E+02  0.82988684543E+02  0.00000000000E+00 0.  1.
         25    2    1    2    0    0 -0.26579880876E+02  0.24655203361E+02  0.89232477885E+02  0.15787178237E+03  0.12508675165E+03 0.  0.
          5    1    3    3  502    0 -0.21735377158E+02  0.44063217027E+00 -0.29299482808E+02  0.36722647913E+02  0.41800000000E+01 0. -1.
         -5    1    3    3    0  502 -0.48445037176E+01  0.24214571191E+02  0.11853196069E+03  0.12114913446E+03  0.41800000000E+01 0. -1.
        -11    1    1    2    0    0  0.37045613332E+02 -0.43542118252E+00  0.38660284444E+02  0.53546098384E+02  0.00000000000E+00 0. -1.
         11    1    1    2    0    0 -0.10465732457E+02 -0.24219782179E+02 -0.37004715975E+02  0.45447534686E+02  0.00000000000E+00 0.  1.
</event>
<event>
 7    1  0.2728221E-009  0.1435248E+03  0.7561462E-02  0.1208663E+00
         -1   -1    0    0    0  501 -0.00000000000E+00  0.00000000000E+00  0.42821661199E+02  0.42821661199E+02  0.00000000000E+00 0.  1.
          1   -1    0    0  501    0  0.00000000000E+00 -0.00000000000E+00 -0.52186204582E+03  0.52186204582E+03  0.00000000000E+00 0. -1.
         25    2    1    2    0    0  0.58640103566E+01 -0.10009416198E+03 -0.22490405973E+03  0.27619386248E+03  0.12509190906E+03 0.  0.
          5    1    3    3  502    0  0.33090548659E+01  0.24932017020E+02 -0.83857525866E+02  0.87647660329E+02  0.41800000000E+01 0.  1.
         -5    1    3    3    0  502  0.25549554906E+01 -0.12502617900E+03 -0.14104653386E+03  0.18854620215E+03  0.41800000000E+01 0.  1.
        -11    1    1    2    0    0 -0.46328559560E+02  0.29082318965E+02 -0.10735561751E+03  0.12048794677E+03  0.00000000000E+00 0.  1.
         11    1    1    2    0    0  0.40464549204E+02  0.71011843014E+02 -0.14678070738E+03  0.16800189776E+03  0.00000000000E+00 0. -1.
</event>
<event>
 7    1  0.2728221E-009  0.9180969E+02  0.7561462E-02  0.1298528E+00
         -2   -1    0    0    0  501 -0.00000000000E+00  0.00000000000E+00  0.17131399514E+03  0.17131399514E+03  0.00000000000E+00 0. -1.
          2   -1    0    0  501    0  0.00000000000E+00 -0.00000000000E+00 -0.10434115676E+03  0.10434115676E+03  0.00000000000E+00 0.  1.
         25    2    1    2    0    0 -0.57810372613E+01 -0.69812016924E+02  0.71200517198E+02  0.16006144581E+03  0.12507203799E+03 0.  0.
          5    1    3    3  502    0  0.58535336005E+00 -0.43566578088E+02 -0.31409836668E+02  0.53874294467E+02  0.41800000000E+01 0. -1.
         -5    1    3    3    0  502 -0.63663906214E+01 -0.26245438837E+02  0.10261035387E+03  0.10618715134E+03  0.41800000000E+01 0. -1.
        -11    1    1    2    0    0  0.45494821177E+02  0.51714072127E+02 -0.15324859210E+02  0.70561854565E+02  0.00000000000E+00 0.  1.
         11    1    1    2    0    0 -0.39713783916E+02  0.18097944797E+02  0.11097180391E+02  0.45031851522E+02  0.00000000000E+00 0. -1.
</event>
<event>
 7    1  0.2728221E-009  0.1238327E+03  0.7561462E-02  0.1236905E+00
          1   -1    0    0  501    0  0.00000000000E+00  0.00000000000E+00  0.37392848714E+03  0.37392848714E+03  0.00000000000E+00 0. -1.
         -1   -1    0    0    0  501 -0.00000000000E+00 -0.00000000000E+00 -0.71875570115E+02  0.71875570115E+02  0.00000000000E+00 0.  1.
         25    2    1    2    0    0 -0.67533786462E+02  0.82598810261E+02  0.76231753576E+02  0.18122370418E+03  0.12508946771E+03 0.  0.
          5    1    3    3  502    0 -0.26867890556E+01  0.71508955424E+02 -0.10326601558E+02  0.72421410101E+02  0.41800000000E+01 0.  1.
         -5    1    3    3    0  502 -0.64846997407E+02  0.11089854837E+02  0.86558355133E+02  0.10880229408E+03  0.41800000000E+01 0.  1.
        -11    1    1    2    0    0  0.50013828495E+02 -0.40133871561E+02  0.20377542998E+03  0.21362709695E+03  0.00000000000E+00 0. -1.
         11    1    1    2    0    0  0.17519957967E+02 -0.42464938700E+02  0.22045733471E+02  0.50953256130E+02  0.00000000000E+00 0.  1.
</event>
<event>
 7    1  0.2728221E-009  0.1582386E+03  0.7561462E-02  0.1190700E+00
         -2   -1    0    0    0  501 -0.00000000000E+00  0.00000000000E+00  0.77266107807E+02  0.77266107807E+02  0.00000000000E+00 0.  1.
          2   -1    0    0  501    0  0.00000000000E+00 -0.00000000000E+00 -0.43218419938E+03  0.43218419938E+03  0.00000000000E+00 0. -1.
         25    2    1    2    0    0 -0.91554983988E+02 -0.11940979811E+03 -0.17261551582E+03  0.26092897610E+03  0.12508716676E+03 0.  0.
          5    1    3    3  502    0 -0.68788020551E+02 -0.12397477664E+03 -0.74894403785E+02  0.16040006588E+03  0.41800000000E+01 0.  1.
         -5    1    3    3    0  502 -0.22766963437E+02  0.45649785294E+01 -0.97721112039E+02  0.10052891023E+03  0.41800000000E+01 0.  1.
        -11    1    1    2    0    0  0.80322271015E+02  0.11098577183E+03 -0.11236264829E+03  0.17718598562E+03  0.00000000000E+00 0.  1.
         11    1    1    2    0    0  0.11232712972E+02  0.84240262823E+01 -0.69939927454E+02  0.71335345459E+02  0.00000000000E+00 0. -1.
</event>
<event>
 7    1  0.2728221E-009  0.9131738E+02  0.7561462E-02  0.1299692E+00
          1   -1    0    0  501    0  0.00000000000E+00  0.00000000000E+00  0.74828894675E+03  0.74828894675E+03  0.00000000000E+00 0. -1.
         -1   -1    0    0    0  501 -0.00000000000E+00 -0.00000000000E+00 -0.21287017105E+02  0.21287017105E+02  0.00000000000E+00 0.  1.
         25    2    1    2    0    0 -0.93123201451E+00 -0.54804706780E+02  0.55224409952E+03  0.56887974250E+03  0.12508474283E+03 0.  0.
          5    1    3    3  502    0  0.28669086700E+02  0.23912490382E+02  0.71007547644E+02  0.80332234818E+02  0.41800000000E+01 0.  1.
         -5    1    3    3    0  502 -0.29600318714E+02 -0.78717197161E+02  0.48123655188E+03  0.48854750768E+03  0.41800000000E+01 0.  1.
        -11    1    1    2    0    0 -0.12735611644E+02  0.28761198012E+02  0.95237861076E+01  0.32864948149E+02  0.00000000000E+00 0.  1.
         11    1    1    2    0    0  0.13666843659E+02  0.26043508768E+02  0.16523404401E+03  0.16783127320E+03  0.00000000000E+00 0. -1.
</event>
<event>
 7    1  0.2728221E-009  0.2145738E+03  0.7561462E-02  0.1137994E+00
         -3   -1    0    0    0  501 -0.00000000000E+00  0.00000000000E+00  0.96109031252E+03  0.96109031252E+03  0.00000000000E+00 0.  1.
          3   -1    0    0  501    0  0.00000000000E+00 -0.00000000000E+00 -0.54048967173E+02  0.54048967173E+02  0.00000000000E+00 0. -1.
         25    2    1    2    0    0  0.19939331129E+02 -0.19626655425E+03  0.53747625281E+03  0.58604207396E+03  0.12508578208E+03 0.  0.
          5    1    3    3  502    0  0.33102847711E+02 -0.19942418379E+03  0.40357565566E+03  0.45139404721E+03  0.41800000000E+01 0.  1.
         -5    1    3    3    0  502 -0.13163516583E+02  0.31576295486E+01  0.13390059715E+03  0.13464802676E+03  0.41800000000E+01 0.  1.
        -11    1    1    2    0    0  0.30213638980E+02  0.96520011527E+02  0.12927797041E+03  0.16413948410E+03  0.00000000000E+00 0. -1.
         11    1    1    2    0    0 -0.50152970109E+02  0.99746542718E+02  0.24028712212E+03  0.26495772163E+03  0.00000000000E+00 0.  1.
</event>
<event>
 7    1  0.2728221E-009  0.1139172E+03  0.7561462E-02  0.1253483E+00
          2   -1    0    0  501    0  0.00000000000E+00  0.00000000000E+00  0.11278823773E+04  0.11278823773E+04  0.00000000000E+00 0.  1.
         -2   -1    0    0    0  501 -0.00000000000E+00 -0.00000000000E+00 -0.18569093036E+02  0.18569093036E+02  0.00000000000E+00 0. -1.
         25    2    1    2    0    0  0.28795583288E+02 -0.92295320470E+02  0.72141494030E+03  0.73853559576E+03  0.12509076034E+03 0.  0.
          5    1    3    3  502    0  0.45466781906E+02 -0.69386054401E+02  0.69378869103E+03  0.69874306651E+03  0.41800000000E+01 0.  1.
         -5    1    3    3    0  502 -0.16671198618E+02 -0.22909266069E+02  0.27626249271E+02  0.39792529248E+02  0.41800000000E+01 0.  1.
        -11    1    1    2    0    0 -0.12302270695E+02 -0.78800178816E+01  0.13140491193E+02  0.19649759664E+02  0.00000000000E+00 0. -1.
         11    1    1    2    0    0 -0.16493312593E+02  0.10017533835E+03  0.37475785281E+03  0.38826611495E+03  0.00000000000E+00 0.  1.
</event>
<event>
 7    1  0.2728221E-009  0.1482295E+03  0.7561462E-02  0.1202666E+00
         -2   -1    0    0    0  501 -0.00000000000E+00  0.00000000000E+00  0.23351620368E+02  0.23351620368E+02  0.00000000000E+00 0.  1.
          2   -1    0    0  501    0  0.00000000000E+00 -0.00000000000E+00 -0.14726043078E+04  0.14726043078E+04  0.00000000000E+00 0. -1.
         25    2    1    2    0    0 -0.14778483149E+03 -0.22667300423E+01 -0.86159744553E+03  0.88308699181E+03  0.12508789903E+03 0.  0.
          5    1    3    3  502    0 -0.50680201071E+02 -0.10683326180E+01 -0.75697189397E+02  0.91198470369E+02  0.41800000000E+01 0.  1.
         -5    1    3    3    0  502 -0.97104630419E+02 -0.11983974243E+01 -0.78590025613E+03  0.79188852144E+03  0.41800000000E+01 0.  1.
        -11    1    1    2    0    0  0.99687347215E+02 -0.46792109641E+01 -0.52046464946E+03  0.52994614212E+03  0.00000000000E+00 0. -1.
         11    1    1    2    0    0  0.48097484274E+02  0.69459410064E+01 -0.67190592410E+02  0.82922794203E+02  0.00000000000E+00 0.  1.
</event>
<event>
 7    1  0.2728221E-009  0.3475063E+03  0.7561462E-02  0.1063643E+00
          3   -1    0    0  501    0  0.00000000000E+00  0.00000000000E+00  0.69153111532E+03  0.69153111532E+03  0.00000000000E+00 0. -1.
         -3   -1    0    0    0  501 -0.00000000000E+00 -0.00000000000E+00 -0.17715355603E+03  0.17715355603E+03  0.00000000000E+00 0.  1.
         25    2    1    2    0    0 -0.25391967907E+03 -0.21146538890E+03  0.22162902853E+03  0.41708551820E+03  0.12509232224E+03 0.  0.
          5    1    3    3  502    0 -0.19384658846E+02  0.16675783855E+02  0.12712129634E+02  0.28860308480E+02  0.41800000000E+01 0.  1.
         -5    1    3    3    0  502 -0.23453502022E+03 -0.22814117276E+03  0.20891689890E+03  0.38822520972E+03  0.41800000000E+01 0.  1.
        -11    1    1    2    0    0  0.13098528604E+03  0.52946525945E+02  0.14508489645E+03  0.20250952310E+03  0.00000000000E+00 0. -1.
         11    1    1    2    0    0  0.12293439303E+03  0.15851886296E+03  0.14766363431E+03  0.24908963005E+03  0.00000000000E+00 0.  1.
</event>
<event>
 7    1  0.2728221E-009  0.1673569E+03  0.7561462E-02  0.1180632E+00
         -2   -1    0    0    0  501 -0.00000000000E+00  0.00000000000E+00  0.41202905839E+02  0.41202905839E+02  0.00000000000E+00 0.  1.
          2   -1    0    0  501    0  0.00000000000E+00 -0.00000000000E+00 -0.75949661457E+03  0.75949661457E+03  0.00000000000E+00 0. -1.
         25    2    1    2    0    0  0.10076813446E+02  0.13900472345E+03 -0.37410809131E+03  0.41836550334E+03  0.12509586361E+03 0.  0.
          5    1    3    3  502    0 -0.29994782035E+02  0.13990057236E+03 -0.25245973753E+03  0.29021586546E+03  0.41800000000E+01 0. -1.
         -5    1    3    3    0  502  0.40071595481E+02 -0.89584890615E+00 -0.12164835379E+03  0.12814963788E+03  0.41800000000E+01 0. -1.
        -11    1    1    2    0    0  0.24347451016E+02 -0.70889968936E+02 -0.25062662008E+03  0.26159489437E+03  0.00000000000E+00 0. -1.
         11    1    1    2    0    0 -0.34424264462E+02 -0.68114754518E+02 -0.93558997342E+02  0.12073912270E+03  0.00000000000E+00 0.  1.
</event>
<event>
 7    1  0.2942162E-009  0.6439749E+02  0.7561462E-02  0.1380252E+00
          1   -1    0    0  501    0  0.00000000000E+00  0.00000000000E+00  0.92061430806E+03  0.92061430806E+03  0.00000000000E+00 0. -1.
         -1   -1    0    0    0  501 -0.00000000000E+00 -0.00000000000E+00 -0.15520051118E+02  0.15520051118E+02  0.00000000000E+00 0.  1.
         25    2    1    2    0    0  0.24652279795E+02 -0.14417164675E+02  0.67402961214E+03  0.68613310174E+03  0.12508847159E+03 0.  0.
          5    1    3    3  502    0  0.42031977458E+02 -0.10697170410E+01  0.70506034267E+02  0.82197352096E+02  0.41800000000E+01 0. -1.
         -5    1    3    3    0  502 -0.17379697663E+02 -0.13347447634E+02  0.60352357787E+03  0.60393574964E+03  0.41800000000E+01 0. -1.
        -11    1    1    2    0    0 -0.67781545635E+01 -0.22348120756E+02  0.10369812101E+02  0.25552199193E+02  0.00000000000E+00 0.  1.
         11    1    1    2    0    0 -0.17874125231E+02  0.36765285431E+02  0.22069483271E+03  0.22444905825E+03  0.00000000000E+00 0. -1.
</event>
<event>
 7    1  0.2728221E-009  0.1544350E+03  0.7561462E-02  0.1195127E+00
          2   -1    0    0  501    0  0.00000000000E+00  0.00000000000E+00  0.38832895906E+03  0.38832895906E+03  0.00000000000E+00 0.  1.
         -2   -1    0    0    0  501 -0.00000000000E+00 -0.00000000000E+00 -0.94731443131E+02  0.94731443131E+02  0.00000000000E+00 0. -1.
         25    2    1    2    0    0  0.10842069974E+03 -0.53728007640E+02  0.28113177287E+03  0.33064367506E+03  0.12509364175E+03 0.  0.
          5    1    3    3  502    0  0.10258598836E+03  0.15834798166E+01  0.10921640408E+03  0.14990693025E+03  0.41800000000E+01 0. -1.
         -5    1    3    3    0  502  0.58347113829E+01 -0.55311487457E+02  0.17191536878E+03  0.18073674481E+03  0.41800000000E+01 0. -1.
        -11    1    1    2    0    0  0.15998680026E+02  0.46320889788E+01 -0.53175782950E+01  0.17484011262E+02  0.00000000000E+00 0.  1.
         11    1    1    2    0    0 -0.12441937977E+03  0.49095918661E+02  0.17783321355E+02  0.13493271586E+03  0.00000000000E+00 0. -1.
</event>
<event>
 7    1  0.2728221E-009  0.6162994E+02  0.7561462E-02  0.1391116E+00
         -2   -1    0    0    0  501 -0.00000000000E+00  0.00000000000E+00  0.41535687620E+02  0.41535687620E+02  0.00000000000E+00 0.  1.
          2   -1    0    0  501    0  0.00000000000E+00 -0.00000000000E+00 -0.30440173683E+03  0.30440173683E+03  0.00000000000E+00 0. -1.
         25    2    1    2    0    0 -0.64131419933E+01  0.23506470104E+02 -0.18955272272E+03  0.22840806048E+03  0.12508527040E+03 0.  0.
          5    1    3    3  502    0 -0.21793304739E+02  0.20947460276E+02  0.69057998272E+01  0.31287484634E+02  0.41800000000E+01 0. -1.
         -5    1    3    3    0  502  0.15380162746E+02  0.25590098279E+01 -0.19645852255E+03  0.19712057584E+03  0.41800000000E+01 0. -1.
        -11    1    1    2    0    0  0.34507166058E+02  0.69141648305E+01 -0.66947495171E+02  0.75634101398E+02  0.00000000000E+00 0.  1.
         11    1    1    2    0    0 -0.28094024064E+02 -0.30420634935E+02 -0.63658313146E+01  0.41895262576E+02  0.00000000000E+00 0. -1.
</event>
<event>
 7    1  0.2728221E-009  0.1089023E+03  0.7561462E-02  0.1262616E+00
          1   -1    0    0  501    0  0.00000000000E+00  0.00000000000E+00  0.27136456391E+03  0.27136456391E+03  0.00000000000E+00 0. -1.
         -1   -1    0    0    0  501 -0.00000000000E+00 -0.00000000000E+00 -0.57756023076E+02  0.57756023076E+02  0.00000000000E+00 0.  1.
         25    2    1    2    0    0 -0.30380237875E+02  0.38240775919E+02  0.74499886734E+02  0.15356349792E+03  0.12508476715E+03 0.  0.
          5    1    3    3  502    0 -0.28231912444E+02 -0.37239724751E+02 -0.68505462778E+00  0.46923125211E+02  0.41800000000E+01 0.  1.
         -5    1    3    3    0  502 -0.21483254306E+01  0.75480500669E+02  0.75184941362E+02  0.10664037271E+03  0.41800000000E+01 0.  1.
        -11    1    1    2    0    0  0.58780253305E+02 -0.27522651359E+02  0.51549093533E+02  0.82885002023E+02  0.00000000000E+00 0.  1.
         11    1    1    2    0    0 -0.28400015430E+02 -0.10718124560E+02  0.87559560572E+02  0.92672087049E+02  0.00000000000E+00 0. -1.
</event>
<event>
 7    1  0.2728221E-009  0.1210593E+03  0.7561462E-02  0.1241360E+00
         -1   -1    0    0    0  501 -0.00000000000E+00  0.00000000000E+00  0.78405595237E+02  0.78405595237E+02  0.00000000000E+00 0.  1.
          1   -1    0    0  501    0  0.00000000000E+00 -0.00000000000E+00 -0.32040134892E+03  0.32040134892E+03  0.00000000000E+00 0. -1.
         25    2    1    2    0    0 -0.68194407892E+02  0.93217247984E+02 -0.12403578712E+03  0.21064734537E+03  0.12508994777E+03 0.  0.
          5    1    3    3  502    0  0.21510769121E+01  0.16161477507E+02  0.24107451863E+02  0.29401736724E+02  0.41800000000E+01 0.  1.
         -5    1    3    3    0  502 -0.70345484804E+02  0.77055770478E+02 -0.14814323898E+03  0.18124560864E+03  0.41800000000E+01 0.  1.
        -11    1    1    2    0    0  0.58530065887E+02 -0.51234775145E+02 -0.12221461297E+03  0.14486953586E+03  0.00000000000E+00 0. -1.
         11    1    1    2    0    0  0.96643420045E+01 -0.41982472840E+02  0.42546464095E+01  0.43290062927E+02  0.00000000000E+00 0.  1.
</event>
<event>
 7    1  0.2728221E-009  0.1154104E+03  0.7561462E-02  0.1250866E+00
         -1   -1    0    0    0  501 -0.00000000000E+00  0.00000000000E+00  0.11196846414E+02  0.11196846414E+02  0.00000000000E+00 0.  1.
          1   -1    0    0  501    0  0.00000000000E+00 -0.00000000000E+00 -0.14150012993E+04  0.14150012993E+04  0.00000000000E+00 0. -1.
         25    2    1    2    0    0 -0.11369714120E+02 -0.59737306584E+02 -0.86787871614E+03  0.87895173990E+03  0.12507949051E+03 0.  0.
          5    1    3    3  502    0 -0.53582584594E+02 -0.58412342147E+02 -0.33043839603E+03  0.33983834548E+03  0.41800000000E+01 0.  1.
         -5    1    3    3    0  502  0.42212870474E+02 -0.13249644374E+01 -0.53744032011E+03  0.53911339442E+03  0.41800000000E+01 0.  1.
        -11    1    1    2    0    0  0.24506339506E+02 -0.17846856980E+02 -0.10939589669E+03  0.11351886712E+03  0.00000000000E+00 0.  1.
         11    1    1    2    0    0 -0.13136625385E+02  0.77584163564E+02 -0.42652984007E+03  0.43372753871E+03  0.00000000000E+00 0. -1.
</event>
<event>
 7    1  0.2728221E-009  0.1192021E+03  0.7561462E-02  0.1244419E+00
          1   -1    0    0  501    0  0.00000000000E+00  0.00000000000E+00  0.30805436728E+02  0.30805436728E+02  0.00000000000E+00 0. -1.
         -1   -1    0    0    0  501 -0.00000000000E+00 -0.00000000000E+00 -0.50168347712E+03  0.50168347712E+03  0.00000000000E+00 0.  1.
         25    2    1    2    0    0  0.60312862890E+02  0.12818646429E+02 -0.26410610790E+03  0.29866641309E+03  0.12509049106E+03 0.  0.
          5    1    3    3  502    0  0.10258988780E+02 -0.49538290854E+02 -0.15657893930E+03  0.16460171853E+03  0.41800000000E+01 0.  1.
         -5    1    3    3    0  502  0.50053874110E+02  0.62356937283E+02 -0.10752716860E+03  0.13406469456E+03  0.41800000000E+01 0.  1.
        -11    1    1    2    0    0 -0.83003884642E+02 -0.16376105096E+02 -0.17735562376E+03  0.19650149863E+03  0.00000000000E+00 0.  1.
         11    1    1    2    0    0  0.22691021753E+02  0.35574586668E+01 -0.29416308737E+02  0.37321002131E+02  0.00000000000E+00 0. -1.
</event>
<event>
 7    1  0.2728221E-009  0.1276581E+03  0.7561462E-02  0.1230973E+00
          1   -1    0    0  501    0  0.00000000000E+00  0.00000000000E+00  0.30818851111E+03  0.30818851111E+03  0.00000000000E+00 0.  1.
         -1   -1    0    0    0  501 -0.00000000000E+00 -0.00000000000E+00 -0.78000574899E+02  0.78000574899E+02  0.00000000000E+00 0. -1.
         25    2    1    2    0    0  0.11005874770E+03 -0.10228763173E+02  0.12599209926E+03  0.20914260978E+03  0.12509622940E+03 0.  0.
          5    1    3    3  502    0  0.68242011877E+02  0.11001209269E+02 -0.55075948118E+01  0.69468012718E+02  0.41800000000E+01 0. -1.
         -5    1    3    3    0  502  0.41816735823E+02 -0.21229972442E+02  0.13149969407E+03  0.13967459706E+03  0.41800000000E+01 0. -1.
        -11    1    1    2    0    0  0.66336605464E+01  0.20782005943E+02  0.26079469574E+01  0.21970403060E+02  0.00000000000E+00 0. -1.
         11    1    1    2    0    0 -0.11669240825E+03 -0.10553242770E+02  0.10158789000E+03  0.15507607317E+03  0.00000000000E+00 0.  1.
</event>
<event>
 7    1  0.2728221E-009  0.9309267E+02  0.7561462E-02  0.1295531E+00
          1   -1    0    0  501    0  0.00000000000E+00  0.00000000000E+00  0.34442891551E+03  0.34442891551E+03  0.00000000000E+00 0. -1.
         -1   -1    0    0    0  501 -0.00000000000E+00 -0.00000000000E+00 -0.37699171157E+02  0.37699171157E+02  0.00000000000E+00 0.  1.
         25    2    1    2    0    0 -0.35261363582E+02  0.81061580393E-01  0.14535437332E+03  0.19498191004E+03  0.12508669420E+03 0.  0.
          5    1    3    3  502    0 -0.31625697991E+02 -0.48221182492E+02  0.13269146460E+03  0.14474102525E+03  0.41800000000E+01 0. -1.
         -5    1    3    3    0  502 -0.36356655910E+01  0.48302244072E+02  0.12662908720E+02  0.50240884784E+02  0.41800000000E+01 0. -1.
        -11    1    1    2    0    0  0.52884909592E+02 -0.16766521631E+02  0.55310542214E+02  0.78340193963E+02  0.00000000000E+00 0.  1.
         11    1    1    2    0    0 -0.17623546010E+02  0.16685460051E+02  0.10606482882E+03  0.10880598267E+03  0.00000000000E+00 0. -1.
</event>
<event>
 7    1  0.2728221E-009  0.7396993E+02  0.7561462E-02  0.1347091E+00
         -2   -1    0    0    0  501 -0.00000000000E+00  0.00000000000E+00  0.45559506814E+02  0.45559506814E+02  0.00000000000E+00 0. -1.
          2   -1    0    0  501    0  0.00000000000E+00 -0.00000000000E+00 -0.35813326039E+03  0.35813326039E+03  0.00000000000E+00 0.  1.
         25    2    1    2    0    0 -0.12352727922E+02 -0.36941467962E+02 -0.26190506572E+03  0.29285010745E+03  0.12509860126E+03 0.  0.
          5    1    3    3  502    0 -0.36216559059E+02 -0.94159369292E+01 -0.10926046283E+02  0.39206503360E+02  0.41800000000E+01 0.  1.
         -5    1    3    3    0  502  0.23863831137E+02 -0.27525531033E+02 -0.25097901944E+03  0.25364360409E+03  0.41800000000E+01 0.  1.
        -11    1    1    2    0    0 -0.10248724827E+02  0.47555974950E+02 -0.65660116599E+02  0.81718162154E+02  0.00000000000E+00 0.  1.
         11    1    1    2    0    0  0.22601452749E+02 -0.10614506988E+02  0.14991428744E+02  0.29124497605E+02  0.00000000000E+00 0. -1.
</event>
<event>
 7    1  0.2728221E-009  0.5179107E+02  0.7561462E-02  0.1435914E+00
          2   -1    0    0  501    0  0.00000000000E+00  0.00000000000E+00  0.13082921657E+03  0.13082921657E+03  0.00000000000E+00 0. -1.
         -2   -1    0    0    0  501 -0.00000000000E+00 -0.00000000000E+00 -0.15962112692E+03  0.15962112692E+03  0.00000000000E+00 0.  1.
         25    2    1    2    0    0 -0.66239772320E+01 -0.21019518958E+02  0.82352182317E+02  0.15137727952E+03  0.12508997391E+03 0.  0.
          5    1    3    3  502    0  0.12467187644E+01 -0.17598520802E+02  0.11548352883E+03  0.11689816112E+03  0.41800000000E+01 0.  1.
         -5    1    3    3    0  502 -0.78706959965E+01 -0.34209981566E+01 -0.33131346516E+02  0.34479118402E+02  0.41800000000E+01 0.  1.
        -11    1    1    2    0    0  0.30999407930E+02 -0.13364542153E+02 -0.79494372025E+02  0.86365094006E+02  0.00000000000E+00 0.  1.
         11    1    1    2    0    0 -0.24375430698E+02  0.34384061112E+02 -0.31649720640E+02  0.52707969956E+02  0.00000000000E+00 0. -1.
</event>
<event>
 7    1  0.2728221E-009  0.2104141E+03  0.7561462E-02  0.1141238E+00
          1   -1    0    0  501    0  0.00000000000E+00  0.00000000000E+00  0.12633103098E+04  0.12633103098E+04  0.00000000000E+00 0. -1.
         -1   -1    0    0    0  501 -0.00000000000E+00 -0.00000000000E+00 -0.40032592833E+02  0.40032592833E+02  0.00000000000E+00 0.  1.
         25    2    1    2    0    0 -0.18893574427E+03 -0.53791930916E+02  0.61061467393E+03  0.65351997087E+03  0.12509110684E+03 0.  0.
          5    1    3    3  502    0 -0.81174153166E+01  0.18209336213E+02  0.11115424961E+02  0.23205547371E+02  0.41800000000E+01 0.  1.
         -5    1    3    3    0  502 -0.18081832895E+03 -0.72001267129E+02  0.59949924897E+03  0.63031442350E+03  0.41800000000E+01 0.  1.
        -11    1    1    2    0    0  0.81608648707E+01  0.20375751273E+02  0.21460792979E+02  0.30697501375E+02  0.00000000000E+00 0.  1.
         11    1    1    2    0    0  0.18077487940E+03  0.33416179643E+02  0.59120225009E+03  0.61912543042E+03  0.00000000000E+00 0. -1.
</event>
<event>
 7    1  0.2728221E-009  0.1083275E+03  0.7561462E-02  0.1263699E+00
         -1   -1    0    0    0  501 -0.00000000000E+00  0.00000000000E+00  0.93408938507E+02  0.93408938507E+02  0.00000000000E+00 0.  1.
          1   -1    0    0  501    0  0.00000000000E+00 -0.00000000000E+00 -0.13212254370E+03  0.13212254370E+03  0.00000000000E+00 0. -1.
         25    2    1    2    0    0 -0.57009728952E+01  0.23462893676E+02 -0.11968739269E+02  0.12796153044E+03  0.12509154280E+03 0.  0.
          5    1    3    3  502    0 -0.29734431303E+01  0.74784318804E+02  0.29084170159E+00  0.74960607601E+02  0.41800000000E+01 0. -1.
         -5    1    3    3    0  502 -0.27275297649E+01 -0.51321425128E+02 -0.12259580971E+02  0.53000922835E+02  0.41800000000E+01 0. -1.
        -11    1    1    2    0    0  0.40689675127E+02 -0.34601258144E+02 -0.23069554749E+01  0.53462311684E+02  0.00000000000E+00 0.  1.
         11    1    1    2    0    0 -0.34988702232E+02  0.11138364468E+02 -0.24437910449E+02  0.44107640086E+02  0.00000000000E+00 0. -1.
</event>
<event>
 7    1  0.2728221E-009  0.1252447E+03  0.7561462E-02  0.1234687E+00
         -2   -1    0    0    0  501 -0.00000000000E+00  0.00000000000E+00  0.17747617442E+02  0.17747617442E+02  0.00000000000E+00 0.  1.
          2   -1    0    0  501    0  0.00000000000E+00 -0.00000000000E+00 -0.19579289328E+04  0.19579289328E+04  0.00000000000E+00 0. -1.
         25    2    1    2    0    0  0.34298882294E+02  0.10404389364E+03 -0.15797221106E+04  0.15884491072E+04  0.12508826581E+03 0.  0.
          5    1    3    3  502    0  0.35029856402E+02  0.88848942521E+01 -0.10222906065E+04  0.10229377248E+04  0.41800000000E+01 0. -1.
         -5    1    3    3    0  502 -0.73097410814E+00  0.95158999388E+02 -0.55743150412E+03  0.56551138245E+03  0.41800000000E+01 0. -1.
        -11    1    1    2    0    0 -0.45860294258E+02 -0.84780420396E+02 -0.34888390613E+03  0.36195423223E+03  0.00000000000E+00 0.  1.
         11    1    1    2    0    0  0.11561411965E+02 -0.19263473244E+02 -0.11575298640E+02  0.25273210849E+02  0.00000000000E+00 0. -1.
</event>
<event>
 7    1  0.2728221E-009  0.1162395E+03  0.7561462E-02  0.1249433E+00
         -2   -1    0    0    0  501 -0.00000000000E+00  0.00000000000E+00  0.50504064049E+02  0.50504064049E+02  0.00000000000E+00 0.  1.
          2   -1    0    0  501    0  0.00000000000E+00 -0.00000000000E+00 -0.49837864117E+03  0.49837864117E+03  0.00000000000E+00 0. -1.
         25    2    1    2    0    0 -0.44287137622E+02 -0.10435014547E+03 -0.20189960050E+03  0.26317577495E+03  0.12509091263E+03 0.  0.
          5    1    3    3  502    0 -0.28236316443E+02 -0.64793721255E+02 -0.16260372280E+02  0.72645632952E+02  0.41800000000E+01 0.  1.
         -5    1    3    3    0  502 -0.16050821179E+02 -0.39556424213E+02 -0.18563922822E+03  0.19053014200E+03  0.41800000000E+01 0.  1.
        -11    1    1    2    0    0  0.78269143499E+01  0.63694877006E+02 -0.21174545480E+03  0.22125649273E+03  0.00000000000E+00 0. -1.
         11    1    1    2    0    0  0.36460223272E+02  0.40655268462E+02 -0.34229521820E+02  0.64450437538E+02  0.00000000000E+00 0.  1.
</event>
<event>
 7    1  0.2728221E-009  0.1058940E+03  0.7561462E-02  0.1268368E+00
         -1   -1    0    0    0  501 -0.00000000000E+00  0.00000000000E+00  0.12245343838E+03  0.12245343838E+03  0.00000000000E+00 0.  1.
          1   -1    0    0  501    0  0.00000000000E+00 -0.00000000000E+00 -0.13980205857E+03  0.13980205857E+03  0.00000000000E+00 0. -1.
         25    2    1    2    0    0 -0.22718353641E+02  0.70472478145E+02 -0.16854450427E+02  0.14634323756E+03  0.12509906839E+03 0.  0.
          5    1    3    3  502    0 -0.61718144514E+02  0.56372701397E+02  0.24927676657E+02  0.87326240550E+02  0.41800000000E+01 0. -1.
         -5    1    3    3    0  502  0.38999790873E+02  0.14099776748E+02 -0.41782127084E+02  0.59016997010E+02  0.41800000000E+01 0. -1.
        -11    1    1    2    0    0 -0.48256783979E+01 -0.54218001643E+02  0.37612209328E+02  0.66163110301E+02  0.00000000000E+00 0.  1.
         11    1    1    2    0    0  0.27544032039E+02 -0.16254476502E+02 -0.38106379091E+02  0.49749149086E+02  0.00000000000E+00 0. -1.
</event>
<event>
 7    1  0.2728221E-009  0.9767858E+02  0.7561462E-02  0.1285255E+00
          1   -1    0    0  501    0  0.00000000000E+00  0.00000000000E+00  0.31833977721E+02  0.31833977721E+02  0.00000000000E+00 0. -1.
         -1   -1    0    0    0  501 -0.00000000000E+00 -0.00000000000E+00 -0.53273221370E+03  0.53273221370E+03  0.00000000000E+00 0.  1.
         25    2    1    2    0    0  0.57076087933E+02  0.46239670151E+02 -0.24959950204E+03  0.28869230948E+03  0.12509017236E+03 0.  0.
          5    1    3    3  502    0  0.56855443757E+02  0.19591475003E+02 -0.29802152991E+02  0.67245877944E+02  0.41800000000E+01 0.  1.
         -5    1    3    3    0  502  0.22064417558E+00  0.26648195148E+02 -0.21979734905E+03  0.22144643153E+03  0.41800000000E+01 0.  1.
        -11    1    1    2    0    0 -0.49020956945E+01  0.21808757341E+02 -0.23321677409E+02  0.32304072129E+02  0.00000000000E+00 0. -1.
         11    1    1    2    0    0 -0.52173992238E+02 -0.68048427492E+02 -0.22797705653E+03  0.24356980982E+03  0.00000000000E+00 0.  1.
</event>
<event>
 7    1  0.2728221E-009  0.1353129E+03  0.7561462E-02  0.1219779E+00
         -2   -1    0    0    0  501 -0.00000000000E+00  0.00000000000E+00  0.10130805837E+03  0.10130805837E+03  0.00000000000E+00 0.  1.
          2   -1    0    0  501    0  0.00000000000E+00 -0.00000000000E+00 -0.25784569706E+03  0.25784569706E+03  0.00000000000E+00 0. -1.
         25    2    1    2    0    0 -0.59285591784E+02 -0.88701443184E+02 -0.24707141469E+02  0.16625558628E+03  0.12509096575E+03 0.  0.
          5    1    3    3  502    0 -0.46204466012E+02  0.16525986710E+02  0.17192861854E+02  0.52163472037E+02  0.41800000000E+01 0.  1.
         -5    1    3    3    0  502 -0.13081125772E+02 -0.10522742989E+03 -0.41900003323E+02  0.11409211424E+03  0.41800000000E+01 0.  1.
        -11    1    1    2    0    0 -0.57832723887E+01  0.19191741860E+02  0.97422506550E+01  0.22286333099E+02  0.00000000000E+00 0.  1.
         11    1    1    2    0    0  0.65068864172E+02  0.69509701323E+02 -0.14157274787E+03  0.17061183606E+03  0.00000000000E+00 0. -1.
</event>
<event>
 7    1  0.2728221E-009  0.1105230E+03  0.7561462E-02  0.1259604E+00
         -1   -1    0    0    0  501 -0.00000000000E+00  0.00000000000E+00  0.34773355406E+02  0.34773355406E+02  0.00000000000E+00 0.  1.
          1   -1    0    0  501    0  0.00000000000E+00 -0.00000000000E+00 -0.42014612789E+03  0.42014612789E+03  0.00000000000E+00 0. -1.
         25    2    1    2    0    0  0.33905986623E+02 -0.58994719981E+01 -0.29654893749E+03  0.32368265864E+03  0.12507906091E+03 0.  0.
          5    1    3    3  502    0 -0.11678205966E+02  0.51665118548E+02 -0.15993143510E+03  0.16852655964E+03  0.41800000000E+01 0. -1.
         -5    1    3    3    0  502  0.45584192590E+02 -0.57564590546E+02 -0.13661750239E+03  0.15515609900E+03  0.41800000000E+01 0. -1.
        -11    1    1    2    0    0 -0.64043020139E+02  0.42842939498E+01 -0.46523016728E+02  0.79273291143E+02  0.00000000000E+00 0.  1.
         11    1    1    2    0    0  0.30137033516E+02  0.16151780483E+01 -0.42300818270E+02  0.51963533517E+02  0.00000000000E+00 0. -1.
</event>
<event>
 7    1  0.2728221E-009  0.9507594E+02  0.7561462E-02  0.1291005E+00
         -4   -1    0    0    0  501 -0.00000000000E+00  0.00000000000E+00  0.38084305673E+03  0.38084305673E+03  0.00000000000E+00 0. -1.
          4   -1    0    0  501    0  0.00000000000E+00 -0.00000000000E+00 -0.37678146929E+02  0.37678146929E+02  0.00000000000E+00 0.  1.
         25    2    1    2    0    0  0.22063622708E+02 -0.46748888833E+02  0.17665788778E+03  0.22254927918E+03  0.12509160761E+03 0.  0.
          5    1    3    3  502    0 -0.37776185929E+02 -0.38849282016E+02  0.26103523815E+02  0.60292398294E+02  0.41800000000E+01 0. -1.
         -5    1    3    3    0  502  0.59839808637E+02 -0.78996068176E+01  0.15055436397E+03  0.16225688089E+03  0.41800000000E+01 0. -1.
        -11    1    1    2    0    0  0.14402596020E+02 -0.18714312479E+01 -0.39109110872E+01  0.15041019000E+02  0.00000000000E+00 0.  1.
         11    1    1    2    0    0 -0.36466218728E+02  0.48620320081E+02  0.17041793311E+03  0.18093090548E+03  0.00000000000E+00 0. -1.
</event>
<event>
 7    1  0.2728221E-009  0.1287667E+03  0.7561462E-02  0.1229297E+00
         -2   -1    0    0    0  501 -0.00000000000E+00  0.00000000000E+00  0.24812827871E+02  0.24812827871E+02  0.00000000000E+00 0.  1.
          2   -1    0    0  501    0  0.00000000000E+00 -0.00000000000E+00 -0.75314143319E+03  0.75314143319E+03  0.00000000000E+00 0. -1.
         25    2    1    2    0    0  0.71935017981E+02 -0.14707174991E+02 -0.49806041838E+03  0.51875324857E+03  0.12509917958E+03 0.  0.
          5    1    3    3  502    0  0.85954694970E+02  0.33341692769E+02 -0.36621402508E+03  0.37766395463E+03  0.41800000000E+01 0.  1.
         -5    1    3    3    0  502 -0.14019676989E+02 -0.48048867760E+02 -0.13184639330E+03  0.14108929393E+03  0.41800000000E+01 0.  1.
        -11    1    1    2    0    0 -0.79725869468E+02 -0.17716515508E+02 -0.12992573587E+03  0.15346265352E+03  0.00000000000E+00 0.  1.
         11    1    1    2    0    0  0.77908514870E+01  0.32423690499E+02 -0.10034245107E+03  0.10573835898E+03  0.00000000000E+00 0. -1.
</event>
<event>
 7    1  0.2728221E-009  0.3434489E+03  0.7561462E-02  0.1065336E+00
          2   -1    0    0  501    0  0.00000000000E+00  0.00000000000E+00  0.14913645818E+04  0.14913645818E+04  0.00000000000E+00 0. -1.
         -2   -1    0    0    0  501 -0.00000000000E+00 -0.00000000000E+00 -0.83250371324E+02  0.83250371324E+02  0.00000000000E+00 0.  1.
         25    2    1    2    0    0 -0.57047342309E+02 -0.33018671529E+03  0.72280890418E+03  0.80646044017E+03  0.12509221950E+03 0.  0.
          5    1    3    3  502    0 -0.59726770751E+02 -0.33241131179E+03  0.72558887662E+03  0.80035070915E+03  0.41800000000E+01 0.  1.
         -5    1    3    3    0  502  0.26794284416E+01  0.22245965074E+01 -0.27799724424E+01  0.61097310231E+01  0.41800000000E+01 0.  1.
        -11    1    1    2    0    0  0.55883292650E+02  0.10885075659E+03  0.19507882737E+03  0.23027630902E+03  0.00000000000E+00 0. -1.
         11    1    1    2    0    0  0.11640496592E+01  0.22133595869E+03  0.49022647889E+03  0.53787820390E+03  0.00000000000E+00 0.  1.
</event>
<event>
 7    1  0.2728221E-009  0.1015896E+03  0.7561462E-02  0.1276988E+00
          2   -1    0    0  501    0  0.00000000000E+00  0.00000000000E+00  0.35807476986E+03  0.35807476986E+03  0.00000000000E+00 0.  1.
         -2   -1    0    0    0  501 -0.00000000000E+00 -0.00000000000E+00 -0.69826940069E+02  0.69826940069E+02  0.00000000000E+00 0. -1.
         25    2    1    2    0    0 -0.59247162267E+02  0.35778902979E+02  0.27435918874E+03  0.30937128125E+03  0.12508904462E+03 0.  0.
          5    1    3    3  502    0  0.27076541593E+02 -0.17964085634E+01  0.15439769566E+03  0.15681991906E+03  0.41800000000E+01 0. -1.
         -5    1    3    3    0  502 -0.86323703860E+02  0.37575311543E+02  0.11996149308E+03  0.15255136219E+03  0.41800000000E+01 0. -1.
        -11    1    1    2    0    0  0.19174705744E+02 -0.36692270778E+02 -0.35770435053E+02  0.54713034088E+02  0.00000000000E+00 0. -1.
         11    1    1    2    0    0  0.40072456522E+02  0.91336779887E+00  0.49659076108E+02  0.63817394591E+02  0.00000000000E+00 0.  1.
</event>
<event>
 7    1  0.2728221E-009  0.1137379E+03  0.7561462E-02  0.1253800E+00
         -1   -1    0    0    0  501 -0.00000000000E+00  0.00000000000E+00  0.33413736417E+02  0.33413736417E+02  0.00000000000E+00 0.  1.
          1   -1    0    0  501    0  0.00000000000E+00 -0.00000000000E+00 -0.43905217897E+03  0.43905217897E+03  0.00000000000E+00 0. -1.
         25    2    1    2    0    0 -0.21407403633E+02  0.35628206082E+02 -0.30053822177E+03  0.32817335090E+03  0.12508748737E+03 0.  0.
          5    1    3    3  502    0  0.18792946239E+02 -0.40301308844E+02 -0.83152831929E+02  0.94388750287E+02  0.41800000000E+01 0.  1.
         -5    1    3    3    0  502 -0.40200349873E+02  0.75929514926E+02 -0.21738538984E+03  0.23378460061E+03  0.41800000000E+01 0.  1.
        -11    1    1    2    0    0  0.55703088537E+02 -0.21784335051E+02 -0.50142537632E+02  0.78049121753E+02  0.00000000000E+00 0.  1.
         11    1    1    2    0    0 -0.34295684904E+02 -0.13843871031E+02 -0.54957683151E+02  0.66243442735E+02  0.00000000000E+00 0. -1.
</event>
<event>
 7    1  0.2728221E-009  0.1335003E+03  0.7561462E-02  0.1222352E+00
         -2   -1    0    0    0  501 -0.00000000000E+00  0.00000000000E+00  0.25073488880E+03  0.25073488880E+03  0.00000000000E+00 0.  1.
          2   -1    0    0  501    0  0.00000000000E+00 -0.00000000000E+00 -0.74458666029E+02  0.74458666029E+02  0.00000000000E+00 0. -1.
         25    2    1    2    0    0  0.36781906696E+02  0.72368098231E+02  0.79945386655E+02  0.16920130624E+03  0.12509103439E+03 0.  0.
          5    1    3    3  502    0  0.77186572507E+02  0.75481041020E+02  0.63097085300E+02  0.12511542312E+03  0.41800000000E+01 0.  1.
         -5    1    3    3    0  502 -0.40404665810E+02 -0.31129427893E+01  0.16848301356E+02  0.44085883122E+02  0.41800000000E+01 0.  1.
        -11    1    1    2    0    0 -0.64507351842E+02 -0.59089140874E+02  0.88130123981E+02  0.12417585822E+03  0.00000000000E+00 0.  1.
         11    1    1    2    0    0  0.27725445145E+02 -0.13278957357E+02  0.82007121383E+01  0.31816390376E+02  0.00000000000E+00 0. -1.
</event>
<event>
 7    1  0.2728221E-009  0.9201168E+02  0.7561462E-02  0.1298052E+00
         -4   -1    0    0    0  501 -0.00000000000E+00  0.00000000000E+00  0.10719031859E+03  0.10719031859E+03  0.00000000000E+00 0.  1.
          4   -1    0    0  501    0  0.00000000000E+00 -0.00000000000E+00 -0.14424882211E+03  0.14424882211E+03  0.00000000000E+00 0. -1.
         25    2    1    2    0    0 -0.28448562106E+02  0.66541794284E+02 -0.15696319087E+02  0.14536281830E+03  0.12508734324E+03 0.  0.
          5    1    3    3  502    0  0.18591481149E+02  0.56490903762E+02 -0.56507280739E+02  0.82142623258E+02  0.41800000000E+01 0.  1.
         -5    1    3    3    0  502 -0.47040043256E+02  0.10050890522E+02  0.40810961652E+02  0.63220195039E+02  0.41800000000E+01 0.  1.
        -11    1    1    2    0    0  0.14389790718E+02 -0.91941962650E+01 -0.40543717129E+02  0.43993094009E+02  0.00000000000E+00 0. -1.
         11    1    1    2    0    0  0.14058771388E+02 -0.57347598019E+02  0.19181532697E+02  0.62083228396E+02  0.00000000000E+00 0.  1.
</event>
<event>
 7    1  0.2728221E-009  0.9320063E+02  0.7561462E-02  0.1295281E+00
         -1   -1    0    0    0  501 -0.00000000000E+00  0.00000000000E+00  0.71205061731E+02  0.71205061731E+02  0.00000000000E+00 0.  1.
          1   -1    0    0  501    0  0.00000000000E+00 -0.00000000000E+00 -0.19281411171E+03  0.19281411171E+03  0.00000000000E+00 0. -1.
         25    2    1    2    0    0  0.61264578786E+01  0.17023571420E+02 -0.20669723835E+02  0.12806993376E+03  0.12508930802E+03 0.  0.
          5    1    3    3  502    0 -0.46158526108E+02  0.34567303082E+02  0.18032870611E+02  0.60565376225E+02  0.41800000000E+01 0. -1.
         -5    1    3    3    0  502  0.52284983987E+02 -0.17543731662E+02 -0.38702594446E+02  0.67504557535E+02  0.41800000000E+01 0. -1.
        -11    1    1    2    0    0  0.32145948123E+02 -0.21633461683E+01 -0.63561052857E+01  0.32839642534E+02  0.00000000000E+00 0.  1.
         11    1    1    2    0    0 -0.38272406002E+02 -0.14860225252E+02 -0.94583220862E+02  0.10310959715E+03  0.00000000000E+00 0. -1.
</event>
<event>
 7    1  0.2728221E-009  0.1895237E+03  0.7561462E-02  0.1158892E+00
          2   -1    0    0  501    0  0.00000000000E+00  0.00000000000E+00  0.49643650004E+03  0.49643650004E+03  0.00000000000E+00 0. -1.
         -2   -1    0    0    0  501 -0.00000000000E+00 -0.00000000000E+00 -0.88641357183E+02  0.88641357183E+02  0.00000000000E+00 0.  1.
         25    2    1    2    0    0 -0.11012911040E+03 -0.12310779725E+03  0.31048909445E+03  0.37327538422E+03  0.12508830476E+03 0.  0.
          5    1    3    3  502    0  0.25823883801E+02 -0.36092409619E+02  0.84381455866E+02  0.95431847414E+02  0.41800000000E+01 0.  1.
         -5    1    3    3    0  502 -0.13595299420E+03 -0.87015387633E+02  0.22610763858E+03  0.27784353680E+03  0.41800000000E+01 0.  1.
        -11    1    1    2    0    0  0.63983120171E+02  0.10594725165E+03  0.28180449254E+02  0.12693619468E+03  0.00000000000E+00 0.  1.
         11    1    1    2    0    0  0.46145990226E+02  0.17160545601E+02  0.69125599151E+02  0.84866278328E+02  0.00000000000E+00 0. -1.
</event>
<event>
 7    1  0.2728221E-009  0.7862019E+02  0.7561462E-02  0.1333013E+00
         -1   -1    0    0    0  501 -0.00000000000E+00  0.00000000000E+00  0.70093341087E+02  0.70093341087E+02  0.00000000000E+00 0.  1.
          1   -1    0    0  501    0  0.00000000000E+00 -0.00000000000E+00 -0.21203562227E+03  0.21203562227E+03  0.00000000000E+00 0. -1.
         25    2    1    2    0    0  0.36826551949E+02  0.45013374591E+02 -0.79702803097E+02  0.15931981189E+03  0.12509143383E+03 0.  0.
          5    1    3    3  502    0  0.13567927873E+02  0.34253426555E+01 -0.10444871295E+03  0.10546481724E+03  0.41800000000E+01 0. -1.
         -5    1    3    3    0  502  0.23258624076E+02  0.41588031935E+02  0.24745909852E+02  0.53854994648E+02  0.41800000000E+01 0. -1.
        -11    1    1    2    0    0 -0.59294077908E+02 -0.40716838107E+02 -0.19809759905E+02  0.74606133581E+02  0.00000000000E+00 0.  1.
         11    1    1    2    0    0  0.22467525959E+02 -0.42965364834E+01 -0.42429718180E+02  0.48203017886E+02  0.00000000000E+00 0. -1.
</event>
<event>
 7    1  0.2728221E-009  0.1107294E+03  0.7561462E-02  0.1259225E+00
          2   -1    0    0  501    0  0.00000000000E+00  0.00000000000E+00  0.96936945611E+02  0.96936945611E+02  0.00000000000E+00 0. -1.
         -2   -1    0    0    0  501 -0.00000000000E+00 -0.00000000000E+00 -0.30061719542E+03  0.30061719542E+03  0.00000000000E+00 0.  1.
         25    2    1    2    0    0 -0.60054448886E+02  0.42406234948E+02 -0.23417532806E+03  0.27548281837E+03  0.12509145994E+03 0.  0.
          5    1    3    3  502    0 -0.23010695190E+02 -0.39036020148E+02 -0.13191147971E+03  0.13954000803E+03  0.41800000000E+01 0.  1.
         -5    1    3    3    0  502 -0.37043753696E+02  0.81442255096E+02 -0.10226384835E+03  0.13594281034E+03  0.41800000000E+01 0.  1.
        -11    1    1    2    0    0 -0.51181000034E+01 -0.14702495854E+02  0.46868813535E+02  0.49386678510E+02  0.00000000000E+00 0. -1.
         11    1    1    2    0    0  0.65172548889E+02 -0.27703739094E+02 -0.16373735286E+02  0.72684644153E+02  0.00000000000E+00 0.  1.
</event>
<event>
 7    1  0.2728221E-009  0.5974913E+02  0.7561462E-02  0.1398888E+00
         -2   -1    0    0    0  501 -0.00000000000E+00  0.00000000000E+00  0.38109710220E+02  0.38109710220E+02  0.00000000000E+00 0. -1.
          2   -1    0    0  501    0  0.00000000000E+00 -0.00000000000E+00 -0.32291096034E+03  0.32291096034E+03  0.00000000000E+00 0.  1.
         25    2    1    2    0    0  0.23687338414E+01 -0.15900816591E+02 -0.19329442664E+03  0.23079985833E+03  0.12508953740E+03 0.  0.
          5    1    3    3  502    0  0.35504556752E+02 -0.20065152960E+02 -0.19282989285E+03  0.19713960508E+03  0.41800000000E+01 0. -1.
         -5    1    3    3    0  502 -0.33135822911E+02  0.41643363695E+01 -0.46453379089E+00  0.33660253252E+02  0.41800000000E+01 0. -1.
        -11    1    1    2    0    0 -0.19538967406E+02  0.19163338813E+02 -0.10476686019E+03  0.10828249996E+03  0.00000000000E+00 0.  1.
         11    1    1    2    0    0  0.17170233565E+02 -0.32625222220E+01  0.13260036713E+02  0.21938312276E+02  0.00000000000E+00 0. -1.
</event>
<event>
 7    1  0.3150211E-009  0.1760745E+03  0.7561462E-02  0.1171657E+00
         -1   -1    0    0    0  501 -0.00000000000E+00  0.00000000000E+00  0.60927046212E+02  0.60927046212E+02  0.00000000000E+00 0.  1.
          1   -1    0    0  501    0  0.00000000000E+00 -0.00000000000E+00 -0.51269772655E+03  0.51269772655E+03  0.00000000000E+00 0. -1.
         25    2    1    2    0    0 -0.67241525491E+01 -0.13808825669E+03 -0.26146697388E+03  0.32113294624E+03  0.12509120620E+03 0.  0.
          5    1    3    3  502    0 -0.33293499976E+02 -0.15220725010E+03 -0.21305540911E+03  0.26398027176E+03  0.41800000000E+01 0. -1.
         -5    1    3    3    0  502  0.26569347427E+02  0.14118993412E+02 -0.48411564763E+02  0.57152674482E+02  0.41800000000E+01 0. -1.
        -11    1    1    2    0    0 -0.41854435366E+02  0.49035432958E+02 -0.71559525053E+02  0.96317356021E+02  0.00000000000E+00 0.  1.
         11    1    1    2    0    0  0.48578587915E+02  0.89052823730E+02 -0.11874418141E+03  0.15617447050E+03  0.00000000000E+00 0. -1.
</event>
<event>
 7    1  0.2728221E-009  0.1446743E+03  0.7561462E-02  0.1207174E+00
          2   -1    0    0  501    0  0.00000000000E+00  0.00000000000E+00  0.18905851354E+03  0.18905851354E+03  0.00000000000E+00 0. -1.
         -2   -1    0    0    0  501 -0.00000000000E+00 -0.00000000000E+00 -0.12453366081E+03  0.12453366081E+03  0.00000000000E+00 0.  1.
         25    2    1    2    0    0 -0.10504250480E+03  0.71232080793E+01  0.63234699266E+02  0.17530043385E+03  0.12508775723E+03 0.  0.
          5    1    3    3  502    0 -0.97238091938E+02  0.55803663032E+02  0.55680586389E+02  0.12524813544E+03  0.41800000000E+01 0.  1.
         -5    1    3    3    0  502 -0.78044128581E+01 -0.48680454953E+02  0.75541128773E+01  0.50052298407E+02  0.41800000000E+01 0.  1.
        -11    1    1    2    0    0  0.11609040929E+03 -0.91350216597E+01 -0.16134804630E+02  0.11756174407E+03  0.00000000000E+00 0.  1.
         11    1    1    2    0    0 -0.11047904492E+02  0.20118135804E+01  0.17424958093E+02  0.20729996432E+02  0.00000000000E+00 0. -1.
</event>
<event>
 7    1  0.2728221E-009  0.1239858E+03  0.7561462E-02  0.1236663E+00
          1   -1    0    0  501    0  0.00000000000E+00  0.00000000000E+00  0.40670707943E+03  0.40670707943E+03  0.00000000000E+00 0. -1.
         -1   -1    0    0    0  501 -0.00000000000E+00 -0.00000000000E+00 -0.51491289881E+02  0.51491289881E+02  0.00000000000E+00 0.  1.
         25    2    1    2    0    0  0.42990378188E+02 -0.64722090265E+02  0.27655262462E+03  0.31331512712E+03  0.12509153894E+03 0.  0.
          5    1    3    3  502    0  0.39208808875E+02 -0.10090922976E+03  0.18050562389E+03  0.21052257836E+03  0.41800000000E+01 0.  1.
         -5    1    3    3    0  502  0.37815693135E+01  0.36187139494E+02  0.96047000734E+02  0.10279254876E+03  0.41800000000E+01 0.  1.
        -11    1    1    2    0    0  0.38868638873E+01  0.54995571335E+02  0.79801144108E+02  0.96994036818E+02  0.00000000000E+00 0.  1.
         11    1    1    2    0    0 -0.46877242076E+02  0.97265189301E+01 -0.11379791724E+01  0.47889205378E+02  0.00000000000E+00 0. -1.
</event>
<event>
 7    1  0.2728221E-009  0.9863237E+02  0.7561462E-02  0.1283198E+00
         -1   -1    0    0    0  501 -0.00000000000E+00  0.00000000000E+00  0.28759488483E+02  0.28759488483E+02  0.00000000000E+00 0.  1.
          1   -1    0    0  501    0  0.00000000000E+00 -0.00000000000E+00 -0.62995773049E+03  0.62995773049E+03  0.00000000000E+00 0. -1.
         25    2    1    2    0    0  0.29870477894E+02  0.70827464072E+02 -0.27878808673E+03  0.31508584521E+03  0.12509003730E+03 0.  0.
          5    1    3    3  502    0  0.25302779179E+02  0.26617844877E+02 -0.45536819804E+01  0.37241760426E+02  0.41800000000E+01 0. -1.
         -5    1    3    3    0  502  0.45676987151E+01  0.44209619195E+02 -0.27423440475E+03  0.27784408478E+03  0.41800000000E+01 0. -1.
        -11    1    1    2    0    0  0.27864634380E+02 -0.53651908082E+01 -0.48965254020E+02  0.56593455653E+02  0.00000000000E+00 0.  1.
         11    1    1    2    0    0 -0.57735112273E+02 -0.65462273264E+02 -0.27344490126E+03  0.28703791811E+03  0.00000000000E+00 0. -1.
</event>
<event>
 7    1  0.2728221E-009  0.1503623E+03  0.7561462E-02  0.1200029E+00
         -1   -1    0    0    0  501 -0.00000000000E+00  0.00000000000E+00  0.15549548302E+03  0.15549548302E+03  0.00000000000E+00 0.  1.
          1   -1    0    0  501    0  0.00000000000E+00 -0.00000000000E+00 -0.35652011806E+03  0.35652011806E+03  0.00000000000E+00 0. -1.
         25    2    1    2    0    0 -0.96940485586E+02 -0.87465857348E+02 -0.28080786185E+03  0.33398889989E+03  0.12509115087E+03 0.  0.
          5    1    3    3  502    0 -0.12322885358E+02 -0.50947848346E+02 -0.18194619287E+02  0.55642190159E+02  0.41800000000E+01 0. -1.
         -5    1    3    3    0  502 -0.84617600228E+02 -0.36518009001E+02 -0.26261324256E+03  0.27834670973E+03  0.41800000000E+01 0. -1.
        -11    1    1    2    0    0  0.66907227569E+01  0.61655242063E+02  0.14502159855E+02  0.63690244820E+02  0.00000000000E+00 0. -1.
         11    1    1    2    0    0  0.90249762830E+02  0.25810615285E+02  0.65281066959E+02  0.11433645637E+03  0.00000000000E+00 0.  1.
</event>
<event>
 7    1  0.2728221E-009  0.2332598E+03  0.7561462E-02  0.1124366E+00
          1   -1    0    0  501    0  0.00000000000E+00  0.00000000000E+00  0.97055234937E+03  0.97055234937E+03  0.00000000000E+00 0. -1.
         -1   -1    0    0    0  501 -0.00000000000E+00 -0.00000000000E+00 -0.88054942201E+02  0.88054942201E+02  0.00000000000E+00 0.  1.
         25    2    1    2    0    0  0.19744617039E+03  0.89713297345E+02  0.74420879714E+03  0.78519326511E+03  0.12509302104E+03 0.  0.
          5    1    3    3  502    0  0.67212951619E+02  0.88885001623E+02  0.24372508291E+03  0.26802520930E+03  0.41800000000E+01 0.  1.
         -5    1    3    3    0  502  0.13023321877E+03  0.82829572230E+00  0.50048371423E+03  0.51716805582E+03  0.41800000000E+01 0.  1.
        -11    1    1    2    0    0 -0.26801307847E+02 -0.37795759681E+02 -0.21653782310E+01  0.46384463078E+02  0.00000000000E+00 0.  1.
         11    1    1    2    0    0 -0.17064486255E+03 -0.51917537664E+02  0.14045398826E+03  0.22702956338E+03  0.00000000000E+00 0. -1.
</event>
<event>
 7    1  0.2728221E-009  0.1515453E+03  0.7561462E-02  0.1198587E+00
         -1   -1    0    0    0  501 -0.00000000000E+00  0.00000000000E+00  0.80623027160E+02  0.80623027160E+02  0.00000000000E+00 0.  1.
          1   -1    0    0  501    0  0.00000000000E+00 -0.00000000000E+00 -0.33267010695E+03  0.33267010695E+03  0.00000000000E+00 0. -1.
         25    2    1    2    0    0  0.10363198332E+03  0.41816891024E+02 -0.20778035945E+03  0.26703677648E+03  0.12509085450E+03 0.  0.
          5    1    3    3  502    0  0.34992658323E+02 -0.42526012326E+02 -0.97795271043E+02  0.11231355795E+03  0.41800000000E+01 0.  1.
         -5    1    3    3    0  502  0.68639325001E+02  0.84342903350E+02 -0.10998508840E+03  0.15472321853E+03  0.41800000000E+01 0.  1.
        -11    1    1    2    0    0 -0.23456957045E+02  0.25282409828E+02 -0.64968656774E+01  0.35094705358E+02  0.00000000000E+00 0.  1.
         11    1    1    2    0    0 -0.80175026279E+02 -0.67099300852E+02 -0.37769854666E+02  0.11116165227E+03  0.00000000000E+00 0. -1.
</event>
<event>
 7    1  0.2728221E-009  0.1416470E+03  0.7561462E-02  0.1211130E+00
          2   -1    0    0  501    0  0.00000000000E+00  0.00000000000E+00  0.44221312565E+03  0.44221312565E+03  0.00000000000E+00 0. -1.
         -2   -1    0    0    0  501 -0.00000000000E+00 -0.00000000000E+00 -0.62534128122E+02  0.62534128122E+02  0.00000000000E+00 0.  1.
         25    2    1    2    0    0  0.35898482327E+01 -0.12173684051E+03  0.20395318015E+03  0.26846553852E+03  0.12507637800E+03 0.  0.
          5    1    3    3  502    0  0.37091291105E+02 -0.62848033021E+02  0.18357469398E+03  0.19759245886E+03  0.41800000000E+01 0. -1.
         -5    1    3    3    0  502 -0.33501442873E+02 -0.58888807488E+02  0.20378486177E+02  0.70873079662E+02  0.41800000000E+01 0. -1.
        -11    1    1    2    0    0 -0.35381811981E+02  0.34292959465E+02  0.16682153036E+02  0.52020898856E+02  0.00000000000E+00 0.  1.
         11    1    1    2    0    0  0.31791963748E+02  0.87443881044E+02  0.15904366434E+03  0.18426081639E+03  0.00000000000E+00 0. -1.
</event>
<event>
 7    1  0.2728221E-009  0.3071530E+03  0.7561462E-02  0.1081719E+00
         -2   -1    0    0    0  501 -0.00000000000E+00  0.00000000000E+00  0.34718914857E+03  0.34718914857E+03  0.00000000000E+00 0.  1.
          2   -1    0    0  501    0  0.00000000000E+00 -0.00000000000E+00 -0.30236820146E+03  0.30236820146E+03  0.00000000000E+00 0. -1.
         25    2    1    2    0    0 -0.22656836065E+03  0.20288534054E+03  0.13713087314E+00  0.32885505624E+03  0.12509974323E+03 0.  0.
          5    1    3    3  502    0 -0.91983859469E+02  0.82216624184E+02 -0.61390494834E+02  0.13786540157E+03  0.41800000000E+01 0.  1.
         -5    1    3    3    0  502 -0.13458450118E+03  0.12066871635E+03  0.61527625707E+02  0.19098965466E+03  0.41800000000E+01 0.  1.
        -11    1    1    2    0    0  0.13320046240E+03 -0.15740329525E+03  0.62205663469E+02  0.21537805159E+03  0.00000000000E+00 0.  1.
         11    1    1    2    0    0  0.93367898244E+02 -0.45482045292E+02 -0.17521847233E+02  0.10532424221E+03  0.00000000000E+00 0. -1.
</event>
<event>
 7    1  0.2728221E-009  0.2069212E+03  0.7561462E-02  0.1144028E+00
         -3   -1    0    0    0  501 -0.00000000000E+00  0.00000000000E+00  0.14264112942E+03  0.14264112942E+03  0.00000000000E+00 0.  1.
          3   -1    0    0  501    0  0.00000000000E+00 -0.00000000000E+00 -0.46050602160E+03  0.46050602160E+03  0.00000000000E+00 0. -1.
         25    2    1    2    0    0 -0.31714225784E+02  0.17553499876E+03  0.11065674542E+02  0.21814555302E+03  0.12508679084E+03 0.  0.
          5    1    3    3  502    0 -0.76759160661E+02  0.80466811406E+02 -0.61944897879E+01  0.11145725901E+03  0.41800000000E+01 0.  1.
         -5    1    3    3    0  502  0.45044934877E+02  0.95068187353E+02  0.17260164330E+02  0.10668829400E+03  0.41800000000E+01 0.  1.
        -11    1    1    2    0    0  0.57726991234E+02 -0.15041779642E+03 -0.29081674834E+03  0.33246398318E+03  0.00000000000E+00 0. -1.
         11    1    1    2    0    0 -0.26012765450E+02 -0.25117202336E+02 -0.38113818391E+02  0.52537614828E+02  0.00000000000E+00 0.  1.
</event>
<event>
 7    1  0.2728221E-009  0.9533972E+02  0.7561462E-02  0.1290413E+00
         -1   -1    0    0    0  501 -0.00000000000E+00  0.00000000000E+00  0.12239526882E+02  0.12239526882E+02  0.00000000000E+00 0.  1.
          1   -1    0    0  501    0  0.00000000000E+00 -0.00000000000E+00 -0.11780111176E+04  0.11780111176E+04  0.00000000000E+00 0. -1.
         25    2    1    2    0    0  0.25266995433E+02 -0.28664382032E+02 -0.80197582366E+03  0.81257085146E+03  0.12508436775E+03 0.  0.
          5    1    3    3  502    0 -0.15742219247E+02  0.24105909298E+02 -0.57965327980E+03  0.58038289905E+03  0.41800000000E+01 0. -1.
         -5    1    3    3    0  502  0.41009214680E+02 -0.52770291330E+02 -0.22232254385E+03  0.23218795240E+03  0.41800000000E+01 0. -1.
        -11    1    1    2    0    0  0.29682858818E+02  0.26244799359E+02 -0.22354511848E+03  0.22702925273E+03  0.00000000000E+00 0. -1.
         11    1    1    2    0    0 -0.54949854251E+02  0.24195826726E+01 -0.14025064863E+03  0.15065054033E+03  0.00000000000E+00 0.  1.
</event>
<event>
 7    1  0.2728221E-009  0.1144239E+03  0.7561462E-02  0.1252590E+00
          2   -1    0    0  501    0  0.00000000000E+00  0.00000000000E+00  0.43267406705E+03  0.43267406705E+03  0.00000000000E+00 0. -1.
         -2   -1    0    0    0  501 -0.00000000000E+00 -0.00000000000E+00 -0.31118110743E+02  0.31118110743E+02  0.00000000000E+00 0.  1.
         25    2    1    2    0    0 -0.75369294677E+01 -0.39856906213E+02  0.25245581838E+03  0.28465152641E+03  0.12508866045E+03 0.  0.
          5    1    3    3  502    0 -0.52439594997E+02  0.18563285134E+02  0.85215281704E+02  0.10185098583E+03  0.41800000000E+01 0. -1.
         -5    1    3    3    0  502  0.44902665529E+02 -0.58420191347E+02  0.16724053668E+03  0.18280054058E+03  0.41800000000E+01 0. -1.
        -11    1    1    2    0    0 -0.14861111742E+02 -0.25863480687E+02  0.42532571626E+02  0.51949898215E+02  0.00000000000E+00 0.  1.
         11    1    1    2    0    0  0.22398041210E+02  0.65720386899E+02  0.10656756629E+03  0.12719075316E+03  0.00000000000E+00 0. -1.
</event>
<event>
 7    1  0.2728221E-009  0.9881028E+02  0.7561462E-02  0.1282818E+00
         -2   -1    0    0    0  501 -0.00000000000E+00  0.00000000000E+00  0.15951048236E+02  0.15951048236E+02  0.00000000000E+00 0.  1.
          2   -1    0    0  501    0  0.00000000000E+00 -0.00000000000E+00 -0.87396441668E+03  0.87396441668E+03  0.00000000000E+00 0. -1.
         25    2    1    2    0    0  0.24829126451E+02  0.20369106470E+02 -0.61592639516E+03  0.62932137599E+03  0.12509470015E+03 0.  0.
          5    1    3    3  502    0  0.10642856126E+02 -0.47209877673E+02 -0.39076302625E+03  0.39377056521E+03  0.41800000000E+01 0.  1.
         -5    1    3    3    0  502  0.14186270325E+02  0.67578984143E+02 -0.22516336891E+03  0.23555081078E+03  0.41800000000E+01 0.  1.
        -11    1    1    2    0    0  0.22860088535E+02 -0.22573789667E+02 -0.32730116479E+02  0.45863058691E+02  0.00000000000E+00 0. -1.
         11    1    1    2    0    0 -0.47689214986E+02  0.22046831964E+01 -0.20935685680E+03  0.21473103023E+03  0.00000000000E+00 0.  1.
</event>
<event>
 7    1  0.2728221E-009  0.8329171E+02  0.7561462E-02  0.1319961E+00
          2   -1    0    0  501    0  0.00000000000E+00  0.00000000000E+00  0.21305822756E+03  0.21305822756E+03  0.00000000000E+00 0. -1.
         -2   -1    0    0    0  501 -0.00000000000E+00 -0.00000000000E+00 -0.85975862027E+02  0.85975862027E+02  0.00000000000E+00 0.  1.
         25    2    1    2    0    0  0.18227028548E+01  0.10637452249E+02 -0.18028799474E+02  0.12683116574E+03  0.12507849278E+03 0.  0.
          5    1    3    3  502    0 -0.24412759982E+02  0.38159397200E+02 -0.56527379287E+02  0.72559902520E+02  0.41800000000E+01 0.  1.
         -5    1    3    3    0  502  0.26235462837E+02 -0.27521944950E+02  0.38498579813E+02  0.54271263223E+02  0.41800000000E+01 0.  1.
        -11    1    1    2    0    0  0.37349949672E+02  0.98566595364E+01  0.10725748668E+03  0.11400149528E+03  0.00000000000E+00 0.  1.
         11    1    1    2    0    0 -0.39172652527E+02 -0.20494111786E+02  0.37853678328E+02  0.58201428564E+02  0.00000000000E+00 0. -1.
</event>
<event>
 7    1  0.2728221E-009  0.9728974E+02  0.7561462E-02  0.1286101E+00
         -1   -1    0    0    0  501 -0.00000000000E+00  0.00000000000E+00  0.28892919651E+03  0.28892919651E+03  0.00000000000E+00 0.  1.
          1   -1    0    0  501    0  0.00000000000E+00 -0.00000000000E+00 -0.77317611585E+02  0.77317611585E+02  0.00000000000E+00 0. -1.
         25    2    1    2    0    0 -0.62862030619E+02  0.29102584343E+02  0.20865782624E+02  0.14450206580E+03  0.12508745272E+03 0.  0.
          5    1    3    3  502    0 -0.69939576868E+02  0.35949941716E+02 -0.36036532053E+02  0.86602810371E+02  0.41800000000E+01 0. -1.
         -5    1    3    3    0  502  0.70775462482E+01 -0.68473573724E+01  0.56902314676E+02  0.57899255431E+02  0.41800000000E+01 0. -1.
        -11    1    1    2    0    0 -0.51978632872E+01  0.20349885678E+02  0.11998231609E+02  0.24188699667E+02  0.00000000000E+00 0.  1.
         11    1    1    2    0    0  0.68059893907E+02 -0.49452470021E+02  0.17874757069E+03  0.19755604263E+03  0.00000000000E+00 0. -1.
</event>
<event>
 7    1  0.2728221E-009  0.1228879E+03  0.7561462E-02  0.1238407E+00
          1   -1    0    0  501    0  0.00000000000E+00  0.00000000000E+00  0.22401198454E+03  0.22401198454E+03  0.00000000000E+00 0. -1.
         -1   -1    0    0    0  501 -0.00000000000E+00 -0.00000000000E+00 -0.14228310372E+03  0.14228310372E+03  0.00000000000E+00 0.  1.
         25    2    1    2    0    0 -0.93122890163E+02 -0.21631472478E+02  0.15025649889E+03  0.21763327580E+03  0.12508970383E+03 0.  0.
          5    1    3    3  502    0 -0.83335992527E+01 -0.51792247417E+02  0.10354994547E+03  0.11615485085E+03  0.41800000000E+01 0.  1.
         -5    1    3    3    0  502 -0.84789290911E+02  0.30160774940E+02  0.46706553419E+02  0.10147842495E+03  0.41800000000E+01 0.  1.
        -11    1    1    2    0    0  0.77169623304E+02  0.32523634825E+02 -0.87829126856E+02  0.12135441116E+03  0.00000000000E+00 0.  1.
         11    1    1    2    0    0  0.15953266860E+02 -0.10892162348E+02  0.19301508789E+02  0.27307401298E+02  0.00000000000E+00 0. -1.
</event>
<event>
 7    1  0.2728221E-009  0.2057915E+03  0.7561462E-02  0.1144943E+00
         -2   -1    0    0    0  501 -0.00000000000E+00  0.00000000000E+00  0.41287894564E+03  0.41287894564E+03  0.00000000000E+00 0.  1.
          2   -1    0    0  501    0  0.00000000000E+00 -0.00000000000E+00 -0.11302110288E+03  0.11302110288E+03  0.00000000000E+00 0. -1.
         25    2    1    2    0    0 -0.18222607111E+03 -0.32128043351E+02  0.19543648757E+03  0.29677429756E+03  0.12506402702E+03 0.  0.
          5    1    3    3  502    0 -0.16576109060E+03  0.64572396852E+01  0.19302286910E+03  0.25454613629E+03  0.41800000000E+01 0. -1.
         -5    1    3    3    0  502 -0.16464980513E+02 -0.38585283036E+02  0.24136184680E+01  0.42228161272E+02  0.41800000000E+01 0. -1.
        -11    1    1    2    0    0  0.62880588002E+02 -0.29170437928E+02  0.42965530145E+02  0.81553170245E+02  0.00000000000E+00 0.  1.
         11    1    1    2    0    0  0.11934548311E+03  0.61298481280E+02  0.61455825051E+02  0.14757258072E+03  0.00000000000E+00 0. -1.
</event>
<event>
 7    1  0.2728221E-009  0.9398912E+02  0.7561462E-02  0.1293469E+00
         -2   -1    0    0    0  501 -0.00000000000E+00  0.00000000000E+00  0.11684799001E+03  0.11684799001E+03  0.00000000000E+00 0.  1.
          2   -1    0    0  501    0  0.00000000000E+00 -0.00000000000E+00 -0.12097547426E+03  0.12097547426E+03  0.00000000000E+00 0. -1.
         25    2    1    2    0    0  0.34364255197E+02  0.89470368486E+01 -0.36153464376E+02  0.13496468022E+03  0.12508972946E+03 0.  0.
          5    1    3    3  502    0  0.58751626257E+02  0.21485187335E+02 -0.68160580033E+02  0.92610495804E+02  0.41800000000E+01 0. -1.
         -5    1    3    3    0  502 -0.24387371060E+02 -0.12538150487E+02  0.32007115657E+02  0.42354184416E+02  0.41800000000E+01 0. -1.
        -11    1    1    2    0    0 -0.40439798166E+02  0.34815003771E+02  0.20808253082E+02  0.57275170533E+02  0.00000000000E+00 0. -1.
         11    1    1    2    0    0  0.60755429688E+01 -0.43762040619E+02  0.11217727048E+02  0.45583613521E+02  0.00000000000E+00 0.  1.
</event>
<event>
 7    1  0.3677645E-009  0.1268329E+03  0.7561462E-02  0.1232232E+00
          3   -1    0    0  501    0  0.00000000000E+00  0.00000000000E+00  0.11856899859E+03  0.11856899859E+03  0.00000000000E+00 0. -1.
         -3   -1    0    0    0  501 -0.00000000000E+00 -0.00000000000E+00 -0.21583936156E+03  0.21583936156E+03  0.00000000000E+00 0.  1.
         25    2    1    2    0    0 -0.96602947091E+02  0.27576597816E+02 -0.11495292872E+03  0.19736670444E+03  0.12508733775E+03 0.  0.
          5    1    3    3  502    0 -0.87967185823E+02  0.53607536458E+02 -0.29077580822E+02  0.10712129505E+03  0.41800000000E+01 0. -1.
         -5    1    3    3    0  502 -0.86357612678E+01 -0.26030938641E+02 -0.85875347901E+02  0.90245409392E+02  0.41800000000E+01 0. -1.
        -11    1    1    2    0    0  0.34701677445E+02  0.24048716136E+02  0.34713192132E+02  0.54658511444E+02  0.00000000000E+00 0. -1.
         11    1    1    2    0    0  0.61901269646E+02 -0.51625313952E+02 -0.17030626376E+02  0.82383144266E+02  0.00000000000E+00 0.  1.
</event>
<event>
 7    1  0.2728221E-009  0.1787973E+03  0.7561462E-02  0.1168972E+00
         -1   -1    0    0    0  501 -0.00000000000E+00  0.00000000000E+00  0.30273301029E+02  0.30273301029E+02  0.00000000000E+00 0.  1.
          1   -1    0    0  501    0  0.00000000000E+00 -0.00000000000E+00 -0.12796488771E+04  0.12796488771E+04  0.00000000000E+00 0. -1.
         25    2    1    2    0    0  0.15538440480E+03  0.32819185149E+02 -0.78169803215E+03  0.80741558271E+03  0.12508676015E+03 0.  0.
          5    1    3    3  502    0  0.37986599919E+02  0.66152084046E+02 -0.37847148314E+03  0.38610518767E+03  0.41800000000E+01 0. -1.
         -5    1    3    3    0  502  0.11739780488E+03 -0.33332898897E+02 -0.40322654901E+03  0.42131039504E+03  0.41800000000E+01 0. -1.
        -11    1    1    2    0    0 -0.10178944842E+03 -0.16937603080E+02 -0.40754500567E+03  0.42040564441E+03  0.00000000000E+00 0. -1.
         11    1    1    2    0    0 -0.53594956380E+02 -0.15881582069E+02 -0.60132538211E+02  0.82100950970E+02  0.00000000000E+00 0.  1.
</event>
<event>
 7    1  0.2728221E-009  0.3853440E+03  0.7561462E-02  0.1048976E+00
         -1   -1    0    0    0  501 -0.00000000000E+00  0.00000000000E+00  0.71318880300E+02  0.71318880300E+02  0.00000000000E+00 0.  1.
          1   -1    0    0  501    0  0.00000000000E+00 -0.00000000000E+00 -0.21441713735E+04  0.21441713735E+04  0.00000000000E+00 0. -1.
         25    2    1    2    0    0 -0.55320132766E+02 -0.36722670694E+03 -0.12062993685E+04  0.12683536472E+04  0.12508811544E+03 0.  0.
          5    1    3    3  502    0  0.24591842431E+02 -0.21557370063E+03 -0.58998427053E+03  0.62863001121E+03  0.41800000000E+01 0.  1.
         -5    1    3    3    0  502 -0.79911975198E+02 -0.15165300631E+03 -0.61631509798E+03  0.63972363604E+03  0.41800000000E+01 0.  1.
        -11    1    1    2    0    0  0.64913209736E+02  0.13515070164E+03 -0.35026211226E+03  0.38100260398E+03  0.00000000000E+00 0.  1.
         11    1    1    2    0    0 -0.95930769700E+01  0.23207600530E+03 -0.51629101242E+03  0.56613400258E+03  0.00000000000E+00 0. -1.
</event>
<event>
 7    1  0.2728221E-009  0.1136302E+03  0.7561462E-02  0.1253991E+00
          2   -1    0    0  501    0  0.00000000000E+00  0.00000000000E+00  0.36267897784E+03  0.36267897784E+03  0.00000000000E+00 0. -1.
         -2   -1    0    0    0  501 -0.00000000000E+00 -0.00000000000E+00 -0.36754127962E+02  0.36754127962E+02  0.00000000000E+00 0.  1.
         25    2    1    2    0    0 -0.19461937606E+02  0.20043491238E+02  0.21375621172E+03  0.24923853048E+03  0.12509044116E+03 0.  0.
          5    1    3    3  502    0  0.24711789127E+02 -0.43690312760E+02  0.89949855488E+02  0.10309202129E+03  0.41800000000E+01 0.  1.
         -5    1    3    3    0  502 -0.44173726733E+02  0.63733803998E+02  0.12380635623E+03  0.14614650919E+03  0.41800000000E+01 0.  1.
        -11    1    1    2    0    0 -0.23795677427E+02 -0.43826061215E+02  0.64914752948E+02  0.81858921665E+02  0.00000000000E+00 0. -1.
         11    1    1    2    0    0  0.43257615033E+02  0.23782569977E+02  0.47253885204E+02  0.68335653651E+02  0.00000000000E+00 0.  1.
</event>
<event>
 7    1  0.2728221E-009  0.9677399E+02  0.7561462E-02  0.1287230E+00
          2   -1    0    0  501    0  0.00000000000E+00  0.00000000000E+00  0.14501031810E+03  0.14501031810E+03  0.00000000000E+00 0. -1.
         -2   -1    0    0    0  501 -0.00000000000E+00 -0.00000000000E+00 -0.12969201936E+03  0.12969201936E+03  0.00000000000E+00 0.  1.
         25    2    1    2    0    0  0.35902734438E+02 -0.63587939002E+02  0.48883280866E+02  0.15287363357E+03  0.12509332663E+03 0.  0.
          5    1    3    3  502    0  0.56331013594E+02 -0.70821427426E+02 -0.88940678343E+01  0.91024362222E+02  0.41800000000E+01 0. -1.
         -5    1    3    3    0  502 -0.20428279156E+02  0.72334884242E+01  0.57777348700E+02  0.61849271353E+02  0.41800000000E+01 0. -1.
        -11    1    1    2    0    0 -0.14904188312E+01  0.37941339311E+02  0.27718462913E+02  0.47011485440E+02  0.00000000000E+00 0. -1.
         11    1    1    2    0    0 -0.34412315607E+02  0.25646599691E+02 -0.61283445040E+02  0.74817218453E+02  0.00000000000E+00 0.  1.
</event>
<event>
 7    1  0.3300199E-009  0.1302576E+03  0.7561462E-02  0.1227074E+00
         -2   -1    0    0    0  501 -0.00000000000E+00  0.00000000000E+00  0.72345232343E+02  0.72345232343E+02  0.00000000000E+00 0.  1.
          2   -1    0    0  501    0  0.00000000000E+00 -0.00000000000E+00 -0.37978374138E+03  0.37978374138E+03  0.00000000000E+00 0. -1.
         25    2    1    2    0    0  0.63120320647E+02 -0.77362022958E+02 -0.26591103625E+03  0.31036209490E+03  0.12508754243E+03 0.  0.
          5    1    3    3  502    0  0.35934042198E+02  0.81660022841E+01 -0.18744524721E+03  0.19107886352E+03  0.41800000000E+01 0.  1.
         -5    1    3    3    0  502  0.27186278449E+02 -0.85528025242E+02 -0.78465789043E+02  0.11928323138E+03  0.41800000000E+01 0.  1.
        -11    1    1    2    0    0 -0.73219836198E+02  0.20781734692E+02 -0.35478978252E+02  0.83974893912E+02  0.00000000000E+00 0. -1.
         11    1    1    2    0    0  0.10099515551E+02  0.56580288265E+02 -0.60484945336E+01  0.57791984917E+02  0.00000000000E+00 0.  1.
</event>
<event>
 7    1  0.2728221E-009  0.1534833E+03  0.7561462E-02  0.1196257E+00
          1   -1    0    0  501    0  0.00000000000E+00  0.00000000000E+00  0.13886684071E+03  0.13886684071E+03  0.00000000000E+00 0. -1.
         -1   -1    0    0    0  501 -0.00000000000E+00 -0.00000000000E+00 -0.36642138187E+03  0.36642138187E+03  0.00000000000E+00 0.  1.
         25    2    1    2    0    0  0.75293617750E+02 -0.11099345851E+03  0.44827087848E+02  0.18880272860E+03  0.12509326846E+03 0.  0.
          5    1    3    3  502    0  0.25108348484E+02 -0.92375668604E+02 -0.26604417558E+02  0.99443253905E+02  0.41800000000E+01 0.  1.
         -5    1    3    3    0  502  0.50185269266E+02 -0.18617789906E+02  0.71431505406E+02  0.89359474690E+02  0.41800000000E+01 0.  1.
        -11    1    1    2    0    0 -0.63086776634E+02  0.20778224764E+02 -0.14917602343E+03  0.16329470896E+03  0.00000000000E+00 0.  1.
         11    1    1    2    0    0 -0.12206841116E+02  0.90215233746E+02 -0.12320560558E+03  0.15319078503E+03  0.00000000000E+00 0. -1.
</event>
<event>
 7    1  0.2728221E-009  0.1073203E+03  0.7561462E-02  0.1265614E+00
          2   -1    0    0  501    0  0.00000000000E+00  0.00000000000E+00  0.47453120299E+03  0.47453120299E+03  0.00000000000E+00 0. -1.
         -2   -1    0    0    0  501 -0.00000000000E+00 -0.00000000000E+00 -0.30623760430E+02  0.30623760430E+02  0.00000000000E+00 0.  1.
         25    2    1    2    0    0  0.45175915433E+02 -0.27199343231E+02  0.25950848929E+03  0.29286994347E+03  0.12508988837E+03 0.  0.
          5    1    3    3  502    0  0.82241830021E+02 -0.45008299779E+02  0.19210577202E+03  0.21380263258E+03  0.41800000000E+01 0.  1.
         -5    1    3    3    0  502 -0.37065914588E+02  0.17808956547E+02  0.67402717262E+02  0.79067310893E+02  0.41800000000E+01 0.  1.
        -11    1    1    2    0    0 -0.66781677236E+01 -0.18522911325E+02  0.13631999047E+01  0.19737134596E+02  0.00000000000E+00 0.  1.
         11    1    1    2    0    0 -0.38497747709E+02  0.45722254556E+02  0.18303575337E+03  0.19254788535E+03  0.00000000000E+00 0. -1.
</event>
<event>
 7    1  0.2728221E-009  0.1674086E+03  0.7561462E-02  0.1180577E+00
          2   -1    0    0  501    0  0.00000000000E+00  0.00000000000E+00  0.91644941426E+03  0.91644941426E+03  0.00000000000E+00 0. -1.
         -2   -1    0    0    0  501 -0.00000000000E+00 -0.00000000000E+00 -0.43683484496E+02  0.43683484496E+02  0.00000000000E+00 0.  1.
         25    2    1    2    0    0  0.12762868198E+03  0.68608351125E+02  0.25132533897E+03  0.31592688808E+03  0.12509670777E+03 0.  0.
          5    1    3    3  502    0  0.72972034306E+02 -0.23260503532E+02  0.15051339182E+03  0.16893111713E+03  0.41800000000E+01 0.  1.
         -5    1    3    3    0  502  0.54656647675E+02  0.91868854656E+02  0.10081194714E+03  0.14699577095E+03  0.41800000000E+01 0.  1.
        -11    1    1    2    0    0 -0.23302955248E+02 -0.33996404441E+02  0.64658613347E+02  0.76678025002E+02  0.00000000000E+00 0.  1.
         11    1    1    2    0    0 -0.10432572673E+03 -0.34611946684E+02  0.55678197746E+03  0.56752798568E+03  0.00000000000E+00 0. -1.
</event>
<event>
 7    1  0.2728221E-009  0.9250508E+02  0.7561462E-02  0.1296896E+00
         -2   -1    0    0    0  501 -0.00000000000E+00  0.00000000000E+00  0.13030815431E+03  0.13030815431E+03  0.00000000000E+00 0.  1.
          2   -1    0    0  501    0  0.00000000000E+00 -0.00000000000E+00 -0.19407894565E+03  0.19407894565E+03  0.00000000000E+00 0. -1.
         25    2    1    2    0    0  0.16583622278E+02  0.42757440601E+02 -0.14726996395E+03  0.19859560878E+03  0.12509419766E+03 0.  0.
          5    1    3    3  502    0  0.29711136977E+01 -0.31792210935E+02 -0.10887790229E+03  0.11354048705E+03  0.41800000000E+01 0.  1.
         -5    1    3    3    0  502  0.13612508580E+02  0.74549651536E+02 -0.38392061668E+02  0.85055121733E+02  0.41800000000E+01 0.  1.
        -11    1    1    2    0    0 -0.30201273793E+02 -0.52221741016E+02  0.89689777772E+02  0.10809016334E+03  0.00000000000E+00 0.  1.
         11    1    1    2    0    0  0.13617651515E+02  0.94643004153E+01 -0.61906051552E+01  0.17701327841E+02  0.00000000000E+00 0. -1.
</event>
<event>
 7    1  0.2728221E-009  0.1355086E+03  0.7561462E-02  0.1219504E+00
          1   -1    0    0  501    0  0.00000000000E+00  0.00000000000E+00  0.98691557416E+02  0.98691557416E+02  0.00000000000E+00 0. -1.
         -1   -1    0    0    0  501 -0.00000000000E+00 -0.00000000000E+00 -0.20149285538E+03  0.20149285538E+03  0.00000000000E+00 0.  1.
         25    2    1    2    0    0  0.83009341030E+02 -0.32247958159E+02 -0.71981192988E+02  0.16959472912E+03  0.12510235209E+03 0.  0.
          5    1    3    3  502    0 -0.21803412678E+02 -0.42705332334E+02 -0.23633434311E+02  0.53620386342E+02  0.41800000000E+01 0.  1.
         -5    1    3    3    0  502  0.10481275371E+03  0.10457374174E+02 -0.48347758677E+02  0.11597434278E+03  0.41800000000E+01 0.  1.
        -11    1    1    2    0    0 -0.34121293048E+02  0.54067277747E+02 -0.41196594030E+02  0.76057166145E+02  0.00000000000E+00 0.  1.
         11    1    1    2    0    0 -0.48888047981E+02 -0.21819319588E+02  0.10376489056E+02  0.54532517527E+02  0.00000000000E+00 0. -1.
</event>
<event>
 7    1  0.2728221E-009  0.1000928E+03  0.7561462E-02  0.1280101E+00
          1   -1    0    0  501    0  0.00000000000E+00  0.00000000000E+00  0.91677776555E+02  0.91677776555E+02  0.00000000000E+00 0. -1.
         -1   -1    0    0    0  501 -0.00000000000E+00 -0.00000000000E+00 -0.16188094106E+03  0.16188094106E+03  0.00000000000E+00 0.  1.
         25    2    1    2    0    0 -0.18325039038E+02 -0.14037361191E+02 -0.93117485604E+02  0.15764941577E+03  0.12509843166E+03 0.  0.
          5    1    3    3  502    0  0.22642084526E+02 -0.58194417311E+02 -0.67534787498E+02  0.92074285880E+02  0.41800000000E+01 0.  1.
         -5    1    3    3    0  502 -0.40967123564E+02  0.44157056120E+02 -0.25582698106E+02  0.65575129894E+02  0.41800000000E+01 0.  1.
        -11    1    1    2    0    0  0.44068434163E+02  0.23318401692E+02 -0.12260881545E+02  0.51343003061E+02  0.00000000000E+00 0.  1.
         11    1    1    2    0    0 -0.25743395125E+02 -0.92810405008E+01  0.35175202648E+02  0.44566298777E+02  0.00000000000E+00 0. -1.
</event>
<event>
 7    1  0.2728221E-009  0.4144931E+03  0.7561462E-02  0.1038874E+00
         -2   -1    0    0    0  501 -0.00000000000E+00  0.00000000000E+00  0.16307944111E+03  0.16307944111E+03  0.00000000000E+00 0.  1.
          2   -1    0    0  501    0  0.00000000000E+00 -0.00000000000E+00 -0.12368735678E+04  0.12368735678E+04  0.00000000000E+00 0. -1.
         25    2    1    2    0    0 -0.12450141804E+03  0.39164352251E+03 -0.76695767401E+03  0.87906585083E+03  0.12508974601E+03 0.  0.
          5    1    3    3  502    0 -0.12966365660E+02  0.72074291796E+02 -0.25485068440E+03  0.26519648172E+03  0.41800000000E+01 0.  1.
         -5    1    3    3    0  502 -0.11153505238E+03  0.31956923072E+03 -0.51210698961E+03  0.61386936912E+03  0.41800000000E+01 0.  1.
        -11    1    1    2    0    0  0.11043229295E+03 -0.23273794948E+03 -0.22273704621E+03  0.34054960903E+03  0.00000000000E+00 0. -1.
         11    1    1    2    0    0  0.14069125090E+02 -0.15890557303E+03 -0.84099406446E+02  0.18033754902E+03  0.00000000000E+00 0.  1.
</event>
<event>
 7    1  0.2728221E-009  0.2149084E+03  0.7561462E-02  0.1137737E+00
          2   -1    0    0  501    0  0.00000000000E+00  0.00000000000E+00  0.11273200474E+03  0.11273200474E+03  0.00000000000E+00 0. -1.
         -2   -1    0    0    0  501 -0.00000000000E+00 -0.00000000000E+00 -0.57006536705E+03  0.57006536705E+03  0.00000000000E+00 0.  1.
         25    2    1    2    0    0  0.15842205912E+03 -0.11705699552E+03 -0.39256575988E+03  0.45667818126E+03  0.12508875406E+03 0.  0.
          5    1    3    3  502    0 -0.68591714986E+01  0.17297339057E+02 -0.46972266181E+02  0.50696275625E+02  0.41800000000E+01 0. -1.
         -5    1    3    3    0  502  0.16528123062E+03 -0.13435433457E+03 -0.34559349370E+03  0.40598190563E+03  0.41800000000E+01 0. -1.
        -11    1    1    2    0    0 -0.52352216946E+02  0.48805871076E+02 -0.69683099097E+02  0.99892452019E+02  0.00000000000E+00 0.  1.
         11    1    1    2    0    0 -0.10606984217E+03  0.68251124441E+02  0.49154966667E+01  0.12622673851E+03  0.00000000000E+00 0. -1.
</event>
<event>
 7    1  0.2728221E-009  0.1524327E+03  0.7561462E-02  0.1197515E+00
         -1   -1    0    0    0  501 -0.00000000000E+00  0.00000000000E+00  0.40171702717E+03  0.40171702717E+03  0.00000000000E+00 0.  1.
          1   -1    0    0  501    0  0.00000000000E+00 -0.00000000000E+00 -0.76803755320E+02  0.76803755320E+02  0.00000000000E+00 0. -1.
         25    2    1    2    0    0 -0.26255144077E+02  0.12112383052E+03  0.25438525249E+03  0.30938556546E+03  0.12508899440E+03 0.  0.
          5    1    3    3  502    0  0.42912927419E+02  0.90100443254E+01  0.70930148697E+02  0.83494063458E+02  0.41800000000E+01 0.  1.
         -5    1    3    3    0  502 -0.69168071496E+02  0.11211378620E+03  0.18345510380E+03  0.22589150201E+03  0.41800000000E+01 0.  1.
        -11    1    1    2    0    0  0.35230068499E+02 -0.10147470817E+03  0.89935951226E+02  0.14009550117E+03  0.00000000000E+00 0.  1.
         11    1    1    2    0    0 -0.89749244220E+01 -0.19649122348E+02 -0.19407931869E+02  0.29039715854E+02  0.00000000000E+00 0. -1.
</event>
<event>
 7    1  0.2728221E-009  0.1950570E+03  0.7561462E-02  0.1153978E+00
          1   -1    0    0  501    0  0.00000000000E+00  0.00000000000E+00  0.70207912970E+03  0.70207912970E+03  0.00000000000E+00 0. -1.
         -1   -1    0    0    0  501 -0.00000000000E+00 -0.00000000000E+00 -0.78592513497E+02  0.78592513497E+02  0.00000000000E+00 0.  1.
         25    2    1    2    0    0  0.66763022136E+02  0.17201023478E+03  0.48503266646E+03  0.53380600366E+03  0.12508932813E+03 0.  0.
          5    1    3    3  502    0 -0.16139950003E+02  0.48168865788E+02  0.41008525031E+02  0.65421014533E+02  0.41800000000E+01 0.  1.
         -5    1    3    3    0  502  0.82902972138E+02  0.12384136899E+03  0.44402414143E+03  0.46838498912E+03  0.41800000000E+01 0.  1.
        -11    1    1    2    0    0 -0.12463764742E+02 -0.95065548625E+02  0.11516767097E+03  0.14985458419E+03  0.00000000000E+00 0. -1.
         11    1    1    2    0    0 -0.54299257393E+02 -0.76944686153E+02  0.23286278771E+02  0.97011055347E+02  0.00000000000E+00 0.  1.
</event>
<event>
 7    1  0.2728221E-009  0.8717974E+02  0.7561462E-02  0.1309829E+00
          1   -1    0    0  501    0  0.00000000000E+00  0.00000000000E+00  0.37128847655E+03  0.37128847655E+03  0.00000000000E+00 0. -1.
         -1   -1    0    0    0  501 -0.00000000000E+00 -0.00000000000E+00 -0.34394459684E+02  0.34394459684E+02  0.00000000000E+00 0.  1.
         25    2    1    2    0    0 -0.40695180776E+01  0.13372407266E+02  0.13836953541E+03  0.18705430840E+03  0.12509118159E+03 0.  0.
          5    1    3    3  502    0  0.35153514624E+01  0.50282682250E+02  0.14025367695E+03  0.14909484272E+03  0.41800000000E+01 0. -1.
         -5    1    3    3    0  502 -0.75848695400E+01 -0.36910274985E+02 -0.18841415389E+01  0.37959465680E+02  0.41800000000E+01 0. -1.
        -11    1    1    2    0    0 -0.48760606951E+00  0.36141697328E+02  0.47887650029E+02  0.59997392200E+02  0.00000000000E+00 0. -1.
         11    1    1    2    0    0  0.45571241471E+01 -0.49514104594E+02  0.15063683143E+03  0.15863123563E+03  0.00000000000E+00 0.  1.
</event>
<event>
 7    1  0.2728221E-009  0.1268498E+03  0.7561462E-02  0.1232206E+00
         -3   -1    0    0    0  501 -0.00000000000E+00  0.00000000000E+00  0.19610627949E+03  0.19610627949E+03  0.00000000000E+00 0.  1.
          3   -1    0    0  501    0  0.00000000000E+00 -0.00000000000E+00 -0.20237040161E+03  0.20237040161E+03  0.00000000000E+00 0. -1.
         25    2    1    2    0    0  0.89444852394E+02 -0.28515910513E+02 -0.14046058262E+03  0.21021591784E+03  0.12509203841E+03 0.  0.
          5    1    3    3  502    0  0.11946824283E+02 -0.67212929744E+02 -0.48716269862E+02  0.83970541766E+02  0.41800000000E+01 0.  1.
         -5    1    3    3    0  502  0.77498028111E+02  0.38697019231E+02 -0.91744312755E+02  0.12624537608E+03  0.41800000000E+01 0.  1.
        -11    1    1    2    0    0 -0.19651025341E+02  0.20388426394E+02  0.11055630054E+03  0.11412513447E+03  0.00000000000E+00 0.  1.
         11    1    1    2    0    0 -0.69793827053E+02  0.81274841190E+01  0.23640159958E+02  0.74135628787E+02  0.00000000000E+00 0. -1.
</event>
<event>
 7    1  0.2728221E-009  0.1234688E+03  0.7561462E-02  0.1237482E+00
         -3   -1    0    0    0  501 -0.00000000000E+00  0.00000000000E+00  0.31861816673E+03  0.31861816673E+03  0.00000000000E+00 0.  1.
          3   -1    0    0  501    0  0.00000000000E+00 -0.00000000000E+00 -0.89247386397E+02  0.89247386397E+02  0.00000000000E+00 0. -1.
         25    2    1    2    0    0  0.30858061653E+02 -0.60306356878E+02  0.25305469148E+03  0.29029909930E+03  0.12509122082E+03 0.  0.
          5    1    3    3  502    0  0.26409013693E+02 -0.96808672574E+02  0.14751629762E+03  0.17845975892E+03  0.41800000000E+01 0.  1.
         -5    1    3    3    0  502  0.44490479608E+01  0.36502315696E+02  0.10553839386E+03  0.11183934039E+03  0.41800000000E+01 0.  1.
        -11    1    1    2    0    0 -0.13549790080E+02  0.81223266458E+02 -0.12623584707E+01  0.82355384609E+02  0.00000000000E+00 0.  1.
         11    1    1    2    0    0 -0.17308271573E+02 -0.20916909580E+02 -0.22421552673E+02  0.35211069218E+02  0.00000000000E+00 0. -1.
</event>
<event>
 7    1  0.2728221E-009  0.2751520E+03  0.7561462E-02  0.1098367E+00
         -2   -1    0    0    0  501 -0.00000000000E+00  0.00000000000E+00  0.36073523688E+03  0.36073523688E+03  0.00000000000E+00 0.  1.
          2   -1    0    0  501    0  0.00000000000E+00 -0.00000000000E+00 -0.23304808254E+03  0.23304808254E+03  0.00000000000E+00 0. -1.
         25    2    1    2    0    0  0.66588982815E+02 -0.25034884942E+03 -0.73835014693E+01  0.28776900190E+03  0.12509133990E+03 0.  0.
          5    1    3    3  502    0  0.93823844515E+02 -0.14283772812E+03 -0.32419754393E+02  0.17399437706E+03  0.41800000000E+01 0. -1.
         -5    1    3    3    0  502 -0.27234861699E+02 -0.10751112131E+03  0.25036252924E+02  0.11377462484E+03  0.41800000000E+01 0. -1.
        -11    1    1    2    0    0 -0.66896540902E+02  0.11515013062E+03  0.34664017119E+02  0.13760920700E+03  0.00000000000E+00 0. -1.
         11    1    1    2    0    0  0.30755808660E+00  0.13519871880E+03  0.10040663869E+03  0.16840511052E+03  0.00000000000E+00 0.  1.
</event>
<event>
 7    1  0.2728221E-009  0.1458871E+03  0.7561462E-02  0.1205620E+00
         -2   -1    0    0    0  501 -0.00000000000E+00  0.00000000000E+00  0.62214135627E+02  0.62214135627E+02  0.00000000000E+00 0.  1.
          2   -1    0    0  501    0  0.00000000000E+00 -0.00000000000E+00 -0.47842151328E+03  0.47842151328E+03  0.00000000000E+00 0. -1.
         25    2    1    2    0    0  0.76165364707E+02 -0.10658541690E+03 -0.27030857973E+03  0.32538538224E+03  0.12508918747E+03 0.  0.
          5    1    3    3  502    0  0.13545791380E+02 -0.94482165606E+02 -0.23191895021E+03  0.25082711167E+03  0.41800000000E+01 0. -1.
         -5    1    3    3    0  502  0.62619573327E+02 -0.12103251294E+02 -0.38389629518E+02  0.74558270568E+02  0.41800000000E+01 0. -1.
        -11    1    1    2    0    0 -0.67002871428E+02  0.10208889055E+03 -0.15782684356E+03  0.19955159459E+03  0.00000000000E+00 0. -1.
         11    1    1    2    0    0 -0.91624932795E+01  0.44965263532E+01  0.11928045641E+02  0.15698672082E+02  0.00000000000E+00 0.  1.
</event>
<event>
 7    1  0.3097963E-009  0.2836765E+03  0.7561462E-02  0.1093698E+00
         -1   -1    0    0    0  501 -0.00000000000E+00  0.00000000000E+00  0.12467733105E+03  0.12467733105E+03  0.00000000000E+00 0.  1.
          1   -1    0    0  501    0  0.00000000000E+00 -0.00000000000E+00 -0.87794411120E+03  0.87794411120E+03  0.00000000000E+00 0. -1.
         25    2    1    2    0    0  0.20972741087E+03  0.16945124698E+03 -0.14416643927E+03  0.33034737667E+03  0.12508443185E+03 0.  0.
          5    1    3    3  502    0  0.19520205775E+03  0.18862502190E+03 -0.12303494945E+03  0.29805756730E+03  0.41800000000E+01 0. -1.
         -5    1    3    3    0  502  0.14525353117E+02 -0.19173774916E+02 -0.21131489812E+02  0.32289809374E+02  0.41800000000E+01 0. -1.
        -11    1    1    2    0    0 -0.92200448216E+02 -0.94720692854E+02 -0.39793791045E+03  0.41931791385E+03  0.00000000000E+00 0. -1.
         11    1    1    2    0    0 -0.11752696265E+03 -0.74730554129E+02 -0.21116243043E+03  0.25295615173E+03  0.00000000000E+00 0.  1.
</event>
<event>
 7    1  0.2728221E-009  0.4565937E+02  0.7561462E-02  0.1470267E+00
          1   -1    0    0  501    0  0.00000000000E+00  0.00000000000E+00  0.89842201872E+02  0.89842201872E+02  0.00000000000E+00 0. -1.
         -1   -1    0    0    0  501 -0.00000000000E+00 -0.00000000000E+00 -0.12980400200E+03  0.12980400200E+03  0.00000000000E+00 0.  1.
         25    2    1    2    0    0 -0.95618107403E+01  0.10645112688E+01 -0.40328519865E+01  0.12551850534E+03  0.12508425112E+03 0.  0.
          5    1    3    3  502    0 -0.39767352391E+01 -0.94727789688E+00 -0.64425877075E+02  0.64690631435E+02  0.41800000000E+01 0.  1.
         -5    1    3    3    0  502 -0.55850755012E+01  0.20117891657E+01  0.60393025089E+02  0.60827873901E+02  0.41800000000E+01 0.  1.
        -11    1    1    2    0    0  0.29060788517E+02  0.29850968875E+02 -0.39491169775E+02  0.57403503919E+02  0.00000000000E+00 0.  1.
         11    1    1    2    0    0 -0.19498977777E+02 -0.30915480144E+02  0.35622216377E+01  0.36724194612E+02  0.00000000000E+00 0. -1.
</event>
<event>
 7    1  0.2728221E-009  0.8762312E+02  0.7561462E-02  0.1308712E+00
         -2   -1    0    0    0  501 -0.00000000000E+00  0.00000000000E+00  0.42036898135E+03  0.42036898135E+03  0.00000000000E+00 0.  1.
          2   -1    0    0  501    0  0.00000000000E+00 -0.00000000000E+00 -0.62934543088E+02  0.62934543088E+02  0.00000000000E+00 0. -1.
         25    2    1    2    0    0 -0.20548829810E+02 -0.48876376322E+02  0.32455854954E+02  0.13968201374E+03  0.12508608185E+03 0.  0.
          5    1    3    3  502    0 -0.24979195287E+02 -0.13599207158E+02  0.77200402773E+02  0.82378839642E+02  0.41800000000E+01 0.  1.
         -5    1    3    3    0  502  0.44303654770E+01 -0.35277169165E+02 -0.44744547819E+02  0.57303174101E+02  0.41800000000E+01 0.  1.
        -11    1    1    2    0    0  0.22338100922E+02  0.78197111565E+02  0.21771445159E+03  0.23240774823E+03  0.00000000000E+00 0.  1.
         11    1    1    2    0    0 -0.17892711121E+01 -0.29320735243E+02  0.10726413172E+03  0.11121376246E+03  0.00000000000E+00 0. -1.
</event>
<event>
 7    1  0.2728221E-009  0.1554246E+03  0.7561462E-02  0.1193961E+00
         -2   -1    0    0    0  501 -0.00000000000E+00  0.00000000000E+00  0.91572518857E+02  0.91572518857E+02  0.00000000000E+00 0.  1.
          2   -1    0    0  501    0  0.00000000000E+00 -0.00000000000E+00 -0.31906635769E+03  0.31906635769E+03  0.00000000000E+00 0. -1.
         25    2    1    2    0    0  0.17786677078E+02 -0.12800518573E+03 -0.14071972400E+03  0.22836474778E+03  0.12508686522E+03 0.  0.
          5    1    3    3  502    0 -0.35795451441E+02 -0.64725667049E+02 -0.11787357945E+02  0.75014268817E+02  0.41800000000E+01 0. -1.
         -5    1    3    3    0  502  0.53582128519E+02 -0.63279518681E+02 -0.12893236605E+03  0.15335047896E+03  0.41800000000E+01 0. -1.
        -11    1    1    2    0    0  0.23644020237E+02  0.10227756801E+03 -0.33829836064E+02  0.11029142496E+03  0.00000000000E+00 0.  1.
         11    1    1    2    0    0 -0.41430697315E+02  0.25727617718E+02 -0.52944278771E+02  0.71982703812E+02  0.00000000000E+00 0. -1.
</event>
<event>
 7    1  0.2728221E-009  0.7865774E+02  0.7561462E-02  0.1332904E+00
          1   -1    0    0  501    0  0.00000000000E+00  0.00000000000E+00  0.31679936244E+03  0.31679936244E+03  0.00000000000E+00 0. -1.
         -1   -1    0    0    0  501 -0.00000000000E+00 -0.00000000000E+00 -0.39340676076E+02  0.39340676076E+02  0.00000000000E+00 0.  1.
         25    2    1    2    0    0 -0.11365679665E+02  0.50959893601E+01  0.21000680365E+03  0.24475602395E+03  0.12508999119E+03 0.  0.
          5    1    3    3  502    0  0.41358178563E+02 -0.22594795405E+02  0.32293637918E+02  0.57283288693E+02  0.41800000000E+01 0. -1.
         -5    1    3    3    0  502 -0.52723858228E+02  0.27690784765E+02  0.17771316574E+03  0.18747273525E+03  0.41800000000E+01 0. -1.
        -11    1    1    2    0    0 -0.14892415284E+01 -0.25848635676E+02 -0.11802922465E+02  0.28454855215E+02  0.00000000000E+00 0.  1.
         11    1    1    2    0    0  0.12854921193E+02  0.20752646315E+02  0.79254805174E+02  0.82929159354E+02  0.00000000000E+00 0. -1.
</event>
<event>
 7    1  0.2728221E-009  0.9417014E+02  0.7561462E-02  0.1293056E+00
         -1   -1    0    0    0  501 -0.00000000000E+00  0.00000000000E+00  0.21916922586E+03  0.21916922586E+03  0.00000000000E+00 0.  1.
          1   -1    0    0  501    0  0.00000000000E+00 -0.00000000000E+00 -0.13088837598E+03  0.13088837598E+03  0.00000000000E+00 0. -1.
         25    2    1    2    0    0 -0.13757719990E+01  0.41865389113E+02  0.17376654593E+03  0.21817387664E+03  0.12510165630E+03 0.  0.
          5    1    3    3  502    0 -0.46879952149E+02  0.10489064529E+02  0.15053851050E+03  0.15807297660E+03  0.41800000000E+01 0. -1.
         -5    1    3    3    0  502  0.45504180150E+02  0.31376324584E+02  0.23228035435E+02  0.60100900041E+02  0.41800000000E+01 0. -1.
        -11    1    1    2    0    0 -0.30134707349E+02 -0.43747822272E+02 -0.15864564986E+02  0.55440571450E+02  0.00000000000E+00 0.  1.
         11    1    1    2    0    0  0.31510479348E+02  0.18824331591E+01 -0.69621131075E+02  0.76443153752E+02  0.00000000000E+00 0. -1.
</event>
<event>
 6    1  0.2728221E-009  0.2645739E+03  0.7561462E-02  0.1104426E+00
         -2   -1    0    0    0  501 -0.00000000000E+00  0.00000000000E+00  0.10346234040E+03  0.10346234040E+03  0.00000000000E+00 0.  1.
          2   -1    0    0  501    0  0.00000000000E+00 -0.00000000000E+00 -0.82455317084E+03  0.82455317084E+03  0.00000000000E+00 0. -1.
          5    1    1    2  502    0  0.61980977870E+02 -0.13461005068E+03 -0.23219365983E+03  0.27548661570E+03  0.41800000000E+01 0.  1.
         -5    1    1    2    0  502 -0.45948782138E+02 -0.10999365467E+03 -0.31886748600E+03  0.34044653130E+03  0.41800000000E+01 0.  1.
        -11    1    1    2    0    0  0.79618406551E+01  0.23598795917E+03 -0.15571846069E+03  0.28284615390E+03  0.00000000000E+00 0. -1.
         11    1    1    2    0    0 -0.23994036387E+02  0.86157461864E+01 -0.14311223922E+02  0.29236210333E+02  0.00000000000E+00 0.  1.
</event>
<event>
 7    1  0.2728221E-009  0.9564146E+02  0.7561462E-02  0.1289738E+00
          1   -1    0    0  501    0  0.00000000000E+00  0.00000000000E+00  0.16781281269E+03  0.16781281269E+03  0.00000000000E+00 0. -1.
         -1   -1    0    0    0  501 -0.00000000000E+00 -0.00000000000E+00 -0.79665590167E+02  0.79665590167E+02  0.00000000000E+00 0.  1.
         25    2    1    2    0    0  0.27864070471E+02 -0.28072320823E+02  0.63047194521E+02  0.14555769483E+03  0.12509049591E+03 0.  0.
          5    1    3    3  502    0  0.54335763043E+02 -0.65462021096E+02  0.39866208818E+02  0.94044874166E+02  0.41800000000E+01 0. -1.
         -5    1    3    3    0  502 -0.26471692572E+02  0.37389700273E+02  0.23180985703E+02  0.51512820660E+02  0.41800000000E+01 0. -1.
        -11    1    1    2    0    0 -0.36848139206E+02  0.33337135007E+02 -0.21521130999E+02  0.54150798821E+02  0.00000000000E+00 0.  1.
         11    1    1    2    0    0  0.89840687352E+01 -0.52648141843E+01  0.46621159000E+02  0.47769909210E+02  0.00000000000E+00 0. -1.
</event>
<event>
 7    1  0.2728221E-009  0.1145094E+03  0.7561462E-02  0.1252440E+00
         -3   -1    0    0    0  501 -0.00000000000E+00  0.00000000000E+00  0.69382131662E+02  0.69382131662E+02  0.00000000000E+00 0.  1.
          3   -1    0    0  501    0  0.00000000000E+00 -0.00000000000E+00 -0.23277914834E+03  0.23277914834E+03  0.00000000000E+00 0. -1.
         25    2    1    2    0    0  0.56104336840E+02 -0.18557832957E+02 -0.99751999566E+02  0.17055675226E+03  0.12508818709E+03 0.  0.
          5    1    3    3  502    0  0.82061976734E+01 -0.68368989731E+02 -0.53446730606E+02  0.87267897016E+02  0.41800000000E+01 0. -1.
         -5    1    3    3    0  502  0.47898139167E+02  0.49811156774E+02 -0.46305268960E+02  0.83288855247E+02  0.41800000000E+01 0. -1.
        -11    1    1    2    0    0 -0.58279577639E+02 -0.12552109197E+02  0.12239491033E+01  0.59628539026E+02  0.00000000000E+00 0.  1.
         11    1    1    2    0    0  0.21752407981E+01  0.31109942154E+02 -0.64868966214E+02  0.71975988712E+02  0.00000000000E+00 0. -1.
</event>
<event>
 7    1  0.2728221E-009  0.1210868E+03  0.7561462E-02  0.1241315E+00
          1   -1    0    0  501    0  0.00000000000E+00  0.00000000000E+00  0.11709100365E+04  0.11709100365E+04  0.00000000000E+00 0. -1.
         -1   -1    0    0    0  501 -0.00000000000E+00 -0.00000000000E+00 -0.21837764046E+02  0.21837764046E+02  0.00000000000E+00 0.  1.
         25    2    1    2    0    0  0.79374789769E+02  0.55583933005E+02  0.85988748930E+03  0.87432473128E+03  0.12508921057E+03 0.  0.
          5    1    3    3  502    0 -0.20296321051E+02  0.18511048561E+01  0.40511611684E+03  0.40564998183E+03  0.41800000000E+01 0.  1.
         -5    1    3    3    0  502  0.99671110820E+02  0.53732828148E+02  0.45477137247E+03  0.46867474945E+03  0.41800000000E+01 0.  1.
        -11    1    1    2    0    0 -0.47205030782E+02 -0.41415891009E+01  0.40164844847E+02  0.62118294028E+02  0.00000000000E+00 0.  1.
         11    1    1    2    0    0 -0.32169758987E+02 -0.51442343904E+02  0.24901993833E+03  0.25630477527E+03  0.00000000000E+00 0. -1.
</event>
<event>
 7    1  0.2728221E-009  0.1729578E+03  0.7561462E-02  0.1174798E+00
         -3   -1    0    0    0  501 -0.00000000000E+00  0.00000000000E+00  0.24318634328E+03  0.24318634328E+03  0.00000000000E+00 0.  1.
          3   -1    0    0  501    0  0.00000000000E+00 -0.00000000000E+00 -0.32513064151E+03  0.32513064151E+03  0.00000000000E+00 0. -1.
         25    2    1    2    0    0  0.13081592571E+03  0.97485192310E+02 -0.24536781340E+03  0.32010752389E+03  0.12508914366E+03 0.  0.
          5    1    3    3  502    0  0.72557233339E+02  0.68602941380E+02 -0.45360922819E+02  0.10975427734E+03  0.41800000000E+01 0. -1.
         -5    1    3    3    0  502  0.58258692368E+02  0.28882250930E+02 -0.20000689058E+03  0.21035324655E+03  0.41800000000E+01 0. -1.
        -11    1    1    2    0    0 -0.91851906294E+01 -0.49036920689E+02  0.75525459684E+02  0.90515647145E+02  0.00000000000E+00 0.  1.
         11    1    1    2    0    0 -0.12163073508E+03 -0.48448271621E+02  0.87898055484E+02  0.15769381376E+03  0.00000000000E+00 0. -1.
</event>
<event>
 7    1  0.2728221E-009  0.1228764E+03  0.7561462E-02  0.1238426E+00
          2   -1    0    0  501    0  0.00000000000E+00  0.00000000000E+00  0.30130311430E+03  0.30130311430E+03  0.00000000000E+00 0. -1.
         -2   -1    0    0    0  501 -0.00000000000E+00 -0.00000000000E+00 -0.13235232572E+03  0.13235232572E+03  0.00000000000E+00 0.  1.
         25    2    1    2    0    0 -0.85223031953E+02  0.50229584341E+02  0.23519493531E+03  0.28416645025E+03  0.12509171649E+03 0.  0.
          5    1    3    3  502    0  0.65590749177E+01  0.19827593114E+02 -0.77427803559E+01  0.22662258496E+02  0.41800000000E+01 0.  1.
         -5    1    3    3    0  502 -0.91782106870E+02  0.30401991227E+02  0.24293771567E+03  0.26150419175E+03  0.41800000000E+01 0.  1.
        -11    1    1    2    0    0  0.87325845867E+02 -0.10570886608E+02 -0.23301967975E+02  0.90997410466E+02  0.00000000000E+00 0. -1.
         11    1    1    2    0    0 -0.21028139144E+01 -0.39658697734E+02 -0.42942178756E+02  0.58491579296E+02  0.00000000000E+00 0.  1.
</event>
<event>
 7    1  0.2728221E-009  0.1178309E+03  0.7561462E-02  0.1246719E+00
          1   -1    0    0  501    0  0.00000000000E+00  0.00000000000E+00  0.22885136885E+03  0.22885136885E+03  0.00000000000E+00 0. -1.
         -1   -1    0    0    0  501 -0.00000000000E+00 -0.00000000000E+00 -0.82176340565E+02  0.82176340565E+02  0.00000000000E+00 0.  1.
         25    2    1    2    0    0  0.50979810556E+02  0.64178286527E+02  0.10094113957E+03  0.18042998462E+03  0.12509225454E+03 0.  0.
          5    1    3    3  502    0  0.39456701772E+02 -0.11999889549E+02  0.94273397096E+02  0.10298434087E+03  0.41800000000E+01 0.  1.
         -5    1    3    3    0  502  0.11523108784E+02  0.76178176076E+02  0.66677424787E+01  0.77445643751E+02  0.41800000000E+01 0.  1.
        -11    1    1    2    0    0 -0.50082160031E+02  0.27114689502E+01  0.10792407248E+01  0.50167116498E+02  0.00000000000E+00 0.  1.
         11    1    1    2    0    0 -0.89765052497E+00 -0.66889755477E+02  0.44654647983E+02  0.80430608295E+02  0.00000000000E+00 0. -1.
</event>
<event>
 7    1  0.2728221E-009  0.1143252E+03  0.7561462E-02  0.1252764E+00
         -1   -1    0    0    0  501 -0.00000000000E+00  0.00000000000E+00  0.91040187956E+02  0.91040187956E+02  0.00000000000E+00 0.  1.
          1   -1    0    0  501    0  0.00000000000E+00 -0.00000000000E+00 -0.19088942203E+03  0.19088942203E+03  0.00000000000E+00 0. -1.
         25    2    1    2    0    0 -0.42206608978E+02 -0.25301387991E+02 -0.11663533487E+03  0.17797018427E+03  0.12509207439E+03 0.  0.
          5    1    3    3  502    0 -0.10000480825E+02 -0.70109283702E+02 -0.34384929696E+02  0.78836013776E+02  0.41800000000E+01 0. -1.
         -5    1    3    3    0  502 -0.32206128153E+02  0.44807895711E+02 -0.82250405177E+02  0.99134170498E+02  0.41800000000E+01 0. -1.
        -11    1    1    2    0    0 -0.24295714033E+02  0.26372445710E+02  0.25969862227E+01  0.35951800380E+02  0.00000000000E+00 0. -1.
         11    1    1    2    0    0  0.66502323011E+02 -0.10710577192E+01  0.14189114577E+02  0.68007625330E+02  0.00000000000E+00 0.  1.
</event>
<event>
 7    1  0.2728221E-009  0.7872029E+02  0.7561462E-02  0.1332723E+00
         -2   -1    0    0    0  501 -0.00000000000E+00  0.00000000000E+00  0.20008736655E+03  0.20008736655E+03  0.00000000000E+00 0.  1.
          2   -1    0    0  501    0  0.00000000000E+00 -0.00000000000E+00 -0.88114817223E+02  0.88114817223E+02  0.00000000000E+00 0. -1.
         25    2    1    2    0    0 -0.25666225684E+02 -0.57566493524E+02  0.10933045517E+03  0.17768942247E+03  0.12509087142E+03 0.  0.
          5    1    3    3  502    0 -0.10188504253E+02 -0.60599577103E+02 -0.53778691964E+01  0.61826436426E+02  0.41800000000E+01 0.  1.
         -5    1    3    3    0  502 -0.15477721431E+02  0.30330835795E+01  0.11470832436E+03  0.11586298604E+03  0.41800000000E+01 0.  1.
        -11    1    1    2    0    0  0.12834018509E+02 -0.63646972160E+01  0.34927688067E+02  0.37751354882E+02  0.00000000000E+00 0.  1.
         11    1    1    2    0    0  0.12832207175E+02  0.63931190740E+02 -0.32285593908E+02  0.72761406421E+02  0.00000000000E+00 0. -1.
</event>
<event>
 7    1  0.2728221E-009  0.1221750E+03  0.7561462E-02  0.1239551E+00
         -1   -1    0    0    0  501 -0.00000000000E+00  0.00000000000E+00  0.42851892433E+02  0.42851892433E+02  0.00000000000E+00 0.  1.
          1   -1    0    0  501    0  0.00000000000E+00 -0.00000000000E+00 -0.49589801561E+03  0.49589801561E+03  0.00000000000E+00 0. -1.
         25    2    1    2    0    0 -0.84886047257E+02  0.39148794008E+02 -0.30321313198E+03  0.34106464741E+03  0.12509444918E+03 0.  0.
          5    1    3    3  502    0 -0.76447798053E+02  0.77723275940E+02 -0.16946330986E+03  0.20154517915E+03  0.41800000000E+01 0.  1.
         -5    1    3    3    0  502 -0.84382492046E+01 -0.38574481932E+02 -0.13374982212E+03  0.13951946826E+03  0.41800000000E+01 0.  1.
        -11    1    1    2    0    0  0.42540687973E+02 -0.87883399092E+01 -0.49527404392E+01  0.43720415019E+02  0.00000000000E+00 0.  1.
         11    1    1    2    0    0  0.42345359284E+02 -0.30360454099E+02 -0.14488025076E+03  0.15396484562E+03  0.00000000000E+00 0. -1.
</event>
<event>
 7    1  0.2728221E-009  0.1005286E+03  0.7561462E-02  0.1279188E+00
         -1   -1    0    0    0  501 -0.00000000000E+00  0.00000000000E+00  0.41073057598E+02  0.41073057598E+02  0.00000000000E+00 0.  1.
          1   -1    0    0  501    0  0.00000000000E+00 -0.00000000000E+00 -0.30929046950E+03  0.30929046950E+03  0.00000000000E+00 0. -1.
         25    2    1    2    0    0 -0.23020378248E+02 -0.93578275876E+01 -0.13871975550E+03  0.18843551538E+03  0.12508903284E+03 0.  0.
          5    1    3    3  502    0 -0.37290211637E+02  0.50642879197E+02 -0.89247460070E+02  0.10926043486E+03  0.41800000000E+01 0. -1.
         -5    1    3    3    0  502  0.14269833388E+02 -0.60000706785E+02 -0.49472295428E+02  0.79175080515E+02  0.41800000000E+01 0. -1.
        -11    1    1    2    0    0 -0.11219863117E+02  0.32832890211E+02 -0.11047370612E+02  0.36413299842E+02  0.00000000000E+00 0.  1.
         11    1    1    2    0    0  0.34240241365E+02 -0.23475062624E+02 -0.11845028579E+03  0.12551471188E+03  0.00000000000E+00 0. -1.
</event>
<event>
 7    1  0.2728221E-009  0.1993240E+03  0.7561462E-02  0.1150311E+00
         -2   -1    0    0    0  501 -0.00000000000E+00  0.00000000000E+00  0.43223135171E+02  0.43223135171E+02  0.00000000000E+00 0.  1.
          2   -1    0    0  501    0  0.00000000000E+00 -0.00000000000E+00 -0.10757150302E+04  0.10757150302E+04  0.00000000000E+00 0. -1.
         25    2    1    2    0    0  0.15492833467E+03 -0.10173384875E+03 -0.57562228942E+03  0.61752768858E+03  0.12508741427E+03 0.  0.
          5    1    3    3  502    0  0.25104188671E+02 -0.76127239669E+02 -0.13121495009E+03  0.15381941501E+03  0.41800000000E+01 0. -1.
         -5    1    3    3    0  502  0.12982414600E+03 -0.25606609083E+02 -0.44440733934E+03  0.46370827356E+03  0.41800000000E+01 0. -1.
        -11    1    1    2    0    0 -0.14253428266E+02  0.43794145689E+01 -0.15250116213E+01  0.14988834169E+02  0.00000000000E+00 0.  1.
         11    1    1    2    0    0 -0.14067490641E+03  0.97354434183E+02 -0.45534459400E+03  0.48642164264E+03  0.00000000000E+00 0. -1.
</event>
<event>
 7    1  0.2932259E-009  0.1672972E+03  0.7561462E-02  0.1180696E+00
          2   -1    0    0  501    0  0.00000000000E+00  0.00000000000E+00  0.53825822065E+03  0.53825822065E+03  0.00000000000E+00 0. -1.
         -2   -1    0    0    0  501 -0.00000000000E+00 -0.00000000000E+00 -0.63167694028E+02  0.63167694028E+02  0.00000000000E+00 0.  1.
         25    2    1    2    0    0 -0.14670761491E+03 -0.27564139889E+01  0.21060883117E+03  0.28554369143E+03  0.12509355641E+03 0.  0.
          5    1    3    3  502    0 -0.10407717632E+03  0.53376391475E+02  0.16185054564E+03  0.19973524807E+03  0.41800000000E+01 0. -1.
         -5    1    3    3    0  502 -0.42630438585E+02 -0.56132805464E+02  0.48758285537E+02  0.85808443359E+02  0.41800000000E+01 0. -1.
        -11    1    1    2    0    0  0.43758242668E+02  0.44212909412E+01  0.15808298537E+02  0.46735788403E+02  0.00000000000E+00 0.  1.
         11    1    1    2    0    0  0.10294937224E+03 -0.16648769523E+01  0.24867339691E+03  0.26914643485E+03  0.00000000000E+00 0. -1.
</event>
<event>
 7    1  0.2728221E-009  0.3119172E+03  0.7561462E-02  0.1079431E+00
         -2   -1    0    0    0  501 -0.00000000000E+00  0.00000000000E+00  0.22188213034E+03  0.22188213034E+03  0.00000000000E+00 0.  1.
          2   -1    0    0  501    0  0.00000000000E+00 -0.00000000000E+00 -0.65301052381E+03  0.65301052381E+03  0.00000000000E+00 0. -1.
         25    2    1    2    0    0 -0.50810454711E+02 -0.30116362519E+03 -0.44693847587E+03  0.55559773630E+03  0.12511439535E+03 0.  0.
          5    1    3    3  502    0 -0.21247989366E+02 -0.18900035348E+03 -0.16925249419E+03  0.25463010399E+03  0.41800000000E+01 0.  1.
         -5    1    3    3    0  502 -0.29562465345E+02 -0.11216327171E+03 -0.27768598168E+03  0.30096763231E+03  0.41800000000E+01 0.  1.
        -11    1    1    2    0    0 -0.12402927987E+02  0.18384822604E+03  0.23781651968E+02  0.18579442890E+03  0.00000000000E+00 0. -1.
         11    1    1    2    0    0  0.63213382697E+02  0.11731539915E+03 -0.79715695690E+01  0.13350048895E+03  0.00000000000E+00 0.  1.
</event>
<event>
 7    1  0.2728221E-009  0.1118107E+03  0.7561462E-02  0.1257253E+00
         -1   -1    0    0    0  501 -0.00000000000E+00  0.00000000000E+00  0.50499196325E+02  0.50499196325E+02  0.00000000000E+00 0.  1.
          1   -1    0    0  501    0  0.00000000000E+00 -0.00000000000E+00 -0.35922278882E+03  0.35922278882E+03  0.00000000000E+00 0. -1.
         25    2    1    2    0    0 -0.63344425157E+02  0.43485316004E+02 -0.17695862585E+03  0.22992314854E+03  0.12508720983E+03 0.  0.
          5    1    3    3  502    0 -0.67987637951E+02 -0.28999953140E+02 -0.87671108263E+02  0.11474760050E+03  0.41800000000E+01 0.  1.
         -5    1    3    3    0  502  0.46432127946E+01  0.72485269143E+02 -0.89287517591E+02  0.11517554804E+03  0.41800000000E+01 0.  1.
        -11    1    1    2    0    0  0.24729796462E+02 -0.17193661618E+02 -0.12957762967E+03  0.13303212748E+03  0.00000000000E+00 0. -1.
         11    1    1    2    0    0  0.38614628695E+02 -0.26291654385E+02 -0.21873369753E+01  0.46766709127E+02  0.00000000000E+00 0.  1.
</event>
<event>
 7    1  0.2728221E-009  0.1406104E+03  0.7561462E-02  0.1212510E+00
          2   -1    0    0  501    0  0.00000000000E+00  0.00000000000E+00  0.12437428207E+03  0.12437428207E+03  0.00000000000E+00 0.  1.
         -2   -1    0    0    0  501 -0.00000000000E+00 -0.00000000000E+00 -0.26627892098E+03  0.26627892098E+03  0.00000000000E+00 0. -1.
         25    2    1    2    0    0 -0.13114404692E+03 -0.14469433482E+02 -0.12868775419E+03  0.22274821768E+03  0.12509238527E+03 0.  0.
          5    1    3    3  502    0 -0.73304134908E+02 -0.15104812337E+01 -0.14377207526E+03  0.16144243486E+03  0.41800000000E+01 0.  1.
         -5    1    3    3    0  502 -0.57839912012E+02 -0.12958952248E+02  0.15084321068E+02  0.61305782819E+02  0.41800000000E+01 0.  1.
        -11    1    1    2    0    0  0.12956054993E+03  0.29804427678E+02  0.16956323219E+02  0.13402147926E+03  0.00000000000E+00 0.  1.
         11    1    1    2    0    0  0.15834969955E+01 -0.15334994196E+02 -0.30173207929E+02  0.33883506112E+02  0.00000000000E+00 0. -1.
</event>
<event>
 7    1  0.2728221E-009  0.1157050E+03  0.7561462E-02  0.1250355E+00
          2   -1    0    0  501    0  0.00000000000E+00  0.00000000000E+00  0.21871560068E+03  0.21871560068E+03  0.00000000000E+00 0. -1.
         -2   -1    0    0    0  501 -0.00000000000E+00 -0.00000000000E+00 -0.84632548061E+02  0.84632548061E+02  0.00000000000E+00 0.  1.
         25    2    1    2    0    0 -0.49371111738E+02  0.41842302639E+02  0.11741883251E+03  0.18336009444E+03  0.12508180139E+03 0.  0.
          5    1    3    3  502    0 -0.38418178807E+02  0.79161613937E+02  0.11403433359E+03  0.14409656214E+03  0.41800000000E+01 0. -1.
         -5    1    3    3    0  502 -0.10952932931E+02 -0.37319311298E+02  0.33844989235E+01  0.39263532298E+02  0.41800000000E+01 0. -1.
        -11    1    1    2    0    0  0.18526645036E+02  0.24689710829E+02  0.32650349015E+02  0.44931767023E+02  0.00000000000E+00 0. -1.
         11    1    1    2    0    0  0.30844466702E+02 -0.66532013468E+02 -0.15986128910E+02  0.75056287276E+02  0.00000000000E+00 0.  1.
</event>
<event>
 7    1  0.2728221E-009  0.1831329E+03  0.7561462E-02  0.1164805E+00
         -1   -1    0    0    0  501 -0.00000000000E+00  0.00000000000E+00  0.83957272901E+02  0.83957272901E+02  0.00000000000E+00 0.  1.
          1   -1    0    0  501    0  0.00000000000E+00 -0.00000000000E+00 -0.64390907806E+03  0.64390907806E+03  0.00000000000E+00 0. -1.
         25    2    1    2    0    0  0.75418992001E+02  0.13278792633E+03 -0.50441152371E+03  0.54166371744E+03  0.12509172559E+03 0.  0.
          5    1    3    3  502    0  0.10255537946E+03  0.66774287444E+02 -0.36493310572E+03  0.38492863673E+03  0.41800000000E+01 0.  1.
         -5    1    3    3    0  502 -0.27136387459E+02  0.66013638890E+02 -0.13947841798E+03  0.15673508071E+03  0.41800000000E+01 0.  1.
        -11    1    1    2    0    0 -0.92528084672E+02 -0.11557716210E+03 -0.30171358657E+02  0.15109545902E+03  0.00000000000E+00 0. -1.
         11    1    1    2    0    0  0.17109092671E+02 -0.17210764230E+02 -0.25368922793E+02  0.35107174495E+02  0.00000000000E+00 0.  1.
</event>
<event>
 7    1  0.2728221E-009  0.2191003E+03  0.7561462E-02  0.1134556E+00
         -1   -1    0    0    0  501 -0.00000000000E+00  0.00000000000E+00  0.33685310638E+02  0.33685310638E+02  0.00000000000E+00 0.  1.
          1   -1    0    0  501    0  0.00000000000E+00 -0.00000000000E+00 -0.14439986231E+04  0.14439986231E+04  0.00000000000E+00 0. -1.
         25    2    1    2    0    0  0.13957481853E+03  0.13098572768E+03 -0.72255909967E+03  0.75787982805E+03  0.12510711582E+03 0.  0.
          5    1    3    3  502    0  0.14775135603E+03  0.64751341116E+02 -0.48912162974E+03  0.51505401704E+03  0.41800000000E+01 0. -1.
         -5    1    3    3    0  502 -0.81765375006E+01  0.66234386560E+02 -0.23343746992E+03  0.24282581101E+03  0.41800000000E+01 0. -1.
        -11    1    1    2    0    0 -0.13853069408E+03 -0.82032781221E+02 -0.56934748545E+03  0.59167278929E+03  0.00000000000E+00 0. -1.
         11    1    1    2    0    0 -0.10441244423E+01 -0.48952946454E+02 -0.11840672738E+03  0.12813131644E+03  0.00000000000E+00 0.  1.
</event>
<event>
 7    1  0.2728221E-009  0.2349985E+03  0.7561462E-02  0.1123170E+00
          2   -1    0    0  501    0  0.00000000000E+00  0.00000000000E+00  0.92310485791E+02  0.92310485791E+02  0.00000000000E+00 0. -1.
         -2   -1    0    0    0  501 -0.00000000000E+00 -0.00000000000E+00 -0.70229142100E+03  0.70229142100E+03  0.00000000000E+00 0.  1.
         25    2    1    2    0    0  0.17433742851E+03  0.13894204757E+03 -0.22447275901E+03  0.34019656434E+03  0.12508897346E+03 0.  0.
          5    1    3    3  502    0  0.11906727961E+03  0.35745696004E+02 -0.59552275262E+02  0.13790836721E+03  0.41800000000E+01 0.  1.
         -5    1    3    3    0  502  0.55270148903E+02  0.10319635157E+03 -0.16492048375E+03  0.20228819713E+03  0.41800000000E+01 0.  1.
        -11    1    1    2    0    0 -0.13076474568E+03 -0.73960388633E+02 -0.31539766342E+03  0.34934974437E+03  0.00000000000E+00 0. -1.
         11    1    1    2    0    0 -0.43572682829E+02 -0.64981658940E+02 -0.70110512774E+02  0.10505559808E+03  0.00000000000E+00 0.  1.
</event>
<event>
 7    1  0.2728221E-009  0.1109984E+03  0.7561462E-02  0.1258732E+00
         -1   -1    0    0    0  501 -0.00000000000E+00  0.00000000000E+00  0.24700221121E+03  0.24700221121E+03  0.00000000000E+00 0.  1.
          1   -1    0    0  501    0  0.00000000000E+00 -0.00000000000E+00 -0.10795164956E+03  0.10795164956E+03  0.00000000000E+00 0. -1.
         25    2    1    2    0    0 -0.27033228164E+02  0.72608017165E+02  0.17682494365E+03  0.23003551577E+03  0.12508620321E+03 0.  0.
          5    1    3    3  502    0 -0.66314689563E+02  0.33561640396E+02  0.44997075430E+02  0.86984084494E+02  0.41800000000E+01 0. -1.
         -5    1    3    3    0  502  0.39281461399E+02  0.39046376769E+02  0.13182786822E+03  0.14305143127E+03  0.41800000000E+01 0. -1.
        -11    1    1    2    0    0 -0.10488273530E+02 -0.42870717995E+02 -0.58052329390E+02  0.72924449197E+02  0.00000000000E+00 0. -1.
         11    1    1    2    0    0  0.37521501694E+02 -0.29737299170E+02  0.20277947381E+02  0.51993895808E+02  0.00000000000E+00 0.  1.
</event>
<event>
 7    1  0.2728221E-009  0.1758874E+03  0.7561462E-02  0.1171844E+00
         -1   -1    0    0    0  501 -0.00000000000E+00  0.00000000000E+00  0.69383723321E+02  0.69383723321E+02  0.00000000000E+00 0.  1.
          1   -1    0    0  501    0  0.00000000000E+00 -0.00000000000E+00 -0.56051850215E+03  0.56051850215E+03  0.00000000000E+00 0. -1.
         25    2    1    2    0    0  0.35109668878E+02 -0.16088159759E+03 -0.25548829668E+03  0.32868973592E+03  0.12508835063E+03 0.  0.
          5    1    3    3  502    0 -0.50379837582E+00 -0.50794955624E+02 -0.31601075257E+01  0.51067014885E+02  0.41800000000E+01 0. -1.
         -5    1    3    3    0  502  0.35613467254E+02 -0.11008664197E+03 -0.25232818916E+03  0.27762272103E+03  0.41800000000E+01 0. -1.
        -11    1    1    2    0    0  0.18640615177E+02  0.10809413756E+03 -0.11458449282E+03  0.15862352003E+03  0.00000000000E+00 0.  1.
         11    1    1    2    0    0 -0.53750284055E+02  0.52787460029E+02 -0.12106198932E+03  0.14258896952E+03  0.00000000000E+00 0. -1.
</event>
<event>
 7    1  0.2728221E-009  0.1474193E+03  0.7561462E-02  0.1203680E+00
          1   -1    0    0  501    0  0.00000000000E+00  0.00000000000E+00  0.23329489089E+03  0.23329489089E+03  0.00000000000E+00 0. -1.
         -1   -1    0    0    0  501 -0.00000000000E+00 -0.00000000000E+00 -0.10023356339E+03  0.10023356339E+03  0.00000000000E+00 0.  1.
         25    2    1    2    0    0  0.36906905797E+02 -0.99790772403E+02  0.87767020274E+02  0.18620074389E+03  0.12508936495E+03 0.  0.
          5    1    3    3  502    0 -0.34661088814E+02 -0.82323002715E+02  0.37767384852E+02  0.97068612910E+02  0.41800000000E+01 0.  1.
         -5    1    3    3    0  502  0.71567994611E+02 -0.17467769689E+02  0.49999635421E+02  0.89132130979E+02  0.41800000000E+01 0.  1.
        -11    1    1    2    0    0 -0.24700044528E+02  0.11180677326E+03  0.19181117953E+02  0.11609807075E+03  0.00000000000E+00 0. -1.
         11    1    1    2    0    0 -0.12206861269E+02 -0.12016000853E+02  0.26113189271E+02  0.31229639647E+02  0.00000000000E+00 0.  1.
</event>
<event>
 7    1  0.2728221E-009  0.1802331E+03  0.7561462E-02  0.1167578E+00
          2   -1    0    0  501    0  0.00000000000E+00  0.00000000000E+00  0.10648512328E+03  0.10648512328E+03  0.00000000000E+00 0. -1.
         -2   -1    0    0    0  501 -0.00000000000E+00 -0.00000000000E+00 -0.53375327805E+03  0.53375327805E+03  0.00000000000E+00 0.  1.
         25    2    1    2    0    0 -0.13779544070E+03  0.42085354353E+02 -0.11974443736E+02  0.19118048391E+03  0.12509128506E+03 0.  0.
          5    1    3    3  502    0 -0.51105961409E+02  0.79960825288E+02 -0.16342024226E+02  0.96385097541E+02  0.41800000000E+01 0.  1.
         -5    1    3    3    0  502 -0.86689479290E+02 -0.37875470935E+02  0.43675804906E+01  0.94795386372E+02  0.41800000000E+01 0.  1.
        -11    1    1    2    0    0  0.36525044646E+02  0.29346147450E+02 -0.10905317619E+03  0.11869233544E+03  0.00000000000E+00 0. -1.
         11    1    1    2    0    0  0.10127039605E+03 -0.71431501803E+02 -0.30624053485E+03  0.33036558197E+03  0.00000000000E+00 0.  1.
</event>
<event>
 7    1  0.2728221E-009  0.1609328E+03  0.7561462E-02  0.1187648E+00
         -1   -1    0    0    0  501 -0.00000000000E+00  0.00000000000E+00  0.43601286683E+02  0.43601286683E+02  0.00000000000E+00 0.  1.
          1   -1    0    0  501    0  0.00000000000E+00 -0.00000000000E+00 -0.87783532612E+03  0.87783532612E+03  0.00000000000E+00 0. -1.
         25    2    1    2    0    0  0.10520388378E+03 -0.95632279555E+02 -0.62623780810E+03  0.65424372588E+03  0.12509064915E+03 0.  0.
          5    1    3    3  502    0  0.97983876739E+02 -0.34274075599E+02 -0.52796123983E+03  0.53808558383E+03  0.41800000000E+01 0.  1.
         -5    1    3    3    0  502  0.72200070378E+01 -0.61358203956E+02 -0.98276568266E+02  0.11615814205E+03  0.41800000000E+01 0.  1.
        -11    1    1    2    0    0 -0.73749544523E+02  0.23568416550E+02 -0.54350249751E+02  0.94596063470E+02  0.00000000000E+00 0.  1.
         11    1    1    2    0    0 -0.31454339254E+02  0.72063863004E+02 -0.15364598159E+03  0.17259682346E+03  0.00000000000E+00 0. -1.
</event>
<event>
 7    1  0.2728221E-009  0.1181748E+03  0.7561462E-02  0.1246139E+00
          1   -1    0    0  501    0  0.00000000000E+00  0.00000000000E+00  0.14523918439E+03  0.14523918439E+03  0.00000000000E+00 0. -1.
         -1   -1    0    0    0  501 -0.00000000000E+00 -0.00000000000E+00 -0.10496903714E+03  0.10496903714E+03  0.00000000000E+00 0.  1.
         25    2    1    2    0    0  0.51349555482E+02 -0.31401882755E+02  0.40228557588E+02  0.14453266555E+03  0.12509396259E+03 0.  0.
          5    1    3    3  502    0 -0.30277451164E+02  0.21186298100E+02 -0.46537579549E+01  0.37479502922E+02  0.41800000000E+01 0. -1.
         -5    1    3    3    0  502  0.81627006645E+02 -0.52588180855E+02  0.44882315543E+02  0.10705316263E+03  0.41800000000E+01 0. -1.
        -11    1    1    2    0    0 -0.37177301045E+02 -0.24351992903E+02  0.13781304818E+02  0.46530588153E+02  0.00000000000E+00 0. -1.
         11    1    1    2    0    0 -0.14172254437E+02  0.55753875658E+02 -0.13739715154E+02  0.59144967826E+02  0.00000000000E+00 0.  1.
</event>
<event>
 7    1  0.2728221E-009  0.1088429E+03  0.7561462E-02  0.1262728E+00
          2   -1    0    0  501    0  0.00000000000E+00  0.00000000000E+00  0.16678243833E+02  0.16678243833E+02  0.00000000000E+00 0. -1.
         -2   -1    0    0    0  501 -0.00000000000E+00 -0.00000000000E+00 -0.10363728314E+04  0.10363728314E+04  0.00000000000E+00 0.  1.
         25    2    1    2    0    0  0.17606610001E+02 -0.40735429244E+02 -0.80757746822E+03  0.81841431913E+03  0.12510500654E+03 0.  0.
          5    1    3    3  502    0  0.56798326775E+02 -0.51340664752E+02 -0.31699261433E+03  0.32613448717E+03  0.41800000000E+01 0.  1.
         -5    1    3    3    0  502 -0.39191716775E+02  0.10605235508E+02 -0.49058485390E+03  0.49227983196E+03  0.41800000000E+01 0.  1.
        -11    1    1    2    0    0  0.10197742513E+02  0.63465716528E+02 -0.14129735180E+03  0.15523154561E+03  0.00000000000E+00 0.  1.
         11    1    1    2    0    0 -0.27804352514E+02 -0.22730287284E+02 -0.70819767534E+02  0.79405210485E+02  0.00000000000E+00 0. -1.
</event>
<event>
 6    1  0.2728221E-009  0.1260118E+03  0.7561462E-02  0.1233496E+00
         -1   -1    0    0    0  501 -0.00000000000E+00  0.00000000000E+00  0.39062519146E+02  0.39062519146E+02  0.00000000000E+00 0.  1.
          1   -1    0    0  501    0  0.00000000000E+00 -0.00000000000E+00 -0.62442901495E+03  0.62442901495E+03  0.00000000000E+00 0. -1.
          5    1    1    2  502    0  0.60865016417E+02  0.36635594439E+02 -0.23505544530E+03  0.24559163619E+03  0.41800000000E+01 0. -1.
         -5    1    1    2    0  502  0.41728312475E+02 -0.77353710135E+01 -0.18323408076E+01  0.42683930226E+02  0.41800000000E+01 0. -1.
        -11    1    1    2    0    0 -0.93874665922E+02 -0.56299603027E+02 -0.29191925792E+03  0.31176746358E+03  0.00000000000E+00 0.  1.
         11    1    1    2    0    0 -0.87186629711E+01  0.27399379602E+02 -0.56559451780E+02  0.63448504097E+02  0.00000000000E+00 0. -1.
</event>
<event>
 7    1  0.2728221E-009  0.9829569E+02  0.7561462E-02  0.1283921E+00
          1   -1    0    0  501    0  0.00000000000E+00  0.00000000000E+00  0.36680623370E+03  0.36680623370E+03  0.00000000000E+00 0. -1.
         -1   -1    0    0    0  501 -0.00000000000E+00 -0.00000000000E+00 -0.40350058276E+02  0.40350058276E+02  0.00000000000E+00 0.  1.
         25    2    1    2    0    0  0.95390779358E+00  0.28942752784E+02  0.26762126357E+03  0.29682484662E+03  0.12508099767E+03 0.  0.
          5    1    3    3  502    0  0.58046875860E+02  0.14158478043E+01  0.17568882899E+03  0.18508236398E+03  0.41800000000E+01 0. -1.
         -5    1    3    3    0  502 -0.57092968066E+02  0.27526904979E+02  0.91932434574E+02  0.11174248264E+03  0.41800000000E+01 0. -1.
        -11    1    1    2    0    0 -0.32672714759E+02 -0.28151935577E+02 -0.40459389509E+00  0.43130052894E+02  0.00000000000E+00 0.  1.
         11    1    1    2    0    0  0.31718806965E+02 -0.79081720718E+00  0.59239505748E+02  0.67201392459E+02  0.00000000000E+00 0. -1.
</event>
<event>
 7    1  0.2728221E-009  0.1030509E+03  0.7561462E-02  0.1274008E+00
          2   -1    0    0  501    0  0.00000000000E+00  0.00000000000E+00  0.52644469142E+03  0.52644469142E+03  0.00000000000E+00 0. -1.
         -2   -1    0    0    0  501 -0.00000000000E+00 -0.00000000000E+00 -0.27500141302E+02  0.27500141302E+02  0.00000000000E+00 0.  1.
         25    2    1    2    0    0 -0.39662469660E+02 -0.16325126141E+02  0.35156128801E+03  0.37560822050E+03  0.12508626956E+03 0.  0.
          5    1    3    3  502    0  0.24125372962E+02 -0.52713823888E+02  0.13825672059E+03  0.14997724507E+03  0.41800000000E+01 0.  1.
         -5    1    3    3    0  502 -0.63787842623E+02  0.36388697748E+02  0.21330456742E+03  0.22563097543E+03  0.41800000000E+01 0.  1.
        -11    1    1    2    0    0 -0.65093549226E+01 -0.16522776886E+02 -0.26538327296E+01  0.17955965184E+02  0.00000000000E+00 0.  1.
         11    1    1    2    0    0  0.46171824583E+02  0.32847903027E+02  0.15003709483E+03  0.16038064704E+03  0.00000000000E+00 0. -1.
</event>
<event>
 7    1  0.2728221E-009  0.1014248E+03  0.7561462E-02  0.1277328E+00
         -2   -1    0    0    0  501 -0.00000000000E+00  0.00000000000E+00  0.50547132976E+03  0.50547132976E+03  0.00000000000E+00 0.  1.
          2   -1    0    0  501    0  0.00000000000E+00 -0.00000000000E+00 -0.34597394627E+02  0.34597394627E+02  0.00000000000E+00 0. -1.
         25    2    1    2    0    0  0.42115155590E+02 -0.16390202253E+01  0.13248058947E+03  0.18701671366E+03  0.12509105436E+03 0.  0.
          5    1    3    3  502    0  0.20339862182E+02 -0.52783029090E+02  0.17703545331E+02  0.59419239905E+02  0.41800000000E+01 0. -1.
         -5    1    3    3    0  502  0.21775293408E+02  0.51144008865E+02  0.11477704414E+03  0.12759747375E+03  0.41800000000E+01 0. -1.
        -11    1    1    2    0    0  0.17498388130E+02 -0.20356297940E+02  0.41426424005E+02  0.49363154871E+02  0.00000000000E+00 0. -1.
         11    1    1    2    0    0 -0.59613543720E+02  0.21995318165E+02  0.29696692165E+03  0.30368885586E+03  0.00000000000E+00 0.  1.
</event>
<event>
 7    1  0.2728221E-009  0.1339903E+03  0.7561462E-02  0.1221652E+00
          1   -1    0    0  501    0  0.00000000000E+00  0.00000000000E+00  0.26396112711E+02  0.26396112711E+02  0.00000000000E+00 0. -1.
         -1   -1    0    0    0  501 -0.00000000000E+00 -0.00000000000E+00 -0.10549550497E+04  0.10549550497E+04  0.00000000000E+00 0.  1.
         25    2    1    2    0    0 -0.30694091947E+02 -0.11314909030E+03 -0.70096249182E+03  0.72162319352E+03  0.12508706799E+03 0.  0.
          5    1    3    3  502    0 -0.16784912598E+01 -0.48026347779E+02 -0.61381677885E+02  0.78067472060E+02  0.41800000000E+01 0. -1.
         -5    1    3    3    0  502 -0.29015600688E+02 -0.65122742526E+02 -0.63958081393E+03  0.64355572146E+03  0.41800000000E+01 0. -1.
        -11    1    1    2    0    0  0.53380301684E+02  0.28141329154E+02 -0.12249703165E+03  0.13655370291E+03  0.00000000000E+00 0.  1.
         11    1    1    2    0    0 -0.22686209737E+02  0.85007761151E+02 -0.20509941349E+03  0.22317426595E+03  0.00000000000E+00 0. -1.
</event>
<event>
 7    1  0.2728221E-009  0.1049394E+03  0.7561462E-02  0.1270239E+00
         -2   -1    0    0    0  501 -0.00000000000E+00  0.00000000000E+00  0.46349640948E+02  0.46349640948E+02  0.00000000000E+00 0. -1.
          2   -1    0    0  501    0  0.00000000000E+00 -0.00000000000E+00 -0.40826918658E+03  0.40826918658E+03  0.00000000000E+00 0.  1.
         25    2    1    2    0    0  0.50602281179E+02  0.38043897909E+02 -0.10717405274E+03  0.17647228522E+03  0.12509300876E+03 0.  0.
          5    1    3    3  502    0  0.43174151409E+02 -0.27148535469E+02 -0.97370825964E+02  0.10999818397E+03  0.41800000000E+01 0. -1.
         -5    1    3    3    0  502  0.74281297705E+01  0.65192433377E+02 -0.98032267753E+01  0.66474101248E+02  0.41800000000E+01 0. -1.
        -11    1    1    2    0    0 -0.34193617845E+02  0.15071461728E+02 -0.18609587763E+03  0.18981050585E+03  0.00000000000E+00 0.  1.
         11    1    1    2    0    0 -0.16408663335E+02 -0.53115359636E+02 -0.68649615266E+02  0.88336036462E+02  0.00000000000E+00 0. -1.
</event>
<event>
 7    1  0.2728221E-009  0.1008003E+03  0.7561462E-02  0.1278622E+00
          2   -1    0    0  501    0  0.00000000000E+00  0.00000000000E+00  0.88851561918E+02  0.88851561918E+02  0.00000000000E+00 0. -1.
         -2   -1    0    0    0  501 -0.00000000000E+00 -0.00000000000E+00 -0.20409747387E+03  0.20409747387E+03  0.00000000000E+00 0.  1.
         25    2    1    2    0    0  0.25618432464E+02  0.51905791229E+02 -0.12129029588E+03  0.18361050024E+03  0.12510381561E+03 0.  0.
          5    1    3    3  502    0 -0.85981680109E+01  0.82680876911E+02 -0.10634549475E+03  0.13504403931E+03  0.41800000000E+01 0.  1.
         -5    1    3    3    0  502  0.34216600474E+02 -0.30775085682E+02 -0.14944801130E+02  0.48566460933E+02  0.41800000000E+01 0.  1.
        -11    1    1    2    0    0  0.12199671666E+02 -0.14763358314E+02 -0.36599244400E+02  0.41307304780E+02  0.00000000000E+00 0.  1.
         11    1    1    2    0    0 -0.37818104130E+02 -0.37142432915E+02  0.42643628325E+02  0.68031230766E+02  0.00000000000E+00 0. -1.
</event>
<event>
 7    1  0.2728221E-009  0.1047937E+03  0.7561462E-02  0.1270527E+00
         -2   -1    0    0    0  501 -0.00000000000E+00  0.00000000000E+00  0.62519834678E+02  0.62519834678E+02  0.00000000000E+00 0.  1.
          2   -1    0    0  501    0  0.00000000000E+00 -0.00000000000E+00 -0.24849254272E+03  0.24849254272E+03  0.00000000000E+00 0. -1.
         25    2    1    2    0    0 -0.39674652508E+02 -0.41519065069E+02 -0.78278407695E+02  0.15834554433E+03  0.12509153241E+03 0.  0.
          5    1    3    3  502    0  0.43214118845E+02  0.15402265480E+01 -0.32413661156E+02  0.54202861501E+02  0.41800000000E+01 0. -1.
         -5    1    3    3    0  502 -0.82888771354E+02 -0.43059291617E+02 -0.45864746540E+02  0.10414268283E+03  0.41800000000E+01 0. -1.
        -11    1    1    2    0    0  0.28468264206E+02  0.50708148927E+02 -0.12019780950E+03  0.13352629645E+03  0.00000000000E+00 0. -1.
         11    1    1    2    0    0  0.11206388302E+02 -0.91890838577E+01  0.12503509156E+02  0.19140536621E+02  0.00000000000E+00 0.  1.
</event>
<event>
 7    1  0.2728221E-009  0.2816376E+03  0.7561462E-02  0.1094798E+00
          2   -1    0    0  501    0  0.00000000000E+00  0.00000000000E+00  0.46799371285E+03  0.46799371285E+03  0.00000000000E+00 0. -1.
         -2   -1    0    0    0  501 -0.00000000000E+00 -0.00000000000E+00 -0.26702498476E+03  0.26702498476E+03  0.00000000000E+00 0.  1.
         25    2    1    2    0    0 -0.23834514099E+03  0.10979401863E+03 -0.11697313912E+03  0.31336127831E+03  0.12509773264E+03 0.  0.
          5    1    3    3  502    0  0.11068626512E+02  0.15811146957E+02 -0.23924383364E+02  0.31021853270E+02  0.41800000000E+01 0. -1.
         -5    1    3    3    0  502 -0.24941376750E+03  0.93982871670E+02 -0.93048755753E+02  0.28233942504E+03  0.41800000000E+01 0. -1.
        -11    1    1    2    0    0  0.19228132096E+03 -0.12395169335E+03  0.26226548982E+03  0.34802200480E+03  0.00000000000E+00 0.  1.
         11    1    1    2    0    0  0.46063820027E+02  0.14157674722E+02  0.55676377384E+02  0.73635414494E+02  0.00000000000E+00 0. -1.
</event>
<event>
 7    1  0.2728221E-009  0.1075509E+03  0.7561462E-02  0.1265174E+00
         -4   -1    0    0    0  501 -0.00000000000E+00  0.00000000000E+00  0.37226603006E+03  0.37226603006E+03  0.00000000000E+00 0.  1.
          4   -1    0    0  501    0  0.00000000000E+00 -0.00000000000E+00 -0.64563813209E+02  0.64563813209E+02  0.00000000000E+00 0. -1.
         25    2    1    2    0    0 -0.53803511273E+02  0.18700266816E+02  0.32110279542E+02  0.14114708462E+03  0.12508761585E+03 0.  0.
          5    1    3    3  502    0  0.28000899392E+02 -0.53117539772E+01 -0.25250835534E+02  0.38305902839E+02  0.41800000000E+01 0.  1.
         -5    1    3    3    0  502 -0.81804410666E+02  0.24012020793E+02  0.57361115077E+02  0.10284118178E+03  0.41800000000E+01 0.  1.
        -11    1    1    2    0    0 -0.13515087521E+02 -0.29790226453E+02  0.14149878699E+03  0.14523092612E+03  0.00000000000E+00 0.  1.
         11    1    1    2    0    0  0.67318598795E+02  0.11089959637E+02  0.13409315032E+03  0.15045183253E+03  0.00000000000E+00 0. -1.
</event>
<event>
 7    1  0.2728221E-009  0.3313724E+03  0.7561462E-02  0.1070531E+00
         -1   -1    0    0    0  501 -0.00000000000E+00  0.00000000000E+00  0.47676467908E+03  0.47676467908E+03  0.00000000000E+00 0.  1.
          1   -1    0    0  501    0  0.00000000000E+00 -0.00000000000E+00 -0.28825957346E+03  0.28825957346E+03  0.00000000000E+00 0. -1.
         25    2    1    2    0    0 -0.15385073622E+03 -0.28544969548E+03  0.24301864158E+03  0.42409708743E+03  0.12509477098E+03 0.  0.
          5    1    3    3  502    0 -0.65197198251E+01 -0.43551474345E+02  0.94314827404E+02  0.10417291746E+03  0.41800000000E+01 0.  1.
         -5    1    3    3    0  502 -0.14733101639E+03 -0.24189822113E+03  0.14870381418E+03  0.31992416997E+03  0.41800000000E+01 0.  1.
        -11    1    1    2    0    0  0.15364736096E+03  0.21214531440E+03 -0.30104165238E+02  0.26366533090E+03  0.00000000000E+00 0. -1.
         11    1    1    2    0    0  0.20337525444E+00  0.73304381072E+02 -0.24409370722E+02  0.77261834206E+02  0.00000000000E+00 0.  1.
</event>
<event>
 7    1  0.2728221E-009  0.9724802E+02  0.7561462E-02  0.1286192E+00
         -3   -1    0    0    0  501 -0.00000000000E+00  0.00000000000E+00  0.17541144376E+02  0.17541144376E+02  0.00000000000E+00 0.  1.
          3   -1    0    0  501    0  0.00000000000E+00 -0.00000000000E+00 -0.12131484157E+04  0.12131484157E+04  0.00000000000E+00 0. -1.
         25    2    1    2    0    0  0.11640210837E+02  0.35588956418E+02 -0.10293125924E+04  0.10375617946E+04  0.12509195217E+03 0.  0.
          5    1    3    3  502    0 -0.37196002778E+02  0.58496706485E+02 -0.40516889806E+03  0.41107750564E+03  0.41800000000E+01 0. -1.
         -5    1    3    3    0  502  0.48836213615E+02 -0.22907750068E+02 -0.62414369430E+03  0.62648428896E+03  0.41800000000E+01 0. -1.
        -11    1    1    2    0    0  0.24207108015E+02 -0.73107086940E+01 -0.13600513683E+03  0.13833592369E+03  0.00000000000E+00 0. -1.
         11    1    1    2    0    0 -0.35847318852E+02 -0.28278247724E+02 -0.30289542133E+02  0.54791841782E+02  0.00000000000E+00 0.  1.
</event>
<event>
 7    1  0.2728221E-009  0.1196578E+03  0.7561462E-02  0.1243663E+00
          1   -1    0    0  501    0  0.00000000000E+00  0.00000000000E+00  0.54070228624E+03  0.54070228624E+03  0.00000000000E+00 0. -1.
         -1   -1    0    0    0  501 -0.00000000000E+00 -0.00000000000E+00 -0.32707399175E+02  0.32707399175E+02  0.00000000000E+00 0.  1.
         25    2    1    2    0    0 -0.60166089804E+02  0.38160755113E+02  0.34484408561E+03  0.37368658207E+03  0.12509203268E+03 0.  0.
          5    1    3    3  502    0 -0.77774357477E+02 -0.21742556007E+02  0.17855001971E+03  0.19600809004E+03  0.41800000000E+01 0. -1.
         -5    1    3    3    0  502  0.17608267673E+02  0.59903311120E+02  0.16629406590E+03  0.17767849202E+03  0.41800000000E+01 0. -1.
        -11    1    1    2    0    0  0.13259513464E+02 -0.46392564005E+02  0.26579852128E+02  0.55086960629E+02  0.00000000000E+00 0.  1.
         11    1    1    2    0    0  0.46906576341E+02  0.82318088920E+01  0.13657094932E+03  0.14463614272E+03  0.00000000000E+00 0. -1.
</event>
<event>
 7    1  0.2728221E-009  0.1189848E+03  0.7561462E-02  0.1244781E+00
         -1   -1    0    0    0  501 -0.00000000000E+00  0.00000000000E+00  0.39144698746E+02  0.39144698746E+02  0.00000000000E+00 0.  1.
          1   -1    0    0  501    0  0.00000000000E+00 -0.00000000000E+00 -0.11088683089E+04  0.11088683089E+04  0.00000000000E+00 0. -1.
         25    2    1    2    0    0  0.70031856368E+02 -0.40118948020E+02 -0.10160871503E+04  0.10269346845E+04  0.12509100046E+03 0.  0.
          5    1    3    3  502    0  0.55264004239E+02 -0.80954973238E+02 -0.83122543742E+03  0.83699523181E+03  0.41800000000E+01 0. -1.
         -5    1    3    3    0  502  0.14767852130E+02  0.40836025219E+02 -0.18486171283E+03  0.18993945267E+03  0.41800000000E+01 0. -1.
        -11    1    1    2    0    0 -0.62550039003E+02  0.52571669906E+02 -0.63531224790E+02  0.10350122888E+03  0.00000000000E+00 0. -1.
         11    1    1    2    0    0 -0.74818173654E+01 -0.12452721886E+02  0.98947648473E+01  0.17577094323E+02  0.00000000000E+00 0.  1.
</event>
<event>
 7    1  0.2728221E-009  0.1775628E+03  0.7561462E-02  0.1170183E+00
          2   -1    0    0  501    0  0.00000000000E+00  0.00000000000E+00  0.59809261953E+03  0.59809261953E+03  0.00000000000E+00 0.  1.
         -2   -1    0    0    0  501 -0.00000000000E+00 -0.00000000000E+00 -0.62285702567E+02  0.62285702567E+02  0.00000000000E+00 0. -1.
         25    2    1    2    0    0  0.14189895666E+03  0.46908547281E+02  0.37601067706E+03  0.42351827513E+03  0.12509186384E+03 0.  0.
          5    1    3    3  502    0  0.89045618518E+02  0.89689652435E+02  0.25563024565E+03  0.28519756455E+03  0.41800000000E+01 0. -1.
         -5    1    3    3    0  502  0.52853338142E+02 -0.42781105154E+02  0.12038043141E+03  0.13832071058E+03  0.41800000000E+01 0. -1.
        -11    1    1    2    0    0  0.29540274629E+01 -0.10886017004E+02  0.50795027170E+02  0.52032359448E+02  0.00000000000E+00 0.  1.
         11    1    1    2    0    0 -0.14485298412E+03 -0.36022530277E+02  0.10900121274E+03  0.18482768752E+03  0.00000000000E+00 0. -1.
</event>
<event>
 7    1  0.2728221E-009  0.8832196E+02  0.7561462E-02  0.1306967E+00
          3   -1    0    0  501    0  0.00000000000E+00  0.00000000000E+00  0.21457961859E+03  0.21457961859E+03  0.00000000000E+00 0. -1.
         -3   -1    0    0    0  501 -0.00000000000E+00 -0.00000000000E+00 -0.56470286352E+02  0.56470286352E+02  0.00000000000E+00 0.  1.
         25    2    1    2    0    0 -0.80012675877E+01  0.10681903407E+02  0.10901137567E+03  0.16646099057E+03  0.12509059922E+03 0.  0.
          5    1    3    3  502    0 -0.10865815785E+02 -0.38902209569E+02 -0.60621672779E+01  0.41056913354E+02  0.41800000000E+01 0.  1.
         -5    1    3    3    0  502  0.28645481973E+01  0.49584112977E+02  0.11507354295E+03  0.12540407722E+03  0.41800000000E+01 0.  1.
        -11    1    1    2    0    0  0.45260332191E+02 -0.17107476956E+02  0.45819862498E+02  0.66638001449E+02  0.00000000000E+00 0.  1.
         11    1    1    2    0    0 -0.37259064603E+02  0.64255735482E+01  0.32780940639E+01  0.37950912917E+02  0.00000000000E+00 0. -1.
</event>
<event>
 7    1  0.2728221E-009  0.1308274E+03  0.7561462E-02  0.1226233E+00
          2   -1    0    0  501    0  0.00000000000E+00  0.00000000000E+00  0.90341972969E+03  0.90341972969E+03  0.00000000000E+00 0. -1.
         -2   -1    0    0    0  501 -0.00000000000E+00 -0.00000000000E+00 -0.23568440825E+02  0.23568440825E+02  0.00000000000E+00 0.  1.
         25    2    1    2    0    0 -0.48260735669E+02 -0.86896807303E+02  0.51488417648E+03  0.53910561280E+03  0.12509593453E+03 0.  0.
          5    1    3    3  502    0  0.52977742872E+01 -0.75037516162E+02  0.12955427274E+03  0.14986819953E+03  0.41800000000E+01 0.  1.
         -5    1    3    3    0  502 -0.53558509956E+02 -0.11859291141E+02  0.38532990374E+03  0.38923741327E+03  0.41800000000E+01 0.  1.
        -11    1    1    2    0    0  0.21608007957E+02 -0.14785412636E+02  0.76994784138E+02  0.81324726985E+02  0.00000000000E+00 0.  1.
         11    1    1    2    0    0  0.26652727712E+02  0.10168221994E+03  0.28797232825E+03  0.30655783074E+03  0.00000000000E+00 0. -1.
</event>
<event>
 7    1  0.2728221E-009  0.1865260E+03  0.7561462E-02  0.1161633E+00
          2   -1    0    0  501    0  0.00000000000E+00  0.00000000000E+00  0.17432128973E+04  0.17432128973E+04  0.00000000000E+00 0. -1.
         -2   -1    0    0    0  501 -0.00000000000E+00 -0.00000000000E+00 -0.24349769690E+02  0.24349769690E+02  0.00000000000E+00 0.  1.
         25    2    1    2    0    0 -0.16378011598E+03  0.41693680025E+02  0.10626119354E+04  0.10832147650E+04  0.12509121627E+03 0.  0.
          5    1    3    3  502    0 -0.12378463359E+03  0.57211630491E+02  0.98528536900E+03  0.99468614997E+03  0.41800000000E+01 0.  1.
         -5    1    3    3    0  502 -0.39995482393E+02 -0.15517950466E+02  0.77326566449E+02  0.88528615020E+02  0.41800000000E+01 0.  1.
        -11    1    1    2    0    0  0.40319621788E+02  0.30448363068E+02  0.19509052894E+03  0.20152689448E+03  0.00000000000E+00 0. -1.
         11    1    1    2    0    0  0.12346049419E+03 -0.72142043093E+02  0.46116066325E+03  0.48282100755E+03  0.00000000000E+00 0.  1.
</event>
<event>
 7    1  0.2728221E-009  0.1643026E+03  0.7561462E-02  0.1183923E+00
          2   -1    0    0  501    0  0.00000000000E+00  0.00000000000E+00  0.20865155279E+03  0.20865155279E+03  0.00000000000E+00 0. -1.
         -2   -1    0    0    0  501 -0.00000000000E+00 -0.00000000000E+00 -0.20625046951E+03  0.20625046951E+03  0.00000000000E+00 0.  1.
         25    2    1    2    0    0 -0.87593570317E+02 -0.93481266534E+02  0.12280065725E+03  0.21711673190E+03  0.12509313770E+03 0.  0.
          5    1    3    3  502    0  0.28758775295E+02 -0.26082567335E+02  0.52194953194E+02  0.65185527644E+02  0.41800000000E+01 0.  1.
         -5    1    3    3    0  502 -0.11635234561E+03 -0.67398699199E+02  0.70605704055E+02  0.15193120426E+03  0.41800000000E+01 0.  1.
        -11    1    1    2    0    0  0.16488639452E+02 -0.16974134350E+02 -0.30507459313E+02  0.38609604267E+02  0.00000000000E+00 0. -1.
         11    1    1    2    0    0  0.71104930865E+02  0.11045540088E+03 -0.89892114658E+02  0.15917568613E+03  0.00000000000E+00 0.  1.
</event>
<event>
 7    1  0.2728221E-009  0.1333877E+03  0.7561462E-02  0.1222514E+00
         -3   -1    0    0    0  501 -0.00000000000E+00  0.00000000000E+00  0.21267548817E+03  0.21267548817E+03  0.00000000000E+00 0.  1.
          3   -1    0    0  501    0  0.00000000000E+00 -0.00000000000E+00 -0.11621445496E+03  0.11621445496E+03  0.00000000000E+00 0. -1.
         25    2    1    2    0    0  0.96190033055E+02 -0.45048256822E+02  0.93716168326E+02  0.18897559128E+03  0.12508871249E+03 0.  0.
          5    1    3    3  502    0 -0.17055196740E+02 -0.17252870079E+01 -0.17166073026E+02  0.24617124410E+02  0.41800000000E+01 0.  1.
         -5    1    3    3    0  502  0.11324522980E+03 -0.43322969814E+02  0.11088224135E+03  0.16435846687E+03  0.41800000000E+01 0.  1.
        -11    1    1    2    0    0 -0.49266384017E+02 -0.15094968322E+02 -0.26836695955E+02  0.58096840814E+02  0.00000000000E+00 0. -1.
         11    1    1    2    0    0 -0.46923649038E+02  0.60143225144E+02  0.29581560842E+02  0.81817511033E+02  0.00000000000E+00 0.  1.
</event>
<event>
 7    1  0.2728221E-009  0.1353257E+03  0.7561462E-02  0.1219761E+00
         -1   -1    0    0    0  501 -0.00000000000E+00  0.00000000000E+00  0.77705958740E+02  0.77705958740E+02  0.00000000000E+00 0.  1.
          1   -1    0    0  501    0  0.00000000000E+00 -0.00000000000E+00 -0.30534217750E+03  0.30534217750E+03  0.00000000000E+00 0. -1.
         25    2    1    2    0    0 -0.45360686330E+02 -0.88387584400E+02 -0.17685406741E+03  0.23831635331E+03  0.12508943263E+03 0.  0.
          5    1    3    3  502    0 -0.86892201906E+02 -0.41197261681E+02 -0.97705751869E+02  0.13715449490E+03  0.41800000000E+01 0. -1.
         -5    1    3    3    0  502  0.41531515576E+02 -0.47190322719E+02 -0.79148315539E+02  0.10116185841E+03  0.41800000000E+01 0. -1.
        -11    1    1    2    0    0  0.21212743987E+02  0.84269156528E+02  0.15912312054E+01  0.86912618566E+02  0.00000000000E+00 0.  1.
         11    1    1    2    0    0  0.24147942343E+02  0.41184278720E+01 -0.52373382562E+02  0.57819164371E+02  0.00000000000E+00 0. -1.
</event>
<event>
 7    1  0.2728221E-009  0.9191406E+02  0.7561462E-02  0.1298282E+00
          2   -1    0    0  501    0  0.00000000000E+00  0.00000000000E+00  0.78555556647E+03  0.78555556647E+03  0.00000000000E+00 0. -1.
         -2   -1    0    0    0  501 -0.00000000000E+00 -0.00000000000E+00 -0.21852969282E+02  0.21852969282E+02  0.00000000000E+00 0.  1.
         25    2    1    2    0    0  0.42749570031E+02  0.26918658569E+02  0.26131208316E+03  0.29407963404E+03  0.12508671566E+03 0.  0.
          5    1    3    3  502    0  0.16455799593E+02 -0.19219602113E+02  0.23173633443E+03  0.23315099729E+03  0.41800000000E+01 0. -1.
         -5    1    3    3    0  502  0.26293770438E+02  0.46138260682E+02  0.29575748730E+02  0.60928636744E+02  0.41800000000E+01 0. -1.
        -11    1    1    2    0    0  0.28256008856E+02 -0.17627190352E+02  0.13727167634E+03  0.14125378934E+03  0.00000000000E+00 0.  1.
         11    1    1    2    0    0 -0.71005578887E+02 -0.92914682172E+01  0.36511883769E+03  0.37207511238E+03  0.00000000000E+00 0. -1.
</event>
<event>
 7    1  0.2728221E-009  0.2547355E+03  0.7561462E-02  0.1110348E+00
         -2   -1    0    0    0  501 -0.00000000000E+00  0.00000000000E+00  0.46171677323E+02  0.46171677323E+02  0.00000000000E+00 0.  1.
          2   -1    0    0  501    0  0.00000000000E+00 -0.00000000000E+00 -0.18296097233E+04  0.18296097233E+04  0.00000000000E+00 0. -1.
         25    2    1    2    0    0  0.24393684435E+03  0.54664418469E+02 -0.12335901353E+04  0.12648660631E+04  0.12509257716E+03 0.  0.
          5    1    3    3  502    0  0.18815762930E+03  0.28624736906E+02 -0.63008579351E+03  0.65821595895E+03  0.41800000000E+01 0. -1.
         -5    1    3    3    0  502  0.55779215055E+02  0.26039681564E+02 -0.60350434183E+03  0.60665010414E+03  0.41800000000E+01 0. -1.
        -11    1    1    2    0    0 -0.13194615831E+03  0.18528659814E+01 -0.20339719902E+03  0.24245338185E+03  0.00000000000E+00 0.  1.
         11    1    1    2    0    0 -0.11199068605E+03 -0.56517284451E+02 -0.34645071161E+03  0.36846195568E+03  0.00000000000E+00 0. -1.
</event>
<event>
 7    1  0.2728221E-009  0.1001007E+03  0.7561462E-02  0.1280084E+00
         -1   -1    0    0    0  501 -0.00000000000E+00  0.00000000000E+00  0.41898430892E+03  0.41898430892E+03  0.00000000000E+00 0.  1.
          1   -1    0    0  501    0  0.00000000000E+00 -0.00000000000E+00 -0.58950796394E+02  0.58950796394E+02  0.00000000000E+00 0. -1.
         25    2    1    2    0    0 -0.11862043473E+02  0.89390160194E+02  0.81072351418E+02  0.17421595417E+03  0.12508862341E+03 0.  0.
          5    1    3    3  502    0 -0.85075157084E+01  0.14387825761E+02 -0.33210854002E+02  0.37414176153E+02  0.41800000000E+01 0. -1.
         -5    1    3    3    0  502 -0.33545277646E+01  0.75002334433E+02  0.11428320542E+03  0.13680177802E+03  0.41800000000E+01 0. -1.
        -11    1    1    2    0    0 -0.22610839371E+02 -0.53156162734E+02  0.21444074779E+03  0.22208480814E+03  0.00000000000E+00 0.  1.
         11    1    1    2    0    0  0.34472882844E+02 -0.36233997460E+02  0.64520413322E+02  0.81634343010E+02  0.00000000000E+00 0. -1.
</event>
<event>
 7    1  0.2728221E-009  0.1127870E+03  0.7561462E-02  0.1255494E+00
          1   -1    0    0  501    0  0.00000000000E+00  0.00000000000E+00  0.24734268951E+03  0.24734268951E+03  0.00000000000E+00 0. -1.
         -1   -1    0    0    0  501 -0.00000000000E+00 -0.00000000000E+00 -0.73374099533E+02  0.73374099533E+02  0.00000000000E+00 0.  1.
         25    2    1    2    0    0 -0.74393959784E+02  0.15083093463E+02  0.12571817157E+03  0.19288938379E+03  0.12505716595E+03 0.  0.
          5    1    3    3  502    0  0.20267618739E+02 -0.33821589238E+02  0.33012769781E+02  0.51594492308E+02  0.41800000000E+01 0.  1.
         -5    1    3    3    0  502 -0.94661578523E+02  0.48904682700E+02  0.92705401787E+02  0.14129489148E+03  0.41800000000E+01 0.  1.
        -11    1    1    2    0    0  0.30591264147E+02  0.51875326469E+01 -0.25176712911E+02  0.39957512561E+02  0.00000000000E+00 0.  1.
         11    1    1    2    0    0  0.43802695637E+02 -0.20270626109E+02  0.73427131323E+02  0.87869892695E+02  0.00000000000E+00 0. -1.
</event>
<event>
 7    1  0.2728221E-009  0.9593430E+02  0.7561462E-02  0.1289086E+00
          1   -1    0    0  501    0  0.00000000000E+00  0.00000000000E+00  0.65755212920E+02  0.65755212920E+02  0.00000000000E+00 0. -1.
         -1   -1    0    0    0  501 -0.00000000000E+00 -0.00000000000E+00 -0.40832345266E+03  0.40832345266E+03  0.00000000000E+00 0.  1.
         25    2    1    2    0    0  0.51758476143E+02  0.64585260357E+02 -0.31267023190E+03  0.34678734241E+03  0.12509432932E+03 0.  0.
          5    1    3    3  502    0  0.56555402105E+01  0.23520925656E+02  0.33395068958E+01  0.24775871026E+02  0.41800000000E+01 0.  1.
         -5    1    3    3    0  502  0.46102935932E+02  0.41064334701E+02 -0.31600973880E+03  0.32201147138E+03  0.41800000000E+01 0.  1.
        -11    1    1    2    0    0  0.13408747922E+02 -0.27157802752E+02 -0.41368280980E+02  0.51270609929E+02  0.00000000000E+00 0.  1.
         11    1    1    2    0    0 -0.65167224065E+02 -0.37427457605E+02  0.11470273149E+02  0.76020713238E+02  0.00000000000E+00 0. -1.
</event>
<event>
 7    1  0.2728221E-009  0.1529443E+03  0.7561462E-02  0.1196901E+00
         -1   -1    0    0    0  501 -0.00000000000E+00  0.00000000000E+00  0.54210114117E+02  0.54210114117E+02  0.00000000000E+00 0.  1.
          1   -1    0    0  501    0  0.00000000000E+00 -0.00000000000E+00 -0.11892312678E+04  0.11892312678E+04  0.00000000000E+00 0. -1.
         25    2    1    2    0    0  0.92229112023E+02  0.11138293325E+03 -0.10196403977E+04  0.10374134173E+04  0.12509072981E+03 0.  0.
          5    1    3    3  502    0  0.78643862133E+02  0.11663542313E+03 -0.10093086510E+04  0.10190731595E+04  0.41800000000E+01 0. -1.
         -5    1    3    3    0  502  0.13585249890E+02 -0.52524898798E+01 -0.10331746713E+02  0.18340257758E+02  0.41800000000E+01 0. -1.
        -11    1    1    2    0    0 -0.81669509621E+02 -0.70860906387E+02 -0.12267219690E+03  0.16352261234E+03  0.00000000000E+00 0. -1.
         11    1    1    2    0    0 -0.10559602402E+02 -0.40522026859E+02  0.72914409593E+01  0.42505352309E+02  0.00000000000E+00 0.  1.
</event>
<event>
 7    1  0.2728221E-009  0.1085786E+03  0.7561462E-02  0.1263225E+00
         -2   -1    0    0    0  501 -0.00000000000E+00  0.00000000000E+00  0.34740688413E+02  0.34740688413E+02  0.00000000000E+00 0.  1.
          2   -1    0    0  501    0  0.00000000000E+00 -0.00000000000E+00 -0.46064556661E+03  0.46064556661E+03  0.00000000000E+00 0. -1.
         25    2    1    2    0    0 -0.32929106180E+02  0.53812107068E+02 -0.19442483539E+03  0.23964360588E+03  0.12509185554E+03 0.  0.
          5    1    3    3  502    0 -0.75594223371E+02  0.11518741625E+02 -0.13396841687E+03  0.15431194748E+03  0.41800000000E+01 0.  1.
         -5    1    3    3    0  502  0.42665117191E+02  0.42293365443E+02 -0.60456418522E+02  0.85331658403E+02  0.41800000000E+01 0.  1.
        -11    1    1    2    0    0 -0.13373363328E+02 -0.12230348187E+02 -0.23055813910E+01  0.18268660844E+02  0.00000000000E+00 0.  1.
         11    1    1    2    0    0  0.46302469508E+02 -0.41581758880E+02 -0.22917446142E+03  0.23747398830E+03  0.00000000000E+00 0. -1.
</event>
<event>
 6    1  0.2728221E-009  0.1111664E+03  0.7561462E-02  0.1258425E+00
          2   -1    0    0  501    0  0.00000000000E+00  0.00000000000E+00  0.19671403554E+03  0.19671403554E+03  0.00000000000E+00 0. -1.
         -2   -1    0    0    0  501 -0.00000000000E+00 -0.00000000000E+00 -0.69262522993E+02  0.69262522993E+02  0.00000000000E+00 0.  1.
          5    1    1    2  502    0 -0.44998719373E+02  0.45895703611E+01  0.20237172092E+02  0.49728909455E+02  0.41800000000E+01 0.  1.
         -5    1    1    2    0  502  0.80118328690E+02 -0.29441823743E+02  0.70073462562E+02  0.11051484123E+03  0.41800000000E+01 0.  1.
        -11    1    1    2    0    0  0.61699323856E+00 -0.27804100375E+02 -0.65102244635E+01  0.28562767738E+02  0.00000000000E+00 0.  1.
         11    1    1    2    0    0 -0.35736602555E+02  0.52656353757E+02  0.43651102355E+02  0.77170040106E+02  0.00000000000E+00 0. -1.
</event>
<event>
 7    1  0.2728221E-009  0.1074294E+03  0.7561462E-02  0.1265406E+00
         -2   -1    0    0    0  501 -0.00000000000E+00  0.00000000000E+00  0.10635244802E+03  0.10635244802E+03  0.00000000000E+00 0.  1.
          2   -1    0    0  501    0  0.00000000000E+00 -0.00000000000E+00 -0.12150766422E+03  0.12150766422E+03  0.00000000000E+00 0. -1.
         25    2    1    2    0    0 -0.64715071985E+01 -0.12601174706E+02  0.21979519518E+02  0.12779536800E+03  0.12509151368E+03 0.  0.
          5    1    3    3  502    0 -0.72100279500E+01  0.54624647643E+02  0.24372651449E+02  0.60393171566E+02  0.41800000000E+01 0.  1.
         -5    1    3    3    0  502  0.73852075146E+00 -0.67225822349E+02 -0.23931319312E+01  0.67402196432E+02  0.41800000000E+01 0.  1.
        -11    1    1    2    0    0  0.43315310950E+02 -0.15393742668E+02 -0.12479257722E+02  0.47633132894E+02  0.00000000000E+00 0.  1.
         11    1    1    2    0    0 -0.36843803752E+02  0.27994917374E+02 -0.24655477996E+02  0.52431611351E+02  0.00000000000E+00 0. -1.
</event>
<event>
 7    1  0.2728221E-009  0.1670521E+03  0.7561462E-02  0.1180957E+00
         -2   -1    0    0    0  501 -0.00000000000E+00  0.00000000000E+00  0.45250640063E+03  0.45250640063E+03  0.00000000000E+00 0.  1.
          2   -1    0    0  501    0  0.00000000000E+00 -0.00000000000E+00 -0.64572324232E+02  0.64572324232E+02  0.00000000000E+00 0. -1.
         25    2    1    2    0    0  0.15999932500E+02  0.12702002625E+03  0.25715009336E+03  0.31331348080E+03  0.12509629021E+03 0.  0.
          5    1    3    3  502    0 -0.57445612405E+01 -0.24099970529E+02  0.25136606735E+02  0.35540539691E+02  0.41800000000E+01 0.  1.
         -5    1    3    3    0  502  0.21744493741E+02  0.15111999678E+03  0.23201348662E+03  0.27777294110E+03  0.41800000000E+01 0.  1.
        -11    1    1    2    0    0  0.10955934843E+02 -0.12876760175E+03  0.10905414771E+03  0.16909741246E+03  0.00000000000E+00 0.  1.
         11    1    1    2    0    0 -0.26955867344E+02  0.17475755041E+01  0.21729835325E+02  0.34667831597E+02  0.00000000000E+00 0. -1.
</event>
<event>
 7    1  0.2728221E-009  0.2039755E+03  0.7561462E-02  0.1146428E+00
         -3   -1    0    0    0  501 -0.00000000000E+00  0.00000000000E+00  0.53349452102E+03  0.53349452102E+03  0.00000000000E+00 0.  1.
          3   -1    0    0  501    0  0.00000000000E+00 -0.00000000000E+00 -0.86554649739E+02  0.86554649739E+02  0.00000000000E+00 0. -1.
         25    2    1    2    0    0 -0.11025961009E+03  0.14669137574E+03  0.27319831368E+03  0.35207753551E+03  0.12508289681E+03 0.  0.
          5    1    3    3  502    0  0.25625264624E+02  0.28867924818E+02  0.27591137811E+02  0.47631445034E+02  0.41800000000E+01 0. -1.
         -5    1    3    3    0  502 -0.13588487471E+03  0.11782345093E+03  0.24560717587E+03  0.30444609047E+03  0.41800000000E+01 0. -1.
        -11    1    1    2    0    0  0.88270720035E+02 -0.80464638430E+02  0.15506636662E+03  0.19573414651E+03  0.00000000000E+00 0.  1.
         11    1    1    2    0    0  0.21988890054E+02 -0.66226737314E+02  0.18675190970E+02  0.72237488735E+02  0.00000000000E+00 0. -1.
</event>
<event>
 7    1  0.2728221E-009  0.1165663E+03  0.7561462E-02  0.1248871E+00
         -1   -1    0    0    0  501 -0.00000000000E+00  0.00000000000E+00  0.42103052086E+03  0.42103052086E+03  0.00000000000E+00 0.  1.
          1   -1    0    0  501    0  0.00000000000E+00 -0.00000000000E+00 -0.53311566681E+02  0.53311566681E+02  0.00000000000E+00 0. -1.
         25    2    1    2    0    0  0.68581743705E+02  0.41757033379E+02  0.30140999825E+03  0.33606992922E+03  0.12509158595E+03 0.  0.
          5    1    3    3  502    0  0.54493253087E+02  0.68959269198E+02  0.10389165850E+03  0.13614640849E+03  0.41800000000E+01 0.  1.
         -5    1    3    3    0  502  0.14088490618E+02 -0.27202235819E+02  0.19751833975E+03  0.19992352073E+03  0.41800000000E+01 0.  1.
        -11    1    1    2    0    0 -0.28372050699E+02  0.23990596773E+02  0.44910789042E+02  0.58288085977E+02  0.00000000000E+00 0.  1.
         11    1    1    2    0    0 -0.40209693006E+02 -0.65747630152E+02  0.21398166883E+02  0.79984072341E+02  0.00000000000E+00 0. -1.
</event>
<event>
 7    1  0.2728221E-009  0.8757333E+02  0.7561462E-02  0.1308837E+00
          2   -1    0    0  501    0  0.00000000000E+00  0.00000000000E+00  0.40562089216E+02  0.40562089216E+02  0.00000000000E+00 0. -1.
         -2   -1    0    0    0  501 -0.00000000000E+00 -0.00000000000E+00 -0.32331062671E+03  0.32331062671E+03  0.00000000000E+00 0.  1.
         25    2    1    2    0    0 -0.13581223069E+02 -0.23765123565E+02 -0.11305600038E+03  0.17081728463E+03  0.12509058633E+03 0.  0.
          5    1    3    3  502    0 -0.27860055014E+02 -0.52774946279E+02 -0.12296245401E+03  0.13674287958E+03  0.41800000000E+01 0.  1.
         -5    1    3    3    0  502  0.14278831946E+02  0.29009822714E+02  0.99064536346E+01  0.34074405046E+02  0.41800000000E+01 0.  1.
        -11    1    1    2    0    0 -0.27953097566E+02 -0.94829584729E+01 -0.24296386490E+02  0.38231094170E+02  0.00000000000E+00 0. -1.
         11    1    1    2    0    0  0.41534320635E+02  0.33248082038E+02 -0.14539615063E+03  0.15482433713E+03  0.00000000000E+00 0.  1.
</event>
<event>
 7    1  0.2728221E-009  0.1903930E+03  0.7561462E-02  0.1158107E+00
         -2   -1    0    0    0  501 -0.00000000000E+00  0.00000000000E+00  0.10310501523E+03  0.10310501523E+03  0.00000000000E+00 0.  1.
          2   -1    0    0  501    0  0.00000000000E+00 -0.00000000000E+00 -0.49245985688E+03  0.49245985688E+03  0.00000000000E+00 0. -1.
         25    2    1    2    0    0 -0.41129854761E+02  0.16499400231E+03 -0.68062442206E+02  0.22179715353E+03  0.12508715171E+03 0.  0.
          5    1    3    3  502    0 -0.63988897312E+02  0.77669713606E+02 -0.82616263977E+02  0.13026927061E+03  0.41800000000E+01 0. -1.
         -5    1    3    3    0  502  0.22859042551E+02  0.87324288705E+02  0.14553821771E+02  0.91527882923E+02  0.41800000000E+01 0. -1.
        -11    1    1    2    0    0  0.59711685162E+02 -0.66097870362E+02 -0.17254204410E+03  0.19417819341E+03  0.00000000000E+00 0. -1.
         11    1    1    2    0    0 -0.18581830402E+02 -0.98896131949E+02 -0.14875035534E+03  0.17958952517E+03  0.00000000000E+00 0.  1.
</event>
<event>
 7    1  0.2728221E-009  0.8467115E+02  0.7561462E-02  0.1316295E+00
         -2   -1    0    0    0  501 -0.00000000000E+00  0.00000000000E+00  0.27992242997E+03  0.27992242997E+03  0.00000000000E+00 0.  1.
          2   -1    0    0  501    0  0.00000000000E+00 -0.00000000000E+00 -0.42279482941E+02  0.42279482941E+02  0.00000000000E+00 0. -1.
         25    2    1    2    0    0  0.32283137822E+02  0.31492885211E+02  0.17461880599E+03  0.21948617139E+03  0.12509376171E+03 0.  0.
          5    1    3    3  502    0  0.73892534643E+02  0.34277605710E+02  0.15036762085E+03  0.17106418307E+03  0.41800000000E+01 0.  1.
         -5    1    3    3    0  502 -0.41609396821E+02 -0.27847204989E+01  0.24251185137E+02  0.48421988318E+02  0.41800000000E+01 0.  1.
        -11    1    1    2    0    0 -0.21771530426E+02 -0.15483325039E+02 -0.89982216174E+01  0.28190439578E+02  0.00000000000E+00 0. -1.
         11    1    1    2    0    0 -0.10511607396E+02 -0.16009560171E+02  0.72022362665E+02  0.74525301950E+02  0.00000000000E+00 0.  1.
</event>
<event>
 7    1  0.2728221E-009  0.1240715E+03  0.7561462E-02  0.1236527E+00
         -1   -1    0    0    0  501 -0.00000000000E+00  0.00000000000E+00  0.50779613224E+02  0.50779613224E+02  0.00000000000E+00 0.  1.
          1   -1    0    0  501    0  0.00000000000E+00 -0.00000000000E+00 -0.74867850029E+03  0.74867850029E+03  0.00000000000E+00 0. -1.
         25    2    1    2    0    0  0.60877579388E+02 -0.71300430022E+02 -0.95937659208E+02  0.18341800502E+03  0.12509316175E+03 0.  0.
          5    1    3    3  502    0  0.12650571578E+02 -0.67941028633E+02  0.70284081462E+01  0.69590884849E+02  0.41800000000E+01 0. -1.
         -5    1    3    3    0  502  0.48227007810E+02 -0.33594013883E+01 -0.10296606735E+03  0.11382712017E+03  0.41800000000E+01 0. -1.
        -11    1    1    2    0    0  0.24141418899E+02  0.15982072369E+02 -0.11126791412E+03  0.11497296838E+03  0.00000000000E+00 0.  1.
         11    1    1    2    0    0 -0.85018998287E+02  0.55318357653E+02 -0.49069331373E+03  0.50106714012E+03  0.00000000000E+00 0. -1.
</event>
<event>
 7    1  0.2728221E-009  0.2632362E+03  0.7561462E-02  0.1105214E+00
          1   -1    0    0  501    0  0.00000000000E+00  0.00000000000E+00  0.73368863122E+03  0.73368863122E+03  0.00000000000E+00 0. -1.
         -1   -1    0    0    0  501 -0.00000000000E+00 -0.00000000000E+00 -0.10680497453E+03  0.10680497453E+03  0.00000000000E+00 0.  1.
         25    2    1    2    0    0  0.24439939731E+03  0.14032424787E+01  0.44313889262E+03  0.52129879113E+03  0.12508923611E+03 0.  0.
          5    1    3    3  502    0  0.18007336554E+02 -0.36957351738E+02  0.41054394952E+02  0.58249856327E+02  0.41800000000E+01 0.  1.
         -5    1    3    3    0  502  0.22639206076E+03  0.38360594216E+02  0.40208449766E+03  0.46304893481E+03  0.41800000000E+01 0.  1.
        -11    1    1    2    0    0 -0.24038384880E+03 -0.15452991733E+02  0.18609838739E+03  0.30439415156E+03  0.00000000000E+00 0. -1.
         11    1    1    2    0    0 -0.40155485105E+01  0.14049749255E+02 -0.23536233124E+01  0.14800663048E+02  0.00000000000E+00 0.  1.
</event>
<event>
 7    1  0.2728221E-009  0.8094828E+02  0.7561462E-02  0.1326382E+00
         -1   -1    0    0    0  501 -0.00000000000E+00  0.00000000000E+00  0.68151207276E+02  0.68151207276E+02  0.00000000000E+00 0.  1.
          1   -1    0    0  501    0  0.00000000000E+00 -0.00000000000E+00 -0.20882917609E+03  0.20882917609E+03  0.00000000000E+00 0. -1.
         25    2    1    2    0    0  0.26569724658E+02 -0.40184440304E+02 -0.65558834272E+02  0.14922062751E+03  0.12509234753E+03 0.  0.
          5    1    3    3  502    0 -0.34213683711E+01 -0.31392039738E+02  0.32925395641E+02  0.45811788860E+02  0.41800000000E+01 0. -1.
         -5    1    3    3    0  502  0.29991093029E+02 -0.87924005656E+01 -0.98484229913E+02  0.10340883865E+03  0.41800000000E+01 0. -1.
        -11    1    1    2    0    0 -0.55938626334E+02  0.10809688950E+02 -0.23821011077E+02  0.61752893536E+02  0.00000000000E+00 0.  1.
         11    1    1    2    0    0  0.29368901677E+02  0.29374751353E+02 -0.51298123460E+02  0.66006862319E+02  0.00000000000E+00 0. -1.
</event>
<event>
 7    1  0.2728221E-009  0.2394844E+03  0.7561462E-02  0.1120137E+00
         -1   -1    0    0    0  501 -0.00000000000E+00  0.00000000000E+00  0.30881860575E+03  0.30881860575E+03  0.00000000000E+00 0. -1.
          1   -1    0    0  501    0  0.00000000000E+00 -0.00000000000E+00 -0.28531581502E+03  0.28531581502E+03  0.00000000000E+00 0.  1.
         25    2    1    2    0    0 -0.20231471662E+03  0.80120551095E+02  0.15781017306E+03  0.29648344972E+03  0.12509131851E+03 0.  0.
          5    1    3    3  502    0 -0.15882626685E+03 -0.91593020187E+00  0.97121533077E+02  0.18621677303E+03  0.41800000000E+01 0.  1.
         -5    1    3    3    0  502 -0.43488449765E+02  0.81036481297E+02  0.60688639986E+02  0.11026667669E+03  0.41800000000E+01 0.  1.
        -11    1    1    2    0    0  0.19586450108E+03 -0.90531130323E+02 -0.16037660801E+03  0.26884836756E+03  0.00000000000E+00 0.  1.
         11    1    1    2    0    0  0.64502155336E+01  0.10410579227E+02  0.26069225682E+02  0.28802603493E+02  0.00000000000E+00 0. -1.
</event>
<event>
 7    1  0.3324719E-009  0.7716366E+02  0.7561462E-02  0.1337299E+00
         -1   -1    0    0    0  501 -0.00000000000E+00  0.00000000000E+00  0.82696394477E+02  0.82696394477E+02  0.00000000000E+00 0.  1.
          1   -1    0    0  501    0  0.00000000000E+00 -0.00000000000E+00 -0.18873732131E+03  0.18873732131E+03  0.00000000000E+00 0. -1.
         25    2    1    2    0    0  0.61304053299E+02 -0.76720334262E+01 -0.63066515530E+02  0.15310857378E+03  0.12509117849E+03 0.  0.
          5    1    3    3  502    0 -0.98463305733E+01  0.40674967838E+01 -0.78429041192E+02  0.79259584015E+02  0.41800000000E+01 0.  1.
         -5    1    3    3    0  502  0.71150383872E+02 -0.11739530210E+02  0.15362525662E+02  0.73848989766E+02  0.41800000000E+01 0.  1.
        -11    1    1    2    0    0 -0.47520825368E+02 -0.96728724562E+01 -0.68879319467E+02  0.84238672565E+02  0.00000000000E+00 0. -1.
         11    1    1    2    0    0 -0.13783227931E+02  0.17344905882E+02  0.25904908162E+02  0.34086469444E+02  0.00000000000E+00 0.  1.
</event>
<event>
 7    1  0.2728221E-009  0.2133756E+03  0.7561462E-02  0.1138920E+00
         -2   -1    0    0    0  501 -0.00000000000E+00  0.00000000000E+00  0.24727834255E+03  0.24727834255E+03  0.00000000000E+00 0.  1.
          2   -1    0    0  501    0  0.00000000000E+00 -0.00000000000E+00 -0.24618709864E+03  0.24618709864E+03  0.00000000000E+00 0. -1.
         25    2    1    2    0    0  0.12502170895E+03 -0.14222558963E+03  0.11460260952E+03  0.25424275578E+03  0.12508826764E+03 0.  0.
          5    1    3    3  502    0  0.70911503887E+02 -0.15553239177E+03  0.89324559250E+02  0.19291219650E+03  0.41800000000E+01 0.  1.
         -5    1    3    3    0  502  0.54110205062E+02  0.13306802146E+02  0.25278050272E+02  0.61330559273E+02  0.41800000000E+01 0.  1.
        -11    1    1    2    0    0 -0.16156339912E+02  0.63539246479E+02 -0.74727717276E+02  0.99410738312E+02  0.00000000000E+00 0. -1.
         11    1    1    2    0    0 -0.10886536904E+03  0.78686343149E+02 -0.38783648333E+02  0.13981194710E+03  0.00000000000E+00 0.  1.
</event>
<event>
 7    1  0.2728221E-009  0.1511188E+03  0.7561462E-02  0.1199105E+00
          1   -1    0    0  501    0  0.00000000000E+00  0.00000000000E+00  0.57213999321E+02  0.57213999321E+02  0.00000000000E+00 0. -1.
         -1   -1    0    0    0  501 -0.00000000000E+00 -0.00000000000E+00 -0.53556889131E+03  0.53556889131E+03  0.00000000000E+00 0.  1.
         25    2    1    2    0    0 -0.10584275838E+03 -0.83486267873E+02 -0.29794783021E+03  0.35013198408E+03  0.12508737076E+03 0.  0.
          5    1    3    3  502    0  0.14806231948E+02 -0.46993940635E+01  0.30694952219E+01  0.16376904774E+02  0.41800000000E+01 0.  1.
         -5    1    3    3    0  502 -0.12064899033E+03 -0.78786873810E+02 -0.30101732543E+03  0.33375507931E+03  0.41800000000E+01 0.  1.
        -11    1    1    2    0    0  0.53059524110E+02  0.69408805512E+02 -0.16364940436E+03  0.18551016934E+03  0.00000000000E+00 0.  1.
         11    1    1    2    0    0  0.52783234269E+02  0.14077462361E+02 -0.16757657415E+02  0.57140737207E+02  0.00000000000E+00 0. -1.
</event>
<event>
 7    1  0.2728221E-009  0.2509442E+03  0.7561462E-02  0.1112710E+00
         -2   -1    0    0    0  501 -0.00000000000E+00  0.00000000000E+00  0.66663938263E+02  0.66663938263E+02  0.00000000000E+00 0.  1.
          2   -1    0    0  501    0  0.00000000000E+00 -0.00000000000E+00 -0.12321191427E+04  0.12321191427E+04  0.00000000000E+00 0. -1.
         25    2    1    2    0    0 -0.17709226409E+03 -0.17383472835E+03 -0.37752396602E+03  0.46877840542E+03  0.12509462693E+03 0.  0.
          5    1    3    3  502    0 -0.10917110025E+03 -0.71789321154E+02 -0.97536963728E+02  0.16310416136E+03  0.41800000000E+01 0.  1.
         -5    1    3    3    0  502 -0.67921163843E+02 -0.10204540719E+03 -0.27998700229E+03  0.30567424406E+03  0.41800000000E+01 0.  1.
        -11    1    1    2    0    0  0.25781763476E+02  0.32213079491E+02 -0.57705996296E+02  0.70939155808E+02  0.00000000000E+00 0.  1.
         11    1    1    2    0    0  0.15131050061E+03  0.14162164886E+03 -0.73022524211E+03  0.75906551972E+03  0.00000000000E+00 0. -1.
</event>
<event>
 7    1  0.2728221E-009  0.1021533E+03  0.7561462E-02  0.1275832E+00
         -1   -1    0    0    0  501 -0.00000000000E+00  0.00000000000E+00  0.12826256940E+03  0.12826256940E+03  0.00000000000E+00 0.  1.
          1   -1    0    0  501    0  0.00000000000E+00 -0.00000000000E+00 -0.22965088685E+03  0.22965088685E+03  0.00000000000E+00 0. -1.
         25    2    1    2    0    0  0.14297399681E+02 -0.49827478251E+02 -0.18151250636E+03  0.22645392017E+03  0.12508954700E+03 0.  0.
          5    1    3    3  502    0 -0.39147560426E+02 -0.60677140881E+02 -0.14072431800E+03  0.15822469146E+03  0.41800000000E+01 0. -1.
         -5    1    3    3    0  502  0.53444960108E+02  0.10849662630E+02 -0.40788188360E+02  0.68229228706E+02  0.41800000000E+01 0. -1.
        -11    1    1    2    0    0  0.20397442290E+02  0.32819082885E+02  0.84162738273E+02  0.92609472340E+02  0.00000000000E+00 0.  1.
         11    1    1    2    0    0 -0.34694841971E+02  0.17008395367E+02 -0.40385493667E+01  0.38850063750E+02  0.00000000000E+00 0. -1.
</event>
<event>
 7    1  0.2728221E-009  0.6442476E+02  0.7561462E-02  0.1380148E+00
         -2   -1    0    0    0  501 -0.00000000000E+00  0.00000000000E+00  0.15265826409E+03  0.15265826409E+03  0.00000000000E+00 0.  1.
          2   -1    0    0  501    0  0.00000000000E+00 -0.00000000000E+00 -0.11516298837E+03  0.11516298837E+03  0.00000000000E+00 0. -1.
         25    2    1    2    0    0 -0.33024949995E+02  0.24336357716E+02  0.83530764061E+02  0.15590917445E+03  0.12508947399E+03 0.  0.
          5    1    3    3  502    0 -0.22303842622E+02 -0.67729918291E+01  0.11059337198E+03  0.11310040292E+03  0.41800000000E+01 0. -1.
         -5    1    3    3    0  502 -0.10721107373E+02  0.31109349545E+02 -0.27062607920E+02  0.42808771529E+02  0.41800000000E+01 0. -1.
        -11    1    1    2    0    0  0.84680434372E+01  0.19775450539E+02  0.19602349557E+02  0.29103750821E+02  0.00000000000E+00 0.  1.
         11    1    1    2    0    0  0.24556906557E+02 -0.44111808254E+02 -0.65637837904E+02  0.82808327189E+02  0.00000000000E+00 0. -1.
</event>
<event>
 7    1  0.2728221E-009  0.9957281E+02  0.7561462E-02  0.1281197E+00
          2   -1    0    0  501    0  0.00000000000E+00  0.00000000000E+00  0.10584663065E+04  0.10584663065E+04  0.00000000000E+00 0. -1.
         -2   -1    0    0    0  501 -0.00000000000E+00 -0.00000000000E+00 -0.18381272182E+02  0.18381272182E+02  0.00000000000E+00 0.  1.
         25    2    1    2    0    0  0.16588476554E+02 -0.84898048455E+02  0.55550321902E+03  0.57594630212E+03  0.12508980931E+03 0.  0.
          5    1    3    3  502    0  0.56132234429E+01 -0.43465671161E+02  0.51483486800E+03  0.51671383430E+03  0.41800000000E+01 0.  1.
         -5    1    3    3    0  502  0.10975253111E+02 -0.41432377294E+02  0.40668351020E+02  0.59232467818E+02  0.41800000000E+01 0.  1.
        -11    1    1    2    0    0  0.17404850409E+02  0.74501810730E+02  0.42242532963E+03  0.42929780775E+03  0.00000000000E+00 0. -1.
         11    1    1    2    0    0 -0.33993326963E+02  0.10396237724E+02  0.62156485671E+02  0.71603468825E+02  0.00000000000E+00 0.  1.
</event>
<event>
 7    1  0.2728221E-009  0.8974398E+02  0.7561462E-02  0.1303473E+00
          1   -1    0    0  501    0  0.00000000000E+00  0.00000000000E+00  0.16397329840E+03  0.16397329840E+03  0.00000000000E+00 0. -1.
         -1   -1    0    0    0  501 -0.00000000000E+00 -0.00000000000E+00 -0.91251597823E+02  0.91251597823E+02  0.00000000000E+00 0.  1.
         25    2    1    2    0    0  0.10712278758E+02 -0.59069960483E+02  0.26288241279E+02  0.14121664666E+03  0.12508819496E+03 0.  0.
          5    1    3    3  502    0  0.46563332306E+02  0.37599646567E+01  0.46444062520E+02  0.66006095120E+02  0.41800000000E+01 0. -1.
         -5    1    3    3    0  502 -0.35851053548E+02 -0.62829925140E+02 -0.20155821241E+02  0.75210551544E+02  0.41800000000E+01 0. -1.
        -11    1    1    2    0    0 -0.76453624892E+01  0.32832466974E+02  0.70581051756E+02  0.78218331113E+02  0.00000000000E+00 0. -1.
         11    1    1    2    0    0 -0.30669162690E+01  0.26237493510E+02 -0.24147592456E+02  0.35789918448E+02  0.00000000000E+00 0.  1.
</event>
<event>
 7    1  0.2728221E-009  0.1302013E+03  0.7561462E-02  0.1227157E+00
         -2   -1    0    0    0  501 -0.00000000000E+00  0.00000000000E+00  0.18489612544E+03  0.18489612544E+03  0.00000000000E+00 0.  1.
          2   -1    0    0  501    0  0.00000000000E+00 -0.00000000000E+00 -0.11514531292E+03  0.11514531292E+03  0.00000000000E+00 0. -1.
         25    2    1    2    0    0 -0.67220130768E+02 -0.31053278132E+02 -0.26352626464E+02  0.14773345034E+03  0.12509140403E+03 0.  0.
          5    1    3    3  502    0 -0.10421587364E+03 -0.28039579713E+02 -0.20265583252E+02  0.10988781831E+03  0.41800000000E+01 0. -1.
         -5    1    3    3    0  502  0.36995742867E+02 -0.30136984193E+01 -0.60870432124E+01  0.37845632027E+02  0.41800000000E+01 0. -1.
        -11    1    1    2    0    0  0.20393022127E+02  0.57679876551E+02  0.68280032879E+02  0.91678821984E+02  0.00000000000E+00 0.  1.
         11    1    1    2    0    0  0.46827108641E+02 -0.26626598419E+02  0.27823406104E+02  0.60629166036E+02  0.00000000000E+00 0. -1.
</event>
<event>
 7    1  0.2728221E-009  0.2246519E+03  0.7561462E-02  0.1130462E+00
          2   -1    0    0  501    0  0.00000000000E+00  0.00000000000E+00  0.14183513971E+04  0.14183513971E+04  0.00000000000E+00 0. -1.
         -2   -1    0    0    0  501 -0.00000000000E+00 -0.00000000000E+00 -0.36614463512E+02  0.36614463512E+02  0.00000000000E+00 0.  1.
         25    2    1    2    0    0  0.13019482868E+03  0.15010498364E+03  0.77909530899E+03  0.81370712511E+03  0.12509030906E+03 0.  0.
          5    1    3    3  502    0  0.66474041641E+02  0.15232029565E+03  0.62853948000E+03  0.65015353648E+03  0.41800000000E+01 0.  1.
         -5    1    3    3    0  502  0.63720787041E+02 -0.22153120029E+01  0.15055582899E+03  0.16355358862E+03  0.41800000000E+01 0.  1.
        -11    1    1    2    0    0 -0.41043926814E+02 -0.11712132927E+03  0.33835688774E+03  0.36039893615E+03  0.00000000000E+00 0. -1.
         11    1    1    2    0    0 -0.89150901868E+02 -0.32983654378E+02  0.26428473685E+03  0.28085979935E+03  0.00000000000E+00 0.  1.
</event>
<event>
 7    1  0.2728221E-009  0.1111038E+03  0.7561462E-02  0.1258539E+00
         -1   -1    0    0    0  501 -0.00000000000E+00  0.00000000000E+00  0.18019124544E+03  0.18019124544E+03  0.00000000000E+00 0.  1.
          1   -1    0    0  501    0  0.00000000000E+00 -0.00000000000E+00 -0.90859112058E+02  0.90859112058E+02  0.00000000000E+00 0. -1.
         25    2    1    2    0    0 -0.26109159817E+02  0.24351335116E+02 -0.10088251326E+02  0.13048113180E+03  0.12509547231E+03 0.  0.
          5    1    3    3  502    0 -0.39105836071E+02 -0.43617393960E+02  0.68144204916E+01  0.59124040773E+02  0.41800000000E+01 0.  1.
         -5    1    3    3    0  502  0.12996676254E+02  0.67968729076E+02 -0.16902671817E+02  0.71357091031E+02  0.41800000000E+01 0.  1.
        -11    1    1    2    0    0 -0.32318320383E+02 -0.11690558335E+02  0.15925901198E+02  0.37878454503E+02  0.00000000000E+00 0.  1.
         11    1    1    2    0    0  0.58427480200E+02 -0.12660776781E+02  0.83494483511E+02  0.10269077119E+03  0.00000000000E+00 0. -1.
</event>
<event>
 7    1  0.2728221E-009  0.2508599E+03  0.7561462E-02  0.1112763E+00
         -1   -1    0    0    0  501 -0.00000000000E+00  0.00000000000E+00  0.15006177035E+03  0.15006177035E+03  0.00000000000E+00 0.  1.
          1   -1    0    0  501    0  0.00000000000E+00 -0.00000000000E+00 -0.52458846584E+03  0.52458846584E+03  0.00000000000E+00 0. -1.
         25    2    1    2    0    0  0.51214525877E+01 -0.23835331206E+03 -0.31106693863E+03  0.41141053526E+03  0.12512976290E+03 0.  0.
          5    1    3    3  502    0  0.41007039502E+02 -0.20211167701E+03 -0.19195420609E+03  0.28177046848E+03  0.41800000000E+01 0. -1.
         -5    1    3    3    0  502 -0.35885586914E+02 -0.36241635052E+02 -0.11911273255E+03  0.12964006678E+03  0.41800000000E+01 0. -1.
        -11    1    1    2    0    0 -0.27498960652E+02  0.86078932624E+02  0.13151491818E+02  0.91316686403E+02  0.00000000000E+00 0.  1.
         11    1    1    2    0    0  0.22377508064E+02  0.15227437944E+03 -0.76611248667E+02  0.17192301452E+03  0.00000000000E+00 0. -1.
</event>
<event>
 7    1  0.2728221E-009  0.7242339E+02  0.7561462E-02  0.1352041E+00
         -1   -1    0    0    0  501 -0.00000000000E+00  0.00000000000E+00  0.10063265459E+03  0.10063265459E+03  0.00000000000E+00 0.  1.
          1   -1    0    0  501    0  0.00000000000E+00 -0.00000000000E+00 -0.13474390342E+03  0.13474390342E+03  0.00000000000E+00 0. -1.
         25    2    1    2    0    0 -0.39495810490E+02 -0.79617941764E+01 -0.35126073962E+02  0.13603080505E+03  0.12508888695E+03 0.  0.
          5    1    3    3  502    0 -0.43581903045E+02 -0.93366314686E+01  0.40379350490E+02  0.60286974598E+02  0.41800000000E+01 0.  1.
         -5    1    3    3    0  502  0.40860925552E+01  0.13748372921E+01 -0.75505424452E+02  0.75743830453E+02  0.41800000000E+01 0.  1.
        -11    1    1    2    0    0 -0.90642940728E+01  0.36595940009E+02 -0.15255108759E+02  0.40671151882E+02  0.00000000000E+00 0. -1.
         11    1    1    2    0    0  0.48560104563E+02 -0.28634145833E+02  0.16269933895E+02  0.58674601078E+02  0.00000000000E+00 0.  1.
</event>
<event>
 7    1  0.2728221E-009  0.9507001E+02  0.7561462E-02  0.1291018E+00
          2   -1    0    0  501    0  0.00000000000E+00  0.00000000000E+00  0.33925900221E+03  0.33925900221E+03  0.00000000000E+00 0.  1.
         -2   -1    0    0    0  501 -0.00000000000E+00 -0.00000000000E+00 -0.47113702574E+02  0.47113702574E+02  0.00000000000E+00 0. -1.
         25    2    1    2    0    0  0.37721199827E+02 -0.42524948673E+02  0.11186979447E+03  0.17717147343E+03  0.12507445744E+03 0.  0.
          5    1    3    3  502    0  0.24949331782E+02  0.26878791423E+02  0.98549011286E+02  0.10523458847E+03  0.41800000000E+01 0. -1.
         -5    1    3    3    0  502  0.12771868045E+02 -0.69403740096E+02  0.13320783188E+02  0.71936884958E+02  0.41800000000E+01 0. -1.
        -11    1    1    2    0    0 -0.48287846736E+02  0.11328403629E+02  0.36188576191E+02  0.61397572573E+02  0.00000000000E+00 0. -1.
         11    1    1    2    0    0  0.10566646909E+02  0.31196545044E+02  0.14408692898E+03  0.14780365879E+03  0.00000000000E+00 0.  1.
</event>
<event>
 7    1  0.2728221E-009  0.1111779E+03  0.7561462E-02  0.1258404E+00
         -3   -1    0    0    0  501 -0.00000000000E+00  0.00000000000E+00  0.26126434546E+03  0.26126434546E+03  0.00000000000E+00 0.  1.
          3   -1    0    0  501    0  0.00000000000E+00 -0.00000000000E+00 -0.47361974170E+02  0.47361974170E+02  0.00000000000E+00 0. -1.
         25    2    1    2    0    0  0.16641353499E+02 -0.20986906504E+02  0.12020921979E+03  0.17557271553E+03  0.12513247789E+03 0.  0.
          5    1    3    3  502    0  0.16834611174E+02 -0.73381179154E+02  0.71358526681E+02  0.10381576623E+03  0.41800000000E+01 0.  1.
         -5    1    3    3    0  502 -0.19325767512E+00  0.52394272650E+02  0.48850693111E+02  0.71756949297E+02  0.41800000000E+01 0.  1.
        -11    1    1    2    0    0  0.34183718284E+02  0.26521745487E+02  0.45681739447E+02  0.62918605343E+02  0.00000000000E+00 0. -1.
         11    1    1    2    0    0 -0.50825071782E+02 -0.55348389823E+01  0.48011412054E+02  0.70134998764E+02  0.00000000000E+00 0.  1.
</event>
<event>
 7    1  0.2728221E-009  0.1218134E+03  0.7561462E-02  0.1240135E+00
          1   -1    0    0  501    0  0.00000000000E+00  0.00000000000E+00  0.74719001933E+02  0.74719001933E+02  0.00000000000E+00 0. -1.
         -1   -1    0    0    0  501 -0.00000000000E+00 -0.00000000000E+00 -0.25755676274E+03  0.25755676274E+03  0.00000000000E+00 0.  1.
         25    2    1    2    0    0  0.39914885847E+02 -0.75245179674E+02 -0.82388273956E+02  0.17230973164E+03  0.12509108984E+03 0.  0.
          5    1    3    3  502    0 -0.10051823373E+02 -0.79754434055E+02 -0.90718944956E+02  0.12128152489E+03  0.41800000000E+01 0.  1.
         -5    1    3    3    0  502  0.49966709221E+02  0.45092543811E+01  0.83306710000E+01  0.51028206756E+02  0.41800000000E+01 0.  1.
        -11    1    1    2    0    0  0.20791070419E+02  0.32358856001E+02 -0.69540937828E+02  0.79468900866E+02  0.00000000000E+00 0.  1.
         11    1    1    2    0    0 -0.60705956266E+02  0.42886323673E+02 -0.30908549025E+02  0.80497132168E+02  0.00000000000E+00 0. -1.
</event>
<event>
 7    1  0.2728221E-009  0.1781491E+03  0.7561462E-02  0.1169606E+00
          2   -1    0    0  501    0  0.00000000000E+00  0.00000000000E+00  0.55196073475E+03  0.55196073475E+03  0.00000000000E+00 0. -1.
         -2   -1    0    0    0  501 -0.00000000000E+00 -0.00000000000E+00 -0.81605676803E+02  0.81605676803E+02  0.00000000000E+00 0.  1.
         25    2    1    2    0    0 -0.98507485113E+02  0.14750384099E+03  0.18171645965E+03  0.28307225339E+03  0.12509165120E+03 0.  0.
          5    1    3    3  502    0 -0.80352019375E+02  0.11095879710E+03  0.51283697415E+02  0.14634135332E+03  0.41800000000E+01 0. -1.
         -5    1    3    3    0  502 -0.18155465738E+02  0.36545043897E+02  0.13043276224E+03  0.13673090007E+03  0.41800000000E+01 0. -1.
        -11    1    1    2    0    0  0.84142990384E+02 -0.11336661962E+03  0.27826713679E+03  0.31203306346E+03  0.00000000000E+00 0.  1.
         11    1    1    2    0    0  0.14364494729E+02 -0.34137221374E+02  0.10371461505E+02  0.38461094702E+02  0.00000000000E+00 0. -1.
</event>
<event>
 7    1  0.2728221E-009  0.8973732E+02  0.7561462E-02  0.1303489E+00
          2   -1    0    0  501    0  0.00000000000E+00  0.00000000000E+00  0.10137156138E+03  0.10137156138E+03  0.00000000000E+00 0. -1.
         -2   -1    0    0    0  501 -0.00000000000E+00 -0.00000000000E+00 -0.14314361372E+03  0.14314361372E+03  0.00000000000E+00 0.  1.
         25    2    1    2    0    0 -0.31549370386E+02 -0.32102050358E+02  0.34329712685E+00  0.13294294501E+03  0.12509118421E+03 0.  0.
          5    1    3    3  502    0  0.10178467040E+02  0.11339099596E+02  0.51459836704E+02  0.53830879285E+02  0.41800000000E+01 0. -1.
         -5    1    3    3    0  502 -0.41727837426E+02 -0.43441149954E+02 -0.51116539577E+02  0.79112065729E+02  0.41800000000E+01 0. -1.
        -11    1    1    2    0    0  0.11607505382E+02  0.64344238917E+02 -0.27826695946E+02  0.71058006377E+02  0.00000000000E+00 0. -1.
         11    1    1    2    0    0  0.19941865005E+02 -0.32242188559E+02 -0.14288653526E+02  0.40514223706E+02  0.00000000000E+00 0.  1.
</event>
<event>
 7    1  0.2728221E-009  0.1965273E+03  0.7561462E-02  0.1152702E+00
         -1   -1    0    0    0  501 -0.00000000000E+00  0.00000000000E+00  0.18242242012E+03  0.18242242012E+03  0.00000000000E+00 0. -1.
          1   -1    0    0  501    0  0.00000000000E+00 -0.00000000000E+00 -0.27537685889E+03  0.27537685889E+03  0.00000000000E+00 0.  1.
         25    2    1    2    0    0 -0.16535602240E+03  0.76560800870E+02 -0.12140323169E+03  0.25217213302E+03  0.12509144508E+03 0.  0.
          5    1    3    3  502    0 -0.95985159995E+02  0.78611079371E+01 -0.12067236659E+03  0.15444818036E+03  0.41800000000E+01 0.  1.
         -5    1    3    3    0  502 -0.69370862405E+02  0.68699692933E+02 -0.73086510469E+00  0.97723952661E+02  0.41800000000E+01 0.  1.
        -11    1    1    2    0    0  0.18765537230E+02 -0.45323019612E+02 -0.11762781061E+02  0.50444866068E+02  0.00000000000E+00 0.  1.
         11    1    1    2    0    0  0.14659048517E+03 -0.31237781258E+02  0.40211573992E+02  0.15518227993E+03  0.00000000000E+00 0. -1.
</event>
<event>
 6    1  0.2728221E-009  0.1285485E+03  0.7561462E-02  0.1229626E+00
          1   -1    0    0  501    0  0.00000000000E+00  0.00000000000E+00  0.48541507858E+02  0.48541507858E+02  0.00000000000E+00 0. -1.
         -1   -1    0    0    0  501 -0.00000000000E+00 -0.00000000000E+00 -0.37722628714E+03  0.37722628714E+03  0.00000000000E+00 0.  1.
          5    1    1    2  502    0 -0.36980029061E+02 -0.32858550659E+02 -0.90479068272E+02  0.10320436568E+03  0.41800000000E+01 0.  1.
         -5    1    1    2    0  502  0.93321346825E+02 -0.21959626964E+02 -0.11438679096E+03  0.14930810204E+03  0.41800000000E+01 0.  1.
        -11    1    1    2    0    0 -0.27299693360E+02  0.72513499047E+02 -0.50647351818E+02  0.92566921996E+02  0.00000000000E+00 0. -1.
         11    1    1    2    0    0 -0.29041624404E+02 -0.17695321424E+02 -0.73171568240E+02  0.80688405282E+02  0.00000000000E+00 0.  1.
</event>
<event>
 7    1  0.2728221E-009  0.9373703E+02  0.7561462E-02  0.1294046E+00
         -2   -1    0    0    0  501 -0.00000000000E+00  0.00000000000E+00  0.59093398118E+02  0.59093398118E+02  0.00000000000E+00 0.  1.
          2   -1    0    0  501    0  0.00000000000E+00 -0.00000000000E+00 -0.33994855926E+03  0.33994855926E+03  0.00000000000E+00 0. -1.
         25    2    1    2    0    0 -0.27622650653E+02  0.87661678032E+02 -0.15143561998E+03  0.21685995772E+03  0.12509162097E+03 0.  0.
          5    1    3    3  502    0 -0.23252293469E+02  0.68831684491E+02 -0.93116618882E+01  0.73366541342E+02  0.41800000000E+01 0.  1.
         -5    1    3    3    0  502 -0.43703571840E+01  0.18829993541E+02 -0.14212395809E+03  0.14349341638E+03  0.41800000000E+01 0.  1.
        -11    1    1    2    0    0  0.24769690259E+02 -0.39147985966E+02 -0.26330541904E+01  0.46400811793E+02  0.00000000000E+00 0.  1.
         11    1    1    2    0    0  0.28529603942E+01 -0.48513692066E+02 -0.12678648697E+03  0.13578118787E+03  0.00000000000E+00 0. -1.
</event>
<event>
 7    1  0.3254852E-009  0.1030368E+03  0.7561462E-02  0.1274037E+00
          1   -1    0    0  501    0  0.00000000000E+00  0.00000000000E+00  0.37048399209E+03  0.37048399209E+03  0.00000000000E+00 0. -1.
         -1   -1    0    0    0  501 -0.00000000000E+00 -0.00000000000E+00 -0.45741640901E+02  0.45741640901E+02  0.00000000000E+00 0.  1.
         25    2    1    2    0    0  0.98385712423E+01 -0.91201149702E+01  0.67134284077E+02  0.14259927661E+03  0.12509023786E+03 0.  0.
          5    1    3    3  502    0  0.72143597748E+01  0.57804457694E+02  0.26353098670E+02  0.64073087375E+02  0.41800000000E+01 0. -1.
         -5    1    3    3    0  502  0.26242114675E+01 -0.66924572664E+02  0.40781185407E+02  0.78526189232E+02  0.41800000000E+01 0. -1.
        -11    1    1    2    0    0  0.34932059431E+02  0.29939305858E+00  0.49569494622E+02  0.60642173522E+02  0.00000000000E+00 0.  1.
         11    1    1    2    0    0 -0.44770630674E+02  0.88207219116E+01  0.20803857249E+03  0.21298418286E+03  0.00000000000E+00 0. -1.
</event>
<event>
 7    1  0.2728221E-009  0.1473692E+03  0.7561462E-02  0.1203743E+00
         -2   -1    0    0    0  501 -0.00000000000E+00  0.00000000000E+00  0.11009924020E+03  0.11009924020E+03  0.00000000000E+00 0.  1.
          2   -1    0    0  501    0  0.00000000000E+00 -0.00000000000E+00 -0.32003901060E+03  0.32003901060E+03  0.00000000000E+00 0. -1.
         25    2    1    2    0    0  0.41233487096E+02 -0.94897063267E+02  0.20329006312E+02  0.16360200369E+03  0.12508674606E+03 0.  0.
          5    1    3    3  502    0 -0.44516114646E+02 -0.32515108060E+02 -0.12908215759E+01  0.55299686578E+02  0.41800000000E+01 0. -1.
         -5    1    3    3    0  502  0.85749601742E+02 -0.62381955207E+02  0.21619827888E+02  0.10830231711E+03  0.41800000000E+01 0. -1.
        -11    1    1    2    0    0 -0.17970532587E+02  0.10602970549E+03 -0.19700112440E+03  0.22444304735E+03  0.00000000000E+00 0.  1.
         11    1    1    2    0    0 -0.23262954509E+02 -0.11132642220E+02 -0.33267652308E+02  0.42093199752E+02  0.00000000000E+00 0. -1.
</event>
<event>
 7    1  0.2728221E-009  0.1439117E+03  0.7561462E-02  0.1208160E+00
          1   -1    0    0  501    0  0.00000000000E+00  0.00000000000E+00  0.81801667396E+02  0.81801667396E+02  0.00000000000E+00 0. -1.
         -1   -1    0    0    0  501 -0.00000000000E+00 -0.00000000000E+00 -0.32303327823E+03  0.32303327823E+03  0.00000000000E+00 0.  1.
         25    2    1    2    0    0 -0.10057678959E+03 -0.65293003204E+02 -0.11464501919E+03  0.20777275651E+03  0.12508865277E+03 0.  0.
          5    1    3    3  502    0 -0.10304062511E+03 -0.30118977854E+02 -0.23525216076E+02  0.10997923186E+03  0.41800000000E+01 0. -1.
         -5    1    3    3    0  502  0.24638355172E+01 -0.35174025350E+02 -0.91119803111E+02  0.97793524652E+02  0.41800000000E+01 0. -1.
        -11    1    1    2    0    0  0.78622426712E+02  0.28295269582E+01 -0.96029203547E+02  0.12414145214E+03  0.00000000000E+00 0.  1.
         11    1    1    2    0    0  0.21954362876E+02  0.62463476246E+02 -0.30557388102E+02  0.72920736979E+02  0.00000000000E+00 0. -1.
</event>
<event>
 7    1  0.2728221E-009  0.8528721E+02  0.7561462E-02  0.1314683E+00
         -1   -1    0    0    0  501 -0.00000000000E+00  0.00000000000E+00  0.22595956621E+03  0.22595956621E+03  0.00000000000E+00 0.  1.
          1   -1    0    0  501    0  0.00000000000E+00 -0.00000000000E+00 -0.92355657436E+02  0.92355657436E+02  0.00000000000E+00 0. -1.
         25    2    1    2    0    0 -0.15823501230E+02 -0.37040850832E+02  0.17407961713E+03  0.21811182113E+03  0.12508655241E+03 0.  0.
          5    1    3    3  502    0  0.40464529479E+02  0.85201404790E+01  0.12180612210E+03  0.12870188313E+03  0.41800000000E+01 0. -1.
         -5    1    3    3    0  502 -0.56288030709E+02 -0.45560991311E+02  0.52273495028E+02  0.89409937998E+02  0.41800000000E+01 0. -1.
        -11    1    1    2    0    0 -0.55664876458E+00  0.39851466448E+02  0.14776025270E+02  0.42506236704E+02  0.00000000000E+00 0.  1.
         11    1    1    2    0    0  0.16380149995E+02 -0.28106156161E+01 -0.55251733628E+02  0.57697165813E+02  0.00000000000E+00 0. -1.
</event>
<event>
 7    1  0.2728221E-009  0.1108324E+03  0.7561462E-02  0.1259036E+00
          2   -1    0    0  501    0  0.00000000000E+00  0.00000000000E+00  0.54939497522E+02  0.54939497522E+02  0.00000000000E+00 0. -1.
         -2   -1    0    0    0  501 -0.00000000000E+00 -0.00000000000E+00 -0.24008481285E+03  0.24008481285E+03  0.00000000000E+00 0.  1.
         25    2    1    2    0    0 -0.29893512747E+02 -0.18499593337E+02 -0.12512759649E+03  0.18039094742E+03  0.12509245161E+03 0.  0.
          5    1    3    3  502    0  0.21119952449E+02  0.43777208290E+02 -0.55280462164E+02  0.73728544365E+02  0.41800000000E+01 0.  1.
         -5    1    3    3    0  502 -0.51013465196E+02 -0.62276801627E+02 -0.69847134328E+02  0.10666240306E+03  0.41800000000E+01 0.  1.
        -11    1    1    2    0    0  0.57372765683E+02  0.27132280478E+02 -0.57638211504E+02  0.85731897864E+02  0.00000000000E+00 0. -1.
         11    1    1    2    0    0 -0.27479252936E+02 -0.86326871410E+01 -0.23795073353E+01  0.28901465090E+02  0.00000000000E+00 0.  1.
</event>
<event>
 7    1  0.2728221E-009  0.2897621E+03  0.7561462E-02  0.1090473E+00
         -1   -1    0    0    0  501 -0.00000000000E+00  0.00000000000E+00  0.11511188859E+03  0.11511188859E+03  0.00000000000E+00 0.  1.
          1   -1    0    0  501    0  0.00000000000E+00 -0.00000000000E+00 -0.79994361528E+03  0.79994361528E+03  0.00000000000E+00 0. -1.
         25    2    1    2    0    0 -0.86398455327E+02 -0.26715499674E+03 -0.38621310554E+03  0.49360405073E+03  0.12509160903E+03 0.  0.
          5    1    3    3  502    0  0.19379413039E+02 -0.80127202549E+02 -0.56475122306E+02  0.10001420938E+03  0.41800000000E+01 0. -1.
         -5    1    3    3    0  502 -0.10577786837E+03 -0.18702779419E+03 -0.32973798323E+03  0.39358984136E+03  0.41800000000E+01 0. -1.
        -11    1    1    2    0    0  0.87622185607E+02  0.25069639112E+03 -0.23140822231E+03  0.35224436586E+03  0.00000000000E+00 0.  1.
         11    1    1    2    0    0 -0.12237302804E+01  0.16458605621E+02 -0.67210398851E+02  0.69207087271E+02  0.00000000000E+00 0. -1.
</event>
<event>
 7    1  0.2728221E-009  0.9023854E+02  0.7561462E-02  0.1302275E+00
         -1   -1    0    0    0  501 -0.00000000000E+00  0.00000000000E+00  0.60801174745E+02  0.60801174745E+02  0.00000000000E+00 0.  1.
          1   -1    0    0  501    0  0.00000000000E+00 -0.00000000000E+00 -0.26860666151E+03  0.26860666151E+03  0.00000000000E+00 0. -1.
         25    2    1    2    0    0 -0.86764876867E+01 -0.46425035831E+02 -0.17190240365E+03  0.21778126230E+03  0.12509067286E+03 0.  0.
          5    1    3    3  502    0 -0.60857033657E+02 -0.39256596911E+02 -0.13525446723E+03  0.15347932190E+03  0.41800000000E+01 0.  1.
         -5    1    3    3    0  502  0.52180545971E+02 -0.71684389197E+01 -0.36647936418E+02  0.64301940391E+02  0.41800000000E+01 0.  1.
        -11    1    1    2    0    0  0.15417287634E+02  0.10752659447E+02 -0.63372653950E+02  0.66101480406E+02  0.00000000000E+00 0. -1.
         11    1    1    2    0    0 -0.67407999473E+01  0.35672376384E+02  0.27469570836E+02  0.45525093550E+02  0.00000000000E+00 0.  1.
</event>
<event>
 7    1  0.2728221E-009  0.1280267E+03  0.7561462E-02  0.1230413E+00
         -2   -1    0    0    0  501 -0.00000000000E+00  0.00000000000E+00  0.10627752372E+03  0.10627752372E+03  0.00000000000E+00 0.  1.
          2   -1    0    0  501    0  0.00000000000E+00 -0.00000000000E+00 -0.16183403663E+03  0.16183403663E+03  0.00000000000E+00 0. -1.
         25    2    1    2    0    0 -0.38123358007E+02 -0.58697399714E+02 -0.54289432641E+02  0.15327301394E+03  0.12508596702E+03 0.  0.
          5    1    3    3  502    0 -0.79807922280E+02 -0.13087586780E+02 -0.24901812228E+02  0.84724034598E+02  0.41800000000E+01 0. -1.
         -5    1    3    3    0  502  0.41684564273E+02 -0.45609812934E+02 -0.29387620414E+02  0.68548979337E+02  0.41800000000E+01 0. -1.
        -11    1    1    2    0    0 -0.49445668351E+01 -0.21527058906E+02 -0.81062836949E+01  0.23528171235E+02  0.00000000000E+00 0.  1.
         11    1    1    2    0    0  0.43067924842E+02  0.80224458620E+02  0.68392034250E+01  0.91310375175E+02  0.00000000000E+00 0. -1.
</event>
<event>
 7    1  0.2728221E-009  0.9574014E+02  0.7561462E-02  0.1289518E+00
         -1   -1    0    0    0  501 -0.00000000000E+00  0.00000000000E+00  0.34741535787E+02  0.34741535787E+02  0.00000000000E+00 0.  1.
          1   -1    0    0  501    0  0.00000000000E+00 -0.00000000000E+00 -0.41795614871E+03  0.41795614871E+03  0.00000000000E+00 0. -1.
         25    2    1    2    0    0 -0.43232905363E+02  0.14360152220E+02 -0.17736096258E+03  0.22175510123E+03  0.12507244219E+03 0.  0.
          5    1    3    3  502    0 -0.60644368784E+02  0.35451276627E+02 -0.38598106026E+02  0.80260941114E+02  0.41800000000E+01 0. -1.
         -5    1    3    3    0  502  0.17411463421E+02 -0.21091124407E+02 -0.13876285655E+03  0.14149416011E+03  0.41800000000E+01 0. -1.
        -11    1    1    2    0    0  0.15652181810E+02  0.34191598018E+02 -0.35662757097E+02  0.51825557538E+02  0.00000000000E+00 0.  1.
         11    1    1    2    0    0  0.27580723554E+02 -0.48551750238E+02 -0.17019089325E+03  0.17911702574E+03  0.00000000000E+00 0. -1.
</event>
<event>
 7    1  0.2728221E-009  0.1126040E+03  0.7561462E-02  0.1255822E+00
          1   -1    0    0  501    0  0.00000000000E+00  0.00000000000E+00  0.14018932010E+04  0.14018932010E+04  0.00000000000E+00 0. -1.
         -1   -1    0    0    0  501 -0.00000000000E+00 -0.00000000000E+00 -0.11775571325E+02  0.11775571325E+02  0.00000000000E+00 0.  1.
         25    2    1    2    0    0 -0.58474312370E+02  0.13537121708E+02  0.94373160694E+03  0.95387614497E+03  0.12509138714E+03 0.  0.
          5    1    3    3  502    0 -0.83543806266E+02  0.39161015484E+02  0.48425535885E+03  0.49298466271E+03  0.41800000000E+01 0.  1.
         -5    1    3    3    0  502  0.25069493896E+02 -0.25623893776E+02  0.45947624809E+03  0.46089148226E+03  0.41800000000E+01 0.  1.
        -11    1    1    2    0    0  0.68778030860E+02 -0.31810210275E+02  0.41614318424E+03  0.42298635534E+03  0.00000000000E+00 0. -1.
         11    1    1    2    0    0 -0.10303718490E+02  0.18273088568E+02  0.30242838539E+02  0.36806272067E+02  0.00000000000E+00 0.  1.
</event>
<event>
 7    1  0.2728221E-009  0.1055871E+03  0.7561462E-02  0.1268967E+00
          1   -1    0    0  501    0  0.00000000000E+00  0.00000000000E+00  0.20662883696E+03  0.20662883696E+03  0.00000000000E+00 0. -1.
         -1   -1    0    0    0  501 -0.00000000000E+00 -0.00000000000E+00 -0.62313650904E+02  0.62313650904E+02  0.00000000000E+00 0.  1.
         25    2    1    2    0    0 -0.11570285646E+01 -0.23973550601E+02  0.10701043469E+03  0.16635683986E+03  0.12508914899E+03 0.  0.
          5    1    3    3  502    0 -0.14979422235E+02  0.45685521841E+02  0.72987043939E+02  0.87499319879E+02  0.41800000000E+01 0.  1.
         -5    1    3    3    0  502  0.13822393670E+02 -0.69659072442E+02  0.34023390750E+02  0.78857519986E+02  0.41800000000E+01 0.  1.
        -11    1    1    2    0    0  0.44821872244E+02  0.14332641760E+02  0.33385680645E+02  0.57697734127E+02  0.00000000000E+00 0. -1.
         11    1    1    2    0    0 -0.43664843679E+02  0.96409088417E+01  0.39190707260E+01  0.44887913876E+02  0.00000000000E+00 0.  1.
</event>
<event>
 7    1  0.2728221E-009  0.1086732E+03  0.7561462E-02  0.1263047E+00
          1   -1    0    0  501    0  0.00000000000E+00  0.00000000000E+00  0.97885099238E+03  0.97885099238E+03  0.00000000000E+00 0. -1.
         -1   -1    0    0    0  501 -0.00000000000E+00 -0.00000000000E+00 -0.12341469375E+02  0.12341469375E+02  0.00000000000E+00 0.  1.
         25    2    1    2    0    0  0.14143796092E+02  0.26544066670E+02  0.56222192800E+03  0.57675513814E+03  0.12509339952E+03 0.  0.
          5    1    3    3  502    0 -0.55172461101E+02  0.15196448584E+02  0.21877437135E+03  0.22617389432E+03  0.41800000000E+01 0. -1.
         -5    1    3    3    0  502  0.69316257193E+02  0.11347618086E+02  0.34344755666E+03  0.35058124382E+03  0.41800000000E+01 0. -1.
        -11    1    1    2    0    0  0.23357955129E+02 -0.42777526091E+02  0.25727193995E+03  0.26184797477E+03  0.00000000000E+00 0.  1.
         11    1    1    2    0    0 -0.37501751221E+02  0.16233459421E+02  0.14701565504E+03  0.15258934883E+03  0.00000000000E+00 0. -1.
</event>
<event>
 7    1  0.2728221E-009  0.1020017E+03  0.7561462E-02  0.1276142E+00
          1   -1    0    0  501    0  0.00000000000E+00  0.00000000000E+00  0.22493446160E+02  0.22493446160E+02  0.00000000000E+00 0. -1.
         -1   -1    0    0    0  501 -0.00000000000E+00 -0.00000000000E+00 -0.52778797544E+03  0.52778797544E+03  0.00000000000E+00 0.  1.
         25    2    1    2    0    0 -0.29889422937E+01  0.10669494142E+01 -0.34613026403E+03  0.36805363575E+03  0.12508895619E+03 0.  0.
          5    1    3    3  502    0  0.57602860762E+02 -0.84739039771E+01 -0.22180507876E+03  0.22935749820E+03  0.41800000000E+01 0.  1.
         -5    1    3    3    0  502 -0.60591803056E+02  0.95408533912E+01 -0.12432518527E+03  0.13869613755E+03  0.41800000000E+01 0.  1.
        -11    1    1    2    0    0 -0.30435939882E+02  0.26860635856E+02 -0.10595156733E+03  0.11346177689E+03  0.00000000000E+00 0.  1.
         11    1    1    2    0    0  0.33424882176E+02 -0.27927585270E+02 -0.53212697918E+02  0.68766008952E+02  0.00000000000E+00 0. -1.
</event>
<event>
 7    1  0.2728221E-009  0.1420152E+03  0.7561462E-02  0.1210643E+00
          2   -1    0    0  501    0  0.00000000000E+00  0.00000000000E+00  0.10110020339E+04  0.10110020339E+04  0.00000000000E+00 0. -1.
         -2   -1    0    0    0  501 -0.00000000000E+00 -0.00000000000E+00 -0.20717771665E+02  0.20717771665E+02  0.00000000000E+00 0.  1.
         25    2    1    2    0    0 -0.52998285961E+02 -0.81076787125E+02  0.51581463915E+03  0.53952974891E+03  0.12508135059E+03 0.  0.
          5    1    3    3  502    0 -0.64032501984E+02  0.93697172212E+01  0.17191659628E+03  0.18374096274E+03  0.41800000000E+01 0. -1.
         -5    1    3    3    0  502  0.11034216023E+02 -0.90446504346E+02  0.34389804287E+03  0.35578878617E+03  0.41800000000E+01 0. -1.
        -11    1    1    2    0    0  0.54336741658E+02  0.80507011058E+01  0.25626804775E+03  0.26208893067E+03  0.00000000000E+00 0. -1.
         11    1    1    2    0    0 -0.13384556963E+01  0.73026086019E+02  0.21820157530E+03  0.23010112596E+03  0.00000000000E+00 0.  1.
</event>
<event>
 7    1  0.2728221E-009  0.1146109E+03  0.7561462E-02  0.1252262E+00
         -1   -1    0    0    0  501 -0.00000000000E+00  0.00000000000E+00  0.10708410404E+03  0.10708410404E+03  0.00000000000E+00 0.  1.
          1   -1    0    0  501    0  0.00000000000E+00 -0.00000000000E+00 -0.18651334462E+03  0.18651334462E+03  0.00000000000E+00 0. -1.
         25    2    1    2    0    0 -0.81423500019E+02  0.52075912432E+01 -0.85689924446E+02  0.17218401346E+03  0.12509063105E+03 0.  0.
          5    1    3    3  502    0 -0.95810382524E+02 -0.36448657463E+02 -0.73694935553E+02  0.12631923827E+03  0.41800000000E+01 0. -1.
         -5    1    3    3    0  502  0.14386882505E+02  0.41656248707E+02 -0.11994988892E+02  0.45864775188E+02  0.41800000000E+01 0. -1.
        -11    1    1    2    0    0  0.42245085049E+02 -0.83217371414E+01  0.47728574955E+02  0.64279976564E+02  0.00000000000E+00 0.  1.
         11    1    1    2    0    0  0.39178414970E+02  0.31141458982E+01 -0.41467891088E+02  0.57133458635E+02  0.00000000000E+00 0. -1.
</event>
<event>
 7    1  0.2728221E-009  0.1680296E+03  0.7561462E-02  0.1179918E+00
         -1   -1    0    0    0  501 -0.00000000000E+00  0.00000000000E+00  0.16510607661E+03  0.16510607661E+03  0.00000000000E+00 0.  1.
          1   -1    0    0  501    0  0.00000000000E+00 -0.00000000000E+00 -0.24017414809E+03  0.24017414809E+03  0.00000000000E+00 0. -1.
         25    2    1    2    0    0 -0.11305667890E+03 -0.10138208903E+03 -0.10797810955E+03  0.22442368124E+03  0.12508627398E+03 0.  0.
          5    1    3    3  502    0 -0.35362295506E+02 -0.72704769978E+01  0.24826330607E+02  0.44013303337E+02  0.41800000000E+01 0.  1.
         -5    1    3    3    0  502 -0.77694383395E+02 -0.94111612028E+02 -0.13280444015E+03  0.18041037790E+03  0.41800000000E+01 0.  1.
        -11    1    1    2    0    0  0.87216812476E+02  0.11811146795E+03  0.23685983669E+02  0.14872160927E+03  0.00000000000E+00 0. -1.
         11    1    1    2    0    0  0.25839866425E+02 -0.16729378929E+02  0.92240543911E+01  0.32134934193E+02  0.00000000000E+00 0.  1.
</event>
<event>
 7    1  0.2728221E-009  0.1283794E+03  0.7561462E-02  0.1229880E+00
          1   -1    0    0  501    0  0.00000000000E+00  0.00000000000E+00  0.14595091522E+02  0.14595091522E+02  0.00000000000E+00 0. -1.
         -1   -1    0    0    0  501 -0.00000000000E+00 -0.00000000000E+00 -0.12821049396E+04  0.12821049396E+04  0.00000000000E+00 0.  1.
         25    2    1    2    0    0 -0.73648052125E+02  0.23700512076E+02 -0.85727514206E+03  0.86979729858E+03  0.12506367008E+03 0.  0.
          5    1    3    3  502    0  0.31046062738E+02  0.10778979359E+02 -0.10370281561E+03  0.10886593026E+03  0.41800000000E+01 0. -1.
         -5    1    3    3    0  502 -0.10469411486E+03  0.12921532717E+02 -0.75357232645E+03  0.76093136832E+03  0.41800000000E+01 0. -1.
        -11    1    1    2    0    0  0.53871712171E+02 -0.57566041453E+02 -0.28060071081E+03  0.29146658369E+03  0.00000000000E+00 0. -1.
         11    1    1    2    0    0  0.19776339954E+02  0.33865529377E+02 -0.12963399521E+03  0.13543614886E+03  0.00000000000E+00 0.  1.
</event>
<event>
 7    1  0.2728221E-009  0.1330683E+03  0.7561462E-02  0.1222973E+00
          2   -1    0    0  501    0  0.00000000000E+00  0.00000000000E+00  0.56340113911E+03  0.56340113911E+03  0.00000000000E+00 0. -1.
         -2   -1    0    0    0  501 -0.00000000000E+00 -0.00000000000E+00 -0.43640921882E+02  0.43640921882E+02  0.00000000000E+00 0.  1.
         25    2    1    2    0    0 -0.99661955654E+02  0.41990345939E+02  0.36044304283E+03  0.39656345030E+03  0.12509072081E+03 0.  0.
          5    1    3    3  502    0 -0.71255647755E+02 -0.13275757917E+02  0.30387775199E+03  0.31243043008E+03  0.41800000000E+01 0. -1.
         -5    1    3    3    0  502 -0.28406307899E+02  0.55266103856E+02  0.56565290839E+02  0.84133020222E+02  0.41800000000E+01 0. -1.
        -11    1    1    2    0    0  0.57393905648E+01 -0.36739993753E+02  0.76872514931E+02  0.85394094040E+02  0.00000000000E+00 0.  1.
         11    1    1    2    0    0  0.93922565089E+02 -0.52503521859E+01  0.82444659469E+02  0.12508451665E+03  0.00000000000E+00 0. -1.
</event>
<event>
 7    1  0.3752856E-009  0.1555768E+03  0.7561462E-02  0.1193783E+00
         -1   -1    0    0    0  501 -0.00000000000E+00  0.00000000000E+00  0.10496071522E+03  0.10496071522E+03  0.00000000000E+00 0.  1.
          1   -1    0    0  501    0  0.00000000000E+00 -0.00000000000E+00 -0.31210184415E+03  0.31210184415E+03  0.00000000000E+00 0. -1.
         25    2    1    2    0    0 -0.14266528225E+03  0.68134400307E+01 -0.13506891662E+03  0.23300322257E+03  0.12508830387E+03 0.  0.
          5    1    3    3  502    0 -0.17463222478E+02 -0.32333354643E+02  0.90522169631E+01  0.38076567515E+02  0.41800000000E+01 0.  1.
         -5    1    3    3    0  502 -0.12520205977E+03  0.39146794673E+02 -0.14412113359E+03  0.19492665505E+03  0.41800000000E+01 0.  1.
        -11    1    1    2    0    0  0.71803873146E+02 -0.82171812257E+00  0.13214154121E+02  0.73014281402E+02  0.00000000000E+00 0.  1.
         11    1    1    2    0    0  0.70861409106E+02 -0.59917219081E+01 -0.85286366428E+02  0.11104505541E+03  0.00000000000E+00 0. -1.
</event>
<event>
 7    1  0.2728221E-009  0.1597320E+03  0.7561462E-02  0.1189000E+00
          1   -1    0    0  501    0  0.00000000000E+00  0.00000000000E+00  0.20803868281E+03  0.20803868281E+03  0.00000000000E+00 0. -1.
         -1   -1    0    0    0  501 -0.00000000000E+00 -0.00000000000E+00 -0.16574569115E+03  0.16574569115E+03  0.00000000000E+00 0.  1.
         25    2    1    2    0    0  0.91622349151E+02 -0.86092678701E+02  0.70559529666E+02  0.19087221871E+03  0.12508777902E+03 0.  0.
          5    1    3    3  502    0  0.11458681092E+03 -0.76879245245E+02  0.27096452964E+02  0.14068491657E+03  0.41800000000E+01 0. -1.
         -5    1    3    3    0  502 -0.22964461769E+02 -0.92134334559E+01  0.43463076702E+02  0.50187302147E+02  0.41800000000E+01 0. -1.
        -11    1    1    2    0    0 -0.95020298217E+02  0.29315008779E+02 -0.61611342033E+02  0.11697941819E+03  0.00000000000E+00 0.  1.
         11    1    1    2    0    0  0.33979490662E+01  0.56777669922E+02  0.33344804035E+02  0.65932737056E+02  0.00000000000E+00 0. -1.
</event>
<event>
 7    1  0.2728221E-009  0.8458528E+02  0.7561462E-02  0.1316521E+00
         -2   -1    0    0    0  501 -0.00000000000E+00  0.00000000000E+00  0.71508800156E+02  0.71508800156E+02  0.00000000000E+00 0. -1.
          2   -1    0    0  501    0  0.00000000000E+00 -0.00000000000E+00 -0.17511655069E+03  0.17511655069E+03  0.00000000000E+00 0.  1.
         25    2    1    2    0    0  0.20854764359E+02  0.11259928445E+02 -0.70683855700E+02  0.14562023038E+03  0.12508931551E+03 0.  0.
          5    1    3    3  502    0  0.21461658348E+02  0.42281733369E+02 -0.94814194927E+02  0.10609218499E+03  0.41800000000E+01 0. -1.
         -5    1    3    3    0  502 -0.60689398938E+00 -0.31021804925E+02  0.24130339228E+02  0.39528045390E+02  0.41800000000E+01 0. -1.
        -11    1    1    2    0    0  0.30266756628E+02 -0.22751961472E+02  0.21935523149E+01  0.37928089583E+02  0.00000000000E+00 0. -1.
         11    1    1    2    0    0 -0.51121520987E+02  0.11492033028E+02 -0.35117447153E+02  0.63077030888E+02  0.00000000000E+00 0.  1.
</event>
<event>
 7    1  0.2728221E-009  0.1478304E+03  0.7561462E-02  0.1203165E+00
          2   -1    0    0  501    0  0.00000000000E+00  0.00000000000E+00  0.72258419645E+02  0.72258419645E+02  0.00000000000E+00 0. -1.
         -2   -1    0    0    0  501 -0.00000000000E+00 -0.00000000000E+00 -0.31676211752E+03  0.31676211752E+03  0.00000000000E+00 0.  1.
         25    2    1    2    0    0  0.95201252822E+02 -0.40396181460E+02 -0.15378931335E+03  0.22359212477E+03  0.12508858998E+03 0.  0.
          5    1    3    3  502    0  0.49795494298E+01 -0.66785212335E+02 -0.77049169055E+02  0.10217194992E+03  0.41800000000E+01 0. -1.
         -5    1    3    3    0  502  0.90221703393E+02  0.26389030876E+02 -0.76740144291E+02  0.12142017485E+03  0.41800000000E+01 0. -1.
        -11    1    1    2    0    0 -0.79770505996E+02 -0.11252956612E+02 -0.72922901257E+02  0.10866329733E+03  0.00000000000E+00 0. -1.
         11    1    1    2    0    0 -0.15430746826E+02  0.51649138072E+02 -0.17791483272E+02  0.56765115064E+02  0.00000000000E+00 0.  1.
</event>
<event>
 7    1  0.2728221E-009  0.1086985E+03  0.7561462E-02  0.1262999E+00
          2   -1    0    0  501    0  0.00000000000E+00  0.00000000000E+00  0.11680745507E+03  0.11680745507E+03  0.00000000000E+00 0. -1.
         -2   -1    0    0    0  501 -0.00000000000E+00 -0.00000000000E+00 -0.12974434578E+03  0.12974434578E+03  0.00000000000E+00 0.  1.
         25    2    1    2    0    0  0.24513145452E+02  0.43674421836E+02 -0.39330945856E+02  0.14036801619E+03  0.12509159542E+03 0.  0.
          5    1    3    3  502    0  0.34373976728E+02 -0.35089754043E+02  0.46598812639E+01  0.49518158370E+02  0.41800000000E+01 0. -1.
         -5    1    3    3    0  502 -0.98608312757E+01  0.78764175880E+02 -0.43990827120E+02  0.90849857821E+02  0.41800000000E+01 0. -1.
        -11    1    1    2    0    0  0.25056404242E+02 -0.25669981807E+02  0.37922449390E+02  0.52200416927E+02  0.00000000000E+00 0. -1.
         11    1    1    2    0    0 -0.49569549695E+02 -0.18004440029E+02 -0.11528394253E+02  0.53983367733E+02  0.00000000000E+00 0.  1.
</event>
<event>
 7    1  0.2728221E-009  0.3456928E+03  0.7561462E-02  0.1064397E+00
         -2   -1    0    0    0  501 -0.00000000000E+00  0.00000000000E+00  0.20186188636E+03  0.20186188636E+03  0.00000000000E+00 0.  1.
          2   -1    0    0  501    0  0.00000000000E+00 -0.00000000000E+00 -0.11898842197E+04  0.11898842197E+04  0.00000000000E+00 0. -1.
         25    2    1    2    0    0  0.34280760908E+03 -0.15516905956E+02 -0.25825469989E+02  0.36615641963E+03  0.12508292257E+03 0.  0.
          5    1    3    3  502    0  0.96749919744E+02 -0.30415083638E+02  0.42923522871E+02  0.11020673981E+03  0.41800000000E+01 0. -1.
         -5    1    3    3    0  502  0.24605768934E+03  0.14898177683E+02 -0.68748992859E+02  0.25594967982E+03  0.41800000000E+01 0. -1.
        -11    1    1    2    0    0 -0.13302782445E+03  0.61400367462E+00 -0.25266598013E+03  0.28554662771E+03  0.00000000000E+00 0.  1.
         11    1    1    2    0    0 -0.20977978463E+03  0.14902902281E+02 -0.70953088318E+03  0.74004305870E+03  0.00000000000E+00 0. -1.
</event>
<event>
 7    1  0.2728221E-009  0.7522215E+02  0.7561462E-02  0.1343184E+00
         -2   -1    0    0    0  501 -0.00000000000E+00  0.00000000000E+00  0.48998931328E+03  0.48998931328E+03  0.00000000000E+00 0.  1.
          2   -1    0    0  501    0  0.00000000000E+00 -0.00000000000E+00 -0.24961438835E+02  0.24961438835E+02  0.00000000000E+00 0. -1.
         25    2    1    2    0    0 -0.35403498897E+01 -0.25066013509E+02  0.28740196466E+03  0.31446542356E+03  0.12509106368E+03 0.  0.
          5    1    3    3  502    0  0.37183405609E+02 -0.16988433806E+02  0.23609163118E+02  0.47392800287E+02  0.41800000000E+01 0. -1.
         -5    1    3    3    0  502 -0.40723755499E+02 -0.80775797030E+01  0.26379280155E+03  0.26707262328E+03  0.41800000000E+01 0. -1.
        -11    1    1    2    0    0  0.28351231577E+02 -0.48444919648E+01  0.13411613524E+02  0.31735355862E+02  0.00000000000E+00 0. -1.
         11    1    1    2    0    0 -0.24810881688E+02  0.29910505474E+02  0.16421429626E+03  0.16874997269E+03  0.00000000000E+00 0.  1.
</event>
<event>
 7    1  0.2728221E-009  0.1322253E+03  0.7561462E-02  0.1224191E+00
         -2   -1    0    0    0  501 -0.00000000000E+00  0.00000000000E+00  0.24131706644E+02  0.24131706644E+02  0.00000000000E+00 0.  1.
          2   -1    0    0  501    0  0.00000000000E+00 -0.00000000000E+00 -0.72759416483E+03  0.72759416483E+03  0.00000000000E+00 0. -1.
         25    2    1    2    0    0 -0.44585031947E+02 -0.53319550618E+02 -0.36519396066E+03  0.39223062102E+03  0.12508969426E+03 0.  0.
          5    1    3    3  502    0 -0.16501661597E+01  0.39954507287E+02 -0.11034150589E+03  0.11743852018E+03  0.41800000000E+01 0.  1.
         -5    1    3    3    0  502 -0.42934865787E+02 -0.93274057906E+02 -0.25485245477E+03  0.27479210084E+03  0.41800000000E+01 0.  1.
        -11    1    1    2    0    0  0.78956013783E+01  0.77263873542E+02 -0.20563169643E+03  0.21981001172E+03  0.00000000000E+00 0. -1.
         11    1    1    2    0    0  0.36689430568E+02 -0.23944322923E+02 -0.13263680110E+03  0.13968523874E+03  0.00000000000E+00 0.  1.
</event>
<event>
 7    1  0.2728221E-009  0.1635612E+03  0.7561462E-02  0.1184734E+00
         -2   -1    0    0    0  501 -0.00000000000E+00  0.00000000000E+00  0.29101608988E+03  0.29101608988E+03  0.00000000000E+00 0.  1.
          2   -1    0    0  501    0  0.00000000000E+00 -0.00000000000E+00 -0.10469236110E+03  0.10469236110E+03  0.00000000000E+00 0. -1.
         25    2    1    2    0    0  0.87780520425E+02 -0.96264964890E+02  0.14545364794E+03  0.23189563986E+03  0.12508581396E+03 0.  0.
          5    1    3    3  502    0  0.11414282731E+03 -0.10196915228E+03  0.11943309938E+03  0.19418555732E+03  0.41800000000E+01 0. -1.
         -5    1    3    3    0  502 -0.26362306880E+02  0.57041873928E+01  0.26020548560E+02  0.37710082540E+02  0.41800000000E+01 0. -1.
        -11    1    1    2    0    0 -0.99238384857E+02  0.87148184150E+02  0.55366866069E+02  0.14320807550E+03  0.00000000000E+00 0.  1.
         11    1    1    2    0    0  0.11457864432E+02  0.91167807403E+01 -0.14496785225E+02  0.20604735627E+02  0.00000000000E+00 0. -1.
</event>
<event>
 7    1  0.2728221E-009  0.1368997E+03  0.7561462E-02  0.1217563E+00
          2   -1    0    0  501    0  0.00000000000E+00  0.00000000000E+00  0.36095403814E+03  0.36095403814E+03  0.00000000000E+00 0. -1.
         -2   -1    0    0    0  501 -0.00000000000E+00 -0.00000000000E+00 -0.60066786593E+02  0.60066786593E+02  0.00000000000E+00 0.  1.
         25    2    1    2    0    0  0.13459184421E+02 -0.86364210315E+02  0.22808341536E+03  0.27442609703E+03  0.12509081461E+03 0.  0.
          5    1    3    3  502    0 -0.52706520982E+02 -0.59975076426E+02  0.10261249125E+03  0.13008375343E+03  0.41800000000E+01 0. -1.
         -5    1    3    3    0  502  0.66165705402E+02 -0.26389133890E+02  0.12547092411E+03  0.14434234360E+03  0.41800000000E+01 0. -1.
        -11    1    1    2    0    0  0.31179156959E+02  0.66867635783E+02  0.23857847719E+02  0.77541069387E+02  0.00000000000E+00 0.  1.
         11    1    1    2    0    0 -0.44638341380E+02  0.19496574532E+02  0.48945988472E+02  0.69053658318E+02  0.00000000000E+00 0. -1.
</event>
<event>
 7    1  0.2728221E-009  0.1083274E+03  0.7561462E-02  0.1263699E+00
          1   -1    0    0  501    0  0.00000000000E+00  0.00000000000E+00  0.48874388160E+03  0.48874388160E+03  0.00000000000E+00 0. -1.
         -1   -1    0    0    0  501 -0.00000000000E+00 -0.00000000000E+00 -0.25068294854E+02  0.25068294854E+02  0.00000000000E+00 0.  1.
         25    2    1    2    0    0  0.16141462748E+01 -0.77349353750E+01  0.22309763140E+03  0.25589526919E+03  0.12508957175E+03 0.  0.
          5    1    3    3  502    0  0.42544676156E+02 -0.49731874376E+02  0.13337756504E+03  0.14862824784E+03  0.41800000000E+01 0.  1.
         -5    1    3    3    0  502 -0.40930529881E+02  0.41996939001E+02  0.89720066361E+02  0.10726702135E+03  0.41800000000E+01 0.  1.
        -11    1    1    2    0    0 -0.16244504242E+02 -0.39565726403E+02  0.96019086294E+02  0.10511420245E+03  0.00000000000E+00 0. -1.
         11    1    1    2    0    0  0.14630357967E+02  0.47300661777E+02  0.14455886905E+03  0.15280270482E+03  0.00000000000E+00 0.  1.
</event>
<event>
 7    1  0.2728221E-009  0.3530792E+03  0.7561462E-02  0.1061358E+00
         -2   -1    0    0    0  501 -0.00000000000E+00  0.00000000000E+00  0.28049794002E+03  0.28049794002E+03  0.00000000000E+00 0.  1.
          2   -1    0    0  501    0  0.00000000000E+00 -0.00000000000E+00 -0.90684243239E+03  0.90684243239E+03  0.00000000000E+00 0. -1.
         25    2    1    2    0    0 -0.33211210499E+03  0.92349162848E+02  0.98218079596E+02  0.37963253338E+03  0.12508897264E+03 0.  0.
          5    1    3    3  502    0 -0.30508730544E+03  0.61767967960E+02  0.11945446725E+03  0.33343723240E+03  0.41800000000E+01 0. -1.
         -5    1    3    3    0  502 -0.27024799558E+02  0.30581194888E+02 -0.21236387651E+02  0.46195300978E+02  0.41800000000E+01 0. -1.
        -11    1    1    2    0    0  0.29760278187E+03 -0.10711511299E+03 -0.67594888765E+03  0.74628946256E+03  0.00000000000E+00 0. -1.
         11    1    1    2    0    0  0.34509323122E+02  0.14765950146E+02 -0.48613684313E+02  0.61418376472E+02  0.00000000000E+00 0.  1.
</event>
<event>
 6    1  0.2728221E-009  0.1315318E+03  0.7561462E-02  0.1225200E+00
         -1   -1    0    0    0  501 -0.00000000000E+00  0.00000000000E+00  0.20432291359E+02  0.20432291359E+02  0.00000000000E+00 0.  1.
          1   -1    0    0  501    0  0.00000000000E+00 -0.00000000000E+00 -0.10733534307E+04  0.10733534307E+04  0.00000000000E+00 0. -1.
          5    1    1    2  502    0  0.55192058807E+02  0.88061185070E+02 -0.63680001950E+03  0.64523846205E+03  0.41800000000E+01 0. -1.
         -5    1    1    2    0  502 -0.27159015599E+02  0.57717332510E+01 -0.33659542801E+02  0.43833346377E+02  0.41800000000E+01 0. -1.
        -11    1    1    2    0    0 -0.30440870073E+02  0.60713205479E+01 -0.67871479502E+02  0.74632735671E+02  0.00000000000E+00 0.  1.
         11    1    1    2    0    0  0.24078268641E+01 -0.99904238869E+02 -0.31459009749E+03  0.33008117792E+03  0.00000000000E+00 0. -1.
</event>
<event>
 7    1  0.2728221E-009  0.1037355E+03  0.7561462E-02  0.1272631E+00
         -2   -1    0    0    0  501 -0.00000000000E+00  0.00000000000E+00  0.10456595266E+02  0.10456595266E+02  0.00000000000E+00 0.  1.
          2   -1    0    0  501    0  0.00000000000E+00 -0.00000000000E+00 -0.14141778304E+04  0.14141778304E+04  0.00000000000E+00 0. -1.
         25    2    1    2    0    0  0.38958263095E+02  0.13074586060E+02 -0.10117704394E+04  0.10203012152E+04  0.12508579705E+03 0.  0.
          5    1    3    3  502    0  0.19242719252E+02 -0.45165664929E+02 -0.73965142184E+03  0.74129071070E+03  0.41800000000E+01 0.  1.
         -5    1    3    3    0  502  0.19715543843E+02  0.58240250989E+02 -0.27211901752E+03  0.27901050446E+03  0.41800000000E+01 0.  1.
        -11    1    1    2    0    0  0.23559066099E+02  0.15115732972E+02 -0.75129494664E+02  0.80174534281E+02  0.00000000000E+00 0. -1.
         11    1    1    2    0    0 -0.62517329194E+02 -0.28190319031E+02 -0.31682130111E+03  0.32415867622E+03  0.00000000000E+00 0.  1.
</event>
<event>
 7    1  0.2728221E-009  0.1184091E+03  0.7561462E-02  0.1245745E+00
          2   -1    0    0  501    0  0.00000000000E+00  0.00000000000E+00  0.72254876746E+02  0.72254876746E+02  0.00000000000E+00 0. -1.
         -2   -1    0    0    0  501 -0.00000000000E+00 -0.00000000000E+00 -0.21802152304E+03  0.21802152304E+03  0.00000000000E+00 0.  1.
         25    2    1    2    0    0  0.51750614655E+02  0.23553432835E+02 -0.11627299370E+03  0.18000009537E+03  0.12509090676E+03 0.  0.
          5    1    3    3  502    0  0.39227827091E+02 -0.49277301501E+02 -0.47957395236E+02  0.79274579907E+02  0.41800000000E+01 0.  1.
         -5    1    3    3    0  502  0.12522787564E+02  0.72830734337E+02 -0.68315598466E+02  0.10072551547E+03  0.41800000000E+01 0.  1.
        -11    1    1    2    0    0 -0.26552266378E+02  0.30259134470E+02  0.65387205612E+01  0.40784714480E+02  0.00000000000E+00 0. -1.
         11    1    1    2    0    0 -0.25198348278E+02 -0.53812567305E+02 -0.36032373148E+02  0.69491589927E+02  0.00000000000E+00 0.  1.
</event>
<event>
 7    1  0.2728221E-009  0.7792084E+02  0.7561462E-02  0.1335057E+00
         -1   -1    0    0    0  501 -0.00000000000E+00  0.00000000000E+00  0.35951555120E+02  0.35951555120E+02  0.00000000000E+00 0.  1.
          1   -1    0    0  501    0  0.00000000000E+00 -0.00000000000E+00 -0.41378764506E+03  0.41378764506E+03  0.00000000000E+00 0. -1.
         25    2    1    2    0    0 -0.33942074944E+02  0.97230757055E+01 -0.29412860256E+03  0.32156830138E+03  0.12509170619E+03 0.  0.
          5    1    3    3  502    0 -0.36256243583E+02  0.49361400313E+02 -0.66652564504E+02  0.90615119017E+02  0.41800000000E+01 0. -1.
         -5    1    3    3    0  502  0.23141686383E+01 -0.39638324608E+02 -0.22747603806E+03  0.23095318237E+03  0.41800000000E+01 0. -1.
        -11    1    1    2    0    0  0.31789686962E+02 -0.24161883180E+02 -0.99169424659E+02  0.10690629347E+03  0.00000000000E+00 0. -1.
         11    1    1    2    0    0  0.21523879819E+01  0.14438807475E+02  0.15461937281E+02  0.21264605329E+02  0.00000000000E+00 0.  1.
</event>
<event>
 7    1  0.2728221E-009  0.7047444E+02  0.7561462E-02  0.1358487E+00
         -2   -1    0    0    0  501 -0.00000000000E+00  0.00000000000E+00  0.36538858675E+03  0.36538858675E+03  0.00000000000E+00 0.  1.
          2   -1    0    0  501    0  0.00000000000E+00 -0.00000000000E+00 -0.57761182122E+02  0.57761182122E+02  0.00000000000E+00 0. -1.
         25    2    1    2    0    0  0.34693312607E+02  0.87859814615E+01  0.28877292097E+03  0.31673079099E+03  0.12509106551E+03 0.  0.
          5    1    3    3  502    0  0.21981346023E+02 -0.74221017567E+01  0.29410372955E+03  0.29504701880E+03  0.41800000000E+01 0.  1.
         -5    1    3    3    0  502  0.12711966583E+02  0.16208083218E+02 -0.53308085897E+01  0.21683772187E+02  0.41800000000E+01 0.  1.
        -11    1    1    2    0    0  0.28527107747E+02 -0.16029914316E+02 -0.13057490008E+02  0.35231407504E+02  0.00000000000E+00 0.  1.
         11    1    1    2    0    0 -0.63220420353E+02  0.72439328547E+01  0.31911973675E+02  0.71187570381E+02  0.00000000000E+00 0. -1.
</event>
<event>
 7    1  0.2728221E-009  0.1363715E+03  0.7561462E-02  0.1218297E+00
         -1   -1    0    0    0  501 -0.00000000000E+00  0.00000000000E+00  0.17298532992E+02  0.17298532992E+02  0.00000000000E+00 0.  1.
          1   -1    0    0  501    0  0.00000000000E+00 -0.00000000000E+00 -0.25771534027E+04  0.25771534027E+04  0.00000000000E+00 0. -1.
         25    2    1    2    0    0  0.66967101532E+02  0.61226840056E+02 -0.22911907747E+04  0.22963962864E+04  0.12508964421E+03 0.  0.
          5    1    3    3  502    0 -0.36158907943E+02  0.69757843817E+01 -0.45488124057E+03  0.45638858839E+03  0.41800000000E+01 0. -1.
         -5    1    3    3    0  502  0.10312600947E+03  0.54251055674E+02 -0.18363095342E+04  0.18400076980E+04  0.41800000000E+01 0. -1.
        -11    1    1    2    0    0 -0.68755865015E+02 -0.11968548706E+02 -0.21075330671E+03  0.22200804359E+03  0.00000000000E+00 0. -1.
         11    1    1    2    0    0  0.17887634833E+01 -0.49258291350E+02 -0.57910788225E+02  0.76047605711E+02  0.00000000000E+00 0.  1.
</event>
<event>
 7    1  0.2728221E-009  0.1025017E+03  0.7561462E-02  0.1275122E+00
          1   -1    0    0  501    0  0.00000000000E+00  0.00000000000E+00  0.35764827106E+03  0.35764827106E+03  0.00000000000E+00 0. -1.
         -1   -1    0    0    0  501 -0.00000000000E+00 -0.00000000000E+00 -0.34567501805E+02  0.34567501805E+02  0.00000000000E+00 0.  1.
         25    2    1    2    0    0 -0.38892531162E+02 -0.40190712722E+02  0.19391658541E+03  0.23744211628E+03  0.12508874497E+03 0.  0.
          5    1    3    3  502    0 -0.72264060771E+02 -0.10474235473E+01  0.16019871113E+03  0.17579616328E+03  0.41800000000E+01 0.  1.
         -5    1    3    3    0  502  0.33371529609E+02 -0.39143289175E+02  0.33717874276E+02  0.61645953003E+02  0.41800000000E+01 0.  1.
        -11    1    1    2    0    0 -0.15717642644E+02  0.92312259408E+01  0.11914506790E+02  0.21776484903E+02  0.00000000000E+00 0. -1.
         11    1    1    2    0    0  0.54610173806E+02  0.30959486782E+02  0.11724967705E+03  0.13299717168E+03  0.00000000000E+00 0.  1.
</event>
<event>
 7    1  0.2728221E-009  0.1398032E+03  0.7561462E-02  0.1213594E+00
         -1   -1    0    0    0  501 -0.00000000000E+00  0.00000000000E+00  0.21611188121E+02  0.21611188121E+02  0.00000000000E+00 0.  1.
          1   -1    0    0  501    0  0.00000000000E+00 -0.00000000000E+00 -0.10370603712E+04  0.10370603712E+04  0.00000000000E+00 0. -1.
         25    2    1    2    0    0 -0.43504764065E+02  0.90930064757E+02 -0.56866285208E+03  0.59091484763E+03  0.12506788810E+03 0.  0.
          5    1    3    3  502    0 -0.53172933576E+02 -0.13340978659E+02 -0.16773566529E+03  0.17651648191E+03  0.41800000000E+01 0.  1.
         -5    1    3    3    0  502  0.96681695111E+01  0.10427104342E+03 -0.40092718679E+03  0.41439836572E+03  0.41800000000E+01 0.  1.
        -11    1    1    2    0    0  0.47129978627E+02 -0.24170136573E+02 -0.87341569851E+02  0.10214685610E+03  0.00000000000E+00 0.  1.
         11    1    1    2    0    0 -0.36252145616E+01 -0.66759928184E+02 -0.35944476112E+03  0.36560985557E+03  0.00000000000E+00 0. -1.
</event>
<event>
 6    1  0.2728221E-009  0.1011213E+03  0.7561462E-02  0.1277955E+00
         -2   -1    0    0    0  501 -0.00000000000E+00  0.00000000000E+00  0.54882293772E+02  0.54882293772E+02  0.00000000000E+00 0.  1.
          2   -1    0    0  501    0  0.00000000000E+00 -0.00000000000E+00 -0.22861680448E+03  0.22861680448E+03  0.00000000000E+00 0. -1.
          5    1    1    2  502    0 -0.44367306336E+02 -0.51262472561E+02 -0.10757138345E+03  0.12722175090E+03  0.41800000000E+01 0.  1.
         -5    1    1    2    0  502  0.17422288534E+02  0.38019709774E+02 -0.27671246313E+01  0.42120824396E+02  0.41800000000E+01 0.  1.
        -11    1    1    2    0    0 -0.20148009363E+02 -0.24654574396E+02 -0.35174542873E+02  0.47445113408E+02  0.00000000000E+00 0.  1.
         11    1    1    2    0    0  0.47093027165E+02  0.37897337184E+02 -0.28221459753E+02  0.66711409547E+02  0.00000000000E+00 0. -1.
</event>
<event>
 7    1  0.2728221E-009  0.1073950E+03  0.7561462E-02  0.1265471E+00
          3   -1    0    0  501    0  0.00000000000E+00  0.00000000000E+00  0.70561020684E+02  0.70561020684E+02  0.00000000000E+00 0. -1.
         -3   -1    0    0    0  501 -0.00000000000E+00 -0.00000000000E+00 -0.16468204650E+03  0.16468204650E+03  0.00000000000E+00 0.  1.
         25    2    1    2    0    0 -0.95729365133E+01 -0.24051426015E+02 -0.53324785087E+02  0.13844848025E+03  0.12511729206E+03 0.  0.
          5    1    3    3  502    0 -0.67001798651E+02 -0.13593013232E+02 -0.36197268938E+02  0.77470805532E+02  0.41800000000E+01 0. -1.
         -5    1    3    3    0  502  0.57428862138E+02 -0.10458412783E+02 -0.17127516148E+02  0.60977674716E+02  0.41800000000E+01 0. -1.
        -11    1    1    2    0    0 -0.32387202439E+02  0.31473829645E+02 -0.20496699730E+02  0.49594833745E+02  0.00000000000E+00 0.  1.
         11    1    1    2    0    0  0.41960138952E+02 -0.74224036299E+01 -0.20299541001E+02  0.47199753192E+02  0.00000000000E+00 0. -1.
</event>
<event>
 7    1  0.2728221E-009  0.1495117E+03  0.7561462E-02  0.1201074E+00
          2   -1    0    0  501    0  0.00000000000E+00  0.00000000000E+00  0.18811561373E+03  0.18811561373E+03  0.00000000000E+00 0. -1.
         -2   -1    0    0    0  501 -0.00000000000E+00 -0.00000000000E+00 -0.15519387910E+03  0.15519387910E+03  0.00000000000E+00 0.  1.
         25    2    1    2    0    0  0.10568699750E+03  0.14039056064E+02 -0.56343690054E+02  0.17374886400E+03  0.12508884762E+03 0.  0.
          5    1    3    3  502    0 -0.19562193129E+02 -0.23758562173E+02 -0.23075405090E+02  0.38692317023E+02  0.41800000000E+01 0. -1.
         -5    1    3    3    0  502  0.12524919063E+03  0.37797618236E+02 -0.33268284963E+02  0.13505654698E+03  0.41800000000E+01 0. -1.
        -11    1    1    2    0    0  0.12161662480E+02 -0.14880813227E+02 -0.35559551194E+01  0.19544550478E+02  0.00000000000E+00 0.  1.
         11    1    1    2    0    0 -0.11784865998E+03  0.84175716349E+00  0.92821379805E+02  0.15001607835E+03  0.00000000000E+00 0. -1.
</event>
<event>
 7    1  0.2728221E-009  0.1181411E+03  0.7561462E-02  0.1246196E+00
         -2   -1    0    0    0  501 -0.00000000000E+00  0.00000000000E+00  0.25478211239E+02  0.25478211239E+02  0.00000000000E+00 0.  1.
          2   -1    0    0  501    0  0.00000000000E+00 -0.00000000000E+00 -0.67393869772E+03  0.67393869772E+03  0.00000000000E+00 0. -1.
         25    2    1    2    0    0  0.48421706481E+02 -0.52755660932E+02 -0.35753621228E+03  0.38549596730E+03  0.12508867372E+03 0.  0.
          5    1    3    3  502    0  0.72752449083E+02 -0.11381896230E+02 -0.30675011113E+03  0.31549258230E+03  0.41800000000E+01 0.  1.
         -5    1    3    3    0  502 -0.24330742603E+02 -0.41373764702E+02 -0.50786101155E+02  0.70003385002E+02  0.41800000000E+01 0.  1.
        -11    1    1    2    0    0 -0.74871137832E+02  0.41486352623E+02 -0.24711964184E+03  0.26152422855E+03  0.00000000000E+00 0. -1.
         11    1    1    2    0    0  0.26449431351E+02  0.11269308309E+02 -0.43804632357E+02  0.52396713108E+02  0.00000000000E+00 0.  1.
</event>
<event>
 7    1  0.2728221E-009  0.1615590E+03  0.7561462E-02  0.1186948E+00
          2   -1    0    0  501    0  0.00000000000E+00  0.00000000000E+00  0.97217941704E+02  0.97217941704E+02  0.00000000000E+00 0.  1.
         -2   -1    0    0    0  501 -0.00000000000E+00 -0.00000000000E+00 -0.35080648151E+03  0.35080648151E+03  0.00000000000E+00 0. -1.
         25    2    1    2    0    0  0.65389584418E+02  0.13331517814E+03 -0.14687830613E+03  0.24345485313E+03  0.12509314221E+03 0.  0.
          5    1    3    3  502    0  0.29669629190E+02  0.10722289004E+03 -0.16195934114E+03  0.19653329394E+03  0.41800000000E+01 0. -1.
         -5    1    3    3    0  502  0.35719955228E+02  0.26092288108E+02  0.15081035011E+02  0.46921559194E+02  0.41800000000E+01 0. -1.
        -11    1    1    2    0    0 -0.72562780253E+02 -0.61316507095E+02 -0.31208242482E+02  0.99995127477E+02  0.00000000000E+00 0. -1.
         11    1    1    2    0    0  0.71731958349E+01 -0.71998671049E+02 -0.75501991194E+02  0.10457444260E+03  0.00000000000E+00 0.  1.
</event>
<event>
 7    1  0.2728221E-009  0.1553590E+03  0.7561462E-02  0.1194038E+00
          1   -1    0    0  501    0  0.00000000000E+00  0.00000000000E+00  0.71306549902E+03  0.71306549902E+03  0.00000000000E+00 0. -1.
         -1   -1    0    0    0  501 -0.00000000000E+00 -0.00000000000E+00 -0.38477426787E+02  0.38477426787E+02  0.00000000000E+00 0.  1.
         25    2    1    2    0    0 -0.11644555311E+03 -0.41383166030E+02  0.37348857528E+03  0.41281919143E+03  0.12511528956E+03 0.  0.
          5    1    3    3  502    0 -0.14441037431E+02  0.32644997220E+02  0.16736132261E+03  0.17117687960E+03  0.41800000000E+01 0. -1.
         -5    1    3    3    0  502 -0.10200451568E+03 -0.74028163250E+02  0.20612725267E+03  0.24164231183E+03  0.41800000000E+01 0. -1.
        -11    1    1    2    0    0  0.75471937981E+02  0.66519847359E+02  0.15381378274E+03  0.18379222855E+03  0.00000000000E+00 0.  1.
         11    1    1    2    0    0  0.40973615127E+02 -0.25136681329E+02  0.14728571422E+03  0.15493150582E+03  0.00000000000E+00 0. -1.
</event>
<event>
 7    1  0.2728221E-009  0.1002180E+03  0.7561462E-02  0.1279838E+00
          1   -1    0    0  501    0  0.00000000000E+00  0.00000000000E+00  0.17160851209E+03  0.17160851209E+03  0.00000000000E+00 0. -1.
         -1   -1    0    0    0  501 -0.00000000000E+00 -0.00000000000E+00 -0.83998450074E+02  0.83998450074E+02  0.00000000000E+00 0.  1.
         25    2    1    2    0    0 -0.49906927216E+02  0.57527094432E+01  0.27170537760E+02  0.13749567774E+03  0.12507209211E+03 0.  0.
          5    1    3    3  502    0 -0.40352443125E+02  0.60306078243E+02 -0.57879248992E+01  0.72911694631E+02  0.41800000000E+01 0.  1.
         -5    1    3    3    0  502 -0.95544840911E+01 -0.54553368800E+02  0.32958462659E+02  0.64583983111E+02  0.41800000000E+01 0.  1.
        -11    1    1    2    0    0  0.42836072740E+02 -0.26448053751E+02  0.76077088259E+02  0.91225829857E+02  0.00000000000E+00 0. -1.
         11    1    1    2    0    0  0.70708544762E+01  0.20695344308E+02 -0.15637564005E+02  0.26885454563E+02  0.00000000000E+00 0.  1.
</event>
<event>
 7    1  0.2728221E-009  0.8738451E+02  0.7561462E-02  0.1309312E+00
          2   -1    0    0  501    0  0.00000000000E+00  0.00000000000E+00  0.30679051117E+03  0.30679051117E+03  0.00000000000E+00 0. -1.
         -2   -1    0    0    0  501 -0.00000000000E+00 -0.00000000000E+00 -0.45037610695E+02  0.45037610695E+02  0.00000000000E+00 0.  1.
         25    2    1    2    0    0 -0.20085270974E+02  0.33541787407E+02  0.10746899759E+03  0.16948928430E+03  0.12509421424E+03 0.  0.
          5    1    3    3  502    0  0.20944542853E+02  0.41064094015E+02  0.11758189578E+03  0.12636418918E+03  0.41800000000E+01 0. -1.
         -5    1    3    3    0  502 -0.41029813826E+02 -0.75223066084E+01 -0.10112898182E+02  0.43125095119E+02  0.41800000000E+01 0. -1.
        -11    1    1    2    0    0  0.16257264737E+02  0.23947090309E+02  0.17272976312E+02  0.33706342158E+02  0.00000000000E+00 0.  1.
         11    1    1    2    0    0  0.38280062373E+01 -0.57488877716E+02  0.13701092657E+03  0.14863249542E+03  0.00000000000E+00 0. -1.
</event>
<event>
 7    1  0.2728221E-009  0.9687596E+02  0.7561462E-02  0.1287006E+00
         -2   -1    0    0    0  501 -0.00000000000E+00  0.00000000000E+00  0.41639328766E+02  0.41639328766E+02  0.00000000000E+00 0.  1.
          2   -1    0    0  501    0  0.00000000000E+00 -0.00000000000E+00 -0.30830040458E+03  0.30830040458E+03  0.00000000000E+00 0. -1.
         25    2    1    2    0    0  0.81951895825E+01  0.22183278241E+02 -0.19253976795E+03  0.23082014911E+03  0.12508844881E+03 0.  0.
          5    1    3    3  502    0 -0.54752396673E+02 -0.32869810305E+01 -0.57298674657E+02  0.79430722666E+02  0.41800000000E+01 0.  1.
         -5    1    3    3    0  502  0.62947586255E+02  0.25470259272E+02 -0.13524109330E+03  0.15138942644E+03  0.41800000000E+01 0.  1.
        -11    1    1    2    0    0 -0.34295287922E+02 -0.27635975325E+02 -0.41492779905E+01  0.44239466697E+02  0.00000000000E+00 0.  1.
         11    1    1    2    0    0  0.26100098339E+02  0.54526970838E+01 -0.69972029869E+02  0.74880117539E+02  0.00000000000E+00 0. -1.
</event>
<event>
 7    1  0.2728221E-009  0.9939475E+02  0.7561462E-02  0.1281574E+00
         -1   -1    0    0    0  501 -0.00000000000E+00  0.00000000000E+00  0.15543122209E+03  0.15543122209E+03  0.00000000000E+00 0.  1.
          1   -1    0    0  501    0  0.00000000000E+00 -0.00000000000E+00 -0.90014858952E+02  0.90014858952E+02  0.00000000000E+00 0. -1.
         25    2    1    2    0    0 -0.15339547647E+02  0.13492939133E+02 -0.66690534807E+01  0.12688947319E+03  0.12505639130E+03 0.  0.
          5    1    3    3  502    0 -0.69275669589E+02 -0.36825498800E+01 -0.90182506109E+01  0.70081957841E+02  0.41800000000E+01 0.  1.
         -5    1    3    3    0  502  0.53936121943E+02  0.17175489013E+02  0.23491971302E+01  0.56807515350E+02  0.41800000000E+01 0.  1.
        -11    1    1    2    0    0  0.27303208070E+02 -0.37101167288E+02  0.78777535406E+02  0.91257119557E+02  0.00000000000E+00 0.  1.
         11    1    1    2    0    0 -0.11963660424E+02  0.23608228155E+02 -0.66921187870E+01  0.27299488296E+02  0.00000000000E+00 0. -1.
</event>
<event>
 7    1  0.2728221E-009  0.1138969E+03  0.7561462E-02  0.1253519E+00
          2   -1    0    0  501    0  0.00000000000E+00  0.00000000000E+00  0.39861119369E+03  0.39861119369E+03  0.00000000000E+00 0. -1.
         -2   -1    0    0    0  501 -0.00000000000E+00 -0.00000000000E+00 -0.35889985066E+02  0.35889985066E+02  0.00000000000E+00 0.  1.
         25    2    1    2    0    0  0.26269835607E+02  0.37565152415E+02  0.22977601690E+03  0.26560443587E+03  0.12508978166E+03 0.  0.
          5    1    3    3  502    0  0.58411079724E+02  0.66875564999E+02  0.14150537809E+03  0.16710906575E+03  0.41800000000E+01 0.  1.
         -5    1    3    3    0  502 -0.32141244117E+02 -0.29310412584E+02  0.88270638813E+02  0.98495370123E+02  0.41800000000E+01 0.  1.
        -11    1    1    2    0    0  0.12212860247E+02 -0.52516677268E+02  0.39813555704E+02  0.67024432594E+02  0.00000000000E+00 0.  1.
         11    1    1    2    0    0 -0.38482695854E+02  0.14951524853E+02  0.93131636015E+02  0.10187231028E+03  0.00000000000E+00 0. -1.
</event>
<event>
 7    1  0.2728221E-009  0.1213813E+03  0.7561462E-02  0.1240836E+00
          2   -1    0    0  501    0  0.00000000000E+00  0.00000000000E+00  0.38117482220E+03  0.38117482220E+03  0.00000000000E+00 0. -1.
         -2   -1    0    0    0  501 -0.00000000000E+00 -0.00000000000E+00 -0.56446500556E+02  0.56446500556E+02  0.00000000000E+00 0.  1.
         25    2    1    2    0    0 -0.93691826333E+02  0.15000955422E+02  0.13048161284E+03  0.20414543279E+03  0.12508684765E+03 0.  0.
          5    1    3    3  502    0 -0.10701746220E+03 -0.13597438286E+02  0.52762611449E+02  0.12016236145E+03  0.41800000000E+01 0. -1.
         -5    1    3    3    0  502  0.13325635864E+02  0.28598393707E+02  0.77719001396E+02  0.83983071341E+02  0.41800000000E+01 0. -1.
        -11    1    1    2    0    0  0.32395702218E+01 -0.12049281675E+02 -0.59130423543E+01  0.13807392005E+02  0.00000000000E+00 0.  1.
         11    1    1    2    0    0  0.90452256111E+02 -0.29516737472E+01  0.20015975115E+03  0.21966849796E+03  0.00000000000E+00 0. -1.
</event>
<event>
 7    1  0.2728221E-009  0.1291138E+03  0.7561462E-02  0.1228777E+00
         -2   -1    0    0    0  501 -0.00000000000E+00  0.00000000000E+00  0.13562466030E+03  0.13562466030E+03  0.00000000000E+00 0.  1.
          2   -1    0    0  501    0  0.00000000000E+00 -0.00000000000E+00 -0.23646372243E+03  0.23646372243E+03  0.00000000000E+00 0. -1.
         25    2    1    2    0    0  0.85549263274E+02 -0.54626349152E+02 -0.15615398004E+03  0.22435329085E+03  0.12509044394E+03 0.  0.
          5    1    3    3  502    0  0.76854161342E+01  0.17283410442E+02  0.13960877773E+02  0.23878031867E+02  0.41800000000E+01 0. -1.
         -5    1    3    3    0  502  0.77863847140E+02 -0.71909759593E+02 -0.17011485781E+03  0.20047525898E+03  0.41800000000E+01 0. -1.
        -11    1    1    2    0    0 -0.64664856707E+02  0.78079427923E+02  0.25739155382E+02  0.10459658158E+03  0.00000000000E+00 0.  1.
         11    1    1    2    0    0 -0.20884406567E+02 -0.23453078772E+02  0.29575762533E+02  0.43138510300E+02  0.00000000000E+00 0. -1.
</event>
<event>
 7    1  0.2728221E-009  0.1276934E+03  0.7561462E-02  0.1230919E+00
         -2   -1    0    0    0  501 -0.00000000000E+00  0.00000000000E+00  0.26039792367E+02  0.26039792367E+02  0.00000000000E+00 0.  1.
          2   -1    0    0  501    0  0.00000000000E+00 -0.00000000000E+00 -0.76855405300E+03  0.76855405300E+03  0.00000000000E+00 0. -1.
         25    2    1    2    0    0  0.79399971106E+02 -0.39124434008E+02 -0.45384084834E+03  0.47901446332E+03  0.12509302018E+03 0.  0.
          5    1    3    3  502    0  0.68727846904E+02  0.23181961619E+02 -0.12898456003E+03  0.14803854029E+03  0.41800000000E+01 0.  1.
         -5    1    3    3    0  502  0.10672124202E+02 -0.62306395627E+02 -0.32485628831E+03  0.33097592303E+03  0.41800000000E+01 0.  1.
        -11    1    1    2    0    0 -0.95088610202E+02  0.41059851563E+02 -0.27756186384E+03  0.29625722516E+03  0.00000000000E+00 0.  1.
         11    1    1    2    0    0  0.15688639097E+02 -0.19354175552E+01 -0.11111548453E+02  0.19322156889E+02  0.00000000000E+00 0. -1.
</event>
<event>
 7    1  0.2728221E-009  0.1181745E+03  0.7561462E-02  0.1246139E+00
          1   -1    0    0  501    0  0.00000000000E+00  0.00000000000E+00  0.20220322766E+02  0.20220322766E+02  0.00000000000E+00 0. -1.
         -1   -1    0    0    0  501 -0.00000000000E+00 -0.00000000000E+00 -0.11590936228E+04  0.11590936228E+04  0.00000000000E+00 0.  1.
         25    2    1    2    0    0 -0.79762491732E+02  0.28431220890E+02 -0.86316129977E+03  0.87627921505E+03  0.12508974335E+03 0.  0.
          5    1    3    3  502    0 -0.22555400341E+02  0.63670736806E+02 -0.23590558810E+03  0.24542132692E+03  0.41800000000E+01 0.  1.
         -5    1    3    3    0  502 -0.57207091391E+02 -0.35239515916E+02 -0.62725571168E+03  0.63085788813E+03  0.41800000000E+01 0.  1.
        -11    1    1    2    0    0  0.49744559426E+02  0.11830335439E+02 -0.22834791501E+03  0.23400266733E+03  0.00000000000E+00 0.  1.
         11    1    1    2    0    0  0.30017932306E+02 -0.40261556329E+02 -0.47364085294E+02  0.69032063229E+02  0.00000000000E+00 0. -1.
</event>
<event>
 7    1  0.2728221E-009  0.1529212E+03  0.7561462E-02  0.1196929E+00
          2   -1    0    0  501    0  0.00000000000E+00  0.00000000000E+00  0.29300489702E+02  0.29300489702E+02  0.00000000000E+00 0. -1.
         -2   -1    0    0    0  501 -0.00000000000E+00 -0.00000000000E+00 -0.82764161492E+03  0.82764161492E+03  0.00000000000E+00 0.  1.
         25    2    1    2    0    0 -0.10700877379E+03 -0.18051518144E+02 -0.36735560907E+03  0.40296203109E+03  0.12510603506E+03 0.  0.
          5    1    3    3  502    0 -0.64136723555E+02 -0.71957290228E+02 -0.20625617602E+03  0.22770694647E+03  0.41800000000E+01 0.  1.
         -5    1    3    3    0  502 -0.42872050239E+02  0.53905772084E+02 -0.16109943306E+03  0.17525508463E+03  0.41800000000E+01 0.  1.
        -11    1    1    2    0    0 -0.13069682991E+02  0.15469708085E+02 -0.38123744950E+02  0.43168836106E+02  0.00000000000E+00 0. -1.
         11    1    1    2    0    0  0.12007845678E+03  0.25818100587E+01 -0.39286177119E+03  0.41081123742E+03  0.00000000000E+00 0.  1.
</event>
<event>
 7    1  0.2728221E-009  0.1024354E+03  0.7561462E-02  0.1275256E+00
         -1   -1    0    0    0  501 -0.00000000000E+00  0.00000000000E+00  0.76798077114E+02  0.76798077114E+02  0.00000000000E+00 0.  1.
          1   -1    0    0  501    0  0.00000000000E+00 -0.00000000000E+00 -0.18693828849E+03  0.18693828849E+03  0.00000000000E+00 0. -1.
         25    2    1    2    0    0 -0.41475314622E+02  0.26950205201E+02 -0.63449005635E+02  0.14872713980E+03  0.12508984976E+03 0.  0.
          5    1    3    3  502    0 -0.37589730448E+02  0.69540785968E+02 -0.69489242534E+02  0.10533345136E+03  0.41800000000E+01 0.  1.
         -5    1    3    3    0  502 -0.38855841738E+01 -0.42590580767E+02  0.60402368997E+01  0.43393688438E+02  0.41800000000E+01 0.  1.
        -11    1    1    2    0    0  0.58873749163E+02 -0.28233030481E+02 -0.13691203540E+00  0.65293499642E+02  0.00000000000E+00 0.  1.
         11    1    1    2    0    0 -0.17398434541E+02  0.12828252793E+01 -0.46554293708E+02  0.49715726162E+02  0.00000000000E+00 0. -1.
</event>
<event>
 7    1  0.2728221E-009  0.8649535E+02  0.7561462E-02  0.1311568E+00
          1   -1    0    0  501    0  0.00000000000E+00  0.00000000000E+00  0.10453723665E+04  0.10453723665E+04  0.00000000000E+00 0. -1.
         -1   -1    0    0    0  501 -0.00000000000E+00 -0.00000000000E+00 -0.15142861840E+02  0.15142861840E+02  0.00000000000E+00 0.  1.
         25    2    1    2    0    0 -0.11715338325E+02 -0.39485250030E+02  0.78992116003E+03  0.80082429373E+03  0.12509107181E+03 0.  0.
          5    1    3    3  502    0 -0.41194312791E+02 -0.15349339369E+02  0.71774941315E+03  0.71910657493E+03  0.41800000000E+01 0. -1.
         -5    1    3    3    0  502  0.29478974466E+02 -0.24135910662E+02  0.72171746874E+02  0.81717718800E+02  0.41800000000E+01 0. -1.
        -11    1    1    2    0    0  0.92121968490E+01  0.64605434950E+02  0.11837386525E+03  0.13517062836E+03  0.00000000000E+00 0.  1.
         11    1    1    2    0    0  0.25031414762E+01 -0.25120184920E+02  0.12193447941E+03  0.12452030628E+03  0.00000000000E+00 0. -1.
</event>
<event>
 7    1  0.2728221E-009  0.1015430E+03  0.7561462E-02  0.1277084E+00
         -2   -1    0    0    0  501 -0.00000000000E+00  0.00000000000E+00  0.12185484013E+03  0.12185484013E+03  0.00000000000E+00 0.  1.
          2   -1    0    0  501    0  0.00000000000E+00 -0.00000000000E+00 -0.15545942954E+03  0.15545942954E+03  0.00000000000E+00 0. -1.
         25    2    1    2    0    0 -0.48586320730E+02 -0.66679602178E+02 -0.37115492785E+02  0.15437903775E+03  0.12509407493E+03 0.  0.
          5    1    3    3  502    0 -0.62888914536E+01 -0.18096010360E+02  0.45494073547E+02  0.49539871564E+02  0.41800000000E+01 0. -1.
         -5    1    3    3    0  502 -0.42297429276E+02 -0.48583591817E+02 -0.82609566331E+02  0.10483916619E+03  0.41800000000E+01 0. -1.
        -11    1    1    2    0    0 -0.18425887844E+02  0.44785737324E+02  0.16675324427E+02  0.51218571390E+02  0.00000000000E+00 0.  1.
         11    1    1    2    0    0  0.67012208574E+02  0.21893864854E+02 -0.13164421051E+02  0.71716660531E+02  0.00000000000E+00 0. -1.
</event>
<event>
 7    1  0.2728221E-009  0.8931833E+02  0.7561462E-02  0.1304511E+00
         -1   -1    0    0    0  501 -0.00000000000E+00  0.00000000000E+00  0.30695238497E+02  0.30695238497E+02  0.00000000000E+00 0.  1.
          1   -1    0    0  501    0  0.00000000000E+00 -0.00000000000E+00 -0.47210074683E+03  0.47210074683E+03  0.00000000000E+00 0. -1.
         25    2    1    2    0    0 -0.28222493329E+02 -0.38593798514E+02 -0.19193632153E+03  0.23404177177E+03  0.12509999601E+03 0.  0.
          5    1    3    3  502    0 -0.37291106239E+02 -0.58693159995E+02 -0.39743526735E+02  0.80203079443E+02  0.41800000000E+01 0.  1.
         -5    1    3    3    0  502  0.90686129094E+01  0.20099361481E+02 -0.15219279479E+03  0.15383869233E+03  0.41800000000E+01 0.  1.
        -11    1    1    2    0    0  0.48659923730E+02  0.73736836570E+01 -0.20440479227E+03  0.21024623300E+03  0.00000000000E+00 0. -1.
         11    1    1    2    0    0 -0.20437430401E+02  0.31220114857E+02 -0.45064394532E+02  0.58507980547E+02  0.00000000000E+00 0.  1.
</event>
<event>
 7    1  0.2728221E-009  0.1241727E+03  0.7561462E-02  0.1236368E+00
         -2   -1    0    0    0  501 -0.00000000000E+00  0.00000000000E+00  0.37827647962E+02  0.37827647962E+02  0.00000000000E+00 0. -1.
          2   -1    0    0  501    0  0.00000000000E+00 -0.00000000000E+00 -0.54823503793E+03  0.54823503793E+03  0.00000000000E+00 0.  1.
         25    2    1    2    0    0 -0.18740202231E+02 -0.90023516318E+02 -0.30142508221E+03  0.33906155047E+03  0.12510086392E+03 0.  0.
          5    1    3    3  502    0 -0.58550853952E+02 -0.44338971740E+01 -0.90789564451E+02  0.10820387865E+03  0.41800000000E+01 0.  1.
         -5    1    3    3    0  502  0.39810651720E+02 -0.85589619144E+02 -0.21063551776E+03  0.23085767182E+03  0.41800000000E+01 0.  1.
        -11    1    1    2    0    0  0.14343809011E+01  0.62250357231E+02 -0.38066732364E+02  0.72981097120E+02  0.00000000000E+00 0. -1.
         11    1    1    2    0    0  0.17305821330E+02  0.27773159087E+02 -0.17091557539E+03  0.17402003830E+03  0.00000000000E+00 0.  1.
</event>
<event>
 7    1  0.2728221E-009  0.8727286E+02  0.7561462E-02  0.1309594E+00
          2   -1    0    0  501    0  0.00000000000E+00  0.00000000000E+00  0.35760758929E+02  0.35760758929E+02  0.00000000000E+00 0. -1.
         -2   -1    0    0    0  501 -0.00000000000E+00 -0.00000000000E+00 -0.47116095174E+03  0.47116095174E+03  0.00000000000E+00 0.  1.
         25    2    1    2    0    0 -0.27486862310E+01  0.70469358467E+02 -0.22777056498E+03  0.26925778889E+03  0.12508733288E+03 0.  0.
          5    1    3    3  502    0  0.18626874845E+02  0.12503327508E+01  0.93419080108E+01  0.21290078529E+02  0.41800000000E+01 0.  1.
         -5    1    3    3    0  502 -0.21375561076E+02  0.69219025716E+02 -0.23711247300E+03  0.24796771036E+03  0.41800000000E+01 0.  1.
        -11    1    1    2    0    0  0.23119104094E+02 -0.39932721139E+02 -0.19251312476E+03  0.19796570005E+03  0.00000000000E+00 0.  1.
         11    1    1    2    0    0 -0.20370417863E+02 -0.30536637327E+02 -0.15116503062E+02  0.39698221723E+02  0.00000000000E+00 0. -1.
</event>
<event>
 7    1  0.2728221E-009  0.6116484E+02  0.7561462E-02  0.1393007E+00
         -2   -1    0    0    0  501 -0.00000000000E+00  0.00000000000E+00  0.73277460083E+03  0.73277460083E+03  0.00000000000E+00 0.  1.
          2   -1    0    0  501    0  0.00000000000E+00 -0.00000000000E+00 -0.20822865169E+02  0.20822865169E+02  0.00000000000E+00 0. -1.
         25    2    1    2    0    0  0.12754768302E+02  0.36981427925E+02  0.51203057354E+03  0.52854491223E+03  0.12511636937E+03 0.  0.
          5    1    3    3  502    0  0.25876132637E+02  0.21074572446E+02  0.27192722671E+02  0.43250761962E+02  0.41800000000E+01 0.  1.
         -5    1    3    3    0  502 -0.13121364335E+02  0.15906855479E+02  0.48483785087E+03  0.48529415027E+03  0.41800000000E+01 0.  1.
        -11    1    1    2    0    0  0.11139243796E+02 -0.41819779675E+02  0.19555384109E+03  0.20028549995E+03  0.00000000000E+00 0.  1.
         11    1    1    2    0    0 -0.23894012098E+02  0.48383517500E+01  0.43673210305E+01  0.24767053817E+02  0.00000000000E+00 0. -1.
</event>
<event>
 7    1  0.2728221E-009  0.1705639E+03  0.7561462E-02  0.1177261E+00
         -1   -1    0    0    0  501 -0.00000000000E+00  0.00000000000E+00  0.15213215799E+03  0.15213215799E+03  0.00000000000E+00 0.  1.
          1   -1    0    0  501    0  0.00000000000E+00 -0.00000000000E+00 -0.34605180725E+03  0.34605180725E+03  0.00000000000E+00 0. -1.
         25    2    1    2    0    0 -0.11006764890E+03  0.12641061387E+03  0.21184590346E+02  0.21021396263E+03  0.12508634051E+03 0.  0.
          5    1    3    3  502    0 -0.83218083046E+02  0.10185662294E+03 -0.41181997970E+02  0.13788926840E+03  0.41800000000E+01 0.  1.
         -5    1    3    3    0  502 -0.26849565852E+02  0.24553990932E+02  0.62366588316E+02  0.72324694229E+02  0.41800000000E+01 0.  1.
        -11    1    1    2    0    0  0.19794261713E+02 -0.52928149934E+02 -0.13589507282E+03  0.14717565244E+03  0.00000000000E+00 0. -1.
         11    1    1    2    0    0  0.90273387185E+02 -0.73482463935E+02 -0.79209166782E+02  0.14079435018E+03  0.00000000000E+00 0.  1.
</event>
<event>
 7    1  0.2728221E-009  0.1374266E+03  0.7561462E-02  0.1216834E+00
          1   -1    0    0  501    0  0.00000000000E+00  0.00000000000E+00  0.91379996584E+03  0.91379996584E+03  0.00000000000E+00 0. -1.
         -1   -1    0    0    0  501 -0.00000000000E+00 -0.00000000000E+00 -0.22849931350E+02  0.22849931350E+02  0.00000000000E+00 0.  1.
         25    2    1    2    0    0 -0.69030767276E+02 -0.64971825493E+02  0.49361317156E+03  0.51796529991E+03  0.12508998292E+03 0.  0.
          5    1    3    3  502    0 -0.33092942446E+02  0.28840668828E+02  0.71186746384E+02  0.83737400718E+02  0.41800000000E+01 0. -1.
         -5    1    3    3    0  502 -0.35937824830E+02 -0.93812494321E+02  0.42242642518E+03  0.43422789919E+03  0.41800000000E+01 0. -1.
        -11    1    1    2    0    0  0.89769016566E+02  0.41524726092E+02  0.26967149018E+03  0.28723769221E+03  0.00000000000E+00 0.  1.
         11    1    1    2    0    0 -0.20738249290E+02  0.23447099401E+02  0.12766537275E+03  0.13144690507E+03  0.00000000000E+00 0. -1.
</event>
<event>
 7    1  0.2728221E-009  0.8273856E+02  0.7561462E-02  0.1321455E+00
         -4   -1    0    0    0  501 -0.00000000000E+00  0.00000000000E+00  0.14304527504E+03  0.14304527504E+03  0.00000000000E+00 0.  1.
          4   -1    0    0  501    0  0.00000000000E+00 -0.00000000000E+00 -0.90848373416E+02  0.90848373416E+02  0.00000000000E+00 0. -1.
         25    2    1    2    0    0 -0.36221102669E+02 -0.50729703061E+01  0.27103870871E+02  0.13311646795E+03  0.12509065080E+03 0.  0.
          5    1    3    3  502    0  0.25774585549E+02  0.11198510489E+02  0.55914989976E+02  0.62719170924E+02  0.41800000000E+01 0.  1.
         -5    1    3    3    0  502 -0.61995688218E+02 -0.16271480795E+02 -0.28811119105E+02  0.70397297029E+02  0.41800000000E+01 0.  1.
        -11    1    1    2    0    0  0.11694802950E+02  0.33386116476E+02  0.45882250351E+02  0.57936017180E+02  0.00000000000E+00 0.  1.
         11    1    1    2    0    0  0.24526299719E+02 -0.28313146170E+02 -0.20789219594E+02  0.42841163328E+02  0.00000000000E+00 0. -1.
</event>
<event>
 7    1  0.2728221E-009  0.2020275E+03  0.7561462E-02  0.1148040E+00
         -1   -1    0    0    0  501 -0.00000000000E+00  0.00000000000E+00  0.77662402600E+02  0.77662402600E+02  0.00000000000E+00 0.  1.
          1   -1    0    0  501    0  0.00000000000E+00 -0.00000000000E+00 -0.11077378527E+04  0.11077378527E+04  0.00000000000E+00 0. -1.
         25    2    1    2    0    0 -0.17630898043E+03 -0.11804885700E+02 -0.94567719591E+03  0.97014244759E+03  0.12508716095E+03 0.  0.
          5    1    3    3  502    0 -0.17892590350E+03  0.18502861242E+02 -0.70869229857E+03  0.73117650487E+03  0.41800000000E+01 0.  1.
         -5    1    3    3    0  502  0.26169230741E+01 -0.30307746942E+02 -0.23698489734E+03  0.23896594272E+03  0.41800000000E+01 0.  1.
        -11    1    1    2    0    0  0.31334612382E+02 -0.29123562660E+02 -0.40064233316E+00  0.42780840915E+02  0.00000000000E+00 0.  1.
         11    1    1    2    0    0  0.14497436805E+03  0.40928448360E+02 -0.83997611838E+02  0.17247696678E+03  0.00000000000E+00 0. -1.
</event>
<event>
 7    1  0.2728221E-009  0.1127005E+03  0.7561462E-02  0.1255649E+00
         -1   -1    0    0    0  501 -0.00000000000E+00  0.00000000000E+00  0.49282526522E+02  0.49282526522E+02  0.00000000000E+00 0.  1.
          1   -1    0    0  501    0  0.00000000000E+00 -0.00000000000E+00 -0.32645424815E+03  0.32645424815E+03  0.00000000000E+00 0. -1.
         25    2    1    2    0    0  0.26158605697E+02 -0.10737749640E+02 -0.23893237270E+03  0.27117487994E+03  0.12509022691E+03 0.  0.
          5    1    3    3  502    0  0.76587904184E+02 -0.11257183556E+02 -0.13883531529E+03  0.15901304482E+03  0.41800000000E+01 0.  1.
         -5    1    3    3    0  502 -0.50429298487E+02  0.51943391575E+00 -0.10009705741E+03  0.11216183513E+03  0.41800000000E+01 0.  1.
        -11    1    1    2    0    0 -0.52973984400E+02 -0.19871699878E+02 -0.23828802378E+02  0.61391687564E+02  0.00000000000E+00 0.  1.
         11    1    1    2    0    0  0.26815378702E+02  0.30609449519E+02 -0.14410546548E+02  0.43170207164E+02  0.00000000000E+00 0. -1.
</event>
<event>
 7    1  0.3946546E-009  0.3050847E+03  0.7561462E-02  0.1082726E+00
          2   -1    0    0  501    0  0.00000000000E+00  0.00000000000E+00  0.51396943086E+03  0.51396943086E+03  0.00000000000E+00 0. -1.
         -2   -1    0    0    0  501 -0.00000000000E+00 -0.00000000000E+00 -0.21167338514E+03  0.21167338514E+03  0.00000000000E+00 0.  1.
         25    2    1    2    0    0  0.22614248145E+03 -0.19496175078E+03  0.57219513922E+02  0.32874328590E+03  0.12509024371E+03 0.  0.
          5    1    3    3  502    0  0.17703728754E+02 -0.28918339610E+02 -0.32867068732E+02  0.47406845335E+02  0.41800000000E+01 0. -1.
         -5    1    3    3    0  502  0.20843875270E+03 -0.16604341117E+03  0.90086582654E+02  0.28133644057E+03  0.41800000000E+01 0. -1.
        -11    1    1    2    0    0 -0.94515877931E+02  0.13510871907E+03  0.15648890920E+03  0.22732442863E+03  0.00000000000E+00 0. -1.
         11    1    1    2    0    0 -0.13162660352E+03  0.59853031708E+02  0.88587622593E+02  0.16957510146E+03  0.00000000000E+00 0.  1.
</event>
<event>
 7    1  0.2728221E-009  0.2410984E+03  0.7561462E-02  0.1119063E+00
          2   -1    0    0  501    0  0.00000000000E+00  0.00000000000E+00  0.83411023944E+03  0.83411023944E+03  0.00000000000E+00 0.  1.
         -2   -1    0    0    0  501 -0.00000000000E+00 -0.00000000000E+00 -0.73388509435E+02  0.73388509435E+02  0.00000000000E+00 0. -1.
         25    2    1    2    0    0  0.17307628266E+03  0.13412959857E+03  0.45962525549E+03  0.52426175656E+03  0.12509542386E+03 0.  0.
          5    1    3    3  502    0  0.11617160209E+03  0.14899865261E+03  0.38730096320E+03  0.43094773245E+03  0.41800000000E+01 0.  1.
         -5    1    3    3    0  502  0.56904680569E+02 -0.14869054039E+02  0.72324292294E+02  0.93314024104E+02  0.41800000000E+01 0.  1.
        -11    1    1    2    0    0 -0.37264618633E+02 -0.79621131164E+02  0.14253479493E+03  0.16746445622E+03  0.00000000000E+00 0.  1.
         11    1    1    2    0    0 -0.13581166403E+03 -0.54508467408E+02  0.15856167959E+03  0.21577253611E+03  0.00000000000E+00 0. -1.
</event>
<event>
 7    1  0.3009588E-009  0.9413377E+02  0.7561462E-02  0.1293139E+00
         -1   -1    0    0    0  501 -0.00000000000E+00  0.00000000000E+00  0.14123638290E+02  0.14123638290E+02  0.00000000000E+00 0.  1.
          1   -1    0    0  501    0  0.00000000000E+00 -0.00000000000E+00 -0.11604609083E+04  0.11604609083E+04  0.00000000000E+00 0. -1.
         25    2    1    2    0    0  0.34041919338E+02  0.48952756233E+01 -0.89841100062E+03  0.90772961213E+03  0.12509159332E+03 0.  0.
          5    1    3    3  502    0  0.81133269818E+02  0.10659973567E+02 -0.59020905086E+03  0.59586948120E+03  0.41800000000E+01 0.  1.
         -5    1    3    3    0  502 -0.47091350480E+02 -0.57646979436E+01 -0.30820194975E+03  0.31186013093E+03  0.41800000000E+01 0.  1.
        -11    1    1    2    0    0  0.85717032920E+01 -0.12758547817E+02 -0.20476417595E+00  0.15371940935E+02  0.00000000000E+00 0.  1.
         11    1    1    2    0    0 -0.42613622630E+02  0.78632721940E+01 -0.24772150519E+03  0.25148299350E+03  0.00000000000E+00 0. -1.
</event>
<event>
 7    1  0.2728221E-009  0.8302118E+02  0.7561462E-02  0.1320690E+00
         -2   -1    0    0    0  501 -0.00000000000E+00  0.00000000000E+00  0.10797299951E+03  0.10797299951E+03  0.00000000000E+00 0.  1.
          2   -1    0    0  501    0  0.00000000000E+00 -0.00000000000E+00 -0.14914978424E+03  0.14914978424E+03  0.00000000000E+00 0. -1.
         25    2    1    2    0    0  0.49969940531E+02  0.26519624861E+02 -0.61734967936E+02  0.15053039195E+03  0.12509159515E+03 0.  0.
          5    1    3    3  502    0  0.15778554948E+02 -0.39269676104E+01  0.37542314779E+02  0.41125195073E+02  0.41800000000E+01 0.  1.
         -5    1    3    3    0  502  0.34191385583E+02  0.30446592471E+02 -0.99277282715E+02  0.10940519688E+03  0.41800000000E+01 0.  1.
        -11    1    1    2    0    0 -0.37387804872E+02  0.28391868381E+02  0.17743945599E+02  0.50187585604E+02  0.00000000000E+00 0.  1.
         11    1    1    2    0    0 -0.12582135659E+02 -0.54911493242E+02  0.28142376030E+01  0.56404806188E+02  0.00000000000E+00 0. -1.
</event>
<event>
 7    1  0.2728221E-009  0.1242103E+03  0.7561462E-02  0.1236309E+00
         -2   -1    0    0    0  501 -0.00000000000E+00  0.00000000000E+00  0.82467818882E+03  0.82467818882E+03  0.00000000000E+00 0.  1.
          2   -1    0    0  501    0  0.00000000000E+00 -0.00000000000E+00 -0.24097091313E+02  0.24097091313E+02  0.00000000000E+00 0. -1.
         25    2    1    2    0    0  0.69647055997E+02  0.56893058304E+02  0.48042884546E+03  0.50452633124E+03  0.12508961136E+03 0.  0.
          5    1    3    3  502    0 -0.21828281478E+02  0.58115249808E+02  0.20896687855E+03  0.21803321963E+03  0.41800000000E+01 0. -1.
         -5    1    3    3    0  502  0.91475337475E+02 -0.12221915040E+01  0.27146196691E+03  0.28649311160E+03  0.41800000000E+01 0. -1.
        -11    1    1    2    0    0 -0.61603344783E+02 -0.34014076687E+02  0.31012060039E+03  0.31800427087E+03  0.00000000000E+00 0.  1.
         11    1    1    2    0    0 -0.80437112142E+01 -0.22878981616E+02  0.10031651653E+02  0.26244678028E+02  0.00000000000E+00 0. -1.
</event>
<event>
 7    1  0.2728221E-009  0.1079421E+03  0.7561462E-02  0.1264429E+00
         -1   -1    0    0    0  501 -0.00000000000E+00  0.00000000000E+00  0.83927217590E+02  0.83927217590E+02  0.00000000000E+00 0. -1.
          1   -1    0    0  501    0  0.00000000000E+00 -0.00000000000E+00 -0.19986653154E+03  0.19986653154E+03  0.00000000000E+00 0.  1.
         25    2    1    2    0    0 -0.52420826592E+02 -0.44449406853E+01 -0.11670360259E+03  0.17898252530E+03  0.12508921995E+03 0.  0.
          5    1    3    3  502    0  0.21294484716E+02 -0.27415559838E+02  0.44595819936E+01  0.35248096007E+02  0.41800000000E+01 0.  1.
         -5    1    3    3    0  502 -0.73715311308E+02  0.22970619153E+02 -0.12116318459E+03  0.14373442930E+03  0.41800000000E+01 0.  1.
        -11    1    1    2    0    0  0.40160537149E+02 -0.40483128631E+02  0.83315165996E+01  0.57629563739E+02  0.00000000000E+00 0.  1.
         11    1    1    2    0    0  0.12260289443E+02  0.44928069316E+02 -0.75672279533E+01  0.47181660088E+02  0.00000000000E+00 0. -1.
</event>
<event>
 7    1  0.2728221E-009  0.1527434E+03  0.7561462E-02  0.1197142E+00
          2   -1    0    0  501    0  0.00000000000E+00  0.00000000000E+00  0.10309059582E+04  0.10309059582E+04  0.00000000000E+00 0. -1.
         -2   -1    0    0    0  501 -0.00000000000E+00 -0.00000000000E+00 -0.23513893510E+02  0.23513893510E+02  0.00000000000E+00 0.  1.
         25    2    1    2    0    0 -0.70826556593E+02 -0.88652724279E+02  0.57364798570E+03  0.59799624220E+03  0.12510710432E+03 0.  0.
          5    1    3    3  502    0 -0.25538034900E+02  0.31270260462E+02  0.14444432556E+03  0.15003884831E+03  0.41800000000E+01 0.  1.
         -5    1    3    3    0  502 -0.45288521694E+02 -0.11992298474E+03  0.42920366014E+03  0.44795739389E+03  0.41800000000E+01 0.  1.
        -11    1    1    2    0    0  0.63363627918E+02  0.18385204331E+02  0.14744681797E+03  0.16153491638E+03  0.00000000000E+00 0.  1.
         11    1    1    2    0    0  0.74629286757E+01  0.70267519948E+02  0.28629726099E+03  0.29488869309E+03  0.00000000000E+00 0. -1.
</event>
<event>
 7    1  0.2728221E-009  0.1117090E+03  0.7561462E-02  0.1257437E+00
         -2   -1    0    0    0  501 -0.00000000000E+00  0.00000000000E+00  0.25820875482E+03  0.25820875482E+03  0.00000000000E+00 0.  1.
          2   -1    0    0  501    0  0.00000000000E+00 -0.00000000000E+00 -0.89883271794E+02  0.89883271794E+02  0.00000000000E+00 0. -1.
         25    2    1    2    0    0 -0.69088002779E+02  0.73772970276E+02  0.50901904700E+02  0.16868284989E+03  0.12508915490E+03 0.  0.
          5    1    3    3  502    0 -0.12144457586E+02  0.27719747486E+01 -0.38715461706E+02  0.40884362159E+02  0.41800000000E+01 0. -1.
         -5    1    3    3    0  502 -0.56943545193E+02  0.71000995527E+02  0.89617366406E+02  0.12779848773E+03  0.41800000000E+01 0. -1.
        -11    1    1    2    0    0  0.53433587817E+02 -0.11106584362E+02  0.97636404397E+02  0.11185424438E+03  0.00000000000E+00 0.  1.
         11    1    1    2    0    0  0.15654414962E+02 -0.62666385913E+02  0.19787173928E+02  0.67554932339E+02  0.00000000000E+00 0. -1.
</event>
<event>
 7    1  0.2728221E-009  0.1005405E+03  0.7561462E-02  0.1279163E+00
         -3   -1    0    0    0  501 -0.00000000000E+00  0.00000000000E+00  0.43162035804E+02  0.43162035804E+02  0.00000000000E+00 0.  1.
          3   -1    0    0  501    0  0.00000000000E+00 -0.00000000000E+00 -0.30764248020E+03  0.30764248020E+03  0.00000000000E+00 0. -1.
         25    2    1    2    0    0 -0.58847537728E+01  0.28909436779E+02 -0.18737706786E+03  0.22721835682E+03  0.12509048826E+03 0.  0.
          5    1    3    3  502    0 -0.48666455578E+02 -0.63132380884E+01 -0.24276434650E+02  0.54909913067E+02  0.41800000000E+01 0. -1.
         -5    1    3    3    0  502  0.42781701805E+02  0.35222674867E+02 -0.16310063321E+03  0.17230844375E+03  0.41800000000E+01 0. -1.
        -11    1    1    2    0    0 -0.42920193299E+02 -0.11441306894E+02 -0.30520872301E+02  0.53894064073E+02  0.00000000000E+00 0.  1.
         11    1    1    2    0    0  0.48804947072E+02 -0.17468129885E+02 -0.46582504232E+02  0.69692095111E+02  0.00000000000E+00 0. -1.
</event>
<event>
 7    1  0.2728221E-009  0.1394039E+03  0.7561462E-02  0.1214133E+00
         -2   -1    0    0    0  501 -0.00000000000E+00  0.00000000000E+00  0.31392712287E+03  0.31392712287E+03  0.00000000000E+00 0.  1.
          2   -1    0    0  501    0  0.00000000000E+00 -0.00000000000E+00 -0.10315050328E+03  0.10315050328E+03  0.00000000000E+00 0. -1.
         25    2    1    2    0    0 -0.12038147310E+03 -0.38488342564E+02  0.35395931845E+02  0.18129607572E+03  0.12506935477E+03 0.  0.
          5    1    3    3  502    0 -0.75708560189E+02  0.20266767760E+02 -0.28582571141E+02  0.83528221186E+02  0.41800000000E+01 0. -1.
         -5    1    3    3    0  502 -0.44672912907E+02 -0.58755110323E+02  0.63978502986E+02  0.97767854538E+02  0.41800000000E+01 0. -1.
        -11    1    1    2    0    0  0.88794538596E+02  0.27656703823E+02  0.49113814645E+02  0.10517380919E+03  0.00000000000E+00 0. -1.
         11    1    1    2    0    0  0.31586934501E+02  0.10831638741E+02  0.12626687310E+03  0.13060774124E+03  0.00000000000E+00 0.  1.
</event>
<event>
 7    1  0.2728221E-009  0.9904726E+02  0.7561462E-02  0.1282312E+00
         -1   -1    0    0    0  501 -0.00000000000E+00  0.00000000000E+00  0.15455926477E+03  0.15455926477E+03  0.00000000000E+00 0.  1.
          1   -1    0    0  501    0  0.00000000000E+00 -0.00000000000E+00 -0.16101298926E+03  0.16101298926E+03  0.00000000000E+00 0. -1.
         25    2    1    2    0    0 -0.38192829763E+02 -0.23976105647E+02 -0.10797042482E+03  0.17128603322E+03  0.12509095352E+03 0.  0.
          5    1    3    3  502    0 -0.71210459449E+02  0.14373823314E+02 -0.93515488293E+02  0.11849116120E+03  0.41800000000E+01 0. -1.
         -5    1    3    3    0  502  0.33017629686E+02 -0.38349928961E+02 -0.14454936526E+02  0.52794872018E+02  0.41800000000E+01 0. -1.
        -11    1    1    2    0    0  0.44791894006E+02 -0.47803917990E+01  0.73957790278E+01  0.45649353356E+02  0.00000000000E+00 0.  1.
         11    1    1    2    0    0 -0.65990642431E+01  0.28756497446E+02  0.94120921307E+02  0.98636867458E+02  0.00000000000E+00 0. -1.
</event>
<event>
 7    1  0.2728221E-009  0.1227615E+03  0.7561462E-02  0.1238610E+00
          1   -1    0    0  501    0  0.00000000000E+00  0.00000000000E+00  0.72237227114E+02  0.72237227114E+02  0.00000000000E+00 0. -1.
         -1   -1    0    0    0  501 -0.00000000000E+00 -0.00000000000E+00 -0.23990616468E+03  0.23990616468E+03  0.00000000000E+00 0.  1.
         25    2    1    2    0    0 -0.59560566296E+02  0.21200774827E+02 -0.51421667616E+02  0.14929394008E+03  0.12509020239E+03 0.  0.
          5    1    3    3  502    0 -0.10847766751E+01  0.63375248303E+02 -0.56080132608E+01  0.63769279835E+02  0.41800000000E+01 0.  1.
         -5    1    3    3    0  502 -0.58475789621E+02 -0.42174473476E+02 -0.45813654355E+02  0.85524660246E+02  0.41800000000E+01 0.  1.
        -11    1    1    2    0    0 -0.21597590069E+02 -0.18727184459E+02 -0.51883737197E+02  0.59237534723E+02  0.00000000000E+00 0.  1.
         11    1    1    2    0    0  0.81158156366E+02 -0.24735903676E+01 -0.64363532758E+02  0.10361191699E+03  0.00000000000E+00 0. -1.
</event>
<event>
 7    1  0.2728221E-009  0.8129408E+02  0.7561462E-02  0.1325419E+00
         -2   -1    0    0    0  501 -0.00000000000E+00  0.00000000000E+00  0.27280170316E+03  0.27280170316E+03  0.00000000000E+00 0. -1.
          2   -1    0    0  501    0  0.00000000000E+00 -0.00000000000E+00 -0.45838041891E+02  0.45838041891E+02  0.00000000000E+00 0.  1.
         25    2    1    2    0    0 -0.14265317954E+02 -0.11588494297E+02  0.15772150937E+03  0.20214035948E+03  0.12508740111E+03 0.  0.
          5    1    3    3  502    0 -0.20214019694E+02 -0.53285084437E+02  0.24174619362E+02  0.62046687558E+02  0.41800000000E+01 0.  1.
         -5    1    3    3    0  502  0.59487017401E+01  0.41696590139E+02  0.13354689001E+03  0.14009367192E+03  0.41800000000E+01 0.  1.
        -11    1    1    2    0    0 -0.23890089178E+02  0.43353895015E+01 -0.11526880720E+02  0.26877517411E+02  0.00000000000E+00 0.  1.
         11    1    1    2    0    0  0.38155407132E+02  0.72531047957E+01  0.80769032622E+02  0.89621868165E+02  0.00000000000E+00 0. -1.
</event>
<event>
 7    1  0.2728221E-009  0.9495191E+02  0.7561462E-02  0.1291284E+00
         -1   -1    0    0    0  501 -0.00000000000E+00  0.00000000000E+00  0.50662412320E+02  0.50662412320E+02  0.00000000000E+00 0.  1.
          1   -1    0    0  501    0  0.00000000000E+00 -0.00000000000E+00 -0.25439886097E+03  0.25439886097E+03  0.00000000000E+00 0. -1.
         25    2    1    2    0    0  0.17297868093E+02 -0.23120136698E+02 -0.13437232207E+03  0.18584105516E+03  0.12508884796E+03 0.  0.
          5    1    3    3  502    0 -0.66505315802E+01 -0.54290054084E+02 -0.10548130927E+02  0.55860316941E+02  0.41800000000E+01 0. -1.
         -5    1    3    3    0  502  0.23948399673E+02  0.31169917385E+02 -0.12382419114E+03  0.12998073822E+03  0.41800000000E+01 0. -1.
        -11    1    1    2    0    0  0.37683343819E+02  0.85778219917E+01 -0.18190244458E+02  0.42714147832E+02  0.00000000000E+00 0.  1.
         11    1    1    2    0    0 -0.54981211912E+02  0.14542314707E+02 -0.51173882122E+02  0.76506070294E+02  0.00000000000E+00 0. -1.
</event>
<event>
 7    1  0.2728221E-009  0.1476530E+03  0.7561462E-02  0.1203387E+00
         -2   -1    0    0    0  501 -0.00000000000E+00  0.00000000000E+00  0.69824196046E+02  0.69824196046E+02  0.00000000000E+00 0.  1.
          2   -1    0    0  501    0  0.00000000000E+00 -0.00000000000E+00 -0.40864194381E+03  0.40864194381E+03  0.00000000000E+00 0. -1.
         25    2    1    2    0    0 -0.10366335644E+02 -0.12341930211E+03 -0.12162241614E+03  0.21395490817E+03  0.12507959696E+03 0.  0.
          5    1    3    3  502    0  0.29303129430E+02 -0.10204832343E+03 -0.27864627148E+02  0.10984736481E+03  0.41800000000E+01 0.  1.
         -5    1    3    3    0  502 -0.39669465074E+02 -0.21370978676E+02 -0.93757788987E+02  0.10410754336E+03  0.41800000000E+01 0.  1.
        -11    1    1    2    0    0  0.42002917570E+02  0.74968811933E+02 -0.16740930472E+03  0.18817662754E+03  0.00000000000E+00 0. -1.
         11    1    1    2    0    0 -0.31636581926E+02  0.48450490175E+02 -0.49786026910E+02  0.76334604143E+02  0.00000000000E+00 0.  1.
</event>
<event>
 7    1  0.2728221E-009  0.9535208E+02  0.7561462E-02  0.1290385E+00
          1   -1    0    0  501    0  0.00000000000E+00  0.00000000000E+00  0.84864850064E+02  0.84864850064E+02  0.00000000000E+00 0. -1.
         -1   -1    0    0    0  501 -0.00000000000E+00 -0.00000000000E+00 -0.17819068594E+03  0.17819068594E+03  0.00000000000E+00 0.  1.
         25    2    1    2    0    0 -0.47904277638E+01 -0.16762086453E+02 -0.30488728759E+01  0.12635372879E+03  0.12510816685E+03 0.  0.
          5    1    3    3  502    0 -0.38724990265E+02 -0.58309635731E+02 -0.13840358522E+02  0.71474935566E+02  0.41800000000E+01 0.  1.
         -5    1    3    3    0  502  0.33934562502E+02  0.41547549278E+02  0.10791485646E+02  0.54878793223E+02  0.41800000000E+01 0.  1.
        -11    1    1    2    0    0 -0.23901659579E+02  0.27230641206E+02  0.50672359065E+01  0.36585161347E+02  0.00000000000E+00 0. -1.
         11    1    1    2    0    0  0.28692087342E+02 -0.10468554753E+02 -0.95344198908E+02  0.10011664587E+03  0.00000000000E+00 0.  1.
</event>
<event>
 7    1  0.2728221E-009  0.1527769E+03  0.7561462E-02  0.1197102E+00
          1   -1    0    0  501    0  0.00000000000E+00  0.00000000000E+00  0.17390158309E+02  0.17390158309E+02  0.00000000000E+00 0. -1.
         -1   -1    0    0    0  501 -0.00000000000E+00 -0.00000000000E+00 -0.15446341333E+04  0.15446341333E+04  0.00000000000E+00 0.  1.
         25    2    1    2    0    0 -0.56323519994E+02  0.10301370801E+03 -0.99444327071E+03  0.10091322550E+04  0.12508527717E+03 0.  0.
          5    1    3    3  502    0 -0.84549917408E+02  0.28746248055E+02 -0.61254537291E+03  0.61903500837E+03  0.41800000000E+01 0.  1.
         -5    1    3    3    0  502  0.28226397414E+02  0.74267459957E+02 -0.38189789780E+03  0.39009724667E+03  0.41800000000E+01 0.  1.
        -11    1    1    2    0    0  0.11862948096E+02  0.97658633567E+01 -0.16485059044E+02  0.22535722671E+02  0.00000000000E+00 0. -1.
         11    1    1    2    0    0  0.44460571898E+02 -0.11277957137E+03 -0.51631564520E+03  0.53035631386E+03  0.00000000000E+00 0.  1.
</event>
<event>
 7    1  0.2820792E-009  0.1170725E+03  0.7561462E-02  0.1248006E+00
         -1   -1    0    0    0  501 -0.00000000000E+00  0.00000000000E+00  0.14532083251E+03  0.14532083251E+03  0.00000000000E+00 0.  1.
          1   -1    0    0  501    0  0.00000000000E+00 -0.00000000000E+00 -0.14139384851E+03  0.14139384851E+03  0.00000000000E+00 0. -1.
         25    2    1    2    0    0 -0.67008975247E+02 -0.20446738715E+02 -0.59025167656E+02  0.15503783938E+03  0.12507793304E+03 0.  0.
          5    1    3    3  502    0  0.27622758674E+02 -0.16041337434E+02  0.14223557413E+02  0.35215384264E+02  0.41800000000E+01 0. -1.
         -5    1    3    3    0  502 -0.94631733920E+02 -0.44054012804E+01 -0.73248725068E+02  0.11982245511E+03  0.41800000000E+01 0. -1.
        -11    1    1    2    0    0  0.31888424476E+02  0.51268314554E+02  0.59586895402E+02  0.84828708563E+02  0.00000000000E+00 0.  1.
         11    1    1    2    0    0  0.35120550770E+02 -0.30821575839E+02  0.33652562510E+01  0.46848133082E+02  0.00000000000E+00 0. -1.
</event>
<event>
 7    1  0.2728221E-009  0.1308346E+03  0.7561462E-02  0.1226223E+00
          2   -1    0    0  501    0  0.00000000000E+00  0.00000000000E+00  0.13233921098E+04  0.13233921098E+04  0.00000000000E+00 0. -1.
         -2   -1    0    0    0  501 -0.00000000000E+00 -0.00000000000E+00 -0.13420739890E+02  0.13420739890E+02  0.00000000000E+00 0.  1.
         25    2    1    2    0    0 -0.66973949775E+02  0.30714136281E+02  0.83856521724E+03  0.85103241576E+03  0.12504271670E+03 0.  0.
          5    1    3    3  502    0  0.33645603182E+02 -0.11244428246E+02  0.23207568228E+03  0.23480855710E+03  0.41800000000E+01 0.  1.
         -5    1    3    3    0  502 -0.10061955296E+03  0.41958564526E+02  0.60648953496E+03  0.61622385867E+03  0.41800000000E+01 0.  1.
        -11    1    1    2    0    0  0.86050929902E+02 -0.68839123506E+01  0.36603253701E+03  0.37607441941E+03  0.00000000000E+00 0. -1.
         11    1    1    2    0    0 -0.19076980126E+02 -0.23830223930E+02  0.10537361566E+03  0.10970601452E+03  0.00000000000E+00 0.  1.
</event>
<event>
 7    1  0.2728221E-009  0.1101379E+03  0.7561462E-02  0.1260315E+00
          2   -1    0    0  501    0  0.00000000000E+00  0.00000000000E+00  0.61368761117E+03  0.61368761117E+03  0.00000000000E+00 0.  1.
         -2   -1    0    0    0  501 -0.00000000000E+00 -0.00000000000E+00 -0.39158197022E+02  0.39158197022E+02  0.00000000000E+00 0. -1.
         25    2    1    2    0    0  0.20432303548E+01 -0.97366446517E+02  0.41262755765E+03  0.44203212503E+03  0.12508596456E+03 0.  0.
          5    1    3    3  502    0 -0.26727786834E+02 -0.80292029855E+01  0.12221468537E+02  0.30751900475E+02  0.41800000000E+01 0.  1.
         -5    1    3    3    0  502  0.28771017189E+02 -0.89337243532E+02  0.40040608911E+03  0.41128022455E+03  0.41800000000E+01 0.  1.
        -11    1    1    2    0    0  0.45606166102E+01  0.59110969650E+02  0.16144834248E+03  0.17198974750E+03  0.00000000000E+00 0.  1.
         11    1    1    2    0    0 -0.66038469649E+01  0.38255476867E+02  0.45351401972E+00  0.38823935658E+02  0.00000000000E+00 0. -1.
</event>
<event>
 7    1  0.2728221E-009  0.1315325E+03  0.7561462E-02  0.1225199E+00
          2   -1    0    0  501    0  0.00000000000E+00  0.00000000000E+00  0.42103132979E+03  0.42103132979E+03  0.00000000000E+00 0. -1.
         -2   -1    0    0    0  501 -0.00000000000E+00 -0.00000000000E+00 -0.94560252158E+02  0.94560252158E+02  0.00000000000E+00 0.  1.
         25    2    1    2    0    0  0.80139639461E+02  0.77398908829E+02  0.33167784076E+03  0.37157891312E+03  0.12509094980E+03 0.  0.
          5    1    3    3  502    0  0.86298020139E+02  0.71485915790E+02  0.13867373986E+03  0.17834086173E+03  0.41800000000E+01 0. -1.
         -5    1    3    3    0  502 -0.61583806773E+01  0.59129930383E+01  0.19300410090E+03  0.19323805139E+03  0.41800000000E+01 0. -1.
        -11    1    1    2    0    0 -0.98828583374E+02 -0.58516034153E+02  0.63761238981E+01  0.11502986612E+03  0.00000000000E+00 0. -1.
         11    1    1    2    0    0  0.18688943912E+02 -0.18882874676E+02 -0.11582887029E+02  0.28982802703E+02  0.00000000000E+00 0.  1.
</event>
<event>
 7    1  0.2728221E-009  0.1679560E+03  0.7561462E-02  0.1179996E+00
          3   -1    0    0  501    0  0.00000000000E+00  0.00000000000E+00  0.36542906887E+03  0.36542906887E+03  0.00000000000E+00 0. -1.
         -3   -1    0    0    0  501 -0.00000000000E+00 -0.00000000000E+00 -0.98976083610E+02  0.98976083610E+02  0.00000000000E+00 0.  1.
         25    2    1    2    0    0  0.13208520301E+03  0.58915227601E+02  0.21065637359E+03  0.28450330214E+03  0.12509402982E+03 0.  0.
          5    1    3    3  502    0  0.14022489118E+03  0.84674774557E+02  0.18213967547E+03  0.24500034966E+03  0.41800000000E+01 0. -1.
         -5    1    3    3    0  502 -0.81396881705E+01 -0.25759546957E+02  0.28516698126E+02  0.39502952484E+02  0.41800000000E+01 0. -1.
        -11    1    1    2    0    0 -0.69383174602E+02 -0.28216831240E+02  0.76520249045E+02  0.10707736921E+03  0.00000000000E+00 0. -1.
         11    1    1    2    0    0 -0.62702028408E+02 -0.30698396360E+02 -0.20723637377E+02  0.72824481129E+02  0.00000000000E+00 0.  1.
</event>
<event>
 7    1  0.2728221E-009  0.1072821E+03  0.7561462E-02  0.1265687E+00
         -4   -1    0    0    0  501 -0.00000000000E+00  0.00000000000E+00  0.12682498474E+03  0.12682498474E+03  0.00000000000E+00 0. -1.
          4   -1    0    0  501    0  0.00000000000E+00 -0.00000000000E+00 -0.11194822459E+03  0.11194822459E+03  0.00000000000E+00 0.  1.
         25    2    1    2    0    0 -0.29606839994E+02 -0.84234657159E+01 -0.32392021826E+02  0.13282517837E+03  0.12508303314E+03 0.  0.
          5    1    3    3  502    0  0.10964740555E+02  0.48863705356E+02  0.92505464900E+01  0.51097282187E+02  0.41800000000E+01 0. -1.
         -5    1    3    3    0  502 -0.40571580550E+02 -0.57287171072E+02 -0.41642568316E+02  0.81727896178E+02  0.41800000000E+01 0. -1.
        -11    1    1    2    0    0  0.25688256105E+02  0.47880921066E+02  0.20349741524E+02  0.58022246457E+02  0.00000000000E+00 0.  1.
         11    1    1    2    0    0  0.39185838889E+01 -0.39457455350E+02  0.26919040455E+02  0.47925784515E+02  0.00000000000E+00 0. -1.
</event>
<event>
 7    1  0.2728221E-009  0.1246417E+03  0.7561462E-02  0.1235630E+00
          3   -1    0    0  501    0  0.00000000000E+00  0.00000000000E+00  0.45519410325E+03  0.45519410325E+03  0.00000000000E+00 0. -1.
         -3   -1    0    0    0  501 -0.00000000000E+00 -0.00000000000E+00 -0.41908989413E+02  0.41908989413E+02  0.00000000000E+00 0.  1.
         25    2    1    2    0    0 -0.19207037512E+02 -0.76661367733E+02  0.19086024934E+03  0.24149804790E+03  0.12509115385E+03 0.  0.
          5    1    3    3  502    0  0.31598389553E+02 -0.89827366465E+02  0.12327009455E+03  0.15582170131E+03  0.41800000000E+01 0. -1.
         -5    1    3    3    0  502 -0.50805427065E+02  0.13165998732E+02  0.67590154788E+02  0.85676346596E+02  0.41800000000E+01 0. -1.
        -11    1    1    2    0    0  0.42450608474E+02  0.55597385033E+02  0.21088156474E+03  0.22218046207E+03  0.00000000000E+00 0. -1.
         11    1    1    2    0    0 -0.23243570962E+02  0.21063982700E+02  0.11543299769E+02  0.33424582688E+02  0.00000000000E+00 0.  1.
</event>
<event>
 7    1  0.2728221E-009  0.1307477E+03  0.7561462E-02  0.1226350E+00
          1   -1    0    0  501    0  0.00000000000E+00  0.00000000000E+00  0.17792471296E+04  0.17792471296E+04  0.00000000000E+00 0. -1.
         -1   -1    0    0    0  501 -0.00000000000E+00 -0.00000000000E+00 -0.22273502550E+02  0.22273502550E+02  0.00000000000E+00 0.  1.
         25    2    1    2    0    0  0.68818399140E+02 -0.96158769307E+02  0.14552264306E+04  0.14653716355E+04  0.12509030652E+03 0.  0.
          5    1    3    3  502    0  0.38519917228E+01 -0.51174732439E+02  0.16795321794E+03  0.17566857117E+03  0.41800000000E+01 0.  1.
         -5    1    3    3    0  502  0.64966407417E+02 -0.44984036868E+02  0.12872732126E+04  0.12897030643E+04  0.41800000000E+01 0.  1.
        -11    1    1    2    0    0 -0.31991909732E+02  0.47699216993E+01  0.20876862266E+02  0.38497763823E+02  0.00000000000E+00 0.  1.
         11    1    1    2    0    0 -0.36826489408E+02  0.91388847607E+02  0.28087033419E+03  0.29765123285E+03  0.00000000000E+00 0. -1.
</event>
<event>
 7    1  0.3340332E-009  0.1389895E+03  0.7561462E-02  0.1214695E+00
         -2   -1    0    0    0  501 -0.00000000000E+00  0.00000000000E+00  0.29653434087E+02  0.29653434087E+02  0.00000000000E+00 0.  1.
          2   -1    0    0  501    0  0.00000000000E+00 -0.00000000000E+00 -0.94150793373E+03  0.94150793373E+03  0.00000000000E+00 0. -1.
         25    2    1    2    0    0  0.87533247927E+02  0.46386817711E+02 -0.71554791565E+03  0.73312330622E+03  0.12508859335E+03 0.  0.
          5    1    3    3  502    0 -0.60241601600E+01  0.53287548112E+02 -0.14023688291E+03  0.15019889819E+03  0.41800000000E+01 0.  1.
         -5    1    3    3    0  502  0.93557408087E+02 -0.69007304010E+01 -0.57531103274E+03  0.58292440803E+03  0.41800000000E+01 0.  1.
        -11    1    1    2    0    0 -0.19523768936E+02 -0.58083181768E+02 -0.62746509268E+02  0.87703808258E+02  0.00000000000E+00 0.  1.
         11    1    1    2    0    0 -0.68009478992E+02  0.11696364057E+02 -0.13356007472E+03  0.15033425333E+03  0.00000000000E+00 0. -1.
</event>
<event>
 7    1  0.2728221E-009  0.1287837E+03  0.7561462E-02  0.1229272E+00
         -2   -1    0    0    0  501 -0.00000000000E+00  0.00000000000E+00  0.34297367144E+02  0.34297367144E+02  0.00000000000E+00 0.  1.
          2   -1    0    0  501    0  0.00000000000E+00 -0.00000000000E+00 -0.62915283378E+03  0.62915283378E+03  0.00000000000E+00 0. -1.
         25    2    1    2    0    0 -0.91618176040E+02  0.61175526981E+00 -0.23880901297E+03  0.28473943264E+03  0.12511009310E+03 0.  0.
          5    1    3    3  502    0 -0.10566216184E+02  0.52206032567E+02 -0.51622595385E+02  0.74293199656E+02  0.41800000000E+01 0.  1.
         -5    1    3    3    0  502 -0.81051959855E+02 -0.51594277298E+02 -0.18718641759E+03  0.21044623298E+03  0.41800000000E+01 0.  1.
        -11    1    1    2    0    0  0.95150882955E+02 -0.12129299162E+02 -0.35365006227E+03  0.36642758762E+03  0.00000000000E+00 0. -1.
         11    1    1    2    0    0 -0.35327069150E+01  0.11517543892E+02 -0.23963913844E+01  0.12283180660E+02  0.00000000000E+00 0.  1.
</event>
<event>
 7    1  0.2728221E-009  0.1063888E+03  0.7561462E-02  0.1267407E+00
          2   -1    0    0  501    0  0.00000000000E+00  0.00000000000E+00  0.31849162416E+02  0.31849162416E+02  0.00000000000E+00 0. -1.
         -2   -1    0    0    0  501 -0.00000000000E+00 -0.00000000000E+00 -0.58679006679E+03  0.58679006679E+03  0.00000000000E+00 0.  1.
         25    2    1    2    0    0  0.39895388118E+02  0.86352272438E+01 -0.45853437402E+03  0.47704020532E+03  0.12508947274E+03 0.  0.
          5    1    3    3  502    0  0.66985428197E+02  0.44093252259E+02 -0.35914367432E+03  0.36801211079E+03  0.41800000000E+01 0. -1.
         -5    1    3    3    0  502 -0.27090040080E+02 -0.35458025015E+02 -0.99390699702E+02  0.10902809453E+03  0.41800000000E+01 0. -1.
        -11    1    1    2    0    0 -0.60610308542E+02  0.79369458986E+01 -0.26123029006E+02  0.66475689211E+02  0.00000000000E+00 0. -1.
         11    1    1    2    0    0  0.20714920424E+02 -0.16572173142E+02 -0.70283501352E+02  0.75123334677E+02  0.00000000000E+00 0.  1.
</event>
<event>
 7    1  0.2728221E-009  0.1022504E+03  0.7561462E-02  0.1275634E+00
          2   -1    0    0  501    0  0.00000000000E+00  0.00000000000E+00  0.22643422347E+03  0.22643422347E+03  0.00000000000E+00 0. -1.
         -2   -1    0    0    0  501 -0.00000000000E+00 -0.00000000000E+00 -0.77269223621E+02  0.77269223621E+02  0.00000000000E+00 0.  1.
         25    2    1    2    0    0 -0.12798033913E+02 -0.49662381305E+02  0.14737897422E+03  0.19999582611E+03  0.12509047377E+03 0.  0.
          5    1    3    3  502    0 -0.47991973781E+02  0.31218095135E+01  0.10981201455E+02  0.49507922875E+02  0.41800000000E+01 0.  1.
         -5    1    3    3    0  502  0.35193939867E+02 -0.52784190818E+02  0.13639777277E+03  0.15048790323E+03  0.41800000000E+01 0.  1.
        -11    1    1    2    0    0 -0.29792321780E+02  0.38383661883E+02  0.24192853416E+02  0.54278744394E+02  0.00000000000E+00 0. -1.
         11    1    1    2    0    0  0.42590355693E+02  0.11278719422E+02 -0.22406827785E+02  0.49428876593E+02  0.00000000000E+00 0.  1.
</event>
<event>
 7    1  0.2728221E-009  0.1125066E+03  0.7561462E-02  0.1255997E+00
          1   -1    0    0  501    0  0.00000000000E+00  0.00000000000E+00  0.29844118006E+03  0.29844118006E+03  0.00000000000E+00 0. -1.
         -1   -1    0    0    0  501 -0.00000000000E+00 -0.00000000000E+00 -0.49585928772E+02  0.49585928772E+02  0.00000000000E+00 0.  1.
         25    2    1    2    0    0 -0.37957082820E+02  0.34037489832E+02  0.15689199144E+03  0.20702821939E+03  0.12508515418E+03 0.  0.
          5    1    3    3  502    0 -0.24518067929E+02  0.72916048747E+02  0.48546400198E+02  0.91061030040E+02  0.41800000000E+01 0. -1.
         -5    1    3    3    0  502 -0.13439014890E+02 -0.38878558915E+02  0.10834559124E+03  0.11596718935E+03  0.41800000000E+01 0. -1.
        -11    1    1    2    0    0  0.52844632427E+02 -0.57968556636E+02  0.71855510980E+02  0.10637726822E+03  0.00000000000E+00 0.  1.
         11    1    1    2    0    0 -0.14887549608E+02  0.23931066804E+02  0.20107748868E+02  0.34621621225E+02  0.00000000000E+00 0. -1.
</event>
<event>
 7    1  0.2728221E-009  0.8826633E+02  0.7561462E-02  0.1307105E+00
          1   -1    0    0  501    0  0.00000000000E+00  0.00000000000E+00  0.22081668618E+03  0.22081668618E+03  0.00000000000E+00 0. -1.
         -1   -1    0    0    0  501 -0.00000000000E+00 -0.00000000000E+00 -0.64720032943E+02  0.64720032943E+02  0.00000000000E+00 0.  1.
         25    2    1    2    0    0 -0.75410366316E+01  0.50758292074E+02  0.63196952992E+02  0.14924971047E+03  0.12509336417E+03 0.  0.
          5    1    3    3  502    0 -0.18800198896E+02  0.71254671432E+02 -0.79528694571E+01  0.74238778358E+02  0.41800000000E+01 0.  1.
         -5    1    3    3    0  502  0.11259162265E+02 -0.20496379358E+02  0.71149822449E+02  0.75010932112E+02  0.41800000000E+01 0.  1.
        -11    1    1    2    0    0  0.27984616232E+02 -0.44383438122E+01  0.78785543613E+02  0.83725739912E+02  0.00000000000E+00 0. -1.
         11    1    1    2    0    0 -0.20443579600E+02 -0.46319948262E+02  0.14114156627E+02  0.52561268736E+02  0.00000000000E+00 0.  1.
</event>
<event>
 7    1  0.2728221E-009  0.1907073E+03  0.7561462E-02  0.1157825E+00
         -1   -1    0    0    0  501 -0.00000000000E+00  0.00000000000E+00  0.65381078151E+02  0.65381078151E+02  0.00000000000E+00 0.  1.
          1   -1    0    0  501    0  0.00000000000E+00 -0.00000000000E+00 -0.59960074405E+03  0.59960074405E+03  0.00000000000E+00 0. -1.
         25    2    1    2    0    0  0.15009769226E+03  0.66627079177E+02 -0.30449459784E+03  0.36787642400E+03  0.12509044057E+03 0.  0.
          5    1    3    3  502    0 -0.12641465817E+02 -0.90611306844E+01 -0.21501848807E+01  0.16248275056E+02  0.41800000000E+01 0.  1.
         -5    1    3    3    0  502  0.16273915808E+03  0.75688209862E+02 -0.30234441296E+03  0.35162814895E+03  0.41800000000E+01 0.  1.
        -11    1    1    2    0    0 -0.95251852576E+02  0.52179600432E+01 -0.93158132702E+02  0.13333634244E+03  0.00000000000E+00 0.  1.
         11    1    1    2    0    0 -0.54845839686E+02 -0.71845039221E+02 -0.13656693535E+03  0.16376905576E+03  0.00000000000E+00 0. -1.
</event>
<event>
 7    1  0.2728221E-009  0.9872961E+02  0.7561462E-02  0.1282990E+00
          4   -1    0    0  501    0  0.00000000000E+00  0.00000000000E+00  0.36059203946E+02  0.36059203946E+02  0.00000000000E+00 0. -1.
         -4   -1    0    0    0  501 -0.00000000000E+00 -0.00000000000E+00 -0.48122749298E+03  0.48122749298E+03  0.00000000000E+00 0.  1.
         25    2    1    2    0    0  0.10168270545E+02 -0.52235546444E+02 -0.35770336423E+03  0.38266313485E+03  0.12508969562E+03 0.  0.
          5    1    3    3  502    0 -0.72851374241E+01  0.37733781729E+02 -0.16162651484E+03  0.16618518047E+03  0.41800000000E+01 0.  1.
         -5    1    3    3    0  502  0.17453407969E+02 -0.89969328173E+02 -0.19607684940E+03  0.21647795438E+03  0.41800000000E+01 0.  1.
        -11    1    1    2    0    0 -0.24332971238E+02  0.44992520681E+02 -0.10133769600E+03  0.11351541321E+03  0.00000000000E+00 0.  1.
         11    1    1    2    0    0  0.14164700694E+02  0.72430257627E+01  0.13872771195E+02  0.21108148866E+02  0.00000000000E+00 0. -1.
</event>
<event>
 7    1  0.2728221E-009  0.1003035E+03  0.7561462E-02  0.1279659E+00
          2   -1    0    0  501    0  0.00000000000E+00  0.00000000000E+00  0.24435619175E+02  0.24435619175E+02  0.00000000000E+00 0. -1.
         -2   -1    0    0    0  501 -0.00000000000E+00 -0.00000000000E+00 -0.49887490188E+03  0.49887490188E+03  0.00000000000E+00 0.  1.
         25    2    1    2    0    0  0.22577658351E+00 -0.17477434163E+01 -0.33718581191E+03  0.35964395686E+03  0.12508556417E+03 0.  0.
          5    1    3    3  502    0  0.21216133871E+02 -0.52749524907E+02 -0.91483373907E+02  0.10779293491E+03  0.41800000000E+01 0.  1.
         -5    1    3    3    0  502 -0.20990357288E+02  0.51001781490E+02 -0.24570243801E+03  0.25185102195E+03  0.41800000000E+01 0.  1.
        -11    1    1    2    0    0 -0.28489825035E+02  0.34684582636E+02 -0.58380910145E+02  0.73641164253E+02  0.00000000000E+00 0.  1.
         11    1    1    2    0    0  0.28264048452E+02 -0.32936839220E+02 -0.78872560644E+02  0.90025399945E+02  0.00000000000E+00 0. -1.
</event>
<event>
 7    1  0.2728221E-009  0.9107652E+02  0.7561462E-02  0.1300265E+00
         -1   -1    0    0    0  501 -0.00000000000E+00  0.00000000000E+00  0.29556389310E+03  0.29556389310E+03  0.00000000000E+00 0.  1.
          1   -1    0    0  501    0  0.00000000000E+00 -0.00000000000E+00 -0.56898813431E+02  0.56898813431E+02  0.00000000000E+00 0. -1.
         25    2    1    2    0    0 -0.25805295355E+02 -0.56889695137E+02  0.17333041301E+03  0.22269800441E+03  0.12509443799E+03 0.  0.
          5    1    3    3  502    0 -0.59512531002E+01 -0.70580955089E+02  0.29571476039E+02  0.76870236307E+02  0.41800000000E+01 0. -1.
         -5    1    3    3    0  502 -0.19854042255E+02  0.13691259951E+02  0.14375893697E+03  0.14582776811E+03  0.41800000000E+01 0. -1.
        -11    1    1    2    0    0  0.17521027698E+02 -0.94225857924E+01  0.59436123703E+02  0.62677143644E+02  0.00000000000E+00 0.  1.
         11    1    1    2    0    0  0.82842676577E+01  0.66312280930E+02  0.58985429586E+01  0.67087558472E+02  0.00000000000E+00 0. -1.
</event>
<event>
 7    1  0.2728221E-009  0.2131005E+03  0.7561462E-02  0.1139134E+00
          2   -1    0    0  501    0  0.00000000000E+00  0.00000000000E+00  0.12785185191E+04  0.12785185191E+04  0.00000000000E+00 0. -1.
         -2   -1    0    0    0  501 -0.00000000000E+00 -0.00000000000E+00 -0.40306976985E+02  0.40306976985E+02  0.00000000000E+00 0.  1.
         25    2    1    2    0    0 -0.13436839573E+03 -0.14532878794E+03  0.70923776954E+03  0.74689029239E+03  0.12510624585E+03 0.  0.
          5    1    3    3  502    0 -0.13458987271E+03 -0.86480088529E+02  0.37865522582E+03  0.41108453144E+03  0.41800000000E+01 0.  1.
         -5    1    3    3    0  502  0.22147698785E+00 -0.58848699415E+02  0.33058254372E+03  0.33580576095E+03  0.41800000000E+01 0.  1.
        -11    1    1    2    0    0  0.46685881946E+02  0.13060585476E+02  0.21179969458E+03  0.21727692259E+03  0.00000000000E+00 0. -1.
         11    1    1    2    0    0  0.87682513780E+02  0.13226820247E+03  0.31717407803E+03  0.35465828114E+03  0.00000000000E+00 0.  1.
</event>
<event>
 7    1  0.2728221E-009  0.8056058E+02  0.7561462E-02  0.1327468E+00
         -2   -1    0    0    0  501 -0.00000000000E+00  0.00000000000E+00  0.95867959543E+02  0.95867959543E+02  0.00000000000E+00 0.  1.
          2   -1    0    0  501    0  0.00000000000E+00 -0.00000000000E+00 -0.15533985882E+03  0.15533985882E+03  0.00000000000E+00 0. -1.
         25    2    1    2    0    0  0.47402773134E+02 -0.16965305410E+02 -0.90642971724E+01  0.13514679599E+03  0.12509056916E+03 0.  0.
          5    1    3    3  502    0  0.19756141840E+02  0.12375011105E+02  0.54691338748E+02  0.59599169242E+02  0.41800000000E+01 0.  1.
         -5    1    3    3    0  502  0.27646631295E+02 -0.29340316515E+02 -0.63755635921E+02  0.75547626745E+02  0.41800000000E+01 0.  1.
        -11    1    1    2    0    0 -0.66990734724E+02 -0.53630589237E+01 -0.13263686775E+02  0.68501433027E+02  0.00000000000E+00 0.  1.
         11    1    1    2    0    0  0.19587961590E+02  0.22328364334E+02 -0.37143915331E+02  0.47559589351E+02  0.00000000000E+00 0. -1.
</event>
<event>
 7    1  0.2728221E-009  0.9481733E+02  0.7561462E-02  0.1291588E+00
         -1   -1    0    0    0  501 -0.00000000000E+00  0.00000000000E+00  0.30313692115E+03  0.30313692115E+03  0.00000000000E+00 0.  1.
          1   -1    0    0  501    0  0.00000000000E+00 -0.00000000000E+00 -0.41674570112E+02  0.41674570112E+02  0.00000000000E+00 0. -1.
         25    2    1    2    0    0 -0.24565942480E+02  0.22264747717E+02  0.14050356735E+03  0.19101904510E+03  0.12509124122E+03 0.  0.
          5    1    3    3  502    0 -0.23921386131E+02 -0.33504710625E+02  0.17491534155E+01  0.41416546044E+02  0.41800000000E+01 0. -1.
         -5    1    3    3    0  502 -0.64455634905E+00  0.55769458342E+02  0.13875441393E+03  0.14960249905E+03  0.41800000000E+01 0. -1.
        -11    1    1    2    0    0  0.55152170667E+02 -0.26946444123E+02  0.96419825898E+02  0.11430072444E+03  0.00000000000E+00 0.  1.
         11    1    1    2    0    0 -0.30586228186E+02  0.46816964064E+01  0.24538957793E+02  0.39491721733E+02  0.00000000000E+00 0. -1.
</event>
<event>
 7    1  0.2728221E-009  0.1567600E+03  0.7561462E-02  0.1192404E+00
          2   -1    0    0  501    0  0.00000000000E+00  0.00000000000E+00  0.12109850458E+03  0.12109850458E+03  0.00000000000E+00 0. -1.
         -2   -1    0    0    0  501 -0.00000000000E+00 -0.00000000000E+00 -0.21858610593E+03  0.21858610593E+03  0.00000000000E+00 0.  1.
         25    2    1    2    0    0  0.55788755192E+02 -0.10575404108E+03 -0.78029830292E+02  0.18982406146E+03  0.12509283545E+03 0.  0.
          5    1    3    3  502    0  0.90487031506E+02 -0.65189342276E+02 -0.24802057786E+02  0.11432483408E+03  0.41800000000E+01 0.  1.
         -5    1    3    3    0  502 -0.34698276314E+02 -0.40564698805E+02 -0.53227772506E+02  0.75499227376E+02  0.41800000000E+01 0.  1.
        -11    1    1    2    0    0 -0.76027888957E+01  0.99492949047E+02 -0.16884187367E+02  0.10120140855E+03  0.00000000000E+00 0.  1.
         11    1    1    2    0    0 -0.48185966297E+02  0.62610920345E+01 -0.25735836885E+01  0.48659140502E+02  0.00000000000E+00 0. -1.
</event>
<event>
 7    1  0.2728221E-009  0.1217450E+03  0.7561462E-02  0.1240246E+00
         -1   -1    0    0    0  501 -0.00000000000E+00  0.00000000000E+00  0.30465336079E+02  0.30465336079E+02  0.00000000000E+00 0.  1.
          1   -1    0    0  501    0  0.00000000000E+00 -0.00000000000E+00 -0.56292742914E+03  0.56292742914E+03  0.00000000000E+00 0. -1.
         25    2    1    2    0    0  0.52037296841E+02  0.26214333139E+02 -0.40380694472E+03  0.42673536678E+03  0.12509177882E+03 0.  0.
          5    1    3    3  502    0  0.69402316495E+02 -0.32380243699E+02 -0.21927274457E+03  0.23229974307E+03  0.41800000000E+01 0.  1.
         -5    1    3    3    0  502 -0.17365019654E+02  0.58594576837E+02 -0.18453420015E+03  0.19443562371E+03  0.41800000000E+01 0.  1.
        -11    1    1    2    0    0  0.18509292701E+02  0.15006713526E+02 -0.23246503992E+02  0.33289567660E+02  0.00000000000E+00 0.  1.
         11    1    1    2    0    0 -0.70546589543E+02 -0.41221046665E+02 -0.10540864434E+03  0.13336783078E+03  0.00000000000E+00 0. -1.
</event>
<event>
 7    1  0.2728221E-009  0.6764007E+02  0.7561462E-02  0.1368307E+00
          3   -1    0    0  501    0  0.00000000000E+00  0.00000000000E+00  0.14585800752E+03  0.14585800752E+03  0.00000000000E+00 0. -1.
         -3   -1    0    0    0  501 -0.00000000000E+00 -0.00000000000E+00 -0.84369312336E+02  0.84369312336E+02  0.00000000000E+00 0.  1.
         25    2    1    2    0    0  0.49430803426E+01 -0.57413304711E+01  0.65066716468E+02  0.14120215908E+03  0.12508786999E+03 0.  0.
          5    1    3    3  502    0  0.10206088521E+02 -0.47950382885E+02 -0.14144837420E+02  0.51195236960E+02  0.41800000000E+01 0. -1.
         -5    1    3    3    0  502 -0.52630081782E+01  0.42209052414E+02  0.79211553888E+02  0.90006922123E+02  0.41800000000E+01 0. -1.
        -11    1    1    2    0    0 -0.10119539624E+02  0.23101890406E+02 -0.40607133482E+02  0.47802109913E+02  0.00000000000E+00 0.  1.
         11    1    1    2    0    0  0.51764592813E+01 -0.17360559935E+02  0.37029112202E+02  0.41223050863E+02  0.00000000000E+00 0. -1.
</event>
<event>
 7    1  0.2728221E-009  0.9390763E+02  0.7561462E-02  0.1293656E+00
         -2   -1    0    0    0  501 -0.00000000000E+00  0.00000000000E+00  0.24406439146E+02  0.24406439146E+02  0.00000000000E+00 0.  1.
          2   -1    0    0  501    0  0.00000000000E+00 -0.00000000000E+00 -0.55251020139E+03  0.55251020139E+03  0.00000000000E+00 0. -1.
         25    2    1    2    0    0 -0.10183704084E+02 -0.16653347579E+02 -0.21257349225E+03  0.24741983829E+03  0.12509214585E+03 0.  0.
          5    1    3    3  502    0  0.41100325637E+02  0.71248285527E+01 -0.17370149171E+03  0.17868878132E+03  0.41800000000E+01 0. -1.
         -5    1    3    3    0  502 -0.51284029721E+02 -0.23778176132E+02 -0.38872000546E+02  0.68731056961E+02  0.41800000000E+01 0. -1.
        -11    1    1    2    0    0  0.30089356637E+02 -0.27509091815E+02 -0.89710190230E+02  0.98539523778E+02  0.00000000000E+00 0. -1.
         11    1    1    2    0    0 -0.19905652554E+02  0.44162439394E+02 -0.22582007976E+03  0.23095727847E+03  0.00000000000E+00 0.  1.
</event>
<event>
 7    1  0.2728221E-009  0.1352153E+03  0.7561462E-02  0.1219916E+00
          1   -1    0    0  501    0  0.00000000000E+00  0.00000000000E+00  0.53574593741E+03  0.53574593741E+03  0.00000000000E+00 0. -1.
         -1   -1    0    0    0  501 -0.00000000000E+00 -0.00000000000E+00 -0.51390514714E+02  0.51390514714E+02  0.00000000000E+00 0.  1.
         25    2    1    2    0    0 -0.87384318699E+02 -0.77466052857E+02  0.33452366051E+03  0.37575355327E+03  0.12509054661E+03 0.  0.
          5    1    3    3  502    0 -0.74766607957E+02 -0.93853023832E+02  0.16041941416E+03  0.20037538918E+03  0.41800000000E+01 0. -1.
         -5    1    3    3    0  502 -0.12617710742E+02  0.16386970975E+02  0.17410424635E+03  0.17537816409E+03  0.41800000000E+01 0. -1.
        -11    1    1    2    0    0  0.93059660426E+02  0.59577311186E+02  0.15640331748E+03  0.19149818309E+03  0.00000000000E+00 0. -1.
         11    1    1    2    0    0 -0.56753417268E+01  0.17888741671E+02 -0.65715552957E+01  0.19884715771E+02  0.00000000000E+00 0.  1.
</event>
<event>
 7    1  0.2728221E-009  0.1070989E+03  0.7561462E-02  0.1266039E+00
         -3   -1    0    0    0  501 -0.00000000000E+00  0.00000000000E+00  0.11983667256E+02  0.11983667256E+02  0.00000000000E+00 0.  1.
          3   -1    0    0  501    0  0.00000000000E+00 -0.00000000000E+00 -0.11056932193E+04  0.11056932193E+04  0.00000000000E+00 0. -1.
         25    2    1    2    0    0  0.32509821247E+01 -0.37039448742E+02 -0.66711939248E+03  0.67975990098E+03  0.12507097786E+03 0.  0.
          5    1    3    3  502    0  0.26902085500E+02 -0.69633205349E+02 -0.56470752668E+03  0.56963546991E+03  0.41800000000E+01 0.  1.
         -5    1    3    3    0  502 -0.23651103375E+02  0.32593756607E+02 -0.10241186581E+03  0.11012443107E+03  0.41800000000E+01 0.  1.
        -11    1    1    2    0    0  0.25667286801E+02  0.57868841718E+02 -0.26985210393E+03  0.27717822867E+03  0.00000000000E+00 0. -1.
         11    1    1    2    0    0 -0.28918268926E+02 -0.20829392976E+02 -0.15673805565E+03  0.16073875692E+03  0.00000000000E+00 0.  1.
</event>
<event>
 7    1  0.2728221E-009  0.8729641E+02  0.7561462E-02  0.1309534E+00
          2   -1    0    0  501    0  0.00000000000E+00  0.00000000000E+00  0.85887600346E+03  0.85887600346E+03  0.00000000000E+00 0. -1.
         -2   -1    0    0    0  501 -0.00000000000E+00 -0.00000000000E+00 -0.23573274026E+02  0.23573274026E+02  0.00000000000E+00 0.  1.
         25    2    1    2    0    0  0.55601340005E+02  0.33311214660E+02  0.68370580011E+03  0.69807040862E+03  0.12509008054E+03 0.  0.
          5    1    3    3  502    0 -0.10544207848E+02 -0.12046813924E+01  0.11812558812E+01  0.11467316244E+02  0.41800000000E+01 0.  1.
         -5    1    3    3    0  502  0.66145547853E+02  0.34515896052E+02  0.68252454423E+03  0.68660309237E+03  0.41800000000E+01 0.  1.
        -11    1    1    2    0    0 -0.34558019835E+02 -0.50566068972E+02  0.49594069021E+02  0.78808348215E+02  0.00000000000E+00 0.  1.
         11    1    1    2    0    0 -0.21043320170E+02  0.17254854312E+02  0.10200286030E+03  0.10557052065E+03  0.00000000000E+00 0. -1.
</event>
<event>
 7    1  0.2728221E-009  0.2171115E+03  0.7561462E-02  0.1136055E+00
          2   -1    0    0  501    0  0.00000000000E+00  0.00000000000E+00  0.83139909625E+03  0.83139909625E+03  0.00000000000E+00 0. -1.
         -2   -1    0    0    0  501 -0.00000000000E+00 -0.00000000000E+00 -0.63656809569E+02  0.63656809569E+02  0.00000000000E+00 0.  1.
         25    2    1    2    0    0  0.18440514465E+03 -0.40718315632E+02  0.54007342879E+03  0.58565092821E+03  0.12507782629E+03 0.  0.
          5    1    3    3  502    0  0.19822090555E+02 -0.56341365221E+02  0.17229506396E+03  0.18240155201E+03  0.41800000000E+01 0.  1.
         -5    1    3    3    0  502  0.16458305409E+03  0.15623049589E+02  0.36777836483E+03  0.40324937621E+03  0.41800000000E+01 0.  1.
        -11    1    1    2    0    0 -0.17725781527E+03  0.10113343806E+02  0.18502568985E+03  0.25643150879E+03  0.00000000000E+00 0.  1.
         11    1    1    2    0    0 -0.71473293791E+01  0.30604971826E+02  0.42643168036E+02  0.52973468811E+02  0.00000000000E+00 0. -1.
</event>
<event>
 7    1  0.2728221E-009  0.1661268E+03  0.7561462E-02  0.1181948E+00
          2   -1    0    0  501    0  0.00000000000E+00  0.00000000000E+00  0.10825953567E+04  0.10825953567E+04  0.00000000000E+00 0. -1.
         -2   -1    0    0    0  501 -0.00000000000E+00 -0.00000000000E+00 -0.50531420860E+02  0.50531420860E+02  0.00000000000E+00 0.  1.
         25    2    1    2    0    0  0.13922537656E+03  0.56127684692E+01  0.90290462399E+03  0.92211662236E+03  0.12508835504E+03 0.  0.
          5    1    3    3  502    0  0.70037117827E+02 -0.56542222736E+02  0.34915912095E+03  0.36059920267E+03  0.41800000000E+01 0.  1.
         -5    1    3    3    0  502  0.69188258738E+02  0.62154991205E+02  0.55374550304E+03  0.56151741969E+03  0.41800000000E+01 0.  1.
        -11    1    1    2    0    0 -0.79005045506E+02  0.23121948673E+02  0.22739138736E+02  0.85401932977E+02  0.00000000000E+00 0.  1.
         11    1    1    2    0    0 -0.60220331059E+02 -0.28734717143E+02  0.10642017307E+03  0.12560822218E+03  0.00000000000E+00 0. -1.
</event>
<event>
 7    1  0.2728221E-009  0.1341405E+03  0.7561462E-02  0.1221438E+00
          2   -1    0    0  501    0  0.00000000000E+00  0.00000000000E+00  0.56874011356E+02  0.56874011356E+02  0.00000000000E+00 0. -1.
         -2   -1    0    0    0  501 -0.00000000000E+00 -0.00000000000E+00 -0.34298070867E+03  0.34298070867E+03  0.00000000000E+00 0.  1.
         25    2    1    2    0    0  0.86038817612E+02  0.21303549067E+02 -0.20444530495E+03  0.25554067549E+03  0.12508650915E+03 0.  0.
          5    1    3    3  502    0 -0.22490183196E+02 -0.23192154815E+02 -0.69090166112E+02  0.76384604722E+02  0.41800000000E+01 0.  1.
         -5    1    3    3    0  502  0.10852900081E+03  0.44495703882E+02 -0.13535513884E+03  0.17915607076E+03  0.41800000000E+01 0.  1.
        -11    1    1    2    0    0 -0.31628937276E+02 -0.48191608459E+02 -0.32248239420E+02  0.66051266034E+02  0.00000000000E+00 0. -1.
         11    1    1    2    0    0 -0.54409880337E+02  0.26888059392E+02 -0.49413152942E+02  0.78262778508E+02  0.00000000000E+00 0.  1.
</event>
<event>
 7    1  0.2728221E-009  0.1072609E+03  0.7561462E-02  0.1265728E+00
         -2   -1    0    0    0  501 -0.00000000000E+00  0.00000000000E+00  0.25636529627E+02  0.25636529627E+02  0.00000000000E+00 0.  1.
          2   -1    0    0  501    0  0.00000000000E+00 -0.00000000000E+00 -0.48182556334E+03  0.48182556334E+03  0.00000000000E+00 0. -1.
         25    2    1    2    0    0  0.10019138016E+02 -0.12424298950E+02 -0.21879803329E+03  0.25253692919E+03  0.12509026701E+03 0.  0.
          5    1    3    3  502    0  0.19451129154E+02  0.53892164463E+02 -0.81480814861E+02  0.99696075180E+02  0.41800000000E+01 0. -1.
         -5    1    3    3    0  502 -0.94319911377E+01 -0.66316463413E+02 -0.13731721843E+03  0.15284085401E+03  0.41800000000E+01 0. -1.
        -11    1    1    2    0    0 -0.98858431159E+01  0.50714952947E+02 -0.16677673089E+03  0.17459729182E+03  0.00000000000E+00 0. -1.
         11    1    1    2    0    0 -0.13329490008E+00 -0.38290653997E+02 -0.70614269538E+02  0.80327871959E+02  0.00000000000E+00 0.  1.
</event>
<event>
 7    1  0.2728221E-009  0.1146889E+03  0.7561462E-02  0.1252125E+00
         -2   -1    0    0    0  501 -0.00000000000E+00  0.00000000000E+00  0.38280468526E+02  0.38280468526E+02  0.00000000000E+00 0. -1.
          2   -1    0    0  501    0  0.00000000000E+00 -0.00000000000E+00 -0.81872181818E+03  0.81872181818E+03  0.00000000000E+00 0.  1.
         25    2    1    2    0    0 -0.76467961732E+02  0.79513434376E+01 -0.69670057116E+03  0.71200654682E+03  0.12510421188E+03 0.  0.
          5    1    3    3  502    0 -0.10868964917E+03 -0.36376168779E+01 -0.45373859048E+03  0.46660781496E+03  0.41800000000E+01 0.  1.
         -5    1    3    3    0  502  0.32221687440E+02  0.11588960315E+02 -0.24296198068E+03  0.24539873186E+03  0.41800000000E+01 0.  1.
        -11    1    1    2    0    0  0.22621214876E+02  0.15392497341E+02 -0.81821628362E+02  0.86275298926E+02  0.00000000000E+00 0.  1.
         11    1    1    2    0    0  0.53846746856E+02 -0.23343840779E+02 -0.19191501345E+01  0.58720440960E+02  0.00000000000E+00 0. -1.
</event>
<event>
 7    1  0.3028807E-009  0.2095104E+03  0.7561462E-02  0.1141954E+00
         -2   -1    0    0    0  501 -0.00000000000E+00  0.00000000000E+00  0.66480634471E+02  0.66480634471E+02  0.00000000000E+00 0.  1.
          2   -1    0    0  501    0  0.00000000000E+00 -0.00000000000E+00 -0.80297975963E+03  0.80297975963E+03  0.00000000000E+00 0. -1.
         25    2    1    2    0    0 -0.15845151701E+03  0.11927604174E+03 -0.46822590763E+03  0.52365728042E+03  0.12509112433E+03 0.  0.
          5    1    3    3  502    0 -0.14287031682E+03  0.92080715547E+02 -0.46081410540E+03  0.49118010723E+03  0.41800000000E+01 0. -1.
         -5    1    3    3    0  502 -0.15581200192E+02  0.27195326188E+02 -0.74118022256E+01  0.32477173185E+02  0.41800000000E+01 0. -1.
        -11    1    1    2    0    0  0.75021860540E+02 -0.11039663267E+03 -0.14992135431E+03  0.20072894295E+03  0.00000000000E+00 0.  1.
         11    1    1    2    0    0  0.83429656468E+02 -0.88794090701E+01 -0.11835186322E+03  0.14507417073E+03  0.00000000000E+00 0. -1.
</event>
<event>
 7    1  0.2728221E-009  0.1209187E+03  0.7561462E-02  0.1241589E+00
          2   -1    0    0  501    0  0.00000000000E+00  0.00000000000E+00  0.20226185091E+04  0.20226185091E+04  0.00000000000E+00 0. -1.
         -2   -1    0    0    0  501 -0.00000000000E+00 -0.00000000000E+00 -0.91447676162E+01  0.91447676162E+01  0.00000000000E+00 0.  1.
         25    2    1    2    0    0 -0.27355289303E+02 -0.48926529601E+02  0.15568594558E+04  0.15628825070E+04  0.12509295935E+03 0.  0.
          5    1    3    3  502    0  0.41717949648E+02  0.11825646660E+02  0.40042044126E+03  0.40278311213E+03  0.41800000000E+01 0. -1.
         -5    1    3    3    0  502 -0.69073238951E+02 -0.60752176261E+02  0.11564390146E+04  0.11600993949E+04  0.41800000000E+01 0. -1.
        -11    1    1    2    0    0 -0.18846473967E+02 -0.17205249513E+02  0.12693770795E+03  0.12947737984E+03  0.00000000000E+00 0. -1.
         11    1    1    2    0    0  0.46201763271E+02  0.66131779114E+02  0.32967657775E+03  0.33940338987E+03  0.00000000000E+00 0.  1.
</event>
<event>
 7    1  0.2728221E-009  0.1046626E+03  0.7561462E-02  0.1270786E+00
          1   -1    0    0  501    0  0.00000000000E+00  0.00000000000E+00  0.45217068496E+03  0.45217068496E+03  0.00000000000E+00 0. -1.
         -1   -1    0    0    0  501 -0.00000000000E+00 -0.00000000000E+00 -0.32255392382E+02  0.32255392382E+02  0.00000000000E+00 0.  1.
         25    2    1    2    0    0  0.34292881742E+02 -0.84899410228E+01  0.32235496928E+03  0.34757425742E+03  0.12508819834E+03 0.  0.
          5    1    3    3  502    0 -0.32334420951E+02 -0.32825804682E+02  0.59993916250E+02  0.75761405862E+02  0.41800000000E+01 0.  1.
         -5    1    3    3    0  502  0.66627302693E+02  0.24335863659E+02  0.26236105303E+03  0.27181285155E+03  0.41800000000E+01 0.  1.
        -11    1    1    2    0    0 -0.26819820485E+02 -0.37114765403E+02  0.68044127623E+02  0.82017143853E+02  0.00000000000E+00 0. -1.
         11    1    1    2    0    0 -0.74730612563E+01  0.45604706426E+02  0.29516195679E+02  0.54834676074E+02  0.00000000000E+00 0.  1.
</event>
<event>
 7    1  0.2728221E-009  0.7963471E+02  0.7561462E-02  0.1330091E+00
          1   -1    0    0  501    0  0.00000000000E+00  0.00000000000E+00  0.28012739562E+02  0.28012739562E+02  0.00000000000E+00 0. -1.
         -1   -1    0    0    0  501 -0.00000000000E+00 -0.00000000000E+00 -0.44308550059E+03  0.44308550059E+03  0.00000000000E+00 0.  1.
         25    2    1    2    0    0 -0.19004721614E+02 -0.52547748738E+01 -0.21828791882E+03  0.25236238777E+03  0.12509343369E+03 0.  0.
          5    1    3    3  502    0  0.18244091099E+02  0.14417456864E+02 -0.20728146872E+03  0.20862355955E+03  0.41800000000E+01 0. -1.
         -5    1    3    3    0  502 -0.37248812714E+02 -0.19672231738E+02 -0.11006450098E+02  0.43738828218E+02  0.41800000000E+01 0. -1.
        -11    1    1    2    0    0 -0.68743709894E+01  0.45198214143E+02 -0.11979816379E+03  0.12822533129E+03  0.00000000000E+00 0.  1.
         11    1    1    2    0    0  0.25879092604E+02 -0.39943439269E+02 -0.76986678419E+02  0.90510521094E+02  0.00000000000E+00 0. -1.
</event>
<event>
 7    1  0.2728221E-009  0.9314751E+02  0.7561462E-02  0.1295404E+00
         -2   -1    0    0    0  501 -0.00000000000E+00  0.00000000000E+00  0.27175751459E+02  0.27175751459E+02  0.00000000000E+00 0.  1.
          2   -1    0    0  501    0  0.00000000000E+00 -0.00000000000E+00 -0.56899913861E+03  0.56899913861E+03  0.00000000000E+00 0. -1.
         25    2    1    2    0    0  0.13033649354E+02  0.98880312968E+01 -0.43689362834E+03  0.45474293612E+03  0.12508975296E+03 0.  0.
          5    1    3    3  502    0  0.31248185396E+01 -0.45637440786E+02 -0.33560315155E+03  0.33873217772E+03  0.41800000000E+01 0. -1.
         -5    1    3    3    0  502  0.99088308140E+01  0.55525472083E+02 -0.10129047679E+03  0.11601075841E+03  0.41800000000E+01 0. -1.
        -11    1    1    2    0    0 -0.48106157419E+02 -0.44557754374E+01 -0.25940510114E+02  0.54835812944E+02  0.00000000000E+00 0.  1.
         11    1    1    2    0    0  0.35072508065E+02 -0.54322558595E+01 -0.78989248698E+02  0.86596140997E+02  0.00000000000E+00 0. -1.
</event>
<event>
 7    1  0.2728221E-009  0.1273059E+03  0.7561462E-02  0.1231509E+00
          1   -1    0    0  501    0  0.00000000000E+00  0.00000000000E+00  0.38153429425E+03  0.38153429425E+03  0.00000000000E+00 0. -1.
         -1   -1    0    0    0  501 -0.00000000000E+00 -0.00000000000E+00 -0.98158665550E+02  0.98158665550E+02  0.00000000000E+00 0.  1.
         25    2    1    2    0    0  0.78654894201E+02 -0.48020679311E+02  0.31155207497E+03  0.34814467750E+03  0.12508973991E+03 0.  0.
          5    1    3    3  502    0  0.79141479631E+02 -0.82056902001E+02  0.18785153163E+03  0.21977802279E+03  0.41800000000E+01 0. -1.
         -5    1    3    3    0  502 -0.48658542923E+00  0.34036222689E+02  0.12370054334E+03  0.12836665472E+03  0.41800000000E+01 0. -1.
        -11    1    1    2    0    0 -0.22937092861E+02  0.44914542899E+02 -0.50569018199E+02  0.71418849013E+02  0.00000000000E+00 0.  1.
         11    1    1    2    0    0 -0.55717801340E+02  0.31061364119E+01  0.22392571930E+02  0.60129433285E+02  0.00000000000E+00 0. -1.
</event>
<event>
 7    1  0.2728221E-009  0.2445172E+03  0.7561462E-02  0.1116820E+00
         -1   -1    0    0    0  501 -0.00000000000E+00  0.00000000000E+00  0.29311667975E+03  0.29311667975E+03  0.00000000000E+00 0.  1.
          1   -1    0    0  501    0  0.00000000000E+00 -0.00000000000E+00 -0.52274062515E+03  0.52274062515E+03  0.00000000000E+00 0. -1.
         25    2    1    2    0    0  0.22818148613E+03  0.38627418989E+02 -0.42464951720E+03  0.49953252838E+03  0.12508663534E+03 0.  0.
          5    1    3    3  502    0  0.37734445889E+02  0.45737747161E+02 -0.44457471440E+02  0.74227818833E+02  0.41800000000E+01 0.  1.
         -5    1    3    3    0  502  0.19044704024E+03 -0.71103281720E+01 -0.38019204576E+03  0.42530470955E+03  0.41800000000E+01 0.  1.
        -11    1    1    2    0    0 -0.62902257290E+02  0.15980619927E+02  0.96542316261E+02  0.11632924402E+03  0.00000000000E+00 0.  1.
         11    1    1    2    0    0 -0.16527922884E+03 -0.54608038916E+02  0.98483255543E+02  0.19999553250E+03  0.00000000000E+00 0. -1.
</event>
<event>
 7    1  0.2728221E-009  0.1156332E+03  0.7561462E-02  0.1250480E+00
         -1   -1    0    0    0  501 -0.00000000000E+00  0.00000000000E+00  0.11743881844E+02  0.11743881844E+02  0.00000000000E+00 0.  1.
          1   -1    0    0  501    0  0.00000000000E+00 -0.00000000000E+00 -0.12149239769E+04  0.12149239769E+04  0.00000000000E+00 0. -1.
         25    2    1    2    0    0  0.43713156339E+02  0.14160454731E+02 -0.77794011359E+03  0.78927074903E+03  0.12508451713E+03 0.  0.
          5    1    3    3  502    0  0.83573294754E+02  0.31730554884E+02 -0.52550798264E+03  0.53307357459E+03  0.41800000000E+01 0. -1.
         -5    1    3    3    0  502 -0.39860138415E+02 -0.17570100154E+02 -0.25243213095E+03  0.25619717444E+03  0.41800000000E+01 0. -1.
        -11    1    1    2    0    0 -0.47407202483E+02  0.28420038151E+02 -0.17463186484E+03  0.18317049335E+03  0.00000000000E+00 0.  1.
         11    1    1    2    0    0  0.36940461440E+01 -0.42580492882E+02 -0.25060811663E+03  0.25422661637E+03  0.00000000000E+00 0. -1.
</event>
<event>
 7    1  0.2728221E-009  0.1756254E+03  0.7561462E-02  0.1172105E+00
         -1   -1    0    0    0  501 -0.00000000000E+00  0.00000000000E+00  0.51375383580E+02  0.51375383580E+02  0.00000000000E+00 0.  1.
          1   -1    0    0  501    0  0.00000000000E+00 -0.00000000000E+00 -0.11467546349E+04  0.11467546349E+04  0.00000000000E+00 0. -1.
         25    2    1    2    0    0 -0.96620116577E+02  0.11988271507E+03 -0.94241075125E+03  0.96306573304E+03  0.12510103831E+03 0.  0.
          5    1    3    3  502    0  0.16560235639E+01 -0.14391313424E+02 -0.26780131973E+03  0.26822541186E+03  0.41800000000E+01 0.  1.
         -5    1    3    3    0  502 -0.98276140141E+02  0.13427402849E+03 -0.67460943152E+03  0.69484032118E+03  0.41800000000E+01 0.  1.
        -11    1    1    2    0    0  0.27917412387E+02 -0.91020558967E+02 -0.48795496296E+02  0.10698188878E+03  0.00000000000E+00 0. -1.
         11    1    1    2    0    0  0.68702704190E+02 -0.28862156100E+02 -0.10417300378E+03  0.12808239666E+03  0.00000000000E+00 0.  1.
</event>
<event>
 7    1  0.2728221E-009  0.6553061E+02  0.7561462E-02  0.1375987E+00
          2   -1    0    0  501    0  0.00000000000E+00  0.00000000000E+00  0.54903433317E+03  0.54903433317E+03  0.00000000000E+00 0. -1.
         -2   -1    0    0    0  501 -0.00000000000E+00 -0.00000000000E+00 -0.33704357339E+02  0.33704357339E+02  0.00000000000E+00 0.  1.
         25    2    1    2    0    0 -0.10218251909E+02  0.23042394905E+02  0.19107107468E+03  0.22975703652E+03  0.12507907746E+03 0.  0.
          5    1    3    3  502    0 -0.37742230548E+01  0.99151896096E+01  0.20724316245E+03  0.20755663451E+03  0.41800000000E+01 0. -1.
         -5    1    3    3    0  502 -0.64440288539E+01  0.13127205296E+02 -0.16172087773E+02  0.22200402016E+02  0.41800000000E+01 0. -1.
        -11    1    1    2    0    0  0.14532198892E+02  0.39329306738E+02  0.28525497410E+02  0.50711765652E+02  0.00000000000E+00 0.  1.
         11    1    1    2    0    0 -0.43139469833E+01 -0.62371701643E+02  0.29573340375E+03  0.30226988834E+03  0.00000000000E+00 0. -1.
</event>
<event>
 7    1  0.2728221E-009  0.1461048E+03  0.7561462E-02  0.1205343E+00
         -1   -1    0    0    0  501 -0.00000000000E+00  0.00000000000E+00  0.27095241032E+02  0.27095241032E+02  0.00000000000E+00 0.  1.
          1   -1    0    0  501    0  0.00000000000E+00 -0.00000000000E+00 -0.11746123886E+04  0.11746123886E+04  0.00000000000E+00 0. -1.
         25    2    1    2    0    0 -0.12409195229E+03 -0.32921306920E+02 -0.80581120022E+03  0.82550732641E+03  0.12509208802E+03 0.  0.
          5    1    3    3  502    0 -0.13143177164E+03 -0.42471200142E+02 -0.79936443615E+03  0.81122073915E+03  0.41800000000E+01 0. -1.
         -5    1    3    3    0  502  0.73398193553E+01  0.95498932219E+01 -0.64467640710E+01  0.14286587266E+02  0.41800000000E+01 0. -1.
        -11    1    1    2    0    0  0.51090144410E+02 -0.15834249128E+02 -0.21829167816E+03  0.22474915585E+03  0.00000000000E+00 0. -1.
         11    1    1    2    0    0  0.73001807876E+02  0.48755556049E+02 -0.12341426915E+03  0.15145114733E+03  0.00000000000E+00 0.  1.
</event>
<event>
 7    1  0.2728221E-009  0.1140141E+03  0.7561462E-02  0.1253312E+00
         -1   -1    0    0    0  501 -0.00000000000E+00  0.00000000000E+00  0.81993050932E+02  0.81993050932E+02  0.00000000000E+00 0.  1.
          1   -1    0    0  501    0  0.00000000000E+00 -0.00000000000E+00 -0.18630404514E+03  0.18630404514E+03  0.00000000000E+00 0. -1.
         25    2    1    2    0    0  0.11320508780E+02 -0.52397259085E+02 -0.28918973177E+02  0.13913145215E+03  0.12509047641E+03 0.  0.
          5    1    3    3  502    0 -0.27951780207E+02 -0.80474356975E+02 -0.59339048347E+01  0.85499168265E+02  0.41800000000E+01 0. -1.
         -5    1    3    3    0  502  0.39272288987E+02  0.28077097891E+02 -0.22985068342E+02  0.53632283887E+02  0.41800000000E+01 0. -1.
        -11    1    1    2    0    0  0.26835743210E+02  0.49130820188E+02 -0.71300565635E+02  0.90651890581E+02  0.00000000000E+00 0.  1.
         11    1    1    2    0    0 -0.38156251990E+02  0.32664388965E+01 -0.40914553964E+01  0.38513753339E+02  0.00000000000E+00 0. -1.
</event>
<event>
 7    1  0.2728221E-009  0.1176398E+03  0.7561462E-02  0.1247042E+00
          1   -1    0    0  501    0  0.00000000000E+00  0.00000000000E+00  0.81626861012E+03  0.81626861012E+03  0.00000000000E+00 0. -1.
         -1   -1    0    0    0  501 -0.00000000000E+00 -0.00000000000E+00 -0.33329012128E+02  0.33329012128E+02  0.00000000000E+00 0.  1.
         25    2    1    2    0    0  0.44322627904E+02 -0.44031242515E+01  0.71183750632E+03  0.72411649823E+03  0.12509270465E+03 0.  0.
          5    1    3    3  502    0  0.30005608575E+02 -0.64092288948E+02  0.35402344964E+03  0.36105156604E+03  0.41800000000E+01 0.  1.
         -5    1    3    3    0  502  0.14317019329E+02  0.59689164697E+02  0.35781405668E+03  0.36306493219E+03  0.41800000000E+01 0.  1.
        -11    1    1    2    0    0  0.26534369656E+02 -0.13512342826E+02  0.14980039563E+02  0.33332533162E+02  0.00000000000E+00 0.  1.
         11    1    1    2    0    0 -0.70856997560E+02  0.17915467078E+02  0.56122052108E+02  0.92148590855E+02  0.00000000000E+00 0. -1.
</event>
<event>
 7    1  0.2728221E-009  0.1153346E+03  0.7561462E-02  0.1250998E+00
         -2   -1    0    0    0  501 -0.00000000000E+00  0.00000000000E+00  0.23562954891E+02  0.23562954891E+02  0.00000000000E+00 0.  1.
          2   -1    0    0  501    0  0.00000000000E+00 -0.00000000000E+00 -0.75098813607E+03  0.75098813607E+03  0.00000000000E+00 0. -1.
         25    2    1    2    0    0  0.45338472155E+02 -0.48959207828E+02 -0.29026640888E+03  0.32303988017E+03  0.12509034722E+03 0.  0.
          5    1    3    3  502    0  0.63714334971E+02  0.32029196308E+01 -0.65487570422E+02  0.91519776304E+02  0.41800000000E+01 0. -1.
         -5    1    3    3    0  502 -0.18375862816E+02 -0.52162127458E+02 -0.22477883846E+03  0.23152010386E+03  0.41800000000E+01 0. -1.
        -11    1    1    2    0    0 -0.61734792859E+01 -0.25988505203E+02 -0.75130862752E+02  0.79738076143E+02  0.00000000000E+00 0.  1.
         11    1    1    2    0    0 -0.39164992869E+02  0.74947713031E+02 -0.36202790955E+03  0.37177313465E+03  0.00000000000E+00 0. -1.
</event>
<event>
 7    1  0.2728221E-009  0.1074655E+03  0.7561462E-02  0.1265337E+00
          3   -1    0    0  501    0  0.00000000000E+00  0.00000000000E+00  0.55982347455E+03  0.55982347455E+03  0.00000000000E+00 0. -1.
         -3   -1    0    0    0  501 -0.00000000000E+00 -0.00000000000E+00 -0.24978615647E+02  0.24978615647E+02  0.00000000000E+00 0.  1.
         25    2    1    2    0    0 -0.29986694609E+02  0.32881226357E+02  0.28323356641E+03  0.31280962975E+03  0.12509290317E+03 0.  0.
          5    1    3    3  502    0 -0.66670382244E+02  0.40172842379E+02  0.10572048594E+03  0.13135102086E+03  0.41800000000E+01 0.  1.
         -5    1    3    3    0  502  0.36683687635E+02 -0.72916160224E+01  0.17751308047E+03  0.18145860889E+03  0.41800000000E+01 0.  1.
        -11    1    1    2    0    0  0.37663655753E+02  0.22208910931E+02  0.14890284424E+03  0.15518970234E+03  0.00000000000E+00 0. -1.
         11    1    1    2    0    0 -0.76769611435E+01 -0.55090137288E+02  0.10270844825E+03  0.11680275810E+03  0.00000000000E+00 0.  1.
</event>
<event>
 7    1  0.2728221E-009  0.1927921E+03  0.7561462E-02  0.1155967E+00
         -1   -1    0    0    0  501 -0.00000000000E+00  0.00000000000E+00  0.58623220783E+02  0.58623220783E+02  0.00000000000E+00 0.  1.
          1   -1    0    0  501    0  0.00000000000E+00 -0.00000000000E+00 -0.86671484692E+03  0.86671484692E+03  0.00000000000E+00 0. -1.
         25    2    1    2    0    0 -0.16076037687E+03 -0.84143968617E+02 -0.56809799039E+03  0.60934986451E+03  0.12509126455E+03 0.  0.
          5    1    3    3  502    0 -0.86861099437E+01  0.21487147496E+01 -0.21579268570E+03  0.21601856652E+03  0.41800000000E+01 0.  1.
         -5    1    3    3    0  502 -0.15207426693E+03 -0.86292683366E+02 -0.35230530469E+03  0.39333129799E+03  0.41800000000E+01 0.  1.
        -11    1    1    2    0    0  0.87929234502E+02  0.92349729740E+02 -0.11836360083E+03  0.17398265679E+03  0.00000000000E+00 0.  1.
         11    1    1    2    0    0  0.72831142367E+02 -0.82057611233E+01 -0.12163003492E+03  0.14200554640E+03  0.00000000000E+00 0. -1.
</event>
<event>
 7    1  0.2728221E-009  0.1392441E+03  0.7561462E-02  0.1214350E+00
          2   -1    0    0  501    0  0.00000000000E+00  0.00000000000E+00  0.88157653386E+03  0.88157653386E+03  0.00000000000E+00 0. -1.
         -2   -1    0    0    0  501 -0.00000000000E+00 -0.00000000000E+00 -0.25582499319E+02  0.25582499319E+02  0.00000000000E+00 0.  1.
         25    2    1    2    0    0  0.10153666023E+03 -0.62297086611E+01  0.40661621694E+03  0.43741662561E+03  0.12509218138E+03 0.  0.
          5    1    3    3  502    0  0.11786554753E+03  0.29179024189E+02  0.29158414108E+03  0.31588365972E+03  0.41800000000E+01 0.  1.
         -5    1    3    3    0  502 -0.16328887296E+02 -0.35408732850E+02  0.11503207586E+03  0.12153296590E+03  0.41800000000E+01 0.  1.
        -11    1    1    2    0    0 -0.22415364371E+02 -0.24217807753E+02  0.40863649456E+02  0.52524171760E+02  0.00000000000E+00 0.  1.
         11    1    1    2    0    0 -0.79121295864E+02  0.30447516414E+02  0.40851416815E+03  0.41721823581E+03  0.00000000000E+00 0. -1.
</event>
<event>
 7    1  0.2728221E-009  0.1697039E+03  0.7561462E-02  0.1178157E+00
         -2   -1    0    0    0  501 -0.00000000000E+00  0.00000000000E+00  0.12518185429E+03  0.12518185429E+03  0.00000000000E+00 0. -1.
          2   -1    0    0  501    0  0.00000000000E+00 -0.00000000000E+00 -0.29982062573E+03  0.29982062573E+03  0.00000000000E+00 0.  1.
         25    2    1    2    0    0  0.55389727780E+02  0.13750870216E+03 -0.27814356511E+02  0.19595376140E+03  0.12509025968E+03 0.  0.
          5    1    3    3  502    0  0.92213820150E+02  0.10466550882E+03 -0.82678008991E+00  0.13955792105E+03  0.41800000000E+01 0. -1.
         -5    1    3    3    0  502 -0.36824092371E+02  0.32843193345E+02 -0.26987576422E+02  0.56395840353E+02  0.41800000000E+01 0. -1.
        -11    1    1    2    0    0 -0.11630883740E+02 -0.61825407805E+02 -0.58682904536E+01  0.63183030473E+02  0.00000000000E+00 0. -1.
         11    1    1    2    0    0 -0.43758844040E+02 -0.75683294356E+02 -0.14095612447E+03  0.16586568814E+03  0.00000000000E+00 0.  1.
</event>
<event>
 7    1  0.2728221E-009  0.1593020E+03  0.7561462E-02  0.1189487E+00
         -3   -1    0    0    0  501 -0.00000000000E+00  0.00000000000E+00  0.11684099460E+03  0.11684099460E+03  0.00000000000E+00 0.  1.
          3   -1    0    0  501    0  0.00000000000E+00 -0.00000000000E+00 -0.38934218661E+03  0.38934218661E+03  0.00000000000E+00 0. -1.
         25    2    1    2    0    0  0.41198379267E+02 -0.13672004018E+03 -0.46244254232E+01  0.18989165017E+03  0.12509107743E+03 0.  0.
          5    1    3    3  502    0  0.72261213254E+02 -0.65401333849E+02 -0.38588767058E+02  0.10490749617E+03  0.41800000000E+01 0. -1.
         -5    1    3    3    0  502 -0.31062833987E+02 -0.71318706328E+02  0.33964341635E+02  0.84984153995E+02  0.41800000000E+01 0. -1.
        -11    1    1    2    0    0 -0.18784290583E+02  0.45692004390E+02 -0.23812496134E+02  0.54841989479E+02  0.00000000000E+00 0.  1.
         11    1    1    2    0    0 -0.22414088684E+02  0.91028035787E+02 -0.24406427046E+03  0.26144954157E+03  0.00000000000E+00 0. -1.
</event>
<event>
 7    1  0.2728221E-009  0.9438048E+02  0.7561462E-02  0.1292578E+00
          1   -1    0    0  501    0  0.00000000000E+00  0.00000000000E+00  0.13330208291E+03  0.13330208291E+03  0.00000000000E+00 0. -1.
         -1   -1    0    0    0  501 -0.00000000000E+00 -0.00000000000E+00 -0.12043916227E+03  0.12043916227E+03  0.00000000000E+00 0.  1.
         25    2    1    2    0    0  0.29220975565E+02 -0.54508712318E+01  0.67010163350E+02  0.14498097089E+03  0.12508214308E+03 0.  0.
          5    1    3    3  502    0 -0.42976650010E+02  0.25227516696E+02  0.25960353534E+02  0.56345651122E+02  0.41800000000E+01 0.  1.
         -5    1    3    3    0  502  0.72197625575E+02 -0.30678387928E+02  0.41049809816E+02  0.88635319768E+02  0.41800000000E+01 0.  1.
        -11    1    1    2    0    0 -0.43245120707E+02 -0.37737518623E+01 -0.72114539504E+02  0.84171779569E+02  0.00000000000E+00 0.  1.
         11    1    1    2    0    0  0.14024145142E+02  0.92246230942E+01  0.17967296795E+02  0.24588494714E+02  0.00000000000E+00 0. -1.
</event>
<event>
 7    1  0.2728221E-009  0.1174401E+03  0.7561462E-02  0.1247381E+00
          2   -1    0    0  501    0  0.00000000000E+00  0.00000000000E+00  0.12323029596E+03  0.12323029596E+03  0.00000000000E+00 0. -1.
         -2   -1    0    0    0  501 -0.00000000000E+00 -0.00000000000E+00 -0.16064354639E+03  0.16064354639E+03  0.00000000000E+00 0.  1.
         25    2    1    2    0    0  0.28102438014E+01 -0.90471296643E+02 -0.19384995706E+02  0.15561672716E+03  0.12509130556E+03 0.  0.
          5    1    3    3  502    0 -0.51470078869E+02 -0.59180809667E+02  0.20567650956E+02  0.81191366028E+02  0.41800000000E+01 0. -1.
         -5    1    3    3    0  502  0.54280322670E+02 -0.31290486976E+02 -0.39952646661E+02  0.74425361132E+02  0.41800000000E+01 0. -1.
        -11    1    1    2    0    0  0.10424289663E+02  0.44614337158E+02 -0.52276604663E+02  0.69512216840E+02  0.00000000000E+00 0.  1.
         11    1    1    2    0    0 -0.13234533464E+02  0.45856959485E+02  0.34248349929E+02  0.58744898350E+02  0.00000000000E+00 0. -1.
</event>
<event>
 7    1  0.2728221E-009  0.1596547E+03  0.7561462E-02  0.1189087E+00
         -3   -1    0    0    0  501 -0.00000000000E+00  0.00000000000E+00  0.10494979437E+03  0.10494979437E+03  0.00000000000E+00 0.  1.
          3   -1    0    0  501    0  0.00000000000E+00 -0.00000000000E+00 -0.41855285335E+03  0.41855285335E+03  0.00000000000E+00 0. -1.
         25    2    1    2    0    0  0.76074916741E+02  0.13366917657E+03 -0.46984095252E+02  0.20374416334E+03  0.12509731080E+03 0.  0.
          5    1    3    3  502    0  0.32152450669E+02  0.76207855710E+02  0.38804131224E+02  0.91458462462E+02  0.41800000000E+01 0.  1.
         -5    1    3    3    0  502  0.43922466073E+02  0.57461320859E+02 -0.85788226476E+02  0.11228570088E+03  0.41800000000E+01 0.  1.
        -11    1    1    2    0    0 -0.32784672800E+02 -0.10984227850E+03 -0.12421721466E+03  0.16902685388E+03  0.00000000000E+00 0.  1.
         11    1    1    2    0    0 -0.43290243941E+02 -0.23826898068E+02 -0.14240174908E+03  0.15073163050E+03  0.00000000000E+00 0. -1.
</event>
<event>
 7    1  0.2728221E-009  0.1607575E+03  0.7561462E-02  0.1187844E+00
         -2   -1    0    0    0  501 -0.00000000000E+00  0.00000000000E+00  0.24517435698E+02  0.24517435698E+02  0.00000000000E+00 0.  1.
          2   -1    0    0  501    0  0.00000000000E+00 -0.00000000000E+00 -0.15331942623E+04  0.15331942623E+04  0.00000000000E+00 0. -1.
         25    2    1    2    0    0  0.42014693383E+01 -0.14124264305E+03 -0.10978681605E+04  0.11139693370E+04  0.12508416919E+03 0.  0.
          5    1    3    3  502    0 -0.11298347948E+02  0.86812312998E+01 -0.38706679031E+03  0.38735150575E+03  0.41800000000E+01 0.  1.
         -5    1    3    3    0  502  0.15499817286E+02 -0.14992387435E+03 -0.71080137023E+03  0.72661783129E+03  0.41800000000E+01 0.  1.
        -11    1    1    2    0    0 -0.32932665299E+02  0.47213279571E+02 -0.23856886592E+03  0.24541548036E+03  0.00000000000E+00 0. -1.
         11    1    1    2    0    0  0.28731195961E+02  0.94029363477E+02 -0.17223980016E+03  0.19832688062E+03  0.00000000000E+00 0.  1.
</event>
<event>
 7    1  0.2728221E-009  0.1056789E+03  0.7561462E-02  0.1268788E+00
          2   -1    0    0  501    0  0.00000000000E+00  0.00000000000E+00  0.12484072567E+03  0.12484072567E+03  0.00000000000E+00 0. -1.
         -2   -1    0    0    0  501 -0.00000000000E+00 -0.00000000000E+00 -0.15950581659E+03  0.15950581659E+03  0.00000000000E+00 0.  1.
         25    2    1    2    0    0  0.45463023043E+02 -0.74406731084E+02  0.49537964905E+01  0.15256372164E+03  0.12509157033E+03 0.  0.
          5    1    3    3  502    0  0.38076427011E+00  0.16589243646E+02 -0.38419894633E+02  0.42058396186E+02  0.41800000000E+01 0. -1.
         -5    1    3    3    0  502  0.45082258773E+02 -0.90995974729E+02  0.43373691123E+02  0.11050532546E+03  0.41800000000E+01 0. -1.
        -11    1    1    2    0    0 -0.21369830189E+02  0.61853510884E+02  0.18178434481E+02  0.67918936470E+02  0.00000000000E+00 0. -1.
         11    1    1    2    0    0 -0.24093192854E+02  0.12553220199E+02 -0.57797321892E+02  0.63863884138E+02  0.00000000000E+00 0.  1.
</event>
<event>
 6    1  0.2728221E-009  0.1234034E+03  0.7561462E-02  0.1237586E+00
         -4   -1    0    0    0  501 -0.00000000000E+00  0.00000000000E+00  0.15803305514E+04  0.15803305514E+04  0.00000000000E+00 0.  1.
          4   -1    0    0  501    0  0.00000000000E+00 -0.00000000000E+00 -0.25807046492E+02  0.25807046492E+02  0.00000000000E+00 0. -1.
          5    1    1    2  502    0  0.24392314817E+02  0.22284504426E+02  0.17082131129E+03  0.17403728609E+03  0.41800000000E+01 0.  1.
         -5    1    1    2    0  502 -0.45432852080E+02 -0.88896970452E+02  0.12578174047E+04  0.12617800567E+04  0.41800000000E+01 0.  1.
        -11    1    1    2    0    0 -0.27481491138E+02  0.58165761683E+02  0.59246044213E+02  0.87456171551E+02  0.00000000000E+00 0. -1.
         11    1    1    2    0    0  0.48522028401E+02  0.84467043433E+01  0.66638744711E+02  0.82864083601E+02  0.00000000000E+00 0.  1.
</event>
<event>
 7    1  0.2728221E-009  0.9053407E+02  0.7561462E-02  0.1301564E+00
          3   -1    0    0  501    0  0.00000000000E+00  0.00000000000E+00  0.87699488341E+03  0.87699488341E+03  0.00000000000E+00 0. -1.
         -3   -1    0    0    0  501 -0.00000000000E+00 -0.00000000000E+00 -0.20213227824E+02  0.20213227824E+02  0.00000000000E+00 0.  1.
         25    2    1    2    0    0 -0.64751740413E+02 -0.43104721843E+02  0.52444882285E+03  0.54474279067E+03  0.12508930919E+03 0.  0.
          5    1    3    3  502    0 -0.52063571329E+02  0.40227243621E+01  0.68826360464E+02  0.86494728542E+02  0.41800000000E+01 0.  1.
         -5    1    3    3    0  502 -0.12688169084E+02 -0.47127446205E+02  0.45562246238E+03  0.45824806213E+03  0.41800000000E+01 0.  1.
        -11    1    1    2    0    0  0.13396849749E+02  0.12640379674E+01 -0.14064836810E+00  0.13457085760E+02  0.00000000000E+00 0.  1.
         11    1    1    2    0    0  0.51354890664E+02  0.41840683876E+02  0.33247348111E+03  0.33900823480E+03  0.00000000000E+00 0. -1.
</event>
<event>
 7    1  0.2728221E-009  0.1303729E+03  0.7561462E-02  0.1226904E+00
          1   -1    0    0  501    0  0.00000000000E+00  0.00000000000E+00  0.39108953551E+02  0.39108953551E+02  0.00000000000E+00 0. -1.
         -1   -1    0    0    0  501 -0.00000000000E+00 -0.00000000000E+00 -0.52148814899E+03  0.52148814899E+03  0.00000000000E+00 0.  1.
         25    2    1    2    0    0 -0.70088551407E+02 -0.61212564379E+02 -0.23931166976E+03  0.28561366724E+03  0.12508280680E+03 0.  0.
          5    1    3    3  502    0  0.28197736047E+02  0.70204216565E+01 -0.19289174724E+02  0.35127529089E+02  0.41800000000E+01 0.  1.
         -5    1    3    3    0  502 -0.98286287453E+02 -0.68232986036E+02 -0.22002249504E+03  0.25048613815E+03  0.41800000000E+01 0.  1.
        -11    1    1    2    0    0  0.27251360590E+02 -0.96098287551E+01 -0.15414145482E+02  0.32750287688E+02  0.00000000000E+00 0. -1.
         11    1    1    2    0    0  0.42837190817E+02  0.70822393134E+02 -0.22765338019E+03  0.24223314761E+03  0.00000000000E+00 0.  1.
</event>
<event>
 7    1  0.2728221E-009  0.1287128E+03  0.7561462E-02  0.1229378E+00
          2   -1    0    0  501    0  0.00000000000E+00  0.00000000000E+00  0.57906334634E+03  0.57906334634E+03  0.00000000000E+00 0. -1.
         -2   -1    0    0    0  501 -0.00000000000E+00 -0.00000000000E+00 -0.35391276023E+02  0.35391276023E+02  0.00000000000E+00 0.  1.
         25    2    1    2    0    0 -0.26933656061E+02 -0.88239525775E+02  0.27476474332E+03  0.31568078823E+03  0.12508820946E+03 0.  0.
          5    1    3    3  502    0  0.35891763859E+02 -0.32491368447E+02  0.30568226659E+02  0.57409029059E+02  0.41800000000E+01 0.  1.
         -5    1    3    3    0  502 -0.62825419920E+02 -0.55748157328E+02  0.24419651666E+03  0.25827175917E+03  0.41800000000E+01 0.  1.
        -11    1    1    2    0    0 -0.28892294979E+02  0.47601590193E+02  0.16387120824E+03  0.17307353636E+03  0.00000000000E+00 0. -1.
         11    1    1    2    0    0  0.55825951039E+02  0.40637935582E+02  0.10503611875E+03  0.12570029777E+03  0.00000000000E+00 0.  1.
</event>
<event>
 6    1  0.2728221E-009  0.1188425E+03  0.7561462E-02  0.1245019E+00
          3   -1    0    0  501    0  0.00000000000E+00  0.00000000000E+00  0.19407475602E+03  0.19407475602E+03  0.00000000000E+00 0. -1.
         -3   -1    0    0    0  501 -0.00000000000E+00 -0.00000000000E+00 -0.12657393066E+03  0.12657393066E+03  0.00000000000E+00 0.  1.
          5    1    1    2  502    0 -0.24679984271E+01  0.55636288754E+02 -0.21561382988E+02  0.59865292774E+02  0.41800000000E+01 0. -1.
         -5    1    1    2    0  502  0.79632609184E+02 -0.44308940167E+02 -0.22950012246E+02  0.94068114078E+02  0.41800000000E+01 0. -1.
        -11    1    1    2    0    0 -0.33460339616E+02  0.17985370408E+02 -0.50947122360E+01  0.38327848475E+02  0.00000000000E+00 0.  1.
         11    1    1    2    0    0 -0.43704271140E+02 -0.29312718995E+02  0.11710693283E+03  0.12838743135E+03  0.00000000000E+00 0. -1.
</event>
<event>
 7    1  0.2728221E-009  0.9613651E+02  0.7561462E-02  0.1288637E+00
         -2   -1    0    0    0  501 -0.00000000000E+00  0.00000000000E+00  0.66200560863E+02  0.66200560863E+02  0.00000000000E+00 0.  1.
          2   -1    0    0  501    0  0.00000000000E+00 -0.00000000000E+00 -0.22557504708E+03  0.22557504708E+03  0.00000000000E+00 0. -1.
         25    2    1    2    0    0  0.17289096786E+02  0.12770584606E+02 -0.26076128626E+02  0.12955597816E+03  0.12507112494E+03 0.  0.
          5    1    3    3  502    0 -0.52798197398E+02  0.33301857073E+01 -0.25102594281E+02  0.58705642191E+02  0.41800000000E+01 0. -1.
         -5    1    3    3    0  502  0.70087294184E+02  0.94403988988E+01 -0.97353434485E+00  0.70850335966E+02  0.41800000000E+01 0. -1.
        -11    1    1    2    0    0  0.24934036687E+02 -0.45829043779E+01 -0.11083439555E+03  0.11369684443E+03  0.00000000000E+00 0. -1.
         11    1    1    2    0    0 -0.42223133473E+02 -0.81876802282E+01 -0.22463962048E+02  0.48522785356E+02  0.00000000000E+00 0.  1.
</event>
<event>
 7    1  0.2728221E-009  0.1177166E+03  0.7561462E-02  0.1246912E+00
         -2   -1    0    0    0  501 -0.00000000000E+00  0.00000000000E+00  0.32694029663E+02  0.32694029663E+02  0.00000000000E+00 0.  1.
          2   -1    0    0  501    0  0.00000000000E+00 -0.00000000000E+00 -0.64697090771E+03  0.64697090771E+03  0.00000000000E+00 0. -1.
         25    2    1    2    0    0  0.73435376636E+02 -0.34172273908E+02 -0.21346885873E+03  0.26034094108E+03  0.12509177873E+03 0.  0.
          5    1    3    3  502    0  0.21676164799E+02 -0.54590343676E+02 -0.19154279092E+03  0.20038980737E+03  0.41800000000E+01 0. -1.
         -5    1    3    3    0  502  0.51759211837E+02  0.20418069768E+02 -0.21926067809E+02  0.59951133706E+02  0.41800000000E+01 0. -1.
        -11    1    1    2    0    0 -0.41436723304E+02  0.64500048839E+02 -0.21196045048E+03  0.22539851576E+03  0.00000000000E+00 0. -1.
         11    1    1    2    0    0 -0.31998653332E+02 -0.30327774931E+02 -0.18884756884E+03  0.19392548054E+03  0.00000000000E+00 0.  1.
</event>
<event>
 7    1  0.2728221E-009  0.1020285E+03  0.7561462E-02  0.1276087E+00
          3   -1    0    0  501    0  0.00000000000E+00  0.00000000000E+00  0.64034950538E+03  0.64034950538E+03  0.00000000000E+00 0. -1.
         -3   -1    0    0    0  501 -0.00000000000E+00 -0.00000000000E+00 -0.23317291413E+02  0.23317291413E+02  0.00000000000E+00 0.  1.
         25    2    1    2    0    0  0.50895423159E+02 -0.20848799703E+02  0.38225090503E+03  0.40593463453E+03  0.12506860743E+03 0.  0.
          5    1    3    3  502    0 -0.37140606392E+02  0.35609090945E+01  0.58471309167E+02  0.69487201069E+02  0.41800000000E+01 0.  1.
         -5    1    3    3    0  502  0.88036029551E+02 -0.24409708797E+02  0.32377959587E+03  0.33644743346E+03  0.41800000000E+01 0.  1.
        -11    1    1    2    0    0 -0.28858171349E+02 -0.15345352159E+02  0.18950647822E+02  0.37780960011E+02  0.00000000000E+00 0.  1.
         11    1    1    2    0    0 -0.22037251810E+02  0.36194151862E+02  0.21583066111E+03  0.21995120225E+03  0.00000000000E+00 0. -1.
</event>
<event>
 7    1  0.2728221E-009  0.1850180E+03  0.7561462E-02  0.1163033E+00
         -2   -1    0    0    0  501 -0.00000000000E+00  0.00000000000E+00  0.14864950868E+03  0.14864950868E+03  0.00000000000E+00 0. -1.
          2   -1    0    0  501    0  0.00000000000E+00 -0.00000000000E+00 -0.30245540735E+03  0.30245540735E+03  0.00000000000E+00 0.  1.
         25    2    1    2    0    0 -0.59041639692E+02  0.16839812022E+03 -0.11745676914E+03  0.24756340666E+03  0.12509078938E+03 0.  0.
          5    1    3    3  502    0 -0.48375745993E+02  0.41394457547E+02 -0.10032830359E+03  0.11889892689E+03  0.41800000000E+01 0.  1.
         -5    1    3    3    0  502 -0.10665893699E+02  0.12700366267E+03 -0.17128465550E+02  0.12866447976E+03  0.41800000000E+01 0.  1.
        -11    1    1    2    0    0  0.56469549595E+02 -0.15277349954E+03 -0.61267060303E+02  0.17401782917E+03  0.00000000000E+00 0.  1.
         11    1    1    2    0    0  0.25720900967E+01 -0.15624620681E+02  0.24917930770E+02  0.29523680203E+02  0.00000000000E+00 0. -1.
</event>
<event>
 7    1  0.2728221E-009  0.1139209E+03  0.7561462E-02  0.1253477E+00
         -1   -1    0    0    0  501 -0.00000000000E+00  0.00000000000E+00  0.64407407633E+03  0.64407407633E+03  0.00000000000E+00 0.  1.
          1   -1    0    0  501    0  0.00000000000E+00 -0.00000000000E+00 -0.23635294849E+02  0.23635294849E+02  0.00000000000E+00 0. -1.
         25    2    1    2    0    0 -0.41481706488E+02  0.84634456121E+01  0.45361486695E+03  0.47244802873E+03  0.12509328700E+03 0.  0.
          5    1    3    3  502    0 -0.84690170815E+02 -0.61658565501E+01  0.26271016437E+03  0.27612414904E+03  0.41800000000E+01 0. -1.
         -5    1    3    3    0  502  0.43208464326E+02  0.14629302162E+02  0.19090470258E+03  0.19632387969E+03  0.41800000000E+01 0. -1.
        -11    1    1    2    0    0  0.60577991007E+02 -0.30527634222E+02  0.14025120413E+03  0.15579483209E+03  0.00000000000E+00 0.  1.
         11    1    1    2    0    0 -0.19096284518E+02  0.22064188610E+02  0.26572710395E+02  0.39466510349E+02  0.00000000000E+00 0. -1.
</event>
<event>
 7    1  0.2728221E-009  0.1298237E+03  0.7561462E-02  0.1227718E+00
         -1   -1    0    0    0  501 -0.00000000000E+00  0.00000000000E+00  0.41185224446E+03  0.41185224446E+03  0.00000000000E+00 0.  1.
          1   -1    0    0  501    0  0.00000000000E+00 -0.00000000000E+00 -0.14510537236E+03  0.14510537236E+03  0.00000000000E+00 0. -1.
         25    2    1    2    0    0  0.10556699774E+03 -0.22060789451E+02  0.35478618814E+03  0.39134490953E+03  0.12508608825E+03 0.  0.
          5    1    3    3  502    0 -0.14982051517E+02 -0.15608554632E+02  0.69098155971E+01  0.23093436231E+02  0.41800000000E+01 0.  1.
         -5    1    3    3    0  502  0.12054904926E+03 -0.64522348186E+01  0.34787637254E+03  0.36825147330E+03  0.41800000000E+01 0.  1.
        -11    1    1    2    0    0 -0.17605019808E+02 -0.13249142217E+02  0.14186849785E+02  0.26205785597E+02  0.00000000000E+00 0.  1.
         11    1    1    2    0    0 -0.87961977930E+02  0.35309931668E+02 -0.10222616583E+03  0.13940692169E+03  0.00000000000E+00 0. -1.
</event>
<event>
 7    1  0.2728221E-009  0.9455216E+02  0.7561462E-02  0.1292188E+00
         -2   -1    0    0    0  501 -0.00000000000E+00  0.00000000000E+00  0.64286525219E+02  0.64286525219E+02  0.00000000000E+00 0.  1.
          2   -1    0    0  501    0  0.00000000000E+00 -0.00000000000E+00 -0.26482998248E+03  0.26482998248E+03  0.00000000000E+00 0. -1.
         25    2    1    2    0    0  0.67949819301E+01 -0.34287620908E+02 -0.87543111552E+02  0.15663123400E+03  0.12509090438E+03 0.  0.
          5    1    3    3  502    0 -0.17553121453E+02 -0.62359937676E+02 -0.98226593203E+02  0.11774043448E+03  0.41800000000E+01 0.  1.
         -5    1    3    3    0  502  0.24348103383E+02  0.28072316769E+02  0.10683481651E+02  0.38890799520E+02  0.41800000000E+01 0.  1.
        -11    1    1    2    0    0  0.30098731984E+02  0.39361638900E+02 -0.12409892264E+03  0.13362565204E+03  0.00000000000E+00 0. -1.
         11    1    1    2    0    0 -0.36893713914E+02 -0.50740179927E+01  0.11098576932E+02  0.38859621651E+02  0.00000000000E+00 0.  1.
</event>
<event>
 7    1  0.2728221E-009  0.1674562E+03  0.7561462E-02  0.1180527E+00
          1   -1    0    0  501    0  0.00000000000E+00  0.00000000000E+00  0.27749220022E+03  0.27749220022E+03  0.00000000000E+00 0.  1.
         -1   -1    0    0    0  501 -0.00000000000E+00 -0.00000000000E+00 -0.13187958679E+03  0.13187958679E+03  0.00000000000E+00 0. -1.
         25    2    1    2    0    0 -0.11476827747E+03  0.10529216732E+03  0.75380426086E+02  0.21351131910E+03  0.12508667689E+03 0.  0.
          5    1    3    3  502    0 -0.11289237421E+03  0.51387567519E+02  0.94651470755E+02  0.15608248962E+03  0.41800000000E+01 0. -1.
         -5    1    3    3    0  502 -0.18759032557E+01  0.53904599797E+02 -0.19271044669E+02  0.57428829476E+02  0.41800000000E+01 0. -1.
        -11    1    1    2    0    0  0.42070448163E+02 -0.50155276182E+02  0.80820019397E+02  0.10400648957E+03  0.00000000000E+00 0.  1.
         11    1    1    2    0    0  0.72697829305E+02 -0.55136891134E+02 -0.10587832061E+02  0.91853978342E+02  0.00000000000E+00 0. -1.
</event>
<event>
 7    1  0.2728221E-009  0.7830435E+02  0.7561462E-02  0.1333933E+00
         -1   -1    0    0    0  501 -0.00000000000E+00  0.00000000000E+00  0.12365487202E+03  0.12365487202E+03  0.00000000000E+00 0. -1.
          1   -1    0    0  501    0  0.00000000000E+00 -0.00000000000E+00 -0.12300896076E+03  0.12300896076E+03  0.00000000000E+00 0.  1.
         25    2    1    2    0    0  0.50304535641E+02  0.25095624088E+02  0.11496884771E+02  0.13762415705E+03  0.12509154084E+03 0.  0.
          5    1    3    3  502    0  0.52968381731E+02  0.37028887646E+02 -0.45520786967E+02  0.79160611605E+02  0.41800000000E+01 0.  1.
         -5    1    3    3    0  502 -0.26638460901E+01 -0.11933263559E+02  0.57017671737E+02  0.58463545441E+02  0.41800000000E+01 0.  1.
        -11    1    1    2    0    0 -0.32085442873E+02  0.14596866019E+02 -0.42417243770E+02  0.55152214017E+02  0.00000000000E+00 0.  1.
         11    1    1    2    0    0 -0.18219092769E+02 -0.39692490107E+02  0.31566270258E+02  0.53887461716E+02  0.00000000000E+00 0. -1.
</event>
<event>
 7    1  0.2728221E-009  0.6375838E+02  0.7561462E-02  0.1382704E+00
         -1   -1    0    0    0  501 -0.00000000000E+00  0.00000000000E+00  0.53509567440E+02  0.53509567440E+02  0.00000000000E+00 0.  1.
          1   -1    0    0  501    0  0.00000000000E+00 -0.00000000000E+00 -0.24559171687E+03  0.24559171687E+03  0.00000000000E+00 0. -1.
         25    2    1    2    0    0  0.13170099269E+02  0.35087497890E+02 -0.12012906641E+03  0.17743665475E+03  0.12509272493E+03 0.  0.
          5    1    3    3  502    0 -0.15602184830E+02 -0.37530601675E+01  0.21830905579E+02  0.27414858571E+02  0.41800000000E+01 0.  1.
         -5    1    3    3    0  502  0.28772284099E+02  0.38840558057E+02 -0.14195997199E+03  0.15002179618E+03  0.41800000000E+01 0.  1.
        -11    1    1    2    0    0 -0.19027132787E+02  0.67368120511E+01 -0.76565211961E+02  0.79181109498E+02  0.00000000000E+00 0. -1.
         11    1    1    2    0    0  0.58570335177E+01 -0.41824309941E+02  0.46121289355E+01  0.42483520063E+02  0.00000000000E+00 0.  1.
</event>
<event>
 7    1  0.2728221E-009  0.1244412E+03  0.7561462E-02  0.1235945E+00
         -1   -1    0    0    0  501 -0.00000000000E+00  0.00000000000E+00  0.70610214610E+02  0.70610214610E+02  0.00000000000E+00 0.  1.
          1   -1    0    0  501    0  0.00000000000E+00 -0.00000000000E+00 -0.31481536366E+03  0.31481536366E+03  0.00000000000E+00 0. -1.
         25    2    1    2    0    0  0.55206978066E+02  0.86360275630E+02 -0.12614502758E+03  0.20510261977E+03  0.12509440044E+03 0.  0.
          5    1    3    3  502    0  0.18796452564E+01 -0.23509378130E+02  0.64307533828E+01  0.24800220068E+02  0.41800000000E+01 0. -1.
         -5    1    3    3    0  502  0.53327332810E+02  0.10986965376E+03 -0.13257578096E+03  0.18030239970E+03  0.41800000000E+01 0. -1.
        -11    1    1    2    0    0 -0.21854302688E+02 -0.40573101849E+02  0.34946970510E+01  0.46216880543E+02  0.00000000000E+00 0.  1.
         11    1    1    2    0    0 -0.33352675378E+02 -0.45787173782E+02 -0.12155481853E+03  0.13410607796E+03  0.00000000000E+00 0. -1.
</event>
<event>
 7    1  0.2728221E-009  0.1131006E+03  0.7561462E-02  0.1254933E+00
          1   -1    0    0  501    0  0.00000000000E+00  0.00000000000E+00  0.35052846408E+03  0.35052846408E+03  0.00000000000E+00 0. -1.
         -1   -1    0    0    0  501 -0.00000000000E+00 -0.00000000000E+00 -0.39038865268E+02  0.39038865268E+02  0.00000000000E+00 0.  1.
         25    2    1    2    0    0 -0.14578664746E+02 -0.38857267216E+02  0.19643855411E+03  0.23655418874E+03  0.12508938399E+03 0.  0.
          5    1    3    3  502    0 -0.18571827783E+02 -0.81649605969E+02  0.97415076819E+02  0.12852525251E+03  0.41800000000E+01 0.  1.
         -5    1    3    3    0  502  0.39931630369E+01  0.42792338754E+02  0.99023477288E+02  0.10802893622E+03  0.41800000000E+01 0.  1.
        -11    1    1    2    0    0  0.27596108805E+02 -0.23027461125E+02  0.55672911145E+02  0.66266750504E+02  0.00000000000E+00 0.  1.
         11    1    1    2    0    0 -0.13017444058E+02  0.61884728340E+02  0.59378133556E+02  0.86746390104E+02  0.00000000000E+00 0. -1.
</event>
<event>
 7    1  0.2805848E-009  0.1483965E+03  0.7561462E-02  0.1202457E+00
          2   -1    0    0  501    0  0.00000000000E+00  0.00000000000E+00  0.33235220427E+03  0.33235220427E+03  0.00000000000E+00 0. -1.
         -2   -1    0    0    0  501 -0.00000000000E+00 -0.00000000000E+00 -0.95081100102E+02  0.95081100102E+02  0.00000000000E+00 0.  1.
         25    2    1    2    0    0 -0.66750290935E+02 -0.10975368184E+03  0.57776869225E+02  0.18837898788E+03  0.12508798680E+03 0.  0.
          5    1    3    3  502    0 -0.14259025595E+02 -0.81942239286E+02  0.88371969407E+02  0.12142869417E+03  0.41800000000E+01 0. -1.
         -5    1    3    3    0  502 -0.52491265341E+02 -0.27811442551E+02 -0.30595100182E+02  0.66950293718E+02  0.41800000000E+01 0. -1.
        -11    1    1    2    0    0  0.65311042632E+02  0.26156379930E+02  0.56008137520E+02  0.89925524570E+02  0.00000000000E+00 0.  1.
         11    1    1    2    0    0  0.14392483031E+01  0.83597301906E+02  0.12348609742E+03  0.14912879191E+03  0.00000000000E+00 0. -1.
</event>
<event>
 7    1  0.2728221E-009  0.8806245E+02  0.7561462E-02  0.1307613E+00
          2   -1    0    0  501    0  0.00000000000E+00  0.00000000000E+00  0.82619392066E+03  0.82619392066E+03  0.00000000000E+00 0. -1.
         -2   -1    0    0    0  501 -0.00000000000E+00 -0.00000000000E+00 -0.25046725791E+02  0.25046725791E+02  0.00000000000E+00 0.  1.
         25    2    1    2    0    0  0.32501010472E+02  0.49156617743E+02  0.65758138144E+03  0.67196220722E+03  0.12508895221E+03 0.  0.
          5    1    3    3  502    0  0.67476194345E+02  0.42457287894E+02  0.59075215678E+03  0.59612183423E+03  0.41800000000E+01 0.  1.
         -5    1    3    3    0  502 -0.34975183873E+02  0.66993298488E+01  0.66829224656E+02  0.75840372991E+02  0.41800000000E+01 0.  1.
        -11    1    1    2    0    0 -0.14042569920E+02 -0.33164380553E+02  0.24862782720E+01  0.36100574608E+02  0.00000000000E+00 0.  1.
         11    1    1    2    0    0 -0.18458440552E+02 -0.15992237190E+02  0.14107953516E+03  0.14317786462E+03  0.00000000000E+00 0. -1.
</event>
<event>
 7    1  0.2728221E-009  0.9114852E+02  0.7561462E-02  0.1300094E+00
         -2   -1    0    0    0  501 -0.00000000000E+00  0.00000000000E+00  0.98572936063E+02  0.98572936063E+02  0.00000000000E+00 0.  1.
          2   -1    0    0  501    0  0.00000000000E+00 -0.00000000000E+00 -0.15391711422E+03  0.15391711422E+03  0.00000000000E+00 0. -1.
         25    2    1    2    0    0  0.27206155094E+02 -0.11004875016E+02 -0.85419806414E+02  0.15429775105E+03  0.12509984213E+03 0.  0.
          5    1    3    3  502    0 -0.22744151452E+02  0.21811271163E+02  0.16694444984E+02  0.35905499138E+02  0.41800000000E+01 0.  1.
         -5    1    3    3    0  502  0.49950306546E+02 -0.32816146179E+02 -0.10211425140E+03  0.11839225191E+03  0.41800000000E+01 0.  1.
        -11    1    1    2    0    0  0.20982444569E+02  0.31811665115E+02  0.85460661620E+00  0.38117914030E+02  0.00000000000E+00 0.  1.
         11    1    1    2    0    0 -0.48188599663E+02 -0.20806790099E+02  0.29221021642E+02  0.60074385203E+02  0.00000000000E+00 0. -1.
</event>
<event>
 7    1  0.2728221E-009  0.1426445E+03  0.7561462E-02  0.1209814E+00
         -1   -1    0    0    0  501 -0.00000000000E+00  0.00000000000E+00  0.76324670834E+03  0.76324670834E+03  0.00000000000E+00 0.  1.
          1   -1    0    0  501    0  0.00000000000E+00 -0.00000000000E+00 -0.31455982923E+02  0.31455982923E+02  0.00000000000E+00 0. -1.
         25    2    1    2    0    0 -0.18042876343E+02  0.10858708268E+03  0.41604012819E+03  0.44816712616E+03  0.12509070624E+03 0.  0.
          5    1    3    3  502    0 -0.40809425577E+02  0.59380817089E+01  0.23615735161E+03  0.23976746474E+03  0.41800000000E+01 0. -1.
         -5    1    3    3    0  502  0.22766549234E+02  0.10264900098E+03  0.17988277658E+03  0.20839966141E+03  0.41800000000E+01 0. -1.
        -11    1    1    2    0    0 -0.30741858963E+02 -0.17735641953E+02  0.12192289564E+03  0.12698349250E+03  0.00000000000E+00 0.  1.
         11    1    1    2    0    0  0.48784735306E+02 -0.90851440732E+02  0.19382770159E+03  0.21955207260E+03  0.00000000000E+00 0. -1.
</event>
<event>
 7    1  0.2728221E-009  0.6785695E+02  0.7561462E-02  0.1367536E+00
          1   -1    0    0  501    0  0.00000000000E+00  0.00000000000E+00  0.50364838901E+02  0.50364838901E+02  0.00000000000E+00 0. -1.
         -1   -1    0    0    0  501 -0.00000000000E+00 -0.00000000000E+00 -0.31407970901E+03  0.31407970901E+03  0.00000000000E+00 0.  1.
         25    2    1    2    0    0 -0.61043019393E+01  0.69449015803E+01 -0.54803648644E+02  0.13687838111E+03  0.12508699833E+03 0.  0.
          5    1    3    3  502    0 -0.30693126144E+02  0.24120178919E+02 -0.85299625115E+02  0.93900742640E+02  0.41800000000E+01 0.  1.
         -5    1    3    3    0  502  0.24588824205E+02 -0.17175277339E+02  0.30495976472E+02  0.42977638469E+02  0.41800000000E+01 0.  1.
        -11    1    1    2    0    0  0.35816070060E+02 -0.76996724617E+00 -0.31888125226E+02  0.47960778294E+02  0.00000000000E+00 0. -1.
         11    1    1    2    0    0 -0.29711768121E+02 -0.61749343342E+01 -0.17702309624E+03  0.17960538851E+03  0.00000000000E+00 0.  1.
</event>
<event>
 7    1  0.2728221E-009  0.8893207E+02  0.7561462E-02  0.1305459E+00
         -1   -1    0    0    0  501 -0.00000000000E+00  0.00000000000E+00  0.41845594310E+03  0.41845594310E+03  0.00000000000E+00 0.  1.
          1   -1    0    0  501    0  0.00000000000E+00 -0.00000000000E+00 -0.38014521045E+02  0.38014521045E+02  0.00000000000E+00 0. -1.
         25    2    1    2    0    0 -0.40015339746E+02 -0.48243356320E+02  0.24171244057E+03  0.27928803272E+03  0.12509297521E+03 0.  0.
          5    1    3    3  502    0 -0.32025590111E+02 -0.19578447517E+02  0.21296030740E+01  0.37828053590E+02  0.41800000000E+01 0.  1.
         -5    1    3    3    0  502 -0.79897496351E+01 -0.28664908803E+02  0.23958283750E+03  0.24145997913E+03  0.41800000000E+01 0.  1.
        -11    1    1    2    0    0  0.17592460304E+02 -0.26613924866E+02  0.44787481881E+02  0.54988309572E+02  0.00000000000E+00 0.  1.
         11    1    1    2    0    0  0.22422879442E+02  0.74857281186E+02  0.93941499599E+02  0.12219412186E+03  0.00000000000E+00 0. -1.
</event>
<event>
 7    1  0.2728221E-009  0.2149068E+03  0.7561462E-02  0.1137738E+00
         -2   -1    0    0    0  501 -0.00000000000E+00  0.00000000000E+00  0.53426577981E+02  0.53426577981E+02  0.00000000000E+00 0.  1.
          2   -1    0    0  501    0  0.00000000000E+00 -0.00000000000E+00 -0.10893014449E+04  0.10893014449E+04  0.00000000000E+00 0. -1.
         25    2    1    2    0    0  0.14727119767E+03  0.14022016829E+03 -0.36721613533E+03  0.43800372492E+03  0.12509624990E+03 0.  0.
          5    1    3    3  502    0  0.79917104294E+02  0.48522168682E+02 -0.62045434526E+02  0.11228647629E+03  0.41800000000E+01 0.  1.
         -5    1    3    3    0  502  0.67354093377E+02  0.91697999606E+02 -0.30517070080E+03  0.32571724863E+03  0.41800000000E+01 0.  1.
        -11    1    1    2    0    0 -0.14358801835E+03 -0.84654075166E+02 -0.48849425552E+03  0.51614965769E+03  0.00000000000E+00 0. -1.
         11    1    1    2    0    0 -0.36831793163E+01 -0.55566093122E+02 -0.18016447603E+03  0.18857464023E+03  0.00000000000E+00 0.  1.
</event>
<event>
 7    1  0.2728221E-009  0.1057298E+03  0.7561462E-02  0.1268688E+00
         -2   -1    0    0    0  501 -0.00000000000E+00  0.00000000000E+00  0.11646500827E+03  0.11646500827E+03  0.00000000000E+00 0.  1.
          2   -1    0    0  501    0  0.00000000000E+00 -0.00000000000E+00 -0.11525689481E+03  0.11525689481E+03  0.00000000000E+00 0. -1.
         25    2    1    2    0    0 -0.25590815848E+02  0.13983545559E+01 -0.32389061197E+02  0.13173399128E+03  0.12509175801E+03 0.  0.
          5    1    3    3  502    0 -0.47147098868E+02  0.51992623957E+02 -0.59242640006E+01  0.70559557691E+02  0.41800000000E+01 0. -1.
         -5    1    3    3    0  502  0.21556283020E+02 -0.50594269401E+02 -0.26464797197E+02  0.61174433586E+02  0.41800000000E+01 0. -1.
        -11    1    1    2    0    0  0.21591903684E+02  0.39439089209E+02  0.37799431176E+02  0.58740523147E+02  0.00000000000E+00 0.  1.
         11    1    1    2    0    0  0.39989121639E+01 -0.40837443765E+02 -0.42022565183E+01  0.41247388664E+02  0.00000000000E+00 0. -1.
</event>
<event>
 7    1  0.2728221E-009  0.9807792E+02  0.7561462E-02  0.1284391E+00
         -2   -1    0    0    0  501 -0.00000000000E+00  0.00000000000E+00  0.10854746093E+03  0.10854746093E+03  0.00000000000E+00 0.  1.
          2   -1    0    0  501    0  0.00000000000E+00 -0.00000000000E+00 -0.18356752144E+03  0.18356752144E+03  0.00000000000E+00 0. -1.
         25    2    1    2    0    0 -0.10568151264E+02  0.88962794645E+02 -0.52284094412E+02  0.16250390961E+03  0.12509128450E+03 0.  0.
          5    1    3    3  502    0 -0.24246482396E+02  0.10410052656E+02 -0.74897126834E+02  0.79519262527E+02  0.41800000000E+01 0. -1.
         -5    1    3    3    0  502  0.13678331132E+02  0.78552741989E+02  0.22613032422E+02  0.82984647085E+02  0.41800000000E+01 0. -1.
        -11    1    1    2    0    0  0.42468220002E+01 -0.31059887252E+02 -0.54791693481E+02  0.63125919936E+02  0.00000000000E+00 0. -1.
         11    1    1    2    0    0  0.63213292635E+01 -0.57902907393E+02  0.32055727385E+02  0.66485152827E+02  0.00000000000E+00 0.  1.
</event>
<event>
 7    1  0.2728221E-009  0.1155987E+03  0.7561462E-02  0.1250540E+00
          3   -1    0    0  501    0  0.00000000000E+00  0.00000000000E+00  0.12194236990E+02  0.12194236990E+02  0.00000000000E+00 0. -1.
         -3   -1    0    0    0  501 -0.00000000000E+00 -0.00000000000E+00 -0.11004487874E+04  0.11004487874E+04  0.00000000000E+00 0.  1.
         25    2    1    2    0    0  0.98768730440E+01 -0.39365535736E+02 -0.59940078422E+03  0.61365782587E+03  0.12508968420E+03 0.  0.
          5    1    3    3  502    0  0.66084169399E+02 -0.81103158860E+01 -0.32719001062E+03  0.33392165267E+03  0.41800000000E+01 0.  1.
         -5    1    3    3    0  502 -0.56207296355E+02 -0.31255219850E+02 -0.27221077360E+03  0.27973617320E+03  0.41800000000E+01 0.  1.
        -11    1    1    2    0    0  0.37298120786E+02  0.37403349248E+02 -0.26016469561E+03  0.26547284078E+03  0.00000000000E+00 0.  1.
         11    1    1    2    0    0 -0.47174993830E+02  0.19621864883E+01 -0.22868907056E+03  0.23351235773E+03  0.00000000000E+00 0. -1.
</event>
<event>
 7    1  0.2728221E-009  0.1071782E+03  0.7561462E-02  0.1265887E+00
         -2   -1    0    0    0  501 -0.00000000000E+00  0.00000000000E+00  0.18075131007E+02  0.18075131007E+02  0.00000000000E+00 0.  1.
          2   -1    0    0  501    0  0.00000000000E+00 -0.00000000000E+00 -0.65869574387E+03  0.65869574387E+03  0.00000000000E+00 0. -1.
         25    2    1    2    0    0 -0.64341547032E+01 -0.34108262548E+01 -0.40485414414E+03  0.42380134310E+03  0.12509064035E+03 0.  0.
          5    1    3    3  502    0 -0.64749504186E+02 -0.98638716173E+01 -0.23799513335E+03  0.24687841168E+03  0.41800000000E+01 0.  1.
         -5    1    3    3    0  502  0.58315349482E+02  0.64530453625E+01 -0.16685901079E+03  0.17692293142E+03  0.41800000000E+01 0.  1.
        -11    1    1    2    0    0 -0.37757225982E+02  0.19971748274E+02 -0.87415656584E+02  0.97293246729E+02  0.00000000000E+00 0.  1.
         11    1    1    2    0    0  0.44191380685E+02 -0.16560922019E+02 -0.14835081214E+03  0.15567628505E+03  0.00000000000E+00 0. -1.
</event>
<event>
 7    1  0.2728221E-009  0.1149510E+03  0.7561462E-02  0.1251667E+00
          1   -1    0    0  501    0  0.00000000000E+00  0.00000000000E+00  0.72254096187E+02  0.72254096187E+02  0.00000000000E+00 0. -1.
         -1   -1    0    0    0  501 -0.00000000000E+00 -0.00000000000E+00 -0.30692128373E+03  0.30692128373E+03  0.00000000000E+00 0.  1.
         25    2    1    2    0    0 -0.76430145582E+02 -0.26818971473E+02 -0.20598313544E+03  0.25424783079E+03  0.12510828507E+03 0.  0.
          5    1    3    3  502    0 -0.10891906183E+03 -0.11442336349E+02 -0.17561073784E+03  0.20700457178E+03  0.41800000000E+01 0.  1.
         -5    1    3    3    0  502  0.32488916248E+02 -0.15376635123E+02 -0.30372397599E+02  0.47243259017E+02  0.41800000000E+01 0.  1.
        -11    1    1    2    0    0  0.14678668920E+02 -0.38418961279E+01 -0.50407579884E+02  0.52641690672E+02  0.00000000000E+00 0.  1.
         11    1    1    2    0    0  0.61751476662E+02  0.30660867600E+02  0.21723527786E+02  0.72285858447E+02  0.00000000000E+00 0. -1.
</event>
<event>
 7    1  0.2728221E-009  0.7438995E+02  0.7561462E-02  0.1345771E+00
         -2   -1    0    0    0  501 -0.00000000000E+00  0.00000000000E+00  0.18017402232E+03  0.18017402232E+03  0.00000000000E+00 0.  1.
          2   -1    0    0  501    0  0.00000000000E+00 -0.00000000000E+00 -0.10368159726E+03  0.10368159726E+03  0.00000000000E+00 0. -1.
         25    2    1    2    0    0 -0.10496285133E+02  0.56730245147E+01  0.14293198117E+03  0.19031346474E+03  0.12508920182E+03 0.  0.
          5    1    3    3  502    0 -0.17070018902E+02 -0.53296462251E+02  0.10699279242E+03  0.12081733512E+03  0.41800000000E+01 0. -1.
         -5    1    3    3    0  502  0.65737337690E+01  0.58969486766E+02  0.35939188748E+02  0.69496129625E+02  0.41800000000E+01 0. -1.
        -11    1    1    2    0    0 -0.41709313006E+01 -0.15151736642E+02 -0.73161000151E+02  0.74829831847E+02  0.00000000000E+00 0. -1.
         11    1    1    2    0    0  0.14667216433E+02  0.94787121274E+01  0.67214440376E+01  0.18712322984E+02  0.00000000000E+00 0.  1.
</event>
<event>
 7    1  0.2728221E-009  0.9323867E+02  0.7561462E-02  0.1295193E+00
         -1   -1    0    0    0  501 -0.00000000000E+00  0.00000000000E+00  0.47939039337E+03  0.47939039337E+03  0.00000000000E+00 0.  1.
          1   -1    0    0  501    0  0.00000000000E+00 -0.00000000000E+00 -0.39638308042E+02  0.39638308042E+02  0.00000000000E+00 0. -1.
         25    2    1    2    0    0  0.15287510226E+02 -0.49809702657E+02  0.36048696597E+03  0.38512644301E+03  0.12512717540E+03 0.  0.
          5    1    3    3  502    0  0.20285846858E+02  0.26224727868E+02  0.26834599525E+02  0.42858138856E+02  0.41800000000E+01 0. -1.
         -5    1    3    3    0  502 -0.49983366324E+01 -0.76034430525E+02  0.33365236645E+03  0.34226830416E+03  0.41800000000E+01 0. -1.
        -11    1    1    2    0    0 -0.32563995296E+02  0.11179912046E+02 -0.93713463756E+01  0.35682297514E+02  0.00000000000E+00 0. -1.
         11    1    1    2    0    0  0.17276485070E+02  0.38629790611E+02  0.88636465732E+02  0.98219960887E+02  0.00000000000E+00 0.  1.
</event>
<event>
 7    1  0.2728221E-009  0.8751989E+02  0.7561462E-02  0.1308971E+00
         -2   -1    0    0    0  501 -0.00000000000E+00  0.00000000000E+00  0.80822034052E+02  0.80822034052E+02  0.00000000000E+00 0.  1.
          2   -1    0    0  501    0  0.00000000000E+00 -0.00000000000E+00 -0.21087413639E+03  0.21087413639E+03  0.00000000000E+00 0. -1.
         25    2    1    2    0    0  0.97307569568E+01  0.58481802887E+02 -0.11480078175E+03  0.17984489726E+03  0.12510059425E+03 0.  0.
          5    1    3    3  502    0  0.41381401976E+02  0.23184347876E+02 -0.12268590782E+03  0.13160257898E+03  0.41800000000E+01 0.  1.
         -5    1    3    3    0  502 -0.31650645020E+02  0.35297455011E+02  0.78851260705E+01  0.48242318285E+02  0.41800000000E+01 0.  1.
        -11    1    1    2    0    0  0.29614417979E+01  0.98720678658E+01  0.28093032728E+02  0.29924009580E+02  0.00000000000E+00 0.  1.
         11    1    1    2    0    0 -0.12692198755E+02 -0.68353870753E+02 -0.43344353313E+02  0.81927263595E+02  0.00000000000E+00 0. -1.
</event>
<event>
 7    1  0.2728221E-009  0.1101125E+03  0.7561462E-02  0.1260362E+00
          2   -1    0    0  501    0  0.00000000000E+00  0.00000000000E+00  0.72107523920E+03  0.72107523920E+03  0.00000000000E+00 0. -1.
         -2   -1    0    0    0  501 -0.00000000000E+00 -0.00000000000E+00 -0.17998497747E+02  0.17998497747E+02  0.00000000000E+00 0.  1.
         25    2    1    2    0    0  0.23420185545E+02 -0.34726465779E+01  0.48412066066E+03  0.50058452655E+03  0.12510591422E+03 0.  0.
          5    1    3    3  502    0  0.57245866470E+01 -0.63409282230E+02  0.21475527237E+03  0.22403304974E+03  0.41800000000E+01 0.  1.
         -5    1    3    3    0  502  0.17695598898E+02  0.59936635653E+02  0.26936538829E+03  0.27655147680E+03  0.41800000000E+01 0.  1.
        -11    1    1    2    0    0 -0.50806131082E+02  0.27131437250E+02  0.14858159756E+03  0.15935453862E+03  0.00000000000E+00 0.  1.
         11    1    1    2    0    0  0.27385945537E+02 -0.23658790672E+02  0.70374483230E+02  0.79134671787E+02  0.00000000000E+00 0. -1.
</event>
<event>
 7    1  0.2728221E-009  0.2079185E+03  0.7561462E-02  0.1143225E+00
         -1   -1    0    0    0  501 -0.00000000000E+00  0.00000000000E+00  0.34605547302E+02  0.34605547302E+02  0.00000000000E+00 0.  1.
          1   -1    0    0  501    0  0.00000000000E+00 -0.00000000000E+00 -0.13955644251E+04  0.13955644251E+04  0.00000000000E+00 0. -1.
         25    2    1    2    0    0 -0.68398605967E+02  0.17655348463E+03 -0.77806063088E+03  0.81047812808E+03  0.12508776335E+03 0.  0.
          5    1    3    3  502    0  0.33743552289E+02  0.44333285101E+02 -0.26701502791E+03  0.27279766315E+03  0.41800000000E+01 0.  1.
         -5    1    3    3    0  502 -0.10214215826E+03  0.13222019953E+03 -0.51104560296E+03  0.53768046493E+03  0.41800000000E+01 0.  1.
        -11    1    1    2    0    0 -0.10600331801E+01 -0.36392168779E+02 -0.37345629351E+02  0.52155629134E+02  0.00000000000E+00 0. -1.
         11    1    1    2    0    0  0.69458639147E+02 -0.14016131585E+03 -0.54555261752E+03  0.56753621514E+03  0.00000000000E+00 0.  1.
</event>
<event>
 7    1  0.2728221E-009  0.1036116E+03  0.7561462E-02  0.1272879E+00
          2   -1    0    0  501    0  0.00000000000E+00  0.00000000000E+00  0.83174722937E+03  0.83174722937E+03  0.00000000000E+00 0. -1.
         -2   -1    0    0    0  501 -0.00000000000E+00 -0.00000000000E+00 -0.16526222386E+02  0.16526222386E+02  0.00000000000E+00 0.  1.
         25    2    1    2    0    0  0.24304159110E+01 -0.27883538556E+02  0.59867770808E+03  0.61224619756E+03  0.12508800757E+03 0.  0.
          5    1    3    3  502    0 -0.24243737335E+02  0.36214986013E+02  0.38621600078E+03  0.38868953635E+03  0.41800000000E+01 0. -1.
         -5    1    3    3    0  502  0.26674153246E+02 -0.64098524570E+02  0.21246170730E+03  0.22355666121E+03  0.41800000000E+01 0. -1.
        -11    1    1    2    0    0  0.23727161777E+02 -0.25260767890E+02  0.81900278081E+02  0.88931097768E+02  0.00000000000E+00 0.  1.
         11    1    1    2    0    0 -0.26157577688E+02  0.53144306446E+02  0.13464302083E+03  0.14709615643E+03  0.00000000000E+00 0. -1.
</event>
<event>
 7    1  0.2728221E-009  0.1486341E+03  0.7561462E-02  0.1202161E+00
         -2   -1    0    0    0  501 -0.00000000000E+00  0.00000000000E+00  0.46355389354E+02  0.46355389354E+02  0.00000000000E+00 0.  1.
          2   -1    0    0  501    0  0.00000000000E+00 -0.00000000000E+00 -0.60856138034E+03  0.60856138034E+03  0.00000000000E+00 0. -1.
         25    2    1    2    0    0  0.12538527318E+03 -0.19954005456E+02 -0.32973259556E+03  0.37482046726E+03  0.12508864471E+03 0.  0.
          5    1    3    3  502    0 -0.19174018627E+02  0.90385666728E+01 -0.12466380637E+02  0.24944372592E+02  0.41800000000E+01 0.  1.
         -5    1    3    3    0  502  0.14455929180E+03 -0.28992572129E+02 -0.31726621493E+03  0.34987609467E+03  0.41800000000E+01 0.  1.
        -11    1    1    2    0    0 -0.11349002911E+03  0.12616898175E+02 -0.23884391336E+03  0.26473682739E+03  0.00000000000E+00 0. -1.
         11    1    1    2    0    0 -0.11895244065E+02  0.73371072805E+01  0.63705179441E+01  0.15359475040E+02  0.00000000000E+00 0.  1.
</event>
<event>
 7    1  0.2728221E-009  0.9725703E+02  0.7561462E-02  0.1286172E+00
          2   -1    0    0  501    0  0.00000000000E+00  0.00000000000E+00  0.18447473434E+03  0.18447473434E+03  0.00000000000E+00 0. -1.
         -2   -1    0    0    0  501 -0.00000000000E+00 -0.00000000000E+00 -0.97376077631E+02  0.97376077631E+02  0.00000000000E+00 0.  1.
         25    2    1    2    0    0 -0.75680784467E+02 -0.18298680910E+02  0.61116050133E+02  0.15951277508E+03  0.12508689368E+03 0.  0.
          5    1    3    3  502    0 -0.54326829383E+02  0.94796143051E+01  0.95427140023E+02  0.11029541664E+03  0.41800000000E+01 0. -1.
         -5    1    3    3    0  502 -0.21353955084E+02 -0.27778295215E+02 -0.34311089890E+02  0.49217358445E+02  0.41800000000E+01 0. -1.
        -11    1    1    2    0    0 -0.31221440871E+01  0.24665712458E+02 -0.19077886293E+02  0.31338648665E+02  0.00000000000E+00 0.  1.
         11    1    1    2    0    0  0.78802928554E+02 -0.63670315474E+01  0.45060492867E+02  0.90999388222E+02  0.00000000000E+00 0. -1.
</event>
<event>
 7    1  0.2728221E-009  0.1115026E+03  0.7561462E-02  0.1257812E+00
          2   -1    0    0  501    0  0.00000000000E+00  0.00000000000E+00  0.84274786734E+02  0.84274786734E+02  0.00000000000E+00 0. -1.
         -2   -1    0    0    0  501 -0.00000000000E+00 -0.00000000000E+00 -0.17639403058E+03  0.17639403058E+03  0.00000000000E+00 0.  1.
         25    2    1    2    0    0 -0.38109416971E+02  0.27299679173E+02 -0.81472393560E+02  0.15646947545E+03  0.12508935082E+03 0.  0.
          5    1    3    3  502    0  0.15452054336E+02 -0.42546342819E+02 -0.26865490829E+02  0.52803260012E+02  0.41800000000E+01 0.  1.
         -5    1    3    3    0  502 -0.53561471306E+02  0.69846021992E+02 -0.54606902732E+02  0.10366621543E+03  0.41800000000E+01 0.  1.
        -11    1    1    2    0    0 -0.18793184034E+02 -0.26541790707E+02 -0.29845232299E+02  0.44140551776E+02  0.00000000000E+00 0.  1.
         11    1    1    2    0    0  0.56902601004E+02 -0.75788846617E+00  0.19198382009E+02  0.60058790095E+02  0.00000000000E+00 0. -1.
</event>
<event>
 7    1  0.2728221E-009  0.8280334E+02  0.7561462E-02  0.1321279E+00
         -2   -1    0    0    0  501 -0.00000000000E+00  0.00000000000E+00  0.61113325372E+03  0.61113325372E+03  0.00000000000E+00 0. -1.
          2   -1    0    0  501    0  0.00000000000E+00 -0.00000000000E+00 -0.19767871873E+02  0.19767871873E+02  0.00000000000E+00 0.  1.
         25    2    1    2    0    0 -0.55903079947E+01  0.38657509742E+01  0.31499730516E+03  0.33899360257E+03  0.12508862757E+03 0.  0.
          5    1    3    3  502    0  0.67735226821E+01  0.42730004580E+02  0.34436892715E+02  0.55453637219E+02  0.41800000000E+01 0.  1.
         -5    1    3    3    0  502 -0.12363830677E+02 -0.38864253606E+02  0.28056041245E+03  0.28353996535E+03  0.41800000000E+01 0.  1.
        -11    1    1    2    0    0  0.21518980468E+02  0.33902186255E+02  0.63515497022E+02  0.75144148908E+02  0.00000000000E+00 0. -1.
         11    1    1    2    0    0 -0.15928672473E+02 -0.37767937229E+02  0.21285257966E+03  0.21676337411E+03  0.00000000000E+00 0.  1.
</event>
<event>
 7    1  0.2728221E-009  0.1282102E+03  0.7561462E-02  0.1230136E+00
          2   -1    0    0  501    0  0.00000000000E+00  0.00000000000E+00  0.16569507495E+03  0.16569507495E+03  0.00000000000E+00 0. -1.
         -2   -1    0    0    0  501 -0.00000000000E+00 -0.00000000000E+00 -0.14381425756E+03  0.14381425756E+03  0.00000000000E+00 0.  1.
         25    2    1    2    0    0 -0.52482599006E+02 -0.95959015157E+02  0.20092467723E+02  0.16737186473E+03  0.12508828105E+03 0.  0.
          5    1    3    3  502    0 -0.31591248728E+02 -0.24598889393E+02 -0.50620080074E+02  0.64675940367E+02  0.41800000000E+01 0.  1.
         -5    1    3    3    0  502 -0.20891350278E+02 -0.71360125764E+02  0.70712547797E+02  0.10269592437E+03  0.41800000000E+01 0.  1.
        -11    1    1    2    0    0  0.68123122305E+02  0.30944814086E+02 -0.46038542317E+01  0.74963569720E+02  0.00000000000E+00 0. -1.
         11    1    1    2    0    0 -0.15640523299E+02  0.65014201071E+02  0.63922038928E+01  0.67173898060E+02  0.00000000000E+00 0.  1.
</event>
<event>
 6    1  0.2728221E-009  0.1016759E+03  0.7561462E-02  0.1276811E+00
         -2   -1    0    0    0  501 -0.00000000000E+00  0.00000000000E+00  0.42211227727E+03  0.42211227727E+03  0.00000000000E+00 0.  1.
          2   -1    0    0  501    0  0.00000000000E+00 -0.00000000000E+00 -0.28113664720E+02  0.28113664720E+02  0.00000000000E+00 0. -1.
          5    1    1    2  502    0  0.91883446700E+02 -0.29950632298E+02  0.20330128159E+03  0.22514104834E+03  0.41800000000E+01 0. -1.
         -5    1    1    2    0  502 -0.35444222577E+02  0.19280489796E+02  0.10633359267E+03  0.11380832804E+03  0.41800000000E+01 0. -1.
        -11    1    1    2    0    0 -0.37084681885E+02 -0.93122039324E+01  0.24904628025E+02  0.45631472359E+02  0.00000000000E+00 0. -1.
         11    1    1    2    0    0 -0.19354542239E+02  0.19982346434E+02  0.59459110266E+02  0.65645093250E+02  0.00000000000E+00 0.  1.
</event>
<event>
 7    1  0.2728221E-009  0.8535786E+02  0.7561462E-02  0.1314499E+00
          1   -1    0    0  501    0  0.00000000000E+00  0.00000000000E+00  0.10890593767E+02  0.10890593767E+02  0.00000000000E+00 0. -1.
         -1   -1    0    0    0  501 -0.00000000000E+00 -0.00000000000E+00 -0.13935304671E+04  0.13935304671E+04  0.00000000000E+00 0.  1.
         25    2    1    2    0    0  0.21959799574E+02  0.46826961521E+02 -0.95076475120E+03  0.96035224516E+03  0.12509126886E+03 0.  0.
          5    1    3    3  502    0 -0.25722174098E+01  0.43678247018E+02 -0.10018283628E+03  0.10940054227E+03  0.41800000000E+01 0.  1.
         -5    1    3    3    0  502  0.24532016984E+02  0.31487145038E+01 -0.85058191492E+03  0.85095170289E+03  0.41800000000E+01 0.  1.
        -11    1    1    2    0    0  0.12162873035E+02 -0.62825199848E+02 -0.30845859463E+03  0.31502642082E+03  0.00000000000E+00 0.  1.
         11    1    1    2    0    0 -0.34122672609E+02  0.15998238327E+02 -0.12341652753E+03  0.12904239490E+03  0.00000000000E+00 0. -1.
</event>
<event>
 7    1  0.2728221E-009  0.1599633E+03  0.7561462E-02  0.1188738E+00
         -2   -1    0    0    0  501 -0.00000000000E+00  0.00000000000E+00  0.43451690274E+02  0.43451690274E+02  0.00000000000E+00 0.  1.
          2   -1    0    0  501    0  0.00000000000E+00 -0.00000000000E+00 -0.62995693261E+03  0.62995693261E+03  0.00000000000E+00 0. -1.
         25    2    1    2    0    0  0.18417196927E+02  0.12322058936E+03 -0.31063606749E+03  0.35730165711E+03  0.12508877232E+03 0.  0.
          5    1    3    3  502    0 -0.66354722624E+01  0.13831328702E+03 -0.28960952541E+03  0.32103854047E+03  0.41800000000E+01 0. -1.
         -5    1    3    3    0  502  0.25052669190E+02 -0.15092697666E+02 -0.21026542083E+02  0.36263116638E+02  0.41800000000E+01 0. -1.
        -11    1    1    2    0    0  0.34738673067E+02 -0.59145022428E+02 -0.15319320769E+03  0.16784834812E+03  0.00000000000E+00 0. -1.
         11    1    1    2    0    0 -0.53155869994E+02 -0.64075566928E+02 -0.12267596715E+03  0.14825861765E+03  0.00000000000E+00 0.  1.
</event>
<event>
 7    1  0.5629597E-009  0.1357195E+03  0.7561462E-02  0.1219208E+00
          2   -1    0    0  501    0  0.00000000000E+00  0.00000000000E+00  0.10779485835E+04  0.10779485835E+04  0.00000000000E+00 0. -1.
         -2   -1    0    0    0  501 -0.00000000000E+00 -0.00000000000E+00 -0.19541767255E+02  0.19541767255E+02  0.00000000000E+00 0.  1.
         25    2    1    2    0    0  0.93491511934E+02  0.14176384419E+02  0.63767908321E+03  0.65667058243E+03  0.12506001753E+03 0.  0.
          5    1    3    3  502    0  0.49279205445E+02 -0.49283419321E+02  0.41673279819E+03  0.42254111398E+03  0.41800000000E+01 0.  1.
         -5    1    3    3    0  502  0.44212306489E+02  0.63459803739E+02  0.22094628502E+03  0.23412946845E+03  0.41800000000E+01 0.  1.
        -11    1    1    2    0    0 -0.62557335293E+02  0.30679861696E+02  0.16086895861E+03  0.17530971438E+03  0.00000000000E+00 0. -1.
         11    1    1    2    0    0 -0.30934176641E+02 -0.44856246114E+02  0.25985877447E+03  0.26551005399E+03  0.00000000000E+00 0.  1.
</event>
<event>
 7    1  0.2728221E-009  0.1023717E+03  0.7561462E-02  0.1275386E+00
          1   -1    0    0  501    0  0.00000000000E+00  0.00000000000E+00  0.29598591161E+03  0.29598591161E+03  0.00000000000E+00 0. -1.
         -1   -1    0    0    0  501 -0.00000000000E+00 -0.00000000000E+00 -0.62756554657E+02  0.62756554657E+02  0.00000000000E+00 0.  1.
         25    2    1    2    0    0 -0.17066783870E+02 -0.78159045195E+02  0.15302525533E+03  0.21322587041E+03  0.12509369123E+03 0.  0.
          5    1    3    3  502    0 -0.12510899534E+02 -0.82057665149E+02  0.17301493662E+03  0.19194171956E+03  0.41800000000E+01 0.  1.
         -5    1    3    3    0  502 -0.45558843365E+01  0.38986199544E+01 -0.19989681280E+02  0.21284150848E+02  0.41800000000E+01 0.  1.
        -11    1    1    2    0    0 -0.26950621578E+02  0.28599701105E+01  0.11358762677E+00  0.27102183208E+02  0.00000000000E+00 0. -1.
         11    1    1    2    0    0  0.44017405448E+02  0.75299075085E+02  0.80090513988E+02  0.11841441264E+03  0.00000000000E+00 0.  1.
</event>
<event>
 7    1  0.2728221E-009  0.9344492E+02  0.7561462E-02  0.1294717E+00
         -1   -1    0    0    0  501 -0.00000000000E+00  0.00000000000E+00  0.10039977017E+03  0.10039977017E+03  0.00000000000E+00 0.  1.
          1   -1    0    0  501    0  0.00000000000E+00 -0.00000000000E+00 -0.13372788899E+03  0.13372788899E+03  0.00000000000E+00 0. -1.
         25    2    1    2    0    0 -0.30582456951E+02  0.11370369406E+02  0.15243780041E+02  0.13017549255E+03  0.12509482027E+03 0.  0.
          5    1    3    3  502    0 -0.12452521882E+02 -0.51803338046E+02  0.31907856959E+02  0.62243352012E+02  0.41800000000E+01 0. -1.
         -5    1    3    3    0  502 -0.18129935069E+02  0.63173707453E+02 -0.16664076918E+02  0.67932140541E+02  0.41800000000E+01 0. -1.
        -11    1    1    2    0    0 -0.11778446180E+02  0.13935639749E+02 -0.51384491941E+02  0.54527973203E+02  0.00000000000E+00 0. -1.
         11    1    1    2    0    0  0.42360903131E+02 -0.25306009155E+02  0.28125930864E+01  0.49424193401E+02  0.00000000000E+00 0.  1.
</event>
<event>
 7    1  0.2728221E-009  0.1252319E+03  0.7561462E-02  0.1234707E+00
         -2   -1    0    0    0  501 -0.00000000000E+00  0.00000000000E+00  0.17601152253E+02  0.17601152253E+02  0.00000000000E+00 0.  1.
          2   -1    0    0  501    0  0.00000000000E+00 -0.00000000000E+00 -0.10669687258E+04  0.10669687258E+04  0.00000000000E+00 0. -1.
         25    2    1    2    0    0 -0.22968291472E+02  0.62161767447E+02 -0.78347341428E+03  0.79615901867E+03  0.12508782668E+03 0.  0.
          5    1    3    3  502    0  0.37246655864E+02 -0.16636828565E+02 -0.28088687053E+03  0.28386441108E+03  0.41800000000E+01 0. -1.
         -5    1    3    3    0  502 -0.60214947336E+02  0.78798596012E+02 -0.50258654375E+03  0.51229460760E+03  0.41800000000E+01 0. -1.
        -11    1    1    2    0    0  0.64199866151E+00  0.22566957275E+02 -0.37310640982E+02  0.43609215235E+02  0.00000000000E+00 0.  1.
         11    1    1    2    0    0  0.22326292810E+02 -0.84728724722E+02 -0.22858351825E+03  0.24480164411E+03  0.00000000000E+00 0. -1.
</event>
<event>
 7    1  0.2728221E-009  0.2336047E+03  0.7561462E-02  0.1124128E+00
         -2   -1    0    0    0  501 -0.00000000000E+00  0.00000000000E+00  0.12506665444E+03  0.12506665444E+03  0.00000000000E+00 0.  1.
          2   -1    0    0  501    0  0.00000000000E+00 -0.00000000000E+00 -0.48119235786E+03  0.48119235786E+03  0.00000000000E+00 0. -1.
         25    2    1    2    0    0 -0.36202101470E+02 -0.21352379203E+03 -0.13858446432E+03  0.28592985076E+03  0.12508886397E+03 0.  0.
          5    1    3    3  502    0  0.10271938894E+02 -0.17947384096E+03 -0.14040177300E+03  0.22813702588E+03  0.41800000000E+01 0. -1.
         -5    1    3    3    0  502 -0.46474040364E+02 -0.34049951076E+02  0.18173086854E+01  0.57792824874E+02  0.41800000000E+01 0. -1.
        -11    1    1    2    0    0  0.58677216387E+02  0.12187624703E+03 -0.93328893012E+02  0.16433842394E+03  0.00000000000E+00 0.  1.
         11    1    1    2    0    0 -0.22475114917E+02  0.91647544999E+02 -0.12421234610E+03  0.15599073760E+03  0.00000000000E+00 0. -1.
</event>
<event>
 7    1  0.2728221E-009  0.1102742E+03  0.7561462E-02  0.1260063E+00
         -2   -1    0    0    0  501 -0.00000000000E+00  0.00000000000E+00  0.11771574481E+02  0.11771574481E+02  0.00000000000E+00 0.  1.
          2   -1    0    0  501    0  0.00000000000E+00 -0.00000000000E+00 -0.11865795772E+04  0.11865795772E+04  0.00000000000E+00 0. -1.
         25    2    1    2    0    0 -0.26137109643E+01 -0.23091647219E+02 -0.85973021383E+03  0.86909347362E+03  0.12508944662E+03 0.  0.
          5    1    3    3  502    0 -0.13140671841E+01 -0.74395131151E+02 -0.44800398365E+03  0.45416010842E+03  0.41800000000E+01 0. -1.
         -5    1    3    3    0  502 -0.12996437801E+01  0.51303483932E+02 -0.41172623018E+03  0.41493336520E+03  0.41800000000E+01 0. -1.
        -11    1    1    2    0    0 -0.11164960417E+02 -0.34009054100E+02 -0.96502886846E+02  0.10292754379E+03  0.00000000000E+00 0.  1.
         11    1    1    2    0    0  0.13778671381E+02  0.57100701319E+02 -0.21857490207E+03  0.22633013430E+03  0.00000000000E+00 0. -1.
</event>
<event>
 7    1  0.2728221E-009  0.1286509E+03  0.7561462E-02  0.1229471E+00
         -1   -1    0    0    0  501 -0.00000000000E+00  0.00000000000E+00  0.63754137109E+02  0.63754137109E+02  0.00000000000E+00 0.  1.
          1   -1    0    0  501    0  0.00000000000E+00 -0.00000000000E+00 -0.29268722299E+03  0.29268722299E+03  0.00000000000E+00 0. -1.
         25    2    1    2    0    0  0.63156970143E+02 -0.35256962989E+02 -0.17244810332E+03  0.22498443906E+03  0.12509113942E+03 0.  0.
          5    1    3    3  502    0  0.59072538126E+02  0.37490470687E+02 -0.68751540268E+02  0.98180175403E+02  0.41800000000E+01 0.  1.
         -5    1    3    3    0  502  0.40844320177E+01 -0.72747433677E+02 -0.10369656305E+03  0.12680426365E+03  0.41800000000E+01 0.  1.
        -11    1    1    2    0    0 -0.15640835591E+02  0.59052560100E+02 -0.47894666942E+02  0.77625638250E+02  0.00000000000E+00 0.  1.
         11    1    1    2    0    0 -0.47516134552E+02 -0.23795597111E+02 -0.85903156174E+01  0.53831282792E+02  0.00000000000E+00 0. -1.
</event>
<event>
 7    1  0.2728221E-009  0.3464474E+03  0.7561462E-02  0.1064083E+00
          2   -1    0    0  501    0  0.00000000000E+00  0.00000000000E+00  0.94465546199E+03  0.94465546199E+03  0.00000000000E+00 0. -1.
         -2   -1    0    0    0  501 -0.00000000000E+00 -0.00000000000E+00 -0.13379632833E+03  0.13379632833E+03  0.00000000000E+00 0.  1.
         25    2    1    2    0    0 -0.27987582992E+03  0.18590337857E+03  0.46837758216E+03  0.58984481573E+03  0.12509516714E+03 0.  0.
          5    1    3    3  502    0 -0.44488584800E+01 -0.14729931525E+02  0.35556710377E+02  0.38968131561E+02  0.41800000000E+01 0. -1.
         -5    1    3    3    0  502 -0.27542697144E+03  0.20063331009E+03  0.43282087179E+03  0.55087668417E+03  0.41800000000E+01 0. -1.
        -11    1    1    2    0    0  0.24279030347E+03 -0.16561933390E+03  0.24597864013E+03  0.38325237980E+03  0.00000000000E+00 0.  1.
         11    1    1    2    0    0  0.37085526446E+02 -0.20284044667E+02  0.96502911366E+02  0.10535459478E+03  0.00000000000E+00 0. -1.
</event>
<event>
 7    1  0.2728221E-009  0.1171707E+03  0.7561462E-02  0.1247839E+00
         -1   -1    0    0    0  501 -0.00000000000E+00  0.00000000000E+00  0.56153748397E+02  0.56153748397E+02  0.00000000000E+00 0.  1.
          1   -1    0    0  501    0  0.00000000000E+00 -0.00000000000E+00 -0.41062581293E+03  0.41062581293E+03  0.00000000000E+00 0. -1.
         25    2    1    2    0    0 -0.59642621688E+02 -0.87346484864E+02 -0.19212330899E+03  0.25248153806E+03  0.12509560528E+03 0.  0.
          5    1    3    3  502    0 -0.19998831714E+02 -0.39308932643E+02  0.60467846101E+01  0.44712207054E+02  0.41800000000E+01 0.  1.
         -5    1    3    3    0  502 -0.39643789974E+02 -0.48037552221E+02 -0.19817009360E+03  0.20776933100E+03  0.41800000000E+01 0.  1.
        -11    1    1    2    0    0  0.19222375039E+02 -0.10390525738E+02 -0.71849726035E+02  0.75098907173E+02  0.00000000000E+00 0. -1.
         11    1    1    2    0    0  0.40420246649E+02  0.97737010602E+02 -0.90499029502E+02  0.13919911609E+03  0.00000000000E+00 0.  1.
</event>
<event>
 7    1  0.2728221E-009  0.1169133E+03  0.7561462E-02  0.1248278E+00
          1   -1    0    0  501    0  0.00000000000E+00  0.00000000000E+00  0.34964700274E+02  0.34964700274E+02  0.00000000000E+00 0. -1.
         -1   -1    0    0    0  501 -0.00000000000E+00 -0.00000000000E+00 -0.80817028073E+03  0.80817028073E+03  0.00000000000E+00 0.  1.
         25    2    1    2    0    0  0.53356551145E+02  0.80605931408E+02 -0.20588483888E+03  0.25957799602E+03  0.12509169201E+03 0.  0.
          5    1    3    3  502    0  0.39926114302E+02  0.40105277153E+02 -0.82444664340E+01  0.57340836108E+02  0.41800000000E+01 0. -1.
         -5    1    3    3    0  502  0.13430436844E+02  0.40500654255E+02 -0.19764037245E+03  0.20223715992E+03  0.41800000000E+01 0. -1.
        -11    1    1    2    0    0  0.26913681143E+02 -0.17516761580E+02 -0.93471986322E+02  0.98834181313E+02  0.00000000000E+00 0.  1.
         11    1    1    2    0    0 -0.80270232289E+02 -0.63089169827E+02 -0.47384875525E+03  0.48472280367E+03  0.00000000000E+00 0. -1.
</event>
<event>
 7    1  0.2728221E-009  0.1475237E+03  0.7561462E-02  0.1203549E+00
          1   -1    0    0  501    0  0.00000000000E+00  0.00000000000E+00  0.91034597940E+03  0.91034597940E+03  0.00000000000E+00 0. -1.
         -1   -1    0    0    0  501 -0.00000000000E+00 -0.00000000000E+00 -0.28780625578E+02  0.28780625578E+02  0.00000000000E+00 0.  1.
         25    2    1    2    0    0 -0.66559213611E+01  0.11629751425E+03  0.37885455717E+03  0.41562905898E+03  0.12508927240E+03 0.  0.
          5    1    3    3  502    0  0.43851195232E+02  0.38716352572E+02  0.61323770464E+02  0.84852581007E+02  0.41800000000E+01 0. -1.
         -5    1    3    3    0  502 -0.50507116593E+02  0.77581161675E+02  0.31753078670E+03  0.33077647797E+03  0.41800000000E+01 0. -1.
        -11    1    1    2    0    0 -0.29770881269E+02 -0.99055309216E+02  0.31638012104E+03  0.33285828913E+03  0.00000000000E+00 0. -1.
         11    1    1    2    0    0  0.36426802630E+02 -0.17242205031E+02  0.18633067562E+03  0.19063925688E+03  0.00000000000E+00 0.  1.
</event>
<event>
 7    1  0.2728221E-009  0.1625837E+03  0.7561462E-02  0.1185810E+00
          2   -1    0    0  501    0  0.00000000000E+00  0.00000000000E+00  0.33520221874E+03  0.33520221874E+03  0.00000000000E+00 0. -1.
         -2   -1    0    0    0  501 -0.00000000000E+00 -0.00000000000E+00 -0.13142942194E+03  0.13142942194E+03  0.00000000000E+00 0.  1.
         25    2    1    2    0    0  0.13883194166E+03  0.98308118881E+01 -0.20964341695E+02  0.18830360980E+03  0.12509113860E+03 0.  0.
          5    1    3    3  502    0  0.81918125130E+01 -0.33126266096E+02 -0.36144906174E+02  0.49883684107E+02  0.41800000000E+01 0. -1.
         -5    1    3    3    0  502  0.13064012915E+03  0.42957077984E+02  0.15180564480E+02  0.13841992570E+03  0.41800000000E+01 0. -1.
        -11    1    1    2    0    0 -0.93068759328E+02  0.24211881900E+02  0.18597257342E+03  0.20936524844E+03  0.00000000000E+00 0.  1.
         11    1    1    2    0    0 -0.45763182330E+02 -0.34042693789E+02  0.38764565066E+02  0.68962782442E+02  0.00000000000E+00 0. -1.
</event>
<event>
 7    1  0.2728221E-009  0.1466573E+03  0.7561462E-02  0.1204642E+00
         -1   -1    0    0    0  501 -0.00000000000E+00  0.00000000000E+00  0.76387145907E+02  0.76387145907E+02  0.00000000000E+00 0.  1.
          1   -1    0    0  501    0  0.00000000000E+00 -0.00000000000E+00 -0.35368125504E+03  0.35368125504E+03  0.00000000000E+00 0. -1.
         25    2    1    2    0    0  0.57351927667E+02  0.10669095560E+03 -0.11348037048E+03  0.20783979596E+03  0.12508949871E+03 0.  0.
          5    1    3    3  502    0  0.79308782276E+02  0.74356228081E+02 -0.12610969254E+03  0.16655287014E+03  0.41800000000E+01 0.  1.
         -5    1    3    3    0  502 -0.21956854609E+02  0.32334727515E+02  0.12629322058E+02  0.41286925817E+02  0.41800000000E+01 0.  1.
        -11    1    1    2    0    0  0.18164083081E+02 -0.55563737063E+01 -0.45175606340E+02  0.49006556818E+02  0.00000000000E+00 0.  1.
         11    1    1    2    0    0 -0.75516010748E+02 -0.10113458189E+03 -0.11863813231E+03  0.17322204817E+03  0.00000000000E+00 0. -1.
</event>
<event>
 7    1  0.2728221E-009  0.1078184E+03  0.7561462E-02  0.1264664E+00
         -1   -1    0    0    0  501 -0.00000000000E+00  0.00000000000E+00  0.97708045719E+02  0.97708045719E+02  0.00000000000E+00 0.  1.
          1   -1    0    0  501    0  0.00000000000E+00 -0.00000000000E+00 -0.20225335034E+03  0.20225335034E+03  0.00000000000E+00 0. -1.
         25    2    1    2    0    0  0.20861265581E+02 -0.74551088303E+02 -0.10435105303E+03  0.18035955117E+03  0.12508944104E+03 0.  0.
          5    1    3    3  502    0 -0.20420656579E+01 -0.73038162163E+02  0.25160885330E+00  0.73186603087E+02  0.41800000000E+01 0. -1.
         -5    1    3    3    0  502  0.22903331239E+02 -0.15129261392E+01 -0.10460266189E+03  0.10717294808E+03  0.41800000000E+01 0. -1.
        -11    1    1    2    0    0  0.18974673442E+02 -0.12953378876E+02 -0.42796083992E+01  0.23369709125E+02  0.00000000000E+00 0.  1.
         11    1    1    2    0    0 -0.39835939023E+02  0.87504467179E+02  0.40853568065E+01  0.96232135767E+02  0.00000000000E+00 0. -1.
</event>
<event>
 7    1  0.2728221E-009  0.1317969E+03  0.7561462E-02  0.1224814E+00
          1   -1    0    0  501    0  0.00000000000E+00  0.00000000000E+00  0.19625138781E+03  0.19625138781E+03  0.00000000000E+00 0. -1.
         -1   -1    0    0    0  501 -0.00000000000E+00 -0.00000000000E+00 -0.12566035107E+03  0.12566035107E+03  0.00000000000E+00 0.  1.
         25    2    1    2    0    0  0.70559845367E+02 -0.71056955846E+02  0.93383440786E+02  0.18546070518E+03  0.12508966144E+03 0.  0.
          5    1    3    3  502    0 -0.24428127226E+02 -0.36289278418E+02 -0.50803028474E+01  0.44237167686E+02  0.41800000000E+01 0.  1.
         -5    1    3    3    0  502  0.94987972593E+02 -0.34767677428E+02  0.98463743634E+02  0.14122353749E+03  0.41800000000E+01 0.  1.
        -11    1    1    2    0    0 -0.78699681591E+02  0.44015486003E+02  0.12735283145E+02  0.91066955189E+02  0.00000000000E+00 0. -1.
         11    1    1    2    0    0  0.81398362240E+01  0.27041469843E+02 -0.35527687195E+02  0.45384078513E+02  0.00000000000E+00 0.  1.
</event>
<event>
 7    1  0.2728221E-009  0.1074751E+03  0.7561462E-02  0.1265318E+00
          1   -1    0    0  501    0  0.00000000000E+00  0.00000000000E+00  0.91387528584E+03  0.91387528584E+03  0.00000000000E+00 0. -1.
         -1   -1    0    0    0  501 -0.00000000000E+00 -0.00000000000E+00 -0.15933055590E+02  0.15933055590E+02  0.00000000000E+00 0.  1.
         25    2    1    2    0    0  0.13896351943E+02 -0.48940604444E+02  0.46840767240E+03  0.48748505351E+03  0.12509052109E+03 0.  0.
          5    1    3    3  502    0 -0.30714798453E+02  0.13969435334E+02  0.41511793571E+02  0.53658600178E+02  0.41800000000E+01 0.  1.
         -5    1    3    3    0  502  0.44611150396E+02 -0.62910039778E+02  0.42689587883E+03  0.43382645333E+03  0.41800000000E+01 0.  1.
        -11    1    1    2    0    0  0.19932467242E+02  0.63744573973E+02  0.23458413255E+03  0.24390651735E+03  0.00000000000E+00 0.  1.
         11    1    1    2    0    0 -0.33828819185E+02 -0.14803969529E+02  0.19495042530E+03  0.19841677058E+03  0.00000000000E+00 0. -1.
</event>
<event>
 7    1  0.2728221E-009  0.1526596E+03  0.7561462E-02  0.1197242E+00
          2   -1    0    0  501    0  0.00000000000E+00  0.00000000000E+00  0.66460529758E+03  0.66460529758E+03  0.00000000000E+00 0. -1.
         -2   -1    0    0    0  501 -0.00000000000E+00 -0.00000000000E+00 -0.63027681229E+02  0.63027681229E+02  0.00000000000E+00 0.  1.
         25    2    1    2    0    0  0.11105521286E+03  0.30811366376E+02  0.85176094032E+02  0.19021909978E+03  0.12508292579E+03 0.  0.
          5    1    3    3  502    0  0.13533829959E+03  0.20646422598E+02  0.88923839283E+02  0.16330233218E+03  0.41800000000E+01 0. -1.
         -5    1    3    3    0  502 -0.24283086735E+02  0.10164943778E+02 -0.37477452514E+01  0.26916767597E+02  0.41800000000E+01 0. -1.
        -11    1    1    2    0    0 -0.85934264252E+02  0.17081411869E+02  0.23365753938E+03  0.24954422075E+03  0.00000000000E+00 0.  1.
         11    1    1    2    0    0 -0.25120948605E+02 -0.47892778245E+02  0.28274398295E+03  0.28786965828E+03  0.00000000000E+00 0. -1.
</event>
<event>
 7    1  0.2728221E-009  0.9107399E+02  0.7561462E-02  0.1300272E+00
          2   -1    0    0  501    0  0.00000000000E+00  0.00000000000E+00  0.13295254504E+03  0.13295254504E+03  0.00000000000E+00 0.  1.
         -2   -1    0    0    0  501 -0.00000000000E+00 -0.00000000000E+00 -0.94334500670E+02  0.94334500670E+02  0.00000000000E+00 0. -1.
         25    2    1    2    0    0  0.19081557353E+02  0.18991447400E+02  0.20342439903E+02  0.12955931066E+03  0.12508804584E+03 0.  0.
          5    1    3    3  502    0  0.24216692152E+02 -0.39106717358E+02 -0.27720506341E+02  0.53867266434E+02  0.41800000000E+01 0. -1.
         -5    1    3    3    0  502 -0.51351347997E+01  0.58098164758E+02  0.48062946244E+02  0.75692044227E+02  0.41800000000E+01 0. -1.
        -11    1    1    2    0    0 -0.28736234603E+02 -0.42938184544E+02  0.38906838403E+02  0.64677669605E+02  0.00000000000E+00 0.  1.
         11    1    1    2    0    0  0.96546772500E+01  0.23946737143E+02 -0.20631233932E+02  0.33050065449E+02  0.00000000000E+00 0. -1.
</event>
<event>
 6    1  0.2728221E-009  0.1186262E+03  0.7561462E-02  0.1245381E+00
          2   -1    0    0  501    0  0.00000000000E+00  0.00000000000E+00  0.57424941543E+02  0.57424941543E+02  0.00000000000E+00 0. -1.
         -2   -1    0    0    0  501 -0.00000000000E+00 -0.00000000000E+00 -0.40885503461E+03  0.40885503461E+03  0.00000000000E+00 0.  1.
          5    1    1    2  502    0  0.22388522652E+02  0.46968366166E+02 -0.23714705501E+03  0.24282395159E+03  0.41800000000E+01 0.  1.
         -5    1    1    2    0  502  0.25601502185E+02  0.43089843840E+02 -0.82830358746E+01  0.50973057977E+02  0.41800000000E+01 0.  1.
        -11    1    1    2    0    0  0.24969029864E+02 -0.36617418175E+02 -0.23979096070E+02  0.50391316856E+02  0.00000000000E+00 0. -1.
         11    1    1    2    0    0 -0.72959054700E+02 -0.53440791831E+02 -0.82020906117E+02  0.12209164973E+03  0.00000000000E+00 0.  1.
</event>
<event>
 7    1  0.2728221E-009  0.9515238E+02  0.7561462E-02  0.1290833E+00
          4   -1    0    0  501    0  0.00000000000E+00  0.00000000000E+00  0.89716821044E+02  0.89716821044E+02  0.00000000000E+00 0. -1.
         -4   -1    0    0    0  501 -0.00000000000E+00 -0.00000000000E+00 -0.14822590129E+03  0.14822590129E+03  0.00000000000E+00 0.  1.
         25    2    1    2    0    0 -0.23421562977E+02  0.24073949992E+02 -0.57863404135E+02  0.14185961855E+03  0.12509137923E+03 0.  0.
          5    1    3    3  502    0 -0.83419140039E+01 -0.51314199846E+02 -0.28667389249E+02  0.59514924527E+02  0.41800000000E+01 0. -1.
         -5    1    3    3    0  502 -0.15079648974E+02  0.75388149838E+02 -0.29196014886E+02  0.82344694026E+02  0.41800000000E+01 0. -1.
        -11    1    1    2    0    0  0.58271044847E+01  0.16193795606E+02  0.35325064080E+02  0.39294456543E+02  0.00000000000E+00 0. -1.
         11    1    1    2    0    0  0.17594458493E+02 -0.40267745597E+02 -0.35970740190E+02  0.56788647237E+02  0.00000000000E+00 0.  1.
</event>
<event>
 7    1  0.2728221E-009  0.7569948E+02  0.7561462E-02  0.1341719E+00
         -1   -1    0    0    0  501 -0.00000000000E+00  0.00000000000E+00  0.37572050009E+03  0.37572050009E+03  0.00000000000E+00 0.  1.
          1   -1    0    0  501    0  0.00000000000E+00 -0.00000000000E+00 -0.34506058032E+02  0.34506058032E+02  0.00000000000E+00 0. -1.
         25    2    1    2    0    0  0.14845691474E+01 -0.33550229954E+02  0.18463481131E+03  0.22553130583E+03  0.12508610829E+03 0.  0.
          5    1    3    3  502    0  0.46465437457E+02 -0.15234431111E+02  0.16639899986E+03  0.17348551618E+03  0.41800000000E+01 0. -1.
         -5    1    3    3    0  502 -0.44980868310E+02 -0.18315798843E+02  0.18235811450E+02  0.52045789651E+02  0.41800000000E+01 0. -1.
        -11    1    1    2    0    0  0.26380498774E+01  0.43096201389E+02  0.16547258651E+03  0.17101291988E+03  0.00000000000E+00 0.  1.
         11    1    1    2    0    0 -0.41226190248E+01 -0.95459714347E+01 -0.88929557547E+01  0.13682332415E+02  0.00000000000E+00 0. -1.
</event>
<event>
 7    1  0.2728221E-009  0.1178606E+03  0.7561462E-02  0.1246669E+00
         -1   -1    0    0    0  501 -0.00000000000E+00  0.00000000000E+00  0.26178237157E+02  0.26178237157E+02  0.00000000000E+00 0.  1.
          1   -1    0    0  501    0  0.00000000000E+00 -0.00000000000E+00 -0.69947812156E+03  0.69947812156E+03  0.00000000000E+00 0. -1.
         25    2    1    2    0    0 -0.89958417882E+01  0.70794132940E+02 -0.27165302899E+03  0.30746661051E+03  0.12509042327E+03 0.  0.
          5    1    3    3  502    0  0.34388893695E+02  0.68121169331E+02 -0.78959180544E+02  0.10988682502E+03  0.41800000000E+01 0.  1.
         -5    1    3    3    0  502 -0.43384735483E+02  0.26729636092E+01 -0.19269384845E+03  0.19757978549E+03  0.41800000000E+01 0.  1.
        -11    1    1    2    0    0  0.49600609502E+02 -0.48199613826E+02 -0.26409079670E+03  0.27299701855E+03  0.00000000000E+00 0.  1.
         11    1    1    2    0    0 -0.40604767713E+02 -0.22594519115E+02 -0.13755605872E+03  0.14519272965E+03  0.00000000000E+00 0. -1.
</event>
<event>
 7    1  0.2728221E-009  0.1546694E+03  0.7561462E-02  0.1194850E+00
         -1   -1    0    0    0  501 -0.00000000000E+00  0.00000000000E+00  0.18987011245E+02  0.18987011245E+02  0.00000000000E+00 0.  1.
          1   -1    0    0  501    0  0.00000000000E+00 -0.00000000000E+00 -0.16693153691E+04  0.16693153691E+04  0.00000000000E+00 0. -1.
         25    2    1    2    0    0  0.33955981393E+02  0.12717333086E+03 -0.11023178846E+04  0.11171740337E+04  0.12508812180E+03 0.  0.
          5    1    3    3  502    0  0.13002448533E+01  0.11945879879E+03 -0.50720257580E+03  0.52109885870E+03  0.41800000000E+01 0.  1.
         -5    1    3    3    0  502  0.32655736539E+02  0.77145320668E+01 -0.59511530877E+03  0.59607517501E+03  0.41800000000E+01 0.  1.
        -11    1    1    2    0    0  0.28167268929E+02 -0.41676590090E+02 -0.24793688798E+03  0.25298820846E+03  0.00000000000E+00 0. -1.
         11    1    1    2    0    0 -0.62123250322E+02 -0.85496740767E+02 -0.30007358528E+03  0.31814013814E+03  0.00000000000E+00 0.  1.
</event>
<event>
 7    1  0.2728221E-009  0.1415722E+03  0.7561462E-02  0.1211229E+00
         -2   -1    0    0    0  501 -0.00000000000E+00  0.00000000000E+00  0.17209797074E+03  0.17209797074E+03  0.00000000000E+00 0.  1.
          2   -1    0    0  501    0  0.00000000000E+00 -0.00000000000E+00 -0.20880090801E+03  0.20880090801E+03  0.00000000000E+00 0. -1.
         25    2    1    2    0    0  0.25958790765E+02 -0.11108233818E+03  0.85336570200E+02  0.18958587122E+03  0.12508927883E+03 0.  0.
          5    1    3    3  502    0  0.59782644376E+02 -0.54019244210E+02 -0.92620748083E+00  0.80686886009E+02  0.41800000000E+01 0.  1.
         -5    1    3    3    0  502 -0.33823853611E+02 -0.57063093973E+02  0.86262777681E+02  0.10889898521E+03  0.41800000000E+01 0.  1.
        -11    1    1    2    0    0  0.16639179196E+02  0.83743865889E+02 -0.11006659154E+03  0.13930022230E+03  0.00000000000E+00 0. -1.
         11    1    1    2    0    0 -0.42597969962E+02  0.27338472294E+02 -0.11972915930E+02  0.52012785237E+02  0.00000000000E+00 0.  1.
</event>
<event>
 7    1  0.2728221E-009  0.9571818E+02  0.7561462E-02  0.1289567E+00
         -1   -1    0    0    0  501 -0.00000000000E+00  0.00000000000E+00  0.15673138455E+03  0.15673138455E+03  0.00000000000E+00 0.  1.
          1   -1    0    0  501    0  0.00000000000E+00 -0.00000000000E+00 -0.14885430948E+03  0.14885430948E+03  0.00000000000E+00 0. -1.
         25    2    1    2    0    0  0.55747550502E+01 -0.90846637250E+02 -0.52573448693E+02  0.16338876233E+03  0.12509088998E+03 0.  0.
          5    1    3    3  502    0  0.91053031353E+01 -0.72308606809E+02 -0.93207697851E+02  0.11839167413E+03  0.41800000000E+01 0.  1.
         -5    1    3    3    0  502 -0.35305480851E+01 -0.18538030441E+02  0.40634249158E+02  0.44997088207E+02  0.41800000000E+01 0.  1.
        -11    1    1    2    0    0  0.15799420703E+02  0.22468279502E+02  0.64843664991E+02  0.70421205385E+02  0.00000000000E+00 0.  1.
         11    1    1    2    0    0 -0.21374175753E+02  0.68378357748E+02 -0.43931412218E+01  0.71775726309E+02  0.00000000000E+00 0. -1.
</event>
<event>
 7    1  0.2728221E-009  0.2373793E+03  0.7561462E-02  0.1121551E+00
          1   -1    0    0  501    0  0.00000000000E+00  0.00000000000E+00  0.22074686744E+04  0.22074686744E+04  0.00000000000E+00 0. -1.
         -1   -1    0    0    0  501 -0.00000000000E+00 -0.00000000000E+00 -0.27162441795E+02  0.27162441795E+02  0.00000000000E+00 0.  1.
         25    2    1    2    0    0  0.16547601286E+03 -0.13825887109E+03  0.13143064703E+04  0.13377395278E+04  0.12509084714E+03 0.  0.
          5    1    3    3  502    0  0.14669621122E+03 -0.49122154458E+02  0.71693365163E+03  0.73344672451E+03  0.41800000000E+01 0. -1.
         -5    1    3    3    0  502  0.18779801632E+02 -0.89136716628E+02  0.59737281870E+03  0.60429280330E+03  0.41800000000E+01 0. -1.
        -11    1    1    2    0    0 -0.11407586548E+03  0.13579458754E+03  0.58779883792E+03  0.61397145451E+03  0.00000000000E+00 0.  1.
         11    1    1    2    0    0 -0.51400147378E+02  0.24642835475E+01  0.27820092434E+03  0.28292013387E+03  0.00000000000E+00 0. -1.
</event>
<event>
 7    1  0.2728221E-009  0.7453286E+02  0.7561462E-02  0.1345324E+00
          1   -1    0    0  501    0  0.00000000000E+00  0.00000000000E+00  0.57398865957E+03  0.57398865957E+03  0.00000000000E+00 0. -1.
         -1   -1    0    0    0  501 -0.00000000000E+00 -0.00000000000E+00 -0.24758169913E+02  0.24758169913E+02  0.00000000000E+00 0.  1.
         25    2    1    2    0    0  0.44019583526E+02  0.11337091209E+02  0.35147601253E+03  0.37583116310E+03  0.12508965744E+03 0.  0.
          5    1    3    3  502    0  0.42998262971E+02  0.94583797431E+01  0.28047065664E+02  0.52368137815E+02  0.41800000000E+01 0. -1.
         -5    1    3    3    0  502  0.10213205548E+01  0.18787114656E+01  0.32342894687E+03  0.32346302528E+03  0.41800000000E+01 0. -1.
        -11    1    1    2    0    0 -0.11572318102E+02 -0.49049633118E+02  0.73953425150E+02  0.89492425080E+02  0.00000000000E+00 0.  1.
         11    1    1    2    0    0 -0.32447265424E+02  0.37712541909E+02  0.12380105197E+03  0.13342324131E+03  0.00000000000E+00 0. -1.
</event>
<event>
 7    1  0.2728221E-009  0.1891988E+03  0.7561462E-02  0.1159186E+00
          2   -1    0    0  501    0  0.00000000000E+00  0.00000000000E+00  0.59352200972E+03  0.59352200972E+03  0.00000000000E+00 0. -1.
         -2   -1    0    0    0  501 -0.00000000000E+00 -0.00000000000E+00 -0.81080098168E+02  0.81080098168E+02  0.00000000000E+00 0.  1.
         25    2    1    2    0    0  0.17741840232E+03 -0.63360078792E+02  0.25162958726E+03  0.33831431191E+03  0.12508930966E+03 0.  0.
          5    1    3    3  502    0  0.65128334332E+02 -0.33552886412E+02  0.15331178286E+02  0.74966749610E+02  0.41800000000E+01 0. -1.
         -5    1    3    3    0  502  0.11229006799E+03 -0.29807192380E+02  0.23629840897E+03  0.26334756230E+03  0.41800000000E+01 0. -1.
        -11    1    1    2    0    0 -0.58444822534E+02  0.15034663157E+02  0.20352220592E+02  0.63687135752E+02  0.00000000000E+00 0.  1.
         11    1    1    2    0    0 -0.11897357979E+03  0.48325415635E+02  0.24046010371E+03  0.27260066023E+03  0.00000000000E+00 0. -1.
</event>
<event>
 7    1  0.2728221E-009  0.3149493E+03  0.7561462E-02  0.1077998E+00
          2   -1    0    0  501    0  0.00000000000E+00  0.00000000000E+00  0.87438819253E+03  0.87438819253E+03  0.00000000000E+00 0.  1.
         -2   -1    0    0    0  501 -0.00000000000E+00 -0.00000000000E+00 -0.12233297729E+03  0.12233297729E+03  0.00000000000E+00 0. -1.
         25    2    1    2    0    0  0.40336361358E+02 -0.30512958598E+03  0.40525291449E+03  0.52403115954E+03  0.12509054794E+03 0.  0.
          5    1    3    3  502    0  0.33635200662E+02 -0.11737012827E+03  0.73002673267E+02  0.14231632527E+03  0.41800000000E+01 0.  1.
         -5    1    3    3    0  502  0.67011606964E+01 -0.18775945770E+03  0.33225024122E+03  0.38171483427E+03  0.41800000000E+01 0.  1.
        -11    1    1    2    0    0  0.26759121444E+02  0.60713403161E+02  0.55005052647E+02  0.86184242878E+02  0.00000000000E+00 0.  1.
         11    1    1    2    0    0 -0.67095482803E+02  0.24441618282E+03  0.29179724810E+03  0.38650576740E+03  0.00000000000E+00 0. -1.
</event>
<event>
 7    1  0.2728221E-009  0.8158671E+02  0.7561462E-02  0.1324608E+00
          2   -1    0    0  501    0  0.00000000000E+00  0.00000000000E+00  0.44233214813E+03  0.44233214813E+03  0.00000000000E+00 0. -1.
         -2   -1    0    0    0  501 -0.00000000000E+00 -0.00000000000E+00 -0.30042160911E+02  0.30042160911E+02  0.00000000000E+00 0.  1.
         25    2    1    2    0    0 -0.14435669579E+02  0.31872079109E+02  0.20092667742E+03  0.23925455921E+03  0.12508795474E+03 0.  0.
          5    1    3    3  502    0 -0.35902970023E+02  0.31776036301E+02  0.12717594156E+02  0.49779005018E+02  0.41800000000E+01 0.  1.
         -5    1    3    3    0  502  0.21467300444E+02  0.96042808430E-01  0.18820908327E+03  0.18947555419E+03  0.41800000000E+01 0.  1.
        -11    1    1    2    0    0  0.48009818110E+02 -0.17059235807E+01  0.71386231149E+02  0.86045608882E+02  0.00000000000E+00 0.  1.
         11    1    1    2    0    0 -0.33574148532E+02 -0.30166155528E+02  0.13997707865E+03  0.14707414095E+03  0.00000000000E+00 0. -1.
</event>
<event>
 7    1  0.2728221E-009  0.1516831E+03  0.7561462E-02  0.1198420E+00
         -1   -1    0    0    0  501 -0.00000000000E+00  0.00000000000E+00  0.13499718252E+03  0.13499718252E+03  0.00000000000E+00 0.  1.
          1   -1    0    0  501    0  0.00000000000E+00 -0.00000000000E+00 -0.26990500165E+03  0.26990500165E+03  0.00000000000E+00 0. -1.
         25    2    1    2    0    0 -0.67640909702E+02  0.11843861654E+03 -0.15314890490E+03  0.24021999697E+03  0.12509221128E+03 0.  0.
          5    1    3    3  502    0 -0.13124438073E+02  0.99712115600E+02 -0.31388420166E+02  0.10543937686E+03  0.41800000000E+01 0. -1.
         -5    1    3    3    0  502 -0.54516471630E+02  0.18726500936E+02 -0.12176048473E+03  0.13478062011E+03  0.41800000000E+01 0. -1.
        -11    1    1    2    0    0  0.48496558969E+02 -0.36312665521E+02  0.45818535053E+02  0.75959621269E+02  0.00000000000E+00 0.  1.
         11    1    1    2    0    0  0.19144350734E+02 -0.82125951015E+02 -0.27577449295E+02  0.88722565928E+02  0.00000000000E+00 0. -1.
</event>
<event>
 7    1  0.3381776E-009  0.1047897E+03  0.7561462E-02  0.1270535E+00
         -2   -1    0    0    0  501 -0.00000000000E+00  0.00000000000E+00  0.31617551886E+02  0.31617551886E+02  0.00000000000E+00 0.  1.
          2   -1    0    0  501    0  0.00000000000E+00 -0.00000000000E+00 -0.49395415604E+03  0.49395415604E+03  0.00000000000E+00 0. -1.
         25    2    1    2    0    0 -0.42541758698E+02 -0.38016129163E+02 -0.20861627602E+03  0.24984105283E+03  0.12507906999E+03 0.  0.
          5    1    3    3  502    0  0.30520545644E+02 -0.22926567737E+01 -0.59946768808E+01  0.31466943487E+02  0.41800000000E+01 0. -1.
         -5    1    3    3    0  502 -0.73062304341E+02 -0.35723472389E+02 -0.20262159913E+03  0.21837410934E+03  0.41800000000E+01 0. -1.
        -11    1    1    2    0    0  0.71227069413E+01 -0.24437906082E+02 -0.23753644899E+02  0.34816373358E+02  0.00000000000E+00 0.  1.
         11    1    1    2    0    0  0.35419051756E+02  0.62454035245E+02 -0.22996668324E+03  0.24091428174E+03  0.00000000000E+00 0. -1.
</event>
<event>
 7    1  0.2728221E-009  0.8232212E+02  0.7561462E-02  0.1322588E+00
         -1   -1    0    0    0  501 -0.00000000000E+00  0.00000000000E+00  0.27915654030E+03  0.27915654030E+03  0.00000000000E+00 0.  1.
          1   -1    0    0  501    0  0.00000000000E+00 -0.00000000000E+00 -0.48283051645E+02  0.48283051645E+02  0.00000000000E+00 0. -1.
         25    2    1    2    0    0 -0.14776801999E+02 -0.32215019935E+02  0.16607606570E+03  0.21091341077E+03  0.12508815235E+03 0.  0.
          5    1    3    3  502    0 -0.37488956133E+02 -0.10266246204E+02 -0.26715178929E+01  0.39184525656E+02  0.41800000000E+01 0.  1.
         -5    1    3    3    0  502  0.22712154134E+02 -0.21948773731E+02  0.16874758359E+03  0.17172888511E+03  0.41800000000E+01 0.  1.
        -11    1    1    2    0    0 -0.23297883669E+02  0.47308106045E+02  0.21563008400E+02  0.56972024821E+02  0.00000000000E+00 0. -1.
         11    1    1    2    0    0  0.38074685668E+02 -0.15093086110E+02  0.43234414554E+02  0.59554156353E+02  0.00000000000E+00 0.  1.
</event>
<event>
 7    1  0.2728221E-009  0.9304971E+02  0.7561462E-02  0.1295630E+00
         -1   -1    0    0    0  501 -0.00000000000E+00  0.00000000000E+00  0.47511886230E+02  0.47511886230E+02  0.00000000000E+00 0.  1.
          1   -1    0    0  501    0  0.00000000000E+00 -0.00000000000E+00 -0.38871398150E+03  0.38871398150E+03  0.00000000000E+00 0. -1.
         25    2    1    2    0    0 -0.19530957590E+02  0.33572675830E+02 -0.67557969223E+02  0.14737889184E+03  0.12509146928E+03 0.  0.
          5    1    3    3  502    0  0.20066932557E+02 -0.18815754823E+02  0.22541020641E+02  0.35808999195E+02  0.41800000000E+01 0.  1.
         -5    1    3    3    0  502 -0.39597890147E+02  0.52388430653E+02 -0.90098989864E+02  0.11156989265E+03  0.41800000000E+01 0.  1.
        -11    1    1    2    0    0  0.47897738594E+02 -0.41110638692E+02 -0.18595385678E+03  0.19637493432E+03  0.00000000000E+00 0.  1.
         11    1    1    2    0    0 -0.28366781005E+02  0.75379628620E+01 -0.87690269267E+02  0.92472041574E+02  0.00000000000E+00 0. -1.
</event>
<event>
 7    1  0.2728221E-009  0.1491069E+03  0.7561462E-02  0.1201575E+00
         -1   -1    0    0    0  501 -0.00000000000E+00  0.00000000000E+00  0.66708987557E+02  0.66708987557E+02  0.00000000000E+00 0.  1.
          1   -1    0    0  501    0  0.00000000000E+00 -0.00000000000E+00 -0.36607528688E+03  0.36607528688E+03  0.00000000000E+00 0. -1.
         25    2    1    2    0    0  0.10419374917E+02  0.99816328386E+02 -0.96205737475E+02  0.18701217555E+03  0.12508455978E+03 0.  0.
          5    1    3    3  502    0  0.40065989227E+02 -0.13911604576E+02 -0.22086944261E+02  0.48001268123E+02  0.41800000000E+01 0. -1.
         -5    1    3    3    0  502 -0.29646614310E+02  0.11372793296E+03 -0.74118793214E+02  0.13901090743E+03  0.41800000000E+01 0. -1.
        -11    1    1    2    0    0  0.42427143470E+02 -0.43512294069E+02 -0.81270378038E+02  0.10148032610E+03  0.00000000000E+00 0.  1.
         11    1    1    2    0    0 -0.52846518387E+02 -0.56304034318E+02 -0.12189018381E+03  0.14429177279E+03  0.00000000000E+00 0. -1.
</event>
<event>
 7    1  0.2728221E-009  0.1190700E+03  0.7561462E-02  0.1244639E+00
         -1   -1    0    0    0  501 -0.00000000000E+00  0.00000000000E+00  0.14720624118E+03  0.14720624118E+03  0.00000000000E+00 0.  1.
          1   -1    0    0  501    0  0.00000000000E+00 -0.00000000000E+00 -0.12093044908E+03  0.12093044908E+03  0.00000000000E+00 0. -1.
         25    2    1    2    0    0  0.63751166471E+02 -0.29139164510E+02 -0.96878632806E+00  0.14339794843E+03  0.12509488772E+03 0.  0.
          5    1    3    3  502    0 -0.21032826836E+02 -0.34163160312E+02  0.32714089456E+02  0.51934433434E+02  0.41800000000E+01 0.  1.
         -5    1    3    3    0  502  0.84783993307E+02  0.50239958022E+01 -0.33682875784E+02  0.91463514999E+02  0.41800000000E+01 0.  1.
        -11    1    1    2    0    0 -0.47081309430E+01  0.49945510944E+02 -0.11027709434E+02  0.51364685687E+02  0.00000000000E+00 0. -1.
         11    1    1    2    0    0 -0.59043035528E+02 -0.20806346434E+02  0.38272287863E+02  0.73374056141E+02  0.00000000000E+00 0.  1.
</event>
<event>
 7    1  0.2728221E-009  0.1266036E+03  0.7561462E-02  0.1232584E+00
         -1   -1    0    0    0  501 -0.00000000000E+00  0.00000000000E+00  0.16597070028E+03  0.16597070028E+03  0.00000000000E+00 0.  1.
          1   -1    0    0  501    0  0.00000000000E+00 -0.00000000000E+00 -0.19272311889E+03  0.19272311889E+03  0.00000000000E+00 0. -1.
         25    2    1    2    0    0 -0.88609664936E+02 -0.36007570911E+02  0.88766646214E+02  0.18076179418E+03  0.12508833228E+03 0.  0.
          5    1    3    3  502    0 -0.10328512512E+03  0.14792658321E+02  0.58818626704E+02  0.11984883420E+03  0.41800000000E+01 0.  1.
         -5    1    3    3    0  502  0.14675460182E+02 -0.50800229232E+02  0.29948019510E+02  0.60912959985E+02  0.41800000000E+01 0.  1.
        -11    1    1    2    0    0  0.75321526563E+02  0.32229733944E+02 -0.13265875691E+03  0.15591803583E+03  0.00000000000E+00 0. -1.
         11    1    1    2    0    0  0.13288138373E+02  0.37778369673E+01  0.17139692083E+02  0.22013989150E+02  0.00000000000E+00 0.  1.
</event>
<event>
 7    1  0.2728221E-009  0.1529338E+03  0.7561462E-02  0.1196914E+00
          2   -1    0    0  501    0  0.00000000000E+00  0.00000000000E+00  0.43062243745E+02  0.43062243745E+02  0.00000000000E+00 0. -1.
         -2   -1    0    0    0  501 -0.00000000000E+00 -0.00000000000E+00 -0.60600572633E+03  0.60600572633E+03  0.00000000000E+00 0.  1.
         25    2    1    2    0    0 -0.38115270748E+02  0.10598541985E+03 -0.22068883039E+03  0.27755334903E+03  0.12508644457E+03 0.  0.
          5    1    3    3  502    0 -0.21651795390E+02 -0.26056216228E+02 -0.33295085565E+02  0.47683978132E+02  0.41800000000E+01 0.  1.
         -5    1    3    3    0  502 -0.16463475357E+02  0.13204163608E+03 -0.18739374482E+03  0.22986937090E+03  0.41800000000E+01 0.  1.
        -11    1    1    2    0    0  0.37582444875E+02 -0.53444214367E+01 -0.14732752954E+03  0.15213942278E+03  0.00000000000E+00 0.  1.
         11    1    1    2    0    0  0.53282587306E+00 -0.10064099842E+03 -0.19492712265E+03  0.21937519826E+03  0.00000000000E+00 0. -1.
</event>
<event>
 7    1  0.2728221E-009  0.6976770E+02  0.7561462E-02  0.1360885E+00
          4   -1    0    0  501    0  0.00000000000E+00  0.00000000000E+00  0.10225258834E+03  0.10225258834E+03  0.00000000000E+00 0. -1.
         -4   -1    0    0    0  501 -0.00000000000E+00 -0.00000000000E+00 -0.11788565947E+03  0.11788565947E+03  0.00000000000E+00 0.  1.
         25    2    1    2    0    0 -0.47380115152E+01 -0.15565082676E+01 -0.24482139642E+02  0.12756557053E+03  0.12509487660E+03 0.  0.
          5    1    3    3  502    0  0.34908418930E+02  0.34382452133E+02  0.24464411808E+02  0.54924771934E+02  0.41800000000E+01 0.  1.
         -5    1    3    3    0  502 -0.39646430445E+02 -0.35938960401E+02 -0.48946551450E+02  0.72640798595E+02  0.41800000000E+01 0.  1.
        -11    1    1    2    0    0 -0.62239656173E+01 -0.15334493450E+02 -0.38071963608E+02  0.41513357493E+02  0.00000000000E+00 0.  1.
         11    1    1    2    0    0  0.10961977133E+02  0.16891001718E+02  0.46921032122E+02  0.51059319787E+02  0.00000000000E+00 0. -1.
</event>
<event>
 7    1  0.2728221E-009  0.1072177E+03  0.7561462E-02  0.1265811E+00
          1   -1    0    0  501    0  0.00000000000E+00  0.00000000000E+00  0.12561630384E+03  0.12561630384E+03  0.00000000000E+00 0. -1.
         -1   -1    0    0    0  501 -0.00000000000E+00 -0.00000000000E+00 -0.10693031260E+03  0.10693031260E+03  0.00000000000E+00 0.  1.
         25    2    1    2    0    0  0.21454908750E+02  0.36473719755E+02  0.15953679581E+02  0.13301096815E+03  0.12508697939E+03 0.  0.
          5    1    3    3  502    0 -0.46699760315E+02  0.36420128484E+02 -0.95262199328E+01  0.60129149657E+02  0.41800000000E+01 0. -1.
         -5    1    3    3    0  502  0.68154669065E+02  0.53591271811E-01  0.25479899513E+02  0.72881818491E+02  0.41800000000E+01 0. -1.
        -11    1    1    2    0    0  0.23132639788E+02 -0.35269715686E+02 -0.22999047295E+02  0.48041940475E+02  0.00000000000E+00 0. -1.
         11    1    1    2    0    0 -0.44587548538E+02 -0.12040040697E+01  0.25731358958E+02  0.51493707812E+02  0.00000000000E+00 0.  1.
</event>
<event>
 7    1  0.2728221E-009  0.1630772E+03  0.7561462E-02  0.1185266E+00
          1   -1    0    0  501    0  0.00000000000E+00  0.00000000000E+00  0.14331192714E+03  0.14331192714E+03  0.00000000000E+00 0. -1.
         -1   -1    0    0    0  501 -0.00000000000E+00 -0.00000000000E+00 -0.20163784482E+03  0.20163784482E+03  0.00000000000E+00 0.  1.
         25    2    1    2    0    0  0.53700243573E+02 -0.11485449403E+03 -0.19044645155E+02  0.17912629446E+03  0.12509300500E+03 0.  0.
          5    1    3    3  502    0  0.23149096779E+02 -0.13765665143E+03 -0.12368458426E+02  0.14019873583E+03  0.41800000000E+01 0.  1.
         -5    1    3    3    0  502  0.30551146794E+02  0.22802157392E+02 -0.66761867288E+01  0.38927558636E+02  0.41800000000E+01 0.  1.
        -11    1    1    2    0    0  0.19770697492E+02  0.19433705010E+02  0.17391254468E+02  0.32726214290E+02  0.00000000000E+00 0.  1.
         11    1    1    2    0    0 -0.73470941065E+02  0.95420789025E+02 -0.56672526994E+02  0.13309726321E+03  0.00000000000E+00 0. -1.
</event>
<event>
 7    1  0.2728221E-009  0.8523346E+02  0.7561462E-02  0.1314823E+00
         -1   -1    0    0    0  501 -0.00000000000E+00  0.00000000000E+00  0.10096162397E+03  0.10096162397E+03  0.00000000000E+00 0.  1.
          1   -1    0    0  501    0  0.00000000000E+00 -0.00000000000E+00 -0.16069434224E+03  0.16069434224E+03  0.00000000000E+00 0. -1.
         25    2    1    2    0    0  0.57712901463E+02  0.41041489614E+02 -0.11372352070E+02  0.14419192069E+03  0.12508715656E+03 0.  0.
          5    1    3    3  502    0  0.56424322489E+02  0.24466184952E+02  0.50688720817E+02  0.79806749041E+02  0.41800000000E+01 0.  1.
         -5    1    3    3    0  502  0.12885789737E+01  0.16575304662E+02 -0.62061072887E+02  0.64385171649E+02  0.41800000000E+01 0.  1.
        -11    1    1    2    0    0 -0.40586376068E+02 -0.55850918898E+02 -0.58346484993E+01  0.69286522407E+02  0.00000000000E+00 0.  1.
         11    1    1    2    0    0 -0.17126525395E+02  0.14809429284E+02 -0.42525717695E+02  0.48177523113E+02  0.00000000000E+00 0. -1.
</event>
<event>
 7    1  0.2728221E-009  0.1005657E+03  0.7561462E-02  0.1279111E+00
          1   -1    0    0  501    0  0.00000000000E+00  0.00000000000E+00  0.19279412804E+03  0.19279412804E+03  0.00000000000E+00 0. -1.
         -1   -1    0    0    0  501 -0.00000000000E+00 -0.00000000000E+00 -0.60195436996E+02  0.60195436996E+02  0.00000000000E+00 0.  1.
         25    2    1    2    0    0 -0.27329050029E+01 -0.20540428592E+02  0.82450468207E+02  0.15125065502E+03  0.12509717407E+03 0.  0.
          5    1    3    3  502    0  0.40413304037E+02 -0.46929928254E+02  0.78881243755E+02  0.10037617409E+03  0.41800000000E+01 0. -1.
         -5    1    3    3    0  502 -0.43146209040E+02  0.26389499662E+02  0.35692244520E+01  0.50874480932E+02  0.41800000000E+01 0. -1.
        -11    1    1    2    0    0 -0.38299760360E+01  0.54038370811E+02  0.27307492655E+02  0.60667234909E+02  0.00000000000E+00 0. -1.
         11    1    1    2    0    0  0.65628810390E+01 -0.33497942219E+02  0.22840730180E+02  0.41071675101E+02  0.00000000000E+00 0.  1.
</event>
<event>
 7    1  0.2728221E-009  0.1134255E+03  0.7561462E-02  0.1254355E+00
         -1   -1    0    0    0  501 -0.00000000000E+00  0.00000000000E+00  0.27873455379E+02  0.27873455379E+02  0.00000000000E+00 0.  1.
          1   -1    0    0  501    0  0.00000000000E+00 -0.00000000000E+00 -0.53438530031E+03  0.53438530031E+03  0.00000000000E+00 0. -1.
         25    2    1    2    0    0  0.22268869763E+02  0.58466831413E+02 -0.28310853233E+03  0.31577186161E+03  0.12508858690E+03 0.  0.
          5    1    3    3  502    0  0.69699610236E+02  0.87102450717E+01 -0.12812251830E+03  0.14617371902E+03  0.41800000000E+01 0.  1.
         -5    1    3    3    0  502 -0.47430740473E+02  0.49756586341E+02 -0.15498601403E+03  0.16959814259E+03  0.41800000000E+01 0.  1.
        -11    1    1    2    0    0 -0.43220729188E+02 -0.31572953132E+02 -0.63778695564E+02  0.83262265216E+02  0.00000000000E+00 0.  1.
         11    1    1    2    0    0  0.20951859425E+02 -0.26893878281E+02 -0.15962461704E+03  0.16322462886E+03  0.00000000000E+00 0. -1.
</event>
<event>
 7    1  0.2728221E-009  0.2450566E+03  0.7561462E-02  0.1116469E+00
          1   -1    0    0  501    0  0.00000000000E+00  0.00000000000E+00  0.13900094163E+03  0.13900094163E+03  0.00000000000E+00 0. -1.
         -1   -1    0    0    0  501 -0.00000000000E+00 -0.00000000000E+00 -0.47858357577E+03  0.47858357577E+03  0.00000000000E+00 0.  1.
         25    2    1    2    0    0 -0.20731899749E+03  0.97182705676E+02 -0.22882477532E+03  0.34703482514E+03  0.12508695798E+03 0.  0.
          5    1    3    3  502    0 -0.19783791104E+02 -0.28617290449E+02 -0.29870855996E+02  0.46044414873E+02  0.41800000000E+01 0. -1.
         -5    1    3    3    0  502 -0.18753520638E+03  0.12579999612E+03 -0.19895391933E+03  0.30099041027E+03  0.41800000000E+01 0. -1.
        -11    1    1    2    0    0  0.63567899635E+02 -0.24431737326E+02  0.10498770865E+02  0.68905818639E+02  0.00000000000E+00 0.  1.
         11    1    1    2    0    0  0.14375109785E+03 -0.72750968350E+02 -0.12125662968E+03  0.20164387363E+03  0.00000000000E+00 0. -1.
</event>
<event>
 7    1  0.2728221E-009  0.1304690E+03  0.7561462E-02  0.1226761E+00
          2   -1    0    0  501    0  0.00000000000E+00  0.00000000000E+00  0.18471616921E+02  0.18471616921E+02  0.00000000000E+00 0. -1.
         -2   -1    0    0    0  501 -0.00000000000E+00 -0.00000000000E+00 -0.11339741650E+04  0.11339741650E+04  0.00000000000E+00 0.  1.
         25    2    1    2    0    0  0.91082080611E+02 -0.29766904709E+02 -0.59380652586E+03  0.61435787427E+03  0.12508954190E+03 0.  0.
          5    1    3    3  502    0 -0.20788929935E+02  0.19357350796E+02 -0.57203054451E+02  0.64004284827E+02  0.41800000000E+01 0. -1.
         -5    1    3    3    0  502  0.11187101055E+03 -0.49124255505E+02 -0.53660347141E+03  0.55035358944E+03  0.41800000000E+01 0. -1.
        -11    1    1    2    0    0 -0.82902538520E+02  0.43776471935E+02 -0.50879694916E+03  0.51736210323E+03  0.00000000000E+00 0.  1.
         11    1    1    2    0    0 -0.81795420906E+01 -0.14009567226E+02 -0.12899073026E+02  0.20725804389E+02  0.00000000000E+00 0. -1.
</event>
<event>
 7    1  0.2728221E-009  0.1866166E+03  0.7561462E-02  0.1161549E+00
          2   -1    0    0  501    0  0.00000000000E+00  0.00000000000E+00  0.17497064807E+03  0.17497064807E+03  0.00000000000E+00 0. -1.
         -2   -1    0    0    0  501 -0.00000000000E+00 -0.00000000000E+00 -0.25673326380E+03  0.25673326380E+03  0.00000000000E+00 0.  1.
         25    2    1    2    0    0  0.72134879140E+02 -0.15968943965E+03 -0.92915988172E+02  0.23448951963E+03  0.12509115091E+03 0.  0.
          5    1    3    3  502    0  0.71926667560E+02 -0.15682556907E+03 -0.34680751841E+02  0.17603389323E+03  0.41800000000E+01 0. -1.
         -5    1    3    3    0  502  0.20821157956E+00 -0.28638705799E+01 -0.58235236331E+02  0.58455626395E+02  0.41800000000E+01 0. -1.
        -11    1    1    2    0    0 -0.81473244852E+02  0.76155211988E+02  0.17639399535E+02  0.11290993914E+03  0.00000000000E+00 0. -1.
         11    1    1    2    0    0  0.93383657126E+01  0.83534227658E+02 -0.64860270921E+01  0.84304453097E+02  0.00000000000E+00 0.  1.
</event>
<event>
 7    1  0.2728221E-009  0.7154773E+02  0.7561462E-02  0.1354908E+00
         -1   -1    0    0    0  501 -0.00000000000E+00  0.00000000000E+00  0.81475759783E+03  0.81475759783E+03  0.00000000000E+00 0.  1.
          1   -1    0    0  501    0  0.00000000000E+00 -0.00000000000E+00 -0.15925323064E+02  0.15925323064E+02  0.00000000000E+00 0. -1.
         25    2    1    2    0    0 -0.43422365008E+02  0.11429306827E+02  0.46570864401E+03  0.48430181578E+03  0.12509027472E+03 0.  0.
          5    1    3    3  502    0 -0.56310575138E+01 -0.22430661113E+02  0.40228523523E+03  0.40297112335E+03  0.41800000000E+01 0.  1.
         -5    1    3    3    0  502 -0.37791307495E+02  0.33859967939E+02  0.63423408775E+02  0.81330692433E+02  0.41800000000E+01 0.  1.
        -11    1    1    2    0    0  0.50472495007E+02 -0.22735389618E+02  0.32711318787E+03  0.33176408541E+03  0.00000000000E+00 0.  1.
         11    1    1    2    0    0 -0.70501299984E+01  0.11306082791E+02  0.60104428865E+01  0.14617019695E+02  0.00000000000E+00 0. -1.
</event>
<event>
 7    1  0.2728221E-009  0.1526479E+03  0.7561462E-02  0.1197257E+00
         -1   -1    0    0    0  501 -0.00000000000E+00  0.00000000000E+00  0.19178678967E+03  0.19178678967E+03  0.00000000000E+00 0.  1.
          1   -1    0    0  501    0  0.00000000000E+00 -0.00000000000E+00 -0.16549321828E+03  0.16549321828E+03  0.00000000000E+00 0. -1.
         25    2    1    2    0    0  0.82387765603E+02 -0.90129419862E+02  0.85733106586E+02  0.19469801331E+03  0.12508434984E+03 0.  0.
          5    1    3    3  502    0  0.10832702158E+03 -0.85093497122E+02  0.93856376231E+02  0.16673973317E+03  0.41800000000E+01 0.  1.
         -5    1    3    3    0  502 -0.25939255981E+02 -0.50359227394E+01 -0.81232696451E+01  0.27958280140E+02  0.41800000000E+01 0.  1.
        -11    1    1    2    0    0 -0.85306287475E+01  0.60582247736E+02 -0.56031435162E+02  0.82960846753E+02  0.00000000000E+00 0. -1.
         11    1    1    2    0    0 -0.73857136855E+02  0.29547172125E+02 -0.34081000299E+01  0.79621147887E+02  0.00000000000E+00 0.  1.
</event>
<event>
 7    1  0.2728221E-009  0.1201817E+03  0.7561462E-02  0.1242798E+00
          1   -1    0    0  501    0  0.00000000000E+00  0.00000000000E+00  0.82950169945E+03  0.82950169945E+03  0.00000000000E+00 0. -1.
         -1   -1    0    0    0  501 -0.00000000000E+00 -0.00000000000E+00 -0.21646194741E+02  0.21646194741E+02  0.00000000000E+00 0.  1.
         25    2    1    2    0    0  0.52211391512E+02 -0.49742692244E+02  0.53952846541E+03  0.55851488589E+03  0.12509015923E+03 0.  0.
          5    1    3    3  502    0 -0.24193388178E+02  0.22115847393E+02  0.21246202902E+03  0.21501631778E+03  0.41800000000E+01 0. -1.
         -5    1    3    3    0  502  0.76404779690E+02 -0.71858539637E+02  0.32706643640E+03  0.34349856811E+03  0.41800000000E+01 0. -1.
        -11    1    1    2    0    0 -0.70532006325E+02  0.44078714677E+02  0.25752646233E+03  0.27062441834E+03  0.00000000000E+00 0. -1.
         11    1    1    2    0    0  0.18320614812E+02  0.56639775670E+01  0.10800576963E+02  0.22008589953E+02  0.00000000000E+00 0.  1.
</event>
<event>
 7    1  0.2728221E-009  0.9440790E+02  0.7561462E-02  0.1292515E+00
          3   -1    0    0  501    0  0.00000000000E+00  0.00000000000E+00  0.30615244538E+03  0.30615244538E+03  0.00000000000E+00 0. -1.
         -3   -1    0    0    0  501 -0.00000000000E+00 -0.00000000000E+00 -0.59510293267E+02  0.59510293267E+02  0.00000000000E+00 0.  1.
         25    2    1    2    0    0 -0.77905863239E+02 -0.10699636156E+02  0.13731538733E+03  0.20170867095E+03  0.12508823525E+03 0.  0.
          5    1    3    3  502    0 -0.57361305431E+02  0.18009081717E+02  0.15179690190E+03  0.16332304862E+03  0.41800000000E+01 0.  1.
         -5    1    3    3    0  502 -0.20544557808E+02 -0.28708717874E+02 -0.14481514565E+02  0.38385622329E+02  0.41800000000E+01 0.  1.
        -11    1    1    2    0    0  0.54597007499E+02  0.30391762973E+02  0.11686649147E+03  0.13252271244E+03  0.00000000000E+00 0. -1.
         11    1    1    2    0    0  0.23308855740E+02 -0.19692126816E+02 -0.75397266918E+01  0.31431355253E+02  0.00000000000E+00 0.  1.
</event>
<event>
 7    1  0.2728221E-009  0.1097736E+03  0.7561462E-02  0.1260990E+00
          2   -1    0    0  501    0  0.00000000000E+00  0.00000000000E+00  0.40166604047E+03  0.40166604047E+03  0.00000000000E+00 0. -1.
         -2   -1    0    0    0  501 -0.00000000000E+00 -0.00000000000E+00 -0.32761691214E+02  0.32761691214E+02  0.00000000000E+00 0.  1.
         25    2    1    2    0    0  0.24558503909E+02 -0.15701095864E+01  0.26911425806E+03  0.29778125019E+03  0.12508238770E+03 0.  0.
          5    1    3    3  502    0 -0.50669591545E+02  0.31740216956E+01  0.12753290629E+03  0.13733024615E+03  0.41800000000E+01 0. -1.
         -5    1    3    3    0  502  0.75228095454E+02 -0.47441312821E+01  0.14158135177E+03  0.16045100403E+03  0.41800000000E+01 0. -1.
        -11    1    1    2    0    0 -0.57775132921E+02  0.10489769454E+02  0.67559789420E+02  0.89511599214E+02  0.00000000000E+00 0. -1.
         11    1    1    2    0    0  0.33216629012E+02 -0.89196598677E+01  0.32230301772E+02  0.47134882278E+02  0.00000000000E+00 0.  1.
</event>
<event>
 7    1  0.2728221E-009  0.1274587E+03  0.7561462E-02  0.1231276E+00
         -1   -1    0    0    0  501 -0.00000000000E+00  0.00000000000E+00  0.48664624382E+02  0.48664624382E+02  0.00000000000E+00 0.  1.
          1   -1    0    0  501    0  0.00000000000E+00 -0.00000000000E+00 -0.47019196243E+03  0.47019196243E+03  0.00000000000E+00 0. -1.
         25    2    1    2    0    0 -0.10571712847E+00  0.77426250675E+02 -0.11141574967E+03  0.18454136466E+03  0.12508881056E+03 0.  0.
          5    1    3    3  502    0  0.19892489440E+01 -0.27781049929E+02 -0.62237488422E+02  0.68313404333E+02  0.41800000000E+01 0. -1.
         -5    1    3    3    0  502 -0.20949660725E+01  0.10520730060E+03 -0.49178261249E+02  0.11622796033E+03  0.41800000000E+01 0. -1.
        -11    1    1    2    0    0  0.22572339519E+02 -0.91956431897E+02 -0.20433529095E+03  0.22520747547E+03  0.00000000000E+00 0.  1.
         11    1    1    2    0    0 -0.22466622391E+02  0.14530181222E+02 -0.10577629742E+03  0.10910774668E+03  0.00000000000E+00 0. -1.
</event>
<event>
 7    1  0.2728221E-009  0.2097833E+03  0.7561462E-02  0.1141738E+00
          2   -1    0    0  501    0  0.00000000000E+00  0.00000000000E+00  0.14174692791E+04  0.14174692791E+04  0.00000000000E+00 0. -1.
         -2   -1    0    0    0  501 -0.00000000000E+00 -0.00000000000E+00 -0.41555490180E+02  0.41555490180E+02  0.00000000000E+00 0.  1.
         25    2    1    2    0    0 -0.17137754437E+03  0.92330177564E+02  0.99247861501E+03  0.10190959653E+04  0.12509061084E+03 0.  0.
          5    1    3    3  502    0 -0.55297486451E+02  0.92702929719E+02  0.60550237269E+03  0.61506279429E+03  0.41800000000E+01 0.  1.
         -5    1    3    3    0  502 -0.11608005792E+03 -0.37275215492E+00  0.38697624233E+03  0.40403317106E+03  0.41800000000E+01 0.  1.
        -11    1    1    2    0    0  0.15376621591E+03 -0.76672151526E+02  0.37875051839E+03  0.41590217979E+03  0.00000000000E+00 0. -1.
         11    1    1    2    0    0  0.17611328463E+02 -0.15658026038E+02  0.46846554952E+01  0.24026624123E+02  0.00000000000E+00 0.  1.
</event>
<event>
 7    1  0.2728221E-009  0.1777529E+03  0.7561462E-02  0.1169996E+00
          1   -1    0    0  501    0  0.00000000000E+00  0.00000000000E+00  0.12578392610E+04  0.12578392610E+04  0.00000000000E+00 0. -1.
         -1   -1    0    0    0  501 -0.00000000000E+00 -0.00000000000E+00 -0.30293534600E+02  0.30293534600E+02  0.00000000000E+00 0.  1.
         25    2    1    2    0    0 -0.11442979684E+03 -0.96777218938E+02  0.84541548349E+03  0.86766083233E+03  0.12509185315E+03 0.  0.
          5    1    3    3  502    0 -0.10052976354E+03 -0.72216154514E+01  0.36131508935E+03  0.37513257827E+03  0.41800000000E+01 0. -1.
         -5    1    3    3    0  502 -0.13900033301E+02 -0.89555603487E+02  0.48410039413E+03  0.49252825406E+03  0.41800000000E+01 0. -1.
        -11    1    1    2    0    0  0.74412228523E+02  0.19567374156E+02  0.10606871494E+03  0.13103676650E+03  0.00000000000E+00 0.  1.
         11    1    1    2    0    0  0.40017568316E+02  0.77209844783E+02  0.27606152797E+03  0.28943519677E+03  0.00000000000E+00 0. -1.
</event>
<event>
 7    1  0.2728221E-009  0.1275467E+03  0.7561462E-02  0.1231142E+00
         -1   -1    0    0    0  501 -0.00000000000E+00  0.00000000000E+00  0.26780638871E+03  0.26780638871E+03  0.00000000000E+00 0.  1.
          1   -1    0    0  501    0  0.00000000000E+00 -0.00000000000E+00 -0.94477033022E+02  0.94477033022E+02  0.00000000000E+00 0. -1.
         25    2    1    2    0    0 -0.10537263165E+02  0.94204286278E+02  0.96473432929E+01  0.15724396672E+03  0.12508841821E+03 0.  0.
          5    1    3    3  502    0 -0.38509692885E+02  0.10128023407E+03  0.39604970135E+02  0.11544136312E+03  0.41800000000E+01 0. -1.
         -5    1    3    3    0  502  0.27972429719E+02 -0.70759477963E+01 -0.29957626842E+02  0.41802603599E+02  0.41800000000E+01 0. -1.
        -11    1    1    2    0    0 -0.52665370745E+01  0.10429138791E+02  0.42881730573E+02  0.44444866584E+02  0.00000000000E+00 0. -1.
         11    1    1    2    0    0  0.15803800240E+02 -0.10463342507E+03  0.12080028182E+03  0.16059458843E+03  0.00000000000E+00 0.  1.
</event>
<event>
 7    1  0.2728221E-009  0.1631705E+03  0.7561462E-02  0.1185163E+00
         -1   -1    0    0    0  501 -0.00000000000E+00  0.00000000000E+00  0.17766019214E+02  0.17766019214E+02  0.00000000000E+00 0.  1.
          1   -1    0    0  501    0  0.00000000000E+00 -0.00000000000E+00 -0.16875773170E+04  0.16875773170E+04  0.00000000000E+00 0. -1.
         25    2    1    2    0    0 -0.12640723146E+03 -0.31109989693E+02 -0.10615485300E+04  0.10767907896E+04  0.12508598430E+03 0.  0.
          5    1    3    3  502    0  0.94561877768E+01  0.29378929245E+02 -0.21968568598E+03  0.22188243282E+03  0.41800000000E+01 0. -1.
         -5    1    3    3    0  502 -0.13586341924E+03 -0.60488918938E+02 -0.84186284397E+03  0.85490835676E+03  0.41800000000E+01 0. -1.
        -11    1    1    2    0    0  0.48098468958E+02  0.46171302052E+02 -0.16137540413E+03  0.17460605060E+03  0.00000000000E+00 0.  1.
         11    1    1    2    0    0  0.78308762502E+02 -0.15061312359E+02 -0.44688736366E+03  0.45394649599E+03  0.00000000000E+00 0. -1.
</event>
<event>
 7    1  0.2728221E-009  0.8458208E+02  0.7561462E-02  0.1316529E+00
          3   -1    0    0  501    0  0.00000000000E+00  0.00000000000E+00  0.20449327535E+03  0.20449327535E+03  0.00000000000E+00 0. -1.
         -3   -1    0    0    0  501 -0.00000000000E+00 -0.00000000000E+00 -0.61825579088E+02  0.61825579088E+02  0.00000000000E+00 0.  1.
         25    2    1    2    0    0  0.12865278850E+01  0.16183113320E+00  0.12908436114E+03  0.17975631214E+03  0.12509147900E+03 0.  0.
          5    1    3    3  502    0 -0.25882719919E+02  0.32591529606E+02 -0.20745781056E+01  0.41879580547E+02  0.41800000000E+01 0.  1.
         -5    1    3    3    0  502  0.27169247804E+02 -0.32429698473E+02  0.13115893925E+03  0.13787673159E+03  0.41800000000E+01 0.  1.
        -11    1    1    2    0    0 -0.11519949180E+02 -0.41069769860E+02  0.14348341586E+01  0.42678964075E+02  0.00000000000E+00 0.  1.
         11    1    1    2    0    0  0.10233421295E+02  0.40907938727E+02  0.12148500960E+02  0.43883578225E+02  0.00000000000E+00 0. -1.
</event>
<event>
 7    1  0.2728221E-009  0.1457372E+03  0.7561462E-02  0.1205811E+00
         -4   -1    0    0    0  501 -0.00000000000E+00  0.00000000000E+00  0.30580951850E+02  0.30580951850E+02  0.00000000000E+00 0.  1.
          4   -1    0    0  501    0  0.00000000000E+00 -0.00000000000E+00 -0.75805376241E+03  0.75805376241E+03  0.00000000000E+00 0. -1.
         25    2    1    2    0    0 -0.19671037915E+02  0.97456352396E+02 -0.48349091544E+03  0.50921631326E+03  0.12511234160E+03 0.  0.
          5    1    3    3  502    0 -0.72610516608E+02  0.62329422458E+02 -0.27372129762E+03  0.28999666411E+03  0.41800000000E+01 0.  1.
         -5    1    3    3    0  502  0.52939478692E+02  0.35126929938E+02 -0.20976961782E+03  0.21921964915E+03  0.41800000000E+01 0.  1.
        -11    1    1    2    0    0 -0.13236736735E+02  0.11911700062E+02 -0.14048022483E+02  0.22681418241E+02  0.00000000000E+00 0.  1.
         11    1    1    2    0    0  0.32907774650E+02 -0.10936805246E+03 -0.22993387264E+03  0.25673698276E+03  0.00000000000E+00 0. -1.
</event>
<event>
 7    1  0.2728221E-009  0.1015021E+03  0.7561462E-02  0.1277169E+00
          1   -1    0    0  501    0  0.00000000000E+00  0.00000000000E+00  0.14735770057E+03  0.14735770057E+03  0.00000000000E+00 0. -1.
         -1   -1    0    0    0  501 -0.00000000000E+00 -0.00000000000E+00 -0.92892631865E+02  0.92892631865E+02  0.00000000000E+00 0.  1.
         25    2    1    2    0    0 -0.46090957541E+02  0.49228978952E+01  0.22947821486E+02  0.13538407362E+03  0.12511448193E+03 0.  0.
          5    1    3    3  502    0 -0.37867751288E+02  0.58628414315E+02 -0.11583038985E+02  0.70872397623E+02  0.41800000000E+01 0.  1.
         -5    1    3    3    0  502 -0.82232062528E+01 -0.53705516420E+02  0.34530860471E+02  0.64511675996E+02  0.41800000000E+01 0.  1.
        -11    1    1    2    0    0  0.25374140052E+02  0.29193126663E+02 -0.16821481824E+02  0.42178760988E+02  0.00000000000E+00 0. -1.
         11    1    1    2    0    0  0.20716817489E+02 -0.34116024558E+02  0.48338729047E+02  0.62687497832E+02  0.00000000000E+00 0.  1.
</event>
<event>
 7    1  0.2728221E-009  0.6715954E+02  0.7561462E-02  0.1370027E+00
         -1   -1    0    0    0  501 -0.00000000000E+00  0.00000000000E+00  0.23939686018E+02  0.23939686018E+02  0.00000000000E+00 0.  1.
          1   -1    0    0  501    0  0.00000000000E+00 -0.00000000000E+00 -0.51303265392E+03  0.51303265392E+03  0.00000000000E+00 0. -1.
         25    2    1    2    0    0  0.65295934842E+00  0.19267124521E+02 -0.24305960225E+03  0.27402629820E+03  0.12506315771E+03 0.  0.
          5    1    3    3  502    0  0.12167289246E+02 -0.56326987688E+01  0.11381102394E+02  0.18076839179E+02  0.41800000000E+01 0. -1.
         -5    1    3    3    0  502 -0.11514329897E+02  0.24899823290E+02 -0.25444070465E+03  0.25594945902E+03  0.41800000000E+01 0. -1.
        -11    1    1    2    0    0 -0.45566479582E+02 -0.10590321309E+02 -0.13413688190E+03  0.14206041691E+03  0.00000000000E+00 0.  1.
         11    1    1    2    0    0  0.44913520233E+02 -0.86768032114E+01 -0.11189648374E+03  0.12088562482E+03  0.00000000000E+00 0. -1.
</event>
<event>
 7    1  0.3090250E-009  0.7122839E+02  0.7561462E-02  0.1355965E+00
          1   -1    0    0  501    0  0.00000000000E+00  0.00000000000E+00  0.16830355201E+03  0.16830355201E+03  0.00000000000E+00 0. -1.
         -1   -1    0    0    0  501 -0.00000000000E+00 -0.00000000000E+00 -0.90247757712E+02  0.90247757712E+02  0.00000000000E+00 0.  1.
         25    2    1    2    0    0 -0.42823410977E+02  0.31083801515E+02  0.70450101288E+02  0.15300333726E+03  0.12508699851E+03 0.  0.
          5    1    3    3  502    0 -0.17017201696E+02  0.46470350033E+02 -0.23015689924E+02  0.54738222189E+02  0.41800000000E+01 0. -1.
         -5    1    3    3    0  502 -0.25806209281E+02 -0.15386548518E+02  0.93465791212E+02  0.98265115070E+02  0.41800000000E+01 0. -1.
        -11    1    1    2    0    0  0.20804712093E+02  0.38558582179E+01 -0.38326517983E+02  0.43779283555E+02  0.00000000000E+00 0.  1.
         11    1    1    2    0    0  0.22018698884E+02 -0.34939659733E+02  0.45932210997E+02  0.61768688912E+02  0.00000000000E+00 0. -1.
</event>
<event>
 6    1  0.2728221E-009  0.1809645E+03  0.7561462E-02  0.1166873E+00
          4   -1    0    0  501    0  0.00000000000E+00  0.00000000000E+00  0.10011278246E+03  0.10011278246E+03  0.00000000000E+00 0. -1.
         -4   -1    0    0    0  501 -0.00000000000E+00 -0.00000000000E+00 -0.33810980287E+03  0.33810980287E+03  0.00000000000E+00 0.  1.
          5    1    1    2  502    0 -0.65664542441E+02 -0.45660912346E+02 -0.50401040297E+02  0.94628158141E+02  0.41800000000E+01 0. -1.
         -5    1    1    2    0  502  0.48621787266E+02 -0.10011903849E+03 -0.10364156301E+03  0.15214120431E+03  0.41800000000E+01 0. -1.
        -11    1    1    2    0    0  0.52519496060E+02  0.79459307971E+02 -0.59767949066E+02  0.11244681776E+03  0.00000000000E+00 0. -1.
         11    1    1    2    0    0 -0.35476740885E+02  0.66320642862E+02 -0.24186468027E+02  0.79006405114E+02  0.00000000000E+00 0.  1.
</event>
<event>
 7    1  0.2728221E-009  0.1460178E+03  0.7561462E-02  0.1205453E+00
         -1   -1    0    0    0  501 -0.00000000000E+00  0.00000000000E+00  0.69219953325E+02  0.69219953325E+02  0.00000000000E+00 0.  1.
          1   -1    0    0  501    0  0.00000000000E+00 -0.00000000000E+00 -0.36889448551E+03  0.36889448551E+03  0.00000000000E+00 0. -1.
         25    2    1    2    0    0  0.10501295412E+03 -0.51449158774E+02 -0.17135539009E+03  0.24224505907E+03  0.12508102359E+03 0.  0.
          5    1    3    3  502    0  0.10234683306E+03 -0.10360941088E+02 -0.50843815729E+02  0.11482503793E+03  0.41800000000E+01 0. -1.
         -5    1    3    3    0  502  0.26661210613E+01 -0.41088217685E+02 -0.12051157436E+03  0.12742002115E+03  0.41800000000E+01 0. -1.
        -11    1    1    2    0    0 -0.99436096055E+02  0.74327958655E+02 -0.10320543277E+03  0.16144207627E+03  0.00000000000E+00 0.  1.
         11    1    1    2    0    0 -0.55768580620E+01 -0.22878799882E+02 -0.25113709324E+02  0.34427303495E+02  0.00000000000E+00 0. -1.
</event>
<event>
 7    1  0.2728221E-009  0.1200950E+03  0.7561462E-02  0.1242940E+00
         -1   -1    0    0    0  501 -0.00000000000E+00  0.00000000000E+00  0.61028267184E+02  0.61028267184E+02  0.00000000000E+00 0.  1.
          1   -1    0    0  501    0  0.00000000000E+00 -0.00000000000E+00 -0.26984622716E+03  0.26984622716E+03  0.00000000000E+00 0. -1.
         25    2    1    2    0    0 -0.37806743882E+02  0.55802025917E+02 -0.10428008775E+03  0.17625454410E+03  0.12509241239E+03 0.  0.
          5    1    3    3  502    0  0.35220558524E+02  0.49022733814E+02 -0.76915246755E+02  0.97862882426E+02  0.41800000000E+01 0. -1.
         -5    1    3    3    0  502 -0.73027302406E+02  0.67792921035E+01 -0.27364840992E+02  0.78391661678E+02  0.41800000000E+01 0. -1.
        -11    1    1    2    0    0  0.46799769929E+02 -0.73058575509E+02 -0.58510760550E+02  0.10464837801E+03  0.00000000000E+00 0. -1.
         11    1    1    2    0    0 -0.89930260479E+01  0.17256549592E+02 -0.46027111683E+02  0.49971572230E+02  0.00000000000E+00 0.  1.
</event>
<event>
 7    1  0.2728221E-009  0.9722656E+02  0.7561462E-02  0.1286239E+00
         -2   -1    0    0    0  501 -0.00000000000E+00  0.00000000000E+00  0.42673345764E+02  0.42673345764E+02  0.00000000000E+00 0.  1.
          2   -1    0    0  501    0  0.00000000000E+00 -0.00000000000E+00 -0.30511607559E+03  0.30511607559E+03  0.00000000000E+00 0. -1.
         25    2    1    2    0    0 -0.31310748005E+02  0.24311420219E+01 -0.17467141463E+03  0.21712515898E+03  0.12508780189E+03 0.  0.
          5    1    3    3  502    0 -0.16607724874E+01 -0.52985723426E+02 -0.34326836640E+02  0.63293357993E+02  0.41800000000E+01 0.  1.
         -5    1    3    3    0  502 -0.29649975517E+02  0.55416865448E+02 -0.14034457799E+03  0.15383180099E+03  0.41800000000E+01 0.  1.
        -11    1    1    2    0    0 -0.12904397306E+02 -0.25379689982E+02 -0.73534313961E+02  0.78853962888E+02  0.00000000000E+00 0.  1.
         11    1    1    2    0    0  0.44215145310E+02  0.22948547960E+02 -0.14237001230E+02  0.51810299481E+02  0.00000000000E+00 0. -1.
</event>
<event>
 7    1  0.2728221E-009  0.1337596E+03  0.7561462E-02  0.1221981E+00
         -1   -1    0    0    0  501 -0.00000000000E+00  0.00000000000E+00  0.18942943733E+02  0.18942943733E+02  0.00000000000E+00 0.  1.
          1   -1    0    0  501    0  0.00000000000E+00 -0.00000000000E+00 -0.16957755536E+04  0.16957755536E+04  0.00000000000E+00 0. -1.
         25    2    1    2    0    0 -0.75248198944E+02 -0.23704760490E+02 -0.14502510775E+04  0.14577719399E+04  0.12508650525E+03 0.  0.
          5    1    3    3  502    0 -0.10602744827E+03 -0.37643551238E+02 -0.11871951876E+04  0.11925220093E+04  0.41800000000E+01 0.  1.
         -5    1    3    3    0  502  0.30779249325E+02  0.13938790748E+02 -0.26305588993E+03  0.26524993064E+03  0.41800000000E+01 0.  1.
        -11    1    1    2    0    0  0.57729388099E+02 -0.29527933944E+02 -0.13030902358E+03  0.14555075664E+03  0.00000000000E+00 0.  1.
         11    1    1    2    0    0  0.17518810845E+02  0.53232694435E+02 -0.96272508805E+02  0.11139580083E+03  0.00000000000E+00 0. -1.
</event>
<event>
 7    1  0.2728221E-009  0.1721207E+03  0.7561462E-02  0.1175654E+00
          1   -1    0    0  501    0  0.00000000000E+00  0.00000000000E+00  0.89972091306E+03  0.89972091306E+03  0.00000000000E+00 0. -1.
         -1   -1    0    0    0  501 -0.00000000000E+00 -0.00000000000E+00 -0.47829286329E+02  0.47829286329E+02  0.00000000000E+00 0.  1.
         25    2    1    2    0    0 -0.12178461963E+03  0.77078640844E+02  0.20454278906E+03  0.27974515087E+03  0.12508791479E+03 0.  0.
          5    1    3    3  502    0 -0.33190236717E+02 -0.28145023837E+02  0.92406735621E+02  0.10222627533E+03  0.41800000000E+01 0.  1.
         -5    1    3    3    0  502 -0.88594382908E+02  0.10522366468E+03  0.11213605344E+03  0.17751887554E+03  0.41800000000E+01 0.  1.
        -11    1    1    2    0    0  0.43987629465E+02 -0.72718974452E+02  0.29870719531E+03  0.31056231150E+03  0.00000000000E+00 0.  1.
         11    1    1    2    0    0  0.77796990161E+02 -0.43596663917E+01  0.34864164236E+03  0.35724273702E+03  0.00000000000E+00 0. -1.
</event>
<event>
 7    1  0.2728221E-009  0.1093218E+03  0.7561462E-02  0.1261831E+00
         -2   -1    0    0    0  501 -0.00000000000E+00  0.00000000000E+00  0.95357789133E+02  0.95357789133E+02  0.00000000000E+00 0.  1.
          2   -1    0    0  501    0  0.00000000000E+00 -0.00000000000E+00 -0.15649292978E+03  0.15649292978E+03  0.00000000000E+00 0. -1.
         25    2    1    2    0    0 -0.37057910596E+02 -0.12640119406E+02  0.61611367683E+01  0.13121392272E+03  0.12508426181E+03 0.  0.
          5    1    3    3  502    0 -0.20662147121E+02 -0.62664295590E+02  0.30803845266E+02  0.72938930268E+02  0.41800000000E+01 0.  1.
         -5    1    3    3    0  502 -0.16395763475E+02  0.50024176184E+02 -0.24642708498E+02  0.58274992449E+02  0.41800000000E+01 0.  1.
        -11    1    1    2    0    0  0.67820089308E+02  0.12473231295E+02 -0.41441593697E+02  0.80452170268E+02  0.00000000000E+00 0.  1.
         11    1    1    2    0    0 -0.30762178711E+02  0.16688811069E+00 -0.25854683717E+02  0.40184625926E+02  0.00000000000E+00 0. -1.
</event>
<event>
 7    1  0.2728221E-009  0.7916229E+02  0.7561462E-02  0.1331446E+00
         -1   -1    0    0    0  501 -0.00000000000E+00  0.00000000000E+00  0.25172605827E+02  0.25172605827E+02  0.00000000000E+00 0.  1.
          1   -1    0    0  501    0  0.00000000000E+00 -0.00000000000E+00 -0.48978419694E+03  0.48978419694E+03  0.00000000000E+00 0. -1.
         25    2    1    2    0    0 -0.16294405091E+02  0.16459352479E+02 -0.30445928404E+03  0.32996725738E+03  0.12508603990E+03 0.  0.
          5    1    3    3  502    0 -0.51070072247E+02  0.15554434164E+02 -0.50511298946E+02  0.73613561405E+02  0.41800000000E+01 0.  1.
         -5    1    3    3    0  502  0.34775667156E+02  0.90491831565E+00 -0.25394798510E+03  0.25635369597E+03  0.41800000000E+01 0.  1.
        -11    1    1    2    0    0  0.41184508212E+02 -0.17675959808E+02 -0.15245797874E+03  0.15890890017E+03  0.00000000000E+00 0. -1.
         11    1    1    2    0    0 -0.24890103121E+02  0.12166073282E+01 -0.76943283329E+01  0.26080645223E+02  0.00000000000E+00 0.  1.
</event>
<event>
 7    1  0.3856685E-009  0.1129050E+03  0.7561462E-02  0.1255283E+00
          1   -1    0    0  501    0  0.00000000000E+00  0.00000000000E+00  0.98366330727E+03  0.98366330727E+03  0.00000000000E+00 0. -1.
         -1   -1    0    0    0  501 -0.00000000000E+00 -0.00000000000E+00 -0.23443308131E+02  0.23443308131E+02  0.00000000000E+00 0.  1.
         25    2    1    2    0    0  0.67823525125E+02 -0.64280933454E+02  0.35477815993E+03  0.38761887108E+03  0.12509507379E+03 0.  0.
          5    1    3    3  502    0  0.25739983496E+02 -0.16560777700E+02  0.30543569853E+03  0.30699388340E+03  0.41800000000E+01 0. -1.
         -5    1    3    3    0  502  0.42083541629E+02 -0.47720155754E+02  0.49342461398E+02  0.80624987678E+02  0.41800000000E+01 0. -1.
        -11    1    1    2    0    0 -0.71528032317E+02  0.49390326185E+01  0.33530966562E+03  0.34288952348E+03  0.00000000000E+00 0.  1.
         11    1    1    2    0    0  0.37045071921E+01  0.59341900835E+02  0.27013217359E+03  0.27659822085E+03  0.00000000000E+00 0. -1.
</event>
<event>
 7    1  0.2728221E-009  0.1468538E+03  0.7561462E-02  0.1204393E+00
          1   -1    0    0  501    0  0.00000000000E+00  0.00000000000E+00  0.44599993679E+02  0.44599993679E+02  0.00000000000E+00 0. -1.
         -1   -1    0    0    0  501 -0.00000000000E+00 -0.00000000000E+00 -0.68513140483E+03  0.68513140483E+03  0.00000000000E+00 0.  1.
         25    2    1    2    0    0 -0.67219068159E+02  0.71414385974E+02 -0.53277867310E+03  0.55598527739E+03  0.12509235197E+03 0.  0.
          5    1    3    3  502    0  0.67497190402E+01 -0.31306281299E+02 -0.10624709038E+03  0.11104755094E+03  0.41800000000E+01 0. -1.
         -5    1    3    3    0  502 -0.73968787199E+02  0.10272066727E+03 -0.42653158271E+03  0.44493772645E+03  0.41800000000E+01 0. -1.
        -11    1    1    2    0    0  0.32340431914E+02  0.19237346873E+02 -0.18913438318E+02  0.42115284638E+02  0.00000000000E+00 0. -1.
         11    1    1    2    0    0  0.34878636245E+02 -0.90651732848E+02 -0.88839299737E+02  0.13163083648E+03  0.00000000000E+00 0.  1.
</event>
<event>
 7    1  0.2728221E-009  0.1660376E+03  0.7561462E-02  0.1182044E+00
          2   -1    0    0  501    0  0.00000000000E+00  0.00000000000E+00  0.14213253848E+04  0.14213253848E+04  0.00000000000E+00 0. -1.
         -2   -1    0    0    0  501 -0.00000000000E+00 -0.00000000000E+00 -0.23118980326E+02  0.23118980326E+02  0.00000000000E+00 0.  1.
         25    2    1    2    0    0 -0.24447346395E+02 -0.14231348291E+03  0.79317795001E+03  0.81586189746E+03  0.12509426517E+03 0.  0.
          5    1    3    3  502    0 -0.64979293139E+02 -0.38524664263E+02  0.24324497994E+03  0.25473918222E+03  0.41800000000E+01 0. -1.
         -5    1    3    3    0  502  0.40531946744E+02 -0.10378881864E+03  0.54993297007E+03  0.56112271524E+03  0.41800000000E+01 0. -1.
        -11    1    1    2    0    0  0.78742688494E+01  0.20128022834E+02  0.16275590293E+02  0.27056168474E+02  0.00000000000E+00 0.  1.
         11    1    1    2    0    0  0.16573077545E+02  0.12218546007E+03  0.58875286414E+03  0.60152629916E+03  0.00000000000E+00 0. -1.
</event>
<event>
 7    1  0.2728221E-009  0.8876572E+02  0.7561462E-02  0.1305868E+00
          4   -1    0    0  501    0  0.00000000000E+00  0.00000000000E+00  0.33809823945E+02  0.33809823945E+02  0.00000000000E+00 0. -1.
         -4   -1    0    0    0  501 -0.00000000000E+00 -0.00000000000E+00 -0.38347943459E+03  0.38347943459E+03  0.00000000000E+00 0.  1.
         25    2    1    2    0    0  0.28263058865E+01  0.24917223822E+02 -0.16668296286E+03  0.20990372899E+03  0.12509000475E+03 0.  0.
          5    1    3    3  502    0 -0.12661725687E+02 -0.42869356259E+02 -0.23496605470E+02  0.50672121251E+02  0.41800000000E+01 0.  1.
         -5    1    3    3    0  502  0.15488031573E+02  0.67786580081E+02 -0.14318635739E+03  0.15923160774E+03  0.41800000000E+01 0.  1.
        -11    1    1    2    0    0 -0.27703462846E+02 -0.26114174476E+02 -0.17794795792E+03  0.18197501942E+03  0.00000000000E+00 0.  1.
         11    1    1    2    0    0  0.24877156960E+02  0.11969506540E+01 -0.50386898567E+01  0.25410510124E+02  0.00000000000E+00 0. -1.
</event>
<event>
 7    1  0.2728221E-009  0.1683154E+03  0.7561462E-02  0.1179616E+00
          2   -1    0    0  501    0  0.00000000000E+00  0.00000000000E+00  0.10205627474E+04  0.10205627474E+04  0.00000000000E+00 0. -1.
         -2   -1    0    0    0  501 -0.00000000000E+00 -0.00000000000E+00 -0.36676924441E+02  0.36676924441E+02  0.00000000000E+00 0.  1.
         25    2    1    2    0    0 -0.10782321265E+03 -0.11366496941E+03  0.43238688871E+03  0.47660556915E+03  0.12509546976E+03 0.  0.
          5    1    3    3  502    0 -0.49356406198E+02 -0.63483302425E+01  0.35400043050E+02  0.61212674975E+02  0.41800000000E+01 0.  1.
         -5    1    3    3    0  502 -0.58466806450E+02 -0.10731663916E+03  0.39698684566E+03  0.41539289417E+03  0.41800000000E+01 0.  1.
        -11    1    1    2    0    0  0.19693236081E+02  0.55313793793E+02  0.33031893222E+03  0.33549670090E+03  0.00000000000E+00 0. -1.
         11    1    1    2    0    0  0.88129976567E+02  0.58351175613E+02  0.22118000207E+03  0.24513740184E+03  0.00000000000E+00 0.  1.
</event>
<event>
 7    1  0.2728221E-009  0.9706617E+02  0.7561462E-02  0.1286589E+00
         -2   -1    0    0    0  501 -0.00000000000E+00  0.00000000000E+00  0.21264366822E+02  0.21264366822E+02  0.00000000000E+00 0.  1.
          2   -1    0    0  501    0  0.00000000000E+00 -0.00000000000E+00 -0.13567572439E+04  0.13567572439E+04  0.00000000000E+00 0. -1.
         25    2    1    2    0    0 -0.16234147345E+02 -0.11596248319E+02 -0.12358011385E+04  0.12422752251E+04  0.12508101563E+03 0.  0.
          5    1    3    3  502    0 -0.70042214475E+02  0.43561996512E+01 -0.66409574598E+03  0.66780649930E+03  0.41800000000E+01 0.  1.
         -5    1    3    3    0  502  0.53808067130E+02 -0.15952447970E+02 -0.57170539251E+03  0.57446872579E+03  0.41800000000E+01 0.  1.
        -11    1    1    2    0    0  0.68805086192E+01  0.38478549526E+02 -0.82136991407E+01  0.39942521528E+02  0.00000000000E+00 0.  1.
         11    1    1    2    0    0  0.93536387254E+01 -0.26882301207E+02 -0.91478039471E+02  0.95803864124E+02  0.00000000000E+00 0. -1.
</event>
<event>
 7    1  0.2728221E-009  0.1269810E+03  0.7561462E-02  0.1232005E+00
         -1   -1    0    0    0  501 -0.00000000000E+00  0.00000000000E+00  0.23834874893E+02  0.23834874893E+02  0.00000000000E+00 0.  1.
          1   -1    0    0  501    0  0.00000000000E+00 -0.00000000000E+00 -0.71507533083E+03  0.71507533083E+03  0.00000000000E+00 0. -1.
         25    2    1    2    0    0  0.56983857933E+02 -0.40129143645E+02 -0.32046504296E+03  0.35100308490E+03  0.12509122117E+03 0.  0.
          5    1    3    3  502    0 -0.29100609213E+02  0.21618536766E+02 -0.97757504402E+02  0.10434657951E+03  0.41800000000E+01 0.  1.
         -5    1    3    3    0  502  0.86084467147E+02 -0.61747680411E+02 -0.22270753855E+03  0.24665650539E+03  0.41800000000E+01 0.  1.
        -11    1    1    2    0    0 -0.30834815337E+02  0.67121857720E+02 -0.28180670260E+03  0.29132653029E+03  0.00000000000E+00 0.  1.
         11    1    1    2    0    0 -0.26149042597E+02 -0.26992714075E+02 -0.88968710380E+02  0.96580590538E+02  0.00000000000E+00 0. -1.
</event>
<event>
 7    1  0.2728221E-009  0.1077081E+03  0.7561462E-02  0.1264874E+00
          3   -1    0    0  501    0  0.00000000000E+00  0.00000000000E+00  0.49190300232E+02  0.49190300232E+02  0.00000000000E+00 0. -1.
         -3   -1    0    0    0  501 -0.00000000000E+00 -0.00000000000E+00 -0.27430687665E+03  0.27430687665E+03  0.00000000000E+00 0.  1.
         25    2    1    2    0    0  0.34915550590E+02 -0.10295496615E+02 -0.10108630979E+03  0.16489702199E+03  0.12508993928E+03 0.  0.
          5    1    3    3  502    0  0.64617534730E+02 -0.45026991184E+02 -0.39825181438E+02  0.88353682471E+02  0.41800000000E+01 0.  1.
         -5    1    3    3    0  502 -0.29701984140E+02  0.34731494569E+02 -0.61261128354E+02  0.76543339514E+02  0.41800000000E+01 0.  1.
        -11    1    1    2    0    0 -0.62365546450E+02  0.10275731735E+02 -0.11205405981E+03  0.12865132866E+03  0.00000000000E+00 0.  1.
         11    1    1    2    0    0  0.27449995860E+02  0.19764880279E-01 -0.11976206824E+02  0.29948826242E+02  0.00000000000E+00 0. -1.
</event>
<event>
 7    1  0.2728221E-009  0.9374089E+02  0.7561462E-02  0.1294037E+00
          1   -1    0    0  501    0  0.00000000000E+00  0.00000000000E+00  0.73558095230E+02  0.73558095230E+02  0.00000000000E+00 0. -1.
         -1   -1    0    0    0  501 -0.00000000000E+00 -0.00000000000E+00 -0.25340127682E+03  0.25340127682E+03  0.00000000000E+00 0.  1.
         25    2    1    2    0    0 -0.25548859152E+02  0.76824911861E+02 -0.11411668734E+03  0.18768046825E+03  0.12508608454E+03 0.  0.
          5    1    3    3  502    0 -0.30401184875E+02  0.24170466076E+02 -0.12718766450E+03  0.13305118516E+03  0.41800000000E+01 0. -1.
         -5    1    3    3    0  502  0.48523257238E+01  0.52654445785E+02  0.13070977166E+02  0.54629283081E+02  0.41800000000E+01 0. -1.
        -11    1    1    2    0    0  0.14465367690E+02 -0.81913186654E+02 -0.83410168513E+02  0.11779759429E+03  0.00000000000E+00 0.  1.
         11    1    1    2    0    0  0.11083491461E+02  0.50882747926E+01  0.17683674254E+02  0.21481309515E+02  0.00000000000E+00 0. -1.
</event>
<event>
 7    1  0.2728221E-009  0.9944951E+02  0.7561462E-02  0.1281458E+00
         -1   -1    0    0    0  501 -0.00000000000E+00  0.00000000000E+00  0.22903476306E+02  0.22903476306E+02  0.00000000000E+00 0.  1.
          1   -1    0    0  501    0  0.00000000000E+00 -0.00000000000E+00 -0.10307599188E+04  0.10307599188E+04  0.00000000000E+00 0. -1.
         25    2    1    2    0    0  0.30297058449E+02 -0.93329873549E+02 -0.69987469734E+03  0.71770695942E+03  0.12510120132E+03 0.  0.
          5    1    3    3  502    0  0.19009987965E+00 -0.30242890545E+02 -0.56420432397E+03  0.56502978696E+03  0.41800000000E+01 0.  1.
         -5    1    3    3    0  502  0.30106958569E+02 -0.63086983003E+02 -0.13567037337E+03  0.15267717246E+03  0.41800000000E+01 0.  1.
        -11    1    1    2    0    0 -0.25151037555E+02  0.68219280179E+02 -0.30062019490E+03  0.30928780523E+03  0.00000000000E+00 0. -1.
         11    1    1    2    0    0 -0.51460208939E+01  0.25110593369E+02 -0.73615502944E+01  0.26668630507E+02  0.00000000000E+00 0.  1.
</event>
<event>
 7    1  0.2728221E-009  0.1399246E+03  0.7561462E-02  0.1213431E+00
         -1   -1    0    0    0  501 -0.00000000000E+00  0.00000000000E+00  0.45630126707E+02  0.45630126707E+02  0.00000000000E+00 0.  1.
          1   -1    0    0  501    0  0.00000000000E+00 -0.00000000000E+00 -0.44561331424E+03  0.44561331424E+03  0.00000000000E+00 0. -1.
         25    2    1    2    0    0  0.31187799108E+02  0.79075475015E+02 -0.23480866516E+03  0.27929860322E+03  0.12508793293E+03 0.  0.
          5    1    3    3  502    0 -0.10895113898E+02  0.10129071008E+03 -0.14069803523E+03  0.17375822563E+03  0.41800000000E+01 0. -1.
         -5    1    3    3    0  502  0.42082913006E+02 -0.22215235069E+02 -0.94110629932E+02  0.10554037759E+03  0.41800000000E+01 0. -1.
        -11    1    1    2    0    0 -0.66841587256E+02 -0.43488132544E+02 -0.12117396651E+03  0.14505911077E+03  0.00000000000E+00 0. -1.
         11    1    1    2    0    0  0.35653788148E+02 -0.35587342470E+02 -0.44000555859E+02  0.66885726948E+02  0.00000000000E+00 0.  1.
</event>
<event>
 7    1  0.2728221E-009  0.9171058E+02  0.7561462E-02  0.1298761E+00
         -3   -1    0    0    0  501 -0.00000000000E+00  0.00000000000E+00  0.11608810758E+03  0.11608810758E+03  0.00000000000E+00 0.  1.
          3   -1    0    0  501    0  0.00000000000E+00 -0.00000000000E+00 -0.15775154393E+03  0.15775154393E+03  0.00000000000E+00 0. -1.
         25    2    1    2    0    0  0.53576091900E+02  0.32530774343E+02 -0.74752783413E+02  0.15863262551E+03  0.12509069648E+03 0.  0.
          5    1    3    3  502    0  0.61242020236E+01 -0.12372079566E+02  0.31037891821E+02  0.34225682344E+02  0.41800000000E+01 0. -1.
         -5    1    3    3    0  502  0.47451889877E+02  0.44902853909E+02 -0.10579067523E+03  0.12440694317E+03  0.41800000000E+01 0. -1.
        -11    1    1    2    0    0 -0.59616945049E+02 -0.54485148498E+02  0.77423054078E+01  0.81134177982E+02  0.00000000000E+00 0.  1.
         11    1    1    2    0    0  0.60408531485E+01  0.21954374155E+02  0.25347041658E+02  0.34072848019E+02  0.00000000000E+00 0. -1.
</event>
<event>
 7    1  0.2728221E-009  0.9788413E+02  0.7561462E-02  0.1284809E+00
         -2   -1    0    0    0  501 -0.00000000000E+00  0.00000000000E+00  0.24642441164E+03  0.24642441164E+03  0.00000000000E+00 0.  1.
          2   -1    0    0  501    0  0.00000000000E+00 -0.00000000000E+00 -0.95679135115E+02  0.95679135115E+02  0.00000000000E+00 0. -1.
         25    2    1    2    0    0  0.35553009782E+02 -0.63949914524E+02  0.17034705963E+03  0.22364226303E+03  0.12507650864E+03 0.  0.
          5    1    3    3  502    0 -0.78945865453E+01  0.17409981483E+02 -0.92942621348E+01  0.21663048275E+02  0.41800000000E+01 0.  1.
         -5    1    3    3    0  502  0.43447596327E+02 -0.81359896006E+02  0.17964132177E+03  0.20197921475E+03  0.41800000000E+01 0.  1.
        -11    1    1    2    0    0 -0.89398616293E+01  0.55107423614E+02  0.28575678422E+02  0.62716175430E+02  0.00000000000E+00 0.  1.
         11    1    1    2    0    0 -0.26613148153E+02  0.88424909101E+01 -0.48177461529E+02  0.55745108300E+02  0.00000000000E+00 0. -1.
</event>
<event>
 7    1  0.2728221E-009  0.8884135E+02  0.7561462E-02  0.1305682E+00
          1   -1    0    0  501    0  0.00000000000E+00  0.00000000000E+00  0.12642347229E+03  0.12642347229E+03  0.00000000000E+00 0. -1.
         -1   -1    0    0    0  501 -0.00000000000E+00 -0.00000000000E+00 -0.17100821507E+03  0.17100821507E+03  0.00000000000E+00 0.  1.
         25    2    1    2    0    0 -0.60177505741E+02 -0.13747164683E+02 -0.10412107837E+03  0.17406591602E+03  0.12508967753E+03 0.  0.
          5    1    3    3  502    0 -0.66865169452E+02 -0.25310719617E+02 -0.26839995386E+01  0.71667703095E+02  0.41800000000E+01 0.  1.
         -5    1    3    3    0  502  0.66876637101E+01  0.11563554935E+02 -0.10143707883E+03  0.10239821293E+03  0.41800000000E+01 0.  1.
        -11    1    1    2    0    0  0.73783921468E+01 -0.25329175964E+02  0.50612849794E+02  0.57075987858E+02  0.00000000000E+00 0. -1.
         11    1    1    2    0    0  0.52799113595E+02  0.39076340647E+02  0.89234857960E+01  0.66289783478E+02  0.00000000000E+00 0.  1.
</event>
<event>
 7    1  0.2728221E-009  0.1042522E+03  0.7561462E-02  0.1271600E+00
          4   -1    0    0  501    0  0.00000000000E+00  0.00000000000E+00  0.12624987538E+03  0.12624987538E+03  0.00000000000E+00 0. -1.
         -4   -1    0    0    0  501 -0.00000000000E+00 -0.00000000000E+00 -0.12907476326E+03  0.12907476326E+03  0.00000000000E+00 0.  1.
         25    2    1    2    0    0  0.21366965922E+02  0.39804768291E+02 -0.54435523326E+02  0.14370801319E+03  0.12509116693E+03 0.  0.
          5    1    3    3  502    0 -0.50534792593E+02  0.13632698239E+02 -0.55236725447E+01  0.52797718531E+02  0.41800000000E+01 0.  1.
         -5    1    3    3    0  502  0.71901758515E+02  0.26172070052E+02 -0.48911850781E+02  0.90910294660E+02  0.41800000000E+01 0.  1.
        -11    1    1    2    0    0 -0.18334113733E+01 -0.54743586747E+02  0.36430362994E+00  0.54775490909E+02  0.00000000000E+00 0.  1.
         11    1    1    2    0    0 -0.19533554548E+02  0.14938818456E+02  0.51246331818E+02  0.56841134533E+02  0.00000000000E+00 0. -1.
</event>
<event>
 7    1  0.2728221E-009  0.9591066E+02  0.7561462E-02  0.1289138E+00
         -2   -1    0    0    0  501 -0.00000000000E+00  0.00000000000E+00  0.84477731809E+02  0.84477731809E+02  0.00000000000E+00 0. -1.
          2   -1    0    0  501    0  0.00000000000E+00 -0.00000000000E+00 -0.15733883911E+03  0.15733883911E+03  0.00000000000E+00 0.  1.
         25    2    1    2    0    0 -0.19178260469E+02 -0.25917543828E+02 -0.70576757564E+02  0.14720261686E+03  0.12509199395E+03 0.  0.
          5    1    3    3  502    0  0.24498144572E+02 -0.49001148765E+02  0.67408891289E+01  0.55355068910E+02  0.41800000000E+01 0.  1.
         -5    1    3    3    0  502 -0.43676405041E+02  0.23083604938E+02 -0.77317646693E+02  0.91847547949E+02  0.41800000000E+01 0.  1.
        -11    1    1    2    0    0  0.46430396402E+02 -0.42761631398E+01 -0.19379464492E+02  0.50493870175E+02  0.00000000000E+00 0.  1.
         11    1    1    2    0    0 -0.27252135933E+02  0.30193706968E+02  0.17095114756E+02  0.44120083883E+02  0.00000000000E+00 0. -1.
</event>
<event>
 7    1  0.2728221E-009  0.1004948E+03  0.7561462E-02  0.1279259E+00
          2   -1    0    0  501    0  0.00000000000E+00  0.00000000000E+00  0.36095779794E+03  0.36095779794E+03  0.00000000000E+00 0. -1.
         -2   -1    0    0    0  501 -0.00000000000E+00 -0.00000000000E+00 -0.37781518311E+02  0.37781518311E+02  0.00000000000E+00 0.  1.
         25    2    1    2    0    0 -0.21519549153E+02  0.10908475167E+02  0.13766970930E+03  0.18756972343E+03  0.12508943386E+03 0.  0.
          5    1    3    3  502    0  0.15187156430E+02 -0.49117778964E+02  0.85592984999E+02  0.99934165388E+02  0.41800000000E+01 0.  1.
         -5    1    3    3    0  502 -0.36706705583E+02  0.60026254131E+02  0.52076724303E+02  0.87635558045E+02  0.41800000000E+01 0.  1.
        -11    1    1    2    0    0  0.19869481515E+02  0.31087740707E+02  0.15475455879E+03  0.15909185204E+03  0.00000000000E+00 0. -1.
         11    1    1    2    0    0  0.16500676374E+01 -0.41996215875E+02  0.30752011530E+02  0.52077740774E+02  0.00000000000E+00 0.  1.
</event>
<event>
 7    1  0.2728221E-009  0.2233866E+03  0.7561462E-02  0.1131383E+00
          2   -1    0    0  501    0  0.00000000000E+00  0.00000000000E+00  0.84770398615E+03  0.84770398615E+03  0.00000000000E+00 0. -1.
         -2   -1    0    0    0  501 -0.00000000000E+00 -0.00000000000E+00 -0.71581147940E+02  0.71581147940E+02  0.00000000000E+00 0.  1.
         25    2    1    2    0    0 -0.12390464999E+03  0.17139548194E+03  0.51969455112E+03  0.57485604236E+03  0.12509304316E+03 0.  0.
          5    1    3    3  502    0 -0.14110925190E+03  0.16175773193E+03  0.40485049577E+03  0.45825623961E+03  0.41800000000E+01 0. -1.
         -5    1    3    3    0  502  0.17204601910E+02  0.96377500125E+01  0.11484405535E+03  0.11659980275E+03  0.41800000000E+01 0. -1.
        -11    1    1    2    0    0  0.54958807564E+02 -0.64790486536E+02  0.17235643642E+03  0.19215883755E+03  0.00000000000E+00 0. -1.
         11    1    1    2    0    0  0.68945842426E+02 -0.10660499541E+03  0.84071850673E+02  0.15227025418E+03  0.00000000000E+00 0.  1.
</event>
<event>
 7    1  0.2728221E-009  0.1699035E+03  0.7561462E-02  0.1177949E+00
          2   -1    0    0  501    0  0.00000000000E+00  0.00000000000E+00  0.70558818697E+03  0.70558818697E+03  0.00000000000E+00 0.  1.
         -2   -1    0    0    0  501 -0.00000000000E+00 -0.00000000000E+00 -0.41302209009E+02  0.41302209009E+02  0.00000000000E+00 0. -1.
         25    2    1    2    0    0 -0.98292478650E+02 -0.85615072962E+02  0.32040554558E+03  0.36782991013E+03  0.12509107509E+03 0.  0.
          5    1    3    3  502    0 -0.11976310724E+03 -0.34032306984E+02  0.21660545088E+03  0.24987355507E+03  0.41800000000E+01 0. -1.
         -5    1    3    3    0  502  0.21470628587E+02 -0.51582765978E+02  0.10380009470E+03  0.11795635506E+03  0.41800000000E+01 0. -1.
        -11    1    1    2    0    0  0.11614180639E+02  0.70213036385E+02  0.14273345683E+03  0.15949169060E+03  0.00000000000E+00 0. -1.
         11    1    1    2    0    0  0.86678298012E+02  0.15402036577E+02  0.20114697554E+03  0.21956879525E+03  0.00000000000E+00 0.  1.
</event>
<event>
 7    1  0.3043216E-009  0.1255800E+03  0.7561462E-02  0.1234166E+00
          2   -1    0    0  501    0  0.00000000000E+00  0.00000000000E+00  0.58788358671E+03  0.58788358671E+03  0.00000000000E+00 0.  1.
         -2   -1    0    0    0  501 -0.00000000000E+00 -0.00000000000E+00 -0.36445355392E+02  0.36445355392E+02  0.00000000000E+00 0. -1.
         25    2    1    2    0    0  0.36605091029E+02 -0.70407148950E+02  0.42266303161E+03  0.44787087385E+03  0.12508869670E+03 0.  0.
          5    1    3    3  502    0 -0.28853833925E+02  0.10001073922E+02  0.35361736244E+02  0.46909380746E+02  0.41800000000E+01 0. -1.
         -5    1    3    3    0  502  0.65458924954E+02 -0.80408222871E+02  0.38730129536E+03  0.40096149310E+03  0.41800000000E+01 0. -1.
        -11    1    1    2    0    0  0.66411108974E+01  0.72946775778E+02  0.57801152397E+02  0.93307607775E+02  0.00000000000E+00 0.  1.
         11    1    1    2    0    0 -0.43246201927E+02 -0.25396268281E+01  0.70974047313E+02  0.83150460477E+02  0.00000000000E+00 0. -1.
</event>
<event>
 7    1  0.2728221E-009  0.9606053E+02  0.7561462E-02  0.1288805E+00
         -2   -1    0    0    0  501 -0.00000000000E+00  0.00000000000E+00  0.81811729385E+02  0.81811729385E+02  0.00000000000E+00 0.  1.
          2   -1    0    0  501    0  0.00000000000E+00 -0.00000000000E+00 -0.53429529663E+03  0.53429529663E+03  0.00000000000E+00 0. -1.
         25    2    1    2    0    0 -0.11800739418E+02 -0.29839680672E+01  0.26524956424E+02  0.12843589843E+03  0.12507615750E+03 0.  0.
          5    1    3    3  502    0 -0.49885656364E+02 -0.26000245584E+02  0.52229282032E+02  0.76876275813E+02  0.41800000000E+01 0.  1.
         -5    1    3    3    0  502  0.38084916946E+02  0.23016277516E+02 -0.25704325608E+02  0.51559622617E+02  0.41800000000E+01 0.  1.
        -11    1    1    2    0    0  0.38819205161E+02 -0.29505681962E+02 -0.28166022251E+03  0.28584960539E+03  0.00000000000E+00 0. -1.
         11    1    1    2    0    0 -0.27018465743E+02  0.32489650029E+02 -0.19734830116E+03  0.20182152219E+03  0.00000000000E+00 0.  1.
</event>
<event>
 7    1  0.2728221E-009  0.1285388E+03  0.7561462E-02  0.1229640E+00
         -2   -1    0    0    0  501 -0.00000000000E+00  0.00000000000E+00  0.11232510858E+03  0.11232510858E+03  0.00000000000E+00 0.  1.
          2   -1    0    0  501    0  0.00000000000E+00 -0.00000000000E+00 -0.17378503368E+03  0.17378503368E+03  0.00000000000E+00 0. -1.
         25    2    1    2    0    0 -0.87881508081E+02 -0.10618354035E+02 -0.43704766457E+02  0.15935042122E+03  0.12508613523E+03 0.  0.
          5    1    3    3  502    0  0.11392400495E+01 -0.53873144018E+02 -0.18592801884E+02  0.57155736337E+02  0.41800000000E+01 0. -1.
         -5    1    3    3    0  502 -0.89020748131E+02  0.43254789983E+02 -0.25111964573E+02  0.10219468489E+03  0.41800000000E+01 0. -1.
        -11    1    1    2    0    0  0.89686023432E+02 -0.34822608237E+01 -0.41657332158E+02  0.98949695614E+02  0.00000000000E+00 0. -1.
         11    1    1    2    0    0 -0.18045153507E+01  0.14100614859E+02  0.23902173520E+02  0.27810025423E+02  0.00000000000E+00 0.  1.
</event>
<event>
 7    1  0.2728221E-009  0.1667212E+03  0.7561462E-02  0.1181311E+00
          2   -1    0    0  501    0  0.00000000000E+00  0.00000000000E+00  0.10570689578E+03  0.10570689578E+03  0.00000000000E+00 0. -1.
         -2   -1    0    0    0  501 -0.00000000000E+00 -0.00000000000E+00 -0.31235871878E+03  0.31235871878E+03  0.00000000000E+00 0.  1.
         25    2    1    2    0    0 -0.38748681829E+02 -0.11022998248E+03 -0.49712285104E+02  0.17824546259E+03  0.12509206315E+03 0.  0.
          5    1    3    3  502    0  0.11355018007E+02 -0.11618767668E+03 -0.51316307945E+02  0.12759055023E+03  0.41800000000E+01 0.  1.
         -5    1    3    3    0  502 -0.50103699836E+02  0.59576942004E+01  0.16040228414E+01  0.50654912365E+02  0.41800000000E+01 0.  1.
        -11    1    1    2    0    0 -0.38317170623E+02  0.68169635374E+02 -0.12287096789E+03  0.14564538957E+03  0.00000000000E+00 0.  1.
         11    1    1    2    0    0  0.77065852452E+02  0.42060347104E+02 -0.34068570002E+02  0.94174762408E+02  0.00000000000E+00 0. -1.
</event>
<event>
 7    1  0.2728221E-009  0.1640087E+03  0.7561462E-02  0.1184244E+00
         -1   -1    0    0    0  501 -0.00000000000E+00  0.00000000000E+00  0.54569063289E+02  0.54569063289E+02  0.00000000000E+00 0.  1.
          1   -1    0    0  501    0  0.00000000000E+00 -0.00000000000E+00 -0.67396074176E+03  0.67396074176E+03  0.00000000000E+00 0. -1.
         25    2    1    2    0    0 -0.15827923844E+03 -0.31457894049E+01 -0.33725369591E+03  0.39300058450E+03  0.12508873131E+03 0.  0.
          5    1    3    3  502    0 -0.13592942263E+03 -0.19466564523E+02 -0.33815674620E+03  0.36499755133E+03  0.41800000000E+01 0. -1.
         -5    1    3    3    0  502 -0.22349815808E+02  0.16320775118E+02  0.90305029279E+00  0.28003033174E+02  0.41800000000E+01 0. -1.
        -11    1    1    2    0    0  0.52169621154E+02  0.18670305996E+02 -0.33497507760E+02  0.64748225639E+02  0.00000000000E+00 0.  1.
         11    1    1    2    0    0  0.10610961729E+03 -0.15524516591E+02 -0.24864047480E+03  0.27078099491E+03  0.00000000000E+00 0. -1.
</event>
<event>
 7    1  0.2728221E-009  0.1016894E+03  0.7561462E-02  0.1276783E+00
         -1   -1    0    0    0  501 -0.00000000000E+00  0.00000000000E+00  0.13108128516E+02  0.13108128516E+02  0.00000000000E+00 0.  1.
          1   -1    0    0  501    0  0.00000000000E+00 -0.00000000000E+00 -0.14630722526E+04  0.14630722526E+04  0.00000000000E+00 0. -1.
         25    2    1    2    0    0 -0.13835581893E+02  0.77972758589E+02 -0.96342904418E+03  0.97473688902E+03  0.12508119456E+03 0.  0.
          5    1    3    3  502    0 -0.72696110727E+01  0.71264158858E+02 -0.22349674213E+03  0.23473323950E+03  0.41800000000E+01 0.  1.
         -5    1    3    3    0  502 -0.65659708203E+01  0.67085997307E+01 -0.73993230205E+03  0.74000364951E+03  0.41800000000E+01 0.  1.
        -11    1    1    2    0    0 -0.25772302570E+00  0.21188194814E+02 -0.81847777652E+02  0.84546228344E+02  0.00000000000E+00 0. -1.
         11    1    1    2    0    0  0.14093304919E+02 -0.99160953403E+02 -0.40468730225E+03  0.41689726376E+03  0.00000000000E+00 0.  1.
</event>
<event>
 7    1  0.2728221E-009  0.9400144E+02  0.7561462E-02  0.1293441E+00
         -2   -1    0    0    0  501 -0.00000000000E+00  0.00000000000E+00  0.20058832771E+02  0.20058832771E+02  0.00000000000E+00 0.  1.
          2   -1    0    0  501    0  0.00000000000E+00 -0.00000000000E+00 -0.17820597322E+04  0.17820597322E+04  0.00000000000E+00 0. -1.
         25    2    1    2    0    0 -0.24804753676E+02  0.77882408840E+02 -0.15753645194E+04  0.15824350051E+04  0.12508489458E+03 0.  0.
          5    1    3    3  502    0 -0.35123959843E+02  0.57890113105E+02 -0.15311277233E+04  0.15326299407E+04  0.41800000000E+01 0. -1.
         -5    1    3    3    0  502  0.10319206167E+02  0.19992295735E+02 -0.44236796121E+02  0.49805064358E+02  0.41800000000E+01 0. -1.
        -11    1    1    2    0    0 -0.58818762299E+00 -0.70954884078E+02 -0.68414837422E+02  0.98567395820E+02  0.00000000000E+00 0.  1.
         11    1    1    2    0    0  0.25392941299E+02 -0.69275247618E+01 -0.11822154257E+03  0.12111616405E+03  0.00000000000E+00 0. -1.
</event>
<event>
 7    1  0.2728221E-009  0.1229107E+03  0.7561462E-02  0.1238371E+00
         -1   -1    0    0    0  501 -0.00000000000E+00  0.00000000000E+00  0.21232300031E+03  0.21232300031E+03  0.00000000000E+00 0.  1.
          1   -1    0    0  501    0  0.00000000000E+00 -0.00000000000E+00 -0.91874619513E+02  0.91874619513E+02  0.00000000000E+00 0. -1.
         25    2    1    2    0    0  0.29736407169E+02  0.82689330185E+02  0.65428979757E+02  0.16628332332E+03  0.12508961982E+03 0.  0.
          5    1    3    3  502    0 -0.44698464258E+02  0.55275750102E+02  0.45101535828E+02  0.84291056408E+02  0.41800000000E+01 0. -1.
         -5    1    3    3    0  502  0.74434871427E+02  0.27413580083E+02  0.20327443929E+02  0.81992266916E+02  0.41800000000E+01 0. -1.
        -11    1    1    2    0    0 -0.32342892863E+02 -0.35912889537E+02  0.73154537983E+02  0.87677732527E+02  0.00000000000E+00 0.  1.
         11    1    1    2    0    0  0.26064856940E+01 -0.46776440648E+02 -0.18135136946E+02  0.50236563969E+02  0.00000000000E+00 0. -1.
</event>
<event>
 7    1  0.2728221E-009  0.9948778E+02  0.7561462E-02  0.1281377E+00
          1   -1    0    0  501    0  0.00000000000E+00  0.00000000000E+00  0.70809812236E+03  0.70809812236E+03  0.00000000000E+00 0. -1.
         -1   -1    0    0    0  501 -0.00000000000E+00 -0.00000000000E+00 -0.20068965541E+02  0.20068965541E+02  0.00000000000E+00 0.  1.
         25    2    1    2    0    0  0.44744962875E+02 -0.26307624789E+02  0.41206526481E+03  0.43375065570E+03  0.12509055135E+03 0.  0.
          5    1    3    3  502    0 -0.39717786986E+02  0.48106155569E+01  0.78208319006E+02  0.87946905499E+02  0.41800000000E+01 0.  1.
         -5    1    3    3    0  502  0.84462749861E+02 -0.31118240346E+02  0.33385694580E+03  0.34580375020E+03  0.41800000000E+01 0.  1.
        -11    1    1    2    0    0 -0.66014046539E+01 -0.12555788607E+02  0.11195753484E+01  0.14229540397E+02  0.00000000000E+00 0.  1.
         11    1    1    2    0    0 -0.38143558221E+02  0.38863413396E+02  0.27484431667E+03  0.28018689180E+03  0.00000000000E+00 0. -1.
</event>
<event>
 7    1  0.2728221E-009  0.9677555E+02  0.7561462E-02  0.1287226E+00
          1   -1    0    0  501    0  0.00000000000E+00  0.00000000000E+00  0.48299531466E+03  0.48299531466E+03  0.00000000000E+00 0.  1.
         -1   -1    0    0    0  501 -0.00000000000E+00 -0.00000000000E+00 -0.28015999907E+02  0.28015999907E+02  0.00000000000E+00 0. -1.
         25    2    1    2    0    0 -0.19691805238E+02  0.37202502666E+02  0.27655063526E+03  0.30642945916E+03  0.12508783385E+03 0.  0.
          5    1    3    3  502    0 -0.45218379562E+01  0.83104795755E+02  0.16832843638E+03  0.18782648639E+03  0.41800000000E+01 0. -1.
         -5    1    3    3    0  502 -0.15169967282E+02 -0.45902293089E+02  0.10822219888E+03  0.11860297277E+03  0.41800000000E+01 0. -1.
        -11    1    1    2    0    0  0.18003807052E+02  0.56028001078E+01 -0.21626959106E+01  0.18979085621E+02  0.00000000000E+00 0. -1.
         11    1    1    2    0    0  0.16879981861E+01 -0.42805302774E+02  0.18059137540E+03  0.18560276979E+03  0.00000000000E+00 0.  1.
</event>
<event>
 7    1  0.2728221E-009  0.1216202E+03  0.7561462E-02  0.1240448E+00
         -2   -1    0    0    0  501 -0.00000000000E+00  0.00000000000E+00  0.43923631687E+03  0.43923631687E+03  0.00000000000E+00 0.  1.
          2   -1    0    0  501    0  0.00000000000E+00 -0.00000000000E+00 -0.40778703626E+02  0.40778703626E+02  0.00000000000E+00 0. -1.
         25    2    1    2    0    0  0.66413425151E+02  0.38191534035E+02  0.24787216469E+03  0.28802226683E+03  0.12508748879E+03 0.  0.
          5    1    3    3  502    0 -0.99132355693E+01 -0.26993318498E+02  0.11615561262E+02  0.31293851576E+02  0.41800000000E+01 0. -1.
         -5    1    3    3    0  502  0.76326660720E+02  0.65184852534E+02  0.23625660343E+03  0.25672841526E+03  0.41800000000E+01 0. -1.
        -11    1    1    2    0    0  0.20178239696E+02 -0.10882446126E+02  0.57766796680E+02  0.62149752933E+02  0.00000000000E+00 0.  1.
         11    1    1    2    0    0 -0.86591664847E+02 -0.27309087909E+02  0.92818651877E+02  0.12984300073E+03  0.00000000000E+00 0. -1.
</event>
<event>
 7    1  0.2728221E-009  0.1524608E+03  0.7561462E-02  0.1197481E+00
         -1   -1    0    0    0  501 -0.00000000000E+00  0.00000000000E+00  0.60131160278E+02  0.60131160278E+02  0.00000000000E+00 0.  1.
          1   -1    0    0  501    0  0.00000000000E+00 -0.00000000000E+00 -0.64902567364E+03  0.64902567364E+03  0.00000000000E+00 0. -1.
         25    2    1    2    0    0 -0.85154397451E+02 -0.91318231975E+02 -0.50117409985E+03  0.53142540451E+03  0.12508873372E+03 0.  0.
          5    1    3    3  502    0 -0.91921190290E+02 -0.15510124560E+02 -0.34856102438E+03  0.36083559873E+03  0.41800000000E+01 0.  1.
         -5    1    3    3    0  502  0.67667928392E+01 -0.75808107415E+02 -0.15261307546E+03  0.17058980578E+03  0.41800000000E+01 0.  1.
        -11    1    1    2    0    0  0.17189136081E+02  0.56422891581E+02  0.30820823054E+01  0.59063595597E+02  0.00000000000E+00 0.  1.
         11    1    1    2    0    0  0.67965261370E+02  0.34895340394E+02 -0.90802495822E+02  0.11866783381E+03  0.00000000000E+00 0. -1.
</event>
<event>
 7    1  0.2728221E-009  0.1490667E+03  0.7561462E-02  0.1201625E+00
          1   -1    0    0  501    0  0.00000000000E+00  0.00000000000E+00  0.44792090031E+03  0.44792090031E+03  0.00000000000E+00 0. -1.
         -1   -1    0    0    0  501 -0.00000000000E+00 -0.00000000000E+00 -0.82029235975E+02  0.82029235975E+02  0.00000000000E+00 0.  1.
         25    2    1    2    0    0  0.13727718464E+03 -0.24156615520E+02  0.88483783056E+02  0.20714853336E+03  0.12511022146E+03 0.  0.
          5    1    3    3  502    0  0.65405280869E+02 -0.39404129245E+02 -0.17185240274E+02  0.78379468296E+02  0.41800000000E+01 0. -1.
         -5    1    3    3    0  502  0.71871903767E+02  0.15247513724E+02  0.10566902333E+03  0.12876906506E+03  0.41800000000E+01 0. -1.
        -11    1    1    2    0    0 -0.67713812423E+02  0.37253954506E+02  0.21487327502E+03  0.22834960441E+03  0.00000000000E+00 0. -1.
         11    1    1    2    0    0 -0.69563372214E+02 -0.13097338985E+02  0.62534606258E+02  0.94451998507E+02  0.00000000000E+00 0.  1.
</event>
<event>
 7    1  0.2728221E-009  0.9237050E+02  0.7561462E-02  0.1297211E+00
         -1   -1    0    0    0  501 -0.00000000000E+00  0.00000000000E+00  0.58618660036E+02  0.58618660036E+02  0.00000000000E+00 0.  1.
          1   -1    0    0  501    0  0.00000000000E+00 -0.00000000000E+00 -0.26371282147E+03  0.26371282147E+03  0.00000000000E+00 0. -1.
         25    2    1    2    0    0 -0.62159629926E+01 -0.51175897215E+02 -0.72631483534E+02  0.15355549124E+03  0.12508535421E+03 0.  0.
          5    1    3    3  502    0 -0.56657660657E+02  0.29295176937E+01 -0.50926731559E+02  0.76352321329E+02  0.41800000000E+01 0. -1.
         -5    1    3    3    0  502  0.50441697665E+02 -0.54105414908E+02 -0.21704751975E+02  0.77203169909E+02  0.41800000000E+01 0. -1.
        -11    1    1    2    0    0  0.90443181917E+01  0.15270490229E+02  0.10987333690E+02  0.20873645225E+02  0.00000000000E+00 0.  1.
         11    1    1    2    0    0 -0.28283551991E+01  0.35905406986E+02 -0.14345001159E+03  0.14790234504E+03  0.00000000000E+00 0. -1.
</event>
<event>
 7    1  0.2728221E-009  0.1268545E+03  0.7561462E-02  0.1232199E+00
          1   -1    0    0  501    0  0.00000000000E+00  0.00000000000E+00  0.22486309603E+03  0.22486309603E+03  0.00000000000E+00 0. -1.
         -1   -1    0    0    0  501 -0.00000000000E+00 -0.00000000000E+00 -0.17690505531E+03  0.17690505531E+03  0.00000000000E+00 0.  1.
         25    2    1    2    0    0  0.68818518867E+02 -0.92368138023E+02  0.14849838965E+03  0.22575923380E+03  0.12509036117E+03 0.  0.
          5    1    3    3  502    0  0.63808249813E+02 -0.95349095750E+02  0.47075082528E+02  0.12408254752E+03  0.41800000000E+01 0. -1.
         -5    1    3    3    0  502  0.50102690542E+01  0.29809577269E+01  0.10142330712E+03  0.10167668628E+03  0.41800000000E+01 0. -1.
        -11    1    1    2    0    0  0.12535503023E+02  0.13473167997E+02 -0.47389744340E+02  0.50837515286E+02  0.00000000000E+00 0.  1.
         11    1    1    2    0    0 -0.81354021890E+02  0.78894970025E+02 -0.53150604595E+02  0.12517140225E+03  0.00000000000E+00 0. -1.
</event>
<event>
 7    1  0.2728221E-009  0.1622210E+03  0.7561462E-02  0.1186212E+00
          2   -1    0    0  501    0  0.00000000000E+00  0.00000000000E+00  0.93577996891E+02  0.93577996891E+02  0.00000000000E+00 0. -1.
         -2   -1    0    0    0  501 -0.00000000000E+00 -0.00000000000E+00 -0.33834908819E+03  0.33834908819E+03  0.00000000000E+00 0.  1.
         25    2    1    2    0    0 -0.67538996700E+02  0.11673662920E+03 -0.17511041601E+03  0.25396799591E+03  0.12508848260E+03 0.  0.
          5    1    3    3  502    0 -0.16700519375E+02  0.10751624239E+03 -0.16999809830E+03  0.20187985425E+03  0.41800000000E+01 0.  1.
         -5    1    3    3    0  502 -0.50838477326E+02  0.92203868075E+01 -0.51123177136E+01  0.52088141665E+02  0.41800000000E+01 0.  1.
        -11    1    1    2    0    0 -0.15278513393E+02 -0.63395469767E+02 -0.29648282561E+02  0.71634064644E+02  0.00000000000E+00 0. -1.
         11    1    1    2    0    0  0.82817510094E+02 -0.53341159435E+02 -0.40012392721E+02  0.10632502452E+03  0.00000000000E+00 0.  1.
</event>
<event>
 7    1  0.2728221E-009  0.1591221E+03  0.7561462E-02  0.1189691E+00
         -1   -1    0    0    0  501 -0.00000000000E+00  0.00000000000E+00  0.12775806423E+03  0.12775806423E+03  0.00000000000E+00 0.  1.
          1   -1    0    0  501    0  0.00000000000E+00 -0.00000000000E+00 -0.22817525188E+03  0.22817525188E+03  0.00000000000E+00 0. -1.
         25    2    1    2    0    0 -0.12876500472E+03 -0.17989235295E+01 -0.82306251085E+02  0.19750049297E+03  0.12509381755E+03 0.  0.
          5    1    3    3  502    0 -0.12719984335E+03  0.38794387427E+02 -0.82705860934E+02  0.15666057729E+03  0.41800000000E+01 0.  1.
         -5    1    3    3    0  502 -0.15651613684E+01 -0.40593310957E+02  0.39960984901E+00  0.40839915678E+02  0.41800000000E+01 0.  1.
        -11    1    1    2    0    0  0.12237309312E+03  0.20961865672E+02  0.91623561652E+01  0.12449306206E+03  0.00000000000E+00 0.  1.
         11    1    1    2    0    0  0.63919116045E+01 -0.19162942142E+02 -0.27273292734E+02  0.33939761079E+02  0.00000000000E+00 0. -1.
</event>
<event>
 7    1  0.2728221E-009  0.9553967E+02  0.7561462E-02  0.1289965E+00
         -1   -1    0    0    0  501 -0.00000000000E+00  0.00000000000E+00  0.86137054913E+02  0.86137054913E+02  0.00000000000E+00 0.  1.
          1   -1    0    0  501    0  0.00000000000E+00 -0.00000000000E+00 -0.16485375285E+03  0.16485375285E+03  0.00000000000E+00 0. -1.
         25    2    1    2    0    0  0.68283976413E+01  0.47743658155E+02 -0.41874568526E+02  0.14049672274E+03  0.12513898554E+03 0.  0.
          5    1    3    3  502    0  0.20158783720E+02  0.66417939043E+02 -0.73514265490E+02  0.10119060637E+03  0.41800000000E+01 0. -1.
         -5    1    3    3    0  502 -0.13330386078E+02 -0.18674280889E+02  0.31639696965E+02  0.39306116365E+02  0.41800000000E+01 0. -1.
        -11    1    1    2    0    0 -0.12285797003E+02  0.23633769919E+02  0.56748507535E+01  0.27234166403E+02  0.00000000000E+00 0.  1.
         11    1    1    2    0    0  0.54573993622E+01 -0.71377428074E+02 -0.42516980164E+02  0.83259918619E+02  0.00000000000E+00 0. -1.
</event>
<event>
 7    1  0.2728221E-009  0.3741540E+03  0.7561462E-02  0.1053116E+00
          1   -1    0    0  501    0  0.00000000000E+00  0.00000000000E+00  0.21723370392E+04  0.21723370392E+04  0.00000000000E+00 0. -1.
         -1   -1    0    0    0  501 -0.00000000000E+00 -0.00000000000E+00 -0.67726129824E+02  0.67726129824E+02  0.00000000000E+00 0.  1.
         25    2    1    2    0    0  0.32938169429E+03 -0.15167687065E+03  0.12561701528E+04  0.13134340149E+04  0.12508910847E+03 0.  0.
          5    1    3    3  502    0  0.19526028305E+03 -0.15435275222E+03  0.78546940625E+03  0.82397270028E+03  0.41800000000E+01 0.  1.
         -5    1    3    3    0  502  0.13412141123E+03  0.26758815683E+01  0.47070074654E+03  0.48946131460E+03  0.41800000000E+01 0.  1.
        -11    1    1    2    0    0 -0.17029524164E+03  0.10196072042E+03  0.36826272609E+03  0.41834661856E+03  0.00000000000E+00 0.  1.
         11    1    1    2    0    0 -0.15908645265E+03  0.49716150231E+02  0.48017803049E+03  0.50828253558E+03  0.00000000000E+00 0. -1.
</event>
<event>
 7    1  0.2728221E-009  0.9343933E+02  0.7561462E-02  0.1294730E+00
         -1   -1    0    0    0  501 -0.00000000000E+00  0.00000000000E+00  0.21755438507E+02  0.21755438507E+02  0.00000000000E+00 0.  1.
          1   -1    0    0  501    0  0.00000000000E+00 -0.00000000000E+00 -0.56195531317E+03  0.56195531317E+03  0.00000000000E+00 0. -1.
         25    2    1    2    0    0  0.14800895190E+01  0.18241189876E+02 -0.33761541801E+03  0.36050885804E+03  0.12509010583E+03 0.  0.
          5    1    3    3  502    0  0.34156421908E+02  0.60324505756E+02 -0.14763036424E+03  0.16314994330E+03  0.41800000000E+01 0. -1.
         -5    1    3    3    0  502 -0.32676332389E+02 -0.42083315880E+02 -0.18998505377E+03  0.19735891474E+03  0.41800000000E+01 0. -1.
        -11    1    1    2    0    0 -0.26373102079E+02 -0.26860002068E+02 -0.19056360487E+03  0.19424594648E+03  0.00000000000E+00 0. -1.
         11    1    1    2    0    0  0.24893012560E+02  0.86188121913E+01 -0.12020851789E+02  0.28955947155E+02  0.00000000000E+00 0.  1.
</event>
<event>
 7    1  0.2728221E-009  0.1243787E+03  0.7561462E-02  0.1236043E+00
         -2   -1    0    0    0  501 -0.00000000000E+00  0.00000000000E+00  0.64482068992E+02  0.64482068992E+02  0.00000000000E+00 0.  1.
          2   -1    0    0  501    0  0.00000000000E+00 -0.00000000000E+00 -0.29341022917E+03  0.29341022917E+03  0.00000000000E+00 0. -1.
         25    2    1    2    0    0  0.35285918606E+02  0.70044403323E+02 -0.16208329670E+03  0.21924816508E+03  0.12508976110E+03 0.  0.
          5    1    3    3  502    0  0.74143557640E+02  0.17305508847E+02 -0.56416954746E+02  0.94853007114E+02  0.41800000000E+01 0.  1.
         -5    1    3    3    0  502 -0.38857639034E+02  0.52738894476E+02 -0.10566634196E+03  0.12439515796E+03  0.41800000000E+01 0.  1.
        -11    1    1    2    0    0 -0.66795802867E+01  0.15385536988E+02 -0.41945121385E+02  0.45174381559E+02  0.00000000000E+00 0. -1.
         11    1    1    2    0    0 -0.28606338319E+02 -0.85429940311E+02 -0.24899742086E+02  0.93469751522E+02  0.00000000000E+00 0.  1.
</event>
<event>
 7    1  0.2728221E-009  0.1122879E+03  0.7561462E-02  0.1256391E+00
         -1   -1    0    0    0  501 -0.00000000000E+00  0.00000000000E+00  0.10679242557E+03  0.10679242557E+03  0.00000000000E+00 0.  1.
          1   -1    0    0  501    0  0.00000000000E+00 -0.00000000000E+00 -0.12970840615E+03  0.12970840615E+03  0.00000000000E+00 0. -1.
         25    2    1    2    0    0 -0.26947250841E+02  0.33088900080E+02 -0.58424788270E+01  0.13229612922E+03  0.12508837521E+03 0.  0.
          5    1    3    3  502    0  0.43223224259E+02  0.42945491479E+02 -0.53992910806E+01  0.61312210023E+02  0.41800000000E+01 0.  1.
         -5    1    3    3    0  502 -0.70170475101E+02 -0.98565913988E+01 -0.44318774635E+00  0.70983919202E+02  0.41800000000E+01 0.  1.
        -11    1    1    2    0    0 -0.29120991306E+02 -0.18788520327E+02  0.15319941148E+02  0.37891176116E+02  0.00000000000E+00 0.  1.
         11    1    1    2    0    0  0.56068242147E+02 -0.14300379753E+02 -0.32393442893E+02  0.66313526381E+02  0.00000000000E+00 0. -1.
</event>
<event>
 7    1  0.2728221E-009  0.1552908E+03  0.7561462E-02  0.1194118E+00
         -1   -1    0    0    0  501 -0.00000000000E+00  0.00000000000E+00  0.46447176443E+02  0.46447176443E+02  0.00000000000E+00 0.  1.
          1   -1    0    0  501    0  0.00000000000E+00 -0.00000000000E+00 -0.52589065277E+03  0.52589065277E+03  0.00000000000E+00 0. -1.
         25    2    1    2    0    0  0.11172758581E+03 -0.31016575297E+01 -0.28343345394E+03  0.32935339806E+03  0.12508582771E+03 0.  0.
          5    1    3    3  502    0 -0.23932573496E+02 -0.18735260529E+02 -0.61750884009E+02  0.68952317852E+02  0.41800000000E+01 0.  1.
         -5    1    3    3    0  502  0.13566015930E+03  0.15633602999E+02 -0.22168256993E+03  0.26040108021E+03  0.41800000000E+01 0.  1.
        -11    1    1    2    0    0 -0.15119871874E+02  0.37735266624E+02 -0.48466699417E+02  0.63258057392E+02  0.00000000000E+00 0. -1.
         11    1    1    2    0    0 -0.96607713934E+02 -0.34633609094E+02 -0.14754332297E+03  0.17972637376E+03  0.00000000000E+00 0.  1.
</event>
<event>
 7    1  0.2728221E-009  0.1206948E+03  0.7561462E-02  0.1241955E+00
          2   -1    0    0  501    0  0.00000000000E+00  0.00000000000E+00  0.92821273593E+03  0.92821273593E+03  0.00000000000E+00 0. -1.
         -2   -1    0    0    0  501 -0.00000000000E+00 -0.00000000000E+00 -0.17401631722E+02  0.17401631722E+02  0.00000000000E+00 0.  1.
         25    2    1    2    0    0  0.92823070597E+01  0.64789318989E+02  0.45942225460E+03  0.48062524141E+03  0.12509195649E+03 0.  0.
          5    1    3    3  502    0  0.33899294633E+02  0.90342160237E+02  0.24686095201E+03  0.26508238365E+03  0.41800000000E+01 0.  1.
         -5    1    3    3    0  502 -0.24616987573E+02 -0.25552841248E+02  0.21256130259E+03  0.21554285776E+03  0.41800000000E+01 0.  1.
        -11    1    1    2    0    0 -0.46383447896E+02 -0.18945420895E+02  0.25750066111E+03  0.26232983758E+03  0.00000000000E+00 0.  1.
         11    1    1    2    0    0  0.37101140836E+02 -0.45843898094E+02  0.19388818849E+03  0.20265928866E+03  0.00000000000E+00 0. -1.
</event>
<event>
 7    1  0.2728221E-009  0.1618801E+03  0.7561462E-02  0.1186590E+00
          2   -1    0    0  501    0  0.00000000000E+00  0.00000000000E+00  0.92269639362E+03  0.92269639362E+03  0.00000000000E+00 0. -1.
         -2   -1    0    0    0  501 -0.00000000000E+00 -0.00000000000E+00 -0.56480258669E+02  0.56480258669E+02  0.00000000000E+00 0.  1.
         25    2    1    2    0    0 -0.93552700454E+02  0.99292078699E+02  0.76117346260E+03  0.78335441268E+03  0.12509225017E+03 0.  0.
          5    1    3    3  502    0 -0.10691517601E+03  0.73507946119E+02  0.72616420446E+03  0.73767621437E+03  0.41800000000E+01 0. -1.
         -5    1    3    3    0  502  0.13362475561E+02  0.25784132581E+02  0.35009258142E+02  0.45678198319E+02  0.41800000000E+01 0. -1.
        -11    1    1    2    0    0  0.10171363399E+03 -0.47648153145E+02  0.79662123908E+02  0.13770280979E+03  0.00000000000E+00 0. -1.
         11    1    1    2    0    0 -0.81609335389E+01 -0.51643925554E+02  0.25380548444E+02  0.58119429817E+02  0.00000000000E+00 0.  1.
</event>
<event>
 7    1  0.2728221E-009  0.9030095E+02  0.7561462E-02  0.1302125E+00
         -1   -1    0    0    0  501 -0.00000000000E+00  0.00000000000E+00  0.69295650359E+02  0.69295650359E+02  0.00000000000E+00 0.  1.
          1   -1    0    0  501    0  0.00000000000E+00 -0.00000000000E+00 -0.22528285684E+03  0.22528285684E+03  0.00000000000E+00 0. -1.
         25    2    1    2    0    0  0.47860740892E+02  0.35801748674E+00 -0.38961773859E+02  0.13948792130E+03  0.12509229261E+03 0.  0.
          5    1    3    3  502    0  0.31594719848E+02  0.33933685483E+02 -0.74463649311E+02  0.87818157584E+02  0.41800000000E+01 0.  1.
         -5    1    3    3    0  502  0.16266021043E+02 -0.33575667996E+02  0.35501875452E+02  0.51669763717E+02  0.41800000000E+01 0.  1.
        -11    1    1    2    0    0 -0.72172656407E+02 -0.11583286922E+01 -0.10633526286E+03  0.12852012366E+03  0.00000000000E+00 0. -1.
         11    1    1    2    0    0  0.24311915515E+02  0.80031120551E+00 -0.10690169765E+02  0.26570462240E+02  0.00000000000E+00 0.  1.
</event>
<event>
 7    1  0.2728221E-009  0.1402929E+03  0.7561462E-02  0.1212935E+00
          1   -1    0    0  501    0  0.00000000000E+00  0.00000000000E+00  0.34249524156E+03  0.34249524156E+03  0.00000000000E+00 0. -1.
         -1   -1    0    0    0  501 -0.00000000000E+00 -0.00000000000E+00 -0.71998575599E+02  0.71998575599E+02  0.00000000000E+00 0.  1.
         25    2    1    2    0    0  0.91335698829E+02 -0.74470356008E+01  0.23134869495E+03  0.27851040130E+03  0.12509259273E+03 0.  0.
          5    1    3    3  502    0 -0.20600330281E+02  0.29728327298E+02  0.44328611882E+02  0.57364146320E+02  0.41800000000E+01 0. -1.
         -5    1    3    3    0  502  0.11193602911E+03 -0.37175362898E+02  0.18702008307E+03  0.22114625498E+03  0.41800000000E+01 0. -1.
        -11    1    1    2    0    0 -0.10617187331E+03  0.18346420687E+02  0.20308290129E+02  0.10964253045E+03  0.00000000000E+00 0. -1.
         11    1    1    2    0    0  0.14836174486E+02 -0.10899385086E+02  0.18839680883E+02  0.26340885415E+02  0.00000000000E+00 0.  1.
</event>
<event>
 7    1  0.2728221E-009  0.1359321E+03  0.7561462E-02  0.1218910E+00
         -3   -1    0    0    0  501 -0.00000000000E+00  0.00000000000E+00  0.68256286033E+02  0.68256286033E+02  0.00000000000E+00 0.  1.
          3   -1    0    0  501    0  0.00000000000E+00 -0.00000000000E+00 -0.50206729977E+03  0.50206729977E+03  0.00000000000E+00 0. -1.
         25    2    1    2    0    0 -0.64460546253E+02 -0.85422180761E+02 -0.76304465624E+02  0.18144363614E+03  0.12508921070E+03 0.  0.
          5    1    3    3  502    0 -0.69225990771E+02 -0.28232854343E+02  0.12213288528E+02  0.75868100538E+02  0.41800000000E+01 0.  1.
         -5    1    3    3    0  502  0.47654445177E+01 -0.57189326418E+02 -0.88517754152E+02  0.10557553560E+03  0.41800000000E+01 0.  1.
        -11    1    1    2    0    0 -0.21947486735E+01  0.71271460517E+02 -0.10206347231E+03  0.12450457978E+03  0.00000000000E+00 0. -1.
         11    1    1    2    0    0  0.66655294926E+02  0.14150720244E+02 -0.25544307581E+03  0.26437536989E+03  0.00000000000E+00 0.  1.
</event>
<event>
 7    1  0.2728221E-009  0.7883108E+02  0.7561462E-02  0.1332402E+00
         -1   -1    0    0    0  501 -0.00000000000E+00  0.00000000000E+00  0.28189493486E+02  0.28189493486E+02  0.00000000000E+00 0.  1.
          1   -1    0    0  501    0  0.00000000000E+00 -0.00000000000E+00 -0.46416687693E+03  0.46416687693E+03  0.00000000000E+00 0. -1.
         25    2    1    2    0    0 -0.27365901195E+02  0.23959264428E+02 -0.26488039232E+03  0.29518131130E+03  0.12508974941E+03 0.  0.
          5    1    3    3  502    0  0.18240472695E+02  0.25488307102E+02 -0.58846710176E+01  0.32163183860E+02  0.41800000000E+01 0. -1.
         -5    1    3    3    0  502 -0.45606373890E+02 -0.15290426732E+01 -0.25899572130E+03  0.26301812744E+03  0.41800000000E+01 0. -1.
        -11    1    1    2    0    0 -0.13782240393E+02  0.17185265415E+02 -0.70756656058E+01  0.23137600165E+02  0.00000000000E+00 0.  1.
         11    1    1    2    0    0  0.41148141588E+02 -0.41144529844E+02 -0.16402132552E+03  0.17403745895E+03  0.00000000000E+00 0. -1.
</event>
<event>
 7    1  0.2728221E-009  0.9015264E+02  0.7561462E-02  0.1302482E+00
         -1   -1    0    0    0  501 -0.00000000000E+00  0.00000000000E+00  0.18285576650E+03  0.18285576650E+03  0.00000000000E+00 0.  1.
          1   -1    0    0  501    0  0.00000000000E+00 -0.00000000000E+00 -0.70846825718E+02  0.70846825718E+02  0.00000000000E+00 0. -1.
         25    2    1    2    0    0  0.57433005221E+01 -0.13312941619E+02  0.91563395187E+02  0.15571054095E+03  0.12510674366E+03 0.  0.
          5    1    3    3  502    0  0.34419993419E+02 -0.57056599481E+02  0.25796439130E+02  0.71575974761E+02  0.41800000000E+01 0. -1.
         -5    1    3    3    0  502 -0.28676692897E+02  0.43743657862E+02  0.65766956057E+02  0.84134566188E+02  0.41800000000E+01 0. -1.
        -11    1    1    2    0    0  0.21880723074E+02  0.23046111486E+02  0.48140010375E+02  0.57683185555E+02  0.00000000000E+00 0.  1.
         11    1    1    2    0    0 -0.27624023596E+02 -0.97331698668E+01 -0.27694464783E+02  0.40308865711E+02  0.00000000000E+00 0. -1.
</event>
<event>
 7    1  0.2728221E-009  0.2061264E+03  0.7561462E-02  0.1144671E+00
         -2   -1    0    0    0  501 -0.00000000000E+00  0.00000000000E+00  0.32327143223E+02  0.32327143223E+02  0.00000000000E+00 0.  1.
          2   -1    0    0  501    0  0.00000000000E+00 -0.00000000000E+00 -0.14067852711E+04  0.14067852711E+04  0.00000000000E+00 0. -1.
         25    2    1    2    0    0  0.36497636228E+02 -0.17935925137E+03 -0.73924047969E+03  0.77176658665E+03  0.12508140929E+03 0.  0.
          5    1    3    3  502    0 -0.39571181349E+02 -0.74603253090E+02 -0.19904696486E+03  0.21626070005E+03  0.41800000000E+01 0.  1.
         -5    1    3    3    0  502  0.76068817577E+02 -0.10475599828E+03 -0.54019351483E+03  0.55550588660E+03  0.41800000000E+01 0.  1.
        -11    1    1    2    0    0 -0.56032231508E+02  0.84963265631E+02 -0.24293125586E+03  0.26338937441E+03  0.00000000000E+00 0.  1.
         11    1    1    2    0    0  0.19534595280E+02  0.94395985739E+02 -0.39228639235E+03  0.40395645329E+03  0.00000000000E+00 0. -1.
</event>
<event>
 7    1  0.2728221E-009  0.2148044E+03  0.7561462E-02  0.1137817E+00
         -2   -1    0    0    0  501 -0.00000000000E+00  0.00000000000E+00  0.22822648681E+02  0.22822648681E+02  0.00000000000E+00 0. -1.
          2   -1    0    0  501    0  0.00000000000E+00 -0.00000000000E+00 -0.25008771438E+04  0.25008771438E+04  0.00000000000E+00 0.  1.
         25    2    1    2    0    0 -0.16333317957E+03  0.12859686705E+03 -0.15044713185E+04  0.15239083724E+04  0.12509155634E+03 0.  0.
          5    1    3    3  502    0 -0.87576841723E+02  0.21238907738E+02 -0.33020755430E+03  0.34230877249E+03  0.41800000000E+01 0. -1.
         -5    1    3    3    0  502 -0.75756337849E+02  0.10735795931E+03 -0.11742637642E+04  0.11815995999E+04  0.41800000000E+01 0. -1.
        -11    1    1    2    0    0  0.15037667622E+03 -0.11673921049E+03 -0.95660362907E+03  0.97536233840E+03  0.00000000000E+00 0.  1.
         11    1    1    2    0    0  0.12956503352E+02 -0.11857656552E+02 -0.16979547573E+02  0.24429081722E+02  0.00000000000E+00 0. -1.
</event>
<event>
 7    1  0.2728221E-009  0.1311377E+03  0.7561462E-02  0.1225777E+00
          1   -1    0    0  501    0  0.00000000000E+00  0.00000000000E+00  0.19559377228E+03  0.19559377228E+03  0.00000000000E+00 0. -1.
         -1   -1    0    0    0  501 -0.00000000000E+00 -0.00000000000E+00 -0.94471908929E+02  0.94471908929E+02  0.00000000000E+00 0.  1.
         25    2    1    2    0    0 -0.18069991453E+01  0.75994644626E+02  0.87196087712E+02  0.17037761712E+03  0.12508766305E+03 0.  0.
          5    1    3    3  502    0 -0.75387374313E+01 -0.33682123308E+02  0.10366416660E+02  0.36280201033E+02  0.41800000000E+01 0. -1.
         -5    1    3    3    0  502  0.57317382860E+01  0.10967676793E+03  0.76829671052E+02  0.13409741609E+03  0.41800000000E+01 0. -1.
        -11    1    1    2    0    0 -0.33565086247E+02 -0.75053589835E+02  0.16471423946E+01  0.82233627184E+02  0.00000000000E+00 0.  1.
         11    1    1    2    0    0  0.35372085392E+02 -0.94105479087E+00  0.12278633241E+02  0.37454436898E+02  0.00000000000E+00 0. -1.
</event>
<event>
 7    1  0.2728221E-009  0.1614487E+03  0.7561462E-02  0.1187071E+00
          2   -1    0    0  501    0  0.00000000000E+00  0.00000000000E+00  0.51607262713E+03  0.51607262713E+03  0.00000000000E+00 0.  1.
         -2   -1    0    0    0  501 -0.00000000000E+00 -0.00000000000E+00 -0.56440797190E+02  0.56440797190E+02  0.00000000000E+00 0. -1.
         25    2    1    2    0    0 -0.61544211349E+02 -0.10517233412E+03  0.16690647063E+03  0.24155717372E+03  0.12507273253E+03 0.  0.
          5    1    3    3  502    0  0.36438882602E+02 -0.20948293646E+02  0.62261773680E+02  0.75237118723E+02  0.41800000000E+01 0.  1.
         -5    1    3    3    0  502 -0.97983093951E+02 -0.84224040474E+02  0.10464469695E+03  0.16632005499E+03  0.41800000000E+01 0.  1.
        -11    1    1    2    0    0  0.80281474612E+02  0.53642360611E+02  0.15372582826E+03  0.18153305014E+03  0.00000000000E+00 0. -1.
         11    1    1    2    0    0 -0.18737263264E+02  0.51529973510E+02  0.13899953106E+03  0.14942320047E+03  0.00000000000E+00 0.  1.
</event>
<event>
 7    1  0.2728221E-009  0.1038751E+03  0.7561462E-02  0.1272352E+00
          1   -1    0    0  501    0  0.00000000000E+00  0.00000000000E+00  0.55418683921E+02  0.55418683921E+02  0.00000000000E+00 0. -1.
         -1   -1    0    0    0  501 -0.00000000000E+00 -0.00000000000E+00 -0.30399379313E+03  0.30399379313E+03  0.00000000000E+00 0.  1.
         25    2    1    2    0    0  0.41217332505E+02 -0.31740084294E+02 -0.69973148377E+02  0.15247325602E+03  0.12508217642E+03 0.  0.
          5    1    3    3  502    0 -0.12430468936E+01 -0.54677045652E+02 -0.85520597376E+02  0.10159906231E+03  0.41800000000E+01 0. -1.
         -5    1    3    3    0  502  0.42460379399E+02  0.22936961358E+02  0.15547448999E+02  0.50874193708E+02  0.41800000000E+01 0. -1.
        -11    1    1    2    0    0  0.27167344124E+02  0.22850113240E+02 -0.64168676024E+02  0.73333561515E+02  0.00000000000E+00 0.  1.
         11    1    1    2    0    0 -0.68384676630E+02  0.88899710532E+01 -0.11443328481E+03  0.13360565952E+03  0.00000000000E+00 0. -1.
</event>
<event>
 7    1  0.2728221E-009  0.1240759E+03  0.7561462E-02  0.1236521E+00
         -1   -1    0    0    0  501 -0.00000000000E+00  0.00000000000E+00  0.30636433279E+02  0.30636433279E+02  0.00000000000E+00 0.  1.
          1   -1    0    0  501    0  0.00000000000E+00 -0.00000000000E+00 -0.60584552436E+03  0.60584552436E+03  0.00000000000E+00 0. -1.
         25    2    1    2    0    0  0.28691834974E+02  0.76762282509E+02 -0.33148285354E+03  0.36365502530E+03  0.12509366822E+03 0.  0.
          5    1    3    3  502    0  0.71316796119E+02  0.23615318852E+02 -0.12203649708E+03  0.14336717795E+03  0.41800000000E+01 0.  1.
         -5    1    3    3    0  502 -0.42624961145E+02  0.53146963657E+02 -0.20944635646E+03  0.22028784735E+03  0.41800000000E+01 0.  1.
        -11    1    1    2    0    0 -0.30447156109E+02 -0.26952753700E+01 -0.18501534111E+02  0.35729547841E+02  0.00000000000E+00 0.  1.
         11    1    1    2    0    0  0.17553211355E+01 -0.74067007139E+02 -0.22522470343E+03  0.23709738450E+03  0.00000000000E+00 0. -1.
</event>
<event>
 7    1  0.2728221E-009  0.1036636E+03  0.7561462E-02  0.1272775E+00
         -2   -1    0    0    0  501 -0.00000000000E+00  0.00000000000E+00  0.25149876598E+02  0.25149876598E+02  0.00000000000E+00 0.  1.
          2   -1    0    0  501    0  0.00000000000E+00 -0.00000000000E+00 -0.50792365642E+03  0.50792365642E+03  0.00000000000E+00 0. -1.
         25    2    1    2    0    0  0.21458164456E+02 -0.77242308763E+01 -0.32708862708E+03  0.35093268993E+03  0.12508663528E+03 0.  0.
          5    1    3    3  502    0 -0.50045185690E+02  0.74052186415E+01 -0.17378530886E+03  0.18104740774E+03  0.41800000000E+01 0. -1.
         -5    1    3    3    0  502  0.71503350145E+02 -0.15129449518E+02 -0.15330331822E+03  0.16988528219E+03  0.41800000000E+01 0. -1.
        -11    1    1    2    0    0  0.22876838866E+02  0.26676890929E+02 -0.11089755559E+03  0.11633260120E+03  0.00000000000E+00 0. -1.
         11    1    1    2    0    0 -0.44335003321E+02 -0.18952660052E+02 -0.44787597144E+02  0.65808241889E+02  0.00000000000E+00 0.  1.
</event>
<event>
 7    1  0.2728221E-009  0.1163980E+03  0.7561462E-02  0.1249160E+00
          2   -1    0    0  501    0  0.00000000000E+00  0.00000000000E+00  0.36594929270E+02  0.36594929270E+02  0.00000000000E+00 0. -1.
         -2   -1    0    0    0  501 -0.00000000000E+00 -0.00000000000E+00 -0.43191013792E+03  0.43191013792E+03  0.00000000000E+00 0.  1.
         25    2    1    2    0    0  0.30951525797E+02 -0.60519116213E+02 -0.24238027289E+03  0.28109823737E+03  0.12508981570E+03 0.  0.
          5    1    3    3  502    0 -0.10226030591E+01  0.38030222884E+02 -0.56284764235E+02  0.68064606475E+02  0.41800000000E+01 0.  1.
         -5    1    3    3    0  502  0.31974128856E+02 -0.98549339097E+02 -0.18609550865E+03  0.21303363090E+03  0.41800000000E+01 0.  1.
        -11    1    1    2    0    0  0.17245734148E+02  0.27318454090E+02 -0.11417199320E+02  0.34264642425E+02  0.00000000000E+00 0. -1.
         11    1    1    2    0    0 -0.48197259945E+02  0.33200662123E+02 -0.14151773645E+03  0.15314218740E+03  0.00000000000E+00 0.  1.
</event>
<event>
 7    1  0.2728221E-009  0.1493928E+03  0.7561462E-02  0.1201221E+00
          1   -1    0    0  501    0  0.00000000000E+00  0.00000000000E+00  0.50165011356E+02  0.50165011356E+02  0.00000000000E+00 0. -1.
         -1   -1    0    0    0  501 -0.00000000000E+00 -0.00000000000E+00 -0.55824310045E+03  0.55824310045E+03  0.00000000000E+00 0.  1.
         25    2    1    2    0    0  0.10146707908E+03 -0.19474602203E+02 -0.40166604925E+03  0.43319061935E+03  0.12507465494E+03 0.  0.
          5    1    3    3  502    0 -0.28504027759E+02 -0.78670537643E+01 -0.10287507127E+03  0.10712199971E+03  0.41800000000E+01 0. -1.
         -5    1    3    3    0  502  0.12997110684E+03 -0.11607548439E+02 -0.29879097798E+03  0.32606861964E+03  0.41800000000E+01 0. -1.
        -11    1    1    2    0    0 -0.71172515217E+02 -0.32473147801E+02 -0.50568775841E+02  0.93151668480E+02  0.00000000000E+00 0.  1.
         11    1    1    2    0    0 -0.30294563861E+02  0.51947750004E+02 -0.55843264005E+02  0.82065823976E+02  0.00000000000E+00 0. -1.
</event>
<event>
 7    1  0.2728221E-009  0.1923772E+03  0.7561462E-02  0.1156335E+00
         -2   -1    0    0    0  501 -0.00000000000E+00  0.00000000000E+00  0.75170791552E+02  0.75170791552E+02  0.00000000000E+00 0.  1.
          2   -1    0    0  501    0  0.00000000000E+00 -0.00000000000E+00 -0.58943337348E+03  0.58943337348E+03  0.00000000000E+00 0. -1.
         25    2    1    2    0    0  0.16031473264E+03  0.75896417179E+02 -0.21495280832E+03  0.30547193835E+03  0.12508923083E+03 0.  0.
          5    1    3    3  502    0  0.89476157620E+02 -0.50155013068E+01 -0.36035292993E+02  0.96680674268E+02  0.41800000000E+01 0. -1.
         -5    1    3    3    0  502  0.70838575020E+02  0.80911918486E+02 -0.17891751533E+03  0.20879126408E+03  0.41800000000E+01 0. -1.
        -11    1    1    2    0    0 -0.61225468733E+02 -0.62390936684E+02 -0.81730205173E+02  0.11967043678E+03  0.00000000000E+00 0.  1.
         11    1    1    2    0    0 -0.99089263907E+02 -0.13505480495E+02 -0.21757956843E+03  0.23946178991E+03  0.00000000000E+00 0. -1.
</event>
<event>
 7    1  0.2728221E-009  0.1018662E+03  0.7561462E-02  0.1276420E+00
          1   -1    0    0  501    0  0.00000000000E+00  0.00000000000E+00  0.21052873721E+03  0.21052873721E+03  0.00000000000E+00 0. -1.
         -1   -1    0    0    0  501 -0.00000000000E+00 -0.00000000000E+00 -0.61772719747E+02  0.61772719747E+02  0.00000000000E+00 0.  1.
         25    2    1    2    0    0  0.28643142486E+02  0.30863381910E+02  0.11654723438E+03  0.17606613685E+03  0.12507217416E+03 0.  0.
          5    1    3    3  502    0  0.27103798453E+01 -0.39127194932E+02  0.87289616705E+02  0.95787437207E+02  0.41800000000E+01 0. -1.
         -5    1    3    3    0  502  0.25932762640E+02  0.69990576842E+02  0.29257617677E+02  0.80278699647E+02  0.41800000000E+01 0. -1.
        -11    1    1    2    0    0  0.27630131541E+02 -0.12616727980E+02  0.18311991737E+02  0.35467379876E+02  0.00000000000E+00 0.  1.
         11    1    1    2    0    0 -0.56273274027E+02 -0.18246653931E+02  0.13896791340E+02  0.60767940222E+02  0.00000000000E+00 0. -1.
</event>
<event>
 7    1  0.2728221E-009  0.1457520E+03  0.7561462E-02  0.1205792E+00
         -2   -1    0    0    0  501 -0.00000000000E+00  0.00000000000E+00  0.38415060556E+03  0.38415060556E+03  0.00000000000E+00 0.  1.
          2   -1    0    0  501    0  0.00000000000E+00 -0.00000000000E+00 -0.63649403573E+02  0.63649403573E+02  0.00000000000E+00 0. -1.
         25    2    1    2    0    0 -0.77692972979E+02 -0.81501447245E+02  0.17629962576E+03  0.24373701949E+03  0.12508993834E+03 0.  0.
          5    1    3    3  502    0 -0.10226377385E+03 -0.23698820945E+02  0.10312814864E+03  0.14721549170E+03  0.41800000000E+01 0.  1.
         -5    1    3    3    0  502  0.24570800868E+02 -0.57802626300E+02  0.73171477116E+02  0.96521527784E+02  0.41800000000E+01 0.  1.
        -11    1    1    2    0    0  0.31874634902E+02  0.69000219271E+02  0.13609781555E+03  0.15588341159E+03  0.00000000000E+00 0.  1.
         11    1    1    2    0    0  0.45818338077E+02  0.12501227973E+02  0.81037606779E+01  0.48179578060E+02  0.00000000000E+00 0. -1.
</event>
<event>
 7    1  0.2728221E-009  0.1158682E+03  0.7561462E-02  0.1250073E+00
         -1   -1    0    0    0  501 -0.00000000000E+00  0.00000000000E+00  0.35803979056E+02  0.35803979056E+02  0.00000000000E+00 0.  1.
          1   -1    0    0  501    0  0.00000000000E+00 -0.00000000000E+00 -0.38656243946E+03  0.38656243946E+03  0.00000000000E+00 0. -1.
         25    2    1    2    0    0 -0.10796361494E+02 -0.39598823295E+02 -0.16268491501E+03  0.20928109502E+03  0.12509023516E+03 0.  0.
          5    1    3    3  502    0  0.56948031287E+02 -0.12131626858E+02 -0.75198281671E+02  0.95197209014E+02  0.41800000000E+01 0.  1.
         -5    1    3    3    0  502 -0.67744392780E+02 -0.27467196437E+02 -0.87486633341E+02  0.11408388601E+03  0.41800000000E+01 0.  1.
        -11    1    1    2    0    0  0.49011599119E+02  0.37778404891E+02 -0.11375667206E+03  0.12949874580E+03  0.00000000000E+00 0. -1.
         11    1    1    2    0    0 -0.38215237625E+02  0.18204184043E+01 -0.74316873332E+02  0.83586577701E+02  0.00000000000E+00 0.  1.
</event>
<event>
 7    1  0.2728221E-009  0.7071561E+02  0.7561462E-02  0.1357676E+00
         -2   -1    0    0    0  501 -0.00000000000E+00  0.00000000000E+00  0.26544632219E+02  0.26544632219E+02  0.00000000000E+00 0. -1.
          2   -1    0    0  501    0  0.00000000000E+00 -0.00000000000E+00 -0.57418192169E+03  0.57418192169E+03  0.00000000000E+00 0.  1.
         25    2    1    2    0    0 -0.15767561989E+02  0.65921970692E+01 -0.47104092161E+03  0.48766765912E+03  0.12509245720E+03 0.  0.
          5    1    3    3  502    0 -0.22134188313E+02  0.27949203288E+02 -0.32142572986E+02  0.48183997913E+02  0.41800000000E+01 0. -1.
         -5    1    3    3    0  502  0.63666263242E+01 -0.21357006219E+02 -0.43889834862E+03  0.43948366121E+03  0.41800000000E+01 0. -1.
        -11    1    1    2    0    0  0.40393200405E+02 -0.28872788961E+02 -0.41156890240E+02  0.64491380785E+02  0.00000000000E+00 0.  1.
         11    1    1    2    0    0 -0.24625638416E+02  0.22280591891E+02 -0.35439477624E+02  0.48567514006E+02  0.00000000000E+00 0. -1.
</event>
<event>
 7    1  0.2728221E-009  0.1030788E+03  0.7561462E-02  0.1273952E+00
          3   -1    0    0  501    0  0.00000000000E+00  0.00000000000E+00  0.68992180705E+02  0.68992180705E+02  0.00000000000E+00 0. -1.
         -3   -1    0    0    0  501 -0.00000000000E+00 -0.00000000000E+00 -0.25513785649E+03  0.25513785649E+03  0.00000000000E+00 0.  1.
         25    2    1    2    0    0  0.35158862912E+01 -0.64265513927E+02 -0.15102989557E+03  0.20640445194E+03  0.12510136166E+03 0.  0.
          5    1    3    3  502    0  0.24896722608E+02 -0.67288917127E+02 -0.21493278370E+02  0.75013855920E+02  0.41800000000E+01 0. -1.
         -5    1    3    3    0  502 -0.21380836317E+02  0.30234032005E+01 -0.12953661720E+03  0.13139059602E+03  0.41800000000E+01 0. -1.
        -11    1    1    2    0    0  0.12097126506E+02  0.85269419660E+02 -0.28700706987E+02  0.90779650696E+02  0.00000000000E+00 0. -1.
         11    1    1    2    0    0 -0.15613012798E+02 -0.21003905733E+02 -0.64150732331E+01  0.26945934559E+02  0.00000000000E+00 0.  1.
</event>
<event>
 7    1  0.2728221E-009  0.1425178E+03  0.7561462E-02  0.1209981E+00
         -1   -1    0    0    0  501 -0.00000000000E+00  0.00000000000E+00  0.32597374368E+02  0.32597374368E+02  0.00000000000E+00 0.  1.
          1   -1    0    0  501    0  0.00000000000E+00 -0.00000000000E+00 -0.75325326449E+03  0.75325326449E+03  0.00000000000E+00 0. -1.
         25    2    1    2    0    0 -0.20657944371E+02  0.10106585796E+03 -0.50138180640E+03  0.52695101683E+03  0.12511035146E+03 0.  0.
          5    1    3    3  502    0 -0.62140789360E+02  0.12419281596E+02 -0.22127142565E+03  0.23020476204E+03  0.41800000000E+01 0. -1.
         -5    1    3    3    0  502  0.41482844989E+02  0.88646576360E+02 -0.28011038075E+03  0.29674625479E+03  0.41800000000E+01 0. -1.
        -11    1    1    2    0    0 -0.37501013150E+01 -0.99000188403E+02 -0.21090331160E+03  0.23301353482E+03  0.00000000000E+00 0. -1.
         11    1    1    2    0    0  0.24408045686E+02 -0.20656695524E+01 -0.83707721164E+01  0.25886087204E+02  0.00000000000E+00 0.  1.
</event>
<event>
 7    1  0.2728221E-009  0.6678943E+02  0.7561462E-02  0.1371364E+00
         -2   -1    0    0    0  501 -0.00000000000E+00  0.00000000000E+00  0.22484864222E+02  0.22484864222E+02  0.00000000000E+00 0.  1.
          2   -1    0    0  501    0  0.00000000000E+00 -0.00000000000E+00 -0.54838409885E+03  0.54838409885E+03  0.00000000000E+00 0. -1.
         25    2    1    2    0    0 -0.25100680256E+02 -0.31380406142E+01 -0.28135151754E+03  0.30894323710E+03  0.12508939156E+03 0.  0.
          5    1    3    3  502    0 -0.31486947629E+02 -0.11310610210E+02 -0.70905671481E+01  0.34454409251E+02  0.41800000000E+01 0.  1.
         -5    1    3    3    0  502  0.63862673726E+01  0.81725695959E+01 -0.27426095039E+03  0.27448882785E+03  0.41800000000E+01 0.  1.
        -11    1    1    2    0    0  0.55969559491E+02 -0.64884344601E+01 -0.11053500885E+03  0.12406723803E+03  0.00000000000E+00 0.  1.
         11    1    1    2    0    0 -0.30868879235E+02  0.96264750744E+01 -0.13401270823E+03  0.13785848793E+03  0.00000000000E+00 0. -1.
</event>
<event>
 7    1  0.2728221E-009  0.1800372E+03  0.7561462E-02  0.1167767E+00
         -2   -1    0    0    0  501 -0.00000000000E+00  0.00000000000E+00  0.95336538632E+02  0.95336538632E+02  0.00000000000E+00 0. -1.
          2   -1    0    0  501    0  0.00000000000E+00 -0.00000000000E+00 -0.39543730778E+03  0.39543730778E+03  0.00000000000E+00 0.  1.
         25    2    1    2    0    0  0.42262035111E+02 -0.15479374182E+03 -0.13593121850E+03  0.24468696114E+03  0.12508889107E+03 0.  0.
          5    1    3    3  502    0  0.62385374932E+02 -0.24286125403E+02 -0.23085722646E+02  0.70937817013E+02  0.41800000000E+01 0. -1.
         -5    1    3    3    0  502 -0.20123339821E+02 -0.13050761642E+03 -0.11284549586E+03  0.17374914412E+03  0.41800000000E+01 0. -1.
        -11    1    1    2    0    0 -0.82231087909E+01  0.50748034506E+02 -0.33176709611E+01  0.51516885242E+02  0.00000000000E+00 0. -1.
         11    1    1    2    0    0 -0.34038926320E+02  0.10404570731E+03 -0.16085187968E+03  0.19457000003E+03  0.00000000000E+00 0.  1.
</event>
<event>
 7    1  0.2876339E-009  0.1697291E+03  0.7561462E-02  0.1178131E+00
         -1   -1    0    0    0  501 -0.00000000000E+00  0.00000000000E+00  0.35844504664E+02  0.35844504664E+02  0.00000000000E+00 0.  1.
          1   -1    0    0  501    0  0.00000000000E+00 -0.00000000000E+00 -0.88160592584E+03  0.88160592584E+03  0.00000000000E+00 0. -1.
         25    2    1    2    0    0  0.13929668672E+03 -0.17419076283E+02 -0.43214644431E+03  0.47128011600E+03  0.12508959693E+03 0.  0.
          5    1    3    3  502    0  0.15390504505E+02 -0.42740939668E+02 -0.21646909655E+03  0.22122386334E+03  0.41800000000E+01 0. -1.
         -5    1    3    3    0  502  0.12390618221E+03  0.25321863386E+02 -0.21567734776E+03  0.25005625266E+03  0.41800000000E+01 0. -1.
        -11    1    1    2    0    0 -0.76550639171E+02 -0.36282396166E+02 -0.21033940727E+03  0.22675775374E+03  0.00000000000E+00 0.  1.
         11    1    1    2    0    0 -0.62746047549E+02  0.53701472448E+02 -0.20327556960E+03  0.21941256076E+03  0.00000000000E+00 0. -1.
</event>
<event>
 7    1  0.2758106E-009  0.8257692E+02  0.7561462E-02  0.1321894E+00
          2   -1    0    0  501    0  0.00000000000E+00  0.00000000000E+00  0.67007568023E+02  0.67007568023E+02  0.00000000000E+00 0. -1.
         -2   -1    0    0    0  501 -0.00000000000E+00 -0.00000000000E+00 -0.22256215814E+03  0.22256215814E+03  0.00000000000E+00 0.  1.
         25    2    1    2    0    0  0.29114039277E+02 -0.49337344276E+01 -0.14504265424E+03  0.19379780649E+03  0.12509296236E+03 0.  0.
          5    1    3    3  502    0 -0.36145675414E+01  0.49412554966E+02 -0.11111877648E+03  0.12173545323E+03  0.41800000000E+01 0.  1.
         -5    1    3    3    0  502  0.32728606818E+02 -0.54346289393E+02 -0.33923877759E+02  0.72062353260E+02  0.41800000000E+01 0.  1.
        -11    1    1    2    0    0  0.10505177074E+02  0.62323984323E+01 -0.42885856358E+02  0.44591458949E+02  0.00000000000E+00 0.  1.
         11    1    1    2    0    0 -0.39619216351E+02 -0.12986640047E+01  0.32373920481E+02  0.51180460723E+02  0.00000000000E+00 0. -1.
</event>
<event>
 7    1  0.2728221E-009  0.8373824E+02  0.7561462E-02  0.1318766E+00
          2   -1    0    0  501    0  0.00000000000E+00  0.00000000000E+00  0.11188929223E+04  0.11188929223E+04  0.00000000000E+00 0. -1.
         -2   -1    0    0    0  501 -0.00000000000E+00 -0.00000000000E+00 -0.17170058974E+02  0.17170058974E+02  0.00000000000E+00 0.  1.
         25    2    1    2    0    0 -0.20828750063E+02 -0.14966600184E+02  0.94180766954E+03  0.95042412245E+03  0.12508593118E+03 0.  0.
          5    1    3    3  502    0 -0.48111454787E+02 -0.86853039663E+01  0.14430032985E+03  0.15241457995E+03  0.41800000000E+01 0.  1.
         -5    1    3    3    0  502  0.27282704724E+02 -0.62812962176E+01  0.79750733969E+03  0.79800954249E+03  0.41800000000E+01 0.  1.
        -11    1    1    2    0    0 -0.24717333951E+02  0.32901985217E+02  0.10087127690E+03  0.10894265341E+03  0.00000000000E+00 0. -1.
         11    1    1    2    0    0  0.45546084014E+02 -0.17935385033E+02  0.59043916931E+02  0.76696205460E+02  0.00000000000E+00 0.  1.
</event>
<event>
 7    1  0.2728221E-009  0.1036698E+03  0.7561462E-02  0.1272763E+00
         -1   -1    0    0    0  501 -0.00000000000E+00  0.00000000000E+00  0.36506684580E+03  0.36506684580E+03  0.00000000000E+00 0. -1.
          1   -1    0    0  501    0  0.00000000000E+00 -0.00000000000E+00 -0.52023842860E+02  0.52023842860E+02  0.00000000000E+00 0.  1.
         25    2    1    2    0    0 -0.17890965336E+02  0.14164623765E+02  0.49269709828E+02  0.13636301758E+03  0.12508655024E+03 0.  0.
          5    1    3    3  502    0  0.37227840190E+02  0.47876181841E+02  0.13053179819E+02  0.62176352227E+02  0.41800000000E+01 0.  1.
         -5    1    3    3    0  502 -0.55118805526E+02 -0.33711558077E+02  0.36216530009E+02  0.74186665355E+02  0.41800000000E+01 0.  1.
        -11    1    1    2    0    0 -0.31201907732E+02 -0.87931123523E+01  0.39588243502E+02  0.51167439789E+02  0.00000000000E+00 0.  1.
         11    1    1    2    0    0  0.49092873068E+02 -0.53715114124E+01  0.22418504961E+03  0.22956023129E+03  0.00000000000E+00 0. -1.
</event>
<event>
 7    1  0.2728221E-009  0.1156899E+03  0.7561462E-02  0.1250382E+00
         -1   -1    0    0    0  501 -0.00000000000E+00  0.00000000000E+00  0.14694790811E+03  0.14694790811E+03  0.00000000000E+00 0.  1.
          1   -1    0    0  501    0  0.00000000000E+00 -0.00000000000E+00 -0.22096181321E+03  0.22096181321E+03  0.00000000000E+00 0. -1.
         25    2    1    2    0    0  0.93724881910E+02 -0.22944873256E+02  0.74367716330E+02  0.17461165046E+03  0.12509136879E+03 0.  0.
          5    1    3    3  502    0  0.10125148353E+03 -0.25237368592E+02  0.10175643994E+03  0.14581026425E+03  0.41800000000E+01 0. -1.
         -5    1    3    3    0  502 -0.75266016236E+01  0.22924953362E+01 -0.27388723606E+02  0.28801386210E+02  0.41800000000E+01 0. -1.
        -11    1    1    2    0    0 -0.38207356932E+02 -0.24180184554E+02 -0.29837595172E+02  0.54173476300E+02  0.00000000000E+00 0. -1.
         11    1    1    2    0    0 -0.55517524978E+02  0.47125057810E+02 -0.11854402626E+03  0.13912459457E+03  0.00000000000E+00 0.  1.
</event>
<event>
 7    1  0.2728221E-009  0.1145736E+03  0.7561462E-02  0.1252327E+00
         -2   -1    0    0    0  501 -0.00000000000E+00  0.00000000000E+00  0.27062725279E+03  0.27062725279E+03  0.00000000000E+00 0. -1.
          2   -1    0    0  501    0  0.00000000000E+00 -0.00000000000E+00 -0.65584277680E+02  0.65584277680E+02  0.00000000000E+00 0.  1.
         25    2    1    2    0    0  0.74656726359E+02  0.12333341414E+02  0.14393025639E+03  0.20515887008E+03  0.12509398533E+03 0.  0.
          5    1    3    3  502    0  0.10402623837E+03  0.35912534482E+01  0.71349833588E+02  0.12626411415E+03  0.41800000000E+01 0.  1.
         -5    1    3    3    0  502 -0.29369512008E+02  0.87420879662E+01  0.72580422803E+02  0.78894755921E+02  0.41800000000E+01 0.  1.
        -11    1    1    2    0    0 -0.75415848521E+02 -0.26443762732E+02  0.13075531875E+02  0.80980197144E+02  0.00000000000E+00 0. -1.
         11    1    1    2    0    0  0.75912216240E+00  0.14110421318E+02  0.48037186847E+02  0.50072463255E+02  0.00000000000E+00 0.  1.
</event>
<event>
 6    1  0.2728221E-009  0.1266502E+03  0.7561462E-02  0.1232513E+00
         -2   -1    0    0    0  501 -0.00000000000E+00  0.00000000000E+00  0.14532245857E+02  0.14532245857E+02  0.00000000000E+00 0.  1.
          2   -1    0    0  501    0  0.00000000000E+00 -0.00000000000E+00 -0.22977701289E+04  0.22977701289E+04  0.00000000000E+00 0. -1.
          5    1    1    2  502    0  0.50685096654E+02  0.60502513224E+02 -0.15968341068E+04  0.15987889698E+04  0.41800000000E+01 0. -1.
         -5    1    1    2    0  502  0.32428394016E+02 -0.42380639858E+02 -0.36842746699E+03  0.37229556834E+03  0.41800000000E+01 0. -1.
        -11    1    1    2    0    0 -0.82062931515E+02  0.18480048696E+02 -0.25321452185E+03  0.26682097182E+03  0.00000000000E+00 0. -1.
         11    1    1    2    0    0 -0.10505591552E+01 -0.36601922061E+02 -0.64761787388E+02  0.74396864711E+02  0.00000000000E+00 0.  1.
</event>
<event>
 7    1  0.2728221E-009  0.1593523E+03  0.7561462E-02  0.1189430E+00
         -1   -1    0    0    0  501 -0.00000000000E+00  0.00000000000E+00  0.35003961174E+02  0.35003961174E+02  0.00000000000E+00 0.  1.
          1   -1    0    0  501    0  0.00000000000E+00 -0.00000000000E+00 -0.98311473314E+03  0.98311473314E+03  0.00000000000E+00 0. -1.
         25    2    1    2    0    0 -0.70479208599E+02  0.13130329681E+03 -0.55626267898E+03  0.58931255502E+03  0.12511292850E+03 0.  0.
          5    1    3    3  502    0 -0.48601118312E+02  0.52645038083E+02 -0.44767453052E+03  0.45339114064E+03  0.41800000000E+01 0.  1.
         -5    1    3    3    0  502 -0.21878090287E+02  0.78658258725E+02 -0.10858814847E+03  0.13592141438E+03  0.41800000000E+01 0.  1.
        -11    1    1    2    0    0  0.54017267445E+02 -0.13739325131E+03 -0.37989032851E+03  0.40756770282E+03  0.00000000000E+00 0. -1.
         11    1    1    2    0    0  0.16461941154E+02  0.60899545062E+01 -0.11957764467E+02  0.21238436465E+02  0.00000000000E+00 0.  1.
</event>
<event>
 7    1  0.2728221E-009  0.1676331E+03  0.7561462E-02  0.1180339E+00
          2   -1    0    0  501    0  0.00000000000E+00  0.00000000000E+00  0.60185127222E+03  0.60185127222E+03  0.00000000000E+00 0.  1.
         -2   -1    0    0    0  501 -0.00000000000E+00 -0.00000000000E+00 -0.53723116448E+02  0.53723116448E+02  0.00000000000E+00 0. -1.
         25    2    1    2    0    0  0.32584538730E+02 -0.13871377329E+03  0.27957536285E+03  0.33780674946E+03  0.12509098050E+03 0.  0.
          5    1    3    3  502    0  0.78937691882E+02 -0.91310053577E+02  0.20502099631E+03  0.23794908365E+03  0.41800000000E+01 0. -1.
         -5    1    3    3    0  502 -0.46353153151E+02 -0.47403719718E+02  0.74554366548E+02  0.99857665812E+02  0.41800000000E+01 0. -1.
        -11    1    1    2    0    0 -0.39668751310E+02  0.84058622087E+02  0.84418493548E+02  0.12556250965E+03  0.00000000000E+00 0. -1.
         11    1    1    2    0    0  0.70842125797E+01  0.54655151208E+02  0.18413429937E+03  0.19220512956E+03  0.00000000000E+00 0.  1.
</event>
<event>
 7    1  0.2728221E-009  0.8996364E+02  0.7561462E-02  0.1302940E+00
         -2   -1    0    0    0  501 -0.00000000000E+00  0.00000000000E+00  0.35091776840E+02  0.35091776840E+02  0.00000000000E+00 0.  1.
          2   -1    0    0  501    0  0.00000000000E+00 -0.00000000000E+00 -0.37337368948E+03  0.37337368948E+03  0.00000000000E+00 0. -1.
         25    2    1    2    0    0 -0.20772010129E+01  0.33828686235E+02 -0.20379168345E+03  0.24151100346E+03  0.12509124580E+03 0.  0.
          5    1    3    3  502    0  0.50790268919E+02  0.52382800989E+02 -0.10655527959E+03  0.12920955563E+03  0.41800000000E+01 0. -1.
         -5    1    3    3    0  502 -0.52867469932E+02 -0.18554114754E+02 -0.97236403859E+02  0.11230144784E+03  0.41800000000E+01 0. -1.
        -11    1    1    2    0    0 -0.13088448326E+02 -0.32966817526E+02 -0.14448235332E+03  0.14877254101E+03  0.00000000000E+00 0. -1.
         11    1    1    2    0    0  0.15165649339E+02 -0.86186870909E+00  0.99921241269E+01  0.18181921849E+02  0.00000000000E+00 0.  1.
</event>
<event>
 7    1  0.2728221E-009  0.9409156E+02  0.7561462E-02  0.1293235E+00
         -1   -1    0    0    0  501 -0.00000000000E+00  0.00000000000E+00  0.52590499935E+02  0.52590499935E+02  0.00000000000E+00 0.  1.
          1   -1    0    0  501    0  0.00000000000E+00 -0.00000000000E+00 -0.34551025146E+03  0.34551025146E+03  0.00000000000E+00 0. -1.
         25    2    1    2    0    0  0.29358737131E+02  0.41016702998E+02 -0.24496600763E+03  0.27963874365E+03  0.12508068071E+03 0.  0.
          5    1    3    3  502    0 -0.98132122466E+01  0.62567040863E+02 -0.21846537206E+03  0.22749840643E+03  0.41800000000E+01 0.  1.
         -5    1    3    3    0  502  0.39171949377E+02 -0.21550337865E+02 -0.26500635561E+02  0.52140337218E+02  0.41800000000E+01 0.  1.
        -11    1    1    2    0    0 -0.28038115462E+02 -0.57131633405E+02  0.42783686820E+01  0.63784511386E+02  0.00000000000E+00 0.  1.
         11    1    1    2    0    0 -0.13206216682E+01  0.16114930407E+02 -0.52232112583E+02  0.54677496363E+02  0.00000000000E+00 0. -1.
</event>
<event>
 7    1  0.2728221E-009  0.8932918E+02  0.7561462E-02  0.1304484E+00
          3   -1    0    0  501    0  0.00000000000E+00  0.00000000000E+00  0.13165279344E+03  0.13165279344E+03  0.00000000000E+00 0. -1.
         -3   -1    0    0    0  501 -0.00000000000E+00 -0.00000000000E+00 -0.12226711765E+03  0.12226711765E+03  0.00000000000E+00 0.  1.
         25    2    1    2    0    0  0.42310971884E+02  0.51940210137E+02 -0.17680509320E+02  0.14300006104E+03  0.12509361805E+03 0.  0.
          5    1    3    3  502    0  0.36211966017E+02  0.23118654821E+02 -0.70332445240E+02  0.82522142101E+02  0.41800000000E+01 0.  1.
         -5    1    3    3    0  502  0.60990058670E+01  0.28821555316E+02  0.52651935920E+02  0.60477918942E+02  0.41800000000E+01 0.  1.
        -11    1    1    2    0    0  0.15923374492E+02  0.11485321402E+02 -0.26937003738E+01  0.19817226966E+02  0.00000000000E+00 0. -1.
         11    1    1    2    0    0 -0.58234346375E+02 -0.63425531539E+02  0.29759885482E+02  0.91102623084E+02  0.00000000000E+00 0.  1.
</event>
<event>
 7    1  0.2728221E-009  0.1357813E+03  0.7561462E-02  0.1219121E+00
          1   -1    0    0  501    0  0.00000000000E+00  0.00000000000E+00  0.57330806673E+03  0.57330806673E+03  0.00000000000E+00 0. -1.
         -1   -1    0    0    0  501 -0.00000000000E+00 -0.00000000000E+00 -0.40740920692E+02  0.40740920692E+02  0.00000000000E+00 0.  1.
         25    2    1    2    0    0 -0.86128900351E+02  0.50172344449E+02  0.20694247237E+03  0.26155434665E+03  0.12510011094E+03 0.  0.
          5    1    3    3  502    0  0.95454840971E+01  0.62501811519E+02  0.79366174812E+02  0.10155813515E+03  0.41800000000E+01 0. -1.
         -5    1    3    3    0  502 -0.95674384449E+02 -0.12329467070E+02  0.12757629755E+03  0.15999621150E+03  0.41800000000E+01 0. -1.
        -11    1    1    2    0    0  0.72197143271E+02 -0.14900927624E+02  0.29404311743E+03  0.30314323356E+03  0.00000000000E+00 0. -1.
         11    1    1    2    0    0  0.13931757080E+02 -0.35271416824E+02  0.31581556240E+02  0.49351407221E+02  0.00000000000E+00 0.  1.
</event>
<event>
 7    1  0.2728221E-009  0.1449648E+03  0.7561462E-02  0.1206800E+00
         -2   -1    0    0    0  501 -0.00000000000E+00  0.00000000000E+00  0.19441743559E+02  0.19441743559E+02  0.00000000000E+00 0.  1.
          2   -1    0    0  501    0  0.00000000000E+00 -0.00000000000E+00 -0.16774723114E+04  0.16774723114E+04  0.00000000000E+00 0. -1.
         25    2    1    2    0    0  0.30777480085E+02 -0.11386803579E+03 -0.12524370646E+04  0.12641841022E+04  0.12509860366E+03 0.  0.
          5    1    3    3  502    0  0.64618577797E+02 -0.15500507451E+02 -0.56464799783E+03  0.56856016409E+03  0.41800000000E+01 0. -1.
         -5    1    3    3    0  502 -0.33841097713E+02 -0.98367528339E+02 -0.68778906680E+03  0.69562393815E+03  0.41800000000E+01 0. -1.
        -11    1    1    2    0    0 -0.26235623638E+02  0.64089890814E+02 -0.35469282127E+03  0.36139012094E+03  0.00000000000E+00 0. -1.
         11    1    1    2    0    0 -0.45418564462E+01  0.49778144975E+02 -0.50900681959E+02  0.71339831799E+02  0.00000000000E+00 0.  1.
</event>
<event>
 7    1  0.2728221E-009  0.3373517E+03  0.7561462E-02  0.1067929E+00
          2   -1    0    0  501    0  0.00000000000E+00  0.00000000000E+00  0.21148516052E+03  0.21148516052E+03  0.00000000000E+00 0. -1.
         -2   -1    0    0    0  501 -0.00000000000E+00 -0.00000000000E+00 -0.61838524419E+03  0.61838524419E+03  0.00000000000E+00 0.  1.
         25    2    1    2    0    0  0.32339240773E+03 -0.75171161075E+02 -0.10000849569E+03  0.36862235370E+03  0.12508951836E+03 0.  0.
          5    1    3    3  502    0  0.10846059040E+03  0.13458727274E+02  0.12904582266E+02  0.11013100223E+03  0.41800000000E+01 0.  1.
         -5    1    3    3    0  502  0.21493181733E+03 -0.88629888349E+02 -0.11291307796E+03  0.25849135147E+03  0.41800000000E+01 0.  1.
        -11    1    1    2    0    0 -0.29444564966E+03  0.75042640037E+02 -0.30748853892E+03  0.43229485307E+03  0.00000000000E+00 0.  1.
         11    1    1    2    0    0 -0.28946758071E+02  0.12852103800E+00  0.59695093643E+00  0.28953197939E+02  0.00000000000E+00 0. -1.
</event>
<event>
 7    1  0.3902920E-009  0.2213578E+03  0.7561462E-02  0.1132875E+00
         -2   -1    0    0    0  501 -0.00000000000E+00  0.00000000000E+00  0.43753212982E+02  0.43753212982E+02  0.00000000000E+00 0.  1.
          2   -1    0    0  501    0  0.00000000000E+00 -0.00000000000E+00 -0.13334573467E+04  0.13334573467E+04  0.00000000000E+00 0. -1.
         25    2    1    2    0    0 -0.17257155036E+03 -0.11370398207E+03 -0.49190736509E+03  0.54802547665E+03  0.12509808831E+03 0.  0.
          5    1    3    3  502    0 -0.17958615312E+03 -0.10911437423E+03 -0.36820352806E+03  0.42396750292E+03  0.41800000000E+01 0. -1.
         -5    1    3    3    0  502  0.70146027570E+01 -0.45896078463E+01 -0.12370383702E+03  0.12405797373E+03  0.41800000000E+01 0. -1.
        -11    1    1    2    0    0  0.34699687400E+02  0.70686335556E+02 -0.22201691011E+03  0.23556768606E+03  0.00000000000E+00 0.  1.
         11    1    1    2    0    0  0.13787186296E+03  0.43017646518E+02 -0.57577985852E+03  0.59361739697E+03  0.00000000000E+00 0. -1.
</event>
<event>
 7    1  0.2728221E-009  0.1184401E+03  0.7561462E-02  0.1245693E+00
          1   -1    0    0  501    0  0.00000000000E+00  0.00000000000E+00  0.23011022997E+03  0.23011022997E+03  0.00000000000E+00 0. -1.
         -1   -1    0    0    0  501 -0.00000000000E+00 -0.00000000000E+00 -0.64457681124E+02  0.64457681124E+02  0.00000000000E+00 0.  1.
         25    2    1    2    0    0 -0.53227996928E+02  0.16455525688E+01  0.10468831901E+03  0.17158759794E+03  0.12508689832E+03 0.  0.
          5    1    3    3  502    0  0.20686347399E+02 -0.41053150374E+02  0.17136189111E+02  0.49238272732E+02  0.41800000000E+01 0.  1.
         -5    1    3    3    0  502 -0.73914344328E+02  0.42698702942E+02  0.87552129896E+02  0.12234932521E+03  0.41800000000E+01 0.  1.
        -11    1    1    2    0    0  0.73010354929E+02 -0.22611019156E+02  0.34530209973E+02  0.83869574429E+02  0.00000000000E+00 0.  1.
         11    1    1    2    0    0 -0.19782358000E+02  0.20965466588E+02  0.26434019870E+02  0.39110738727E+02  0.00000000000E+00 0. -1.
</event>
<event>
 7    1  0.2728221E-009  0.1061524E+03  0.7561462E-02  0.1267866E+00
         -2   -1    0    0    0  501 -0.00000000000E+00  0.00000000000E+00  0.30123287744E+03  0.30123287744E+03  0.00000000000E+00 0.  1.
          2   -1    0    0  501    0  0.00000000000E+00 -0.00000000000E+00 -0.55596743247E+02  0.55596743247E+02  0.00000000000E+00 0. -1.
         25    2    1    2    0    0 -0.27210418779E+01 -0.52444963953E+02  0.71005381916E+02  0.15314825842E+03  0.12511892935E+03 0.  0.
          5    1    3    3  502    0  0.38698066074E+02  0.25437655162E+02  0.32938603223E+02  0.56982792142E+02  0.41800000000E+01 0.  1.
         -5    1    3    3    0  502 -0.41419107952E+02 -0.77882619115E+02  0.38066778693E+02  0.96165466275E+02  0.41800000000E+01 0.  1.
        -11    1    1    2    0    0  0.29868625645E+02  0.26060989573E+02  0.15698882227E+03  0.16191602852E+03  0.00000000000E+00 0.  1.
         11    1    1    2    0    0 -0.27147583767E+02  0.26383974380E+02  0.17641930005E+02  0.41765333745E+02  0.00000000000E+00 0. -1.
</event>
<event>
 7    1  0.2728221E-009  0.1756073E+03  0.7561462E-02  0.1172123E+00
          1   -1    0    0  501    0  0.00000000000E+00  0.00000000000E+00  0.47151322719E+03  0.47151322719E+03  0.00000000000E+00 0.  1.
         -1   -1    0    0    0  501 -0.00000000000E+00 -0.00000000000E+00 -0.84851140346E+02  0.84851140346E+02  0.00000000000E+00 0. -1.
         25    2    1    2    0    0  0.38867997065E+02  0.14256764107E+03  0.31248309018E+03  0.36759935948E+03  0.12508938390E+03 0.  0.
          5    1    3    3  502    0  0.80593348058E+02  0.12352655752E+03  0.23794869298E+03  0.27998419787E+03  0.41800000000E+01 0.  1.
         -5    1    3    3    0  502 -0.41725350992E+02  0.19041083552E+02  0.74534397201E+02  0.87615161613E+02  0.41800000000E+01 0.  1.
        -11    1    1    2    0    0 -0.77226193773E+01 -0.11715807137E+03  0.87488053531E+02  0.14642339994E+03  0.00000000000E+00 0.  1.
         11    1    1    2    0    0 -0.31145377688E+02 -0.25409569695E+02 -0.13309056871E+02  0.42341608121E+02  0.00000000000E+00 0. -1.
</event>
<event>
 7    1  0.2728221E-009  0.1664197E+03  0.7561462E-02  0.1181634E+00
          1   -1    0    0  501    0  0.00000000000E+00  0.00000000000E+00  0.68010125170E+03  0.68010125170E+03  0.00000000000E+00 0. -1.
         -1   -1    0    0    0  501 -0.00000000000E+00 -0.00000000000E+00 -0.45642403839E+02  0.45642403839E+02  0.00000000000E+00 0.  1.
         25    2    1    2    0    0  0.46769072421E+02 -0.13099901575E+03  0.40344579454E+03  0.44470672240E+03  0.12508985390E+03 0.  0.
          5    1    3    3  502    0  0.49434893154E+02  0.45975182205E+01  0.13536555355E+03  0.14424372195E+03  0.41800000000E+01 0. -1.
         -5    1    3    3    0  502 -0.26658207331E+01 -0.13559653397E+03  0.26808024099E+03  0.30046300045E+03  0.41800000000E+01 0. -1.
        -11    1    1    2    0    0  0.53083267431E+00  0.70649155986E+02  0.16635840259E+03  0.18073932371E+03  0.00000000000E+00 0.  1.
         11    1    1    2    0    0 -0.47299905095E+02  0.60349859767E+02  0.64654650736E+02  0.10029760943E+03  0.00000000000E+00 0. -1.
</event>
<event>
 7    1  0.2728221E-009  0.9870397E+02  0.7561462E-02  0.1283045E+00
         -1   -1    0    0    0  501 -0.00000000000E+00  0.00000000000E+00  0.15296736943E+03  0.15296736943E+03  0.00000000000E+00 0.  1.
          1   -1    0    0  501    0  0.00000000000E+00 -0.00000000000E+00 -0.19944149996E+03  0.19944149996E+03  0.00000000000E+00 0. -1.
         25    2    1    2    0    0  0.20647818434E+02 -0.47643669910E+02  0.10006267994E+03  0.16839788558E+03  0.12509618803E+03 0.  0.
          5    1    3    3  502    0  0.37729403225E+02  0.14221884613E+02 -0.92397961224E+01  0.41576629277E+02  0.41800000000E+01 0. -1.
         -5    1    3    3    0  502 -0.17081584791E+02 -0.61865554523E+02  0.10930247606E+03  0.12682125630E+03  0.41800000000E+01 0. -1.
        -11    1    1    2    0    0  0.22494482134E+02  0.43803514445E+02 -0.12753907946E+03  0.13671490919E+03  0.00000000000E+00 0. -1.
         11    1    1    2    0    0 -0.43142300567E+02  0.38401554647E+01 -0.18997731011E+02  0.47296074634E+02  0.00000000000E+00 0.  1.
</event>
<event>
 7    1  0.2728221E-009  0.1184187E+03  0.7561462E-02  0.1245729E+00
         -2   -1    0    0    0  501 -0.00000000000E+00  0.00000000000E+00  0.33809710920E+02  0.33809710920E+02  0.00000000000E+00 0. -1.
          2   -1    0    0  501    0  0.00000000000E+00 -0.00000000000E+00 -0.73071549080E+03  0.73071549080E+03  0.00000000000E+00 0.  1.
         25    2    1    2    0    0  0.82429183779E+01  0.72442735882E+02 -0.58549725928E+03  0.60313416022E+03  0.12509148217E+03 0.  0.
          5    1    3    3  502    0 -0.22702755789E+02 -0.27473945202E+02 -0.22130904920E+03  0.22419946575E+03  0.41800000000E+01 0.  1.
         -5    1    3    3    0  502  0.30945674167E+02  0.99916681084E+02 -0.36418821009E+03  0.37893469447E+03  0.41800000000E+01 0.  1.
        -11    1    1    2    0    0  0.26983607170E+02 -0.40816703201E+02 -0.10199432151E+03  0.11312364888E+03  0.00000000000E+00 0.  1.
         11    1    1    2    0    0 -0.35226525548E+02 -0.31626032681E+02 -0.94141990828E+01  0.48267392613E+02  0.00000000000E+00 0. -1.
</event>
<event>
 7    1  0.2728221E-009  0.1841554E+03  0.7561462E-02  0.1163841E+00
         -2   -1    0    0    0  501 -0.00000000000E+00  0.00000000000E+00  0.29597192993E+02  0.29597192993E+02  0.00000000000E+00 0. -1.
          2   -1    0    0  501    0  0.00000000000E+00 -0.00000000000E+00 -0.11957808837E+04  0.11957808837E+04  0.00000000000E+00 0.  1.
         25    2    1    2    0    0  0.15248155811E+03  0.18426915863E+02 -0.62669005898E+03  0.65725005502E+03  0.12508808099E+03 0.  0.
          5    1    3    3  502    0 -0.75537668479E+01 -0.24026226167E+02 -0.16040551037E+03  0.16242450275E+03  0.41800000000E+01 0.  1.
         -5    1    3    3    0  502  0.16003532495E+03  0.42453142030E+02 -0.46628454862E+03  0.49482555227E+03  0.41800000000E+01 0.  1.
        -11    1    1    2    0    0 -0.26295604638E+02 -0.41255509357E+02 -0.17624069154E+03  0.18290504976E+03  0.00000000000E+00 0.  1.
         11    1    1    2    0    0 -0.12618595347E+03  0.22828593493E+02 -0.36325294021E+03  0.38522297193E+03  0.00000000000E+00 0. -1.
</event>
<event>
 7    1  0.2728221E-009  0.6080242E+02  0.7561462E-02  0.1394495E+00
         -2   -1    0    0    0  501 -0.00000000000E+00  0.00000000000E+00  0.23355376366E+02  0.23355376366E+02  0.00000000000E+00 0.  1.
          2   -1    0    0  501    0  0.00000000000E+00 -0.00000000000E+00 -0.57371647011E+03  0.57371647011E+03  0.00000000000E+00 0. -1.
         25    2    1    2    0    0  0.22335330003E+01  0.32488381624E+02 -0.29851249922E+03  0.32528975203E+03  0.12507288666E+03 0.  0.
          5    1    3    3  502    0  0.92978048007E+01  0.44404057611E+02 -0.26124890517E+02  0.52518109362E+02  0.41800000000E+01 0. -1.
         -5    1    3    3    0  502 -0.70642718003E+01 -0.11915675987E+02 -0.27238760870E+03  0.27277164267E+03  0.41800000000E+01 0. -1.
        -11    1    1    2    0    0  0.10655218799E+02  0.11536100935E+02  0.87105000420E-01  0.15704231905E+02  0.00000000000E+00 0.  1.
         11    1    1    2    0    0 -0.12888751800E+02 -0.44024482559E+02 -0.25193569953E+03  0.25607786254E+03  0.00000000000E+00 0. -1.
</event>
<event>
 7    1  0.2728221E-009  0.1013714E+03  0.7561462E-02  0.1277438E+00
          1   -1    0    0  501    0  0.00000000000E+00  0.00000000000E+00  0.71325313850E+03  0.71325313850E+03  0.00000000000E+00 0. -1.
         -1   -1    0    0    0  501 -0.00000000000E+00 -0.00000000000E+00 -0.21928085445E+02  0.21928085445E+02  0.00000000000E+00 0.  1.
         25    2    1    2    0    0  0.43298440382E+02  0.79806792586E+02  0.44355116313E+03  0.46971149249E+03  0.12508945912E+03 0.  0.
          5    1    3    3  502    0  0.29981879142E+02  0.86771775287E+02  0.15115711281E+03  0.17690166539E+03  0.41800000000E+01 0.  1.
         -5    1    3    3    0  502  0.13316561240E+02 -0.69649827016E+01  0.29239405032E+03  0.29280982711E+03  0.41800000000E+01 0.  1.
        -11    1    1    2    0    0 -0.44329672076E+02 -0.56035853400E+02  0.18181086244E+03  0.19534668258E+03  0.00000000000E+00 0.  1.
         11    1    1    2    0    0  0.10312316940E+01 -0.23770939186E+02  0.65963027483E+02  0.70123048873E+02  0.00000000000E+00 0. -1.
</event>
<event>
 7    1  0.2728221E-009  0.2901698E+03  0.7561462E-02  0.1090261E+00
         -1   -1    0    0    0  501 -0.00000000000E+00  0.00000000000E+00  0.12301555490E+03  0.12301555490E+03  0.00000000000E+00 0.  1.
          1   -1    0    0  501    0  0.00000000000E+00 -0.00000000000E+00 -0.90433932883E+03  0.90433932883E+03  0.00000000000E+00 0. -1.
         25    2    1    2    0    0 -0.25961105810E+03 -0.91547879511E+02 -0.16014096908E+03  0.34215715945E+03  0.12508987190E+03 0.  0.
          5    1    3    3  502    0 -0.36303354112E+02 -0.63807912496E+02 -0.17127307105E+02  0.75499670632E+02  0.41800000000E+01 0.  1.
         -5    1    3    3    0  502 -0.22330770398E+03 -0.27739967015E+02 -0.14301366198E+03  0.26665748881E+03  0.41800000000E+01 0.  1.
        -11    1    1    2    0    0  0.24308206064E+03  0.66991607009E+02 -0.49415457935E+03  0.55476617769E+03  0.00000000000E+00 0.  1.
         11    1    1    2    0    0  0.16528997452E+02  0.24556272502E+02 -0.12702822549E+03  0.13043154660E+03  0.00000000000E+00 0. -1.
</event>
<event>
 7    1  0.2728221E-009  0.1173974E+03  0.7561462E-02  0.1247453E+00
          4   -1    0    0  501    0  0.00000000000E+00  0.00000000000E+00  0.66522657483E+02  0.66522657483E+02  0.00000000000E+00 0.  1.
         -4   -1    0    0    0  501 -0.00000000000E+00 -0.00000000000E+00 -0.32912870618E+03  0.32912870618E+03  0.00000000000E+00 0. -1.
         25    2    1    2    0    0 -0.18772348067E+02 -0.86126539571E+02 -0.79411722774E+02  0.17240188756E+03  0.12508400077E+03 0.  0.
          5    1    3    3  502    0  0.21995669206E+02 -0.22195864227E+02 -0.90338270577E+02  0.95681457887E+02  0.41800000000E+01 0.  1.
         -5    1    3    3    0  502 -0.40768017273E+02 -0.63930675344E+02  0.10926547803E+02  0.76720429673E+02  0.41800000000E+01 0.  1.
        -11    1    1    2    0    0  0.42201563698E+02  0.45393358136E+01 -0.54423568836E+02  0.69018130901E+02  0.00000000000E+00 0.  1.
         11    1    1    2    0    0 -0.23429215631E+02  0.81587203757E+02 -0.12877075708E+03  0.15423134520E+03  0.00000000000E+00 0. -1.
</event>
<event>
 7    1  0.2728221E-009  0.1438022E+03  0.7561462E-02  0.1208302E+00
          1   -1    0    0  501    0  0.00000000000E+00  0.00000000000E+00  0.51838907780E+03  0.51838907780E+03  0.00000000000E+00 0. -1.
         -1   -1    0    0    0  501 -0.00000000000E+00 -0.00000000000E+00 -0.62120324038E+02  0.62120324038E+02  0.00000000000E+00 0.  1.
         25    2    1    2    0    0  0.10328163527E+03 -0.41581672993E+02  0.38486693739E+03  0.41972966792E+03  0.12511715679E+03 0.  0.
          5    1    3    3  502    0  0.62339326188E+02  0.24522376081E+02  0.76903685879E+02  0.10207442295E+03  0.41800000000E+01 0.  1.
         -5    1    3    3    0  502  0.40942309084E+02 -0.66104049074E+02  0.30796325151E+03  0.31765524497E+03  0.41800000000E+01 0.  1.
        -11    1    1    2    0    0 -0.27817675562E+02  0.58946420881E+02  0.43985638695E+02  0.78633580739E+02  0.00000000000E+00 0. -1.
         11    1    1    2    0    0 -0.75463959709E+02 -0.17364747888E+02  0.27416177679E+02  0.82146153183E+02  0.00000000000E+00 0.  1.
</event>
<event>
 7    1  0.2728221E-009  0.3003404E+03  0.7561462E-02  0.1085071E+00
         -1   -1    0    0    0  501 -0.00000000000E+00  0.00000000000E+00  0.16467132030E+03  0.16467132030E+03  0.00000000000E+00 0.  1.
          1   -1    0    0  501    0  0.00000000000E+00 -0.00000000000E+00 -0.81264310782E+03  0.81264310782E+03  0.00000000000E+00 0. -1.
         25    2    1    2    0    0  0.62481508223E+02  0.28316263645E+03 -0.77711682709E+02  0.32522610793E+03  0.12509155885E+03 0.  0.
          5    1    3    3  502    0  0.27288123355E+02  0.26972287969E+03 -0.89516093108E+02  0.28552701593E+03  0.41800000000E+01 0.  1.
         -5    1    3    3    0  502  0.35193384868E+02  0.13439756765E+02  0.11804410399E+02  0.39699091995E+02  0.41800000000E+01 0.  1.
        -11    1    1    2    0    0 -0.32843393914E+02 -0.82359575050E+02 -0.30768444848E+03  0.32020541526E+03  0.00000000000E+00 0.  1.
         11    1    1    2    0    0 -0.29638114308E+02 -0.20080306140E+03 -0.26257565632E+03  0.33188290493E+03  0.00000000000E+00 0. -1.
</event>
<event>
 7    1  0.2728221E-009  0.8792741E+02  0.7561462E-02  0.1307950E+00
          1   -1    0    0  501    0  0.00000000000E+00  0.00000000000E+00  0.13374238566E+03  0.13374238566E+03  0.00000000000E+00 0. -1.
         -1   -1    0    0    0  501 -0.00000000000E+00 -0.00000000000E+00 -0.99782669655E+02  0.99782669655E+02  0.00000000000E+00 0.  1.
         25    2    1    2    0    0  0.16956126116E+02 -0.33078198989E+02  0.23641143311E+02  0.13261553867E+03  0.12508517090E+03 0.  0.
          5    1    3    3  502    0  0.15112244925E+02 -0.70206524223E+02 -0.20456605418E+02  0.74788241692E+02  0.41800000000E+01 0. -1.
         -5    1    3    3    0  502  0.18438811911E+01  0.37128325234E+02  0.44097748729E+02  0.57827296976E+02  0.41800000000E+01 0. -1.
        -11    1    1    2    0    0 -0.23554658134E+02  0.46180243630E+02 -0.28678585437E+02  0.59244392851E+02  0.00000000000E+00 0.  1.
         11    1    1    2    0    0  0.65985320175E+01 -0.13102044642E+02  0.38997158133E+02  0.41665123797E+02  0.00000000000E+00 0. -1.
</event>
<event>
 7    1  0.2728221E-009  0.1075103E+03  0.7561462E-02  0.1265251E+00
          1   -1    0    0  501    0  0.00000000000E+00  0.00000000000E+00  0.17043355308E+03  0.17043355308E+03  0.00000000000E+00 0. -1.
         -1   -1    0    0    0  501 -0.00000000000E+00 -0.00000000000E+00 -0.82491316411E+02  0.82491316411E+02  0.00000000000E+00 0.  1.
         25    2    1    2    0    0  0.32578121966E+02  0.34440743650E+02  0.45853255622E+02  0.14139915808E+03  0.12507478563E+03 0.  0.
          5    1    3    3  502    0  0.39642518512E+02  0.73405219610E+02  0.39946227341E+01  0.83625862930E+02  0.41800000000E+01 0. -1.
         -5    1    3    3    0  502 -0.70643965464E+01 -0.38964475959E+02  0.41858632888E+02  0.57773295151E+02  0.41800000000E+01 0. -1.
        -11    1    1    2    0    0 -0.42175991483E+02  0.12317052002E+02 -0.53095285640E+01  0.44257373636E+02  0.00000000000E+00 0.  1.
         11    1    1    2    0    0  0.95978695177E+01 -0.46757795653E+02  0.47398509613E+02  0.67268337776E+02  0.00000000000E+00 0. -1.
</event>
<event>
 7    1  0.2728221E-009  0.3362334E+03  0.7561462E-02  0.1068412E+00
         -2   -1    0    0    0  501 -0.00000000000E+00  0.00000000000E+00  0.19472796690E+03  0.19472796690E+03  0.00000000000E+00 0.  1.
          2   -1    0    0  501    0  0.00000000000E+00 -0.00000000000E+00 -0.59078238898E+03  0.59078238898E+03  0.00000000000E+00 0. -1.
         25    2    1    2    0    0  0.15856039754E+03  0.27914061687E+03 -0.18747819703E+03  0.39224893335E+03  0.12510102997E+03 0.  0.
          5    1    3    3  502    0  0.14480666962E+02  0.13580881746E+03 -0.10728675262E+03  0.17372865136E+03  0.41800000000E+01 0. -1.
         -5    1    3    3    0  502  0.14407973058E+03  0.14333179941E+03 -0.80191444407E+02  0.21852028199E+03  0.41800000000E+01 0. -1.
        -11    1    1    2    0    0 -0.12698686642E+03 -0.27199458784E+03 -0.17952775539E+03  0.34976697244E+03  0.00000000000E+00 0.  1.
         11    1    1    2    0    0 -0.31573531121E+02 -0.71460290341E+01 -0.29048469663E+02  0.43494450085E+02  0.00000000000E+00 0. -1.
</event>
<event>
 7    1  0.2728221E-009  0.2755119E+03  0.7561462E-02  0.1098166E+00
          1   -1    0    0  501    0  0.00000000000E+00  0.00000000000E+00  0.79564471556E+03  0.79564471556E+03  0.00000000000E+00 0. -1.
         -1   -1    0    0    0  501 -0.00000000000E+00 -0.00000000000E+00 -0.10584777244E+03  0.10584777244E+03  0.00000000000E+00 0.  1.
         25    2    1    2    0    0 -0.19056303971E+03  0.17230131709E+03  0.47508564049E+03  0.55439729509E+03  0.12509188238E+03 0.  0.
          5    1    3    3  502    0  0.11815543075E+02  0.36961112661E+02  0.98456373956E+02  0.10590968265E+03  0.41800000000E+01 0. -1.
         -5    1    3    3    0  502 -0.20237858279E+03  0.13534020443E+03  0.37662926653E+03  0.44848761244E+03  0.41800000000E+01 0. -1.
        -11    1    1    2    0    0  0.13951956965E+03 -0.16634197677E+03  0.19573258881E+03  0.29231252090E+03  0.00000000000E+00 0. -1.
         11    1    1    2    0    0  0.51043470068E+02 -0.59593403181E+01  0.18978713829E+02  0.54782672007E+02  0.00000000000E+00 0.  1.
</event>
<event>
 7    1  0.2728221E-009  0.1726189E+03  0.7561462E-02  0.1175144E+00
          1   -1    0    0  501    0  0.00000000000E+00  0.00000000000E+00  0.87982512608E+02  0.87982512608E+02  0.00000000000E+00 0. -1.
         -1   -1    0    0    0  501 -0.00000000000E+00 -0.00000000000E+00 -0.75358046944E+03  0.75358046944E+03  0.00000000000E+00 0.  1.
         25    2    1    2    0    0  0.14361285444E+03  0.39862407967E+01 -0.42157289474E+02  0.19510246071E+03  0.12508873268E+03 0.  0.
          5    1    3    3  502    0  0.80579543780E+01 -0.35256201388E+02  0.19205166934E+02  0.41161161330E+02  0.41800000000E+01 0. -1.
         -5    1    3    3    0  502  0.13555490006E+03  0.39242442184E+02 -0.61362456408E+02  0.15394129938E+03  0.41800000000E+01 0. -1.
        -11    1    1    2    0    0 -0.98009300254E+02 -0.43574445086E+02 -0.33448080084E+03  0.35125768509E+03  0.00000000000E+00 0. -1.
         11    1    1    2    0    0 -0.45603554184E+02  0.39588204290E+02 -0.28895986652E+03  0.29520283625E+03  0.00000000000E+00 0.  1.
</event>
<event>
 7    1  0.2728221E-009  0.8725066E+02  0.7561462E-02  0.1309650E+00
         -1   -1    0    0    0  501 -0.00000000000E+00  0.00000000000E+00  0.31104820626E+03  0.31104820626E+03  0.00000000000E+00 0.  1.
          1   -1    0    0  501    0  0.00000000000E+00 -0.00000000000E+00 -0.50202620801E+02  0.50202620801E+02  0.00000000000E+00 0. -1.
         25    2    1    2    0    0  0.77785468620E+01 -0.69919663304E+02  0.14425405129E+03  0.20348456170E+03  0.12508984942E+03 0.  0.
          5    1    3    3  502    0  0.31745079935E+02 -0.72911872393E+02  0.27595284725E+02  0.84278487024E+02  0.41800000000E+01 0. -1.
         -5    1    3    3    0  502 -0.23966533073E+02  0.29922090889E+01  0.11665876657E+03  0.11920607468E+03  0.41800000000E+01 0. -1.
        -11    1    1    2    0    0 -0.13734140974E+01  0.15813879728E+02 -0.10809245863E+02  0.19204292605E+02  0.00000000000E+00 0. -1.
         11    1    1    2    0    0 -0.64051327646E+01  0.54105783577E+02  0.12740078003E+03  0.13856197275E+03  0.00000000000E+00 0.  1.
</event>
<event>
 7    1  0.2728221E-009  0.8752852E+02  0.7561462E-02  0.1308950E+00
         -1   -1    0    0    0  501 -0.00000000000E+00  0.00000000000E+00  0.37610827627E+02  0.37610827627E+02  0.00000000000E+00 0.  1.
          1   -1    0    0  501    0  0.00000000000E+00 -0.00000000000E+00 -0.30521499020E+03  0.30521499020E+03  0.00000000000E+00 0. -1.
         25    2    1    2    0    0  0.31431886321E+01 -0.31188020001E+02 -0.15994922382E+03  0.20545944976E+03  0.12508900458E+03 0.  0.
          5    1    3    3  502    0  0.13787420795E+02  0.39570033437E+02 -0.11084897406E+03  0.11857844648E+03  0.41800000000E+01 0.  1.
         -5    1    3    3    0  502 -0.10644232163E+02 -0.70758053438E+02 -0.49100249757E+02  0.86881003280E+02  0.41800000000E+01 0.  1.
        -11    1    1    2    0    0 -0.27800147846E+02  0.19669616588E+02 -0.10457216647E+03  0.10997763426E+03  0.00000000000E+00 0. -1.
         11    1    1    2    0    0  0.24656959214E+02  0.11518403413E+02 -0.30827722849E+01  0.27388733812E+02  0.00000000000E+00 0.  1.
</event>
<event>
 7    1  0.2728221E-009  0.1244998E+03  0.7561462E-02  0.1235853E+00
         -2   -1    0    0    0  501 -0.00000000000E+00  0.00000000000E+00  0.51482688850E+02  0.51482688850E+02  0.00000000000E+00 0. -1.
          2   -1    0    0  501    0  0.00000000000E+00 -0.00000000000E+00 -0.42199698920E+03  0.42199698920E+03  0.00000000000E+00 0.  1.
         25    2    1    2    0    0  0.24840757178E+02 -0.87179668001E+02 -0.13214151198E+03  0.20328984996E+03  0.12509207080E+03 0.  0.
          5    1    3    3  502    0 -0.14442016127E+02 -0.80329494116E+02 -0.14030695681E+03  0.16237276245E+03  0.41800000000E+01 0.  1.
         -5    1    3    3    0  502  0.39282773305E+02 -0.68501738856E+01  0.81654448329E+01  0.40917087508E+02  0.41800000000E+01 0.  1.
        -11    1    1    2    0    0 -0.76900907088E+01  0.10333441003E+03 -0.19619146147E+03  0.22187435035E+03  0.00000000000E+00 0.  1.
         11    1    1    2    0    0 -0.17150666470E+02 -0.16154742027E+02 -0.42181326902E+02  0.48315477743E+02  0.00000000000E+00 0. -1.
</event>
<event>
 7    1  0.2728221E-009  0.1598380E+03  0.7561462E-02  0.1188880E+00
          1   -1    0    0  501    0  0.00000000000E+00  0.00000000000E+00  0.40613106991E+03  0.40613106991E+03  0.00000000000E+00 0. -1.
         -1   -1    0    0    0  501 -0.00000000000E+00 -0.00000000000E+00 -0.73054523400E+02  0.73054523400E+02  0.00000000000E+00 0.  1.
         25    2    1    2    0    0  0.25044573106E+02 -0.13218437430E+03  0.17461168336E+03  0.25345299056E+03  0.12509691846E+03 0.  0.
          5    1    3    3  502    0  0.29476745144E+02  0.16834454907E+02  0.26564525623E+02  0.43306163509E+02  0.41800000000E+01 0. -1.
         -5    1    3    3    0  502 -0.44321720378E+01 -0.14901882921E+03  0.14804715774E+03  0.21014682705E+03  0.41800000000E+01 0. -1.
        -11    1    1    2    0    0 -0.13956748264E+02  0.25478572109E+02 -0.57172844019E+01  0.29608036067E+02  0.00000000000E+00 0.  1.
         11    1    1    2    0    0 -0.11087824842E+02  0.10670580219E+03  0.16418214756E+03  0.19612456668E+03  0.00000000000E+00 0. -1.
</event>
<event>
 7    1  0.2728221E-009  0.1307500E+03  0.7561462E-02  0.1226347E+00
         -3   -1    0    0    0  501 -0.00000000000E+00  0.00000000000E+00  0.27837185852E+02  0.27837185852E+02  0.00000000000E+00 0.  1.
          3   -1    0    0  501    0  0.00000000000E+00 -0.00000000000E+00 -0.94791804257E+03  0.94791804257E+03  0.00000000000E+00 0. -1.
         25    2    1    2    0    0  0.54934423654E+02  0.10191419575E+03 -0.58726673704E+03  0.61150090743E+03  0.12508735013E+03 0.  0.
          5    1    3    3  502    0 -0.14735004539E+02  0.58474456597E+02 -0.96301949959E+02  0.11370101318E+03  0.41800000000E+01 0. -1.
         -5    1    3    3    0  502  0.69669428193E+02  0.43439739149E+02 -0.49096478708E+03  0.49779989425E+03  0.41800000000E+01 0. -1.
        -11    1    1    2    0    0 -0.10757920549E+02 -0.40932553661E+01  0.28408710717E+01  0.11855721930E+02  0.00000000000E+00 0.  1.
         11    1    1    2    0    0 -0.44176503105E+02 -0.97820940380E+02 -0.33565499075E+03  0.35239859906E+03  0.00000000000E+00 0. -1.
</event>
<event>
 7    1  0.2728221E-009  0.6652498E+02  0.7561462E-02  0.1372325E+00
          2   -1    0    0  501    0  0.00000000000E+00  0.00000000000E+00  0.10573024394E+03  0.10573024394E+03  0.00000000000E+00 0. -1.
         -2   -1    0    0    0  501 -0.00000000000E+00 -0.00000000000E+00 -0.12143013083E+03  0.12143013083E+03  0.00000000000E+00 0.  1.
         25    2    1    2    0    0  0.34564526199E+02 -0.34329558093E+01 -0.87294066049E+00  0.12982744418E+03  0.12509161275E+03 0.  0.
          5    1    3    3  502    0  0.58712749575E+02 -0.17297643263E+01 -0.48466903622E+02  0.76267241945E+02  0.41800000000E+01 0.  1.
         -5    1    3    3    0  502 -0.24148223376E+02 -0.17031914830E+01  0.47593962961E+02  0.53560202238E+02  0.41800000000E+01 0.  1.
        -11    1    1    2    0    0 -0.36511563836E+02  0.13811955073E+02 -0.48375571763E+02  0.62161566422E+02  0.00000000000E+00 0.  1.
         11    1    1    2    0    0  0.19470376375E+01 -0.10378999263E+02  0.33548625536E+02  0.35171364157E+02  0.00000000000E+00 0. -1.
</event>
<event>
 7    1  0.2728221E-009  0.1387041E+03  0.7561462E-02  0.1215083E+00
          2   -1    0    0  501    0  0.00000000000E+00  0.00000000000E+00  0.36895726574E+03  0.36895726574E+03  0.00000000000E+00 0.  1.
         -2   -1    0    0    0  501 -0.00000000000E+00 -0.00000000000E+00 -0.75677235091E+02  0.75677235091E+02  0.00000000000E+00 0. -1.
         25    2    1    2    0    0 -0.61400143971E+02  0.10697566360E+03  0.12085040890E+03  0.21322807746E+03  0.12509045289E+03 0.  0.
          5    1    3    3  502    0  0.29695729646E+01  0.56028551674E+02 -0.11503460898E+02  0.57426639976E+02  0.41800000000E+01 0. -1.
         -5    1    3    3    0  502 -0.64369716935E+02  0.50947111927E+02  0.13235386979E+03  0.15580143748E+03  0.41800000000E+01 0. -1.
        -11    1    1    2    0    0  0.39268171827E+02 -0.11467499999E+02  0.10425472417E+03  0.11199348368E+03  0.00000000000E+00 0.  1.
         11    1    1    2    0    0  0.22131972143E+02 -0.95508163601E+02  0.68174897581E+02  0.11941293969E+03  0.00000000000E+00 0. -1.
</event>
<event>
 7    1  0.2728221E-009  0.1701976E+03  0.7561462E-02  0.1177642E+00
          2   -1    0    0  501    0  0.00000000000E+00  0.00000000000E+00  0.78419178178E+03  0.78419178178E+03  0.00000000000E+00 0. -1.
         -2   -1    0    0    0  501 -0.00000000000E+00 -0.00000000000E+00 -0.41524993590E+02  0.41524993590E+02  0.00000000000E+00 0.  1.
         25    2    1    2    0    0  0.14108994048E+03  0.13582812199E+02  0.44038482374E+03  0.47924654806E+03  0.12509035438E+03 0.  0.
          5    1    3    3  502    0 -0.76682386918E+01  0.29349552206E+02  0.31929362699E+02  0.44239741203E+02  0.41800000000E+01 0.  1.
         -5    1    3    3    0  502  0.14875817917E+03 -0.15766740007E+02  0.40845546104E+03  0.43500680686E+03  0.41800000000E+01 0.  1.
        -11    1    1    2    0    0 -0.48206267861E+00  0.16356915571E+02  0.80672888749E+02  0.82315831105E+02  0.00000000000E+00 0. -1.
         11    1    1    2    0    0 -0.14060787780E+03 -0.29939727770E+02  0.22160907570E+03  0.26415439620E+03  0.00000000000E+00 0.  1.
</event>
<event>
 7    1  0.2728221E-009  0.1470935E+03  0.7561462E-02  0.1204091E+00
          1   -1    0    0  501    0  0.00000000000E+00  0.00000000000E+00  0.80985184988E+03  0.80985184988E+03  0.00000000000E+00 0. -1.
         -1   -1    0    0    0  501 -0.00000000000E+00 -0.00000000000E+00 -0.34935492788E+02  0.34935492788E+02  0.00000000000E+00 0.  1.
         25    2    1    2    0    0  0.47629220965E+02 -0.11852030346E+03  0.38676177867E+03  0.42608505760E+03  0.12509275700E+03 0.  0.
          5    1    3    3  502    0  0.33553437444E+02 -0.13766612701E+02  0.14831584545E+02  0.39405597187E+02  0.41800000000E+01 0. -1.
         -5    1    3    3    0  502  0.14075783522E+02 -0.10475369076E+03  0.37193019412E+03  0.38667946042E+03  0.41800000000E+01 0. -1.
        -11    1    1    2    0    0 -0.20782681923E+02 -0.82197121952E+01  0.27208217543E+02  0.35210376856E+02  0.00000000000E+00 0.  1.
         11    1    1    2    0    0 -0.26846539043E+02  0.12674001565E+03  0.36094636088E+03  0.38349190820E+03  0.00000000000E+00 0. -1.
</event>
<event>
 7    1  0.2728221E-009  0.1185151E+03  0.7561462E-02  0.1245567E+00
         -1   -1    0    0    0  501 -0.00000000000E+00  0.00000000000E+00  0.42576876781E+02  0.42576876781E+02  0.00000000000E+00 0.  1.
          1   -1    0    0  501    0  0.00000000000E+00 -0.00000000000E+00 -0.40295257126E+03  0.40295257126E+03  0.00000000000E+00 0. -1.
         25    2    1    2    0    0  0.61319344847E+02  0.64909322501E+01 -0.12722099310E+03  0.18877491873E+03  0.12509434281E+03 0.  0.
          5    1    3    3  502    0  0.14230699074E+02  0.61932790383E+02 -0.78690486579E+02  0.10123165710E+03  0.41800000000E+01 0.  1.
         -5    1    3    3    0  502  0.47088645774E+02 -0.55441858133E+02 -0.48530506524E+02  0.87543261634E+02  0.41800000000E+01 0.  1.
        -11    1    1    2    0    0  0.16937595647E+01 -0.32334634693E+02 -0.37285846593E+02  0.49382504780E+02  0.00000000000E+00 0.  1.
         11    1    1    2    0    0 -0.63013104412E+02  0.25843702443E+02 -0.19586885479E+03  0.20737202453E+03  0.00000000000E+00 0. -1.
</event>
<event>
 7    1  0.2728221E-009  0.1647978E+03  0.7561462E-02  0.1183384E+00
          2   -1    0    0  501    0  0.00000000000E+00  0.00000000000E+00  0.15293263926E+04  0.15293263926E+04  0.00000000000E+00 0. -1.
         -2   -1    0    0    0  501 -0.00000000000E+00 -0.00000000000E+00 -0.26005568672E+02  0.26005568672E+02  0.00000000000E+00 0.  1.
         25    2    1    2    0    0 -0.33485824985E+02  0.13779168610E+03  0.11326062770E+04  0.11482822074E+04  0.12508876809E+03 0.  0.
          5    1    3    3  502    0 -0.74608600293E+02  0.98573982046E+02  0.59874280450E+03  0.61138669556E+03  0.41800000000E+01 0. -1.
         -5    1    3    3    0  502  0.41122775308E+02  0.39217704053E+02  0.53386347252E+03  0.53689551186E+03  0.41800000000E+01 0. -1.
        -11    1    1    2    0    0  0.13105839265E+02 -0.41693560352E+01  0.14564605584E+01  0.13829961314E+02  0.00000000000E+00 0.  1.
         11    1    1    2    0    0  0.20379985720E+02 -0.13362233006E+03  0.36925808640E+03  0.39321979258E+03  0.00000000000E+00 0. -1.
</event>
<event>
 7    1  0.2728221E-009  0.1605467E+03  0.7561462E-02  0.1188081E+00
          2   -1    0    0  501    0  0.00000000000E+00  0.00000000000E+00  0.50360033492E+03  0.50360033492E+03  0.00000000000E+00 0. -1.
         -2   -1    0    0    0  501 -0.00000000000E+00 -0.00000000000E+00 -0.69775847332E+02  0.69775847332E+02  0.00000000000E+00 0.  1.
         25    2    1    2    0    0 -0.89399478417E+02 -0.11737931078E+03  0.28911439100E+03  0.34785597810E+03  0.12508589481E+03 0.  0.
          5    1    3    3  502    0  0.16633748863E+02 -0.31546020894E+02  0.10182485421E+02  0.37322760413E+02  0.41800000000E+01 0. -1.
         -5    1    3    3    0  502 -0.10603322728E+03 -0.85833289882E+02  0.27893190558E+03  0.31053321769E+03  0.41800000000E+01 0.  1.
        -11    1    1    2    0    0  0.29429056257E+02  0.25264076819E+02 -0.57265703712E+01  0.39206332880E+02  0.00000000000E+00 0.  1.
         11    1    1    2    0    0  0.59970422160E+02  0.92115233957E+02  0.15043666696E+03  0.18631387127E+03  0.00000000000E+00 0. -1.
</event>
<event>
 6    1  0.2728221E-009  0.1220648E+03  0.7561462E-02  0.1239729E+00
         -1   -1    0    0    0  501 -0.00000000000E+00  0.00000000000E+00  0.76704575734E+02  0.76704575734E+02  0.00000000000E+00 0.  1.
          1   -1    0    0  501    0  0.00000000000E+00 -0.00000000000E+00 -0.27951720430E+03  0.27951720430E+03  0.00000000000E+00 0. -1.
          5    1    1    2  502    0  0.47335139166E+02  0.48217936453E+02  0.60444456452E+01  0.67967584324E+02  0.41800000000E+01 0. -1.
         -5    1    1    2    0  502 -0.67940304445E+02  0.29398227978E+02 -0.40397613989E+02  0.84436842624E+02  0.41800000000E+01 0. -1.
        -11    1    1    2    0    0 -0.90548883603E+01 -0.71411569125E+02 -0.15451725100E+03  0.17046167916E+03  0.00000000000E+00 0.  1.
         11    1    1    2    0    0  0.29660053639E+02 -0.62045953058E+01 -0.13942209231E+02  0.33355673926E+02  0.00000000000E+00 0. -1.
</event>
<event>
 7    1  0.2728221E-009  0.1441308E+03  0.7561462E-02  0.1207876E+00
         -1   -1    0    0    0  501 -0.00000000000E+00  0.00000000000E+00  0.92836057850E+02  0.92836057850E+02  0.00000000000E+00 0.  1.
          1   -1    0    0  501    0  0.00000000000E+00 -0.00000000000E+00 -0.44293679730E+03  0.44293679730E+03  0.00000000000E+00 0. -1.
         25    2    1    2    0    0  0.65630451839E+02  0.10748173073E+03 -0.33688828386E+03  0.38078973700E+03  0.12508968523E+03 0.  0.
          5    1    3    3  502    0 -0.77532013121E+01 -0.11995622793E+02  0.10245548187E+01  0.14917412958E+02  0.41800000000E+01 0. -1.
         -5    1    3    3    0  502  0.73383653151E+02  0.11947735352E+03 -0.33791283868E+03  0.36587232404E+03  0.41800000000E+01 0. -1.
        -11    1    1    2    0    0 -0.34162734494E+02 -0.91787191557E+02  0.26972506647E+02  0.10158492544E+03  0.00000000000E+00 0.  1.
         11    1    1    2    0    0 -0.31467717345E+02 -0.15694539173E+02 -0.40184962239E+02  0.53398192712E+02  0.00000000000E+00 0. -1.
</event>
<event>
 7    1  0.2728221E-009  0.1100298E+03  0.7561462E-02  0.1260515E+00
         -1   -1    0    0    0  501 -0.00000000000E+00  0.00000000000E+00  0.58801982057E+02  0.58801982057E+02  0.00000000000E+00 0.  1.
          1   -1    0    0  501    0  0.00000000000E+00 -0.00000000000E+00 -0.25723325719E+03  0.25723325719E+03  0.00000000000E+00 0. -1.
         25    2    1    2    0    0  0.13710943645E+02  0.44907447556E+02 -0.70379150997E+02  0.15101643857E+03  0.12509224997E+03 0.  0.
          5    1    3    3  502    0  0.49785952937E+02 -0.18188787546E+02 -0.54148707233E+01  0.53444048567E+02  0.41800000000E+01 0.  1.
         -5    1    3    3    0  502 -0.36075009292E+02  0.63096235103E+02 -0.64964280274E+02  0.97572390004E+02  0.41800000000E+01 0.  1.
        -11    1    1    2    0    0 -0.42231336713E+02 -0.49645706085E+02 -0.11726369025E+03  0.13416018405E+03  0.00000000000E+00 0. -1.
         11    1    1    2    0    0  0.28520393068E+02  0.47382585283E+01 -0.10788433891E+02  0.30858616632E+02  0.00000000000E+00 0.  1.
</event>
<event>
 7    1  0.2728221E-009  0.5645477E+02  0.7561462E-02  0.1413342E+00
          2   -1    0    0  501    0  0.00000000000E+00  0.00000000000E+00  0.12779443788E+03  0.12779443788E+03  0.00000000000E+00 0. -1.
         -2   -1    0    0    0  501 -0.00000000000E+00 -0.00000000000E+00 -0.10251870986E+03  0.10251870986E+03  0.00000000000E+00 0.  1.
         25    2    1    2    0    0  0.15873367570E+02 -0.18735960597E+02  0.40931500032E+02  0.13389065842E+03  0.12509324802E+03 0.  0.
          5    1    3    3  502    0  0.49954225028E+01  0.24659866908E+02 -0.36403612427E+02  0.44449507080E+02  0.41800000000E+01 0. -1.
         -5    1    3    3    0  502  0.10877945068E+02 -0.43395827505E+02  0.77335112459E+02  0.89441151338E+02  0.41800000000E+01 0. -1.
        -11    1    1    2    0    0 -0.33294204086E+00  0.25514164413E+02  0.34823956517E+02  0.43171650229E+02  0.00000000000E+00 0. -1.
         11    1    1    2    0    0 -0.15540425529E+02 -0.67782038160E+01 -0.50479728529E+02  0.53250839101E+02  0.00000000000E+00 0.  1.
</event>
<event>
 7    1  0.2728221E-009  0.1186372E+03  0.7561462E-02  0.1245362E+00
         -1   -1    0    0    0  501 -0.00000000000E+00  0.00000000000E+00  0.33599683938E+02  0.33599683938E+02  0.00000000000E+00 0.  1.
          1   -1    0    0  501    0  0.00000000000E+00 -0.00000000000E+00 -0.87525090148E+03  0.87525090148E+03  0.00000000000E+00 0. -1.
         25    2    1    2    0    0 -0.14769368972E+02 -0.92993653492E+02 -0.69832046370E+03  0.71565709684E+03  0.12509059272E+03 0.  0.
          5    1    3    3  502    0  0.41774844864E+01 -0.11415085528E+03 -0.64547765366E+03  0.65552020786E+03  0.41800000000E+01 0.  1.
         -5    1    3    3    0  502 -0.18946853459E+02  0.21157201789E+02 -0.52842810039E+02  0.60136888981E+02  0.41800000000E+01 0.  1.
        -11    1    1    2    0    0  0.66567664556E+01  0.55801818716E+02 -0.13361096282E+02  0.57763954206E+02  0.00000000000E+00 0.  1.
         11    1    1    2    0    0  0.81126025168E+01  0.37191834777E+02 -0.12996965756E+03  0.13542953437E+03  0.00000000000E+00 0. -1.
</event>
<event>
 7    1  0.2728221E-009  0.8994274E+02  0.7561462E-02  0.1302990E+00
         -1   -1    0    0    0  501 -0.00000000000E+00  0.00000000000E+00  0.32665886089E+02  0.32665886089E+02  0.00000000000E+00 0.  1.
          1   -1    0    0  501    0  0.00000000000E+00 -0.00000000000E+00 -0.46044998664E+03  0.46044998664E+03  0.00000000000E+00 0. -1.
         25    2    1    2    0    0  0.44428763643E+02 -0.25282725919E+02 -0.27157057353E+03  0.30333410150E+03  0.12509144438E+03 0.  0.
          5    1    3    3  502    0  0.70795518639E+02 -0.38692079426E+01 -0.25611914206E+03  0.26578461874E+03  0.41800000000E+01 0.  1.
         -5    1    3    3    0  502 -0.26366754996E+02 -0.21413517976E+02 -0.15451431471E+02  0.37549482762E+02  0.41800000000E+01 0.  1.
        -11    1    1    2    0    0 -0.53247026990E+02  0.61877818517E+01 -0.29207557574E+02  0.61046014996E+02  0.00000000000E+00 0.  1.
         11    1    1    2    0    0  0.88182633476E+01  0.19094944067E+02 -0.12700596945E+03  0.12873575624E+03  0.00000000000E+00 0. -1.
</event>
<event>
 7    1  0.2728221E-009  0.1120671E+03  0.7561462E-02  0.1256789E+00
         -2   -1    0    0    0  501 -0.00000000000E+00  0.00000000000E+00  0.24796104981E+02  0.24796104981E+02  0.00000000000E+00 0. -1.
          2   -1    0    0  501    0  0.00000000000E+00 -0.00000000000E+00 -0.57253812430E+03  0.57253812430E+03  0.00000000000E+00 0.  1.
         25    2    1    2    0    0 -0.21782819517E+02 -0.42565233517E+02 -0.33517223099E+03  0.36092940864E+03  0.12507327159E+03 0.  0.
          5    1    3    3  502    0  0.33610876310E+02  0.22253518884E+02 -0.17274957600E+03  0.17743956300E+03  0.41800000000E+01 0.  1.
         -5    1    3    3    0  502 -0.55393695827E+02 -0.64818752402E+02 -0.16242265499E+03  0.18348984564E+03  0.41800000000E+01 0.  1.
        -11    1    1    2    0    0  0.34578268521E+02  0.64306968013E+02 -0.12007414432E+03  0.14053057647E+03  0.00000000000E+00 0. -1.
         11    1    1    2    0    0 -0.12795449003E+02 -0.21741734496E+02 -0.92495644016E+02  0.95874244175E+02  0.00000000000E+00 0.  1.
</event>
<event>
 7    1  0.2728221E-009  0.1273124E+03  0.7561462E-02  0.1231499E+00
         -2   -1    0    0    0  501 -0.00000000000E+00  0.00000000000E+00  0.15661981876E+03  0.15661981876E+03  0.00000000000E+00 0.  1.
          2   -1    0    0  501    0  0.00000000000E+00 -0.00000000000E+00 -0.16567844020E+03  0.16567844020E+03  0.00000000000E+00 0. -1.
         25    2    1    2    0    0  0.57436644777E+02 -0.69610502174E+02  0.73261226687E+02  0.17076453885E+03  0.12509488485E+03 0.  0.
          5    1    3    3  502    0 -0.10237337030E+02  0.29467421210E+02  0.28966082786E+01  0.31606877760E+02  0.41800000000E+01 0. -1.
         -5    1    3    3    0  502  0.67673981807E+02 -0.99077923383E+02  0.70364618409E+02  0.13915766109E+03  0.41800000000E+01 0. -1.
        -11    1    1    2    0    0 -0.24858401891E+02  0.65744511958E+02 -0.85593144920E+01  0.70806375855E+02  0.00000000000E+00 0.  1.
         11    1    1    2    0    0 -0.32578242887E+02  0.38659902155E+01 -0.73760533631E+02  0.80727344261E+02  0.00000000000E+00 0. -1.
</event>
<event>
 7    1  0.2728221E-009  0.1942439E+03  0.7561462E-02  0.1154688E+00
          1   -1    0    0  501    0  0.00000000000E+00  0.00000000000E+00  0.20980224830E+03  0.20980224830E+03  0.00000000000E+00 0. -1.
         -1   -1    0    0    0  501 -0.00000000000E+00 -0.00000000000E+00 -0.20582882695E+03  0.20582882695E+03  0.00000000000E+00 0.  1.
         25    2    1    2    0    0  0.12994590877E+03 -0.94820981668E+02 -0.70615002678E+02  0.21566343980E+03  0.12508909982E+03 0.  0.
          5    1    3    3  502    0  0.55163590799E+02 -0.11357332337E+03 -0.38798842742E+02  0.13215424370E+03  0.41800000000E+01 0. -1.
         -5    1    3    3    0  502  0.74782317970E+02  0.18752341701E+02 -0.31816159936E+02  0.83509196100E+02  0.41800000000E+01 0. -1.
        -11    1    1    2    0    0 -0.14432836323E+03  0.84514201777E+02  0.71974301337E+02  0.18208137409E+03  0.00000000000E+00 0. -1.
         11    1    1    2    0    0  0.14382454466E+02  0.10306779891E+02  0.26141226880E+01  0.17886261365E+02  0.00000000000E+00 0.  1.
</event>
<event>
 7    1  0.2728221E-009  0.1349578E+03  0.7561462E-02  0.1220279E+00
         -2   -1    0    0    0  501 -0.00000000000E+00  0.00000000000E+00  0.33330284335E+02  0.33330284335E+02  0.00000000000E+00 0.  1.
          2   -1    0    0  501    0  0.00000000000E+00 -0.00000000000E+00 -0.58223616874E+03  0.58223616874E+03  0.00000000000E+00 0. -1.
         25    2    1    2    0    0 -0.75016037523E+02 -0.44134704031E+02 -0.31584681828E+03  0.35068805834E+03  0.12509046191E+03 0.  0.
          5    1    3    3  502    0  0.11167910249E+02 -0.56246706544E+02 -0.74582769510E+02  0.94172586903E+02  0.41800000000E+01 0.  1.
         -5    1    3    3    0  502 -0.86183947771E+02  0.12112002513E+02 -0.24126404877E+03  0.25651547144E+03  0.41800000000E+01 0.  1.
        -11    1    1    2    0    0  0.91548561426E+02  0.53751082089E+02 -0.20594714859E+03  0.23169925752E+03  0.00000000000E+00 0. -1.
         11    1    1    2    0    0 -0.16532523904E+02 -0.96163780575E+01 -0.27111917542E+02  0.33179137215E+02  0.00000000000E+00 0.  1.
</event>
<event>
 7    1  0.2728221E-009  0.1217730E+03  0.7561462E-02  0.1240201E+00
          1   -1    0    0  501    0  0.00000000000E+00  0.00000000000E+00  0.48533779758E+03  0.48533779758E+03  0.00000000000E+00 0. -1.
         -1   -1    0    0    0  501 -0.00000000000E+00 -0.00000000000E+00 -0.35176684359E+02  0.35176684359E+02  0.00000000000E+00 0.  1.
         25    2    1    2    0    0  0.31132848258E+01 -0.62646074139E+02  0.33026476803E+03  0.35869123262E+03  0.12510139970E+03 0.  0.
          5    1    3    3  502    0 -0.57084449279E+02 -0.72471887922E+01  0.12441556520E+03  0.13714175644E+03  0.41800000000E+01 0.  1.
         -5    1    3    3    0  502  0.60197734105E+02 -0.55398885347E+02  0.20584920283E+03  0.22154947618E+03  0.41800000000E+01 0.  1.
        -11    1    1    2    0    0 -0.29060628519E+02 -0.67610251318E+01  0.15000630050E+02  0.33395366335E+02  0.00000000000E+00 0.  1.
         11    1    1    2    0    0  0.25947343694E+02  0.69407099271E+02  0.10489571514E+03  0.12842788299E+03  0.00000000000E+00 0. -1.
</event>
<event>
 7    1  0.2728221E-009  0.5697768E+02  0.7561462E-02  0.1410971E+00
          1   -1    0    0  501    0  0.00000000000E+00  0.00000000000E+00  0.48886242170E+03  0.48886242170E+03  0.00000000000E+00 0. -1.
         -1   -1    0    0    0  501 -0.00000000000E+00 -0.00000000000E+00 -0.24659878347E+02  0.24659878347E+02  0.00000000000E+00 0.  1.
         25    2    1    2    0    0  0.13359564198E+02 -0.78309156132E+00  0.24111827513E+03  0.27197076208E+03  0.12510388337E+03 0.  0.
          5    1    3    3  502    0  0.22395379773E+02 -0.48493789883E+01 -0.64499520218E+01  0.24169066859E+02  0.41800000000E+01 0.  1.
         -5    1    3    3    0  502 -0.90358155748E+01  0.40662874270E+01  0.24756822716E+03  0.24780169522E+03  0.41800000000E+01 0.  1.
        -11    1    1    2    0    0  0.24469512782E+02  0.25007821069E+02  0.16195993406E+03  0.16569601206E+03  0.00000000000E+00 0. -1.
         11    1    1    2    0    0 -0.37829076981E+02 -0.24224729508E+02  0.61124334156E+02  0.75855525909E+02  0.00000000000E+00 0.  1.
</event>
<event>
 7    1  0.2728221E-009  0.1704720E+03  0.7561462E-02  0.1177357E+00
          2   -1    0    0  501    0  0.00000000000E+00  0.00000000000E+00  0.39801288315E+03  0.39801288315E+03  0.00000000000E+00 0.  1.
         -2   -1    0    0    0  501 -0.00000000000E+00 -0.00000000000E+00 -0.82118811663E+02  0.82118811663E+02  0.00000000000E+00 0. -1.
         25    2    1    2    0    0  0.14301746369E+03  0.63956922946E+01  0.14694803357E+03  0.24028259368E+03  0.12508837057E+03 0.  0.
          5    1    3    3  502    0  0.15502396239E+02 -0.34717910626E+02 -0.39399591125E+01  0.38453261047E+02  0.41800000000E+01 0. -1.
         -5    1    3    3    0  502  0.12751506745E+03  0.41113602920E+02  0.15088799268E+03  0.20182933263E+03  0.41800000000E+01 0. -1.
        -11    1    1    2    0    0 -0.86978508626E+01  0.28559992056E+02  0.18321198249E+02  0.35028446457E+02  0.00000000000E+00 0. -1.
         11    1    1    2    0    0 -0.13431961283E+03 -0.34955684351E+02  0.15062483967E+03  0.20482065468E+03  0.00000000000E+00 0.  1.
</event>
<event>
 7    1  0.2728221E-009  0.9936545E+02  0.7561462E-02  0.1281636E+00
         -1   -1    0    0    0  501 -0.00000000000E+00  0.00000000000E+00  0.26108112372E+02  0.26108112372E+02  0.00000000000E+00 0.  1.
          1   -1    0    0  501    0  0.00000000000E+00 -0.00000000000E+00 -0.46849161693E+03  0.46849161693E+03  0.00000000000E+00 0. -1.
         25    2    1    2    0    0 -0.92822054834E+00 -0.84331752738E+01 -0.19799050622E+03  0.23435064544E+03  0.12509198386E+03 0.  0.
          5    1    3    3  502    0  0.44572947668E+02 -0.35084019657E+02 -0.45163778409E+02  0.72628337302E+02  0.41800000000E+01 0.  1.
         -5    1    3    3    0  502 -0.45501168217E+02  0.26650844383E+02 -0.15282672782E+03  0.16172230814E+03  0.41800000000E+01 0.  1.
        -11    1    1    2    0    0  0.38354183977E+02  0.27266372773E+02 -0.11554535581E+03  0.12476068196E+03  0.00000000000E+00 0.  1.
         11    1    1    2    0    0 -0.37425963428E+02 -0.18833197499E+02 -0.12884764252E+03  0.13548840190E+03  0.00000000000E+00 0. -1.
</event>
<event>
 7    1  0.2728221E-009  0.1111016E+03  0.7561462E-02  0.1258543E+00
          2   -1    0    0  501    0  0.00000000000E+00  0.00000000000E+00  0.18252759029E+03  0.18252759029E+03  0.00000000000E+00 0. -1.
         -2   -1    0    0    0  501 -0.00000000000E+00 -0.00000000000E+00 -0.11711589594E+03  0.11711589594E+03  0.00000000000E+00 0.  1.
         25    2    1    2    0    0 -0.73949531554E+02  0.64698857183E+02  0.43147494263E+02  0.16481369436E+03  0.12508945699E+03 0.  0.
          5    1    3    3  502    0 -0.56868207589E+02  0.29443908542E+02 -0.38018746331E+02  0.74591113795E+02  0.41800000000E+01 0.  1.
         -5    1    3    3    0  502 -0.17081323965E+02  0.35254948641E+02  0.81166240594E+02  0.90222580567E+02  0.41800000000E+01 0.  1.
        -11    1    1    2    0    0  0.18782302632E+02 -0.60449724544E+02 -0.18677954710E+02  0.65998561210E+02  0.00000000000E+00 0.  1.
         11    1    1    2    0    0  0.55167228922E+02 -0.42491326394E+01  0.40942154797E+02  0.68831230663E+02  0.00000000000E+00 0. -1.
</event>
<event>
 7    1  0.2728221E-009  0.2466789E+03  0.7561462E-02  0.1115422E+00
         -2   -1    0    0    0  501 -0.00000000000E+00  0.00000000000E+00  0.55156207361E+02  0.55156207361E+02  0.00000000000E+00 0.  1.
          2   -1    0    0  501    0  0.00000000000E+00 -0.00000000000E+00 -0.15896241589E+04  0.15896241589E+04  0.00000000000E+00 0. -1.
         25    2    1    2    0    0 -0.18671146889E+03  0.15547577514E+03 -0.42382620071E+03  0.50430209977E+03  0.12513221068E+03 0.  0.
          5    1    3    3  502    0 -0.23949454550E+02  0.24745512756E+02 -0.33706685662E+01  0.34853272176E+02  0.41800000000E+01 0.  1.
         -5    1    3    3    0  502 -0.16276201434E+03  0.13073026239E+03 -0.42045553215E+03  0.46944882759E+03  0.41800000000E+01 0.  1.
        -11    1    1    2    0    0  0.14330473422E+03 -0.83627998286E+02 -0.86829378524E+03  0.88400451720E+03  0.00000000000E+00 0.  1.
         11    1    1    2    0    0  0.43406734666E+02 -0.71847776856E+02 -0.24234796562E+03  0.25647374933E+03  0.00000000000E+00 0. -1.
</event>
<event>
 7    1  0.2728221E-009  0.2675653E+03  0.7561462E-02  0.1102681E+00
         -1   -1    0    0    0  501 -0.00000000000E+00  0.00000000000E+00  0.43793488614E+03  0.43793488614E+03  0.00000000000E+00 0.  1.
          1   -1    0    0  501    0  0.00000000000E+00 -0.00000000000E+00 -0.22454702190E+03  0.22454702190E+03  0.00000000000E+00 0. -1.
         25    2    1    2    0    0  0.17517969931E+03  0.19165862673E+03 -0.37656531856E+02  0.29066496105E+03  0.12508856439E+03 0.  0.
          5    1    3    3  502    0  0.63738466146E+02  0.10608700972E+03  0.39924952714E+02  0.13010964587E+03  0.41800000000E+01 0. -1.
         -5    1    3    3    0  502  0.11144123316E+03  0.85571617005E+02 -0.77581484569E+02  0.16055531518E+03  0.41800000000E+01 0. -1.
        -11    1    1    2    0    0 -0.11005826720E+03 -0.63722891267E+02  0.14784182891E+03  0.19501444927E+03  0.00000000000E+00 0. -1.
         11    1    1    2    0    0 -0.65121432103E+02 -0.12793573546E+03  0.10320256719E+03  0.17680249772E+03  0.00000000000E+00 0.  1.
</event>
<event>
 7    1  0.2728221E-009  0.8877313E+02  0.7561462E-02  0.1305850E+00
         -2   -1    0    0    0  501 -0.00000000000E+00  0.00000000000E+00  0.27600619526E+03  0.27600619526E+03  0.00000000000E+00 0.  1.
          2   -1    0    0  501    0  0.00000000000E+00 -0.00000000000E+00 -0.49800019992E+02  0.49800019992E+02  0.00000000000E+00 0. -1.
         25    2    1    2    0    0 -0.17990406299E+02 -0.43737516626E+02  0.14375482369E+03  0.19633912584E+03  0.12508788079E+03 0.  0.
          5    1    3    3  502    0 -0.15769532690E+02  0.30573655069E+02  0.10860160874E+03  0.11399652787E+03  0.41800000000E+01 0.  1.
         -5    1    3    3    0  502 -0.22208736095E+01 -0.74311171695E+02  0.35153214949E+02  0.82342597964E+02  0.41800000000E+01 0.  1.
        -11    1    1    2    0    0  0.18560231746E+02 -0.53686026287E+01 -0.12188416394E+02  0.22844290115E+02  0.00000000000E+00 0. -1.
         11    1    1    2    0    0 -0.56982544638E+00  0.49106119254E+02  0.94639767968E+02  0.10662279930E+03  0.00000000000E+00 0.  1.
</event>
<event>
 7    1  0.2728221E-009  0.2680024E+03  0.7561462E-02  0.1102428E+00
          1   -1    0    0  501    0  0.00000000000E+00  0.00000000000E+00  0.10624749623E+03  0.10624749623E+03  0.00000000000E+00 0. -1.
         -1   -1    0    0    0  501 -0.00000000000E+00 -0.00000000000E+00 -0.95355246564E+03  0.95355246564E+03  0.00000000000E+00 0.  1.
         25    2    1    2    0    0 -0.11660626736E+02  0.25763749668E+03 -0.18006531821E+03  0.33850286638E+03  0.12509045454E+03 0.  0.
          5    1    3    3  502    0  0.29836673694E+02  0.50572260748E+02 -0.92943760634E+02  0.11001725181E+03  0.41800000000E+01 0. -1.
         -5    1    3    3    0  502 -0.41497300431E+02  0.20706523593E+03 -0.87121557573E+02  0.22848561457E+03  0.41800000000E+01 0. -1.
        -11    1    1    2    0    0 -0.25267182941E+01 -0.24959194835E+03 -0.65487304852E+03  0.70082896248E+03  0.00000000000E+00 0.  1.
         11    1    1    2    0    0  0.14187345031E+02 -0.80455483268E+01 -0.12366602686E+02  0.20468133009E+02  0.00000000000E+00 0. -1.
</event>
<event>
 7    1  0.2728221E-009  0.1078554E+03  0.7561462E-02  0.1264594E+00
          1   -1    0    0  501    0  0.00000000000E+00  0.00000000000E+00  0.18480798987E+03  0.18480798987E+03  0.00000000000E+00 0. -1.
         -1   -1    0    0    0  501 -0.00000000000E+00 -0.00000000000E+00 -0.10007337842E+03  0.10007337842E+03  0.00000000000E+00 0.  1.
         25    2    1    2    0    0 -0.46948038280E+02  0.58433851613E+02  0.11913390966E+02  0.14630573365E+03  0.12507919691E+03 0.  0.
          5    1    3    3  502    0 -0.77685115563E+02  0.46228101307E+02 -0.27598293686E+02  0.94610531891E+02  0.41800000000E+01 0. -1.
         -5    1    3    3    0  502  0.30737077283E+02  0.12205750306E+02  0.39511684651E+02  0.51695201754E+02  0.41800000000E+01 0. -1.
        -11    1    1    2    0    0  0.40116916857E+02 -0.68696143909E+02  0.16920396276E+02  0.81331586830E+02  0.00000000000E+00 0.  1.
         11    1    1    2    0    0  0.68311214229E+01  0.10262292296E+02  0.55900824204E+02  0.57244047811E+02  0.00000000000E+00 0. -1.
</event>
<event>
 7    1  0.2728221E-009  0.1463573E+03  0.7561462E-02  0.1205022E+00
          2   -1    0    0  501    0  0.00000000000E+00  0.00000000000E+00  0.63725660218E+03  0.63725660218E+03  0.00000000000E+00 0. -1.
         -2   -1    0    0    0  501 -0.00000000000E+00 -0.00000000000E+00 -0.43743335226E+02  0.43743335226E+02  0.00000000000E+00 0.  1.
         25    2    1    2    0    0 -0.11453310491E+03 -0.11929092870E+02  0.42552243462E+03  0.45823283259E+03  0.12509137109E+03 0.  0.
          5    1    3    3  502    0 -0.10699778270E+03 -0.42093810879E+02  0.40431151834E+03  0.42036375995E+03  0.41800000000E+01 0.  1.
         -5    1    3    3    0  502 -0.75353222121E+01  0.30164718009E+02  0.21210916284E+02  0.37869072646E+02  0.41800000000E+01 0.  1.
        -11    1    1    2    0    0  0.55139330449E+02  0.51069771193E+02  0.87885375520E+02  0.11563868956E+03  0.00000000000E+00 0. -1.
         11    1    1    2    0    0  0.59393774462E+02 -0.39140678323E+02  0.80105456813E+02  0.10712841526E+03  0.00000000000E+00 0.  1.
</event>
<event>
 7    1  0.2728221E-009  0.1168229E+03  0.7561462E-02  0.1248432E+00
         -4   -1    0    0    0  501 -0.00000000000E+00  0.00000000000E+00  0.45265571479E+02  0.45265571479E+02  0.00000000000E+00 0.  1.
          4   -1    0    0  501    0  0.00000000000E+00 -0.00000000000E+00 -0.39629154111E+03  0.39629154111E+03  0.00000000000E+00 0. -1.
         25    2    1    2    0    0  0.20613554072E+02  0.64978251914E+02 -0.25750778820E+03  0.29429043322E+03  0.12509798668E+03 0.  0.
          5    1    3    3  502    0 -0.26876800538E+02 -0.12047884180E+02 -0.11087901799E+02  0.31747880035E+02  0.41800000000E+01 0. -1.
         -5    1    3    3    0  502  0.47490354610E+02  0.77026136094E+02 -0.24641988640E+03  0.26254255319E+03  0.41800000000E+01 0. -1.
        -11    1    1    2    0    0 -0.41563095199E+02 -0.78185084618E+02 -0.67446036943E+02  0.11130753002E+03  0.00000000000E+00 0.  1.
         11    1    1    2    0    0  0.20949541127E+02  0.13206832705E+02 -0.26072144497E+02  0.35959149353E+02  0.00000000000E+00 0. -1.
</event>
<event>
 7    1  0.2728221E-009  0.2517719E+03  0.7561462E-02  0.1112190E+00
          2   -1    0    0  501    0  0.00000000000E+00  0.00000000000E+00  0.91192172549E+03  0.91192172549E+03  0.00000000000E+00 0.  1.
         -2   -1    0    0    0  501 -0.00000000000E+00 -0.00000000000E+00 -0.80372963190E+02  0.80372963190E+02  0.00000000000E+00 0. -1.
         25    2    1    2    0    0 -0.11442578442E+03  0.21637564679E+03  0.49544321780E+03  0.56658804073E+03  0.12508535153E+03 0.  0.
          5    1    3    3  502    0 -0.17531189070E+02  0.88536080813E+02  0.30214340837E+03  0.31536342815E+03  0.41800000000E+01 0. -1.
         -5    1    3    3    0  502 -0.96894595347E+02  0.12783956598E+03  0.19329980943E+03  0.25122461258E+03  0.41800000000E+01 0. -1.
        -11    1    1    2    0    0  0.13820293944E+02 -0.90681921149E+02  0.17699060924E+03  0.19934865715E+03  0.00000000000E+00 0.  1.
         11    1    1    2    0    0  0.10060549047E+03 -0.12569372564E+03  0.15911493527E+03  0.22635799081E+03  0.00000000000E+00 0. -1.
</event>
<event>
 7    1  0.2728221E-009  0.2223152E+03  0.7561462E-02  0.1132169E+00
         -2   -1    0    0    0  501 -0.00000000000E+00  0.00000000000E+00  0.15959940735E+03  0.15959940735E+03  0.00000000000E+00 0.  1.
          2   -1    0    0  501    0  0.00000000000E+00 -0.00000000000E+00 -0.33906003867E+03  0.33906003867E+03  0.00000000000E+00 0. -1.
         25    2    1    2    0    0 -0.82473418997E+02  0.18806156955E+03 -0.85152642990E+02  0.25508334876E+03  0.12509006125E+03 0.  0.
          5    1    3    3  502    0 -0.40107875374E+02  0.19115717678E+03 -0.83235651984E+02  0.21235666710E+03  0.41800000000E+01 0.  1.
         -5    1    3    3    0  502 -0.42365543623E+02 -0.30956072328E+01 -0.19169910059E+01  0.42726681654E+02  0.41800000000E+01 0.  1.
        -11    1    1    2    0    0  0.21391930671E+02 -0.76023363389E+02 -0.84396065439E+02  0.11558487072E+03  0.00000000000E+00 0. -1.
         11    1    1    2    0    0  0.61081488327E+02 -0.11203820616E+03 -0.99119228993E+01  0.12799122654E+03  0.00000000000E+00 0.  1.
</event>
<event>
 7    1  0.2728221E-009  0.1390370E+03  0.7561462E-02  0.1214631E+00
         -1   -1    0    0    0  501 -0.00000000000E+00  0.00000000000E+00  0.20836547577E+03  0.20836547577E+03  0.00000000000E+00 0.  1.
          1   -1    0    0  501    0  0.00000000000E+00 -0.00000000000E+00 -0.10114189604E+03  0.10114189604E+03  0.00000000000E+00 0. -1.
         25    2    1    2    0    0  0.10585605224E+03 -0.24551551119E+01  0.46071466833E+02  0.17023976869E+03  0.12508983654E+03 0.  0.
          5    1    3    3  502    0  0.36034087159E+02 -0.61916617317E+02  0.14938845486E+02  0.73299143527E+02  0.41800000000E+01 0.  1.
         -5    1    3    3    0  502  0.69821965085E+02  0.59461462205E+02  0.31132621347E+02  0.96940625167E+02  0.41800000000E+01 0.  1.
        -11    1    1    2    0    0 -0.62424303972E+02 -0.20084395580E+02  0.64785988866E+01  0.65894983996E+02  0.00000000000E+00 0.  1.
         11    1    1    2    0    0 -0.43431748272E+02  0.22539550692E+02  0.54673514001E+02  0.73372619120E+02  0.00000000000E+00 0. -1.
</event>
<event>
 7    1  0.2728221E-009  0.1294891E+03  0.7561462E-02  0.1228216E+00
         -2   -1    0    0    0  501 -0.00000000000E+00  0.00000000000E+00  0.25187358971E+03  0.25187358971E+03  0.00000000000E+00 0.  1.
          2   -1    0    0  501    0  0.00000000000E+00 -0.00000000000E+00 -0.67884792025E+02  0.67884792025E+02  0.00000000000E+00 0. -1.
         25    2    1    2    0    0  0.75262163678E+02 -0.18713620914E+02  0.10433457760E+03  0.18041101699E+03  0.12509131896E+03 0.  0.
          5    1    3    3  502    0  0.10706408128E+03 -0.29302296057E+02  0.92719378195E+02  0.14469173282E+03  0.41800000000E+01 0.  1.
         -5    1    3    3    0  502 -0.31801917598E+02  0.10588675143E+02  0.11615199402E+02  0.35719284166E+02  0.41800000000E+01 0.  1.
        -11    1    1    2    0    0 -0.37193354095E+02 -0.33124120461E+02  0.39037099295E+02  0.63280708486E+02  0.00000000000E+00 0.  1.
         11    1    1    2    0    0 -0.38068809583E+02  0.51837741375E+02  0.40617120797E+02  0.76066656268E+02  0.00000000000E+00 0. -1.
</event>
<event>
 7    1  0.2728221E-009  0.1484857E+03  0.7561462E-02  0.1202346E+00
         -2   -1    0    0    0  501 -0.00000000000E+00  0.00000000000E+00  0.16735855707E+03  0.16735855707E+03  0.00000000000E+00 0.  1.
          2   -1    0    0  501    0  0.00000000000E+00 -0.00000000000E+00 -0.14576502476E+03  0.14576502476E+03  0.00000000000E+00 0. -1.
         25    2    1    2    0    0 -0.10134787225E+03  0.28652992243E+02  0.51147242527E+02  0.17133453389E+03  0.12508835642E+03 0.  0.
          5    1    3    3  502    0 -0.11228596993E+03  0.60493427864E+02  0.29144164102E+02  0.13089861939E+03  0.41800000000E+01 0.  1.
         -5    1    3    3    0  502  0.10938097676E+02 -0.31840435622E+02  0.22003078425E+02  0.40435914501E+02  0.41800000000E+01 0.  1.
        -11    1    1    2    0    0  0.11622396361E+03 -0.31203748407E+02 -0.15806323008E+02  0.12137348755E+03  0.00000000000E+00 0.  1.
         11    1    1    2    0    0 -0.14876091361E+02  0.25507561643E+01 -0.13747387210E+02  0.20415560396E+02  0.00000000000E+00 0. -1.
</event>
<event>
 7    1  0.2728221E-009  0.1357034E+03  0.7561462E-02  0.1219230E+00
          3   -1    0    0  501    0  0.00000000000E+00  0.00000000000E+00  0.10177782133E+03  0.10177782133E+03  0.00000000000E+00 0. -1.
         -3   -1    0    0    0  501 -0.00000000000E+00 -0.00000000000E+00 -0.24813992306E+03  0.24813992306E+03  0.00000000000E+00 0.  1.
         25    2    1    2    0    0 -0.68371483521E+02  0.84738836948E+02 -0.12147482433E+03  0.20556880309E+03  0.12508824730E+03 0.  0.
          5    1    3    3  502    0 -0.50382238460E+02  0.88306154812E+01  0.10330992154E+02  0.52350277181E+02  0.41800000000E+01 0. -1.
         -5    1    3    3    0  502 -0.17989245061E+02  0.75908221466E+02 -0.13180581648E+03  0.15321852591E+03  0.41800000000E+01 0. -1.
        -11    1    1    2    0    0  0.72321662028E+02 -0.10156314381E+03 -0.24481609204E+02  0.12706236331E+03  0.00000000000E+00 0.  1.
         11    1    1    2    0    0 -0.39501785069E+01  0.16824306867E+02 -0.40566820309E+00  0.17286577986E+02  0.00000000000E+00 0. -1.
</event>
<event>
 7    1  0.2728221E-009  0.1066188E+03  0.7561462E-02  0.1266963E+00
          2   -1    0    0  501    0  0.00000000000E+00  0.00000000000E+00  0.82247136547E+03  0.82247136547E+03  0.00000000000E+00 0. -1.
         -2   -1    0    0    0  501 -0.00000000000E+00 -0.00000000000E+00 -0.24140573682E+02  0.24140573682E+02  0.00000000000E+00 0.  1.
         25    2    1    2    0    0  0.83558308805E+02 -0.28522643745E+02  0.43312363712E+03  0.45938965335E+03  0.12508891399E+03 0.  0.
          5    1    3    3  502    0  0.60896014927E+02 -0.32389062634E+02  0.43034610658E+03  0.43585848605E+03  0.41800000000E+01 0.  1.
         -5    1    3    3    0  502  0.22662293878E+02  0.38664188883E+01  0.27775305361E+01  0.23531167304E+02  0.41800000000E+01 0.  1.
        -11    1    1    2    0    0  0.23746071483E+01 -0.21304806663E+02  0.25621891611E+02  0.33406808824E+02  0.00000000000E+00 0.  1.
         11    1    1    2    0    0 -0.85932915953E+02  0.49827450409E+02  0.33958526306E+03  0.35381547697E+03  0.00000000000E+00 0. -1.
</event>
<event>
 7    1  0.2728221E-009  0.9502566E+02  0.7561462E-02  0.1291118E+00
          4   -1    0    0  501    0  0.00000000000E+00  0.00000000000E+00  0.38544337347E+03  0.38544337347E+03  0.00000000000E+00 0. -1.
         -4   -1    0    0    0  501 -0.00000000000E+00 -0.00000000000E+00 -0.30796491407E+02  0.30796491407E+02  0.00000000000E+00 0.  1.
         25    2    1    2    0    0 -0.10061740660E+02 -0.76221456312E+01  0.20977358084E+03  0.24456365817E+03  0.12508833659E+03 0.  0.
          5    1    3    3  502    0  0.30193532672E+01 -0.57754718148E+02  0.50059028104E+02  0.76603542067E+02  0.41800000000E+01 0.  1.
         -5    1    3    3    0  502 -0.13081093927E+02  0.50132572517E+02  0.15971455273E+03  0.16796011610E+03  0.41800000000E+01 0.  1.
        -11    1    1    2    0    0 -0.10190164321E+02  0.40340962127E+02  0.32197004838E+02  0.52610643360E+02  0.00000000000E+00 0.  1.
         11    1    1    2    0    0  0.20251904981E+02 -0.32718816496E+02  0.11267629639E+03  0.11906556335E+03  0.00000000000E+00 0. -1.
</event>
<event>
 7    1  0.2728221E-009  0.1105883E+03  0.7561462E-02  0.1259484E+00
         -1   -1    0    0    0  501 -0.00000000000E+00  0.00000000000E+00  0.14012437689E+03  0.14012437689E+03  0.00000000000E+00 0.  1.
          1   -1    0    0  501    0  0.00000000000E+00 -0.00000000000E+00 -0.97848600706E+02  0.97848600706E+02  0.00000000000E+00 0. -1.
         25    2    1    2    0    0 -0.73530214767E+00 -0.37627038433E+02 -0.52557709810E+01  0.13073116149E+03  0.12508668501E+03 0.  0.
          5    1    3    3  502    0 -0.51345168709E+02 -0.53439464274E+02  0.11177202012E+02  0.75063339497E+02  0.41800000000E+01 0.  1.
         -5    1    3    3    0  502  0.50609866562E+02  0.15812425841E+02 -0.16432972993E+02  0.55667821996E+02  0.41800000000E+01 0.  1.
        -11    1    1    2    0    0  0.48684373386E+01 -0.27791156971E+02  0.25667885370E+02  0.38143025932E+02  0.00000000000E+00 0.  1.
         11    1    1    2    0    0 -0.41331351910E+01  0.65418195403E+02  0.21863661798E+02  0.69098790175E+02  0.00000000000E+00 0. -1.
</event>
<event>
 7    1  0.2728221E-009  0.1149428E+03  0.7561462E-02  0.1251681E+00
          1   -1    0    0  501    0  0.00000000000E+00  0.00000000000E+00  0.52780812300E+02  0.52780812300E+02  0.00000000000E+00 0. -1.
         -1   -1    0    0    0  501 -0.00000000000E+00 -0.00000000000E+00 -0.41334222855E+03  0.41334222855E+03  0.00000000000E+00 0.  1.
         25    2    1    2    0    0  0.36703561007E+02  0.54470411948E+02 -0.77134408023E+02  0.16096994669E+03  0.12508968649E+03 0.  0.
          5    1    3    3  502    0  0.71119442275E+02  0.14346737033E+02 -0.79729328084E+02  0.10787975755E+03  0.41800000000E+01 0. -1.
         -5    1    3    3    0  502 -0.34415881268E+02  0.40123674914E+02  0.25949200614E+01  0.53090189133E+02  0.41800000000E+01 0. -1.
        -11    1    1    2    0    0 -0.32148970109E+02 -0.75821119187E+02 -0.26170113512E+03  0.27435357208E+03  0.00000000000E+00 0.  1.
         11    1    1    2    0    0 -0.45545908974E+01  0.21350707239E+02 -0.21725873108E+02  0.30799522077E+02  0.00000000000E+00 0. -1.
</event>
<event>
 7    1  0.2728221E-009  0.1484276E+03  0.7561462E-02  0.1202419E+00
         -2   -1    0    0    0  501 -0.00000000000E+00  0.00000000000E+00  0.14173549566E+03  0.14173549566E+03  0.00000000000E+00 0. -1.
          2   -1    0    0  501    0  0.00000000000E+00 -0.00000000000E+00 -0.17968778448E+03  0.17968778448E+03  0.00000000000E+00 0.  1.
         25    2    1    2    0    0 -0.78920814936E+02 -0.74806490536E+02 -0.62858933107E+02  0.17727032545E+03  0.12509603014E+03 0.  0.
          5    1    3    3  502    0 -0.33752699688E+02 -0.98391260718E+02 -0.70283727348E+02  0.12560796015E+03  0.41800000000E+01 0.  1.
         -5    1    3    3    0  502 -0.45168115247E+02  0.23584770182E+02  0.74247942411E+01  0.51662365306E+02  0.41800000000E+01 0.  1.
        -11    1    1    2    0    0  0.78918100109E+02  0.93827973380E+02  0.18009962877E+02  0.12391978807E+03  0.00000000000E+00 0.  1.
         11    1    1    2    0    0  0.27148269947E-02 -0.19021482843E+02  0.68966814005E+01  0.20233166615E+02  0.00000000000E+00 0. -1.
</event>
<event>
 7    1  0.2728221E-009  0.1582651E+03  0.7561462E-02  0.1190669E+00
          3   -1    0    0  501    0  0.00000000000E+00  0.00000000000E+00  0.33585001664E+02  0.33585001664E+02  0.00000000000E+00 0. -1.
         -3   -1    0    0    0  501 -0.00000000000E+00 -0.00000000000E+00 -0.80767949430E+03  0.80767949430E+03  0.00000000000E+00 0.  1.
         25    2    1    2    0    0 -0.36887553142E+02  0.11271056468E+03 -0.32339270014E+03  0.36646261458E+03  0.12509055286E+03 0.  0.
          5    1    3    3  502    0 -0.81702512218E+02  0.84884899440E+02 -0.19927694068E+03  0.23153729320E+03  0.41800000000E+01 0.  1.
         -5    1    3    3    0  502  0.44814959076E+02  0.27825665238E+02 -0.12411575947E+03  0.13492532138E+03  0.41800000000E+01 0.  1.
        -11    1    1    2    0    0 -0.80161383285E+01 -0.98209747496E+02 -0.25213830606E+03  0.27070858568E+03  0.00000000000E+00 0.  1.
         11    1    1    2    0    0  0.44903691470E+02 -0.14500817181E+02 -0.19856348643E+03  0.20409329570E+03  0.00000000000E+00 0. -1.
</event>
<event>
 7    1  0.3004045E-009  0.1237322E+03  0.7561462E-02  0.1237064E+00
         -2   -1    0    0    0  501 -0.00000000000E+00  0.00000000000E+00  0.22243080146E+03  0.22243080146E+03  0.00000000000E+00 0.  1.
          2   -1    0    0  501    0  0.00000000000E+00 -0.00000000000E+00 -0.11854876549E+03  0.11854876549E+03  0.00000000000E+00 0. -1.
         25    2    1    2    0    0  0.84794799108E+02  0.76790033349E+02  0.94986867857E+02  0.19430854154E+03  0.12508571889E+03 0.  0.
          5    1    3    3  502    0  0.90706347711E+02  0.53711877273E+02  0.11981776533E+03  0.15964453190E+03  0.41800000000E+01 0.  1.
         -5    1    3    3    0  502 -0.59115486028E+01  0.23078156076E+02 -0.24830897477E+02  0.34664009639E+02  0.41800000000E+01 0.  1.
        -11    1    1    2    0    0 -0.44227174678E+02 -0.21431164823E+02 -0.39200043729E+02  0.62864785325E+02  0.00000000000E+00 0. -1.
         11    1    1    2    0    0 -0.40567624430E+02 -0.55358868526E+02  0.48095211835E+02  0.83806240088E+02  0.00000000000E+00 0.  1.
</event>
<event>
 7    1  0.2728221E-009  0.1455400E+03  0.7561462E-02  0.1206063E+00
          1   -1    0    0  501    0  0.00000000000E+00  0.00000000000E+00  0.49184648426E+03  0.49184648426E+03  0.00000000000E+00 0. -1.
         -1   -1    0    0    0  501 -0.00000000000E+00 -0.00000000000E+00 -0.47602768262E+02  0.47602768262E+02  0.00000000000E+00 0.  1.
         25    2    1    2    0    0  0.91600886123E+02 -0.34771767137E+02  0.15883954556E+03  0.22465606442E+03  0.12506217622E+03 0.  0.
          5    1    3    3  502    0  0.29107191322E+02 -0.77488435119E+02  0.88266247437E+02  0.12107885447E+03  0.41800000000E+01 0. -1.
         -5    1    3    3    0  502  0.62493694800E+02  0.42716667982E+02  0.70573298124E+02  0.10357720995E+03  0.41800000000E+01 0. -1.
        -11    1    1    2    0    0  0.16628380458E+02  0.14941895531E+02  0.58266793430E+02  0.62408192533E+02  0.00000000000E+00 0. -1.
         11    1    1    2    0    0 -0.10822926658E+03  0.19829871606E+02  0.22713737701E+03  0.25238499557E+03  0.00000000000E+00 0.  1.
</event>
<event>
 7    1  0.2728221E-009  0.8198819E+02  0.7561462E-02  0.1323502E+00
         -1   -1    0    0    0  501 -0.00000000000E+00  0.00000000000E+00  0.63426025425E+03  0.63426025425E+03  0.00000000000E+00 0.  1.
          1   -1    0    0  501    0  0.00000000000E+00 -0.00000000000E+00 -0.28562031537E+02  0.28562031537E+02  0.00000000000E+00 0. -1.
         25    2    1    2    0    0  0.27531147015E+02  0.26392879569E+02  0.50666151737E+03  0.52326629051E+03  0.12508864639E+03 0.  0.
          5    1    3    3  502    0 -0.29832232179E+02  0.12986989177E+02  0.35182978515E+02  0.48103412996E+02  0.41800000000E+01 0. -1.
         -5    1    3    3    0  502  0.57363379193E+02  0.13405890391E+02  0.47147853886E+03  0.47516287752E+03  0.41800000000E+01 0. -1.
        -11    1    1    2    0    0 -0.44351746286E+02 -0.31656408923E+02  0.10710707282E+03  0.12017125560E+03  0.00000000000E+00 0.  1.
         11    1    1    2    0    0  0.16820599272E+02  0.52635293540E+01 -0.80703674741E+01  0.19384739675E+02  0.00000000000E+00 0. -1.
</event>
<event>
 7    1  0.2728221E-009  0.1406717E+03  0.7561462E-02  0.1212428E+00
         -2   -1    0    0    0  501 -0.00000000000E+00  0.00000000000E+00  0.12325257402E+03  0.12325257402E+03  0.00000000000E+00 0.  1.
          2   -1    0    0  501    0  0.00000000000E+00 -0.00000000000E+00 -0.30800237766E+03  0.30800237766E+03  0.00000000000E+00 0. -1.
         25    2    1    2    0    0 -0.51718786856E+01 -0.12343314184E+03 -0.21356653646E+03  0.27662109338E+03  0.12508427150E+03 0.  0.
          5    1    3    3  502    0  0.18766979106E+02 -0.32434075402E+02 -0.16764892570E+03  0.17183656025E+03  0.41800000000E+01 0.  1.
         -5    1    3    3    0  502 -0.23938857792E+02 -0.90999066441E+02 -0.45917610761E+02  0.10478453313E+03  0.41800000000E+01 0.  1.
        -11    1    1    2    0    0  0.42237771588E+02  0.40078493116E+02 -0.22356041344E+01  0.58269313408E+02  0.00000000000E+00 0. -1.
         11    1    1    2    0    0 -0.37065892903E+02  0.83354648727E+02  0.31052336948E+02  0.96364544886E+02  0.00000000000E+00 0.  1.
</event>
<event>
 7    1  0.2728221E-009  0.1914679E+03  0.7561462E-02  0.1157144E+00
          2   -1    0    0  501    0  0.00000000000E+00  0.00000000000E+00  0.94500991987E+03  0.94500991987E+03  0.00000000000E+00 0.  1.
         -2   -1    0    0    0  501 -0.00000000000E+00 -0.00000000000E+00 -0.41812785850E+02  0.41812785850E+02  0.00000000000E+00 0. -1.
         25    2    1    2    0    0 -0.16156366173E+03 -0.25033349679E+02  0.38590304393E+03  0.43737616019E+03  0.12508901152E+03 0.  0.
          5    1    3    3  502    0 -0.16225282513E+03 -0.52133367656E+02  0.36514011434E+03  0.40297474212E+03  0.41800000000E+01 0.  1.
         -5    1    3    3    0  502  0.68916339277E+00  0.27100017977E+02  0.20762929589E+02  0.34401418076E+02  0.41800000000E+01 0.  1.
        -11    1    1    2    0    0  0.68946808640E+02  0.54451853387E+02  0.25723270877E+03  0.27182224563E+03  0.00000000000E+00 0.  1.
         11    1    1    2    0    0  0.92616853092E+02 -0.29418503708E+02  0.26006138132E+03  0.27762429989E+03  0.00000000000E+00 0. -1.
</event>
<event>
 7    1  0.2728221E-009  0.1150139E+03  0.7561462E-02  0.1251557E+00
         -2   -1    0    0    0  501 -0.00000000000E+00  0.00000000000E+00  0.12846743756E+02  0.12846743756E+02  0.00000000000E+00 0. -1.
          2   -1    0    0  501    0  0.00000000000E+00 -0.00000000000E+00 -0.13202079826E+04  0.13202079826E+04  0.00000000000E+00 0.  1.
         25    2    1    2    0    0 -0.90865388958E+01 -0.41438792942E+02 -0.10363890708E+04  0.10447717366E+04  0.12508371904E+03 0.  0.
          5    1    3    3  502    0 -0.62795855496E+02  0.16287079637E+01 -0.46931974187E+03  0.47352345735E+03  0.41800000000E+01 0. -1.
         -5    1    3    3    0  502  0.53709316600E+02 -0.43067500906E+02 -0.56706932897E+03  0.57124827929E+03  0.41800000000E+01 0. -1.
        -11    1    1    2    0    0 -0.39907877003E+02  0.17647272473E+02 -0.13164383884E+03  0.13868729277E+03  0.00000000000E+00 0.  1.
         11    1    1    2    0    0  0.48994415899E+02  0.23791520469E+02 -0.13932832913E+03  0.14959569691E+03  0.00000000000E+00 0. -1.
</event>
<event>
 7    1  0.3023952E-009  0.1107665E+03  0.7561462E-02  0.1259157E+00
         -2   -1    0    0    0  501 -0.00000000000E+00  0.00000000000E+00  0.18878142497E+02  0.18878142497E+02  0.00000000000E+00 0. -1.
          2   -1    0    0  501    0  0.00000000000E+00 -0.00000000000E+00 -0.91569743603E+03  0.91569743603E+03  0.00000000000E+00 0.  1.
         25    2    1    2    0    0 -0.67144833280E+02 -0.31858701334E+00 -0.60658321194E+03  0.62297642028E+03  0.12509155477E+03 0.  0.
          5    1    3    3  502    0 -0.79643080183E+02 -0.38858490608E+02 -0.51715730192E+03  0.52471149200E+03  0.41800000000E+01 0. -1.
         -5    1    3    3    0  502  0.12498246903E+02  0.38539903595E+02 -0.89425910026E+02  0.98264928274E+02  0.41800000000E+01 0. -1.
        -11    1    1    2    0    0  0.29231651760E+02 -0.31220963667E+02 -0.22906686020E+03  0.23302545886E+03  0.00000000000E+00 0.  1.
         11    1    1    2    0    0  0.37913181520E+02  0.31539550680E+02 -0.61169221397E+02  0.78573699394E+02  0.00000000000E+00 0. -1.
</event>
<event>
 7    1  0.2728221E-009  0.1008130E+03  0.7561462E-02  0.1278595E+00
          1   -1    0    0  501    0  0.00000000000E+00  0.00000000000E+00  0.11126263062E+03  0.11126263062E+03  0.00000000000E+00 0. -1.
         -1   -1    0    0    0  501 -0.00000000000E+00 -0.00000000000E+00 -0.19329651559E+03  0.19329651559E+03  0.00000000000E+00 0.  1.
         25    2    1    2    0    0 -0.15932371804E+01  0.86456496509E+02  0.32823428373E+01  0.15210476440E+03  0.12509125224E+03 0.  0.
          5    1    3    3  502    0  0.12125925095E+02  0.39236346560E+02 -0.59394924441E+02  0.72330895198E+02  0.41800000000E+01 0. -1.
         -5    1    3    3    0  502 -0.13719162275E+02  0.47220149949E+02  0.62677267278E+02  0.79773869207E+02  0.41800000000E+01 0. -1.
        -11    1    1    2    0    0  0.15862253947E+02  0.63598318941E+01 -0.48785905427E+02  0.51692582934E+02  0.00000000000E+00 0.  1.
         11    1    1    2    0    0 -0.14269016767E+02 -0.92816328403E+02 -0.36530322381E+02  0.10076179887E+03  0.00000000000E+00 0. -1.
</event>
<event>
 7    1  0.4416327E-009  0.1692462E+03  0.7561462E-02  0.1178636E+00
         -1   -1    0    0    0  501 -0.00000000000E+00  0.00000000000E+00  0.13777785867E+02  0.13777785867E+02  0.00000000000E+00 0.  1.
          1   -1    0    0  501    0  0.00000000000E+00 -0.00000000000E+00 -0.21972685458E+04  0.21972685458E+04  0.00000000000E+00 0. -1.
         25    2    1    2    0    0  0.93177624911E+02  0.95433749639E+02 -0.13131333323E+04  0.13258044156E+04  0.12509408242E+03 0.  0.
          5    1    3    3  502    0  0.21360376942E+02 -0.27332107631E+02 -0.41513627831E+03  0.41660402276E+03  0.41800000000E+01 0. -1.
         -5    1    3    3    0  502  0.71817247969E+02  0.12276585727E+03 -0.89799705403E+03  0.90920039280E+03  0.41800000000E+01 0. -1.
        -11    1    1    2    0    0 -0.86326168742E+02 -0.24137482167E+02 -0.51407203982E+03  0.52182840818E+03  0.00000000000E+00 0.  1.
         11    1    1    2    0    0 -0.68514561693E+01 -0.71296267473E+02 -0.35628538779E+03  0.36341350795E+03  0.00000000000E+00 0. -1.
</event>
<event>
 7    1  0.2728221E-009  0.2893502E+03  0.7561462E-02  0.1090689E+00
         -2   -1    0    0    0  501 -0.00000000000E+00  0.00000000000E+00  0.77114050527E+02  0.77114050527E+02  0.00000000000E+00 0.  1.
          2   -1    0    0  501    0  0.00000000000E+00 -0.00000000000E+00 -0.12022750535E+04  0.12022750535E+04  0.00000000000E+00 0. -1.
         25    2    1    2    0    0  0.26394982398E+03 -0.64309868784E+02 -0.74496876938E+03  0.80276370692E+03  0.12508330424E+03 0.  0.
          5    1    3    3  502    0 -0.10946203163E+02  0.34798443224E+00 -0.71768049347E+02  0.72719088030E+02  0.41800000000E+01 0.  1.
         -5    1    3    3    0  502  0.27489602714E+03 -0.64657853216E+02 -0.67320072004E+03  0.73004461890E+03  0.41800000000E+01 0.  1.
        -11    1    1    2    0    0 -0.74155356715E+02 -0.20099762284E+02 -0.13445801763E+03  0.15486115032E+03  0.00000000000E+00 0. -1.
         11    1    1    2    0    0 -0.18979446726E+03  0.84409631068E+02 -0.24573421600E+03  0.32176424682E+03  0.00000000000E+00 0.  1.
</event>
<event>
 7    1  0.2728221E-009  0.9806710E+02  0.7561462E-02  0.1284414E+00
         -2   -1    0    0    0  501 -0.00000000000E+00  0.00000000000E+00  0.65260138703E+02  0.65260138703E+02  0.00000000000E+00 0.  1.
          2   -1    0    0  501    0  0.00000000000E+00 -0.00000000000E+00 -0.18641855184E+03  0.18641855184E+03  0.00000000000E+00 0. -1.
         25    2    1    2    0    0 -0.20715092661E+01 -0.28478460473E+01 -0.10243059396E+03  0.16171715190E+03  0.12509200319E+03 0.  0.
          5    1    3    3  502    0  0.52837066471E+02  0.15031232852E+01 -0.98814428824E+01  0.53936354032E+02  0.41800000000E+01 0.  1.
         -5    1    3    3    0  502 -0.54908575737E+02 -0.43509693325E+01 -0.92549151074E+02  0.10778079786E+03  0.41800000000E+01 0.  1.
        -11    1    1    2    0    0  0.11843547857E+02  0.44004682589E+02 -0.12047810851E+02  0.47136307258E+02  0.00000000000E+00 0. -1.
         11    1    1    2    0    0 -0.97720385905E+01 -0.41156836542E+02 -0.66800083301E+01  0.42825231390E+02  0.00000000000E+00 0.  1.
</event>
<event>
 7    1  0.2728221E-009  0.1529752E+03  0.7561462E-02  0.1196864E+00
          2   -1    0    0  501    0  0.00000000000E+00  0.00000000000E+00  0.76577959469E+03  0.76577959469E+03  0.00000000000E+00 0.  1.
         -2   -1    0    0    0  501 -0.00000000000E+00 -0.00000000000E+00 -0.46940211506E+02  0.46940211506E+02  0.00000000000E+00 0. -1.
         25    2    1    2    0    0 -0.37435667513E+02 -0.13222464983E+03  0.53904802764E+03  0.57018008214E+03  0.12509101781E+03 0.  0.
          5    1    3    3  502    0  0.26892222724E+02 -0.77695255727E+02  0.14098095837E+03  0.16325699810E+03  0.41800000000E+01 0. -1.
         -5    1    3    3    0  502 -0.64327890237E+02 -0.54529394106E+02  0.39806706928E+03  0.40692308404E+03  0.41800000000E+01 0. -1.
        -11    1    1    2    0    0  0.21939011839E+02  0.10957370827E+03  0.18349683423E+03  0.21484600522E+03  0.00000000000E+00 0.  1.
         11    1    1    2    0    0  0.15496655674E+02  0.22650941565E+02 -0.37054786925E+01  0.27693718840E+02  0.00000000000E+00 0. -1.
</event>
<event>
 7    1  0.2728221E-009  0.1210024E+03  0.7561462E-02  0.1241452E+00
          1   -1    0    0  501    0  0.00000000000E+00  0.00000000000E+00  0.50328635089E+02  0.50328635089E+02  0.00000000000E+00 0. -1.
         -1   -1    0    0    0  501 -0.00000000000E+00 -0.00000000000E+00 -0.32502124964E+03  0.32502124964E+03  0.00000000000E+00 0.  1.
         25    2    1    2    0    0 -0.59635579464E+02  0.25618032856E+01 -0.10457417568E+03  0.17362428679E+03  0.12508664825E+03 0.  0.
          5    1    3    3  502    0 -0.91410231222E+02 -0.20918782990E+02 -0.93250862533E+02  0.13231259055E+03  0.41800000000E+01 0.  1.
         -5    1    3    3    0  502  0.31774651758E+02  0.23480586275E+02 -0.11323313148E+02  0.41311696247E+02  0.41800000000E+01 0.  1.
        -11    1    1    2    0    0  0.64729357400E+01  0.39868026014E+02 -0.63984900307E+02  0.75666543879E+02  0.00000000000E+00 0.  1.
         11    1    1    2    0    0  0.53162643724E+02 -0.42429829299E+02 -0.10613353856E+03  0.12605905406E+03  0.00000000000E+00 0. -1.
</event>
<event>
 7    1  0.2728221E-009  0.3128841E+03  0.7561462E-02  0.1078972E+00
          1   -1    0    0  501    0  0.00000000000E+00  0.00000000000E+00  0.26280650567E+03  0.26280650567E+03  0.00000000000E+00 0. -1.
         -1   -1    0    0    0  501 -0.00000000000E+00 -0.00000000000E+00 -0.46969863727E+03  0.46969863727E+03  0.00000000000E+00 0.  1.
         25    2    1    2    0    0 -0.24737073459E+03 -0.18020111644E+03 -0.24388890113E+03  0.41084532063E+03  0.12508940281E+03 0.  0.
          5    1    3    3  502    0 -0.54490722130E+02 -0.26644753977E+02  0.43510717688E+01  0.60955606291E+02  0.41800000000E+01 0. -1.
         -5    1    3    3    0  502 -0.19288001246E+03 -0.15355636246E+03 -0.24823997290E+03  0.34988971434E+03  0.41800000000E+01 0. -1.
        -11    1    1    2    0    0  0.20498531065E+03  0.10089645615E+03  0.38685240396E+02  0.23172315437E+03  0.00000000000E+00 0.  1.
         11    1    1    2    0    0  0.42385423941E+02  0.79304660284E+02 -0.16884708669E+01  0.89936667935E+02  0.00000000000E+00 0. -1.
</event>
<event>
 7    1  0.2728221E-009  0.1137723E+03  0.7561462E-02  0.1253739E+00
          2   -1    0    0  501    0  0.00000000000E+00  0.00000000000E+00  0.21108766641E+02  0.21108766641E+02  0.00000000000E+00 0. -1.
         -2   -1    0    0    0  501 -0.00000000000E+00 -0.00000000000E+00 -0.10341530636E+04  0.10341530636E+04  0.00000000000E+00 0.  1.
         25    2    1    2    0    0 -0.96604242422E+02  0.13798646863E+02 -0.54186496607E+03  0.56461302229E+03  0.12508973250E+03 0.  0.
          5    1    3    3  502    0 -0.84952228537E+02  0.18955205083E+02 -0.54408602229E+03  0.55102019290E+03  0.41800000000E+01 0.  1.
         -5    1    3    3    0  502 -0.11652013885E+02 -0.51565582197E+01  0.22210562155E+01  0.13592829395E+02  0.41800000000E+01 0.  1.
        -11    1    1    2    0    0  0.11140997211E+03 -0.12995824751E+02 -0.45534295820E+03  0.46895445720E+03  0.00000000000E+00 0.  1.
         11    1    1    2    0    0 -0.14805729690E+02 -0.80282211239E+00 -0.15836372734E+02  0.21694350793E+02  0.00000000000E+00 0. -1.
</event>
<event>
 7    1  0.2728221E-009  0.9629644E+02  0.7561462E-02  0.1288283E+00
          4   -1    0    0  501    0  0.00000000000E+00  0.00000000000E+00  0.30690667459E+02  0.30690667459E+02  0.00000000000E+00 0. -1.
         -4   -1    0    0    0  501 -0.00000000000E+00 -0.00000000000E+00 -0.58529811458E+03  0.58529811458E+03  0.00000000000E+00 0.  1.
         25    2    1    2    0    0  0.72135617019E+02 -0.11747860959E+01 -0.35734746080E+03  0.38542177815E+03  0.12509121457E+03 0.  0.
          5    1    3    3  502    0  0.13449629660E+02 -0.11685490823E+02 -0.30623212215E+03  0.30677846774E+03  0.41800000000E+01 0. -1.
         -5    1    3    3    0  502  0.58685987359E+02  0.10510704727E+02 -0.51115338658E+02  0.78643310410E+02  0.41800000000E+01 0. -1.
        -11    1    1    2    0    0 -0.61389699280E+02  0.40640828757E+02 -0.15583556754E+03  0.17235166448E+03  0.00000000000E+00 0.  1.
         11    1    1    2    0    0 -0.10745917739E+02 -0.39466042661E+02 -0.41424418781E+02  0.58215339411E+02  0.00000000000E+00 0. -1.
</event>
<event>
 7    1  0.2728221E-009  0.7288903E+02  0.7561462E-02  0.1350535E+00
         -2   -1    0    0    0  501 -0.00000000000E+00  0.00000000000E+00  0.20857749663E+02  0.20857749663E+02  0.00000000000E+00 0.  1.
          2   -1    0    0  501    0  0.00000000000E+00 -0.00000000000E+00 -0.74924490555E+03  0.74924490555E+03  0.00000000000E+00 0. -1.
         25    2    1    2    0    0 -0.67717263578E+01 -0.15952530365E+02 -0.58764656764E+03  0.60106443441E+03  0.12509846664E+03 0.  0.
          5    1    3    3  502    0 -0.13581720528E+02  0.14876461227E+02 -0.10606382678E+02  0.23146057648E+02  0.41800000000E+01 0.  1.
         -5    1    3    3    0  502  0.68099941704E+01 -0.30828991592E+02 -0.57704018496E+03  0.57791837677E+03  0.41800000000E+01 0.  1.
        -11    1    1    2    0    0 -0.39294694460E+02 -0.99135666988E+01 -0.67500499007E+02  0.78731627594E+02  0.00000000000E+00 0.  1.
         11    1    1    2    0    0  0.46066420818E+02  0.25866097064E+02 -0.73240089240E+02  0.90306593204E+02  0.00000000000E+00 0. -1.
</event>
<event>
 7    1  0.2728221E-009  0.1016167E+03  0.7561462E-02  0.1276933E+00
          1   -1    0    0  501    0  0.00000000000E+00  0.00000000000E+00  0.56781219335E+03  0.56781219335E+03  0.00000000000E+00 0. -1.
         -1   -1    0    0    0  501 -0.00000000000E+00 -0.00000000000E+00 -0.31193406655E+02  0.31193406655E+02  0.00000000000E+00 0.  1.
         25    2    1    2    0    0 -0.48924105411E+02 -0.37573171518E+02  0.40311706556E+03  0.42656279153E+03  0.12508850973E+03 0.  0.
          5    1    3    3  502    0 -0.15594816009E+02 -0.54384928207E+02  0.64624926816E+02  0.85992861730E+02  0.41800000000E+01 0. -1.
         -5    1    3    3    0  502 -0.33329289402E+02  0.16811756689E+02  0.33849213874E+03  0.34056992980E+03  0.41800000000E+01 0. -1.
        -11    1    1    2    0    0  0.57155758163E+02 -0.12239616270E+02  0.76948885697E+02  0.96631878320E+02  0.00000000000E+00 0.  1.
         11    1    1    2    0    0 -0.82316527516E+01  0.49812787787E+02  0.56552835434E+02  0.75810930147E+02  0.00000000000E+00 0. -1.
</event>
<event>
 7    1  0.2728221E-009  0.1056559E+03  0.7561462E-02  0.1268833E+00
          2   -1    0    0  501    0  0.00000000000E+00  0.00000000000E+00  0.10515706341E+04  0.10515706341E+04  0.00000000000E+00 0. -1.
         -2   -1    0    0    0  501 -0.00000000000E+00 -0.00000000000E+00 -0.23948636570E+02  0.23948636570E+02  0.00000000000E+00 0.  1.
         25    2    1    2    0    0  0.15235769926E+02 -0.83122771453E+02  0.80309429507E+03  0.81715914199E+03  0.12508833975E+03 0.  0.
          5    1    3    3  502    0  0.27122273454E+02 -0.32323309881E+02  0.70236556786E+03  0.70364428328E+03  0.41800000000E+01 0. -1.
         -5    1    3    3    0  502 -0.11886503528E+02 -0.50799461572E+02  0.10072872722E+03  0.11351485871E+03  0.41800000000E+01 0. -1.
        -11    1    1    2    0    0 -0.17142239738E+02  0.99054162147E+02  0.14017658616E+03  0.17249654700E+03  0.00000000000E+00 0.  1.
         11    1    1    2    0    0  0.19064698117E+01 -0.15931390694E+02  0.84351116257E+02  0.85863581631E+02  0.00000000000E+00 0. -1.
</event>
<event>
 7    1  0.2728221E-009  0.1072743E+03  0.7561462E-02  0.1265702E+00
          2   -1    0    0  501    0  0.00000000000E+00  0.00000000000E+00  0.11856420701E+03  0.11856420701E+03  0.00000000000E+00 0. -1.
         -2   -1    0    0    0  501 -0.00000000000E+00 -0.00000000000E+00 -0.11635802313E+03  0.11635802313E+03  0.00000000000E+00 0.  1.
         25    2    1    2    0    0 -0.13572194763E+02  0.18310643091E+02 -0.42931430387E+02  0.13420774528E+03  0.12509647100E+03 0.  0.
          5    1    3    3  502    0  0.31363190589E+02 -0.39893973209E+02 -0.30956226473E+02  0.59589757339E+02  0.41800000000E+01 0.  1.
         -5    1    3    3    0  502 -0.44935385352E+02  0.58204616300E+02 -0.11975203913E+02  0.74617987939E+02  0.41800000000E+01 0.  1.
        -11    1    1    2    0    0 -0.35228329761E+02  0.55421610560E+01  0.16193576280E+02  0.39166090942E+02  0.00000000000E+00 0.  1.
         11    1    1    2    0    0  0.48800524524E+02 -0.23852804147E+02  0.28944037981E+02  0.61548393920E+02  0.00000000000E+00 0. -1.
</event>
<event>
 7    1  0.2728221E-009  0.2926912E+03  0.7561462E-02  0.1088952E+00
         -2   -1    0    0    0  501 -0.00000000000E+00  0.00000000000E+00  0.71704308661E+02  0.71704308661E+02  0.00000000000E+00 0.  1.
          2   -1    0    0  501    0  0.00000000000E+00 -0.00000000000E+00 -0.13347363597E+04  0.13347363597E+04  0.00000000000E+00 0. -1.
         25    2    1    2    0    0 -0.72103691521E+02  0.27767310273E+03 -0.55274736871E+03  0.63519918537E+03  0.12508819756E+03 0.  0.
          5    1    3    3  502    0 -0.26652679301E+02  0.23280607830E+03 -0.50022321821E+03  0.55240363489E+03  0.41800000000E+01 0.  1.
         -5    1    3    3    0  502 -0.45451012220E+02  0.44867024435E+02 -0.52524150504E+02  0.82795550482E+02  0.41800000000E+01 0.  1.
        -11    1    1    2    0    0  0.27376350716E+02 -0.12273063607E+03 -0.20157306635E+03  0.23757940712E+03  0.00000000000E+00 0.  1.
         11    1    1    2    0    0  0.44727340805E+02 -0.15494246666E+03 -0.50871161601E+03  0.53366207590E+03  0.00000000000E+00 0. -1.
</event>
<event>
 7    1  0.2728221E-009  0.2105332E+03  0.7561462E-02  0.1141144E+00
          2   -1    0    0  501    0  0.00000000000E+00  0.00000000000E+00  0.11794088066E+03  0.11794088066E+03  0.00000000000E+00 0. -1.
         -2   -1    0    0    0  501 -0.00000000000E+00 -0.00000000000E+00 -0.42513630252E+03  0.42513630252E+03  0.00000000000E+00 0.  1.
         25    2    1    2    0    0  0.22039667928E+02 -0.18851426014E+03 -0.21391262168E+03  0.31213737760E+03  0.12509100502E+03 0.  0.
          5    1    3    3  502    0 -0.32860275535E+02 -0.41426843945E+02 -0.11469960492E+03  0.12637030061E+03  0.41800000000E+01 0. -1.
         -5    1    3    3    0  502  0.54899943463E+02 -0.14708741620E+03 -0.99213016755E+02  0.18576707698E+03  0.41800000000E+01 0. -1.
        -11    1    1    2    0    0  0.36173042028E+02  0.63874214556E+02 -0.38278165872E+02  0.82786606629E+02  0.00000000000E+00 0. -1.
         11    1    1    2    0    0 -0.58212709956E+02  0.12464004559E+03 -0.55004634310E+02  0.14815319895E+03  0.00000000000E+00 0.  1.
</event>
<event>
 7    1  0.2728221E-009  0.8919200E+02  0.7561462E-02  0.1304820E+00
         -4   -1    0    0    0  501 -0.00000000000E+00  0.00000000000E+00  0.81302837154E+02  0.81302837154E+02  0.00000000000E+00 0.  1.
          4   -1    0    0  501    0  0.00000000000E+00 -0.00000000000E+00 -0.11841214728E+03  0.11841214728E+03  0.00000000000E+00 0. -1.
         25    2    1    2    0    0  0.43810944497E+01  0.15386605402E+02 -0.40028076554E+02  0.13230569447E+03  0.12508640319E+03 0.  0.
          5    1    3    3  502    0 -0.28577239590E+02 -0.46889369485E+02 -0.12010233102E+02  0.56364791248E+02  0.41800000000E+01 0.  1.
         -5    1    3    3    0  502  0.32958334040E+02  0.62275974887E+02 -0.28017843452E+02  0.75940903224E+02  0.41800000000E+01 0.  1.
        -11    1    1    2    0    0 -0.23482917844E+02 -0.22330677773E+02  0.22290416054E+02  0.39331529949E+02  0.00000000000E+00 0.  1.
         11    1    1    2    0    0  0.19101823394E+02  0.69440723710E+01 -0.19371649624E+02  0.28077760011E+02  0.00000000000E+00 0. -1.
</event>
<event>
 7    1  0.2728221E-009  0.1115736E+03  0.7561462E-02  0.1257683E+00
         -2   -1    0    0    0  501 -0.00000000000E+00  0.00000000000E+00  0.29909339370E+02  0.29909339370E+02  0.00000000000E+00 0.  1.
          2   -1    0    0  501    0  0.00000000000E+00 -0.00000000000E+00 -0.44624071757E+03  0.44624071757E+03  0.00000000000E+00 0. -1.
         25    2    1    2    0    0 -0.11807345900E+02  0.34244806969E+02 -0.19804164578E+03  0.23702542657E+03  0.12509372150E+03 0.  0.
          5    1    3    3  502    0 -0.52857887473E+02  0.59861481294E+02 -0.14109245377E+03  0.16217862412E+03  0.41800000000E+01 0. -1.
         -5    1    3    3    0  502  0.41050541572E+02 -0.25616674325E+02 -0.56949192006E+02  0.74846802450E+02  0.41800000000E+01 0. -1.
        -11    1    1    2    0    0  0.49137037709E+02 -0.10129663030E+02 -0.85938178490E+02  0.99510949499E+02  0.00000000000E+00 0.  1.
         11    1    1    2    0    0 -0.37329691809E+02 -0.24115143939E+02 -0.13235155393E+03  0.13961368087E+03  0.00000000000E+00 0. -1.
</event>
<event>
 7    1  0.2728221E-009  0.1043069E+03  0.7561462E-02  0.1271491E+00
         -3   -1    0    0    0  501 -0.00000000000E+00  0.00000000000E+00  0.71458028054E+03  0.71458028054E+03  0.00000000000E+00 0.  1.
          3   -1    0    0  501    0  0.00000000000E+00 -0.00000000000E+00 -0.28875314411E+02  0.28875314411E+02  0.00000000000E+00 0. -1.
         25    2    1    2    0    0  0.61247940293E+02 -0.72272270429E+02  0.38103317252E+03  0.41207796544E+03  0.12508948707E+03 0.  0.
          5    1    3    3  502    0 -0.54247093582E+01 -0.27210332078E+02  0.28645918403E+03  0.28783009947E+03  0.41800000000E+01 0.  1.
         -5    1    3    3    0  502  0.66672649651E+02 -0.45061938351E+02  0.94573988493E+02  0.12424786597E+03  0.41800000000E+01 0.  1.
        -11    1    1    2    0    0 -0.41912581600E+02  0.24764064460E+02  0.43718246874E+02  0.65430944474E+02  0.00000000000E+00 0. -1.
         11    1    1    2    0    0 -0.19335358693E+02  0.47508205968E+02  0.26095354673E+03  0.26594668503E+03  0.00000000000E+00 0.  1.
</event>
<event>
 6    1  0.2728221E-009  0.6846565E+02  0.7561462E-02  0.1365390E+00
          1   -1    0    0  501    0  0.00000000000E+00  0.00000000000E+00  0.89388025956E+02  0.89388025956E+02  0.00000000000E+00 0. -1.
         -1   -1    0    0    0  501 -0.00000000000E+00 -0.00000000000E+00 -0.15865254438E+03  0.15865254438E+03  0.00000000000E+00 0.  1.
          5    1    1    2  502    0 -0.11004985901E+02  0.35048176117E+02  0.36227679281E+02  0.51762935677E+02  0.41800000000E+01 0. -1.
         -5    1    1    2    0  502 -0.37976506728E+02 -0.16923042239E+02 -0.80628955302E+02  0.90813574178E+02  0.41800000000E+01 0. -1.
        -11    1    1    2    0    0  0.12727927298E+02  0.65542147141E+01  0.31174688069E+02  0.34304796167E+02  0.00000000000E+00 0. -1.
         11    1    1    2    0    0  0.36253565330E+02 -0.24679348592E+02 -0.56037930476E+02  0.71159264317E+02  0.00000000000E+00 0.  1.
</event>
<event>
 7    1  0.2728221E-009  0.1096680E+03  0.7561462E-02  0.1261186E+00
         -2   -1    0    0    0  501 -0.00000000000E+00  0.00000000000E+00  0.22379730893E+02  0.22379730893E+02  0.00000000000E+00 0.  1.
          2   -1    0    0  501    0  0.00000000000E+00 -0.00000000000E+00 -0.59271647174E+03  0.59271647174E+03  0.00000000000E+00 0. -1.
         25    2    1    2    0    0  0.36692120278E+02  0.17533117927E+02 -0.33039045312E+03  0.35561498200E+03  0.12510172657E+03 0.  0.
          5    1    3    3  502    0  0.61015996204E+02  0.57904173727E+02 -0.21316242275E+03  0.22919759161E+03  0.41800000000E+01 0. -1.
         -5    1    3    3    0  502 -0.24323875927E+02 -0.40371055800E+02 -0.11722803038E+03  0.12641739039E+03  0.41800000000E+01 0. -1.
        -11    1    1    2    0    0  0.24213973341E+02  0.68715797184E+00 -0.22967821879E+02  0.33381275184E+02  0.00000000000E+00 0.  1.
         11    1    1    2    0    0 -0.60906093618E+02 -0.18220275899E+02 -0.21697846585E+03  0.22609994546E+03  0.00000000000E+00 0. -1.
</event>
<event>
 7    1  0.2728221E-009  0.8638562E+02  0.7561462E-02  0.1311848E+00
         -1   -1    0    0    0  501 -0.00000000000E+00  0.00000000000E+00  0.83237949538E+02  0.83237949538E+02  0.00000000000E+00 0.  1.
          1   -1    0    0  501    0  0.00000000000E+00 -0.00000000000E+00 -0.14842786558E+03  0.14842786558E+03  0.00000000000E+00 0. -1.
         25    2    1    2    0    0  0.15395857702E+02  0.18538493078E+02 -0.32931256871E+02  0.13157752850E+03  0.12508984838E+03 0.  0.
          5    1    3    3  502    0 -0.31516972238E+02  0.57602915486E+02 -0.22295684620E+02  0.69469312392E+02  0.41800000000E+01 0. -1.
         -5    1    3    3    0  502  0.46912829939E+02 -0.39064422408E+02 -0.10635572251E+02  0.62108216108E+02  0.41800000000E+01 0. -1.
        -11    1    1    2    0    0 -0.33380714679E+01 -0.29381237386E+02 -0.60603454516E+02  0.67432770451E+02  0.00000000000E+00 0. -1.
         11    1    1    2    0    0 -0.12057786234E+02  0.10842744308E+02  0.28344795345E+02  0.32655516167E+02  0.00000000000E+00 0.  1.
</event>
<event>
 7    1  0.2728221E-009  0.1151313E+03  0.7561462E-02  0.1251352E+00
         -1   -1    0    0    0  501 -0.00000000000E+00  0.00000000000E+00  0.30762257230E+03  0.30762257230E+03  0.00000000000E+00 0.  1.
          1   -1    0    0  501    0  0.00000000000E+00 -0.00000000000E+00 -0.55053797761E+02  0.55053797761E+02  0.00000000000E+00 0. -1.
         25    2    1    2    0    0  0.39963893690E+02  0.59608916267E+02  0.13612801218E+03  0.19831453153E+03  0.12508989575E+03 0.  0.
          5    1    3    3  502    0  0.17575074366E+02 -0.36319150856E+02  0.17810860263E+02  0.44301953695E+02  0.41800000000E+01 0.  1.
         -5    1    3    3    0  502  0.22388819324E+02  0.95928067123E+02  0.11831715192E+03  0.15401257783E+03  0.41800000000E+01 0.  1.
        -11    1    1    2    0    0 -0.36702851211E+02 -0.57551118280E+01  0.10193398571E+03  0.10849312440E+03  0.00000000000E+00 0.  1.
         11    1    1    2    0    0 -0.32610424796E+01 -0.53853804439E+02  0.14506776652E+02  0.55868714138E+02  0.00000000000E+00 0. -1.
</event>
<event>
 7    1  0.2728221E-009  0.1139941E+03  0.7561462E-02  0.1253347E+00
          2   -1    0    0  501    0  0.00000000000E+00  0.00000000000E+00  0.48214154702E+03  0.48214154702E+03  0.00000000000E+00 0.  1.
         -2   -1    0    0    0  501 -0.00000000000E+00 -0.00000000000E+00 -0.50805061009E+02  0.50805061009E+02  0.00000000000E+00 0. -1.
         25    2    1    2    0    0  0.48152167154E+02  0.23549545861E+02  0.61793814263E+02  0.14946339683E+03  0.12509044407E+03 0.  0.
          5    1    3    3  502    0  0.90455527880E+02  0.93457161602E+01  0.45531028994E+02  0.10178453682E+03  0.41800000000E+01 0. -1.
         -5    1    3    3    0  502 -0.42303360726E+02  0.14203829701E+02  0.16262785269E+02  0.47678860007E+02  0.41800000000E+01 0. -1.
        -11    1    1    2    0    0  0.42188668204E+01 -0.37661034178E+02  0.75469713658E+02  0.84450162890E+02  0.00000000000E+00 0. -1.
         11    1    1    2    0    0 -0.52371033974E+02  0.14111488317E+02  0.29407295809E+03  0.29903304831E+03  0.00000000000E+00 0.  1.
</event>
<event>
 7    1  0.2728221E-009  0.1341611E+03  0.7561462E-02  0.1221409E+00
         -2   -1    0    0    0  501 -0.00000000000E+00  0.00000000000E+00  0.31599384758E+02  0.31599384758E+02  0.00000000000E+00 0.  1.
          2   -1    0    0  501    0  0.00000000000E+00 -0.00000000000E+00 -0.92386726272E+03  0.92386726272E+03  0.00000000000E+00 0. -1.
         25    2    1    2    0    0  0.24274036031E+01 -0.11943734920E+03 -0.62761104782E+03  0.65100995797E+03  0.12508862999E+03 0.  0.
          5    1    3    3  502    0  0.12299039861E+02 -0.97061163152E+02 -0.61578725437E+03  0.62352510039E+03  0.41800000000E+01 0.  1.
         -5    1    3    3    0  502 -0.98716362584E+01 -0.22376186049E+02 -0.11823793456E+02  0.27484857580E+02  0.41800000000E+01 0.  1.
        -11    1    1    2    0    0 -0.41986330209E+02  0.46803288626E+02 -0.77203115633E+02  0.99567669522E+02  0.00000000000E+00 0.  1.
         11    1    1    2    0    0  0.39558926606E+02  0.72634060574E+02 -0.18745371451E+03  0.20488901999E+03  0.00000000000E+00 0. -1.
</event>
<event>
 6    1  0.2728221E-009  0.1207193E+03  0.7561462E-02  0.1241915E+00
          1   -1    0    0  501    0  0.00000000000E+00  0.00000000000E+00  0.11249908097E+04  0.11249908097E+04  0.00000000000E+00 0. -1.
         -1   -1    0    0    0  501 -0.00000000000E+00 -0.00000000000E+00 -0.29972518018E+02  0.29972518018E+02  0.00000000000E+00 0.  1.
          5    1    1    2  502    0  0.30125008372E+02  0.42276276319E+02  0.12548890685E+03  0.13586661772E+03  0.41800000000E+01 0. -1.
         -5    1    1    2    0  502  0.69411064608E+02 -0.28899126366E+02  0.78718137741E+03  0.79077496719E+03  0.41800000000E+01 0. -1.
        -11    1    1    2    0    0 -0.58175566054E+02  0.19354872202E+02  0.32353554112E+02  0.69323589256E+02  0.00000000000E+00 0.  1.
         11    1    1    2    0    0 -0.41360506926E+02 -0.32732022155E+02  0.14999445329E+03  0.15899815353E+03  0.00000000000E+00 0. -1.
</event>
<event>
 7    1  0.3622560E-009  0.1568349E+03  0.7561462E-02  0.1192317E+00
         -1   -1    0    0    0  501 -0.00000000000E+00  0.00000000000E+00  0.16468195120E+03  0.16468195120E+03  0.00000000000E+00 0.  1.
          1   -1    0    0  501    0  0.00000000000E+00 -0.00000000000E+00 -0.24539990759E+03  0.24539990759E+03  0.00000000000E+00 0. -1.
         25    2    1    2    0    0  0.12435990382E+03  0.63339970372E+02  0.54477782210E+02  0.19517345102E+03  0.12509000641E+03 0.  0.
          5    1    3    3  502    0  0.14059790186E+03  0.45363133802E+02  0.14847432634E+02  0.14853788261E+03  0.41800000000E+01 0.  1.
         -5    1    3    3    0  502 -0.16237998036E+02  0.17976836570E+02  0.39630349576E+02  0.46635568408E+02  0.41800000000E+01 0.  1.
        -11    1    1    2    0    0 -0.63180448013E+02 -0.19829417589E+02 -0.73181514017E+01  0.66622294714E+02  0.00000000000E+00 0. -1.
         11    1    1    2    0    0 -0.61179455809E+02 -0.43510552783E+02 -0.12787758720E+03  0.14828611306E+03  0.00000000000E+00 0.  1.
</event>
<event>
 7    1  0.2728221E-009  0.8906479E+02  0.7561462E-02  0.1305132E+00
          2   -1    0    0  501    0  0.00000000000E+00  0.00000000000E+00  0.10010950310E+04  0.10010950310E+04  0.00000000000E+00 0. -1.
         -2   -1    0    0    0  501 -0.00000000000E+00 -0.00000000000E+00 -0.18190506449E+02  0.18190506449E+02  0.00000000000E+00 0.  1.
         25    2    1    2    0    0 -0.35744469957E+02 -0.41671372616E+02  0.75698244687E+03  0.76921026378E+03  0.12509130505E+03 0.  0.
          5    1    3    3  502    0 -0.26939821482E+02 -0.51256150321E+02  0.75262790970E+03  0.75486368954E+03  0.41800000000E+01 0.  1.
         -5    1    3    3    0  502 -0.88046484747E+01  0.95847777048E+01  0.43545371755E+01  0.14346574240E+02  0.41800000000E+01 0.  1.
        -11    1    1    2    0    0  0.41121136982E+02  0.68035876877E+02  0.18138341005E+03  0.19803981895E+03  0.00000000000E+00 0. -1.
         11    1    1    2    0    0 -0.53766670253E+01 -0.26364504260E+02  0.44538667592E+02  0.52035454683E+02  0.00000000000E+00 0.  1.
</event>
<event>
 7    1  0.2728221E-009  0.7820250E+02  0.7561462E-02  0.1334231E+00
         -2   -1    0    0    0  501 -0.00000000000E+00  0.00000000000E+00  0.14187431831E+03  0.14187431831E+03  0.00000000000E+00 0.  1.
          2   -1    0    0  501    0  0.00000000000E+00 -0.00000000000E+00 -0.84236371541E+02  0.84236371541E+02  0.00000000000E+00 0. -1.
         25    2    1    2    0    0 -0.10964033810E+02 -0.54863364394E+01  0.27631507394E+02  0.12869113210E+03  0.12509035677E+03 0.  0.
          5    1    3    3  502    0  0.29991164836E+02  0.10617177599E+02 -0.37889984405E+02  0.49651966191E+02  0.41800000000E+01 0. -1.
         -5    1    3    3    0  502 -0.40955198646E+02 -0.16103514039E+02  0.65521491799E+02  0.79039165912E+02  0.41800000000E+01 0. -1.
        -11    1    1    2    0    0 -0.34478153006E+02  0.20423367297E+01  0.37780560974E+02  0.51188719084E+02  0.00000000000E+00 0.  1.
         11    1    1    2    0    0  0.45442186815E+02  0.34439997097E+01 -0.77741216022E+01  0.46230838660E+02  0.00000000000E+00 0. -1.
</event>
<event>
 7    1  0.2728221E-009  0.9246173E+02  0.7561462E-02  0.1296997E+00
          1   -1    0    0  501    0  0.00000000000E+00  0.00000000000E+00  0.53704046117E+02  0.53704046117E+02  0.00000000000E+00 0. -1.
         -1   -1    0    0    0  501 -0.00000000000E+00 -0.00000000000E+00 -0.28485807396E+03  0.28485807396E+03  0.00000000000E+00 0.  1.
         25    2    1    2    0    0 -0.54922342094E+02  0.18208404173E+02 -0.14422204285E+03  0.19949288332E+03  0.12509757476E+03 0.  0.
          5    1    3    3  502    0  0.14946106348E+02  0.19686208620E+02  0.12377070803E+02  0.27957059689E+02  0.41800000000E+01 0. -1.
         -5    1    3    3    0  502 -0.69868448442E+02 -0.14778044472E+01 -0.15659911365E+03  0.17153582364E+03  0.41800000000E+01 0. -1.
        -11    1    1    2    0    0  0.59006725591E+02  0.11281125159E+02 -0.90979385971E+02  0.10902433729E+03  0.00000000000E+00 0.  1.
         11    1    1    2    0    0 -0.40843834971E+01 -0.29489529332E+02  0.40474009818E+01  0.30044899459E+02  0.00000000000E+00 0. -1.
</event>
<event>
 7    1  0.2728221E-009  0.6857858E+02  0.7561462E-02  0.1364994E+00
          2   -1    0    0  501    0  0.00000000000E+00  0.00000000000E+00  0.28436375120E+03  0.28436375120E+03  0.00000000000E+00 0. -1.
         -2   -1    0    0    0  501 -0.00000000000E+00 -0.00000000000E+00 -0.45139859482E+02  0.45139859482E+02  0.00000000000E+00 0.  1.
         25    2    1    2    0    0 -0.71739609825E+01 -0.17411071267E+02  0.93848943427E+02  0.15747469119E+03  0.12504416446E+03 0.  0.
          5    1    3    3  502    0 -0.10247029380E+02 -0.44686443974E+02 -0.12384404954E+02  0.47673113725E+02  0.41800000000E+01 0.  1.
         -5    1    3    3    0  502  0.30730683975E+01  0.27275372708E+02  0.10623334838E+03  0.10980157747E+03  0.41800000000E+01 0.  1.
        -11    1    1    2    0    0  0.16834759369E+02  0.37477773870E+02  0.14396547229E+03  0.14971322543E+03  0.00000000000E+00 0. -1.
         11    1    1    2    0    0 -0.96607983861E+01 -0.20066702603E+02  0.14094760025E+01  0.22315694061E+02  0.00000000000E+00 0.  1.
</event>
<event>
 7    1  0.2728221E-009  0.2419053E+03  0.7561462E-02  0.1118530E+00
          1   -1    0    0  501    0  0.00000000000E+00  0.00000000000E+00  0.34719010133E+03  0.34719010133E+03  0.00000000000E+00 0. -1.
         -1   -1    0    0    0  501 -0.00000000000E+00 -0.00000000000E+00 -0.20008287023E+03  0.20008287023E+03  0.00000000000E+00 0.  1.
         25    2    1    2    0    0 -0.15653319385E+03  0.17948817293E+03  0.47293032590E+02  0.27313509921E+03  0.12508999358E+03 0.  0.
          5    1    3    3  502    0 -0.11995374150E+03  0.13101816966E+03  0.89610085325E+02  0.19900276549E+03  0.41800000000E+01 0. -1.
         -5    1    3    3    0  502 -0.36579452347E+02  0.48470003268E+02 -0.42317052735E+02  0.74132333722E+02  0.41800000000E+01 0. -1.
        -11    1    1    2    0    0  0.27631477154E+02 -0.73014532293E+02 -0.25331341940E+01  0.78109136626E+02  0.00000000000E+00 0. -1.
         11    1    1    2    0    0  0.12890171670E+03 -0.10647364064E+03  0.10234733270E+03  0.19602873572E+03  0.00000000000E+00 0.  1.
</event>
<event>
 7    1  0.2728221E-009  0.1059819E+03  0.7561462E-02  0.1268197E+00
         -2   -1    0    0    0  501 -0.00000000000E+00  0.00000000000E+00  0.27845036690E+02  0.27845036690E+02  0.00000000000E+00 0.  1.
          2   -1    0    0  501    0  0.00000000000E+00 -0.00000000000E+00 -0.46662825447E+03  0.46662825447E+03  0.00000000000E+00 0. -1.
         25    2    1    2    0    0 -0.21055148485E+02 -0.10205083287E+02 -0.31285264014E+03  0.33774615542E+03  0.12509287771E+03 0.  0.
          5    1    3    3  502    0 -0.56276455368E+02 -0.48036970831E+02 -0.20716356490E+03  0.22002001049E+03  0.41800000000E+01 0. -1.
         -5    1    3    3    0  502  0.35221306883E+02  0.37831887544E+02 -0.10568907524E+03  0.11772614493E+03  0.41800000000E+01 0. -1.
        -11    1    1    2    0    0  0.48182307327E+02 -0.13429058782E+02 -0.41652923658E+02  0.65091016342E+02  0.00000000000E+00 0.  1.
         11    1    1    2    0    0 -0.27127158842E+02  0.23634142069E+02 -0.84277653979E+02  0.91636119398E+02  0.00000000000E+00 0. -1.
</event>
<event>
 7    1  0.2728221E-009  0.9896492E+02  0.7561462E-02  0.1282488E+00
          2   -1    0    0  501    0  0.00000000000E+00  0.00000000000E+00  0.27036544387E+03  0.27036544387E+03  0.00000000000E+00 0.  1.
         -2   -1    0    0    0  501 -0.00000000000E+00 -0.00000000000E+00 -0.70938552703E+02  0.70938552703E+02  0.00000000000E+00 0. -1.
         25    2    1    2    0    0 -0.45250939117E+02 -0.72522908043E+02  0.12247839277E+03  0.19482109846E+03  0.12508830492E+03 0.  0.
          5    1    3    3  502    0  0.57515440760E+00  0.94619285356E+00 -0.24122269727E+02  0.24506782333E+02  0.41800000000E+01 0.  1.
         -5    1    3    3    0  502 -0.45826093525E+02 -0.73469100897E+02  0.14660066250E+03  0.17031431613E+03  0.41800000000E+01 0.  1.
        -11    1    1    2    0    0 -0.16547439417E+02  0.18637929002E+02  0.56835800949E+02  0.62060441654E+02  0.00000000000E+00 0.  1.
         11    1    1    2    0    0  0.61798378534E+02  0.53884979041E+02  0.20112697449E+02  0.84422456458E+02  0.00000000000E+00 0. -1.
</event>
<event>
 7    1  0.2728221E-009  0.1261437E+03  0.7561462E-02  0.1233293E+00
         -1   -1    0    0    0  501 -0.00000000000E+00  0.00000000000E+00  0.33503194207E+02  0.33503194207E+02  0.00000000000E+00 0.  1.
          1   -1    0    0  501    0  0.00000000000E+00 -0.00000000000E+00 -0.50285105186E+03  0.50285105186E+03  0.00000000000E+00 0. -1.
         25    2    1    2    0    0  0.14504624546E+02  0.66029184900E+02 -0.21253658330E+03  0.25570883919E+03  0.12507986971E+03 0.  0.
          5    1    3    3  502    0 -0.83877085613E+01  0.99269334428E+02 -0.16878885331E+03  0.19604056676E+03  0.41800000000E+01 0.  1.
         -5    1    3    3    0  502  0.22892333107E+02 -0.33240149528E+02 -0.43747729985E+02  0.59668272428E+02  0.41800000000E+01 0.  1.
        -11    1    1    2    0    0  0.36641973130E+02 -0.14528174952E+02 -0.71846173118E+02  0.81948609836E+02  0.00000000000E+00 0. -1.
         11    1    1    2    0    0 -0.51146597676E+02 -0.51501009949E+02 -0.18496510124E+03  0.19869679704E+03  0.00000000000E+00 0.  1.
</event>
<event>
 7    1  0.2728221E-009  0.1116891E+03  0.7561462E-02  0.1257474E+00
         -2   -1    0    0    0  501 -0.00000000000E+00  0.00000000000E+00  0.45070426855E+02  0.45070426855E+02  0.00000000000E+00 0.  1.
          2   -1    0    0  501    0  0.00000000000E+00 -0.00000000000E+00 -0.64949044701E+03  0.64949044701E+03  0.00000000000E+00 0. -1.
         25    2    1    2    0    0 -0.21944730404E+02 -0.32030279227E+02 -0.57907320393E+03  0.59370094451E+03  0.12509007161E+03 0.  0.
          5    1    3    3  502    0  0.59023922589E+01 -0.74477451014E+02 -0.25873467633E+03  0.26933776950E+03  0.41800000000E+01 0.  1.
         -5    1    3    3    0  502 -0.27847122663E+02  0.42447171787E+02 -0.32033852760E+03  0.32436317500E+03  0.41800000000E+01 0.  1.
        -11    1    1    2    0    0 -0.90462513094E+01 -0.28341745110E+02 -0.70346097746E+01  0.30570818002E+02  0.00000000000E+00 0.  1.
         11    1    1    2    0    0  0.30990981713E+02  0.60372024337E+02 -0.18312206447E+02  0.70289111355E+02  0.00000000000E+00 0. -1.
</event>
<event>
 7    1  0.2728221E-009  0.7119603E+02  0.7561462E-02  0.1356072E+00
          1   -1    0    0  501    0  0.00000000000E+00  0.00000000000E+00  0.23892685000E+03  0.23892685000E+03  0.00000000000E+00 0. -1.
         -1   -1    0    0    0  501 -0.00000000000E+00 -0.00000000000E+00 -0.62000141468E+02  0.62000141468E+02  0.00000000000E+00 0.  1.
         25    2    1    2    0    0 -0.48769874603E+02 -0.13009368513E+02  0.12463682742E+03  0.18363963319E+03  0.12506570989E+03 0.  0.
          5    1    3    3  502    0 -0.32618984241E+02 -0.90536961518E+01 -0.18958784317E+02  0.39024036819E+02  0.41800000000E+01 0.  1.
         -5    1    3    3    0  502 -0.16150890363E+02 -0.39556723611E+01  0.14359561174E+03  0.14461559637E+03  0.41800000000E+01 0.  1.
        -11    1    1    2    0    0 -0.20014012023E+02  0.97846588555E+01 -0.10014114284E+02  0.24425042703E+02  0.00000000000E+00 0.  1.
         11    1    1    2    0    0  0.68783886626E+02  0.32247096573E+01  0.62303995394E+02  0.92862315574E+02  0.00000000000E+00 0. -1.
</event>
<event>
 7    1  0.2728221E-009  0.1087056E+03  0.7561462E-02  0.1262986E+00
          1   -1    0    0  501    0  0.00000000000E+00  0.00000000000E+00  0.62677374917E+03  0.62677374917E+03  0.00000000000E+00 0. -1.
         -1   -1    0    0    0  501 -0.00000000000E+00 -0.00000000000E+00 -0.23107424742E+02  0.23107424742E+02  0.00000000000E+00 0.  1.
         25    2    1    2    0    0 -0.22594884188E+02  0.29720454048E+02  0.43701449886E+03  0.45609523344E+03  0.12508939031E+03 0.  0.
          5    1    3    3  502    0  0.26718706521E+00  0.73050387552E+02  0.17795272290E+03  0.19240861337E+03  0.41800000000E+01 0. -1.
         -5    1    3    3    0  502 -0.22862071253E+02 -0.43329933504E+02  0.25906177596E+03  0.26368662007E+03  0.41800000000E+01 0. -1.
        -11    1    1    2    0    0  0.54655480115E+02 -0.31278854717E+02  0.13368163032E+03  0.14777133194E+03  0.00000000000E+00 0. -1.
         11    1    1    2    0    0 -0.32060595927E+02  0.15584006690E+01  0.32970195248E+02  0.46014608534E+02  0.00000000000E+00 0.  1.
</event>
<event>
 7    1  0.2728221E-009  0.1637391E+03  0.7561462E-02  0.1184539E+00
          2   -1    0    0  501    0  0.00000000000E+00  0.00000000000E+00  0.12706173857E+04  0.12706173857E+04  0.00000000000E+00 0. -1.
         -2   -1    0    0    0  501 -0.00000000000E+00 -0.00000000000E+00 -0.24658233111E+02  0.24658233111E+02  0.00000000000E+00 0.  1.
         25    2    1    2    0    0  0.78017908150E+02 -0.11518091479E+03  0.68072700504E+03  0.70596950462E+03  0.12510095504E+03 0.  0.
          5    1    3    3  502    0  0.74971123148E+02 -0.13310172980E+03  0.66247356176E+03  0.67987162921E+03  0.41800000000E+01 0. -1.
         -5    1    3    3    0  502  0.30467850011E+01  0.17920815010E+02  0.18253443278E+02  0.26097875411E+02  0.41800000000E+01 0. -1.
        -11    1    1    2    0    0 -0.21917821078E+02  0.93216078863E+02  0.23741908688E+03  0.25600283408E+03  0.00000000000E+00 0.  1.
         11    1    1    2    0    0 -0.56100087072E+02  0.21964835923E+02  0.32781306069E+03  0.33330328013E+03  0.00000000000E+00 0. -1.
</event>
<event>
 7    1  0.2728221E-009  0.8123613E+02  0.7561462E-02  0.1325580E+00
          2   -1    0    0  501    0  0.00000000000E+00  0.00000000000E+00  0.25370257399E+03  0.25370257399E+03  0.00000000000E+00 0. -1.
         -2   -1    0    0    0  501 -0.00000000000E+00 -0.00000000000E+00 -0.47602857641E+02  0.47602857641E+02  0.00000000000E+00 0.  1.
         25    2    1    2    0    0  0.12037335962E+02  0.14258203633E+02  0.12606204161E+03  0.17856590316E+03  0.12508377037E+03 0.  0.
          5    1    3    3  502    0 -0.23562924678E+02 -0.43340804255E+02  0.21618305641E+02  0.54022775489E+02  0.41800000000E+01 0. -1.
         -5    1    3    3    0  502  0.35600260639E+02  0.57599007887E+02  0.10444373597E+03  0.12454312767E+03  0.41800000000E+01 0. -1.
        -11    1    1    2    0    0 -0.12913224537E+02 -0.28271615763E+02  0.96336851776E+02  0.10122660044E+03  0.00000000000E+00 0. -1.
         11    1    1    2    0    0  0.87588857517E+00  0.14013412131E+02 -0.16299177039E+02  0.21512928032E+02  0.00000000000E+00 0.  1.
</event>
<event>
 7    1  0.2728221E-009  0.1177915E+03  0.7561462E-02  0.1246785E+00
         -2   -1    0    0    0  501 -0.00000000000E+00  0.00000000000E+00  0.15351517524E+03  0.15351517524E+03  0.00000000000E+00 0.  1.
          2   -1    0    0  501    0  0.00000000000E+00 -0.00000000000E+00 -0.10823747680E+03  0.10823747680E+03  0.00000000000E+00 0. -1.
         25    2    1    2    0    0  0.60293020464E+02  0.19880080049E+02  0.50834835229E+02  0.14920037419E+03  0.12508439266E+03 0.  0.
          5    1    3    3  502    0  0.16595694843E+01 -0.39954328692E+02  0.51479323276E+02  0.65319948538E+02  0.41800000000E+01 0. -1.
         -5    1    3    3    0  502  0.58633450979E+02  0.59834408741E+02 -0.64448804623E+00  0.83880425654E+02  0.41800000000E+01 0. -1.
        -11    1    1    2    0    0 -0.46137658379E+02 -0.56085504503E+02 -0.10446974402E+02  0.73371701699E+02  0.00000000000E+00 0. -1.
         11    1    1    2    0    0 -0.14155362084E+02  0.36205424454E+02  0.48898376073E+01  0.39180576151E+02  0.00000000000E+00 0.  1.
</event>
<event>
 7    1  0.2728221E-009  0.8238544E+02  0.7561462E-02  0.1322415E+00
         -2   -1    0    0    0  501 -0.00000000000E+00  0.00000000000E+00  0.52016007592E+02  0.52016007592E+02  0.00000000000E+00 0. -1.
          2   -1    0    0  501    0  0.00000000000E+00 -0.00000000000E+00 -0.26476641448E+03  0.26476641448E+03  0.00000000000E+00 0.  1.
         25    2    1    2    0    0  0.52991260504E+01 -0.42902507340E+02 -0.88754617111E+02  0.15935455378E+03  0.12509111031E+03 0.  0.
          5    1    3    3  502    0 -0.15338834067E+02 -0.52177509375E+02 -0.11327824609E+03  0.12572671057E+03  0.41800000000E+01 0. -1.
         -5    1    3    3    0  502  0.20637960118E+02  0.92750020357E+01  0.24523628977E+02  0.33627843207E+02  0.41800000000E+01 0. -1.
        -11    1    1    2    0    0 -0.28706771045E+02  0.54117728598E+02 -0.50202538997E+02  0.79202917712E+02  0.00000000000E+00 0. -1.
         11    1    1    2    0    0  0.23407644994E+02 -0.11215221259E+02 -0.73793250781E+02  0.78224950578E+02  0.00000000000E+00 0.  1.
</event>
<event>
 7    1  0.2728221E-009  0.1282159E+03  0.7561462E-02  0.1230127E+00
         -2   -1    0    0    0  501 -0.00000000000E+00  0.00000000000E+00  0.13147285640E+03  0.13147285640E+03  0.00000000000E+00 0. -1.
          2   -1    0    0  501    0  0.00000000000E+00 -0.00000000000E+00 -0.17293142760E+03  0.17293142760E+03  0.00000000000E+00 0.  1.
         25    2    1    2    0    0 -0.89143412447E+02  0.38387939279E+02  0.11622084515E+02  0.15875404769E+03  0.12509033914E+03 0.  0.
          5    1    3    3  502    0 -0.86495676147E+01 -0.29192854181E+02  0.39394478168E+02  0.49964337935E+02  0.41800000000E+01 0.  1.
         -5    1    3    3    0  502 -0.80493844832E+02  0.67580793459E+02 -0.27772393652E+02  0.10878970976E+03  0.41800000000E+01 0.  1.
        -11    1    1    2    0    0  0.15781993069E+02  0.20900545766E+02  0.14197944613E+02  0.29790699048E+02  0.00000000000E+00 0. -1.
         11    1    1    2    0    0  0.73361419378E+02 -0.59288485045E+02 -0.67278600322E+02  0.11585953726E+03  0.00000000000E+00 0.  1.
</event>
<event>
 7    1  0.2728221E-009  0.1016412E+03  0.7561462E-02  0.1276882E+00
         -1   -1    0    0    0  501 -0.00000000000E+00  0.00000000000E+00  0.26370385018E+02  0.26370385018E+02  0.00000000000E+00 0.  1.
          1   -1    0    0  501    0  0.00000000000E+00 -0.00000000000E+00 -0.46752166612E+03  0.46752166612E+03  0.00000000000E+00 0. -1.
         25    2    1    2    0    0 -0.87377015472E+01  0.13303620505E+02 -0.25307511147E+03  0.28275124009E+03  0.12509163833E+03 0.  0.
          5    1    3    3  502    0 -0.56468315856E+02  0.40410842659E+02 -0.16242761572E+03  0.17669722593E+03  0.41800000000E+01 0.  1.
         -5    1    3    3    0  502  0.47730614309E+02 -0.27107222154E+02 -0.90647495750E+02  0.10605401417E+03  0.41800000000E+01 0.  1.
        -11    1    1    2    0    0 -0.20592259605E+02 -0.36073548430E+02 -0.15796525411E+03  0.16333512653E+03  0.00000000000E+00 0.  1.
         11    1    1    2    0    0  0.29329961152E+02  0.22769927924E+02 -0.30110915519E+02  0.47805684518E+02  0.00000000000E+00 0. -1.
</event>
<event>
 7    1  0.2728221E-009  0.1291462E+03  0.7561462E-02  0.1228728E+00
          2   -1    0    0  501    0  0.00000000000E+00  0.00000000000E+00  0.21622255933E+04  0.21622255933E+04  0.00000000000E+00 0. -1.
         -2   -1    0    0    0  501 -0.00000000000E+00 -0.00000000000E+00 -0.21952592799E+02  0.21952592799E+02  0.00000000000E+00 0.  1.
         25    2    1    2    0    0 -0.96610159872E+02  0.14330305456E+02  0.19000281868E+04  0.19066447940E+04  0.12509348212E+03 0.  0.
          5    1    3    3  502    0 -0.17281576271E+02  0.62956419954E+02  0.74392598105E+03  0.74679682737E+03  0.41800000000E+01 0.  1.
         -5    1    3    3    0  502 -0.79328583601E+02 -0.48626114498E+02  0.11561022057E+04  0.11598479666E+04  0.41800000000E+01 0.  1.
        -11    1    1    2    0    0  0.70182896514E+02 -0.11272674140E+01  0.23774006570E+03  0.24788555531E+03  0.00000000000E+00 0. -1.
         11    1    1    2    0    0  0.26427263358E+02 -0.13203038042E+02  0.25047479955E+01  0.29647836762E+02  0.00000000000E+00 0.  1.
</event>
<event>
 7    1  0.2728221E-009  0.1255842E+03  0.7561462E-02  0.1234159E+00
         -1   -1    0    0    0  501 -0.00000000000E+00  0.00000000000E+00  0.39901356424E+03  0.39901356424E+03  0.00000000000E+00 0.  1.
          1   -1    0    0  501    0  0.00000000000E+00 -0.00000000000E+00 -0.40673538728E+02  0.40673538728E+02  0.00000000000E+00 0. -1.
         25    2    1    2    0    0  0.21004492294E+02  0.62290710685E+02  0.19015572178E+03  0.23691353989E+03  0.12508998971E+03 0.  0.
          5    1    3    3  502    0 -0.16325054580E+02  0.91041233619E+02  0.10937007716E+03  0.14329794068E+03  0.41800000000E+01 0. -1.
         -5    1    3    3    0  502  0.37329546874E+02 -0.28750522934E+02  0.80785644624E+02  0.93615599214E+02  0.41800000000E+01 0. -1.
        -11    1    1    2    0    0  0.19493753818E+02  0.14612741580E+02  0.22672178057E+02  0.33280118873E+02  0.00000000000E+00 0.  1.
         11    1    1    2    0    0 -0.40498246112E+02 -0.76903452265E+02  0.14551212567E+03  0.16949344420E+03  0.00000000000E+00 0. -1.
</event>
<event>
 7    1  0.2728221E-009  0.1335263E+03  0.7561462E-02  0.1222315E+00
         -2   -1    0    0    0  501 -0.00000000000E+00  0.00000000000E+00  0.15674097168E+03  0.15674097168E+03  0.00000000000E+00 0.  1.
          2   -1    0    0  501    0  0.00000000000E+00 -0.00000000000E+00 -0.17318004522E+03  0.17318004522E+03  0.00000000000E+00 0. -1.
         25    2    1    2    0    0  0.57470511557E+02  0.11021749508E+03 -0.89159394332E+01  0.17657429667E+03  0.12509289487E+03 0.  0.
          5    1    3    3  502    0  0.30387267835E+02  0.19842602506E+01  0.43475864778E+02  0.53244216150E+02  0.41800000000E+01 0.  1.
         -5    1    3    3    0  502  0.27083243722E+02  0.10823323483E+03 -0.52391804211E+02  0.12333008052E+03  0.41800000000E+01 0.  1.
        -11    1    1    2    0    0 -0.41423539332E+01 -0.14676490567E+02 -0.37008203331E+02  0.40027060663E+02  0.00000000000E+00 0. -1.
         11    1    1    2    0    0 -0.53328157624E+02 -0.95541004512E+02  0.29485069218E+02  0.11331965957E+03  0.00000000000E+00 0.  1.
</event>
<event>
 7    1  0.2728221E-009  0.1012043E+03  0.7561462E-02  0.1277784E+00
          2   -1    0    0  501    0  0.00000000000E+00  0.00000000000E+00  0.22498151345E+03  0.22498151345E+03  0.00000000000E+00 0. -1.
         -2   -1    0    0    0  501 -0.00000000000E+00 -0.00000000000E+00 -0.81478206350E+02  0.81478206350E+02  0.00000000000E+00 0.  1.
         25    2    1    2    0    0 -0.71804858555E+02  0.37195843797E+02  0.70397409397E+02  0.16475102098E+03  0.12509050786E+03 0.  0.
          5    1    3    3  502    0 -0.34256220325E+02  0.14862723772E+02 -0.34519820907E+02  0.51024304251E+02  0.41800000000E+01 0. -1.
         -5    1    3    3    0  502 -0.37548638230E+02  0.22333120026E+02  0.10491723030E+03  0.11372671673E+03  0.41800000000E+01 0. -1.
        -11    1    1    2    0    0  0.31725201634E+02 -0.64889217435E+02  0.49583221619E+02  0.87610472115E+02  0.00000000000E+00 0.  1.
         11    1    1    2    0    0  0.40079656921E+02  0.27693373638E+02  0.23522676080E+02  0.54098226702E+02  0.00000000000E+00 0. -1.
</event>
<event>
 7    1  0.2728221E-009  0.9919507E+02  0.7561462E-02  0.1281998E+00
         -2   -1    0    0    0  501 -0.00000000000E+00  0.00000000000E+00  0.66934585066E+03  0.66934585066E+03  0.00000000000E+00 0.  1.
          2   -1    0    0  501    0  0.00000000000E+00 -0.00000000000E+00 -0.16940923881E+02  0.16940923881E+02  0.00000000000E+00 0. -1.
         25    2    1    2    0    0  0.11379050300E+02 -0.17831808240E+01  0.48418619754E+03  0.50021607476E+03  0.12508870867E+03 0.  0.
          5    1    3    3  502    0  0.63314677416E+02 -0.18517126627E+02  0.33133081845E+03  0.33785975790E+03  0.41800000000E+01 0.  1.
         -5    1    3    3    0  502 -0.51935627116E+02  0.16733945803E+02  0.15285537909E+03  0.16235631685E+03  0.41800000000E+01 0.  1.
        -11    1    1    2    0    0 -0.16202829424E+02  0.37853081339E+02  0.68541986627E+02  0.79958685451E+02  0.00000000000E+00 0. -1.
         11    1    1    2    0    0  0.48237791240E+01 -0.36069900515E+02  0.99676742617E+02  0.10611201434E+03  0.00000000000E+00 0.  1.
</event>
<event>
 7    1  0.2728221E-009  0.1019756E+03  0.7561462E-02  0.1276196E+00
          1   -1    0    0  501    0  0.00000000000E+00  0.00000000000E+00  0.20447465606E+02  0.20447465606E+02  0.00000000000E+00 0. -1.
         -1   -1    0    0    0  501 -0.00000000000E+00 -0.00000000000E+00 -0.69462612970E+03  0.69462612970E+03  0.00000000000E+00 0.  1.
         25    2    1    2    0    0 -0.38100986189E+02  0.21905030869E+02 -0.44137724920E+03  0.46085650903E+03  0.12507329963E+03 0.  0.
          5    1    3    3  502    0 -0.51342053983E+02 -0.27701127375E+02 -0.35875364918E+03  0.36349004410E+03  0.41800000000E+01 0. -1.
         -5    1    3    3    0  502  0.13241067794E+02  0.49606158243E+02 -0.82623600021E+02  0.97366464928E+02  0.41800000000E+01 0. -1.
        -11    1    1    2    0    0  0.15355205553E+02 -0.53138417593E+02 -0.84719617857E+02  0.10117750447E+03  0.00000000000E+00 0. -1.
         11    1    1    2    0    0  0.22745780636E+02  0.31233386724E+02 -0.14808179704E+03  0.15303958180E+03  0.00000000000E+00 0.  1.
</event>
<event>
 7    1  0.2728221E-009  0.1796270E+03  0.7561462E-02  0.1168164E+00
         -3   -1    0    0    0  501 -0.00000000000E+00  0.00000000000E+00  0.94227235941E+02  0.94227235941E+02  0.00000000000E+00 0. -1.
          3   -1    0    0  501    0  0.00000000000E+00 -0.00000000000E+00 -0.40830890468E+03  0.40830890468E+03  0.00000000000E+00 0.  1.
         25    2    1    2    0    0 -0.15286531863E+03  0.29645431204E+02 -0.10350811245E+03  0.22496354467E+03  0.12509200557E+03 0.  0.
          5    1    3    3  502    0 -0.16884701538E+03  0.28779477760E+02 -0.65348017686E+02  0.18337232277E+03  0.41800000000E+01 0.  1.
         -5    1    3    3    0  502  0.15981696755E+02  0.86595344370E+00 -0.38160094767E+02  0.41591221900E+02  0.41800000000E+01 0.  1.
        -11    1    1    2    0    0  0.86793379141E+02 -0.52534971654E+02 -0.79045327363E+02  0.12861250984E+03  0.00000000000E+00 0. -1.
         11    1    1    2    0    0  0.66071939487E+02  0.22889540449E+02 -0.13152822892E+03  0.14896008611E+03  0.00000000000E+00 0.  1.
</event>
<event>
 7    1  0.2728221E-009  0.8198971E+02  0.7561462E-02  0.1323498E+00
          1   -1    0    0  501    0  0.00000000000E+00  0.00000000000E+00  0.26582497216E+03  0.26582497216E+03  0.00000000000E+00 0. -1.
         -1   -1    0    0    0  501 -0.00000000000E+00 -0.00000000000E+00 -0.40236381056E+02  0.40236381056E+02  0.00000000000E+00 0.  1.
         25    2    1    2    0    0 -0.40630026332E+02 -0.44004837377E+02  0.18314717533E+03  0.22973279482E+03  0.12508814664E+03 0.  0.
          5    1    3    3  502    0 -0.47863703636E+02 -0.63592959908E+02  0.48259155737E+02  0.93174122953E+02  0.41800000000E+01 0.  1.
         -5    1    3    3    0  502  0.72336773037E+01  0.19588122530E+02  0.13488801960E+03  0.13655867187E+03  0.41800000000E+01 0.  1.
        -11    1    1    2    0    0  0.16839978523E+02  0.54908820892E+01  0.79402217211E+01  0.19410867671E+02  0.00000000000E+00 0.  1.
         11    1    1    2    0    0  0.23790047809E+02  0.38513955288E+02  0.34501194052E+02  0.56917690727E+02  0.00000000000E+00 0. -1.
</event>
<event>
 7    1  0.2728221E-009  0.1405185E+03  0.7561462E-02  0.1212633E+00
          2   -1    0    0  501    0  0.00000000000E+00  0.00000000000E+00  0.21204744225E+03  0.21204744225E+03  0.00000000000E+00 0. -1.
         -2   -1    0    0    0  501 -0.00000000000E+00 -0.00000000000E+00 -0.10102045282E+03  0.10102045282E+03  0.00000000000E+00 0.  1.
         25    2    1    2    0    0  0.62453821357E+02 -0.75641652723E+02  0.78397623289E+02  0.17724949816E+03  0.12509619431E+03 0.  0.
          5    1    3    3  502    0  0.88132528179E+02 -0.86828023226E+02  0.82315824686E+02  0.14866006705E+03  0.41800000000E+01 0.  1.
         -5    1    3    3    0  502 -0.25678706821E+02  0.11186370503E+02 -0.39182013971E+01  0.28589431111E+02  0.41800000000E+01 0.  1.
        -11    1    1    2    0    0 -0.76081009413E+02  0.30830841135E+02  0.69012053246E+01  0.82380139557E+02  0.00000000000E+00 0. -1.
         11    1    1    2    0    0  0.13627188056E+02  0.44810811588E+02  0.25728160816E+02  0.53438257349E+02  0.00000000000E+00 0.  1.
</event>
<event>
 7    1  0.2728221E-009  0.9977678E+02  0.7561462E-02  0.1280766E+00
         -1   -1    0    0    0  501 -0.00000000000E+00  0.00000000000E+00  0.47590634966E+03  0.47590634966E+03  0.00000000000E+00 0. -1.
          1   -1    0    0  501    0  0.00000000000E+00 -0.00000000000E+00 -0.28786441495E+02  0.28786441495E+02  0.00000000000E+00 0.  1.
         25    2    1    2    0    0  0.21395081542E+02  0.25041604186E+02  0.18473247145E+03  0.22553537931E+03  0.12512110078E+03 0.  0.
          5    1    3    3  502    0  0.51268382288E+02 -0.19375347898E+02  0.31914663713E+02  0.63559966084E+02  0.41800000000E+01 0.  1.
         -5    1    3    3    0  502 -0.29873300746E+02  0.44416952084E+02  0.15281780774E+03  0.16197541323E+03  0.41800000000E+01 0.  1.
        -11    1    1    2    0    0 -0.36966333140E+02 -0.49573765056E+02  0.13486591459E+03  0.14836739158E+03  0.00000000000E+00 0.  1.
         11    1    1    2    0    0  0.15571251597E+02  0.24532160870E+02  0.12752152212E+03  0.13079002026E+03  0.00000000000E+00 0. -1.
</event>
<event>
 7    1  0.2728221E-009  0.3205481E+03  0.7561462E-02  0.1075397E+00
          2   -1    0    0  501    0  0.00000000000E+00  0.00000000000E+00  0.87826386019E+03  0.87826386019E+03  0.00000000000E+00 0. -1.
         -2   -1    0    0    0  501 -0.00000000000E+00 -0.00000000000E+00 -0.12409261336E+03  0.12409261336E+03  0.00000000000E+00 0.  1.
         25    2    1    2    0    0  0.10365106534E+03 -0.29172602928E+03  0.33029457982E+03  0.46966987064E+03  0.12509060084E+03 0.  0.
          5    1    3    3  502    0  0.82541784432E+02 -0.70664387800E+02  0.79736739588E+02  0.13484072797E+03  0.41800000000E+01 0. -1.
         -5    1    3    3    0  502  0.21109280909E+02 -0.22106164148E+03  0.25055784023E+03  0.33482914267E+03  0.41800000000E+01 0. -1.
        -11    1    1    2    0    0 -0.30803787468E+02  0.61639987278E+02  0.41270539081E+02  0.80321969286E+02  0.00000000000E+00 0.  1.
         11    1    1    2    0    0 -0.72847277873E+02  0.23008604201E+03  0.38260612793E+03  0.45236463362E+03  0.00000000000E+00 0. -1.
</event>
<event>
 7    1  0.2728221E-009  0.1243946E+03  0.7561462E-02  0.1236019E+00
         -2   -1    0    0    0  501 -0.00000000000E+00  0.00000000000E+00  0.16700150584E+02  0.16700150584E+02  0.00000000000E+00 0.  1.
          2   -1    0    0  501    0  0.00000000000E+00 -0.00000000000E+00 -0.95629226364E+03  0.95629226364E+03  0.00000000000E+00 0. -1.
         25    2    1    2    0    0 -0.36022831602E+02  0.53955272921E+02 -0.60468478190E+03  0.62088680701E+03  0.12509166951E+03 0.  0.
          5    1    3    3  502    0 -0.58034366967E+02 -0.21605518557E+02 -0.25956495288E+03  0.26688241483E+03  0.41800000000E+01 0. -1.
         -5    1    3    3    0  502  0.22011535365E+02  0.75560791478E+02 -0.34511982902E+03  0.35400439218E+03  0.41800000000E+01 0. -1.
        -11    1    1    2    0    0 -0.22038522694E+02 -0.43710114840E+02 -0.13106906438E+03  0.13991200899E+03  0.00000000000E+00 0. -1.
         11    1    1    2    0    0  0.58061354296E+02 -0.10245158080E+02 -0.20383826678E+03  0.21219359823E+03  0.00000000000E+00 0.  1.
</event>
<event>
 7    1  0.2728221E-009  0.1281494E+03  0.7561462E-02  0.1230228E+00
         -2   -1    0    0    0  501 -0.00000000000E+00  0.00000000000E+00  0.83909547647E+02  0.83909547647E+02  0.00000000000E+00 0.  1.
          2   -1    0    0  501    0  0.00000000000E+00 -0.00000000000E+00 -0.23513283405E+03  0.23513283405E+03  0.00000000000E+00 0. -1.
         25    2    1    2    0    0  0.29062478476E+02  0.72585591129E+02 -0.13817559997E+03  0.20212645563E+03  0.12509720998E+03 0.  0.
          5    1    3    3  502    0  0.44217451363E+02  0.10248070951E+03 -0.11933830432E+03  0.16345207893E+03  0.41800000000E+01 0.  1.
         -5    1    3    3    0  502 -0.15154972888E+02 -0.29895118382E+02 -0.18837295646E+02  0.38674376705E+02  0.41800000000E+01 0.  1.
        -11    1    1    2    0    0  0.19361009586E+02  0.44260048185E+01 -0.16587996697E+02  0.25876627394E+02  0.00000000000E+00 0.  1.
         11    1    1    2    0    0 -0.48423488061E+02 -0.77011595948E+02  0.35403102569E+01  0.91039298675E+02  0.00000000000E+00 0. -1.
</event>
<event>
 7    1  0.2728221E-009  0.9835836E+02  0.7561462E-02  0.1283786E+00
          1   -1    0    0  501    0  0.00000000000E+00  0.00000000000E+00  0.76604893712E+03  0.76604893712E+03  0.00000000000E+00 0. -1.
         -1   -1    0    0    0  501 -0.00000000000E+00 -0.00000000000E+00 -0.17137394584E+02  0.17137394584E+02  0.00000000000E+00 0.  1.
         25    2    1    2    0    0  0.17617084912E+01 -0.41571593238E+02  0.48859571070E+03  0.50606761237E+03  0.12508940319E+03 0.  0.
          5    1    3    3  502    0  0.44415106490E+02 -0.17614152871E+01  0.67503887191E+02  0.80932388166E+02  0.41800000000E+01 0. -1.
         -5    1    3    3    0  502 -0.42653397999E+02 -0.39810177951E+02  0.42109182351E+03  0.42513522420E+03  0.41800000000E+01 0. -1.
        -11    1    1    2    0    0  0.40558347716E+02  0.27398898237E+02  0.11186720162E+03  0.12210630611E+03  0.00000000000E+00 0.  1.
         11    1    1    2    0    0 -0.42320056207E+02  0.14172695001E+02  0.14844863022E+03  0.15501241323E+03  0.00000000000E+00 0. -1.
</event>
<event>
 7    1  0.2728221E-009  0.1344044E+03  0.7561462E-02  0.1221063E+00
         -4   -1    0    0    0  501 -0.00000000000E+00  0.00000000000E+00  0.31869253616E+02  0.31869253616E+02  0.00000000000E+00 0.  1.
          4   -1    0    0  501    0  0.00000000000E+00 -0.00000000000E+00 -0.81663934871E+03  0.81663934871E+03  0.00000000000E+00 0. -1.
         25    2    1    2    0    0 -0.82779600584E+02  0.54532080946E+02 -0.59851686330E+03  0.61943367922E+03  0.12509771051E+03 0.  0.
          5    1    3    3  502    0 -0.83097901497E+02  0.18574212505E+01 -0.18887195104E+03  0.20639476141E+03  0.41800000000E+01 0.  1.
         -5    1    3    3    0  502  0.31830091301E+00  0.52674659695E+02 -0.40964491225E+03  0.41303891781E+03  0.41800000000E+01 0.  1.
        -11    1    1    2    0    0 -0.38166593708E+01 -0.45520198047E+02 -0.74821307980E+02  0.87663467003E+02  0.00000000000E+00 0.  1.
         11    1    1    2    0    0  0.86596259955E+02 -0.90118828983E+01 -0.11143192381E+03  0.14141145610E+03  0.00000000000E+00 0. -1.
</event>
<event>
 7    1  0.2728221E-009  0.1208676E+03  0.7561462E-02  0.1241673E+00
         -2   -1    0    0    0  501 -0.00000000000E+00  0.00000000000E+00  0.57447786464E+03  0.57447786464E+03  0.00000000000E+00 0.  1.
          2   -1    0    0  501    0  0.00000000000E+00 -0.00000000000E+00 -0.65156516114E+02  0.65156516114E+02  0.00000000000E+00 0. -1.
         25    2    1    2    0    0 -0.29278582481E+02  0.62256592675E+02  0.28688549781E+02  0.14563091141E+03  0.12510879564E+03 0.  0.
          5    1    3    3  502    0  0.49165094181E+02  0.26192820531E+02  0.54805183282E+01  0.56131798602E+02  0.41800000000E+01 0.  1.
         -5    1    3    3    0  502 -0.78443676662E+02  0.36063772144E+02  0.23208031453E+02  0.89499112808E+02  0.41800000000E+01 0.  1.
        -11    1    1    2    0    0 -0.23588146363E+02 -0.11889759222E+02  0.44100660236E+02  0.51406568223E+02  0.00000000000E+00 0. -1.
         11    1    1    2    0    0  0.52866728844E+02 -0.50366833453E+02  0.43653213851E+03  0.44259690113E+03  0.00000000000E+00 0.  1.
</event>
<event>
 7    1  0.2728221E-009  0.1573415E+03  0.7561462E-02  0.1191731E+00
          1   -1    0    0  501    0  0.00000000000E+00  0.00000000000E+00  0.93385793556E+03  0.93385793556E+03  0.00000000000E+00 0. -1.
         -1   -1    0    0    0  501 -0.00000000000E+00 -0.00000000000E+00 -0.40377786066E+02  0.40377786066E+02  0.00000000000E+00 0.  1.
         25    2    1    2    0    0 -0.48820335832E+02  0.14354788143E+03  0.50998447954E+03  0.54655442606E+03  0.12509257298E+03 0.  0.
          5    1    3    3  502    0 -0.59845539732E+02  0.13330197552E+03  0.51040783542E+03  0.53092799527E+03  0.41800000000E+01 0. -1.
         -5    1    3    3    0  502  0.11025203900E+02  0.10245905905E+02 -0.42335587870E+00  0.15626430784E+02  0.41800000000E+01 0. -1.
        -11    1    1    2    0    0  0.35729779517E+02 -0.74743744037E+02  0.76383284575E+02  0.11268385235E+03  0.00000000000E+00 0. -1.
         11    1    1    2    0    0  0.13090556315E+02 -0.68804137390E+02  0.30711238537E+03  0.31499744322E+03  0.00000000000E+00 0.  1.
</event>
<event>
 7    1  0.2728221E-009  0.2523748E+03  0.7561462E-02  0.1111813E+00
          2   -1    0    0  501    0  0.00000000000E+00  0.00000000000E+00  0.68689951823E+02  0.68689951823E+02  0.00000000000E+00 0. -1.
         -2   -1    0    0    0  501 -0.00000000000E+00 -0.00000000000E+00 -0.10613672139E+04  0.10613672139E+04  0.00000000000E+00 0.  1.
         25    2    1    2    0    0  0.43184990508E+02  0.23389669238E+03 -0.64391854485E+03  0.69773884364E+03  0.12504317420E+03 0.  0.
          5    1    3    3  502    0  0.57769827146E+02  0.23964249101E+03 -0.62941210582E+03  0.67597555265E+03  0.41800000000E+01 0.  1.
         -5    1    3    3    0  502 -0.14584836637E+02 -0.57457986259E+01 -0.14506439026E+02  0.21763290992E+02  0.41800000000E+01 0.  1.
        -11    1    1    2    0    0 -0.18518786050E+02 -0.22448420230E+02 -0.74133763486E+01  0.30030570366E+02  0.00000000000E+00 0. -1.
         11    1    1    2    0    0 -0.24666204458E+02 -0.21144827215E+03 -0.34134534086E+03  0.40228775169E+03  0.00000000000E+00 0.  1.
</event>
<event>
 7    1  0.2728221E-009  0.1117506E+03  0.7561462E-02  0.1257362E+00
          1   -1    0    0  501    0  0.00000000000E+00  0.00000000000E+00  0.16046600275E+04  0.16046600275E+04  0.00000000000E+00 0. -1.
         -1   -1    0    0    0  501 -0.00000000000E+00 -0.00000000000E+00 -0.17469603179E+02  0.17469603179E+02  0.00000000000E+00 0.  1.
         25    2    1    2    0    0 -0.85930988221E+01  0.95697509631E+02  0.12438493737E+04  0.12538086364E+04  0.12507188932E+03 0.  0.
          5    1    3    3  502    0  0.34651072164E+02  0.58684028130E+02  0.10365305592E+04  0.10387769658E+04  0.41800000000E+01 0. -1.
         -5    1    3    3    0  502 -0.43244170986E+02  0.37013481502E+02  0.20731881444E+03  0.21503167060E+03  0.41800000000E+01 0. -1.
        -11    1    1    2    0    0  0.15191402261E+02 -0.65824739758E+02  0.32646682402E+03  0.33338305634E+03  0.00000000000E+00 0. -1.
         11    1    1    2    0    0 -0.65983034393E+01 -0.29872769874E+02  0.16874226662E+02  0.34937938028E+02  0.00000000000E+00 0.  1.
</event>
<event>
 7    1  0.2728221E-009  0.1793918E+03  0.7561462E-02  0.1168393E+00
         -2   -1    0    0    0  501 -0.00000000000E+00  0.00000000000E+00  0.75121070517E+03  0.75121070517E+03  0.00000000000E+00 0.  1.
          2   -1    0    0  501    0  0.00000000000E+00 -0.00000000000E+00 -0.61329523249E+02  0.61329523249E+02  0.00000000000E+00 0. -1.
         25    2    1    2    0    0  0.64705966352E+02  0.93267065252E+02  0.45788971414E+03  0.48805424439E+03  0.12509335559E+03 0.  0.
          5    1    3    3  502    0  0.34040876776E+02  0.10042661613E+03  0.43777820888E+03  0.45045701137E+03  0.41800000000E+01 0.  1.
         -5    1    3    3    0  502  0.30665089576E+02 -0.71595508764E+01  0.20111505259E+02  0.37597233026E+02  0.41800000000E+01 0.  1.
        -11    1    1    2    0    0  0.30429956042E+02 -0.11860296953E+03  0.16472558623E+03  0.20524903256E+03  0.00000000000E+00 0.  1.
         11    1    1    2    0    0 -0.95135922394E+02  0.25335904275E+02  0.67265881544E+02  0.11923695147E+03  0.00000000000E+00 0. -1.
</event>
<event>
 7    1  0.2728221E-009  0.7309808E+02  0.7561462E-02  0.1349864E+00
          2   -1    0    0  501    0  0.00000000000E+00  0.00000000000E+00  0.94646474760E+02  0.94646474760E+02  0.00000000000E+00 0.  1.
         -2   -1    0    0    0  501 -0.00000000000E+00 -0.00000000000E+00 -0.12328575813E+03  0.12328575813E+03  0.00000000000E+00 0. -1.
         25    2    1    2    0    0 -0.18323846288E+01  0.31485543667E+01 -0.10077861137E+02  0.12556291751E+03  0.12510480383E+03 0.  0.
          5    1    3    3  502    0  0.49332858175E+02  0.52111169151E+01  0.31977163172E+02  0.59168386827E+02  0.41800000000E+01 0.  1.
         -5    1    3    3    0  502 -0.51165242804E+02 -0.20625625484E+01 -0.42055024309E+02  0.66394530686E+02  0.41800000000E+01 0.  1.
        -11    1    1    2    0    0 -0.50820670967E+01  0.20125100590E+02  0.30926536557E+02  0.37246446048E+02  0.00000000000E+00 0.  1.
         11    1    1    2    0    0  0.69144517255E+01 -0.23273654957E+02 -0.49487958789E+02  0.55122869327E+02  0.00000000000E+00 0. -1.
</event>
<event>
 7    1  0.2728221E-009  0.2726725E+03  0.7561462E-02  0.1099760E+00
         -1   -1    0    0    0  501 -0.00000000000E+00  0.00000000000E+00  0.49309808064E+02  0.49309808064E+02  0.00000000000E+00 0.  1.
          1   -1    0    0  501    0  0.00000000000E+00 -0.00000000000E+00 -0.17862781381E+04  0.17862781381E+04  0.00000000000E+00 0. -1.
         25    2    1    2    0    0  0.24931201658E+03  0.10676312057E+03 -0.10931117070E+04  0.11331793743E+04  0.12508974702E+03 0.  0.
          5    1    3    3  502    0  0.10106972708E+03  0.53615991284E+02 -0.70628674218E+03  0.71550555472E+03  0.41800000000E+01 0.  1.
         -5    1    3    3    0  502  0.14824228950E+03  0.53147129288E+02 -0.38682496486E+03  0.41767381961E+03  0.41800000000E+01 0.  1.
        -11    1    1    2    0    0 -0.15736822558E+03 -0.84918783184E+02 -0.49264848602E+03  0.52409778567E+03  0.00000000000E+00 0.  1.
         11    1    1    2    0    0 -0.91943791000E+02 -0.21844337388E+02 -0.15120813702E+03  0.17831078621E+03  0.00000000000E+00 0. -1.
</event>
<event>
 7    1  0.2728221E-009  0.1119908E+03  0.7561462E-02  0.1256927E+00
         -2   -1    0    0    0  501 -0.00000000000E+00  0.00000000000E+00  0.21048184411E+02  0.21048184411E+02  0.00000000000E+00 0.  1.
          2   -1    0    0  501    0  0.00000000000E+00 -0.00000000000E+00 -0.10785239187E+04  0.10785239187E+04  0.00000000000E+00 0. -1.
         25    2    1    2    0    0  0.89112750033E+02  0.35119696498E+02 -0.72398382413E+03  0.74092828245E+03  0.12509063445E+03 0.  0.
          5    1    3    3  502    0  0.74479278615E+02  0.32219080863E+02 -0.18908757541E+03  0.20580771533E+03  0.41800000000E+01 0. -1.
         -5    1    3    3    0  502  0.14633471418E+02  0.29006156357E+01 -0.53489624873E+03  0.53512056713E+03  0.41800000000E+01 0. -1.
        -11    1    1    2    0    0  0.16551760523E+02 -0.62721923676E+01 -0.20738640113E+02  0.27265222670E+02  0.00000000000E+00 0.  1.
         11    1    1    2    0    0 -0.10566451056E+03 -0.28847504131E+02 -0.31275327009E+03  0.33137859804E+03  0.00000000000E+00 0. -1.
</event>
<event>
 7    1  0.2728221E-009  0.1039019E+03  0.7561462E-02  0.1272298E+00
          1   -1    0    0  501    0  0.00000000000E+00  0.00000000000E+00  0.35657456602E+02  0.35657456602E+02  0.00000000000E+00 0. -1.
         -1   -1    0    0    0  501 -0.00000000000E+00 -0.00000000000E+00 -0.41200136796E+03  0.41200136796E+03  0.00000000000E+00 0.  1.
         25    2    1    2    0    0  0.46929694945E+02 -0.23564438648E+01 -0.26168657434E+03  0.29383186852E+03  0.12509738075E+03 0.  0.
          5    1    3    3  502    0  0.69721181162E+01  0.45569768045E+02 -0.33260063824E+02  0.56999284525E+02  0.41800000000E+01 0. -1.
         -5    1    3    3    0  502  0.39957576829E+02 -0.47926211910E+02 -0.22842651052E+03  0.23683258399E+03  0.41800000000E+01 0. -1.
        -11    1    1    2    0    0 -0.40172498696E+02  0.42375529908E+02 -0.47115645294E+02  0.75029322388E+02  0.00000000000E+00 0.  1.
         11    1    1    2    0    0 -0.67571962491E+01 -0.40019086043E+02 -0.67541691721E+02  0.78797633653E+02  0.00000000000E+00 0. -1.
</event>
<event>
 7    1  0.2728221E-009  0.1022362E+03  0.7561462E-02  0.1275663E+00
          2   -1    0    0  501    0  0.00000000000E+00  0.00000000000E+00  0.40046560504E+03  0.40046560504E+03  0.00000000000E+00 0. -1.
         -2   -1    0    0    0  501 -0.00000000000E+00 -0.00000000000E+00 -0.30649593222E+02  0.30649593222E+02  0.00000000000E+00 0.  1.
         25    2    1    2    0    0  0.13574291168E+02  0.93920050643E+01  0.24991873673E+03  0.27996185286E+03  0.12508714143E+03 0.  0.
          5    1    3    3  502    0  0.54837056829E+02  0.38277402009E+02  0.89720503599E+02  0.11197992442E+03  0.41800000000E+01 0. -1.
         -5    1    3    3    0  502 -0.41262765661E+02 -0.28885396945E+02  0.16019823313E+03  0.16798192844E+03  0.41800000000E+01 0. -1.
        -11    1    1    2    0    0  0.32255818432E+02 -0.22416586121E+02  0.30055696274E+02  0.49459943738E+02  0.00000000000E+00 0.  1.
         11    1    1    2    0    0 -0.45830109600E+02  0.13024581057E+02  0.89841578815E+02  0.10169340166E+03  0.00000000000E+00 0. -1.
</event>
<event>
 7    1  0.2728221E-009  0.1152976E+03  0.7561462E-02  0.1251063E+00
          3   -1    0    0  501    0  0.00000000000E+00  0.00000000000E+00  0.83025763897E+03  0.83025763897E+03  0.00000000000E+00 0.  1.
         -3   -1    0    0    0  501 -0.00000000000E+00 -0.00000000000E+00 -0.27457951178E+02  0.27457951178E+02  0.00000000000E+00 0. -1.
         25    2    1    2    0    0  0.21274948526E+02  0.81066002839E+02  0.25086178425E+03  0.29258153749E+03  0.12509197031E+03 0.  0.
          5    1    3    3  502    0  0.31017491614E+02  0.21768258635E+01  0.18949329460E+03  0.19207291443E+03  0.41800000000E+01 0. -1.
         -5    1    3    3    0  502 -0.97425430878E+01  0.78889176975E+02  0.61368489644E+02  0.10050862307E+03  0.41800000000E+01 0. -1.
        -11    1    1    2    0    0 -0.51598866008E+02 -0.28522433198E+02  0.22381444595E+03  0.23144951584E+03  0.00000000000E+00 0.  1.
         11    1    1    2    0    0  0.30323917482E+02 -0.52543569641E+02  0.32812345760E+03  0.33368453681E+03  0.00000000000E+00 0. -1.
</event>
<event>
 7    1  0.2728221E-009  0.1048333E+03  0.7561462E-02  0.1270448E+00
          1   -1    0    0  501    0  0.00000000000E+00  0.00000000000E+00  0.16377847893E+03  0.16377847893E+03  0.00000000000E+00 0. -1.
         -1   -1    0    0    0  501 -0.00000000000E+00 -0.00000000000E+00 -0.13599280819E+03  0.13599280819E+03  0.00000000000E+00 0.  1.
         25    2    1    2    0    0 -0.11613910158E+02  0.77909386690E+02  0.81532829965E+02  0.16882103725E+03  0.12509270488E+03 0.  0.
          5    1    3    3  502    0 -0.25724158560E+02  0.20807331788E+02  0.10128416526E+03  0.10663316521E+03  0.41800000000E+01 0.  1.
         -5    1    3    3    0  502  0.14110248402E+02  0.57102054902E+02 -0.19751335294E+02  0.62187872049E+02  0.41800000000E+01 0.  1.
        -11    1    1    2    0    0 -0.34453390374E+02 -0.57348996423E+02 -0.18512757715E+02  0.69416609664E+02  0.00000000000E+00 0. -1.
         11    1    1    2    0    0  0.46067300532E+02 -0.20560390266E+02 -0.35234401511E+02  0.61533640198E+02  0.00000000000E+00 0.  1.
</event>
<event>
 7    1  0.2728221E-009  0.2621190E+03  0.7561462E-02  0.1105877E+00
          2   -1    0    0  501    0  0.00000000000E+00  0.00000000000E+00  0.12352675557E+04  0.12352675557E+04  0.00000000000E+00 0. -1.
         -2   -1    0    0    0  501 -0.00000000000E+00 -0.00000000000E+00 -0.65210687953E+02  0.65210687953E+02  0.00000000000E+00 0.  1.
         25    2    1    2    0    0 -0.13285879299E+03  0.20309815401E+03  0.82373535785E+03  0.86780759131E+03  0.12509898768E+03 0.  0.
          5    1    3    3  502    0 -0.10416341715E+03  0.21394328147E+03  0.76826152486E+03  0.80427917301E+03  0.41800000000E+01 0.  1.
         -5    1    3    3    0  502 -0.28695375845E+02 -0.10845127461E+02  0.55473832991E+02  0.63528418296E+02  0.41800000000E+01 0.  1.
        -11    1    1    2    0    0 -0.50079011373E+01 -0.46008072558E+02  0.36501443754E+02  0.58942151389E+02  0.00000000000E+00 0.  1.
         11    1    1    2    0    0  0.13786669413E+03 -0.15709008145E+03  0.30982006612E+03  0.37372850094E+03  0.00000000000E+00 0. -1.
</event>
<event>
 7    1  0.2728221E-009  0.1050657E+03  0.7561462E-02  0.1269990E+00
          1   -1    0    0  501    0  0.00000000000E+00  0.00000000000E+00  0.23011296022E+03  0.23011296022E+03  0.00000000000E+00 0. -1.
         -1   -1    0    0    0  501 -0.00000000000E+00 -0.00000000000E+00 -0.56822200516E+02  0.56822200516E+02  0.00000000000E+00 0.  1.
         25    2    1    2    0    0  0.18015800976E+02  0.83614686893E+01  0.50743802296E+02  0.13644974577E+03  0.12509642843E+03 0.  0.
          5    1    3    3  502    0  0.63539071904E+02 -0.23346173920E+02  0.12566005289E+02  0.68975607166E+02  0.41800000000E+01 0. -1.
         -5    1    3    3    0  502 -0.45523270927E+02  0.31707642609E+02  0.38177797007E+02  0.67474138602E+02  0.41800000000E+01 0. -1.
        -11    1    1    2    0    0  0.29930461472E+02 -0.21628737538E+02  0.43190181052E+02  0.56824524201E+02  0.00000000000E+00 0.  1.
         11    1    1    2    0    0 -0.47946262448E+02  0.13267268849E+02  0.79356776353E+02  0.93660890763E+02  0.00000000000E+00 0. -1.
</event>
<event>
 7    1  0.2728221E-009  0.1144801E+03  0.7561462E-02  0.1252491E+00
         -4   -1    0    0    0  501 -0.00000000000E+00  0.00000000000E+00  0.32412215712E+03  0.32412215712E+03  0.00000000000E+00 0.  1.
          4   -1    0    0  501    0  0.00000000000E+00 -0.00000000000E+00 -0.74002602625E+02  0.74002602625E+02  0.00000000000E+00 0. -1.
         25    2    1    2    0    0 -0.65157396854E+02 -0.86371164596E+02  0.11387313345E+03  0.20079858365E+03  0.12509003252E+03 0.  0.
          5    1    3    3  502    0  0.13605391188E+01  0.51855891099E+01  0.83192483620E+02  0.83469773763E+02  0.41800000000E+01 0. -1.
         -5    1    3    3    0  502 -0.66517935973E+02 -0.91556753706E+02  0.30680649828E+02  0.11732880989E+03  0.41800000000E+01 0. -1.
        -11    1    1    2    0    0  0.18368445049E+02  0.34318972612E+02  0.11905307572E+03  0.12525504578E+03  0.00000000000E+00 0.  1.
         11    1    1    2    0    0  0.46788951806E+02  0.52052191984E+02  0.17193345323E+02  0.72071130314E+02  0.00000000000E+00 0. -1.
</event>
<event>
 7    1  0.2728221E-009  0.1054122E+03  0.7561462E-02  0.1269310E+00
         -1   -1    0    0    0  501 -0.00000000000E+00  0.00000000000E+00  0.22835595027E+02  0.22835595027E+02  0.00000000000E+00 0.  1.
          1   -1    0    0  501    0  0.00000000000E+00 -0.00000000000E+00 -0.77140874359E+03  0.77140874359E+03  0.00000000000E+00 0. -1.
         25    2    1    2    0    0 -0.11811568640E+02  0.56295227606E+02 -0.55406658577E+03  0.57091562183E+03  0.12508477116E+03 0.  0.
          5    1    3    3  502    0  0.50593986234E+02  0.45999528529E+02 -0.36870835145E+03  0.37501870473E+03  0.41800000000E+01 0. -1.
         -5    1    3    3    0  502 -0.62405554874E+02  0.10295699076E+02 -0.18535823432E+03  0.19589691710E+03  0.41800000000E+01 0. -1.
        -11    1    1    2    0    0  0.33457801113E+02 -0.37575688384E+02 -0.35033577530E+02  0.61308305860E+02  0.00000000000E+00 0.  1.
         11    1    1    2    0    0 -0.21646232473E+02 -0.18719539222E+02 -0.15947298526E+03  0.16202041093E+03  0.00000000000E+00 0. -1.
</event>
<event>
 7    1  0.3640706E-009  0.1376491E+03  0.7561462E-02  0.1216528E+00
         -1   -1    0    0    0  501 -0.00000000000E+00  0.00000000000E+00  0.92653520762E+02  0.92653520762E+02  0.00000000000E+00 0.  1.
          1   -1    0    0  501    0  0.00000000000E+00 -0.00000000000E+00 -0.34243484602E+03  0.34243484602E+03  0.00000000000E+00 0. -1.
         25    2    1    2    0    0  0.57745794769E+01  0.10818930495E+03 -0.24192068558E+03  0.29310704010E+03  0.12509135611E+03 0.  0.
          5    1    3    3  502    0 -0.58352260740E+02  0.55560628006E+02 -0.98024302591E+02  0.12695749689E+03  0.41800000000E+01 0. -1.
         -5    1    3    3    0  502  0.64126840216E+02  0.52628676944E+02 -0.14389638299E+03  0.16614954322E+03  0.41800000000E+01 0. -1.
        -11    1    1    2    0    0  0.99490741161E+01 -0.25289534350E+02  0.37399983029E+02  0.46230978294E+02  0.00000000000E+00 0.  1.
         11    1    1    2    0    0 -0.15723653593E+02 -0.82899770600E+02 -0.45260622702E+02  0.95750348381E+02  0.00000000000E+00 0. -1.
</event>
<event>
 7    1  0.2728221E-009  0.2444677E+03  0.7561462E-02  0.1116852E+00
          4   -1    0    0  501    0  0.00000000000E+00  0.00000000000E+00  0.32950628492E+03  0.32950628492E+03  0.00000000000E+00 0. -1.
         -4   -1    0    0    0  501 -0.00000000000E+00 -0.00000000000E+00 -0.20379081582E+03  0.20379081582E+03  0.00000000000E+00 0.  1.
         25    2    1    2    0    0  0.13093508908E+03 -0.18400894419E+03 -0.14801939937E+01  0.25819162727E+03  0.12512967803E+03 0.  0.
          5    1    3    3  502    0  0.16500384279E+01 -0.77350859484E+02  0.37479131495E+02  0.86069947062E+02  0.41800000000E+01 0.  1.
         -5    1    3    3    0  502  0.12928505065E+03 -0.10665808471E+03 -0.38959325489E+02  0.17212168021E+03  0.41800000000E+01 0.  1.
        -11    1    1    2    0    0 -0.14479395599E+03  0.15788078688E+03  0.11470747544E+03  0.24300090016E+03  0.00000000000E+00 0.  1.
         11    1    1    2    0    0  0.13858866915E+02  0.26128157312E+02  0.12488187664E+02  0.32104573316E+02  0.00000000000E+00 0. -1.
</event>
<event>
 7    1  0.2728221E-009  0.1672588E+03  0.7561462E-02  0.1180737E+00
         -2   -1    0    0    0  501 -0.00000000000E+00  0.00000000000E+00  0.23280930441E+02  0.23280930441E+02  0.00000000000E+00 0.  1.
          2   -1    0    0  501    0  0.00000000000E+00 -0.00000000000E+00 -0.13787112241E+04  0.13787112241E+04  0.00000000000E+00 0. -1.
         25    2    1    2    0    0 -0.71234870169E+02 -0.12980141373E+03 -0.83888134741E+03  0.86098315051E+03  0.12508899513E+03 0.  0.
          5    1    3    3  502    0  0.26187029994E+02 -0.55628411185E+01 -0.54552960862E+02  0.60911441290E+02  0.41800000000E+01 0.  1.
         -5    1    3    3    0  502 -0.97421900163E+02 -0.12423857261E+03 -0.78432838655E+03  0.80007170922E+03  0.41800000000E+01 0.  1.
        -11    1    1    2    0    0  0.21324286878E+02  0.59996561738E+02 -0.32409290073E+03  0.33028854194E+03  0.00000000000E+00 0. -1.
         11    1    1    2    0    0  0.49910583291E+02  0.69804851993E+02 -0.19245604551E+03  0.21072046208E+03  0.00000000000E+00 0.  1.
</event>
<event>
 7    1  0.2728221E-009  0.1498990E+03  0.7561462E-02  0.1200597E+00
          2   -1    0    0  501    0  0.00000000000E+00  0.00000000000E+00  0.59737790349E+03  0.59737790349E+03  0.00000000000E+00 0.  1.
         -2   -1    0    0    0  501 -0.00000000000E+00 -0.00000000000E+00 -0.57478880219E+02  0.57478880219E+02  0.00000000000E+00 0. -1.
         25    2    1    2    0    0  0.13823738603E+03 -0.31880581471E+02  0.37595432429E+03  0.42084870976E+03  0.12508411645E+03 0.  0.
          5    1    3    3  502    0  0.52956934342E+02  0.58783264374E+01  0.28686984639E+03  0.29180605337E+03  0.41800000000E+01 0. -1.
         -5    1    3    3    0  502  0.85280451683E+02 -0.37758907908E+02  0.89084477898E+02  0.12904265639E+03  0.41800000000E+01 0. -1.
        -11    1    1    2    0    0 -0.10614307494E+03 -0.22175157637E+01  0.64847812372E+02  0.12440461609E+03  0.00000000000E+00 0.  1.
         11    1    1    2    0    0 -0.32094311085E+02  0.34098097235E+02  0.99096886612E+02  0.10960345786E+03  0.00000000000E+00 0. -1.
</event>
<event>
 7    1  0.2728221E-009  0.2080808E+03  0.7561462E-02  0.1143095E+00
         -1   -1    0    0    0  501 -0.00000000000E+00  0.00000000000E+00  0.11580519456E+03  0.11580519456E+03  0.00000000000E+00 0.  1.
          1   -1    0    0  501    0  0.00000000000E+00 -0.00000000000E+00 -0.44630388432E+03  0.44630388432E+03  0.00000000000E+00 0. -1.
         25    2    1    2    0    0  0.14468509388E+02 -0.19591762503E+03 -0.21199594646E+03  0.31493255381E+03  0.12508868284E+03 0.  0.
          5    1    3    3  502    0 -0.11862384386E+02 -0.59567238187E+02  0.69670978705E+00  0.60884561533E+02  0.41800000000E+01 0. -1.
         -5    1    3    3    0  502  0.26330893774E+02 -0.13635038684E+03 -0.21269265625E+03  0.25404799228E+03  0.41800000000E+01 0. -1.
        -11    1    1    2    0    0 -0.49652542218E+02  0.15298359090E+03 -0.80124737068E+02  0.17969231348E+03  0.00000000000E+00 0.  1.
         11    1    1    2    0    0  0.35184032830E+02  0.42934034124E+02 -0.38378006227E+02  0.67484211593E+02  0.00000000000E+00 0. -1.
</event>
<event>
 7    1  0.2728221E-009  0.2482276E+03  0.7561462E-02  0.1114430E+00
          1   -1    0    0  501    0  0.00000000000E+00  0.00000000000E+00  0.47987147494E+02  0.47987147494E+02  0.00000000000E+00 0.  1.
         -1   -1    0    0    0  501 -0.00000000000E+00 -0.00000000000E+00 -0.15164735137E+04  0.15164735137E+04  0.00000000000E+00 0. -1.
         25    2    1    2    0    0  0.23732767678E+03  0.17651105511E+00 -0.58656876534E+03  0.64501436773E+03  0.12512458103E+03 0.  0.
          5    1    3    3  502    0  0.12731647380E+03 -0.40140899296E+01 -0.16057927100E+03  0.20500920003E+03  0.41800000000E+01 0. -1.
         -5    1    3    3    0  502  0.11001120297E+03  0.41906009847E+01 -0.42598949434E+03  0.44000516770E+03  0.41800000000E+01 0. -1.
        -11    1    1    2    0    0 -0.15713049830E+03  0.49205925031E+02 -0.60185239885E+03  0.62396917116E+03  0.00000000000E+00 0.  1.
         11    1    1    2    0    0 -0.80197178472E+02 -0.49382436086E+02 -0.28006520200E+03  0.29547712229E+03  0.00000000000E+00 0. -1.
</event>
<event>
 7    1  0.2728221E-009  0.1088611E+03  0.7561462E-02  0.1262694E+00
          1   -1    0    0  501    0  0.00000000000E+00  0.00000000000E+00  0.16945824191E+03  0.16945824191E+03  0.00000000000E+00 0. -1.
         -1   -1    0    0    0  501 -0.00000000000E+00 -0.00000000000E+00 -0.98865701401E+02  0.98865701401E+02  0.00000000000E+00 0.  1.
         25    2    1    2    0    0 -0.92982906768E+00  0.59113084335E+02 -0.23181057125E+01  0.13837252210E+03  0.12508541057E+03 0.  0.
          5    1    3    3  502    0 -0.41380942811E+02  0.23892336958E+01  0.39165761400E+02  0.57179717835E+02  0.41800000000E+01 0.  1.
         -5    1    3    3    0  502  0.40451113743E+02  0.56723850639E+02 -0.41483867113E+02  0.81192804269E+02  0.41800000000E+01 0.  1.
        -11    1    1    2    0    0 -0.79631774392E+01 -0.81650828600E+02  0.47305043525E+02  0.94699720954E+02  0.00000000000E+00 0.  1.
         11    1    1    2    0    0  0.88930065069E+01  0.22537744265E+02  0.25605602697E+02  0.35251700253E+02  0.00000000000E+00 0. -1.
</event>
<event>
 7    1  0.2728221E-009  0.1275460E+03  0.7561462E-02  0.1231143E+00
          3   -1    0    0  501    0  0.00000000000E+00  0.00000000000E+00  0.62242817136E+03  0.62242817136E+03  0.00000000000E+00 0. -1.
         -3   -1    0    0    0  501 -0.00000000000E+00 -0.00000000000E+00 -0.31617123406E+02  0.31617123406E+02  0.00000000000E+00 0.  1.
         25    2    1    2    0    0 -0.70445106456E+02  0.27698999453E+02  0.43251913115E+03  0.45656311035E+03  0.12508927742E+03 0.  0.
          5    1    3    3  502    0 -0.27141905029E+02  0.71872146522E+02  0.16654450337E+03  0.18345798554E+03  0.41800000000E+01 0. -1.
         -5    1    3    3    0  502 -0.43303201428E+02 -0.44173147069E+02  0.26597462777E+03  0.27310512481E+03  0.41800000000E+01 0. -1.
        -11    1    1    2    0    0  0.58574183511E+02 -0.58718983599E+02  0.12804639017E+03  0.15256058483E+03  0.00000000000E+00 0. -1.
         11    1    1    2    0    0  0.11870922945E+02  0.31019984146E+02  0.30245526635E+02  0.44921599587E+02  0.00000000000E+00 0.  1.
</event>
<event>
 7    1  0.2728221E-009  0.1354133E+03  0.7561462E-02  0.1219637E+00
          2   -1    0    0  501    0  0.00000000000E+00  0.00000000000E+00  0.37257948404E+03  0.37257948404E+03  0.00000000000E+00 0. -1.
         -2   -1    0    0    0  501 -0.00000000000E+00 -0.00000000000E+00 -0.80749665427E+02  0.80749665427E+02  0.00000000000E+00 0.  1.
         25    2    1    2    0    0 -0.64845707584E+02  0.10548055031E+03  0.22145463108E+03  0.28288003912E+03  0.12509136909E+03 0.  0.
          5    1    3    3  502    0 -0.89391252896E+01 -0.47952912118E+01  0.12638612001E+03  0.12686144611E+03  0.41800000000E+01 0. -1.
         -5    1    3    3    0  502 -0.55906582295E+02  0.11027584152E+03  0.95068511070E+02  0.15601859301E+03  0.41800000000E+01 0. -1.
        -11    1    1    2    0    0  0.45369699871E+02 -0.10738663606E+03  0.22500005343E+02  0.11872889081E+03  0.00000000000E+00 0.  1.
         11    1    1    2    0    0  0.19476007714E+02  0.19060857544E+01  0.47875182191E+02  0.51720219539E+02  0.00000000000E+00 0. -1.
</event>
<event>
 7    1  0.2728221E-009  0.8424041E+02  0.7561462E-02  0.1317431E+00
         -1   -1    0    0    0  501 -0.00000000000E+00  0.00000000000E+00  0.13766815295E+03  0.13766815295E+03  0.00000000000E+00 0.  1.
          1   -1    0    0  501    0  0.00000000000E+00 -0.00000000000E+00 -0.84964374454E+02  0.84964374454E+02  0.00000000000E+00 0. -1.
         25    2    1    2    0    0 -0.57136967808E+01 -0.42972733768E+01  0.35064852169E+02  0.13010910452E+03  0.12509085631E+03 0.  0.
          5    1    3    3  502    0  0.35771174421E+02  0.33764393317E+02 -0.18081513341E+02  0.52573992622E+02  0.41800000000E+01 0. -1.
         -5    1    3    3    0  502 -0.41484871202E+02 -0.38061666694E+02  0.53146365510E+02  0.77535111898E+02  0.41800000000E+01 0. -1.
        -11    1    1    2    0    0 -0.26297746973E+02 -0.92803254572E+01  0.41752014447E+02  0.50208830367E+02  0.00000000000E+00 0.  1.
         11    1    1    2    0    0  0.32011443754E+02  0.13577598834E+02 -0.24113088120E+02  0.42314592518E+02  0.00000000000E+00 0. -1.
</event>
<event>
 7    1  0.2728221E-009  0.1521719E+03  0.7561462E-02  0.1197829E+00
         -3   -1    0    0    0  501 -0.00000000000E+00  0.00000000000E+00  0.16339436419E+03  0.16339436419E+03  0.00000000000E+00 0.  1.
          3   -1    0    0  501    0  0.00000000000E+00 -0.00000000000E+00 -0.27837496217E+03  0.27837496217E+03  0.00000000000E+00 0. -1.
         25    2    1    2    0    0 -0.23576527950E+02  0.11755250333E+03  0.84660816389E+02  0.19282384648E+03  0.12505654013E+03 0.  0.
          5    1    3    3  502    0  0.19108421654E+02 -0.97228555693E+01  0.49325767835E+02  0.53945986607E+02  0.41800000000E+01 0. -1.
         -5    1    3    3    0  502 -0.42684949604E+02  0.12727535890E+03  0.35335048554E+02  0.13887785987E+03  0.41800000000E+01 0. -1.
        -11    1    1    2    0    0  0.56052595298E+02 -0.87689556680E+02 -0.14948840658E+03  0.18214866316E+03  0.00000000000E+00 0. -1.
         11    1    1    2    0    0 -0.32476067349E+02 -0.29862946654E+02 -0.50153007790E+02  0.66796816718E+02  0.00000000000E+00 0.  1.
</event>
<event>
 7    1  0.3905177E-009  0.1824218E+03  0.7561462E-02  0.1165480E+00
         -2   -1    0    0    0  501 -0.00000000000E+00  0.00000000000E+00  0.10697183873E+03  0.10697183873E+03  0.00000000000E+00 0.  1.
          2   -1    0    0  501    0  0.00000000000E+00 -0.00000000000E+00 -0.33875319544E+03  0.33875319544E+03  0.00000000000E+00 0. -1.
         25    2    1    2    0    0  0.44429825890E+02  0.14278475032E+03 -0.70419938811E+02  0.20728651121E+03  0.12508891076E+03 0.  0.
          5    1    3    3  502    0  0.36002954761E+02  0.16577131456E+03 -0.65938630779E+02  0.18204866632E+03  0.41800000000E+01 0.  1.
         -5    1    3    3    0  502  0.84268711287E+01 -0.22986564241E+02 -0.44813080318E+01  0.25237844883E+02  0.41800000000E+01 0.  1.
        -11    1    1    2    0    0  0.21491668865E+02 -0.64444152809E+02 -0.37011149558E+02  0.77361268432E+02  0.00000000000E+00 0.  1.
         11    1    1    2    0    0 -0.65921494755E+02 -0.78340597507E+02 -0.12435026834E+03  0.16107725453E+03  0.00000000000E+00 0. -1.
</event>
<event>
 7    1  0.2728221E-009  0.2168914E+03  0.7561462E-02  0.1136222E+00
         -1   -1    0    0    0  501 -0.00000000000E+00  0.00000000000E+00  0.36523330829E+02  0.36523330829E+02  0.00000000000E+00 0.  1.
          1   -1    0    0  501    0  0.00000000000E+00 -0.00000000000E+00 -0.14234670098E+04  0.14234670098E+04  0.00000000000E+00 0. -1.
         25    2    1    2    0    0 -0.74010266700E+02 -0.17613845718E+03 -0.90216223810E+03  0.93061602568E+03  0.12508879939E+03 0.  0.
          5    1    3    3  502    0 -0.10059909035E+03 -0.10208251771E+03 -0.47203570591E+03  0.49333173165E+03  0.41800000000E+01 0. -1.
         -5    1    3    3    0  502  0.26588823650E+02 -0.74055939469E+02 -0.43012653219E+03  0.43728429403E+03  0.41800000000E+01 0. -1.
        -11    1    1    2    0    0 -0.99117091952E+01  0.92818787239E+02 -0.18798967674E+03  0.20988970390E+03  0.00000000000E+00 0.  1.
         11    1    1    2    0    0  0.83921975895E+02  0.83319669939E+02 -0.29679176414E+03  0.31948461105E+03  0.00000000000E+00 0. -1.
</event>
<event>
 7    1  0.2728221E-009  0.1672522E+03  0.7561462E-02  0.1180744E+00
          2   -1    0    0  501    0  0.00000000000E+00  0.00000000000E+00  0.10201263650E+03  0.10201263650E+03  0.00000000000E+00 0. -1.
         -2   -1    0    0    0  501 -0.00000000000E+00 -0.00000000000E+00 -0.31895859910E+03  0.31895859910E+03  0.00000000000E+00 0.  1.
         25    2    1    2    0    0 -0.13358949320E+03 -0.53847117415E+02 -0.10446646574E+03  0.21749541551E+03  0.12508136775E+03 0.  0.
          5    1    3    3  502    0 -0.94827114351E+02 -0.94642608832E+02 -0.67934299958E+02  0.15027290685E+03  0.41800000000E+01 0.  1.
         -5    1    3    3    0  502 -0.38762378846E+02  0.40795491417E+02 -0.36532165785E+02  0.67222508661E+02  0.41800000000E+01 0.  1.
        -11    1    1    2    0    0  0.78942746054E+02  0.32102963120E+02 -0.10652142377E+02  0.85883790862E+02  0.00000000000E+00 0. -1.
         11    1    1    2    0    0  0.54646747143E+02  0.21744154295E+02 -0.10182735448E+03  0.11759202923E+03  0.00000000000E+00 0.  1.
</event>
<event>
 7    1  0.2728221E-009  0.1279032E+03  0.7561462E-02  0.1230601E+00
         -1   -1    0    0    0  501 -0.00000000000E+00  0.00000000000E+00  0.16981374865E+04  0.16981374865E+04  0.00000000000E+00 0.  1.
          1   -1    0    0  501    0  0.00000000000E+00 -0.00000000000E+00 -0.20635552146E+02  0.20635552146E+02  0.00000000000E+00 0. -1.
         25    2    1    2    0    0 -0.25660395691E+02 -0.10591556602E+03  0.13769594332E+04  0.13869180155E+04  0.12509091917E+03 0.  0.
          5    1    3    3  502    0 -0.21990685242E+02 -0.19130963626E+02  0.98445752357E+03  0.98489779780E+03  0.41800000000E+01 0.  1.
         -5    1    3    3    0  502 -0.36697104487E+01 -0.86784602396E+02  0.39250190963E+03  0.40202021772E+03  0.41800000000E+01 0.  1.
        -11    1    1    2    0    0  0.51514625772E+01 -0.15463186056E+02  0.52064487135E+02  0.54556012596E+02  0.00000000000E+00 0.  1.
         11    1    1    2    0    0  0.20508933114E+02  0.12137875208E+03  0.24847801406E+03  0.27729901057E+03  0.00000000000E+00 0. -1.
</event>
<event>
 7    1  0.2728221E-009  0.1415709E+03  0.7561462E-02  0.1211231E+00
         -1   -1    0    0    0  501 -0.00000000000E+00  0.00000000000E+00  0.92055316739E+01  0.92055316739E+01  0.00000000000E+00 0.  1.
          1   -1    0    0  501    0  0.00000000000E+00 -0.00000000000E+00 -0.24059189481E+04  0.24059189481E+04  0.00000000000E+00 0. -1.
         25    2    1    2    0    0  0.31765219216E+02  0.78546467649E+02 -0.16419128556E+04  0.16488494901E+04  0.12509292204E+03 0.  0.
          5    1    3    3  502    0 -0.40088645714E+01 -0.33173373933E+02 -0.37943761146E+03  0.38092901848E+03  0.41800000000E+01 0. -1.
         -5    1    3    3    0  502  0.35774083787E+02  0.11171984158E+03 -0.12624752441E+04  0.12679204716E+04  0.41800000000E+01 0. -1.
        -11    1    1    2    0    0 -0.47676927176E+02  0.41629523581E+01 -0.26605725803E+03  0.27032736470E+03  0.00000000000E+00 0.  1.
         11    1    1    2    0    0  0.15911707960E+02 -0.82709420007E+02 -0.48874330285E+03  0.49594762494E+03  0.00000000000E+00 0. -1.
</event>
<event>
 7    1  0.2728221E-009  0.1143084E+03  0.7561462E-02  0.1252793E+00
          2   -1    0    0  501    0  0.00000000000E+00  0.00000000000E+00  0.23800493479E+03  0.23800493479E+03  0.00000000000E+00 0. -1.
         -2   -1    0    0    0  501 -0.00000000000E+00 -0.00000000000E+00 -0.76756923170E+02  0.76756923170E+02  0.00000000000E+00 0.  1.
         25    2    1    2    0    0 -0.62425561816E+02  0.63099303238E+02  0.99533036369E+02  0.18284927361E+03  0.12509419928E+03 0.  0.
          5    1    3    3  502    0 -0.67474043827E+02 -0.60412917459E+01  0.85810806955E+01  0.68413091893E+02  0.41800000000E+01 0. -1.
         -5    1    3    3    0  502  0.50484820111E+01  0.69140594984E+02  0.90951955674E+02  0.11443618172E+03  0.41800000000E+01 0. -1.
        -11    1    1    2    0    0  0.42070510868E+02 -0.27423972144E+02 -0.81419400417E+01  0.50875272191E+02  0.00000000000E+00 0.  1.
         11    1    1    2    0    0  0.20355050948E+02 -0.35675331094E+02  0.69856915293E+02  0.81037312159E+02  0.00000000000E+00 0. -1.
</event>
<event>
 7    1  0.2728221E-009  0.1448796E+03  0.7561462E-02  0.1206910E+00
         -1   -1    0    0    0  501 -0.00000000000E+00  0.00000000000E+00  0.68307523534E+02  0.68307523534E+02  0.00000000000E+00 0.  1.
          1   -1    0    0  501    0  0.00000000000E+00 -0.00000000000E+00 -0.38447764306E+03  0.38447764306E+03  0.00000000000E+00 0. -1.
         25    2    1    2    0    0 -0.12994347870E+02 -0.97984258904E+02 -0.26459795023E+03  0.30891551219E+03  0.12508777051E+03 0.  0.
          5    1    3    3  502    0  0.25536067681E+02  0.19785397991E+02 -0.33905353285E+02  0.47016998072E+02  0.41800000000E+01 0. -1.
         -5    1    3    3    0  502 -0.38530415551E+02 -0.11776965690E+03 -0.23069259695E+03  0.26189851411E+03  0.41800000000E+01 0. -1.
        -11    1    1    2    0    0  0.50029740163E+02  0.73111598341E+02 -0.42863181450E+02  0.98415105735E+02  0.00000000000E+00 0. -1.
         11    1    1    2    0    0 -0.37035392293E+02  0.24872660562E+02 -0.87089878394E+01  0.45454548672E+02  0.00000000000E+00 0.  1.
</event>
<event>
 7    1  0.2728221E-009  0.8417484E+02  0.7561462E-02  0.1317605E+00
         -2   -1    0    0    0  501 -0.00000000000E+00  0.00000000000E+00  0.21582923113E+02  0.21582923113E+02  0.00000000000E+00 0.  1.
          2   -1    0    0  501    0  0.00000000000E+00 -0.00000000000E+00 -0.57616387442E+03  0.57616387442E+03  0.00000000000E+00 0. -1.
         25    2    1    2    0    0 -0.10888581682E+02 -0.14113510320E+02 -0.31364045015E+03  0.33813671474E+03  0.12509337913E+03 0.  0.
          5    1    3    3  502    0  0.39255432959E+02  0.11097764053E+02 -0.24931878047E+03  0.25266870816E+03  0.41800000000E+01 0.  1.
         -5    1    3    3    0  502 -0.50144014641E+02 -0.25211274373E+02 -0.64321669674E+02  0.85468006585E+02  0.41800000000E+01 0.  1.
        -11    1    1    2    0    0  0.33699357034E+02 -0.12560483537E+02 -0.33264411275E+02  0.48989115818E+02  0.00000000000E+00 0.  1.
         11    1    1    2    0    0 -0.22810775351E+02  0.26673993857E+02 -0.20767608988E+03  0.21062096698E+03  0.00000000000E+00 0. -1.
</event>
<event>
 7    1  0.2728221E-009  0.9485198E+02  0.7561462E-02  0.1291510E+00
         -1   -1    0    0    0  501 -0.00000000000E+00  0.00000000000E+00  0.10292639545E+02  0.10292639545E+02  0.00000000000E+00 0.  1.
          1   -1    0    0  501    0  0.00000000000E+00 -0.00000000000E+00 -0.17760823814E+04  0.17760823814E+04  0.00000000000E+00 0. -1.
         25    2    1    2    0    0 -0.43038026929E+02  0.27753687348E+02 -0.13594819049E+04  0.13661845498E+04  0.12508651136E+03 0.  0.
          5    1    3    3  502    0 -0.25711077455E+02 -0.19357178234E+02 -0.89469040541E+02  0.95173218231E+02  0.41800000000E+01 0. -1.
         -5    1    3    3    0  502 -0.17326949474E+02  0.47110865582E+02 -0.12700128644E+04  0.12710113316E+04  0.41800000000E+01 0. -1.
        -11    1    1    2    0    0 -0.27017757858E+02 -0.24938704576E+02 -0.15330417666E+03  0.15765173264E+03  0.00000000000E+00 0. -1.
         11    1    1    2    0    0  0.70055784787E+02 -0.28149827715E+01 -0.25300366027E+03  0.26253873851E+03  0.00000000000E+00 0.  1.
</event>
<event>
 7    1  0.2728221E-009  0.7169231E+02  0.7561462E-02  0.1354431E+00
         -2   -1    0    0    0  501 -0.00000000000E+00  0.00000000000E+00  0.45195812254E+02  0.45195812254E+02  0.00000000000E+00 0.  1.
          2   -1    0    0  501    0  0.00000000000E+00 -0.00000000000E+00 -0.26448466288E+03  0.26448466288E+03  0.00000000000E+00 0. -1.
         25    2    1    2    0    0  0.33305713924E+01  0.15641164806E+02 -0.14162887530E+03  0.18963527830E+03  0.12508821573E+03 0.  0.
          5    1    3    3  502    0 -0.71161126394E+01 -0.41116541546E+02 -0.62376862605E+01  0.42397997332E+02  0.41800000000E+01 0. -1.
         -5    1    3    3    0  502  0.10446684032E+02  0.56757706353E+02 -0.13539118904E+03  0.14723728097E+03  0.41800000000E+01 0. -1.
        -11    1    1    2    0    0  0.14836816988E+02 -0.20000303548E+02  0.12574164986E+02  0.27897184544E+02  0.00000000000E+00 0.  1.
         11    1    1    2    0    0 -0.18167388381E+02  0.43591387419E+01 -0.90234140306E+02  0.92148012284E+02  0.00000000000E+00 0. -1.
</event>
<event>
 7    1  0.2728221E-009  0.1039173E+03  0.7561462E-02  0.1272268E+00
         -1   -1    0    0    0  501 -0.00000000000E+00  0.00000000000E+00  0.33974535015E+03  0.33974535015E+03  0.00000000000E+00 0.  1.
          1   -1    0    0  501    0  0.00000000000E+00 -0.00000000000E+00 -0.57698111999E+02  0.57698111999E+02  0.00000000000E+00 0. -1.
         25    2    1    2    0    0  0.55854035829E+02 -0.37710995847E+02  0.73148179984E+02  0.15981235914E+03  0.12509013300E+03 0.  0.
          5    1    3    3  502    0 -0.20492708430E+01 -0.52561521740E+02  0.83721872035E+02  0.98963313080E+02  0.41800000000E+01 0.  1.
         -5    1    3    3    0  502  0.57903306672E+02  0.14850525893E+02 -0.10573692051E+02  0.60849046060E+02  0.41800000000E+01 0.  1.
        -11    1    1    2    0    0 -0.36208881179E+01  0.42534681575E+02  0.16111425152E+03  0.16667366922E+03  0.00000000000E+00 0. -1.
         11    1    1    2    0    0 -0.52233147711E+02 -0.48236857275E+01  0.47784806640E+02  0.70957433785E+02  0.00000000000E+00 0.  1.
</event>
<event>
 7    1  0.2728221E-009  0.1763634E+03  0.7561462E-02  0.1171370E+00
          2   -1    0    0  501    0  0.00000000000E+00  0.00000000000E+00  0.29968627047E+03  0.29968627047E+03  0.00000000000E+00 0. -1.
         -2   -1    0    0    0  501 -0.00000000000E+00 -0.00000000000E+00 -0.13565617602E+03  0.13565617602E+03  0.00000000000E+00 0.  1.
         25    2    1    2    0    0  0.64032034991E+01  0.14712787912E+03  0.17216537095E+03  0.25879793289E+03  0.12509133177E+03 0.  0.
          5    1    3    3  502    0 -0.64324964893E+01  0.16457440447E+03  0.16983364142E+03  0.23661582740E+03  0.41800000000E+01 0. -1.
         -5    1    3    3    0  502  0.12835699988E+02 -0.17446525355E+02  0.23317295288E+01  0.22182105485E+02  0.41800000000E+01 0. -1.
        -11    1    1    2    0    0  0.34871315454E+02 -0.57655625577E+02  0.26061771141E+02  0.72245385438E+02  0.00000000000E+00 0.  1.
         11    1    1    2    0    0 -0.41274518953E+02 -0.89472253540E+02 -0.34197047638E+02  0.10429912816E+03  0.00000000000E+00 0. -1.
</event>
<event>
 7    1  0.2728221E-009  0.6684751E+02  0.7561462E-02  0.1371154E+00
          1   -1    0    0  501    0  0.00000000000E+00  0.00000000000E+00  0.67799849170E+03  0.67799849170E+03  0.00000000000E+00 0. -1.
         -1   -1    0    0    0  501 -0.00000000000E+00 -0.00000000000E+00 -0.19092476472E+02  0.19092476472E+02  0.00000000000E+00 0.  1.
         25    2    1    2    0    0 -0.78096561045E+01 -0.57764345797E+01  0.48172979421E+03  0.49780085586E+03  0.12509092509E+03 0.  0.
          5    1    3    3  502    0  0.16611016878E+02 -0.26813251130E+02  0.26487298057E+02  0.41399585459E+02  0.41800000000E+01 0.  1.
         -5    1    3    3    0  502 -0.24420672982E+02  0.21036816550E+02  0.45524249615E+03  0.45640127040E+03  0.41800000000E+01 0.  1.
        -11    1    1    2    0    0  0.33730939508E+02  0.20591213239E+02  0.31364176439E+02  0.50452808707E+02  0.00000000000E+00 0.  1.
         11    1    1    2    0    0 -0.25921283404E+02 -0.14814778659E+02  0.14581204459E+03  0.14883730361E+03  0.00000000000E+00 0. -1.
</event>
<event>
 7    1  0.2728221E-009  0.1157355E+03  0.7561462E-02  0.1250303E+00
         -2   -1    0    0    0  501 -0.00000000000E+00  0.00000000000E+00  0.41477614188E+03  0.41477614188E+03  0.00000000000E+00 0.  1.
          2   -1    0    0  501    0  0.00000000000E+00 -0.00000000000E+00 -0.35060391742E+02  0.35060391742E+02  0.00000000000E+00 0. -1.
         25    2    1    2    0    0  0.43110829725E+02 -0.21880318505E+02  0.25187476722E+03  0.28535248472E+03  0.12509136741E+03 0.  0.
          5    1    3    3  502    0 -0.38969343023E+02 -0.29060046313E+02  0.66786845487E+02  0.82710646941E+02  0.41800000000E+01 0.  1.
         -5    1    3    3    0  502  0.82080172748E+02  0.71797278070E+01  0.18508792173E+03  0.20264183778E+03  0.41800000000E+01 0.  1.
        -11    1    1    2    0    0 -0.70037624074E+02  0.21454928998E+02  0.11008133574E+03  0.13222512334E+03  0.00000000000E+00 0.  1.
         11    1    1    2    0    0  0.26926794349E+02  0.42538950781E+00  0.17759647184E+02  0.32258925559E+02  0.00000000000E+00 0. -1.
</event>
<event>
 6    1  0.2728221E-009  0.1365871E+03  0.7561462E-02  0.1217997E+00
          1   -1    0    0  501    0  0.00000000000E+00  0.00000000000E+00  0.20690554579E+03  0.20690554579E+03  0.00000000000E+00 0. -1.
         -1   -1    0    0    0  501 -0.00000000000E+00 -0.00000000000E+00 -0.10026583616E+03  0.10026583616E+03  0.00000000000E+00 0.  1.
          5    1    1    2  502    0 -0.22687344109E+02  0.25235942919E+02  0.27411417337E+02  0.43822672193E+02  0.41800000000E+01 0. -1.
         -5    1    1    2    0  502  0.11027848963E+03 -0.13786300602E+02 -0.23900058914E+01  0.11124114296E+03  0.41800000000E+01 0. -1.
        -11    1    1    2    0    0  0.16873149465E+02  0.11997989844E+02  0.18858379349E+02  0.28005238882E+02  0.00000000000E+00 0. -1.
         11    1    1    2    0    0 -0.10446429499E+03 -0.23447632161E+02  0.62759918830E+02  0.12410232791E+03  0.00000000000E+00 0.  1.
</event>
<event>
 7    1  0.2728221E-009  0.1915960E+03  0.7561462E-02  0.1157030E+00
          2   -1    0    0  501    0  0.00000000000E+00  0.00000000000E+00  0.49122838396E+02  0.49122838396E+02  0.00000000000E+00 0.  1.
         -2   -1    0    0    0  501 -0.00000000000E+00 -0.00000000000E+00 -0.83125879468E+03  0.83125879468E+03  0.00000000000E+00 0. -1.
         25    2    1    2    0    0 -0.10626850767E+03  0.13188675036E+03 -0.36728812629E+03  0.42336249394E+03  0.12509245747E+03 0.  0.
          5    1    3    3  502    0  0.11866414130E+02  0.44275291652E+02 -0.28845690942E+02  0.54319973501E+02  0.41800000000E+01 0. -1.
         -5    1    3    3    0  502 -0.11813492180E+03  0.87611458708E+02 -0.33844243535E+03  0.36904252044E+03  0.41800000000E+01 0. -1.
        -11    1    1    2    0    0  0.36564563661E+02  0.45202906508E+01 -0.58414983393E+02  0.69063091649E+02  0.00000000000E+00 0.  1.
         11    1    1    2    0    0  0.69703944011E+02 -0.13640704101E+03 -0.35643284660E+03  0.38795604749E+03  0.00000000000E+00 0. -1.
</event>
<event>
 7    1  0.2728221E-009  0.1638421E+03  0.7561462E-02  0.1184426E+00
         -2   -1    0    0    0  501 -0.00000000000E+00  0.00000000000E+00  0.45330675404E+02  0.45330675404E+02  0.00000000000E+00 0.  1.
          2   -1    0    0  501    0  0.00000000000E+00 -0.00000000000E+00 -0.61333886827E+03  0.61333886827E+03  0.00000000000E+00 0. -1.
         25    2    1    2    0    0  0.22472750681E+02  0.12158990056E+03 -0.33211946538E+03  0.37581959217E+03  0.12509155900E+03 0.  0.
          5    1    3    3  502    0 -0.66447516119E+01  0.13781805446E+03 -0.22924036141E+03  0.26759406675E+03  0.41800000000E+01 0.  1.
         -5    1    3    3    0  502  0.29117502293E+02 -0.16228153902E+02 -0.10287910398E+03  0.10822552543E+03  0.41800000000E+01 0.  1.
        -11    1    1    2    0    0 -0.36622353984E+02 -0.31416093247E+01 -0.58001694373E+02  0.68667773158E+02  0.00000000000E+00 0.  1.
         11    1    1    2    0    0  0.14149603302E+02 -0.11844829124E+03 -0.17788703311E+03  0.21418217834E+03  0.00000000000E+00 0. -1.
</event>
<event>
 7    1  0.2728221E-009  0.1182353E+03  0.7561462E-02  0.1246037E+00
          1   -1    0    0  501    0  0.00000000000E+00  0.00000000000E+00  0.71786156970E+03  0.71786156970E+03  0.00000000000E+00 0. -1.
         -1   -1    0    0    0  501 -0.00000000000E+00 -0.00000000000E+00 -0.41597605835E+02  0.41597605835E+02  0.00000000000E+00 0.  1.
         25    2    1    2    0    0  0.36212984953E+02  0.66806403087E+02  0.11663234762E+03  0.18714780590E+03  0.12508685371E+03 0.  0.
          5    1    3    3  502    0  0.74332170746E+01 -0.22212474720E+02 -0.13088237775E+02  0.27155498841E+02  0.41800000000E+01 0.  1.
         -5    1    3    3    0  502  0.28779767879E+02  0.89018877807E+02  0.12972058539E+03  0.15999230706E+03  0.41800000000E+01 0.  1.
        -11    1    1    2    0    0 -0.62434001315E+02 -0.68586041297E+02  0.46107853841E+03  0.47031422279E+03  0.00000000000E+00 0.  1.
         11    1    1    2    0    0  0.26221016362E+02  0.17796382101E+01  0.98553077836E+02  0.10199714683E+03  0.00000000000E+00 0. -1.
</event>
<event>
 7    1  0.2728221E-009  0.1284876E+03  0.7561462E-02  0.1229717E+00
         -2   -1    0    0    0  501 -0.00000000000E+00  0.00000000000E+00  0.35527148877E+03  0.35527148877E+03  0.00000000000E+00 0.  1.
          2   -1    0    0  501    0  0.00000000000E+00 -0.00000000000E+00 -0.46968556664E+02  0.46968556664E+02  0.00000000000E+00 0. -1.
         25    2    1    2    0    0 -0.10011550733E+01  0.72327025320E+02  0.17565313875E+03  0.22745143131E+03  0.12509167657E+03 0.  0.
          5    1    3    3  502    0  0.54032438875E+02  0.94916230537E+00  0.62511727242E+02  0.82738103692E+02  0.41800000000E+01 0.  1.
         -5    1    3    3    0  502 -0.55033593948E+02  0.71377863015E+02  0.11314141151E+03  0.14471332761E+03  0.41800000000E+01 0.  1.
        -11    1    1    2    0    0  0.28279461596E+02 -0.79466599598E+02  0.11002426744E+03  0.13863624283E+03  0.00000000000E+00 0.  1.
         11    1    1    2    0    0 -0.27278306523E+02  0.71395742778E+01  0.22625525923E+02  0.36152371304E+02  0.00000000000E+00 0. -1.
</event>
<event>
 7    1  0.2728221E-009  0.1094662E+03  0.7561462E-02  0.1261562E+00
          2   -1    0    0  501    0  0.00000000000E+00  0.00000000000E+00  0.10247835420E+04  0.10247835420E+04  0.00000000000E+00 0. -1.
         -2   -1    0    0    0  501 -0.00000000000E+00 -0.00000000000E+00 -0.19655923578E+02  0.19655923578E+02  0.00000000000E+00 0.  1.
         25    2    1    2    0    0 -0.36302944697E+02 -0.77960669170E+02  0.57570251731E+03  0.59537659901E+03  0.12507652246E+03 0.  0.
          5    1    3    3  502    0  0.36699321760E+00 -0.20691755892E+02  0.64711204963E+01  0.22082374111E+02  0.41800000000E+01 0.  1.
         -5    1    3    3    0  502 -0.36669937914E+02 -0.57268913278E+02  0.56923139682E+03  0.57329422490E+03  0.41800000000E+01 0.  1.
        -11    1    1    2    0    0  0.50377568085E+02  0.95034243822E+02  0.32560796530E+03  0.34291391621E+03  0.00000000000E+00 0.  1.
         11    1    1    2    0    0 -0.14074623388E+02 -0.17073574652E+02  0.10381713577E+03  0.10614895032E+03  0.00000000000E+00 0. -1.
</event>
<event>
 7    1  0.2728221E-009  0.1702184E+03  0.7561462E-02  0.1177620E+00
          1   -1    0    0  501    0  0.00000000000E+00  0.00000000000E+00  0.14495115898E+04  0.14495115898E+04  0.00000000000E+00 0. -1.
         -1   -1    0    0    0  501 -0.00000000000E+00 -0.00000000000E+00 -0.27211375103E+02  0.27211375103E+02  0.00000000000E+00 0.  1.
         25    2    1    2    0    0 -0.13951942946E+03  0.91009872734E+02  0.74498261068E+03  0.77356042971E+03  0.12509268591E+03 0.  0.
          5    1    3    3  502    0 -0.10960357900E+03  0.70586227179E+02  0.30052584724E+03  0.32761046573E+03  0.41800000000E+01 0.  1.
         -5    1    3    3    0  502 -0.29915850456E+02  0.20423645555E+02  0.44445676343E+03  0.44594996397E+03  0.41800000000E+01 0.  1.
        -11    1    1    2    0    0  0.12656679312E+03 -0.60272236671E+02  0.62911572205E+03  0.64454517868E+03  0.00000000000E+00 0. -1.
         11    1    1    2    0    0  0.12952636345E+02 -0.30737636063E+02  0.48201881973E+02  0.58617356515E+02  0.00000000000E+00 0.  1.
</event>
<event>
 7    1  0.2728221E-009  0.1260719E+03  0.7561462E-02  0.1233404E+00
          1   -1    0    0  501    0  0.00000000000E+00  0.00000000000E+00  0.64495654112E+03  0.64495654112E+03  0.00000000000E+00 0. -1.
         -1   -1    0    0    0  501 -0.00000000000E+00 -0.00000000000E+00 -0.39017647529E+02  0.39017647529E+02  0.00000000000E+00 0.  1.
         25    2    1    2    0    0 -0.10375998859E+03 -0.25565896844E+02  0.42763640516E+03  0.45819279263E+03  0.12509192576E+03 0.  0.
          5    1    3    3  502    0 -0.10943557305E+02 -0.42972548213E+02  0.27553099457E+03  0.27910786932E+03  0.41800000000E+01 0. -1.
         -5    1    3    3    0  502 -0.92816431281E+02  0.17406651369E+02  0.15210541059E+03  0.17908492331E+03  0.41800000000E+01 0. -1.
        -11    1    1    2    0    0  0.60323932867E+01  0.13271578157E+02 -0.68133799596E+01  0.16091820966E+02  0.00000000000E+00 0.  1.
         11    1    1    2    0    0  0.97727595299E+02  0.12294318687E+02  0.18511586839E+03  0.20968957505E+03  0.00000000000E+00 0. -1.
</event>
<event>
 7    1  0.2728221E-009  0.1262031E+03  0.7561462E-02  0.1233201E+00
         -1   -1    0    0    0  501 -0.00000000000E+00  0.00000000000E+00  0.12722006586E+03  0.12722006586E+03  0.00000000000E+00 0.  1.
          1   -1    0    0  501    0  0.00000000000E+00 -0.00000000000E+00 -0.21976365519E+03  0.21976365519E+03  0.00000000000E+00 0. -1.
         25    2    1    2    0    0 -0.61662897454E+02  0.95576407949E+02 -0.10908150446E+03  0.20120413294E+03  0.12508863185E+03 0.  0.
          5    1    3    3  502    0  0.99362579148E+00  0.38734592583E+02 -0.10978799295E+03  0.11649992168E+03  0.41800000000E+01 0.  1.
         -5    1    3    3    0  502 -0.62656523246E+02  0.56841815365E+02  0.70648849457E+00  0.84704211261E+02  0.41800000000E+01 0.  1.
        -11    1    1    2    0    0  0.31470848406E+02 -0.93288796046E+02 -0.17744460089E+02  0.10004039000E+03  0.00000000000E+00 0. -1.
         11    1    1    2    0    0  0.30192049048E+02 -0.22876119031E+01  0.34282375213E+02  0.45739198115E+02  0.00000000000E+00 0.  1.
</event>
<event>
 7    1  0.2728221E-009  0.1087068E+03  0.7561462E-02  0.1262984E+00
         -1   -1    0    0    0  501 -0.00000000000E+00  0.00000000000E+00  0.46160337789E+03  0.46160337789E+03  0.00000000000E+00 0.  1.
          1   -1    0    0  501    0  0.00000000000E+00 -0.00000000000E+00 -0.50764868741E+02  0.50764868741E+02  0.00000000000E+00 0. -1.
         25    2    1    2    0    0  0.59422138136E+02  0.50790114084E+02  0.34393579328E+03  0.37423263745E+03  0.12509041070E+03 0.  0.
          5    1    3    3  502    0  0.69215160352E+02  0.63134521616E+01  0.30882178058E+03  0.31657378707E+03  0.41800000000E+01 0. -1.
         -5    1    3    3    0  502 -0.97930222160E+01  0.44476661922E+02  0.35114012699E+02  0.57658850384E+02  0.41800000000E+01 0. -1.
        -11    1    1    2    0    0  0.80187909280E+01 -0.30630158620E+02  0.59445719991E+02  0.67352069384E+02  0.00000000000E+00 0.  1.
         11    1    1    2    0    0 -0.67440929064E+02 -0.20159955463E+02  0.74569958766E+01  0.70783539787E+02  0.00000000000E+00 0. -1.
</event>
<event>
 7    1  0.2728221E-009  0.1472439E+03  0.7561462E-02  0.1203901E+00
         -2   -1    0    0    0  501 -0.00000000000E+00  0.00000000000E+00  0.18862128827E+03  0.18862128827E+03  0.00000000000E+00 0.  1.
          2   -1    0    0  501    0  0.00000000000E+00 -0.00000000000E+00 -0.12287804081E+03  0.12287804081E+03  0.00000000000E+00 0. -1.
         25    2    1    2    0    0 -0.10255631484E+03 -0.26396306471E+02  0.55890343752E+02  0.17316953510E+03  0.12509754056E+03 0.  0.
          5    1    3    3  502    0 -0.43521485026E+00  0.38505115587E+02 -0.23763702497E+01  0.38806608637E+02  0.41800000000E+01 0.  1.
         -5    1    3    3    0  502 -0.10212109999E+03 -0.64901422058E+02  0.58266714001E+02  0.13436292647E+03  0.41800000000E+01 0.  1.
        -11    1    1    2    0    0  0.68104880678E+02  0.56839401441E+02 -0.78732902478E+01  0.89056055536E+02  0.00000000000E+00 0. -1.
         11    1    1    2    0    0  0.34451434163E+02 -0.30443094971E+02  0.17726193960E+02  0.49273738437E+02  0.00000000000E+00 0.  1.
</event>
<event>
 7    1  0.2728221E-009  0.1267607E+03  0.7561462E-02  0.1232343E+00
         -1   -1    0    0    0  501 -0.00000000000E+00  0.00000000000E+00  0.17426856802E+02  0.17426856802E+02  0.00000000000E+00 0.  1.
          1   -1    0    0  501    0  0.00000000000E+00 -0.00000000000E+00 -0.14106431375E+04  0.14106431375E+04  0.00000000000E+00 0. -1.
         25    2    1    2    0    0  0.26891271565E+01 -0.85812772143E+02 -0.10829745846E+04  0.10935510210E+04  0.12509524977E+03 0.  0.
          5    1    3    3  502    0 -0.56876641977E+02 -0.68190886248E+02 -0.68278317079E+03  0.68854577196E+03  0.41800000000E+01 0.  1.
         -5    1    3    3    0  502  0.59565769134E+02 -0.17621885895E+02 -0.40019141378E+03  0.40500524908E+03  0.41800000000E+01 0.  1.
        -11    1    1    2    0    0 -0.28855711123E+02  0.36359272795E+02 -0.49569884362E+02  0.67910398455E+02  0.00000000000E+00 0.  1.
         11    1    1    2    0    0  0.26166583966E+02  0.49453499348E+02 -0.26067181180E+03  0.26660857485E+03  0.00000000000E+00 0. -1.
</event>
<event>
 7    1  0.2728221E-009  0.1559573E+03  0.7561462E-02  0.1193338E+00
         -1   -1    0    0    0  501 -0.00000000000E+00  0.00000000000E+00  0.28912525744E+02  0.28912525744E+02  0.00000000000E+00 0.  1.
          1   -1    0    0  501    0  0.00000000000E+00 -0.00000000000E+00 -0.12309883883E+04  0.12309883883E+04  0.00000000000E+00 0. -1.
         25    2    1    2    0    0  0.10288365868E+01  0.11374962838E+03 -0.97685999676E+03  0.99138478735E+03  0.12509319261E+03 0.  0.
          5    1    3    3  502    0 -0.41142637048E+02 -0.58539447271E+01 -0.21281098330E+03  0.21687086541E+03  0.41800000000E+01 0.  1.
         -5    1    3    3    0  502  0.42171473635E+02  0.11960357311E+03 -0.76404901346E+03  0.77451392193E+03  0.41800000000E+01 0.  1.
        -11    1    1    2    0    0  0.40549797347E+02 -0.32419618225E+02 -0.56991915372E+02  0.77093424678E+02  0.00000000000E+00 0.  1.
         11    1    1    2    0    0 -0.41578633934E+02 -0.81330010159E+02 -0.16822395038E+03  0.19142270198E+03  0.00000000000E+00 0. -1.
</event>
<event>
 7    1  0.2728221E-009  0.1000772E+03  0.7561462E-02  0.1280134E+00
          2   -1    0    0  501    0  0.00000000000E+00  0.00000000000E+00  0.20274591919E+03  0.20274591919E+03  0.00000000000E+00 0. -1.
         -2   -1    0    0    0  501 -0.00000000000E+00 -0.00000000000E+00 -0.54849222033E+02  0.54849222033E+02  0.00000000000E+00 0.  1.
         25    2    1    2    0    0 -0.52920808875E+01  0.33500085263E+02  0.98322409145E+02  0.16268739171E+03  0.12509847900E+03 0.  0.
          5    1    3    3  502    0  0.48973935748E+02 -0.95698725805E+01  0.11225278860E+02  0.51317717500E+02  0.41800000000E+01 0. -1.
         -5    1    3    3    0  502 -0.54266016636E+02  0.43069957843E+02  0.87097130285E+02  0.11136967421E+03  0.41800000000E+01 0. -1.
        -11    1    1    2    0    0 -0.32429362239E+02 -0.27413073594E+02  0.29870136780E+02  0.51916906787E+02  0.00000000000E+00 0.  1.
         11    1    1    2    0    0  0.37721443126E+02 -0.60870116691E+01  0.19704151235E+02  0.42990842728E+02  0.00000000000E+00 0. -1.
</event>
<event>
 7    1  0.2728221E-009  0.1778904E+03  0.7561462E-02  0.1169860E+00
          1   -1    0    0  501    0  0.00000000000E+00  0.00000000000E+00  0.21846082442E+03  0.21846082442E+03  0.00000000000E+00 0. -1.
         -1   -1    0    0    0  501 -0.00000000000E+00 -0.00000000000E+00 -0.15753765018E+03  0.15753765018E+03  0.00000000000E+00 0.  1.
         25    2    1    2    0    0 -0.10765850079E+03 -0.10180778642E+03  0.64226748669E+02  0.20427000363E+03  0.12508389572E+03 0.  0.
          5    1    3    3  502    0 -0.22858303727E+01 -0.83612177120E+02  0.46521069618E+02  0.95801375259E+02  0.41800000000E+01 0. -1.
         -5    1    3    3    0  502 -0.10537267042E+03 -0.18195609302E+02  0.17705679051E+02  0.10846862837E+03  0.41800000000E+01 0. -1.
        -11    1    1    2    0    0  0.26826488546E+02 -0.86120191482E+01 -0.19006244181E+02  0.33986242501E+02  0.00000000000E+00 0.  1.
         11    1    1    2    0    0  0.80832012249E+02  0.11041980557E+03  0.15702669759E+02  0.13774222847E+03  0.00000000000E+00 0. -1.
</event>
<event>
 7    1  0.2728221E-009  0.9897205E+02  0.7561462E-02  0.1282473E+00
          2   -1    0    0  501    0  0.00000000000E+00  0.00000000000E+00  0.20018823914E+03  0.20018823914E+03  0.00000000000E+00 0. -1.
         -2   -1    0    0    0  501 -0.00000000000E+00 -0.00000000000E+00 -0.93781384309E+02  0.93781384309E+02  0.00000000000E+00 0.  1.
         25    2    1    2    0    0 -0.14057725407E+02  0.82059775506E+02  0.58079659263E+02  0.16109931647E+03  0.12509323142E+03 0.  0.
          5    1    3    3  502    0 -0.31468893790E+01  0.94215041568E+01  0.82790028420E+02  0.83488495370E+02  0.41800000000E+01 0. -1.
         -5    1    3    3    0  502 -0.10910836028E+02  0.72638271349E+02 -0.24710369157E+02  0.77610821097E+02  0.41800000000E+01 0. -1.
        -11    1    1    2    0    0 -0.24858480915E+02 -0.24452749869E+01  0.35385491640E+02  0.43313467442E+02  0.00000000000E+00 0.  1.
         11    1    1    2    0    0  0.38916206323E+02 -0.79614500519E+02  0.12941703923E+02  0.89556839537E+02  0.00000000000E+00 0. -1.
</event>
<event>
 7    1  0.2728221E-009  0.1153999E+03  0.7561462E-02  0.1250885E+00
         -2   -1    0    0    0  501 -0.00000000000E+00  0.00000000000E+00  0.25759640820E+02  0.25759640820E+02  0.00000000000E+00 0.  1.
          2   -1    0    0  501    0  0.00000000000E+00 -0.00000000000E+00 -0.11321044531E+04  0.11321044531E+04  0.00000000000E+00 0. -1.
         25    2    1    2    0    0  0.29342169259E+01  0.60386153563E+02 -0.98534760793E+03  0.99509439859E+03  0.12509139251E+03 0.  0.
          5    1    3    3  502    0 -0.49817181922E+02  0.68569449540E+02 -0.56096148484E+03  0.56734361801E+03  0.41800000000E+01 0.  1.
         -5    1    3    3    0  502  0.52751398848E+02 -0.81832959774E+01 -0.42438612310E+03  0.42775078058E+03  0.41800000000E+01 0.  1.
        -11    1    1    2    0    0  0.18890083486E+02 -0.66983092813E+02 -0.43695525109E+02  0.82175841288E+02  0.00000000000E+00 0.  1.
         11    1    1    2    0    0 -0.21824300412E+02  0.65969392503E+01 -0.77301679260E+02  0.80593854061E+02  0.00000000000E+00 0. -1.
</event>
<event>
 7    1  0.2728221E-009  0.1330683E+03  0.7561462E-02  0.1222973E+00
         -1   -1    0    0    0  501 -0.00000000000E+00  0.00000000000E+00  0.43371219564E+03  0.43371219564E+03  0.00000000000E+00 0.  1.
          1   -1    0    0  501    0  0.00000000000E+00 -0.00000000000E+00 -0.52794958335E+02  0.52794958335E+02  0.00000000000E+00 0. -1.
         25    2    1    2    0    0 -0.65709076270E+02 -0.68811410343E+02  0.27797399895E+03  0.31932762438E+03  0.12509154529E+03 0.  0.
          5    1    3    3  502    0 -0.28443005792E+02  0.22056317704E+02  0.16782880178E+03  0.17169584979E+03  0.41800000000E+01 0.  1.
         -5    1    3    3    0  502 -0.37266070477E+02 -0.90867728047E+02  0.11014519717E+03  0.14763177459E+03  0.41800000000E+01 0.  1.
        -11    1    1    2    0    0  0.84612837231E+02  0.32456348354E+02  0.74231494468E+02  0.11714547172E+03  0.00000000000E+00 0.  1.
         11    1    1    2    0    0 -0.18903760962E+02  0.36355061989E+02  0.28711743895E+02  0.50034057882E+02  0.00000000000E+00 0. -1.
</event>
<event>
 7    1  0.3895719E-009  0.1154835E+03  0.7561462E-02  0.1250739E+00
          1   -1    0    0  501    0  0.00000000000E+00  0.00000000000E+00  0.18918193794E+03  0.18918193794E+03  0.00000000000E+00 0. -1.
         -1   -1    0    0    0  501 -0.00000000000E+00 -0.00000000000E+00 -0.85923158763E+02  0.85923158763E+02  0.00000000000E+00 0.  1.
         25    2    1    2    0    0  0.36331832400E+02 -0.29888760920E+02  0.59261365389E+01  0.13377208953E+03  0.12508602148E+03 0.  0.
          5    1    3    3  502    0  0.81216128821E+02 -0.30163828555E+02  0.14338221773E+02  0.87914578639E+02  0.41800000000E+01 0. -1.
         -5    1    3    3    0  502 -0.44884296421E+02  0.27506763477E+00 -0.84120852345E+01  0.45857510894E+02  0.41800000000E+01 0. -1.
        -11    1    1    2    0    0  0.28918599443E+02  0.51841411351E+01  0.46519154716E+02  0.55019927922E+02  0.00000000000E+00 0. -1.
         11    1    1    2    0    0 -0.65250431843E+02  0.24704619785E+02  0.50813487925E+02  0.86313079249E+02  0.00000000000E+00 0.  1.
</event>
<event>
 7    1  0.2780608E-009  0.8868117E+02  0.7561462E-02  0.1306077E+00
         -1   -1    0    0    0  501 -0.00000000000E+00  0.00000000000E+00  0.68696152863E+02  0.68696152863E+02  0.00000000000E+00 0.  1.
          1   -1    0    0  501    0  0.00000000000E+00 -0.00000000000E+00 -0.22228431707E+03  0.22228431707E+03  0.00000000000E+00 0. -1.
         25    2    1    2    0    0 -0.19917842192E+02 -0.55994844104E+01 -0.20260440235E+02  0.12837084249E+03  0.12506203700E+03 0.  0.
          5    1    3    3  502    0  0.71200786191E+01  0.54133571099E+02  0.10612008545E+02  0.55778366459E+02  0.41800000000E+01 0. -1.
         -5    1    3    3    0  502 -0.27037920811E+02 -0.59733055510E+02 -0.30872448780E+02  0.72592476029E+02  0.41800000000E+01 0. -1.
        -11    1    1    2    0    0 -0.21545078993E+01 -0.21693942643E+02 -0.12452796457E+03  0.12642184547E+03  0.00000000000E+00 0. -1.
         11    1    1    2    0    0  0.22072350092E+02  0.27293427053E+02 -0.87997594016E+01  0.36187781977E+02  0.00000000000E+00 0.  1.
</event>
<event>
 7    1  0.2728221E-009  0.5034056E+02  0.7561462E-02  0.1443513E+00
          4   -1    0    0  501    0  0.00000000000E+00  0.00000000000E+00  0.63525029999E+02  0.63525029999E+02  0.00000000000E+00 0. -1.
         -4   -1    0    0    0  501 -0.00000000000E+00 -0.00000000000E+00 -0.20985904767E+03  0.20985904767E+03  0.00000000000E+00 0.  1.
         25    2    1    2    0    0  0.30730701317E+02  0.16772470718E+01 -0.11374169768E+03  0.17184402868E+03  0.12508400074E+03 0.  0.
          5    1    3    3  502    0  0.94304708857E+01  0.77019816474E+01 -0.13808094966E+03  0.13867975830E+03  0.41800000000E+01 0.  1.
         -5    1    3    3    0  502  0.21300230432E+02 -0.60247345756E+01  0.24339251978E+02  0.33164270383E+02  0.41800000000E+01 0.  1.
        -11    1    1    2    0    0 -0.14625145826E+02 -0.29617002553E+02 -0.53665364578E+02  0.63016133537E+02  0.00000000000E+00 0.  1.
         11    1    1    2    0    0 -0.16105555491E+02  0.27939755481E+02  0.21073044585E+02  0.38523915457E+02  0.00000000000E+00 0. -1.
</event>
<event>
 6    1  0.2728221E-009  0.1315198E+03  0.7561462E-02  0.1225218E+00
         -1   -1    0    0    0  501 -0.00000000000E+00  0.00000000000E+00  0.72991648924E+02  0.72991648924E+02  0.00000000000E+00 0.  1.
          1   -1    0    0  501    0  0.00000000000E+00 -0.00000000000E+00 -0.33140473401E+03  0.33140473401E+03  0.00000000000E+00 0. -1.
          5    1    1    2  502    0  0.23026239912E+02 -0.36281673356E+02 -0.12396053482E+03  0.13126406263E+03  0.41800000000E+01 0. -1.
         -5    1    1    2    0  502  0.84952823457E+02  0.81950063089E+01 -0.15920984945E+02  0.86920023604E+02  0.41800000000E+01 0. -1.
        -11    1    1    2    0    0 -0.20672061873E+02  0.41232692369E+02 -0.74321594266E+02  0.87470957674E+02  0.00000000000E+00 0.  1.
         11    1    1    2    0    0 -0.87307001496E+02 -0.13146025322E+02 -0.44209971058E+02  0.98741339028E+02  0.00000000000E+00 0. -1.
</event>
<event>
 7    1  0.2728221E-009  0.1316028E+03  0.7561462E-02  0.1225097E+00
         -1   -1    0    0    0  501 -0.00000000000E+00  0.00000000000E+00  0.15438199648E+03  0.15438199648E+03  0.00000000000E+00 0.  1.
          1   -1    0    0  501    0  0.00000000000E+00 -0.00000000000E+00 -0.14663513247E+03  0.14663513247E+03  0.00000000000E+00 0. -1.
         25    2    1    2    0    0  0.39441333220E+02  0.94452965491E+02 -0.15567388729E+02  0.16237826175E+03  0.12508946734E+03 0.  0.
          5    1    3    3  502    0 -0.19211234972E+02 -0.10054546074E+02 -0.34516672678E+02  0.40976072758E+02  0.41800000000E+01 0.  1.
         -5    1    3    3    0  502  0.58652568192E+02  0.10450751157E+03  0.18949283949E+02  0.12140218899E+03  0.41800000000E+01 0.  1.
        -11    1    1    2    0    0  0.17957651737E+02 -0.29426894292E+02  0.37291346258E+02  0.50784484533E+02  0.00000000000E+00 0.  1.
         11    1    1    2    0    0 -0.57398984958E+02 -0.65026071199E+02 -0.13977093520E+02  0.87854382663E+02  0.00000000000E+00 0. -1.
</event>
<event>
 7    1  0.2728221E-009  0.1238203E+03  0.7561462E-02  0.1236925E+00
         -2   -1    0    0    0  501 -0.00000000000E+00  0.00000000000E+00  0.20369579658E+02  0.20369579658E+02  0.00000000000E+00 0.  1.
          2   -1    0    0  501    0  0.00000000000E+00 -0.00000000000E+00 -0.10825308919E+04  0.10825308919E+04  0.00000000000E+00 0. -1.
         25    2    1    2    0    0  0.38831114663E+02  0.56483623817E+02 -0.61737677484E+03  0.63363935260E+03  0.12508593775E+03 0.  0.
          5    1    3    3  502    0  0.40519553526E+02 -0.31960619295E+02 -0.17562253130E+03  0.18309577085E+03  0.41800000000E+01 0. -1.
         -5    1    3    3    0  502 -0.16884388637E+01  0.88444243112E+02 -0.44175424354E+03  0.45054358175E+03  0.41800000000E+01 0. -1.
        -11    1    1    2    0    0 -0.10101298890E+02 -0.73315277246E+02 -0.42310346421E+03  0.42952730710E+03  0.00000000000E+00 0. -1.
         11    1    1    2    0    0 -0.28729815773E+02  0.16831653429E+02 -0.21681073222E+02  0.39733811893E+02  0.00000000000E+00 0.  1.
</event>
<event>
 7    1  0.2728221E-009  0.1344417E+03  0.7561462E-02  0.1221010E+00
         -2   -1    0    0    0  501 -0.00000000000E+00  0.00000000000E+00  0.21629416491E+03  0.21629416491E+03  0.00000000000E+00 0.  1.
          2   -1    0    0  501    0  0.00000000000E+00 -0.00000000000E+00 -0.86984184054E+02  0.86984184054E+02  0.00000000000E+00 0. -1.
         25    2    1    2    0    0 -0.12511527399E+02  0.82846310343E+02  0.61044906618E+02  0.16246220065E+03  0.12508971404E+03 0.  0.
          5    1    3    3  502    0 -0.23791665499E+02  0.11194164520E+03  0.63387727694E+02  0.13089099167E+03  0.41800000000E+01 0.  1.
         -5    1    3    3    0  502  0.11280138100E+02 -0.29095334855E+02 -0.23428210763E+01  0.31571208980E+02  0.41800000000E+01 0.  1.
        -11    1    1    2    0    0  0.48729149901E+02 -0.25350769112E+02  0.25796986963E+02  0.60685056489E+02  0.00000000000E+00 0. -1.
         11    1    1    2    0    0 -0.36217622502E+02 -0.57495541231E+02  0.42468087276E+02  0.80131091831E+02  0.00000000000E+00 0.  1.
</event>
<event>
 7    1  0.2728221E-009  0.1344676E+03  0.7561462E-02  0.1220973E+00
         -1   -1    0    0    0  501 -0.00000000000E+00  0.00000000000E+00  0.38065431140E+02  0.38065431140E+02  0.00000000000E+00 0.  1.
          1   -1    0    0  501    0  0.00000000000E+00 -0.00000000000E+00 -0.60596127385E+03  0.60596127385E+03  0.00000000000E+00 0. -1.
         25    2    1    2    0    0 -0.12335633824E+02 -0.97790994183E+02 -0.38647046851E+03  0.41799665977E+03  0.12508612291E+03 0.  0.
          5    1    3    3  502    0 -0.53774749484E+02 -0.10258346211E+03 -0.25743515319E+03  0.28232148497E+03  0.41800000000E+01 0.  1.
         -5    1    3    3    0  502  0.41439115660E+02  0.47924679303E+01 -0.12903531533E+03  0.13567517480E+03  0.41800000000E+01 0.  1.
        -11    1    1    2    0    0  0.32487347101E+02  0.63843570645E+02 -0.46392409798E+02  0.85344507271E+02  0.00000000000E+00 0.  1.
         11    1    1    2    0    0 -0.20151713277E+02  0.33947423538E+02 -0.13503296440E+03  0.14068553795E+03  0.00000000000E+00 0. -1.
</event>
<event>
 7    1  0.2728221E-009  0.1277999E+03  0.7561462E-02  0.1230757E+00
         -1   -1    0    0    0  501 -0.00000000000E+00  0.00000000000E+00  0.53884069905E+03  0.53884069905E+03  0.00000000000E+00 0.  1.
          1   -1    0    0  501    0  0.00000000000E+00 -0.00000000000E+00 -0.42070001243E+02  0.42070001243E+02  0.00000000000E+00 0. -1.
         25    2    1    2    0    0 -0.49070421883E+02 -0.90582448490E+02  0.23954179622E+03  0.28920743091E+03  0.12509028612E+03 0.  0.
          5    1    3    3  502    0 -0.42998557420E+02  0.73874936987E+01  0.18995383098E+02  0.47767645770E+02  0.41800000000E+01 0. -1.
         -5    1    3    3    0  502 -0.60718644635E+01 -0.97969942189E+02  0.22054641312E+03  0.24143978514E+03  0.41800000000E+01 0. -1.
        -11    1    1    2    0    0 -0.21453695192E+01  0.44732674787E+02  0.29016028043E+02  0.53362390195E+02  0.00000000000E+00 0. -1.
         11    1    1    2    0    0  0.51215791402E+02  0.45849773704E+02  0.22821287355E+03  0.23834087919E+03  0.00000000000E+00 0.  1.
</event>
<event>
 7    1  0.2746772E-009  0.1035972E+03  0.7561462E-02  0.1272908E+00
         -2   -1    0    0    0  501 -0.00000000000E+00  0.00000000000E+00  0.61499038045E+02  0.61499038045E+02  0.00000000000E+00 0.  1.
          2   -1    0    0  501    0  0.00000000000E+00 -0.00000000000E+00 -0.28191923880E+03  0.28191923880E+03  0.00000000000E+00 0. -1.
         25    2    1    2    0    0  0.62770247102E+02 -0.15800308344E+02 -0.17034658325E+03  0.22103090108E+03  0.12508775776E+03 0.  0.
          5    1    3    3  502    0  0.92603852908E+02  0.13342432915E+01 -0.15990349547E+03  0.18483466678E+03  0.41800000000E+01 0.  1.
         -5    1    3    3    0  502 -0.29833605806E+02 -0.17134551636E+02 -0.10443087775E+02  0.36196234299E+02  0.41800000000E+01 0.  1.
        -11    1    1    2    0    0 -0.58253195452E+02 -0.50724801469E+01  0.93739343436E+01  0.59220228641E+02  0.00000000000E+00 0.  1.
         11    1    1    2    0    0 -0.45170516496E+01  0.20872788491E+02 -0.59447551849E+02  0.63167147125E+02  0.00000000000E+00 0. -1.
</event>
<event>
 7    1  0.2728221E-009  0.1078344E+03  0.7561462E-02  0.1264634E+00
         -1   -1    0    0    0  501 -0.00000000000E+00  0.00000000000E+00  0.15650549801E+02  0.15650549801E+02  0.00000000000E+00 0.  1.
          1   -1    0    0  501    0  0.00000000000E+00 -0.00000000000E+00 -0.90375386779E+03  0.90375386779E+03  0.00000000000E+00 0. -1.
         25    2    1    2    0    0 -0.28348131867E+02  0.37296208814E+02 -0.53987691450E+03  0.55615563373E+03  0.12508949737E+03 0.  0.
          5    1    3    3  502    0 -0.63058289835E+02  0.46773999937E+02 -0.20895771379E+03  0.22325983414E+03  0.41800000000E+01 0.  1.
         -5    1    3    3    0  502  0.34710157967E+02 -0.94777911233E+01 -0.33091920071E+03  0.33289579960E+03  0.41800000000E+01 0.  1.
        -11    1    1    2    0    0  0.21322116544E+02 -0.66993854007E+02 -0.27653958593E+03  0.28533655867E+03  0.00000000000E+00 0. -1.
         11    1    1    2    0    0  0.70260153237E+01  0.29697645193E+02 -0.71686817561E+02  0.77912225185E+02  0.00000000000E+00 0.  1.
</event>
<event>
 7    1  0.2728221E-009  0.7814199E+02  0.7561462E-02  0.1334408E+00
          1   -1    0    0  501    0  0.00000000000E+00  0.00000000000E+00  0.64105126262E+03  0.64105126262E+03  0.00000000000E+00 0. -1.
         -1   -1    0    0    0  501 -0.00000000000E+00 -0.00000000000E+00 -0.24619780342E+02  0.24619780342E+02  0.00000000000E+00 0.  1.
         25    2    1    2    0    0  0.48903222340E+02  0.33569880988E+02  0.32734917715E+03  0.35541511006E+03  0.12507579548E+03 0.  0.
          5    1    3    3  502    0  0.39709635414E+02  0.11213348633E+02  0.18195335889E+02  0.45289479798E+02  0.41800000000E+01 0.  1.
         -5    1    3    3    0  502  0.91935869261E+01  0.22356532355E+02  0.30915384126E+03  0.31012563026E+03  0.41800000000E+01 0.  1.
        -11    1    1    2    0    0 -0.10003893824E+02  0.21001322667E+02  0.14048852149E+02  0.27175424415E+02  0.00000000000E+00 0.  1.
         11    1    1    2    0    0 -0.38899328516E+02 -0.54571203656E+02  0.27503345298E+03  0.28308050849E+03  0.00000000000E+00 0. -1.
</event>
<event>
 7    1  0.2728221E-009  0.1458809E+03  0.7561462E-02  0.1205628E+00
         -3   -1    0    0    0  501 -0.00000000000E+00  0.00000000000E+00  0.12678029925E+04  0.12678029925E+04  0.00000000000E+00 0.  1.
          3   -1    0    0  501    0  0.00000000000E+00 -0.00000000000E+00 -0.21563882782E+02  0.21563882782E+02  0.00000000000E+00 0. -1.
         25    2    1    2    0    0 -0.11129993288E+03 -0.38209735662E+02  0.82196210192E+03  0.83971224562E+03  0.12508916614E+03 0.  0.
          5    1    3    3  502    0 -0.13806222616E+03 -0.21194447026E+02  0.66509615390E+03  0.67961809070E+03  0.41800000000E+01 0. -1.
         -5    1    3    3    0  502  0.26762293282E+02 -0.17015288636E+02  0.15686594802E+03  0.16009415492E+03  0.41800000000E+01 0. -1.
        -11    1    1    2    0    0  0.98534998605E+02  0.41392885258E+02  0.42316384966E+03  0.43645178492E+03  0.00000000000E+00 0.  1.
         11    1    1    2    0    0  0.12764934278E+02 -0.31831495960E+01  0.11131581419E+01  0.13202844751E+02  0.00000000000E+00 0. -1.
</event>
<event>
 7    1  0.2728221E-009  0.7808675E+02  0.7561462E-02  0.1334570E+00
         -1   -1    0    0    0  501 -0.00000000000E+00  0.00000000000E+00  0.34139908493E+03  0.34139908493E+03  0.00000000000E+00 0.  1.
          1   -1    0    0  501    0  0.00000000000E+00 -0.00000000000E+00 -0.38507436153E+02  0.38507436153E+02  0.00000000000E+00 0. -1.
         25    2    1    2    0    0 -0.33145023674E+02 -0.55039568658E+01  0.20353067181E+03  0.24124756217E+03  0.12508703270E+03 0.  0.
          5    1    3    3  502    0  0.15198835752E+02  0.19751470995E+02  0.17988717160E+03  0.18165349465E+03  0.41800000000E+01 0. -1.
         -5    1    3    3    0  502 -0.48343859426E+02 -0.25255427861E+02  0.23643500213E+02  0.59594067515E+02  0.41800000000E+01 0. -1.
        -11    1    1    2    0    0 -0.17483357468E+02  0.16887448613E+02  0.79437586173E+02  0.83073363998E+02  0.00000000000E+00 0.  1.
         11    1    1    2    0    0  0.50628381142E+02 -0.11383491748E+02  0.19923390794E+02  0.55585594916E+02  0.00000000000E+00 0. -1.
</event>
<event>
 7    1  0.2728221E-009  0.1027405E+03  0.7561462E-02  0.1274636E+00
         -1   -1    0    0    0  501 -0.00000000000E+00  0.00000000000E+00  0.13448632648E+03  0.13448632648E+03  0.00000000000E+00 0.  1.
          1   -1    0    0  501    0  0.00000000000E+00 -0.00000000000E+00 -0.14007301011E+03  0.14007301011E+03  0.00000000000E+00 0. -1.
         25    2    1    2    0    0  0.40267791473E+02 -0.71913333751E+02  0.11824625314E+02  0.15026645818E+03  0.12508862494E+03 0.  0.
          5    1    3    3  502    0  0.22865483050E+00 -0.58683334406E+02 -0.48705878224E+02  0.76377490098E+02  0.41800000000E+01 0. -1.
         -5    1    3    3    0  502  0.40039136643E+02 -0.13229999344E+02  0.60530503538E+02  0.73888968083E+02  0.41800000000E+01 0. -1.
        -11    1    1    2    0    0 -0.56812298590E+02  0.44133146278E+02  0.20172337556E+02  0.74714758073E+02  0.00000000000E+00 0.  1.
         11    1    1    2    0    0  0.16544507117E+02  0.27780187473E+02 -0.37583646505E+02  0.49578120340E+02  0.00000000000E+00 0. -1.
</event>
<event>
 7    1  0.2728221E-009  0.9155215E+02  0.7561462E-02  0.1299136E+00
          1   -1    0    0  501    0  0.00000000000E+00  0.00000000000E+00  0.53025906914E+03  0.53025906914E+03  0.00000000000E+00 0. -1.
         -1   -1    0    0    0  501 -0.00000000000E+00 -0.00000000000E+00 -0.25423624610E+02  0.25423624610E+02  0.00000000000E+00 0.  1.
         25    2    1    2    0    0 -0.50904418948E+00 -0.17365352729E+02  0.18814654777E+03  0.22660188084E+03  0.12508986513E+03 0.  0.
          5    1    3    3  502    0  0.32695778887E+02  0.30226995875E+02  0.15121233721E+03  0.15768743945E+03  0.41800000000E+01 0. -1.
         -5    1    3    3    0  502 -0.33204823076E+02 -0.47592348603E+02  0.36934210563E+02  0.68914441382E+02  0.41800000000E+01 0. -1.
        -11    1    1    2    0    0  0.27905406799E+02 -0.19663898376E+02  0.67183349830E+02  0.75359028141E+02  0.00000000000E+00 0.  1.
         11    1    1    2    0    0 -0.27396362610E+02  0.37029251104E+02  0.24950554693E+03  0.25372178478E+03  0.00000000000E+00 0. -1.
</event>
<event>
 7    1  0.2728221E-009  0.1064820E+03  0.7561462E-02  0.1267227E+00
          1   -1    0    0  501    0  0.00000000000E+00  0.00000000000E+00  0.10213654948E+03  0.10213654948E+03  0.00000000000E+00 0. -1.
         -1   -1    0    0    0  501 -0.00000000000E+00 -0.00000000000E+00 -0.14247149549E+03  0.14247149549E+03  0.00000000000E+00 0.  1.
         25    2    1    2    0    0 -0.29564196383E+02 -0.30442224123E+02 -0.49814447837E+02  0.14117848937E+03  0.12509642652E+03 0.  0.
          5    1    3    3  502    0  0.28988159403E+02 -0.45884654665E+02  0.10689995514E+02  0.55474889124E+02  0.41800000000E+01 0. -1.
         -5    1    3    3    0  502 -0.58552355786E+02  0.15442430542E+02 -0.60504443351E+02  0.85703600241E+02  0.41800000000E+01 0. -1.
        -11    1    1    2    0    0  0.42399554441E+01 -0.31044435061E+02 -0.11995508692E+02  0.33550356171E+02  0.00000000000E+00 0. -1.
         11    1    1    2    0    0  0.25324240939E+02  0.61486659184E+02  0.21475010521E+02  0.69879199434E+02  0.00000000000E+00 0.  1.
</event>
<event>
 7    1  0.2728221E-009  0.1176900E+03  0.7561462E-02  0.1246957E+00
          3   -1    0    0  501    0  0.00000000000E+00  0.00000000000E+00  0.40488940176E+02  0.40488940176E+02  0.00000000000E+00 0. -1.
         -3   -1    0    0    0  501 -0.00000000000E+00 -0.00000000000E+00 -0.44646694764E+03  0.44646694764E+03  0.00000000000E+00 0.  1.
         25    2    1    2    0    0 -0.45753155722E+02  0.69155392437E+02 -0.22000390149E+03  0.26631521184E+03  0.12508499441E+03 0.  0.
          5    1    3    3  502    0 -0.21602460178E+02  0.10452167973E+03 -0.16338059303E+03  0.19519769056E+03  0.41800000000E+01 0. -1.
         -5    1    3    3    0  502 -0.24150695544E+02 -0.35366287298E+02 -0.56623308462E+02  0.71117521284E+02  0.41800000000E+01 0. -1.
        -11    1    1    2    0    0  0.32261063836E+02 -0.62848702523E+02 -0.19199253209E+03  0.20457729108E+03  0.00000000000E+00 0.  1.
         11    1    1    2    0    0  0.13492091886E+02 -0.63066899133E+01  0.60184261190E+01  0.16063384888E+02  0.00000000000E+00 0. -1.
</event>
<event>
 7    1  0.2728221E-009  0.9280526E+02  0.7561462E-02  0.1296197E+00
          1   -1    0    0  501    0  0.00000000000E+00  0.00000000000E+00  0.61417094957E+02  0.61417094957E+02  0.00000000000E+00 0. -1.
         -1   -1    0    0    0  501 -0.00000000000E+00 -0.00000000000E+00 -0.29667876283E+03  0.29667876283E+03  0.00000000000E+00 0.  1.
         25    2    1    2    0    0 -0.52881517744E+02 -0.60571854336E+02 -0.13497889376E+03  0.20082495731E+03  0.12508380096E+03 0.  0.
          5    1    3    3  502    0 -0.30372834087E+02 -0.42700269542E+02  0.95321610758E+01  0.53424306867E+02  0.41800000000E+01 0. -1.
         -5    1    3    3    0  502 -0.22508683657E+02 -0.17871584793E+02 -0.14451105483E+03  0.14740065045E+03  0.41800000000E+01 0. -1.
        -11    1    1    2    0    0  0.31179462155E+02  0.72725021443E+02 -0.10548025003E+03  0.13186042147E+03  0.00000000000E+00 0.  1.
         11    1    1    2    0    0  0.21702055590E+02 -0.12153167107E+02  0.51974759090E+01  0.25410479007E+02  0.00000000000E+00 0. -1.
</event>
<event>
 7    1  0.2728221E-009  0.1143396E+03  0.7561462E-02  0.1252738E+00
          1   -1    0    0  501    0  0.00000000000E+00  0.00000000000E+00  0.50872631437E+03  0.50872631437E+03  0.00000000000E+00 0. -1.
         -1   -1    0    0    0  501 -0.00000000000E+00 -0.00000000000E+00 -0.29819284100E+02  0.29819284100E+02  0.00000000000E+00 0.  1.
         25    2    1    2    0    0  0.55400015729E+02 -0.10969113594E+02  0.22381501762E+03  0.26254335415E+03  0.12508544080E+03 0.  0.
          5    1    3    3  502    0  0.67595553398E+02 -0.52317768437E+02  0.10136940342E+03  0.13266324315E+03  0.41800000000E+01 0. -1.
         -5    1    3    3    0  502 -0.12195537669E+02  0.41348654843E+02  0.12244561420E+03  0.12988011100E+03  0.41800000000E+01 0. -1.
        -11    1    1    2    0    0 -0.97888805111E+01 -0.34213714233E+02  0.52055115796E+02  0.63056605552E+02  0.00000000000E+00 0.  1.
         11    1    1    2    0    0 -0.45611135218E+02  0.45182827827E+02  0.20303689685E+03  0.21294563877E+03  0.00000000000E+00 0. -1.
</event>
<event>
 7    1  0.2728221E-009  0.1868258E+03  0.7561462E-02  0.1161356E+00
         -1   -1    0    0    0  501 -0.00000000000E+00  0.00000000000E+00  0.25741737294E+03  0.25741737294E+03  0.00000000000E+00 0.  1.
          1   -1    0    0  501    0  0.00000000000E+00 -0.00000000000E+00 -0.16860733177E+03  0.16860733177E+03  0.00000000000E+00 0. -1.
         25    2    1    2    0    0  0.10405992350E+01  0.17348102356E+03  0.89252529922E+01  0.21406508233E+03  0.12508977156E+03 0.  0.
          5    1    3    3  502    0 -0.11834714456E+02  0.17655644613E+03  0.38726747211E+02  0.18118905178E+03  0.41800000000E+01 0.  1.
         -5    1    3    3    0  502  0.12875313691E+02 -0.30754225737E+01 -0.29801494218E+02  0.32876030544E+02  0.41800000000E+01 0.  1.
        -11    1    1    2    0    0 -0.26536952359E+02 -0.12710050807E+03  0.18897917391E+02  0.13120929949E+03  0.00000000000E+00 0. -1.
         11    1    1    2    0    0  0.25496353124E+02 -0.46380515492E+02  0.60986870788E+02  0.80750322899E+02  0.00000000000E+00 0.  1.
</event>
<event>
 7    1  0.2728221E-009  0.9694148E+02  0.7561462E-02  0.1286862E+00
          1   -1    0    0  501    0  0.00000000000E+00  0.00000000000E+00  0.91526731417E+02  0.91526731417E+02  0.00000000000E+00 0. -1.
         -1   -1    0    0    0  501 -0.00000000000E+00 -0.00000000000E+00 -0.23475131912E+03  0.23475131912E+03  0.00000000000E+00 0.  1.
         25    2    1    2    0    0 -0.37266023940E+02  0.49615661775E+02 -0.16820693190E+03  0.21861195738E+03  0.12508855079E+03 0.  0.
          5    1    3    3  502    0 -0.59860308690E+02  0.32445859521E+02 -0.17610900780E+03  0.18885932697E+03  0.41800000000E+01 0.  1.
         -5    1    3    3    0  502  0.22594284750E+02  0.17169802254E+02  0.79020758995E+01  0.29752630410E+02  0.41800000000E+01 0.  1.
        -11    1    1    2    0    0  0.32403084029E+02  0.12460432767E+02 -0.10153331382E+02  0.36170601011E+02  0.00000000000E+00 0.  1.
         11    1    1    2    0    0  0.48629399102E+01 -0.62076094542E+02  0.35135675580E+02  0.71495492142E+02  0.00000000000E+00 0. -1.
</event>
<event>
 7    1  0.2728221E-009  0.9653771E+02  0.7561462E-02  0.1287750E+00
         -2   -1    0    0    0  501 -0.00000000000E+00  0.00000000000E+00  0.10516687463E+03  0.10516687463E+03  0.00000000000E+00 0. -1.
          2   -1    0    0  501    0  0.00000000000E+00 -0.00000000000E+00 -0.13671634362E+03  0.13671634362E+03  0.00000000000E+00 0.  1.
         25    2    1    2    0    0  0.40352237755E+02 -0.28258320195E+02 -0.26889226852E+02  0.13708311087E+03  0.12506763376E+03 0.  0.
          5    1    3    3  502    0  0.75583790311E+02 -0.38457155010E+02  0.92655486143E+01  0.85411854683E+02  0.41800000000E+01 0. -1.
         -5    1    3    3    0  502 -0.35231552556E+02  0.10198834816E+02 -0.36154775466E+02  0.51671256188E+02  0.41800000000E+01 0. -1.
        -11    1    1    2    0    0 -0.37035435735E+02 -0.54033162905E+01  0.35985704874E+02  0.51921000398E+02  0.00000000000E+00 0. -1.
         11    1    1    2    0    0 -0.33168020202E+01  0.33661636485E+02 -0.40645947016E+02  0.52879106983E+02  0.00000000000E+00 0.  1.
</event>
<event>
 7    1  0.2728221E-009  0.1363726E+03  0.7561462E-02  0.1218295E+00
         -1   -1    0    0    0  501 -0.00000000000E+00  0.00000000000E+00  0.73411612909E+02  0.73411612909E+02  0.00000000000E+00 0.  1.
          1   -1    0    0  501    0  0.00000000000E+00 -0.00000000000E+00 -0.33732477858E+03  0.33732477858E+03  0.00000000000E+00 0. -1.
         25    2    1    2    0    0  0.80723079494E+01 -0.80101044864E+02 -0.44016260640E+02  0.15513077531E+03  0.12508711645E+03 0.  0.
          5    1    3    3  502    0  0.63206123504E+02 -0.43279608398E+02 -0.44517080617E+02  0.88698260514E+02  0.41800000000E+01 0.  1.
         -5    1    3    3    0  502 -0.55133815554E+02 -0.36821436466E+02  0.50081997749E+00  0.66432514793E+02  0.41800000000E+01 0.  1.
        -11    1    1    2    0    0  0.46716459468E+02  0.42410899039E+02 -0.93783071799E+02  0.11303263466E+03  0.00000000000E+00 0.  1.
         11    1    1    2    0    0 -0.54788767418E+02  0.37690145824E+02 -0.12611383323E+03  0.14257298152E+03  0.00000000000E+00 0. -1.
</event>
<event>
 7    1  0.2728221E-009  0.6770778E+02  0.7561462E-02  0.1368066E+00
          1   -1    0    0  501    0  0.00000000000E+00  0.00000000000E+00  0.35321698958E+02  0.35321698958E+02  0.00000000000E+00 0. -1.
         -1   -1    0    0    0  501 -0.00000000000E+00 -0.00000000000E+00 -0.34624292213E+03  0.34624292213E+03  0.00000000000E+00 0.  1.
         25    2    1    2    0    0 -0.77298815426E+01  0.15748495171E+01 -0.18718955647E+03  0.22527739165E+03  0.12509093458E+03 0.  0.
          5    1    3    3  502    0 -0.15010971887E+02  0.16601228695E+02 -0.20156767678E+03  0.20284952747E+03  0.41800000000E+01 0. -1.
         -5    1    3    3    0  502  0.72810903442E+01 -0.15026379178E+02  0.14378120310E+02  0.22427864175E+02  0.41800000000E+01 0. -1.
        -11    1    1    2    0    0 -0.45849325486E+01 -0.47584629340E+02 -0.64359770330E+02  0.80171681988E+02  0.00000000000E+00 0.  1.
         11    1    1    2    0    0  0.12314814091E+02  0.46009779823E+02 -0.59371896364E+02  0.76115547448E+02  0.00000000000E+00 0. -1.
</event>
<event>
 7    1  0.2728221E-009  0.3771717E+03  0.7561462E-02  0.1051984E+00
         -2   -1    0    0    0  501 -0.00000000000E+00  0.00000000000E+00  0.11077973085E+03  0.11077973085E+03  0.00000000000E+00 0.  1.
          2   -1    0    0  501    0  0.00000000000E+00 -0.00000000000E+00 -0.15403059984E+04  0.15403059984E+04  0.00000000000E+00 0. -1.
         25    2    1    2    0    0  0.35945609641E+03 -0.49219386111E+02 -0.39408615917E+03  0.55007500619E+03  0.12508948148E+03 0.  0.
          5    1    3    3  502    0  0.62341561246E+02 -0.59595693339E+02 -0.93940832538E+02  0.12759494246E+03  0.41800000000E+01 0.  1.
         -5    1    3    3    0  502  0.29711453516E+03  0.10376307228E+02 -0.30014532663E+03  0.42248006373E+03  0.41800000000E+01 0.  1.
        -11    1    1    2    0    0 -0.22955070425E+03 -0.57329236389E+01 -0.56493162167E+03  0.60981483206E+03  0.00000000000E+00 0.  1.
         11    1    1    2    0    0 -0.12990539216E+03  0.54952309750E+02 -0.47050848669E+03  0.49119589097E+03  0.00000000000E+00 0. -1.
</event>
<event>
 7    1  0.3403708E-009  0.9045958E+02  0.7561462E-02  0.1301743E+00
          2   -1    0    0  501    0  0.00000000000E+00  0.00000000000E+00  0.89949259095E+02  0.89949259095E+02  0.00000000000E+00 0. -1.
         -2   -1    0    0    0  501 -0.00000000000E+00 -0.00000000000E+00 -0.18965445190E+03  0.18965445190E+03  0.00000000000E+00 0.  1.
         25    2    1    2    0    0  0.24898940906E+02 -0.25097969499E+02 -0.12249764936E+03  0.17861450701E+03  0.12509037806E+03 0.  0.
          5    1    3    3  502    0 -0.18871692668E+02  0.40913742708E+02 -0.21228461820E+02  0.49981947919E+02  0.41800000000E+01 0. -1.
         -5    1    3    3    0  502  0.43770633574E+02 -0.66011712208E+02 -0.10126918754E+03  0.12863255909E+03  0.41800000000E+01 0. -1.
        -11    1    1    2    0    0 -0.31909253637E+02  0.32922530651E+02 -0.24885959292E+02  0.52167082169E+02  0.00000000000E+00 0.  1.
         11    1    1    2    0    0  0.70103127306E+01 -0.78245611519E+01  0.47678415845E+02  0.48822121823E+02  0.00000000000E+00 0. -1.
</event>
<event>
 7    1  0.2728221E-009  0.1528724E+03  0.7561462E-02  0.1196987E+00
          2   -1    0    0  501    0  0.00000000000E+00  0.00000000000E+00  0.21263903190E+04  0.21263903190E+04  0.00000000000E+00 0. -1.
         -2   -1    0    0    0  501 -0.00000000000E+00 -0.00000000000E+00 -0.25853926842E+02  0.25853926842E+02  0.00000000000E+00 0.  1.
         25    2    1    2    0    0  0.16002964446E+02 -0.12427886245E+03  0.18444379822E+04  0.18529164422E+04  0.12508613480E+03 0.  0.
          5    1    3    3  502    0  0.55481062785E+02 -0.13579642715E+02  0.74808632839E+03  0.75027540420E+03  0.41800000000E+01 0. -1.
         -5    1    3    3    0  502 -0.39478098339E+02 -0.11069921974E+03  0.10963516538E+04  0.11026410380E+04  0.41800000000E+01 0. -1.
        -11    1    1    2    0    0  0.74886358544E+01  0.83302375581E+02  0.23134938587E+03  0.24600386945E+03  0.00000000000E+00 0. -1.
         11    1    1    2    0    0 -0.23491600301E+02  0.40976486872E+02  0.24749024063E+02  0.53323934149E+02  0.00000000000E+00 0.  1.
</event>
<event>
 7    1  0.2728221E-009  0.1483122E+03  0.7561462E-02  0.1202562E+00
         -2   -1    0    0    0  501 -0.00000000000E+00  0.00000000000E+00  0.18688818370E+02  0.18688818370E+02  0.00000000000E+00 0. -1.
          2   -1    0    0  501    0  0.00000000000E+00 -0.00000000000E+00 -0.19643826018E+04  0.19643826018E+04  0.00000000000E+00 0.  1.
         25    2    1    2    0    0  0.21125811919E+02  0.88377770806E+02 -0.15963781547E+04  0.16038477046E+04  0.12508923332E+03 0.  0.
          5    1    3    3  502    0 -0.34132794960E+02 -0.10275733099E+02 -0.59839678507E+03  0.59947212042E+03  0.41800000000E+01 0.  1.
         -5    1    3    3    0  502  0.55258606879E+02  0.98653503904E+02 -0.99798136963E+03  0.10043755841E+04  0.41800000000E+01 0.  1.
        -11    1    1    2    0    0  0.28876040917E+02  0.15151593939E+02 -0.80405243815E+02  0.86766351605E+02  0.00000000000E+00 0.  1.
         11    1    1    2    0    0 -0.50001852836E+02 -0.10352936474E+03 -0.26891038494E+03  0.29245736403E+03  0.00000000000E+00 0. -1.
</event>
<event>
 7    1  0.2728221E-009  0.2735216E+03  0.7561462E-02  0.1099281E+00
         -3   -1    0    0    0  501 -0.00000000000E+00  0.00000000000E+00  0.17037185317E+03  0.17037185317E+03  0.00000000000E+00 0.  1.
          3   -1    0    0  501    0  0.00000000000E+00 -0.00000000000E+00 -0.54089498982E+03  0.54089498982E+03  0.00000000000E+00 0. -1.
         25    2    1    2    0    0  0.20105754140E+03  0.16153445975E+03 -0.47966848620E+02  0.29063127797E+03  0.12509278369E+03 0.  0.
          5    1    3    3  502    0  0.48976714558E+02 -0.17019766934E+02 -0.66617468159E+01  0.52442752655E+02  0.41800000000E+01 0. -1.
         -5    1    3    3    0  502  0.15208082684E+03  0.17855422668E+03 -0.41305101804E+02  0.23818852532E+03  0.41800000000E+01 0. -1.
        -11    1    1    2    0    0 -0.11701261979E+03 -0.11639969439E+03 -0.14787807717E+03  0.22160498133E+03  0.00000000000E+00 0.  1.
         11    1    1    2    0    0 -0.84044921613E+02 -0.45134765361E+02 -0.17467821086E+03  0.19903058369E+03  0.00000000000E+00 0. -1.
</event>
<event>
 7    1  0.2728221E-009  0.1514739E+03  0.7561462E-02  0.1198674E+00
         -1   -1    0    0    0  501 -0.00000000000E+00  0.00000000000E+00  0.12100583613E+03  0.12100583613E+03  0.00000000000E+00 0.  1.
          1   -1    0    0  501    0  0.00000000000E+00 -0.00000000000E+00 -0.22796179686E+03  0.22796179686E+03  0.00000000000E+00 0. -1.
         25    2    1    2    0    0 -0.12192955254E+03  0.17427100829E+02 -0.30199055153E+02  0.17812993791E+03  0.12509105571E+03 0.  0.
          5    1    3    3  502    0  0.16648667835E+02 -0.23812008553E+02 -0.14184292139E+02  0.32601479038E+02  0.41800000000E+01 0.  1.
         -5    1    3    3    0  502 -0.13857822038E+03  0.41239109382E+02 -0.16014763015E+02  0.14552845887E+03  0.41800000000E+01 0.  1.
        -11    1    1    2    0    0  0.11241119440E+03 -0.39895852681E+01 -0.94296892678E+02  0.14677907680E+03  0.00000000000E+00 0. -1.
         11    1    1    2    0    0  0.95183581430E+01 -0.13437515561E+02  0.17539987099E+02  0.24058618282E+02  0.00000000000E+00 0.  1.
</event>
<event>
 7    1  0.2728221E-009  0.4848465E+02  0.7561462E-02  0.1453691E+00
         -3   -1    0    0    0  501 -0.00000000000E+00  0.00000000000E+00  0.83567506775E+02  0.83567506775E+02  0.00000000000E+00 0.  1.
          3   -1    0    0  501    0  0.00000000000E+00 -0.00000000000E+00 -0.17388024209E+03  0.17388024209E+03  0.00000000000E+00 0. -1.
         25    2    1    2    0    0  0.69039322117E+01  0.13377675629E+00 -0.11015139151E+03  0.16682175582E+03  0.12509391266E+03 0.  0.
          5    1    3    3  502    0  0.24300013100E+02  0.41902402705E+01 -0.13423598915E+03  0.13654604327E+03  0.41800000000E+01 0.  1.
         -5    1    3    3    0  502 -0.17396080888E+02 -0.40564635142E+01  0.24084597638E+02  0.30275712542E+02  0.41800000000E+01 0.  1.
        -11    1    1    2    0    0  0.22408868378E+02  0.69407146411E+01  0.45395186154E+02  0.51098471873E+02  0.00000000000E+00 0.  1.
         11    1    1    2    0    0 -0.29312800590E+02 -0.70744913974E+01 -0.25556529952E+02  0.39527521174E+02  0.00000000000E+00 0. -1.
</event>
<event>
 7    1  0.2728221E-009  0.1191068E+03  0.7561462E-02  0.1244578E+00
         -2   -1    0    0    0  501 -0.00000000000E+00  0.00000000000E+00  0.40486280138E+02  0.40486280138E+02  0.00000000000E+00 0.  1.
          2   -1    0    0  501    0  0.00000000000E+00 -0.00000000000E+00 -0.58548612057E+03  0.58548612057E+03  0.00000000000E+00 0. -1.
         25    2    1    2    0    0  0.76750868631E+02  0.72205417685E+02 -0.35316592485E+03  0.38920291301E+03  0.12509364032E+03 0.  0.
          5    1    3    3  502    0  0.17221867439E+01  0.49708235242E+01 -0.22968250165E+03  0.22978076285E+03  0.41800000000E+01 0. -1.
         -5    1    3    3    0  502  0.75028681887E+02  0.67234594161E+02 -0.12348342320E+03  0.15942215016E+03  0.41800000000E+01 0. -1.
        -11    1    1    2    0    0 -0.26951073285E+02  0.14550824924E+02 -0.85299948103E+02  0.90632047332E+02  0.00000000000E+00 0. -1.
         11    1    1    2    0    0 -0.49799795346E+02 -0.86756242609E+02 -0.10653396749E+03  0.14613744036E+03  0.00000000000E+00 0.  1.
</event>
<event>
 7    1  0.2728221E-009  0.9148389E+02  0.7561462E-02  0.1299298E+00
          2   -1    0    0  501    0  0.00000000000E+00  0.00000000000E+00  0.25126835458E+03  0.25126835458E+03  0.00000000000E+00 0. -1.
         -2   -1    0    0    0  501 -0.00000000000E+00 -0.00000000000E+00 -0.67984357524E+02  0.67984357524E+02  0.00000000000E+00 0.  1.
         25    2    1    2    0    0  0.41739443680E+02  0.19983561977E+02  0.34635801180E+02  0.13780949305E+03  0.12510113406E+03 0.  0.
          5    1    3    3  502    0  0.17995217802E+02 -0.23094194530E+02 -0.39130303425E+02  0.49049186852E+02  0.41800000000E+01 0.  1.
         -5    1    3    3    0  502  0.23744225877E+02  0.43077756506E+02  0.73766104605E+02  0.88760306200E+02  0.41800000000E+01 0.  1.
        -11    1    1    2    0    0  0.17949221571E+02 -0.37708999842E+02  0.58070965947E+02  0.71528877456E+02  0.00000000000E+00 0.  1.
         11    1    1    2    0    0 -0.59688665251E+02  0.17725437865E+02  0.90577229928E+02  0.10991434160E+03  0.00000000000E+00 0. -1.
</event>
<event>
 7    1  0.2728221E-009  0.1559616E+03  0.7561462E-02  0.1193333E+00
          2   -1    0    0  501    0  0.00000000000E+00  0.00000000000E+00  0.24023957586E+03  0.24023957586E+03  0.00000000000E+00 0.  1.
         -2   -1    0    0    0  501 -0.00000000000E+00 -0.00000000000E+00 -0.13699216266E+03  0.13699216266E+03  0.00000000000E+00 0. -1.
         25    2    1    2    0    0  0.12212710681E+03 -0.55253105366E+02 -0.29228034792E+01  0.18337722971E+03  0.12510287657E+03 0.  0.
          5    1    3    3  502    0  0.26928904373E+02 -0.49945700374E+02  0.48682246679E+02  0.74881055136E+02  0.41800000000E+01 0.  1.
         -5    1    3    3    0  502  0.95198202440E+02 -0.53074049919E+01 -0.51605050158E+02  0.10849617457E+03  0.41800000000E+01 0.  1.
        -11    1    1    2    0    0 -0.80026301179E+02  0.77987663535E+02  0.57753389473E+02  0.12578449244E+03  0.00000000000E+00 0.  1.
         11    1    1    2    0    0 -0.42100805634E+02 -0.22734558169E+02  0.48416827211E+02  0.68070016361E+02  0.00000000000E+00 0. -1.
</event>
<event>
 7    1  0.2728221E-009  0.1078501E+03  0.7561462E-02  0.1264604E+00
          1   -1    0    0  501    0  0.00000000000E+00  0.00000000000E+00  0.61851612835E+02  0.61851612835E+02  0.00000000000E+00 0. -1.
         -1   -1    0    0    0  501 -0.00000000000E+00 -0.00000000000E+00 -0.25724359558E+03  0.25724359558E+03  0.00000000000E+00 0.  1.
         25    2    1    2    0    0  0.34143655545E+01  0.77038639427E+01 -0.18835402345E+03  0.22626175915E+03  0.12508452380E+03 0.  0.
          5    1    3    3  502    0 -0.29256764497E+02 -0.50419749292E+02 -0.83010324345E+02  0.10151992777E+03  0.41800000000E+01 0.  1.
         -5    1    3    3    0  502  0.32671130052E+02  0.58123613235E+02 -0.10534369910E+03  0.12474183138E+03  0.41800000000E+01 0.  1.
        -11    1    1    2    0    0  0.14054271386E+02 -0.46138533181E+02 -0.13590510776E+02  0.50109767226E+02  0.00000000000E+00 0.  1.
         11    1    1    2    0    0 -0.17468636940E+02  0.38434669239E+02  0.65525514786E+01  0.42723682038E+02  0.00000000000E+00 0. -1.
</event>
<event>
 7    1  0.2728221E-009  0.1106492E+03  0.7561462E-02  0.1259372E+00
         -2   -1    0    0    0  501 -0.00000000000E+00  0.00000000000E+00  0.24763580319E+02  0.24763580319E+02  0.00000000000E+00 0.  1.
          2   -1    0    0  501    0  0.00000000000E+00 -0.00000000000E+00 -0.10214476712E+04  0.10214476712E+04  0.00000000000E+00 0. -1.
         25    2    1    2    0    0  0.84650038087E+02  0.42219647621E+02 -0.75378095795E+03  0.76992312594E+03  0.12509100568E+03 0.  0.
          5    1    3    3  502    0  0.30844108685E+02 -0.77377921947E+01 -0.35325679455E+02  0.47713818728E+02  0.41800000000E+01 0.  1.
         -5    1    3    3    0  502  0.53805929402E+02  0.49957439816E+02 -0.71845527849E+03  0.72220930721E+03  0.41800000000E+01 0.  1.
        -11    1    1    2    0    0 -0.18194248358E+02 -0.45647271686E+02 -0.17271530870E+03  0.17956971332E+03  0.00000000000E+00 0.  1.
         11    1    1    2    0    0 -0.66455789729E+02  0.34276240649E+01 -0.70187824194E+02  0.96718412209E+02  0.00000000000E+00 0. -1.
</event>
<event>
 7    1  0.2728221E-009  0.1234474E+03  0.7561462E-02  0.1237516E+00
         -2   -1    0    0    0  501 -0.00000000000E+00  0.00000000000E+00  0.12565582133E+03  0.12565582133E+03  0.00000000000E+00 0.  1.
          2   -1    0    0  501    0  0.00000000000E+00 -0.00000000000E+00 -0.17718246994E+03  0.17718246994E+03  0.00000000000E+00 0. -1.
         25    2    1    2    0    0 -0.86439144556E+02  0.35609211947E+02  0.13716300128E+02  0.15677137341E+03  0.12509750175E+03 0.  0.
          5    1    3    3  502    0 -0.36376044868E+01  0.60096852833E+02  0.32148732256E+02  0.68380386607E+02  0.41800000000E+01 0.  1.
         -5    1    3    3    0  502 -0.82801540069E+02 -0.24487640886E+02 -0.18432432128E+02  0.88390986804E+02  0.41800000000E+01 0.  1.
        -11    1    1    2    0    0  0.63083615277E+02 -0.42115833281E+02  0.65201640920E+00  0.75853220464E+02  0.00000000000E+00 0.  1.
         11    1    1    2    0    0  0.23355529279E+02  0.65066213342E+01 -0.65894965155E+02  0.70213697395E+02  0.00000000000E+00 0. -1.
</event>
<event>
 7    1  0.2728221E-009  0.4950510E+02  0.7561462E-02  0.1448029E+00
          1   -1    0    0  501    0  0.00000000000E+00  0.00000000000E+00  0.94246354150E+02  0.94246354150E+02  0.00000000000E+00 0. -1.
         -1   -1    0    0    0  501 -0.00000000000E+00 -0.00000000000E+00 -0.14596977477E+03  0.14596977477E+03  0.00000000000E+00 0.  1.
         25    2    1    2    0    0  0.79530697830E+01  0.45253973542E+02 -0.26469886415E+02  0.13586287876E+03  0.12508754334E+03 0.  0.
          5    1    3    3  502    0 -0.87222930790E+01  0.19184366342E+02 -0.75076119457E+02  0.78089784359E+02  0.41800000000E+01 0.  1.
         -5    1    3    3    0  502  0.16675362862E+02  0.26069607200E+02  0.48606233042E+02  0.57773094401E+02  0.41800000000E+01 0.  1.
        -11    1    1    2    0    0 -0.49236968438E+01 -0.12986735553E+02  0.34048944872E+02  0.36772662914E+02  0.00000000000E+00 0. -1.
         11    1    1    2    0    0 -0.30293729392E+01 -0.32267237989E+02 -0.59302479080E+02  0.67580587248E+02  0.00000000000E+00 0.  1.
</event>
<event>
 7    1  0.2728221E-009  0.3117564E+03  0.7561462E-02  0.1079507E+00
         -2   -1    0    0    0  501 -0.00000000000E+00  0.00000000000E+00  0.22693854206E+03  0.22693854206E+03  0.00000000000E+00 0.  1.
          2   -1    0    0  501    0  0.00000000000E+00 -0.00000000000E+00 -0.44377059599E+03  0.44377059599E+03  0.00000000000E+00 0. -1.
         25    2    1    2    0    0  0.28224528919E+03  0.93691081413E+02 -0.89416435404E+02  0.33478601397E+03  0.12508378879E+03 0.  0.
          5    1    3    3  502    0 -0.64242369717E+01  0.15233429529E+02 -0.22484019854E+02  0.28219350536E+02  0.41800000000E+01 0.  1.
         -5    1    3    3    0  502  0.28866952616E+03  0.78457651883E+02 -0.66932415551E+02  0.30656666343E+03  0.41800000000E+01 0.  1.
        -11    1    1    2    0    0 -0.80651303542E+02  0.88134864332E+01 -0.56651053743E+02  0.98952777608E+02  0.00000000000E+00 0. -1.
         11    1    1    2    0    0 -0.20159398565E+03 -0.10250456785E+03 -0.70764564788E+02  0.23697034648E+03  0.00000000000E+00 0.  1.
</event>
<event>
 7    1  0.2728221E-009  0.1539176E+03  0.7561462E-02  0.1195740E+00
          2   -1    0    0  501    0  0.00000000000E+00  0.00000000000E+00  0.72916523995E+02  0.72916523995E+02  0.00000000000E+00 0. -1.
         -2   -1    0    0    0  501 -0.00000000000E+00 -0.00000000000E+00 -0.43899852910E+03  0.43899852910E+03  0.00000000000E+00 0.  1.
         25    2    1    2    0    0  0.11432634341E+03  0.26552578069E+01 -0.73850591214E+02  0.18487650851E+03  0.12509136815E+03 0.  0.
          5    1    3    3  502    0  0.13012331504E+03 -0.22262846520E+02 -0.36374039449E+02  0.13699727953E+03  0.41800000000E+01 0.  1.
         -5    1    3    3    0  502 -0.15796971633E+02  0.24918104327E+02 -0.37476551765E+02  0.47879228986E+02  0.41800000000E+01 0.  1.
        -11    1    1    2    0    0 -0.95692510268E+02 -0.40393797773E+02 -0.19121603143E+03  0.21760580437E+03  0.00000000000E+00 0.  1.
         11    1    1    2    0    0 -0.18633833140E+02  0.37738539967E+02 -0.10101538246E+03  0.10943274021E+03  0.00000000000E+00 0. -1.
</event>
<event>
 7    1  0.2728221E-009  0.1409760E+03  0.7561462E-02  0.1212022E+00
          1   -1    0    0  501    0  0.00000000000E+00  0.00000000000E+00  0.18585721131E+03  0.18585721131E+03  0.00000000000E+00 0. -1.
         -1   -1    0    0    0  501 -0.00000000000E+00 -0.00000000000E+00 -0.17761634777E+03  0.17761634777E+03  0.00000000000E+00 0.  1.
         25    2    1    2    0    0  0.76455841496E+02 -0.57864943723E+02 -0.10456585322E+03  0.18914217814E+03  0.12508756326E+03 0.  0.
          5    1    3    3  502    0 -0.30617916079E+02 -0.34162898814E+02 -0.44431535353E+02  0.64001516968E+02  0.41800000000E+01 0. -1.
         -5    1    3    3    0  502  0.10707375757E+03 -0.23702044909E+02 -0.60134317862E+02  0.12514066117E+03  0.41800000000E+01 0. -1.
        -11    1    1    2    0    0  0.20851618697E+00 -0.18166668045E+02  0.40486085002E+02  0.44375605750E+02  0.00000000000E+00 0. -1.
         11    1    1    2    0    0 -0.76664357683E+02  0.76031611768E+02  0.72320631760E+02  0.12995577519E+03  0.00000000000E+00 0.  1.
</event>
<event>
 7    1  0.2728221E-009  0.1139009E+03  0.7561462E-02  0.1253512E+00
          2   -1    0    0  501    0  0.00000000000E+00  0.00000000000E+00  0.28291903949E+03  0.28291903949E+03  0.00000000000E+00 0. -1.
         -2   -1    0    0    0  501 -0.00000000000E+00 -0.00000000000E+00 -0.66907485445E+02  0.66907485445E+02  0.00000000000E+00 0.  1.
         25    2    1    2    0    0  0.79921740785E+02 -0.58541601858E+01  0.14547807079E+03  0.20793129922E+03  0.12509916176E+03 0.  0.
          5    1    3    3  502    0  0.16972160524E+02  0.28650803146E+02 -0.11329407567E+02  0.35422459395E+02  0.41800000000E+01 0.  1.
         -5    1    3    3    0  502  0.62949580262E+02 -0.34504963332E+02  0.15680747836E+03  0.17250883983E+03  0.41800000000E+01 0.  1.
        -11    1    1    2    0    0 -0.77407807529E+02 -0.32458225806E+02  0.55686568711E+02  0.10072983185E+03  0.00000000000E+00 0.  1.
         11    1    1    2    0    0 -0.25139332559E+01  0.38312385992E+02  0.14846914545E+02  0.41165393868E+02  0.00000000000E+00 0. -1.
</event>
<event>
 7    1  0.2728221E-009  0.1364986E+03  0.7561462E-02  0.1218119E+00
          2   -1    0    0  501    0  0.00000000000E+00  0.00000000000E+00  0.27342520314E+03  0.27342520314E+03  0.00000000000E+00 0. -1.
         -2   -1    0    0    0  501 -0.00000000000E+00 -0.00000000000E+00 -0.12497445038E+03  0.12497445038E+03  0.00000000000E+00 0.  1.
         25    2    1    2    0    0  0.21278888854E+01  0.13188311636E+03  0.15257010694E+03  0.23732434442E+03  0.12509005808E+03 0.  0.
          5    1    3    3  502    0 -0.35247467309E+01  0.56528819451E+02 -0.10309438668E+02  0.57720777834E+02  0.41800000000E+01 0. -1.
         -5    1    3    3    0  502  0.56526356163E+01  0.75354296912E+02  0.16287954561E+03  0.17960356659E+03  0.41800000000E+01 0. -1.
        -11    1    1    2    0    0  0.21007584085E+02 -0.92426794376E+02 -0.40062945236E+02  0.10290320932E+03  0.00000000000E+00 0.  1.
         11    1    1    2    0    0 -0.23135472970E+02 -0.39456321988E+02  0.35943591054E+02  0.58172099775E+02  0.00000000000E+00 0. -1.
</event>
<event>
 7    1  0.2728221E-009  0.7977423E+02  0.7561462E-02  0.1329693E+00
          1   -1    0    0  501    0  0.00000000000E+00  0.00000000000E+00  0.22810189453E+03  0.22810189453E+03  0.00000000000E+00 0. -1.
         -1   -1    0    0    0  501 -0.00000000000E+00 -0.00000000000E+00 -0.54544556789E+02  0.54544556789E+02  0.00000000000E+00 0.  1.
         25    2    1    2    0    0 -0.74983144827E+01  0.10885572714E+02  0.12513512872E+03  0.17743457226E+03  0.12509798791E+03 0.  0.
          5    1    3    3  502    0 -0.56831262815E+02 -0.22878077721E+02  0.86694755504E+02  0.10623865542E+03  0.41800000000E+01 0. -1.
         -5    1    3    3    0  502  0.49332948332E+02  0.33763650434E+02  0.38440373215E+02  0.71195916840E+02  0.41800000000E+01 0. -1.
        -11    1    1    2    0    0  0.21236909600E+02 -0.94418566745E+00 -0.23283558918E+02  0.31528113357E+02  0.00000000000E+00 0.  1.
         11    1    1    2    0    0 -0.13738595117E+02 -0.99413870462E+01  0.71705767937E+02  0.73683765699E+02  0.00000000000E+00 0. -1.
</event>
<event>
 7    1  0.2728221E-009  0.1482627E+03  0.7561462E-02  0.1202624E+00
         -2   -1    0    0    0  501 -0.00000000000E+00  0.00000000000E+00  0.67443888065E+03  0.67443888065E+03  0.00000000000E+00 0. -1.
          2   -1    0    0  501    0  0.00000000000E+00 -0.00000000000E+00 -0.42562279581E+02  0.42562279581E+02  0.00000000000E+00 0.  1.
         25    2    1    2    0    0 -0.78311133825E+02 -0.91156614049E+02  0.44195292376E+03  0.47477594378E+03  0.12509055923E+03 0.  0.
          5    1    3    3  502    0  0.21131282789E+02  0.74955308889E+01  0.20612471932E+02  0.30741836229E+02  0.41800000000E+01 0.  1.
         -5    1    3    3    0  502 -0.99442416614E+02 -0.98652144938E+02  0.42134045183E+03  0.44403410755E+03  0.41800000000E+01 0.  1.
        -11    1    1    2    0    0  0.83318739691E+01  0.53437180299E+02  0.25927649564E+02  0.59976623564E+02  0.00000000000E+00 0.  1.
         11    1    1    2    0    0  0.69979259856E+02  0.37719433750E+02  0.16399602774E+03  0.18224859288E+03  0.00000000000E+00 0. -1.
</event>
<event>
 7    1  0.2728221E-009  0.2041292E+03  0.7561462E-02  0.1146301E+00
         -2   -1    0    0    0  501 -0.00000000000E+00  0.00000000000E+00  0.14979602029E+03  0.14979602029E+03  0.00000000000E+00 0. -1.
          2   -1    0    0  501    0  0.00000000000E+00 -0.00000000000E+00 -0.80932297959E+03  0.80932297959E+03  0.00000000000E+00 0.  1.
         25    2    1    2    0    0  0.16226861123E+03  0.12309303985E+03 -0.69353677313E+03  0.73357408971E+03  0.12511870663E+03 0.  0.
          5    1    3    3  502    0  0.77822578872E+02  0.57247023166E+02 -0.14249706098E+03  0.17221051139E+03  0.41800000000E+01 0. -1.
         -5    1    3    3    0  502  0.84446032360E+02  0.65846016679E+02 -0.55103971215E+03  0.56136357832E+03  0.41800000000E+01 0. -1.
        -11    1    1    2    0    0 -0.63195374845E+02 -0.58553717356E+02  0.59353836342E+02  0.10461869387E+03  0.00000000000E+00 0. -1.
         11    1    1    2    0    0 -0.99073236387E+02 -0.64539322489E+02 -0.25344022507E+02  0.12092621632E+03  0.00000000000E+00 0.  1.
</event>
<event>
 7    1  0.2728221E-009  0.1291344E+03  0.7561462E-02  0.1228746E+00
          3   -1    0    0  501    0  0.00000000000E+00  0.00000000000E+00  0.50857714733E+02  0.50857714733E+02  0.00000000000E+00 0. -1.
         -3   -1    0    0    0  501 -0.00000000000E+00 -0.00000000000E+00 -0.43415633708E+03  0.43415633708E+03  0.00000000000E+00 0.  1.
         25    2    1    2    0    0  0.97643818391E+02  0.27481061159E+02 -0.21874242159E+03  0.27163038849E+03  0.12508116148E+03 0.  0.
          5    1    3    3  502    0  0.11672936476E+03 -0.24636851005E+01 -0.12401169552E+03  0.17037660452E+03  0.41800000000E+01 0.  1.
         -5    1    3    3    0  502 -0.19085546365E+02  0.29944746259E+02 -0.94730726062E+02  0.10125378397E+03  0.41800000000E+01 0.  1.
        -11    1    1    2    0    0 -0.43500315988E+02 -0.27642105659E+02 -0.14029239490E+02  0.53415195001E+02  0.00000000000E+00 0. -1.
         11    1    1    2    0    0 -0.54143502403E+02  0.16104450027E+00 -0.15052696128E+03  0.15996846833E+03  0.00000000000E+00 0.  1.
</event>
<event>
 7    1  0.2728221E-009  0.1180211E+03  0.7561462E-02  0.1246398E+00
          1   -1    0    0  501    0  0.00000000000E+00  0.00000000000E+00  0.16401061761E+03  0.16401061761E+03  0.00000000000E+00 0. -1.
         -1   -1    0    0    0  501 -0.00000000000E+00 -0.00000000000E+00 -0.11866434905E+03  0.11866434905E+03  0.00000000000E+00 0.  1.
         25    2    1    2    0    0 -0.30117247802E+02  0.58564516367E+02  0.84817224818E+02  0.16486033761E+03  0.12509243822E+03 0.  0.
          5    1    3    3  502    0  0.34051401994E+02  0.55717363907E+02  0.75358717053E+02  0.99801459179E+02  0.41800000000E+01 0.  1.
         -5    1    3    3    0  502 -0.64168649795E+02  0.28471524596E+01  0.94585077655E+01  0.65058878432E+02  0.41800000000E+01 0.  1.
        -11    1    1    2    0    0 -0.24919028807E+02 -0.41879413403E+02 -0.35260138149E+02  0.60150815505E+02  0.00000000000E+00 0.  1.
         11    1    1    2    0    0  0.55036276609E+02 -0.16685102964E+02 -0.42108181068E+01  0.57663813549E+02  0.00000000000E+00 0. -1.
</event>
<event>
 7    1  0.2728221E-009  0.7110517E+02  0.7561462E-02  0.1356375E+00
         -1   -1    0    0    0  501 -0.00000000000E+00  0.00000000000E+00  0.32989152024E+02  0.32989152024E+02  0.00000000000E+00 0.  1.
          1   -1    0    0  501    0  0.00000000000E+00 -0.00000000000E+00 -0.39779998497E+03  0.39779998497E+03  0.00000000000E+00 0. -1.
         25    2    1    2    0    0 -0.50668034289E+01  0.89456775326E+01 -0.16250372798E+03  0.20533041299E+03  0.12508964483E+03 0.  0.
          5    1    3    3  502    0  0.99515859073E+01  0.22297535455E+02 -0.17793502090E+03  0.17965121266E+03  0.41800000000E+01 0. -1.
         -5    1    3    3    0  502 -0.15018389336E+02 -0.13351857923E+02  0.15431292914E+02  0.25679200323E+02  0.41800000000E+01 0. -1.
        -11    1    1    2    0    0 -0.45230943185E+02  0.26023472067E+01 -0.69348768419E+02  0.82836357438E+02  0.00000000000E+00 0.  1.
         11    1    1    2    0    0  0.50297746614E+02 -0.11548024739E+02 -0.13295833654E+03  0.14262236657E+03  0.00000000000E+00 0. -1.
</event>
<event>
 7    1  0.2728221E-009  0.1153441E+03  0.7561462E-02  0.1250982E+00
         -2   -1    0    0    0  501 -0.00000000000E+00  0.00000000000E+00  0.27482532181E+02  0.27482532181E+02  0.00000000000E+00 0.  1.
          2   -1    0    0  501    0  0.00000000000E+00 -0.00000000000E+00 -0.80297642721E+03  0.80297642721E+03  0.00000000000E+00 0. -1.
         25    2    1    2    0    0  0.38133628227E+02  0.82509924218E+02 -0.51821872082E+03  0.54079497975E+03  0.12508599572E+03 0.  0.
          5    1    3    3  502    0  0.12971706838E+02  0.68274094971E+02 -0.10166745256E+03  0.12322077963E+03  0.41800000000E+01 0. -1.
         -5    1    3    3    0  502  0.25161921390E+02  0.14235829247E+02 -0.41655126826E+03  0.41757420013E+03  0.41800000000E+01 0. -1.
        -11    1    1    2    0    0  0.12135050178E+02 -0.80645609000E+02 -0.17773102451E+03  0.19554869155E+03  0.00000000000E+00 0.  1.
         11    1    1    2    0    0 -0.50268678406E+02 -0.18643152182E+01 -0.79544149706E+02  0.94115288091E+02  0.00000000000E+00 0. -1.
</event>
<event>
 7    1  0.2728221E-009  0.1674530E+03  0.7561462E-02  0.1180530E+00
         -2   -1    0    0    0  501 -0.00000000000E+00  0.00000000000E+00  0.19493604023E+03  0.19493604023E+03  0.00000000000E+00 0.  1.
          2   -1    0    0  501    0  0.00000000000E+00 -0.00000000000E+00 -0.30058947924E+03  0.30058947924E+03  0.00000000000E+00 0. -1.
         25    2    1    2    0    0  0.32109571077E+02  0.14402326339E+03  0.10751248270E+03  0.22132007521E+03  0.12509962752E+03 0.  0.
          5    1    3    3  502    0 -0.42536435412E+02  0.64743293309E+02  0.16438718383E+02  0.79301615546E+02  0.41800000000E+01 0. -1.
         -5    1    3    3    0  502  0.74646006488E+02  0.79279970078E+02  0.91073764314E+02  0.14201845967E+03  0.41800000000E+01 0. -1.
        -11    1    1    2    0    0 -0.49686960192E+01 -0.56557008346E+02 -0.15657559212E+03  0.16655119087E+03  0.00000000000E+00 0. -1.
         11    1    1    2    0    0 -0.27140875057E+02 -0.87466255040E+02 -0.56590329587E+02  0.10765425339E+03  0.00000000000E+00 0.  1.
</event>
<event>
 7    1  0.2728221E-009  0.2972661E+03  0.7561462E-02  0.1086615E+00
          1   -1    0    0  501    0  0.00000000000E+00  0.00000000000E+00  0.24399318449E+03  0.24399318449E+03  0.00000000000E+00 0. -1.
         -1   -1    0    0    0  501 -0.00000000000E+00 -0.00000000000E+00 -0.42371342006E+03  0.42371342006E+03  0.00000000000E+00 0.  1.
         25    2    1    2    0    0  0.24245274562E+03 -0.25736706701E+01 -0.22617228376E+02  0.27376783874E+03  0.12508929958E+03 0.  0.
          5    1    3    3  502    0  0.20377794803E+03  0.20772877601E+02 -0.61616107597E+02  0.21394153796E+03  0.41800000000E+01 0.  1.
         -5    1    3    3    0  502  0.38674797584E+02 -0.23346548272E+02  0.38998879221E+02  0.59826300779E+02  0.41800000000E+01 0.  1.
        -11    1    1    2    0    0 -0.21794503540E+03  0.10289676748E+03 -0.51942367838E+02  0.24654774951E+03  0.00000000000E+00 0.  1.
         11    1    1    2    0    0 -0.24507710222E+02 -0.10032309681E+03 -0.10516063936E+03  0.14739101629E+03  0.00000000000E+00 0. -1.
</event>
<event>
 7    1  0.2728221E-009  0.1527591E+03  0.7561462E-02  0.1197123E+00
          3   -1    0    0  501    0  0.00000000000E+00  0.00000000000E+00  0.56837873687E+03  0.56837873687E+03  0.00000000000E+00 0. -1.
         -3   -1    0    0    0  501 -0.00000000000E+00 -0.00000000000E+00 -0.62621156454E+02  0.62621156454E+02  0.00000000000E+00 0.  1.
         25    2    1    2    0    0 -0.12339201071E+03  0.79331410494E+02  0.20975766968E+03  0.28489331706E+03  0.12508741389E+03 0.  0.
          5    1    3    3  502    0 -0.12223304609E+03  0.86891608146E+02  0.22316167638E+03  0.26890458405E+03  0.41800000000E+01 0.  1.
         -5    1    3    3    0  502 -0.11589646230E+01 -0.75601976520E+01 -0.13404006695E+02  0.15988733002E+02  0.41800000000E+01 0.  1.
        -11    1    1    2    0    0  0.83115593409E+02 -0.50720170177E+02  0.84529239815E+02  0.12894157558E+03  0.00000000000E+00 0.  1.
         11    1    1    2    0    0  0.40276417301E+02 -0.28611240317E+02  0.21147067092E+03  0.21716500069E+03  0.00000000000E+00 0. -1.
</event>
<event>
 7    1  0.2728221E-009  0.7923172E+02  0.7561462E-02  0.1331246E+00
         -2   -1    0    0    0  501 -0.00000000000E+00  0.00000000000E+00  0.19638974006E+03  0.19638974006E+03  0.00000000000E+00 0.  1.
          2   -1    0    0  501    0  0.00000000000E+00 -0.00000000000E+00 -0.74383546546E+02  0.74383546546E+02  0.00000000000E+00 0. -1.
         25    2    1    2    0    0 -0.51055525982E+02  0.15423989718E+02  0.58957406774E+02  0.14821577190E+03  0.12508946013E+03 0.  0.
          5    1    3    3  502    0 -0.77057522104E+01  0.40305914734E+02 -0.26570487340E+02  0.49065350066E+02  0.41800000000E+01 0.  1.
         -5    1    3    3    0  502 -0.43349773772E+02 -0.24881925016E+02  0.85527894114E+02  0.99150421836E+02  0.41800000000E+01 0.  1.
        -11    1    1    2    0    0  0.45723942406E+02  0.49560011851E+01  0.82132558789E+02  0.94132874545E+02  0.00000000000E+00 0.  1.
         11    1    1    2    0    0  0.53315835765E+01 -0.20379990903E+02 -0.19083772048E+02  0.28424640160E+02  0.00000000000E+00 0. -1.
</event>
<event>
 7    1  0.2728221E-009  0.1452122E+03  0.7561462E-02  0.1206483E+00
          1   -1    0    0  501    0  0.00000000000E+00  0.00000000000E+00  0.68187097890E+03  0.68187097890E+03  0.00000000000E+00 0. -1.
         -1   -1    0    0    0  501 -0.00000000000E+00 -0.00000000000E+00 -0.32532850316E+02  0.32532850316E+02  0.00000000000E+00 0.  1.
         25    2    1    2    0    0  0.10146030913E+03 -0.55496087089E+00  0.34085013918E+03  0.37699230837E+03  0.12509948392E+03 0.  0.
          5    1    3    3  502    0  0.50251564850E+02  0.59912331092E+02  0.13073238107E+03  0.15239138770E+03  0.41800000000E+01 0. -1.
         -5    1    3    3    0  502  0.51208744278E+02 -0.60467291963E+02  0.21011775812E+03  0.22460092067E+03  0.41800000000E+01 0. -1.
        -11    1    1    2    0    0 -0.81421520420E+02 -0.37590077839E+02  0.16763939439E+03  0.19011955315E+03  0.00000000000E+00 0.  1.
         11    1    1    2    0    0 -0.20038788709E+02  0.38145038710E+02  0.14084859501E+03  0.14729196769E+03  0.00000000000E+00 0. -1.
</event>
<event>
 7    1  0.2728221E-009  0.1172136E+03  0.7561462E-02  0.1247766E+00
         -1   -1    0    0    0  501 -0.00000000000E+00  0.00000000000E+00  0.49294990494E+02  0.49294990494E+02  0.00000000000E+00 0.  1.
          1   -1    0    0  501    0  0.00000000000E+00 -0.00000000000E+00 -0.33927259649E+03  0.33927259649E+03  0.00000000000E+00 0. -1.
         25    2    1    2    0    0 -0.64141606298E+02  0.13352758762E+02 -0.16947318843E+03  0.22059224429E+03  0.12508930739E+03 0.  0.
          5    1    3    3  502    0 -0.16343934509E+02  0.59873410186E+02 -0.37423548806E+02  0.72594378900E+02  0.41800000000E+01 0. -1.
         -5    1    3    3    0  502 -0.47797671789E+02 -0.46520651425E+02 -0.13204963962E+03  0.14799786540E+03  0.41800000000E+01 0. -1.
        -11    1    1    2    0    0  0.83151007919E+02 -0.19512814172E+02 -0.12085571121E+03  0.14798967183E+03  0.00000000000E+00 0. -1.
         11    1    1    2    0    0 -0.19009401621E+02  0.61600554100E+01  0.35129364181E+00  0.19985670864E+02  0.00000000000E+00 0.  1.
</event>
<event>
 7    1  0.2728221E-009  0.1099432E+03  0.7561462E-02  0.1260675E+00
         -1   -1    0    0    0  501 -0.00000000000E+00  0.00000000000E+00  0.26036684914E+02  0.26036684914E+02  0.00000000000E+00 0.  1.
          1   -1    0    0  501    0  0.00000000000E+00 -0.00000000000E+00 -0.61890277068E+03  0.61890277068E+03  0.00000000000E+00 0. -1.
         25    2    1    2    0    0  0.14309330381E+02  0.61684026464E+02 -0.27386760454E+03  0.30766899294E+03  0.12508824222E+03 0.  0.
          5    1    3    3  502    0  0.28475636970E+02  0.81509215256E+02 -0.10055671442E+03  0.13260369258E+03  0.41800000000E+01 0. -1.
         -5    1    3    3    0  502 -0.14166306589E+02 -0.19825188792E+02 -0.17331089012E+03  0.17506530035E+03  0.41800000000E+01 0. -1.
        -11    1    1    2    0    0 -0.38163157077E+02 -0.72959859744E+02 -0.25771094843E+03  0.27054482185E+03  0.00000000000E+00 0. -1.
         11    1    1    2    0    0  0.23853826695E+02  0.11275833279E+02 -0.61287532800E+02  0.66725640805E+02  0.00000000000E+00 0.  1.
</event>
<event>
 7    1  0.2728221E-009  0.1362725E+03  0.7561462E-02  0.1218434E+00
         -2   -1    0    0    0  501 -0.00000000000E+00  0.00000000000E+00  0.63351535614E+02  0.63351535614E+02  0.00000000000E+00 0.  1.
          2   -1    0    0  501    0  0.00000000000E+00 -0.00000000000E+00 -0.43003087809E+03  0.43003087809E+03  0.00000000000E+00 0. -1.
         25    2    1    2    0    0  0.12978750007E+02 -0.12305162441E+03 -0.20703145201E+03  0.27169606194E+03  0.12508628115E+03 0.  0.
          5    1    3    3  502    0 -0.13861935860E+02 -0.12063000402E+03 -0.21164311714E+03  0.24403694919E+03  0.41800000000E+01 0. -1.
         -5    1    3    3    0  502  0.26840685867E+02 -0.24216203875E+01  0.46116651281E+01  0.27659112755E+02  0.41800000000E+01 0. -1.
        -11    1    1    2    0    0 -0.42637305201E+01  0.27429221523E+02  0.76488171607E+01  0.28793158827E+02  0.00000000000E+00 0.  1.
         11    1    1    2    0    0 -0.87150194870E+01  0.95622402886E+02 -0.16729670762E+03  0.19289319293E+03  0.00000000000E+00 0. -1.
</event>
<event>
 7    1  0.2728221E-009  0.1349113E+03  0.7561462E-02  0.1220345E+00
          1   -1    0    0  501    0  0.00000000000E+00  0.00000000000E+00  0.12343484843E+03  0.12343484843E+03  0.00000000000E+00 0. -1.
         -1   -1    0    0    0  501 -0.00000000000E+00 -0.00000000000E+00 -0.18011620625E+03  0.18011620625E+03  0.00000000000E+00 0.  1.
         25    2    1    2    0    0 -0.18559616484E+02  0.99817221604E+02 -0.43685440577E+02  0.16692485304E+03  0.12509017447E+03 0.  0.
          5    1    3    3  502    0  0.19236966220E+01  0.12650131905E+03 -0.40363105247E+02  0.13286435562E+03  0.41800000000E+01 0.  1.
         -5    1    3    3    0  502 -0.20483313106E+02 -0.26684097443E+02 -0.33223353297E+01  0.34060497415E+02  0.41800000000E+01 0.  1.
        -11    1    1    2    0    0  0.59448475673E+01 -0.95966115597E+02 -0.41878599016E+02  0.10487446596E+03  0.00000000000E+00 0.  1.
         11    1    1    2    0    0  0.12614768917E+02 -0.38511060068E+01  0.28882681770E+02  0.31751735677E+02  0.00000000000E+00 0. -1.
</event>
<event>
 7    1  0.2728221E-009  0.1096233E+03  0.7561462E-02  0.1261269E+00
         -1   -1    0    0    0  501 -0.00000000000E+00  0.00000000000E+00  0.20475250417E+03  0.20475250417E+03  0.00000000000E+00 0.  1.
          1   -1    0    0  501    0  0.00000000000E+00 -0.00000000000E+00 -0.87881749971E+02  0.87881749971E+02  0.00000000000E+00 0. -1.
         25    2    1    2    0    0  0.67214576734E+02 -0.26485832558E+02  0.81172482928E+02  0.16569702042E+03  0.12508889615E+03 0.  0.
          5    1    3    3  502    0  0.96710799334E+01  0.43992794465E+02  0.24395885925E+01  0.45302535740E+02  0.41800000000E+01 0. -1.
         -5    1    3    3    0  502  0.57543496801E+02 -0.70478627023E+02  0.78732894335E+02  0.12039448468E+03  0.41800000000E+01 0. -1.
        -11    1    1    2    0    0 -0.32583329522E+02  0.34423001297E+02  0.65302384201E+02  0.80690877820E+02  0.00000000000E+00 0.  1.
         11    1    1    2    0    0 -0.34631247212E+02 -0.79371687392E+01 -0.29604112934E+02  0.46246355897E+02  0.00000000000E+00 0. -1.
</event>
<event>
 7    1  0.2728221E-009  0.1109432E+03  0.7561462E-02  0.1258833E+00
         -1   -1    0    0    0  501 -0.00000000000E+00  0.00000000000E+00  0.25947618129E+02  0.25947618129E+02  0.00000000000E+00 0.  1.
          1   -1    0    0  501    0  0.00000000000E+00 -0.00000000000E+00 -0.85944220122E+03  0.85944220122E+03  0.00000000000E+00 0. -1.
         25    2    1    2    0    0 -0.63406515681E+01  0.10082386350E+03 -0.47539951352E+03  0.50185401514E+03  0.12508836775E+03 0.  0.
          5    1    3    3  502    0 -0.74254054944E+01  0.46954832970E+02 -0.37661554339E+02  0.60792746781E+02  0.41800000000E+01 0.  1.
         -5    1    3    3    0  502  0.10847539264E+01  0.53869030529E+02 -0.43773795918E+03  0.44106126836E+03  0.41800000000E+01 0.  1.
        -11    1    1    2    0    0 -0.17771940765E+02 -0.14114063370E+01 -0.94177409185E+01  0.20162534325E+02  0.00000000000E+00 0.  1.
         11    1    1    2    0    0  0.24112592333E+02 -0.99412457162E+02 -0.34867732865E+03  0.36337326988E+03  0.00000000000E+00 0. -1.
</event>
<event>
 7    1  0.2728221E-009  0.1147514E+03  0.7561462E-02  0.1252016E+00
          1   -1    0    0  501    0  0.00000000000E+00  0.00000000000E+00  0.78592576605E+03  0.78592576605E+03  0.00000000000E+00 0. -1.
         -1   -1    0    0    0  501 -0.00000000000E+00 -0.00000000000E+00 -0.18877036319E+02  0.18877036319E+02  0.00000000000E+00 0.  1.
         25    2    1    2    0    0 -0.22893774783E+02  0.38657073939E+02  0.52549833085E+03  0.54204551446E+03  0.12508536978E+03 0.  0.
          5    1    3    3  502    0  0.48161286407E+02  0.95890677511E+01  0.29430848667E+03  0.29840646349E+03  0.41800000000E+01 0.  1.
         -5    1    3    3    0  502 -0.71055061190E+02  0.29068006188E+02  0.23118984418E+03  0.24363905097E+03  0.41800000000E+01 0.  1.
        -11    1    1    2    0    0 -0.64740313374E+01 -0.64131330879E+02  0.14557110848E+03  0.15920329238E+03  0.00000000000E+00 0.  1.
         11    1    1    2    0    0  0.29367806121E+02  0.25474256940E+02  0.95979290409E+02  0.10355399553E+03  0.00000000000E+00 0. -1.
</event>
<event>
 7    1  0.2728221E-009  0.1073661E+03  0.7561462E-02  0.1265527E+00
         -2   -1    0    0    0  501 -0.00000000000E+00  0.00000000000E+00  0.46108881492E+03  0.46108881492E+03  0.00000000000E+00 0.  1.
          2   -1    0    0  501    0  0.00000000000E+00 -0.00000000000E+00 -0.26743745057E+02  0.26743745057E+02  0.00000000000E+00 0. -1.
         25    2    1    2    0    0  0.17761790792E+02 -0.63605082184E+02  0.33595823934E+03  0.36452306059E+03  0.12509210779E+03 0.  0.
          5    1    3    3  502    0 -0.28333998425E+02 -0.85545293652E+02  0.21137205305E+03  0.22981825415E+03  0.41800000000E+01 0.  1.
         -5    1    3    3    0  502  0.46095789218E+02  0.21940211468E+02  0.12458618629E+03  0.13470480644E+03  0.41800000000E+01 0.  1.
        -11    1    1    2    0    0 -0.12985972578E+02  0.41235106521E+01  0.11097096121E+02  0.17572261272E+02  0.00000000000E+00 0. -1.
         11    1    1    2    0    0 -0.47758182141E+01  0.59481571532E+02  0.87289734398E+02  0.10573723811E+03  0.00000000000E+00 0.  1.
</event>
<event>
 7    1  0.3520278E-009  0.1473499E+03  0.7561462E-02  0.1203768E+00
          3   -1    0    0  501    0  0.00000000000E+00  0.00000000000E+00  0.19254474937E+03  0.19254474937E+03  0.00000000000E+00 0. -1.
         -3   -1    0    0    0  501 -0.00000000000E+00 -0.00000000000E+00 -0.13132632542E+03  0.13132632542E+03  0.00000000000E+00 0.  1.
         25    2    1    2    0    0 -0.11514009146E+03 -0.19491613473E+01  0.20801935007E+02  0.17129457576E+03  0.12509225114E+03 0.  0.
          5    1    3    3  502    0 -0.13033463635E+03 -0.12104151591E+02 -0.14056611260E+02  0.13171442077E+03  0.41800000000E+01 0.  1.
         -5    1    3    3    0  502  0.15194544893E+02  0.10154990243E+02  0.34858546267E+02  0.39580154992E+02  0.41800000000E+01 0.  1.
        -11    1    1    2    0    0  0.70013045536E+02 -0.42291181652E+02  0.35574309975E+02  0.89195863811E+02  0.00000000000E+00 0.  1.
         11    1    1    2    0    0  0.45127045925E+02  0.44240342999E+02  0.48421789639E+01  0.63380635211E+02  0.00000000000E+00 0. -1.
</event>
<event>
 7    1  0.2728221E-009  0.1283939E+03  0.7561462E-02  0.1229859E+00
          2   -1    0    0  501    0  0.00000000000E+00  0.00000000000E+00  0.13026018926E+04  0.13026018926E+04  0.00000000000E+00 0. -1.
         -2   -1    0    0    0  501 -0.00000000000E+00 -0.00000000000E+00 -0.14861760679E+02  0.14861760679E+02  0.00000000000E+00 0.  1.
         25    2    1    2    0    0  0.64893582975E+02  0.46948223967E+02  0.86381116562E+03  0.87648821075E+03  0.12508613391E+03 0.  0.
          5    1    3    3  502    0 -0.27545159659E+02 -0.77935839871E+01  0.36895600112E+03  0.37008847447E+03  0.41800000000E+01 0. -1.
         -5    1    3    3    0  502  0.92438742634E+02  0.54741807955E+02  0.49485516450E+03  0.50639973628E+03  0.41800000000E+01 0. -1.
        -11    1    1    2    0    0  0.21981272212E+02 -0.85189159247E+00  0.57068510500E+02  0.61161400720E+02  0.00000000000E+00 0.  1.
         11    1    1    2    0    0 -0.86874855187E+02 -0.46096332375E+02  0.36686045580E+03  0.37981404181E+03  0.00000000000E+00 0. -1.
</event>
<event>
 7    1  0.2728221E-009  0.1218810E+03  0.7561462E-02  0.1240026E+00
         -4   -1    0    0    0  501 -0.00000000000E+00  0.00000000000E+00  0.17189776613E+03  0.17189776613E+03  0.00000000000E+00 0.  1.
          4   -1    0    0  501    0  0.00000000000E+00 -0.00000000000E+00 -0.10143008029E+03  0.10143008029E+03  0.00000000000E+00 0. -1.
         25    2    1    2    0    0 -0.18008603477E+02  0.55126209207E+02  0.88972209158E+02  0.16409443995E+03  0.12509085690E+03 0.  0.
          5    1    3    3  502    0 -0.11942025395E+02 -0.40115439099E+02  0.32180091437E+02  0.52961222697E+02  0.41800000000E+01 0.  1.
         -5    1    3    3    0  502 -0.60665780823E+01  0.95241648306E+02  0.56792117721E+02  0.11113321725E+03  0.41800000000E+01 0.  1.
        -11    1    1    2    0    0 -0.30087273762E+02 -0.49257956319E+02 -0.10395838188E+01  0.57729290986E+02  0.00000000000E+00 0.  1.
         11    1    1    2    0    0  0.48095877239E+02 -0.58682528874E+01 -0.17464939499E+02  0.51504115477E+02  0.00000000000E+00 0. -1.
</event>
<event>
 7    1  0.2728221E-009  0.9707922E+02  0.7561462E-02  0.1286561E+00
          2   -1    0    0  501    0  0.00000000000E+00  0.00000000000E+00  0.26197447234E+03  0.26197447234E+03  0.00000000000E+00 0. -1.
         -2   -1    0    0    0  501 -0.00000000000E+00 -0.00000000000E+00 -0.46536291742E+02  0.46536291742E+02  0.00000000000E+00 0.  1.
         25    2    1    2    0    0 -0.47468678552E+01 -0.30744372004E+02  0.13880867457E+03  0.18942929054E+03  0.12509140183E+03 0.  0.
          5    1    3    3  502    0 -0.16260745407E+02  0.33687463252E+02  0.19770313622E+01  0.37691352782E+02  0.41800000000E+01 0.  1.
         -5    1    3    3    0  502  0.11513877552E+02 -0.64431835256E+02  0.13683164321E+03  0.15173793776E+03  0.41800000000E+01 0.  1.
        -11    1    1    2    0    0 -0.37749766129E+02 -0.12005344386E+01  0.35904167319E+02  0.52111374542E+02  0.00000000000E+00 0.  1.
         11    1    1    2    0    0  0.42496633984E+02  0.31944906443E+02  0.40725338706E+02  0.66970099002E+02  0.00000000000E+00 0. -1.
</event>
<event>
 7    1  0.2728221E-009  0.1049473E+03  0.7561462E-02  0.1270223E+00
          2   -1    0    0  501    0  0.00000000000E+00  0.00000000000E+00  0.32816389667E+03  0.32816389667E+03  0.00000000000E+00 0. -1.
         -2   -1    0    0    0  501 -0.00000000000E+00 -0.00000000000E+00 -0.51953764953E+02  0.51953764953E+02  0.00000000000E+00 0.  1.
         25    2    1    2    0    0  0.65295550893E+02 -0.24840819256E+02  0.12067086758E+03  0.18732312842E+03  0.12509164996E+03 0.  0.
          5    1    3    3  502    0  0.13442645833E+02 -0.55964825622E+02  0.65217004495E+01  0.58075566383E+02  0.41800000000E+01 0.  1.
         -5    1    3    3    0  502  0.51852905059E+02  0.31124006366E+02  0.11414916713E+03  0.12924756203E+03  0.41800000000E+01 0.  1.
        -11    1    1    2    0    0 -0.36542140879E+02  0.43862371394E+02  0.33971295057E+02  0.66432556568E+02  0.00000000000E+00 0.  1.
         11    1    1    2    0    0 -0.28753410014E+02 -0.19021552138E+02  0.12156796908E+03  0.12636197663E+03  0.00000000000E+00 0. -1.
</event>
<event>
 7    1  0.2728221E-009  0.1175972E+03  0.7561462E-02  0.1247114E+00
         -1   -1    0    0    0  501 -0.00000000000E+00  0.00000000000E+00  0.11745135856E+02  0.11745135856E+02  0.00000000000E+00 0.  1.
          1   -1    0    0  501    0  0.00000000000E+00 -0.00000000000E+00 -0.14035054383E+04  0.14035054383E+04  0.00000000000E+00 0. -1.
         25    2    1    2    0    0  0.29981517459E+02 -0.53082497199E+02 -0.90420205810E+03  0.91484755960E+03  0.12509217611E+03 0.  0.
          5    1    3    3  502    0 -0.20734804435E+01 -0.81575718499E+02 -0.37021607282E+03  0.37912571813E+03  0.41800000000E+01 0. -1.
         -5    1    3    3    0  502  0.32054997902E+02  0.28493221300E+02 -0.53398598528E+03  0.53572184147E+03  0.41800000000E+01 0. -1.
        -11    1    1    2    0    0  0.26581093922E+02  0.46351550386E+02 -0.28609679613E+03  0.29104363510E+03  0.00000000000E+00 0.  1.
         11    1    1    2    0    0 -0.56562611381E+02  0.67309468133E+01 -0.20146144818E+03  0.20935937943E+03  0.00000000000E+00 0. -1.
</event>
<event>
 7    1  0.2728221E-009  0.2020597E+03  0.7561462E-02  0.1148013E+00
          2   -1    0    0  501    0  0.00000000000E+00  0.00000000000E+00  0.87347370722E+03  0.87347370722E+03  0.00000000000E+00 0. -1.
         -2   -1    0    0    0  501 -0.00000000000E+00 -0.00000000000E+00 -0.62093405659E+02  0.62093405659E+02  0.00000000000E+00 0.  1.
         25    2    1    2    0    0 -0.10590872380E+03  0.15669751045E+03  0.25959616418E+03  0.34468629605E+03  0.12509079370E+03 0.  0.
          5    1    3    3  502    0 -0.12033772827E+03  0.14588078763E+03  0.26483347224E+03  0.32544832687E+03  0.41800000000E+01 0. -1.
         -5    1    3    3    0  502  0.14429004472E+02  0.10816722821E+02 -0.52373080522E+01  0.19237969182E+02  0.41800000000E+01 0. -1.
        -11    1    1    2    0    0  0.47870289966E+02 -0.11622096813E+03  0.44779296143E+03  0.46509935971E+03  0.00000000000E+00 0. -1.
         11    1    1    2    0    0  0.58038433835E+02 -0.40476542322E+02  0.10399117595E+03  0.12578145712E+03  0.00000000000E+00 0.  1.
</event>
<event>
 7    1  0.2728221E-009  0.1208656E+03  0.7561462E-02  0.1241676E+00
         -2   -1    0    0    0  501 -0.00000000000E+00  0.00000000000E+00  0.12302038118E+03  0.12302038118E+03  0.00000000000E+00 0.  1.
          2   -1    0    0  501    0  0.00000000000E+00 -0.00000000000E+00 -0.15545998437E+03  0.15545998437E+03  0.00000000000E+00 0. -1.
         25    2    1    2    0    0 -0.18957920887E+02  0.77085549409E+02  0.14573948359E+02  0.14886609098E+03  0.12508848221E+03 0.  0.
          5    1    3    3  502    0  0.41576200367E+01  0.10824784347E+03  0.42140420772E+01  0.10849014689E+03  0.41800000000E+01 0.  1.
         -5    1    3    3    0  502 -0.23115540924E+02 -0.31162294064E+02  0.10359906282E+02  0.40375944097E+02  0.41800000000E+01 0.  1.
        -11    1    1    2    0    0  0.36564561283E+02 -0.55167212910E+02  0.91432231882E+01  0.66813075459E+02  0.00000000000E+00 0.  1.
         11    1    1    2    0    0 -0.17606640396E+02 -0.21918336499E+02 -0.56156774738E+02  0.62801199112E+02  0.00000000000E+00 0. -1.
</event>
<event>
 7    1  0.2728221E-009  0.6865753E+02  0.7561462E-02  0.1364719E+00
         -2   -1    0    0    0  501 -0.00000000000E+00  0.00000000000E+00  0.16908645311E+03  0.16908645311E+03  0.00000000000E+00 0.  1.
          2   -1    0    0  501    0  0.00000000000E+00 -0.00000000000E+00 -0.78309058196E+02  0.78309058196E+02  0.00000000000E+00 0. -1.
         25    2    1    2    0    0 -0.42700618324E+01  0.30371916826E+02  0.33362455037E+02  0.13306864175E+03  0.12511404098E+03 0.  0.
          5    1    3    3  502    0  0.84409017021E+01  0.35731799734E+02  0.77919746177E+02  0.86237866266E+02  0.41800000000E+01 0.  1.
         -5    1    3    3    0  502 -0.12710963535E+02 -0.53598829078E+01 -0.44557291140E+02  0.46830775485E+02  0.41800000000E+01 0.  1.
        -11    1    1    2    0    0  0.42335907206E+02 -0.15732957302E+02  0.15918987249E+01  0.45192799493E+02  0.00000000000E+00 0.  1.
         11    1    1    2    0    0 -0.38065845374E+02 -0.14638959524E+02  0.55823041157E+02  0.69134070067E+02  0.00000000000E+00 0. -1.
</event>
<event>
 7    1  0.2728221E-009  0.6551297E+02  0.7561462E-02  0.1376052E+00
          1   -1    0    0  501    0  0.00000000000E+00  0.00000000000E+00  0.20413294731E+03  0.20413294731E+03  0.00000000000E+00 0. -1.
         -1   -1    0    0    0  501 -0.00000000000E+00 -0.00000000000E+00 -0.66393514606E+02  0.66393514606E+02  0.00000000000E+00 0.  1.
         25    2    1    2    0    0  0.67589848091E+01 -0.33545438538E+02  0.46582497274E+02  0.13779876251E+03  0.12509032566E+03 0.  0.
          5    1    3    3  502    0 -0.31570022578E+02 -0.25986327690E+02 -0.30565590162E+02  0.51221902096E+02  0.41800000000E+01 0. -1.
         -5    1    3    3    0  502  0.38329007387E+02 -0.75591108482E+01  0.77148087436E+02  0.86576860414E+02  0.41800000000E+01 0. -1.
        -11    1    1    2    0    0  0.86416224794E+01  0.34144176007E+02  0.10577553522E+03  0.11148527367E+03  0.00000000000E+00 0. -1.
         11    1    1    2    0    0 -0.15400607289E+02 -0.59873746844E+00 -0.14618599788E+02  0.21242425736E+02  0.00000000000E+00 0.  1.
</event>
<event>
 7    1  0.2728221E-009  0.2194320E+03  0.7561462E-02  0.1134307E+00
          1   -1    0    0  501    0  0.00000000000E+00  0.00000000000E+00  0.24782660549E+03  0.24782660549E+03  0.00000000000E+00 0. -1.
         -1   -1    0    0    0  501 -0.00000000000E+00 -0.00000000000E+00 -0.22508687476E+03  0.22508687476E+03  0.00000000000E+00 0.  1.
         25    2    1    2    0    0 -0.20241908580E+03 -0.37065529309E+02 -0.26970172146E+02  0.24232608999E+03  0.12508878425E+03 0.  0.
          5    1    3    3  502    0 -0.22009518662E+01  0.23305351949E+02 -0.23062399939E+02  0.33125976356E+02  0.41800000000E+01 0.  1.
         -5    1    3    3    0  502 -0.20021813393E+03 -0.60370881259E+02 -0.39077722070E+01  0.20920011363E+03  0.41800000000E+01 0.  1.
        -11    1    1    2    0    0  0.16376460886E+03  0.32967698533E+02  0.76138100903E+02  0.18358302392E+03  0.00000000000E+00 0.  1.
         11    1    1    2    0    0  0.38654476940E+02  0.40978307766E+01 -0.26428198025E+02  0.47004366344E+02  0.00000000000E+00 0. -1.
</event>
<event>
 7    1  0.2728221E-009  0.9761488E+02  0.7561462E-02  0.1285393E+00
         -1   -1    0    0    0  501 -0.00000000000E+00  0.00000000000E+00  0.36184527063E+03  0.36184527063E+03  0.00000000000E+00 0.  1.
          1   -1    0    0  501    0  0.00000000000E+00 -0.00000000000E+00 -0.34880980103E+02  0.34880980103E+02  0.00000000000E+00 0. -1.
         25    2    1    2    0    0  0.66960643166E+01 -0.29907860782E+02  0.19509904640E+03  0.23377400659E+03  0.12508929145E+03 0.  0.
          5    1    3    3  502    0  0.22860127791E+02  0.29864126795E+02  0.15577246011E+03  0.16030278612E+03  0.41800000000E+01 0.  1.
         -5    1    3    3    0  502 -0.16164063474E+02 -0.59771987577E+02  0.39326586292E+02  0.73471220463E+02  0.41800000000E+01 0.  1.
        -11    1    1    2    0    0  0.32904474392E+02 -0.14387843821E+02  0.57070656391E+02  0.67429773140E+02  0.00000000000E+00 0.  1.
         11    1    1    2    0    0 -0.39600538708E+02  0.44295704603E+02  0.74794587737E+02  0.95522471006E+02  0.00000000000E+00 0. -1.
</event>
<event>
 7    1  0.2728221E-009  0.1163724E+03  0.7561462E-02  0.1249204E+00
         -1   -1    0    0    0  501 -0.00000000000E+00  0.00000000000E+00  0.16389733989E+02  0.16389733989E+02  0.00000000000E+00 0.  1.
          1   -1    0    0  501    0  0.00000000000E+00 -0.00000000000E+00 -0.91167951213E+03  0.91167951213E+03  0.00000000000E+00 0. -1.
         25    2    1    2    0    0  0.33974168152E+02  0.44006418949E+02 -0.48118596354E+03  0.50027786874E+03  0.12508879017E+03 0.  0.
          5    1    3    3  502    0 -0.10217065044E+02  0.72255904765E+02 -0.17576290068E+03  0.19035591361E+03  0.41800000000E+01 0. -1.
         -5    1    3    3    0  502  0.44191233196E+02 -0.28249485815E+02 -0.30542306286E+03  0.30992195513E+03  0.41800000000E+01 0. -1.
        -11    1    1    2    0    0  0.19211657660E+02 -0.49951129426E+02 -0.22335717458E+03  0.22967940821E+03  0.00000000000E+00 0. -1.
         11    1    1    2    0    0 -0.53185825812E+02  0.59447104768E+01 -0.19074664002E+03  0.19811196917E+03  0.00000000000E+00 0.  1.
</event>
<event>
 6    1  0.2728221E-009  0.1312048E+03  0.7561462E-02  0.1225679E+00
          3   -1    0    0  501    0  0.00000000000E+00  0.00000000000E+00  0.33349106436E+03  0.33349106436E+03  0.00000000000E+00 0. -1.
         -3   -1    0    0    0  501 -0.00000000000E+00 -0.00000000000E+00 -0.81803428849E+02  0.81803428849E+02  0.00000000000E+00 0.  1.
          5    1    1    2  502    0  0.19398617304E+02  0.14183335363E+02 -0.23102796174E+02  0.33595906691E+02  0.41800000000E+01 0.  1.
         -5    1    1    2    0  502 -0.85792423271E+02 -0.69869097540E+02  0.46677203981E+02  0.12015932945E+03  0.41800000000E+01 0.  1.
        -11    1    1    2    0    0  0.75000903964E+02  0.75051528071E+02  0.17961713836E+03  0.20861491762E+03  0.00000000000E+00 0.  1.
         11    1    1    2    0    0 -0.86070979970E+01 -0.19365765894E+02  0.48496089348E+02  0.52924339454E+02  0.00000000000E+00 0. -1.
</event>
<event>
 7    1  0.2728221E-009  0.9494378E+02  0.7561462E-02  0.1291303E+00
          2   -1    0    0  501    0  0.00000000000E+00  0.00000000000E+00  0.17352250504E+03  0.17352250504E+03  0.00000000000E+00 0. -1.
         -2   -1    0    0    0  501 -0.00000000000E+00 -0.00000000000E+00 -0.95559043333E+02  0.95559043333E+02  0.00000000000E+00 0.  1.
         25    2    1    2    0    0 -0.15264031484E+02 -0.64994522231E+02  0.24921922178E+02  0.14395943520E+03  0.12508372476E+03 0.  0.
          5    1    3    3  502    0  0.36405599396E+01  0.15747183189E+02  0.53581356040E+02  0.56121845748E+02  0.41800000000E+01 0.  1.
         -5    1    3    3    0  502 -0.18904591424E+02 -0.80741705421E+02 -0.28659433862E+02  0.87837589450E+02  0.41800000000E+01 0.  1.
        -11    1    1    2    0    0 -0.21970692697E+02  0.10989961731E+02  0.54208464667E+02  0.59515109325E+02  0.00000000000E+00 0. -1.
         11    1    1    2    0    0  0.37234724181E+02  0.54004560500E+02 -0.11669251399E+01  0.65607003848E+02  0.00000000000E+00 0.  1.
</event>
<event>
 7    1  0.2728221E-009  0.1170938E+03  0.7561462E-02  0.1247970E+00
         -2   -1    0    0    0  501 -0.00000000000E+00  0.00000000000E+00  0.58326794689E+02  0.58326794689E+02  0.00000000000E+00 0.  1.
          2   -1    0    0  501    0  0.00000000000E+00 -0.00000000000E+00 -0.39691300868E+03  0.39691300868E+03  0.00000000000E+00 0. -1.
         25    2    1    2    0    0  0.95065716542E+02  0.48250290038E+02 -0.15073073996E+03  0.22299717006E+03  0.12506958438E+03 0.  0.
          5    1    3    3  502    0 -0.32065107708E+01  0.31318381366E+01  0.19967616559E+02  0.20887035033E+02  0.41800000000E+01 0. -1.
         -5    1    3    3    0  502  0.98272227312E+02  0.45118451901E+02 -0.17069835651E+03  0.20211013502E+03  0.41800000000E+01 0. -1.
        -11    1    1    2    0    0 -0.13329025281E+02  0.12288275292E+02  0.54641284279E+00  0.18137342462E+02  0.00000000000E+00 0.  1.
         11    1    1    2    0    0 -0.81736691260E+02 -0.60538565330E+02 -0.18840188688E+03  0.21410529085E+03  0.00000000000E+00 0. -1.
</event>
<event>
 7    1  0.2728221E-009  0.1096920E+03  0.7561462E-02  0.1261141E+00
         -3   -1    0    0    0  501 -0.00000000000E+00  0.00000000000E+00  0.55228040277E+02  0.55228040277E+02  0.00000000000E+00 0.  1.
          3   -1    0    0  501    0  0.00000000000E+00 -0.00000000000E+00 -0.23355160973E+03  0.23355160973E+03  0.00000000000E+00 0. -1.
         25    2    1    2    0    0 -0.25676347785E+02 -0.18352782574E+02 -0.95964030123E+02  0.16078729885E+03  0.12508941174E+03 0.  0.
          5    1    3    3  502    0 -0.38146207952E+02  0.47886866751E+02 -0.49022285398E+02  0.78542612982E+02  0.41800000000E+01 0.  1.
         -5    1    3    3    0  502  0.12469860167E+02 -0.66239649325E+02 -0.46941744725E+02  0.82244685866E+02  0.41800000000E+01 0.  1.
        -11    1    1    2    0    0 -0.24232365197E+01 -0.32390782630E+02 -0.75805969203E+01  0.33354165021E+02  0.00000000000E+00 0.  1.
         11    1    1    2    0    0  0.28099584305E+02  0.50743565204E+02 -0.74778942408E+02  0.94638186137E+02  0.00000000000E+00 0. -1.
</event>
<event>
 7    1  0.2728221E-009  0.1295753E+03  0.7561462E-02  0.1228087E+00
          2   -1    0    0  501    0  0.00000000000E+00  0.00000000000E+00  0.12274374132E+04  0.12274374132E+04  0.00000000000E+00 0. -1.
         -2   -1    0    0    0  501 -0.00000000000E+00 -0.00000000000E+00 -0.21638723932E+02  0.21638723932E+02  0.00000000000E+00 0.  1.
         25    2    1    2    0    0  0.10242682951E+03 -0.39422427106E+02  0.84665592713E+03  0.86285488414E+03  0.12508760523E+03 0.  0.
          5    1    3    3  502    0  0.83462654498E+01 -0.20441674375E+02  0.18393673638E+02  0.29040003928E+02  0.41800000000E+01 0.  1.
         -5    1    3    3    0  502  0.94080564060E+02 -0.18980752731E+02  0.82826225349E+03  0.83381488021E+03  0.41800000000E+01 0.  1.
        -11    1    1    2    0    0 -0.61873869249E+02 -0.23136745787E+02  0.14141131576E+03  0.15607961086E+03  0.00000000000E+00 0.  1.
         11    1    1    2    0    0 -0.40552960260E+02  0.62559172892E+02  0.21773144634E+03  0.23014164209E+03  0.00000000000E+00 0. -1.
</event>
<event>
 7    1  0.2728221E-009  0.2297580E+03  0.7561462E-02  0.1126810E+00
          2   -1    0    0  501    0  0.00000000000E+00  0.00000000000E+00  0.15316529577E+04  0.15316529577E+04  0.00000000000E+00 0. -1.
         -2   -1    0    0    0  501 -0.00000000000E+00 -0.00000000000E+00 -0.39088427810E+02  0.39088427810E+02  0.00000000000E+00 0.  1.
         25    2    1    2    0    0  0.13957876442E+03 -0.15193256530E+03  0.10038122367E+04  0.10324012113E+04  0.12509004220E+03 0.  0.
          5    1    3    3  502    0  0.25693165855E+02 -0.11062594479E+03  0.36844278104E+03  0.38557203443E+03  0.41800000000E+01 0.  1.
         -5    1    3    3    0  502  0.11388559856E+03 -0.41306620507E+02  0.63536945568E+03  0.64682917688E+03  0.41800000000E+01 0.  1.
        -11    1    1    2    0    0  0.12806120038E+02  0.15590432928E+02  0.60530034932E+02  0.63803945318E+02  0.00000000000E+00 0. -1.
         11    1    1    2    0    0 -0.15238488445E+03  0.13634213237E+03  0.42822225826E+03  0.47453622890E+03  0.00000000000E+00 0.  1.
</event>
<event>
 7    1  0.2728221E-009  0.1356767E+03  0.7561462E-02  0.1219268E+00
         -1   -1    0    0    0  501 -0.00000000000E+00  0.00000000000E+00  0.52664561581E+02  0.52664561581E+02  0.00000000000E+00 0.  1.
          1   -1    0    0  501    0  0.00000000000E+00 -0.00000000000E+00 -0.44511886225E+03  0.44511886225E+03  0.00000000000E+00 0. -1.
         25    2    1    2    0    0 -0.88135330843E+02 -0.59284501108E+02 -0.18890301552E+03  0.25022614814E+03  0.12508512034E+03 0.  0.
          5    1    3    3  502    0  0.70848418054E+00  0.17124892454E+02 -0.10393234326E+03  0.10541901284E+03  0.41800000000E+01 0.  1.
         -5    1    3    3    0  502 -0.88843815024E+02 -0.76409393561E+02 -0.84970672250E+02  0.14480713530E+03  0.41800000000E+01 0.  1.
        -11    1    1    2    0    0  0.56865697430E+02  0.80578463228E+02 -0.11649257779E+03  0.15263393122E+03  0.00000000000E+00 0.  1.
         11    1    1    2    0    0  0.31269633413E+02 -0.21293962120E+02 -0.87058707367E+02  0.94923344468E+02  0.00000000000E+00 0. -1.
</event>
<event>
 7    1  0.2728221E-009  0.2702013E+03  0.7561462E-02  0.1101164E+00
         -2   -1    0    0    0  501 -0.00000000000E+00  0.00000000000E+00  0.10698552901E+03  0.10698552901E+03  0.00000000000E+00 0.  1.
          2   -1    0    0  501    0  0.00000000000E+00 -0.00000000000E+00 -0.74166301300E+03  0.74166301300E+03  0.00000000000E+00 0. -1.
         25    2    1    2    0    0 -0.23919201799E+03  0.10065785463E+03 -0.32601487911E+03  0.43505925672E+03  0.12508409288E+03 0.  0.
          5    1    3    3  502    0 -0.20760034872E+03  0.63009783915E+02 -0.18326329995E+03  0.28402649026E+03  0.41800000000E+01 0. -1.
         -5    1    3    3    0  502 -0.31591669275E+02  0.37648070717E+02 -0.14275157915E+03  0.15103276647E+03  0.41800000000E+01 0. -1.
        -11    1    1    2    0    0  0.16488324232E+03 -0.11142341630E+03 -0.24073400223E+03  0.31233719139E+03  0.00000000000E+00 0. -1.
         11    1    1    2    0    0  0.74308775676E+02  0.10765561668E+02 -0.67928602658E+02  0.10125209390E+03  0.00000000000E+00 0.  1.
</event>
<event>
 7    1  0.2728221E-009  0.1473451E+03  0.7561462E-02  0.1203774E+00
          2   -1    0    0  501    0  0.00000000000E+00  0.00000000000E+00  0.10985545198E+04  0.10985545198E+04  0.00000000000E+00 0.  1.
         -2   -1    0    0    0  501 -0.00000000000E+00 -0.00000000000E+00 -0.25447612088E+02  0.25447612088E+02  0.00000000000E+00 0. -1.
         25    2    1    2    0    0  0.10003594592E+03 -0.78780251426E+02  0.55427631780E+03  0.58230881305E+03  0.12509116188E+03 0.  0.
          5    1    3    3  502    0  0.38120188207E+02 -0.77017553789E+02  0.14699242836E+03  0.17032057638E+03  0.41800000000E+01 0. -1.
         -5    1    3    3    0  502  0.61915757710E+02 -0.17626976371E+01  0.40728388944E+03  0.41198823667E+03  0.41800000000E+01 0. -1.
        -11    1    1    2    0    0 -0.25594662282E+02  0.66329544894E+02  0.34394573882E+03  0.35121697925E+03  0.00000000000E+00 0.  1.
         11    1    1    2    0    0 -0.74441283635E+02  0.12450706533E+02  0.17488485104E+03  0.19047633954E+03  0.00000000000E+00 0. -1.
</event>
<event>
 7    1  0.3079749E-009  0.1024984E+03  0.7561462E-02  0.1275128E+00
          1   -1    0    0  501    0  0.00000000000E+00  0.00000000000E+00  0.92381734594E+03  0.92381734594E+03  0.00000000000E+00 0. -1.
         -1   -1    0    0    0  501 -0.00000000000E+00 -0.00000000000E+00 -0.22140112332E+02  0.22140112332E+02  0.00000000000E+00 0.  1.
         25    2    1    2    0    0  0.56016037335E+02  0.47996892675E+01  0.73593280304E+03  0.74860135000E+03  0.12508420032E+03 0.  0.
          5    1    3    3  502    0 -0.22249543149E+02 -0.38391825684E+02  0.32465512856E+03  0.32770016685E+03  0.41800000000E+01 0.  1.
         -5    1    3    3    0  502  0.78265580484E+02  0.43191514951E+02  0.41127767448E+03  0.42090118315E+03  0.41800000000E+01 0.  1.
        -11    1    1    2    0    0 -0.38811416178E+02  0.17663894899E+02  0.16937001685E+02  0.45882471978E+02  0.00000000000E+00 0.  1.
         11    1    1    2    0    0 -0.17204621157E+02 -0.22463584166E+02  0.14880742888E+03  0.15147363629E+03  0.00000000000E+00 0. -1.
</event>
<event>
 7    1  0.2728221E-009  0.1012800E+03  0.7561462E-02  0.1277627E+00
         -1   -1    0    0    0  501 -0.00000000000E+00  0.00000000000E+00  0.19718387167E+02  0.19718387167E+02  0.00000000000E+00 0.  1.
          1   -1    0    0  501    0  0.00000000000E+00 -0.00000000000E+00 -0.82637237387E+03  0.82637237387E+03  0.00000000000E+00 0. -1.
         25    2    1    2    0    0 -0.25886954966E+02 -0.55828747785E+02 -0.53541112512E+03  0.55326491921E+03  0.12510001766E+03 0.  0.
          5    1    3    3  502    0 -0.48283331128E+02 -0.47909292083E+02 -0.12688430561E+03  0.14402666331E+03  0.41800000000E+01 0. -1.
         -5    1    3    3    0  502  0.22396376162E+02 -0.79194557022E+01 -0.40852681950E+03  0.40923825591E+03  0.41800000000E+01 0. -1.
        -11    1    1    2    0    0  0.25382778749E+02 -0.21316053271E+02 -0.77740469443E+02  0.84511775353E+02  0.00000000000E+00 0.  1.
         11    1    1    2    0    0  0.50417621696E+00  0.77144801056E+02 -0.19350239215E+03  0.20831406647E+03  0.00000000000E+00 0. -1.
</event>
<event>
 7    1  0.2728221E-009  0.7602571E+02  0.7561462E-02  0.1340724E+00
          2   -1    0    0  501    0  0.00000000000E+00  0.00000000000E+00  0.89935831728E+02  0.89935831728E+02  0.00000000000E+00 0.  1.
         -2   -1    0    0    0  501 -0.00000000000E+00 -0.00000000000E+00 -0.23185293194E+03  0.23185293194E+03  0.00000000000E+00 0. -1.
         25    2    1    2    0    0 -0.12845177558E+02  0.68217932435E+02  0.51432881334E+01  0.14314910660E+03  0.12508608401E+03 0.  0.
          5    1    3    3  502    0  0.91479253228E+00  0.24643905972E+02 -0.59115299523E+02  0.64189173423E+02  0.41800000000E+01 0. -1.
         -5    1    3    3    0  502 -0.13759970090E+02  0.43574026463E+02  0.64258587657E+02  0.78959933173E+02  0.41800000000E+01 0. -1.
        -11    1    1    2    0    0 -0.13711187235E+02 -0.94177808700E+01 -0.92970786654E+02  0.94447119718E+02  0.00000000000E+00 0. -1.
         11    1    1    2    0    0  0.26556364793E+02 -0.58800151565E+02 -0.54089601690E+02  0.84192537354E+02  0.00000000000E+00 0.  1.
</event>
<event>
 7    1  0.2728221E-009  0.9579333E+02  0.7561462E-02  0.1289399E+00
         -1   -1    0    0    0  501 -0.00000000000E+00  0.00000000000E+00  0.20724740917E+03  0.20724740917E+03  0.00000000000E+00 0.  1.
          1   -1    0    0  501    0  0.00000000000E+00 -0.00000000000E+00 -0.11057089444E+03  0.11057089444E+03  0.00000000000E+00 0. -1.
         25    2    1    2    0    0  0.78388406305E+01  0.85446891142E+02  0.10396780052E+03  0.18390257931E+03  0.12509291148E+03 0.  0.
          5    1    3    3  502    0  0.33901145443E+02  0.60297472579E+02  0.12418587698E+03  0.14221349199E+03  0.41800000000E+01 0.  1.
         -5    1    3    3    0  502 -0.26062304813E+02  0.25149418563E+02 -0.20218076460E+02  0.41689087324E+02  0.41800000000E+01 0.  1.
        -11    1    1    2    0    0 -0.49821523265E+01 -0.63640678808E+02 -0.53143942102E+02  0.83061642309E+02  0.00000000000E+00 0. -1.
         11    1    1    2    0    0 -0.28566883040E+01 -0.21806212334E+02  0.45852656310E+02  0.50854081991E+02  0.00000000000E+00 0.  1.
</event>
<event>
 7    1  0.2728221E-009  0.9892938E+02  0.7561462E-02  0.1282564E+00
         -1   -1    0    0    0  501 -0.00000000000E+00  0.00000000000E+00  0.21966206988E+02  0.21966206988E+02  0.00000000000E+00 0.  1.
          1   -1    0    0  501    0  0.00000000000E+00 -0.00000000000E+00 -0.71728811776E+03  0.71728811776E+03  0.00000000000E+00 0. -1.
         25    2    1    2    0    0  0.26230443402E+02  0.56663622391E+02 -0.37849383200E+03  0.40349006752E+03  0.12509137247E+03 0.  0.
          5    1    3    3  502    0  0.51825011244E+01 -0.23753048789E+02 -0.24456525623E+03  0.24580622978E+03  0.41800000000E+01 0.  1.
         -5    1    3    3    0  502  0.21047942278E+02  0.80416671179E+02 -0.13392857577E+03  0.15768383774E+03  0.41800000000E+01 0.  1.
        -11    1    1    2    0    0 -0.26853332269E+02  0.58167788653E+01 -0.24435603889E+02  0.36770030021E+02  0.00000000000E+00 0.  1.
         11    1    1    2    0    0  0.62288886666E+00 -0.62480401256E+02 -0.29239247489E+03  0.29899422720E+03  0.00000000000E+00 0. -1.
</event>
<event>
 7    1  0.2728221E-009  0.1724939E+03  0.7561462E-02  0.1175272E+00
         -1   -1    0    0    0  501 -0.00000000000E+00  0.00000000000E+00  0.54404606083E+02  0.54404606083E+02  0.00000000000E+00 0.  1.
          1   -1    0    0  501    0  0.00000000000E+00 -0.00000000000E+00 -0.72561296788E+03  0.72561296788E+03  0.00000000000E+00 0. -1.
         25    2    1    2    0    0 -0.45848977176E+02 -0.13841690931E+03 -0.19561226837E+03  0.27417744733E+03  0.12509094131E+03 0.  0.
          5    1    3    3  502    0 -0.47699956516E+02 -0.15952535112E+03 -0.15190244556E+03  0.22542282242E+03  0.41800000000E+01 0.  1.
         -5    1    3    3    0  502  0.18509793404E+01  0.21108441808E+02 -0.43709822810E+02  0.48754624910E+02  0.41800000000E+01 0.  1.
        -11    1    1    2    0    0 -0.96204338957E+00  0.88113147625E+02 -0.15815093617E+03  0.18104300849E+03  0.00000000000E+00 0. -1.
         11    1    1    2    0    0  0.46811020565E+02  0.50303761687E+02 -0.31744515726E+03  0.32479711815E+03  0.00000000000E+00 0.  1.
</event>
<event>
 7    1  0.2728221E-009  0.1227825E+03  0.7561462E-02  0.1238576E+00
          2   -1    0    0  501    0  0.00000000000E+00  0.00000000000E+00  0.95513614022E+03  0.95513614022E+03  0.00000000000E+00 0. -1.
         -2   -1    0    0    0  501 -0.00000000000E+00 -0.00000000000E+00 -0.17142708082E+02  0.17142708082E+02  0.00000000000E+00 0.  1.
         25    2    1    2    0    0  0.13494779342E+02  0.58127528510E+02  0.39981886864E+03  0.42315885052E+03  0.12508943366E+03 0.  0.
          5    1    3    3  502    0  0.72133841911E+01 -0.38673273291E+02  0.15016029529E+03  0.15528438962E+03  0.41800000000E+01 0. -1.
         -5    1    3    3    0  502  0.62813951511E+01  0.96800801802E+02  0.24965857335E+03  0.26787446090E+03  0.41800000000E+01 0. -1.
        -11    1    1    2    0    0  0.38968127679E+02 -0.31314685280E+02  0.23128718858E+03  0.23662816419E+03  0.00000000000E+00 0. -1.
         11    1    1    2    0    0 -0.52462907021E+02 -0.26812843230E+02  0.30688737492E+03  0.31249183359E+03  0.00000000000E+00 0.  1.
</event>
<event>
 7    1  0.2728221E-009  0.1516837E+03  0.7561462E-02  0.1198419E+00
         -2   -1    0    0    0  501 -0.00000000000E+00  0.00000000000E+00  0.44386670734E+02  0.44386670734E+02  0.00000000000E+00 0.  1.
          2   -1    0    0  501    0  0.00000000000E+00 -0.00000000000E+00 -0.73595724638E+03  0.73595724638E+03  0.00000000000E+00 0. -1.
         25    2    1    2    0    0  0.29789433859E+02  0.13108872055E+03 -0.48340383202E+03  0.51710679476E+03  0.12509400206E+03 0.  0.
          5    1    3    3  502    0  0.51019223300E+02  0.25152350580E+02 -0.28977534694E+03  0.29533510794E+03  0.41800000000E+01 0. -1.
         -5    1    3    3    0  502 -0.21229789441E+02  0.10593636997E+03 -0.19362848507E+03  0.22177168682E+03  0.41800000000E+01 0. -1.
        -11    1    1    2    0    0 -0.36122227202E+02 -0.96386680082E+02 -0.80174407768E+02  0.13047276749E+03  0.00000000000E+00 0.  1.
         11    1    1    2    0    0  0.63327933435E+01 -0.34702040468E+02 -0.12799233586E+03  0.13276435486E+03  0.00000000000E+00 0. -1.
</event>
<event>
 7    1  0.2728221E-009  0.1011278E+03  0.7561462E-02  0.1277942E+00
         -4   -1    0    0    0  501 -0.00000000000E+00  0.00000000000E+00  0.82068639090E+02  0.82068639090E+02  0.00000000000E+00 0.  1.
          4   -1    0    0  501    0  0.00000000000E+00 -0.00000000000E+00 -0.17749223890E+03  0.17749223890E+03  0.00000000000E+00 0. -1.
         25    2    1    2    0    0  0.30398593969E+02  0.38176698839E+02 -0.81818987260E+02  0.15721637672E+03  0.12506441373E+03 0.  0.
          5    1    3    3  502    0 -0.16657712766E+01 -0.43607020788E+02 -0.13551759734E+02  0.45885396891E+02  0.41800000000E+01 0. -1.
         -5    1    3    3    0  502  0.32064365246E+02  0.81783719627E+02 -0.68267227526E+02  0.11133097982E+03  0.41800000000E+01 0. -1.
        -11    1    1    2    0    0 -0.44707901536E+02 -0.26246998988E+02 -0.43126468682E+02  0.67435848898E+02  0.00000000000E+00 0. -1.
         11    1    1    2    0    0  0.14309307567E+02 -0.11929699852E+02  0.29521856129E+02  0.34908652379E+02  0.00000000000E+00 0.  1.
</event>
<event>
 7    1  0.2728221E-009  0.1137022E+03  0.7561462E-02  0.1253864E+00
         -2   -1    0    0    0  501 -0.00000000000E+00  0.00000000000E+00  0.10291930298E+03  0.10291930298E+03  0.00000000000E+00 0.  1.
          2   -1    0    0  501    0  0.00000000000E+00 -0.00000000000E+00 -0.13421268140E+03  0.13421268140E+03  0.00000000000E+00 0. -1.
         25    2    1    2    0    0  0.44951289809E+02  0.96920246438E+01 -0.18753781956E+02  0.13458823868E+03  0.12509091036E+03 0.  0.
          5    1    3    3  502    0  0.44455299777E+02 -0.52168333209E+02 -0.23057393652E+02  0.72435657449E+02  0.41800000000E+01 0.  1.
         -5    1    3    3    0  502  0.49599003203E+00  0.61860357852E+02  0.43036116952E+01  0.62152581228E+02  0.41800000000E+01 0.  1.
        -11    1    1    2    0    0 -0.69467244849E+02 -0.16276040372E+02  0.52573535308E+01  0.71541927310E+02  0.00000000000E+00 0. -1.
         11    1    1    2    0    0  0.24515955040E+02  0.65840157281E+01 -0.17796949997E+02  0.31001818396E+02  0.00000000000E+00 0.  1.
</event>
<event>
 7    1  0.2728221E-009  0.9169956E+02  0.7561462E-02  0.1298787E+00
         -1   -1    0    0    0  501 -0.00000000000E+00  0.00000000000E+00  0.50592747116E+02  0.50592747116E+02  0.00000000000E+00 0.  1.
          1   -1    0    0  501    0  0.00000000000E+00 -0.00000000000E+00 -0.42328834815E+03  0.42328834815E+03  0.00000000000E+00 0. -1.
         25    2    1    2    0    0  0.85486536049E+02 -0.23920654041E+02 -0.25887253282E+03  0.30091487113E+03  0.12511844742E+03 0.  0.
          5    1    3    3  502    0  0.35164114903E+02  0.56592193390E+01 -0.36183921365E+00  0.35862864749E+02  0.41800000000E+01 0.  1.
         -5    1    3    3    0  502  0.50322421146E+02 -0.29579873380E+02 -0.25851069361E+03  0.26505200639E+03  0.41800000000E+01 0.  1.
        -11    1    1    2    0    0 -0.60163145994E+02  0.13667543183E+02 -0.62888748429E+01  0.62015770731E+02  0.00000000000E+00 0.  1.
         11    1    1    2    0    0 -0.25323390055E+02  0.10253110857E+02 -0.10753419337E+03  0.11095045340E+03  0.00000000000E+00 0. -1.
</event>
<event>
 7    1  0.2728221E-009  0.1277043E+03  0.7561462E-02  0.1230902E+00
         -1   -1    0    0    0  501 -0.00000000000E+00  0.00000000000E+00  0.36719129006E+02  0.36719129006E+02  0.00000000000E+00 0.  1.
          1   -1    0    0  501    0  0.00000000000E+00 -0.00000000000E+00 -0.53141369160E+03  0.53141369160E+03  0.00000000000E+00 0. -1.
         25    2    1    2    0    0  0.60961972986E+02  0.29107529109E+02 -0.15650276209E+03  0.21140567220E+03  0.12504252596E+03 0.  0.
          5    1    3    3  502    0  0.23894651363E+02  0.77337964243E+02 -0.85401573206E+02  0.11774131044E+03  0.41800000000E+01 0.  1.
         -5    1    3    3    0  502  0.37067321623E+02 -0.48230435133E+02 -0.71101188880E+02  0.93664361769E+02  0.41800000000E+01 0.  1.
        -11    1    1    2    0    0 -0.22336182234E+02 -0.59936296528E+02 -0.18298129538E+03  0.19383864201E+03  0.00000000000E+00 0. -1.
         11    1    1    2    0    0 -0.38625790752E+02  0.30828767419E+02 -0.15521050514E+03  0.16288850640E+03  0.00000000000E+00 0.  1.
</event>
<event>
 7    1  0.2728221E-009  0.1426379E+03  0.7561462E-02  0.1209823E+00
         -1   -1    0    0    0  501 -0.00000000000E+00  0.00000000000E+00  0.13309525929E+03  0.13309525929E+03  0.00000000000E+00 0.  1.
          1   -1    0    0  501    0  0.00000000000E+00 -0.00000000000E+00 -0.20328895611E+03  0.20328895611E+03  0.00000000000E+00 0. -1.
         25    2    1    2    0    0 -0.54111536274E+02 -0.98011833491E+02  0.16406336831E+02  0.16867150587E+03  0.12508609491E+03 0.  0.
          5    1    3    3  502    0 -0.21900028211E+02 -0.11504990869E+03 -0.17779695726E+02  0.11853135748E+03  0.41800000000E+01 0. -1.
         -5    1    3    3    0  502 -0.32211508063E+02  0.17038075201E+02  0.34186032557E+02  0.50140148387E+02  0.41800000000E+01 0. -1.
        -11    1    1    2    0    0 -0.10166811007E+02  0.50399974760E+02 -0.68586482781E+02  0.85718300976E+02  0.00000000000E+00 0. -1.
         11    1    1    2    0    0  0.64278347281E+02  0.47611858730E+02 -0.18013550867E+02  0.81994408564E+02  0.00000000000E+00 0.  1.
</event>
<event>
 7    1  0.2728221E-009  0.1135161E+03  0.7561462E-02  0.1254194E+00
          2   -1    0    0  501    0  0.00000000000E+00  0.00000000000E+00  0.10310185369E+03  0.10310185369E+03  0.00000000000E+00 0. -1.
         -2   -1    0    0    0  501 -0.00000000000E+00 -0.00000000000E+00 -0.20753488604E+03  0.20753488604E+03  0.00000000000E+00 0.  1.
         25    2    1    2    0    0  0.25631378787E+01 -0.70506003982E+02 -0.12959324769E+03  0.19343841654E+03  0.12508535035E+03 0.  0.
          5    1    3    3  502    0  0.48350332956E+02  0.30564300445E+01 -0.79705230298E+02  0.93367513613E+02  0.41800000000E+01 0.  1.
         -5    1    3    3    0  502 -0.45787195077E+02 -0.73562434027E+02 -0.49888017389E+02  0.10007090292E+03  0.41800000000E+01 0.  1.
        -11    1    1    2    0    0  0.17321101744E+02 -0.10853194761E+01  0.38018604087E+02  0.41792496225E+02  0.00000000000E+00 0. -1.
         11    1    1    2    0    0 -0.19884239623E+02  0.71591323458E+02 -0.12858388746E+02  0.75405826970E+02  0.00000000000E+00 0.  1.
</event>
<event>
 6    1  0.2728221E-009  0.1640196E+03  0.7561462E-02  0.1184232E+00
         -1   -1    0    0    0  501 -0.00000000000E+00  0.00000000000E+00  0.76646857408E+02  0.76646857408E+02  0.00000000000E+00 0.  1.
          1   -1    0    0  501    0  0.00000000000E+00 -0.00000000000E+00 -0.53155538035E+03  0.53155538035E+03  0.00000000000E+00 0. -1.
          5    1    1    2  502    0  0.92702297133E+01  0.18106283105E+02  0.21840548686E+02  0.30137296059E+02  0.41800000000E+01 0.  1.
         -5    1    1    2    0  502 -0.10954882660E+03  0.85668940803E+02 -0.12414554059E+03  0.18646635213E+03  0.41800000000E+01 0.  1.
        -11    1    1    2    0    0  0.19908806999E+01  0.14341515956E+02 -0.15994369770E+02  0.21574581113E+02  0.00000000000E+00 0. -1.
         11    1    1    2    0    0  0.98287716184E+02 -0.11811673986E+03 -0.33660916127E+03  0.37002400846E+03  0.00000000000E+00 0.  1.
</event>
<event>
 7    1  0.2728221E-009  0.1638565E+03  0.7561462E-02  0.1184410E+00
         -1   -1    0    0    0  501 -0.00000000000E+00  0.00000000000E+00  0.16607648168E+03  0.16607648168E+03  0.00000000000E+00 0.  1.
          1   -1    0    0  501    0  0.00000000000E+00 -0.00000000000E+00 -0.36219230225E+03  0.36219230225E+03  0.00000000000E+00 0. -1.
         25    2    1    2    0    0 -0.66043789948E+02  0.14245381062E+03  0.63777104596E+02  0.21063842358E+03  0.12508459563E+03 0.  0.
          5    1    3    3  502    0 -0.56999286737E+02  0.85270110344E+02  0.99106656503E+02  0.14268676242E+03  0.41800000000E+01 0.  1.
         -5    1    3    3    0  502 -0.90445032115E+01  0.57183700280E+02 -0.35329551907E+02  0.67951661157E+02  0.41800000000E+01 0.  1.
        -11    1    1    2    0    0  0.73753963628E+02 -0.10221894854E+03 -0.12851120275E+03  0.18000969369E+03  0.00000000000E+00 0.  1.
         11    1    1    2    0    0 -0.77101736798E+01 -0.40234862083E+02 -0.13138172242E+03  0.13762066666E+03  0.00000000000E+00 0. -1.
</event>
<event>
 7    1  0.2728221E-009  0.9297723E+02  0.7561462E-02  0.1295798E+00
         -1   -1    0    0    0  501 -0.00000000000E+00  0.00000000000E+00  0.10212239921E+03  0.10212239921E+03  0.00000000000E+00 0.  1.
          1   -1    0    0  501    0  0.00000000000E+00 -0.00000000000E+00 -0.16885303780E+03  0.16885303780E+03  0.00000000000E+00 0. -1.
         25    2    1    2    0    0 -0.13899146546E+01 -0.23297392175E+02  0.35972686538E+02  0.13220983203E+03  0.12506280488E+03 0.  0.
          5    1    3    3  502    0  0.53751009475E+02  0.16251222676E+02  0.30411286848E+02  0.63996812622E+02  0.41800000000E+01 0.  1.
         -5    1    3    3    0  502 -0.55140924129E+02 -0.39548614851E+02  0.55613996901E+01  0.68213019410E+02  0.41800000000E+01 0.  1.
        -11    1    1    2    0    0  0.11500793823E+02 -0.16770551717E+02  0.70245437100E+01  0.21514271491E+02  0.00000000000E+00 0.  1.
         11    1    1    2    0    0 -0.10110879168E+02  0.40067943893E+02 -0.10972786884E+03  0.11725133349E+03  0.00000000000E+00 0. -1.
</event>
<event>
 7    1  0.2728221E-009  0.1808032E+03  0.7561462E-02  0.1167028E+00
          1   -1    0    0  501    0  0.00000000000E+00  0.00000000000E+00  0.10219875937E+04  0.10219875937E+04  0.00000000000E+00 0. -1.
         -1   -1    0    0    0  501 -0.00000000000E+00 -0.00000000000E+00 -0.36140874567E+02  0.36140874567E+02  0.00000000000E+00 0.  1.
         25    2    1    2    0    0 -0.11157256445E+03  0.99758587763E+02  0.37834969033E+03  0.42567125433E+03  0.12508923063E+03 0.  0.
          5    1    3    3  502    0 -0.52414079476E+02  0.11637954992E+03  0.29970531670E+03  0.32577934960E+03  0.41800000000E+01 0.  1.
         -5    1    3    3    0  502 -0.59158484970E+02 -0.16620962158E+02  0.78644373626E+02  0.99891904727E+02  0.41800000000E+01 0.  1.
        -11    1    1    2    0    0 -0.11928457403E+02 -0.25627839135E+02  0.59940253589E+02  0.66271473766E+02  0.00000000000E+00 0. -1.
         11    1    1    2    0    0  0.12350102185E+03 -0.74130748627E+02  0.54755677519E+03  0.56618574014E+03  0.00000000000E+00 0.  1.
</event>
<event>
 7    1  0.2728221E-009  0.9386681E+02  0.7561462E-02  0.1293749E+00
          2   -1    0    0  501    0  0.00000000000E+00  0.00000000000E+00  0.85729593722E+02  0.85729593722E+02  0.00000000000E+00 0. -1.
         -2   -1    0    0    0  501 -0.00000000000E+00 -0.00000000000E+00 -0.15763406498E+03  0.15763406498E+03  0.00000000000E+00 0.  1.
         25    2    1    2    0    0  0.13432804574E+02  0.97242823752E+01 -0.81424253497E+02  0.15017488782E+03  0.12509031124E+03 0.  0.
          5    1    3    3  502    0 -0.44765907897E+02  0.60592410287E+01 -0.79674214518E+02  0.91685079324E+02  0.41800000000E+01 0.  1.
         -5    1    3    3    0  502  0.58198712470E+02  0.36650413465E+01 -0.17500389790E+01  0.58489808494E+02  0.41800000000E+01 0.  1.
        -11    1    1    2    0    0  0.33477472631E+02  0.68117371348E+01 -0.15495229807E+02  0.37513238774E+02  0.00000000000E+00 0.  1.
         11    1    1    2    0    0 -0.46910277205E+02 -0.16536019510E+02  0.25015012042E+02  0.55675532114E+02  0.00000000000E+00 0. -1.
</event>
<event>
 7    1  0.2728221E-009  0.1059860E+03  0.7561462E-02  0.1268189E+00
         -1   -1    0    0    0  501 -0.00000000000E+00  0.00000000000E+00  0.65402011423E+02  0.65402011423E+02  0.00000000000E+00 0.  1.
          1   -1    0    0  501    0  0.00000000000E+00 -0.00000000000E+00 -0.19646062564E+03  0.19646062564E+03  0.00000000000E+00 0. -1.
         25    2    1    2    0    0 -0.82767240395E+01  0.28482268943E+01 -0.38461784909E+02  0.13115877493E+03  0.12508676503E+03 0.  0.
          5    1    3    3  502    0 -0.25046358882E+02  0.58859373339E+02 -0.33508847828E+02  0.72332988366E+02  0.41800000000E+01 0. -1.
         -5    1    3    3    0  502  0.16769634843E+02 -0.56011146445E+02 -0.49529370808E+01  0.58825786561E+02  0.41800000000E+01 0. -1.
        -11    1    1    2    0    0 -0.13140611973E+02  0.39590973326E+02 -0.26989032937E+02  0.49684290785E+02  0.00000000000E+00 0.  1.
         11    1    1    2    0    0  0.21417336013E+02 -0.42439200221E+02 -0.65607796372E+02  0.81019571351E+02  0.00000000000E+00 0. -1.
</event>
<event>
 7    1  0.2728221E-009  0.9166675E+02  0.7561462E-02  0.1298865E+00
         -1   -1    0    0    0  501 -0.00000000000E+00  0.00000000000E+00  0.25611765817E+03  0.25611765817E+03  0.00000000000E+00 0.  1.
          1   -1    0    0  501    0  0.00000000000E+00 -0.00000000000E+00 -0.58507086476E+02  0.58507086476E+02  0.00000000000E+00 0. -1.
         25    2    1    2    0    0 -0.96759111520E+01 -0.39999715205E+02  0.55272798511E+02  0.14281423447E+03  0.12508885977E+03 0.  0.
          5    1    3    3  502    0  0.42528134128E+02 -0.38115437293E+02 -0.11017152840E+02  0.58311909668E+02  0.41800000000E+01 0.  1.
         -5    1    3    3    0  502 -0.52204045280E+02 -0.18842779125E+01  0.66289951351E+02  0.84502324802E+02  0.41800000000E+01 0.  1.
        -11    1    1    2    0    0 -0.25780653310E+02  0.22057712965E+02  0.12714888585E+02  0.36233315858E+02  0.00000000000E+00 0. -1.
         11    1    1    2    0    0  0.35456564462E+02  0.17942002240E+02  0.12962288460E+03  0.13557719432E+03  0.00000000000E+00 0.  1.
</event>
<event>
 7    1  0.2728221E-009  0.9314381E+02  0.7561462E-02  0.1295412E+00
         -2   -1    0    0    0  501 -0.00000000000E+00  0.00000000000E+00  0.88187334458E+02  0.88187334458E+02  0.00000000000E+00 0.  1.
          2   -1    0    0  501    0  0.00000000000E+00 -0.00000000000E+00 -0.19150576763E+03  0.19150576763E+03  0.00000000000E+00 0. -1.
         25    2    1    2    0    0  0.28731890632E+02 -0.65245574294E+02 -0.28868920575E+02  0.14684110635E+03  0.12508552848E+03 0.  0.
          5    1    3    3  502    0  0.32199684400E+02 -0.25249412023E+02 -0.75003750953E+02  0.85541729816E+02  0.41800000000E+01 0.  1.
         -5    1    3    3    0  502 -0.34677937684E+01 -0.39996162271E+02  0.46134830377E+02  0.61299376538E+02  0.41800000000E+01 0.  1.
        -11    1    1    2    0    0 -0.50878208312E+02  0.20474234258E+02 -0.18569009824E+02  0.57901593029E+02  0.00000000000E+00 0.  1.
         11    1    1    2    0    0  0.22146317680E+02  0.44771340036E+02 -0.55880502770E+02  0.74950402703E+02  0.00000000000E+00 0. -1.
</event>
<event>
 7    1  0.2728221E-009  0.1322689E+03  0.7561462E-02  0.1224127E+00
         -2   -1    0    0    0  501 -0.00000000000E+00  0.00000000000E+00  0.36192037014E+02  0.36192037014E+02  0.00000000000E+00 0.  1.
          2   -1    0    0  501    0  0.00000000000E+00 -0.00000000000E+00 -0.76646472203E+03  0.76646472203E+03  0.00000000000E+00 0. -1.
         25    2    1    2    0    0  0.53327412192E+02  0.11363277961E+03 -0.35387849445E+03  0.39576998966E+03  0.12509066470E+03 0.  0.
          5    1    3    3  502    0  0.10365466748E+02  0.66955624144E+02 -0.47465329652E+02  0.82830721501E+02  0.41800000000E+01 0. -1.
         -5    1    3    3    0  502  0.42961945444E+02  0.46677155462E+02 -0.30641316479E+03  0.31293926816E+03  0.41800000000E+01 0. -1.
        -11    1    1    2    0    0 -0.48633084735E+02 -0.51738612839E+02 -0.94303070915E+02  0.11804715233E+03  0.00000000000E+00 0.  1.
         11    1    1    2    0    0 -0.46943274573E+01 -0.61894166767E+02 -0.28209111965E+03  0.28883961705E+03  0.00000000000E+00 0. -1.
</event>
<event>
 7    1  0.2728221E-009  0.1274148E+03  0.7561462E-02  0.1231343E+00
         -2   -1    0    0    0  501 -0.00000000000E+00  0.00000000000E+00  0.57892018586E+02  0.57892018586E+02  0.00000000000E+00 0.  1.
          2   -1    0    0  501    0  0.00000000000E+00 -0.00000000000E+00 -0.44038713568E+03  0.44038713568E+03  0.00000000000E+00 0. -1.
         25    2    1    2    0    0 -0.15017060354E+02 -0.11288340009E+03 -0.16590046310E+03  0.23693655950E+03  0.12509114859E+03 0.  0.
          5    1    3    3  502    0 -0.30187976021E+01 -0.43060151664E+02  0.12337880922E+02  0.45088640542E+02  0.41800000000E+01 0. -1.
         -5    1    3    3    0  502 -0.11998262752E+02 -0.69823248426E+02 -0.17823834402E+03  0.19184791896E+03  0.41800000000E+01 0. -1.
        -11    1    1    2    0    0 -0.15183125006E+02 -0.71036583344E+01 -0.74589416703E+01  0.18347344700E+02  0.00000000000E+00 0.  1.
         11    1    1    2    0    0  0.30200185360E+02  0.11998705842E+03 -0.20913571233E+03  0.24299525007E+03  0.00000000000E+00 0. -1.
</event>
<event>
 7    1  0.2735979E-009  0.8073621E+02  0.7561462E-02  0.1326975E+00
          1   -1    0    0  501    0  0.00000000000E+00  0.00000000000E+00  0.23207746592E+03  0.23207746592E+03  0.00000000000E+00 0. -1.
         -1   -1    0    0    0  501 -0.00000000000E+00 -0.00000000000E+00 -0.87525121105E+02  0.87525121105E+02  0.00000000000E+00 0.  1.
         25    2    1    2    0    0 -0.52461021182E+02  0.36570061449E+02  0.15331393173E+03  0.20794720215E+03  0.12508936438E+03 0.  0.
          5    1    3    3  502    0 -0.42082472076E+02  0.52938035914E+02  0.16542183923E+02  0.69745869780E+02  0.41800000000E+01 0. -1.
         -5    1    3    3    0  502 -0.10378549106E+02 -0.16367974464E+02  0.13677174781E+03  0.13820133237E+03  0.41800000000E+01 0. -1.
        -11    1    1    2    0    0  0.44899274904E+02 -0.96453819077E+01 -0.46056365231E+02  0.65039734450E+02  0.00000000000E+00 0.  1.
         11    1    1    2    0    0  0.75617462781E+01 -0.26924679542E+02  0.37294778317E+02  0.46615650429E+02  0.00000000000E+00 0. -1.
</event>
<event>
 7    1  0.2728221E-009  0.1259229E+03  0.7561462E-02  0.1233634E+00
         -1   -1    0    0    0  501 -0.00000000000E+00  0.00000000000E+00  0.33131196576E+03  0.33131196576E+03  0.00000000000E+00 0.  1.
          1   -1    0    0  501    0  0.00000000000E+00 -0.00000000000E+00 -0.10566112842E+03  0.10566112842E+03  0.00000000000E+00 0. -1.
         25    2    1    2    0    0  0.10587991730E+02  0.99980152512E+02 -0.14395917440E+02  0.16112495300E+03  0.12508345844E+03 0.  0.
          5    1    3    3  502    0  0.36626835202E+01 -0.10779487003E+02  0.36866374407E+02  0.38809980064E+02  0.41800000000E+01 0.  1.
         -5    1    3    3    0  502  0.69253082098E+01  0.11075963952E+03 -0.51262291847E+02  0.12231497294E+03  0.41800000000E+01 0.  1.
        -11    1    1    2    0    0  0.33185902399E+02 -0.63631046254E+02  0.88302659679E+02  0.11378740647E+03  0.00000000000E+00 0. -1.
         11    1    1    2    0    0 -0.43773894129E+02 -0.36349106258E+02  0.15174409510E+03  0.16206073470E+03  0.00000000000E+00 0.  1.
</event>
<event>
 7    1  0.2728221E-009  0.9948972E+02  0.7561462E-02  0.1281373E+00
          2   -1    0    0  501    0  0.00000000000E+00  0.00000000000E+00  0.30558329771E+03  0.30558329771E+03  0.00000000000E+00 0. -1.
         -2   -1    0    0    0  501 -0.00000000000E+00 -0.00000000000E+00 -0.57645127936E+02  0.57645127936E+02  0.00000000000E+00 0.  1.
         25    2    1    2    0    0 -0.49596632257E+02 -0.23714625043E+02  0.63607291776E+02  0.15072282141E+03  0.12509705014E+03 0.  0.
          5    1    3    3  502    0  0.13755886676E+02  0.15526182158E+02 -0.26374887172E+02  0.33814106878E+02  0.41800000000E+01 0.  1.
         -5    1    3    3    0  502 -0.63352518933E+02 -0.39240807201E+02  0.89982178947E+02  0.11690871453E+03  0.41800000000E+01 0.  1.
        -11    1    1    2    0    0  0.33310584657E+02 -0.31359412042E+02  0.59141045924E+02  0.74770790332E+02  0.00000000000E+00 0.  1.
         11    1    1    2    0    0  0.16286047600E+02  0.55074037086E+02  0.12518983208E+03  0.13773481391E+03  0.00000000000E+00 0. -1.
</event>
<event>
 7    1  0.2728221E-009  0.1340834E+03  0.7561462E-02  0.1221519E+00
         -2   -1    0    0    0  501 -0.00000000000E+00  0.00000000000E+00  0.76403094956E+03  0.76403094956E+03  0.00000000000E+00 0.  1.
          2   -1    0    0  501    0  0.00000000000E+00 -0.00000000000E+00 -0.44446154969E+02  0.44446154969E+02  0.00000000000E+00 0. -1.
         25    2    1    2    0    0 -0.39565518255E+02 -0.11383121608E+03  0.18752843346E+03  0.25561151068E+03  0.12508938823E+03 0.  0.
          5    1    3    3  502    0 -0.24292140667E+02 -0.52847545096E+02  0.56388361536E+00  0.58316048268E+02  0.41800000000E+01 0.  1.
         -5    1    3    3    0  502 -0.15273377588E+02 -0.60983670987E+02  0.18696454985E+03  0.19729546241E+03  0.41800000000E+01 0.  1.
        -11    1    1    2    0    0  0.51872194883E+02  0.25752140342E+02  0.26961994029E+03  0.27576948623E+03  0.00000000000E+00 0.  1.
         11    1    1    2    0    0 -0.12306676628E+02  0.88079075741E+02  0.26243642084E+03  0.27709610762E+03  0.00000000000E+00 0. -1.
</event>
<event>
 7    1  0.2728221E-009  0.6704191E+02  0.7561462E-02  0.1370451E+00
         -3   -1    0    0    0  501 -0.00000000000E+00  0.00000000000E+00  0.50723638979E+02  0.50723638979E+02  0.00000000000E+00 0.  1.
          3   -1    0    0  501    0  0.00000000000E+00 -0.00000000000E+00 -0.35913365468E+03  0.35913365468E+03  0.00000000000E+00 0. -1.
         25    2    1    2    0    0  0.23503190953E+02 -0.48741816347E+01 -0.53926545098E+02  0.13831641563E+03  0.12508877221E+03 0.  0.
          5    1    3    3  502    0  0.35484309390E+02  0.15488676924E+02  0.31183541596E+02  0.49889086905E+02  0.41800000000E+01 0. -1.
         -5    1    3    3    0  502 -0.11981118437E+02 -0.20362858559E+02 -0.85110086694E+02  0.88427328721E+02  0.41800000000E+01 0. -1.
        -11    1    1    2    0    0 -0.17503801840E+02  0.35691505767E+02 -0.22495577641E+03  0.22844116967E+03  0.00000000000E+00 0. -1.
         11    1    1    2    0    0 -0.59993891125E+01 -0.30817324132E+02 -0.29527694200E+02  0.43099708365E+02  0.00000000000E+00 0.  1.
</event>
<event>
 7    1  0.2728221E-009  0.1207391E+03  0.7561462E-02  0.1241883E+00
          3   -1    0    0  501    0  0.00000000000E+00  0.00000000000E+00  0.13127214079E+02  0.13127214079E+02  0.00000000000E+00 0. -1.
         -3   -1    0    0    0  501 -0.00000000000E+00 -0.00000000000E+00 -0.15040314818E+04  0.15040314818E+04  0.00000000000E+00 0.  1.
         25    2    1    2    0    0  0.64917405175E+02  0.28408456273E+02 -0.11326140363E+04  0.11417024114E+04  0.12509408910E+03 0.  0.
          5    1    3    3  502    0  0.36914720374E+02 -0.48859874989E+02 -0.46311592122E+03  0.46716572312E+03  0.41800000000E+01 0.  1.
         -5    1    3    3    0  502  0.28002684801E+02  0.77268331262E+02 -0.66949811507E+03  0.67453668830E+03  0.41800000000E+01 0.  1.
        -11    1    1    2    0    0 -0.10458314242E+02 -0.40662284143E+02 -0.25126387650E+03  0.25474758747E+03  0.00000000000E+00 0.  1.
         11    1    1    2    0    0 -0.54459090933E+02  0.12253827870E+02 -0.10702635497E+03  0.12070869704E+03  0.00000000000E+00 0. -1.
</event>
<event>
 7    1  0.2728221E-009  0.1176325E+03  0.7561462E-02  0.1247055E+00
          2   -1    0    0  501    0  0.00000000000E+00  0.00000000000E+00  0.24759981896E+03  0.24759981896E+03  0.00000000000E+00 0. -1.
         -2   -1    0    0    0  501 -0.00000000000E+00 -0.00000000000E+00 -0.89553490250E+02  0.89553490250E+02  0.00000000000E+00 0.  1.
         25    2    1    2    0    0  0.51556054658E+02 -0.66345548603E+02  0.21854500804E+02  0.15226681599E+03  0.12509118856E+03 0.  0.
          5    1    3    3  502    0  0.74468905131E+02 -0.32083380127E+02 -0.29408655932E+02  0.86355674715E+02  0.41800000000E+01 0.  1.
         -5    1    3    3    0  502 -0.22912850473E+02 -0.34262168476E+02  0.51263156736E+02  0.65911141274E+02  0.41800000000E+01 0.  1.
        -11    1    1    2    0    0 -0.44333421349E+02 -0.15528452733E+01  0.95750723585E+02  0.10552755396E+03  0.00000000000E+00 0. -1.
         11    1    1    2    0    0 -0.72226333084E+01  0.67898393876E+02  0.40441104324E+02  0.79358939269E+02  0.00000000000E+00 0.  1.
</event>
<event>
 7    1  0.2728221E-009  0.1117391E+03  0.7561462E-02  0.1257383E+00
          1   -1    0    0  501    0  0.00000000000E+00  0.00000000000E+00  0.47540941816E+02  0.47540941816E+02  0.00000000000E+00 0.  1.
         -1   -1    0    0    0  501 -0.00000000000E+00 -0.00000000000E+00 -0.46953361196E+03  0.46953361196E+03  0.00000000000E+00 0. -1.
         25    2    1    2    0    0 -0.30586943374E+02 -0.66876849713E+02 -0.10696458896E+03  0.18026859262E+03  0.12508904054E+03 0.  0.
          5    1    3    3  502    0 -0.62721484498E+01  0.25241841374E+02  0.11025764460E+02  0.28557490857E+02  0.41800000000E+01 0. -1.
         -5    1    3    3    0  502 -0.24314794924E+02 -0.92118691087E+02 -0.11799035342E+03  0.15171110177E+03  0.41800000000E+01 0. -1.
        -11    1    1    2    0    0 -0.53606992653E+01  0.65579980224E+02 -0.10641556808E+03  0.12511492330E+03  0.00000000000E+00 0. -1.
         11    1    1    2    0    0  0.35947642640E+02  0.12968694889E+01 -0.20861251311E+03  0.21169103785E+03  0.00000000000E+00 0.  1.
</event>
<event>
 7    1  0.2728221E-009  0.1235829E+03  0.7561462E-02  0.1237301E+00
         -1   -1    0    0    0  501 -0.00000000000E+00  0.00000000000E+00  0.12199371752E+03  0.12199371752E+03  0.00000000000E+00 0.  1.
          1   -1    0    0  501    0  0.00000000000E+00 -0.00000000000E+00 -0.17770058239E+03  0.17770058239E+03  0.00000000000E+00 0. -1.
         25    2    1    2    0    0 -0.77765823475E+02  0.60171150269E+02 -0.32341370421E+02  0.16236010863E+03  0.12508696977E+03 0.  0.
          5    1    3    3  502    0 -0.41060390056E+02 -0.28606202559E+02 -0.42340502857E+02  0.65684557078E+02  0.41800000000E+01 0.  1.
         -5    1    3    3    0  502 -0.36705433419E+02  0.88777352827E+02  0.99991324362E+01  0.96675551548E+02  0.41800000000E+01 0.  1.
        -11    1    1    2    0    0  0.68226851395E+02 -0.41586591123E+02 -0.56713576168E+02  0.97983557468E+02  0.00000000000E+00 0. -1.
         11    1    1    2    0    0  0.95389720804E+01 -0.18584559146E+02  0.33348081716E+02  0.39350633809E+02  0.00000000000E+00 0.  1.
</event>
<event>
 6    1  0.2728221E-009  0.1662978E+03  0.7561462E-02  0.1181765E+00
          2   -1    0    0  501    0  0.00000000000E+00  0.00000000000E+00  0.17343498122E+04  0.17343498122E+04  0.00000000000E+00 0. -1.
         -2   -1    0    0    0  501 -0.00000000000E+00 -0.00000000000E+00 -0.23160172771E+02  0.23160172771E+02  0.00000000000E+00 0.  1.
          5    1    1    2  502    0 -0.90438217371E+02 -0.88415828841E+02  0.44857664935E+03  0.46608466258E+03  0.41800000000E+01 0.  1.
         -5    1    1    2    0  502 -0.28774409646E+02 -0.18617242948E+02  0.66395545885E+03  0.66485253412E+03  0.41800000000E+01 0.  1.
        -11    1    1    2    0    0  0.11361687961E+03  0.68674619188E+02  0.54131315110E+03  0.55735529620E+03  0.00000000000E+00 0.  1.
         11    1    1    2    0    0  0.55957474054E+01  0.38358452600E+02  0.57344380083E+02  0.69217492024E+02  0.00000000000E+00 0. -1.
</event>
<event>
 7    1  0.2728221E-009  0.1412388E+03  0.7561462E-02  0.1211672E+00
          1   -1    0    0  501    0  0.00000000000E+00  0.00000000000E+00  0.12574454226E+04  0.12574454226E+04  0.00000000000E+00 0.  1.
         -1   -1    0    0    0  501 -0.00000000000E+00 -0.00000000000E+00 -0.24738644474E+02  0.24738644474E+02  0.00000000000E+00 0. -1.
         25    2    1    2    0    0 -0.96238864105E+02  0.75238123752E+02  0.88074917195E+03  0.89793640578E+03  0.12509192902E+03 0.  0.
          5    1    3    3  502    0 -0.67537327767E+02  0.75104523240E+02  0.30219031680E+03  0.31865096897E+03  0.41800000000E+01 0.  1.
         -5    1    3    3    0  502 -0.28701536338E+02  0.13360051290E+00  0.57855885514E+03  0.57928543681E+03  0.41800000000E+01 0.  1.
        -11    1    1    2    0    0  0.32878419869E+02 -0.82304407681E+02  0.23292972496E+03  0.24922131286E+03  0.00000000000E+00 0.  1.
         11    1    1    2    0    0  0.63360444236E+02  0.70662839286E+01  0.11902788121E+03  0.13502634842E+03  0.00000000000E+00 0. -1.
</event>
<event>
 7    1  0.2728221E-009  0.1317741E+03  0.7561462E-02  0.1224847E+00
         -1   -1    0    0    0  501 -0.00000000000E+00  0.00000000000E+00  0.35926891714E+03  0.35926891714E+03  0.00000000000E+00 0.  1.
          1   -1    0    0  501    0  0.00000000000E+00 -0.00000000000E+00 -0.57997433769E+02  0.57997433769E+02  0.00000000000E+00 0. -1.
         25    2    1    2    0    0 -0.77011888696E+02 -0.28244956651E+02  0.95301996168E+02  0.17736692741E+03  0.12509175788E+03 0.  0.
          5    1    3    3  502    0 -0.58109109056E+01  0.41827373948E+02  0.55229894527E+02  0.69649907009E+02  0.41800000000E+01 0.  1.
         -5    1    3    3    0  502 -0.71200977790E+02 -0.70072330599E+02  0.40072101641E+02  0.10771702040E+03  0.41800000000E+01 0.  1.
        -11    1    1    2    0    0  0.12421527033E+02 -0.31052642372E+02  0.39559703220E+02  0.51802809296E+02  0.00000000000E+00 0. -1.
         11    1    1    2    0    0  0.64590361663E+02  0.59297599023E+02  0.16640978399E+03  0.18809661421E+03  0.00000000000E+00 0.  1.
</event>
<event>
 7    1  0.2728221E-009  0.1497799E+03  0.7561462E-02  0.1200744E+00
         -2   -1    0    0    0  501 -0.00000000000E+00  0.00000000000E+00  0.18476224467E+03  0.18476224467E+03  0.00000000000E+00 0.  1.
          2   -1    0    0  501    0  0.00000000000E+00 -0.00000000000E+00 -0.17700888988E+03  0.17700888988E+03  0.00000000000E+00 0. -1.
         25    2    1    2    0    0  0.11924099128E+03  0.76555642553E+02 -0.28828221598E+02  0.19119968472E+03  0.12508825950E+03 0.  0.
          5    1    3    3  502    0  0.10935155911E+03  0.64095626151E+02  0.29827879129E+02  0.13028118646E+03  0.41800000000E+01 0.  1.
         -5    1    3    3    0  502  0.98894321734E+01  0.12460016402E+02 -0.58656100727E+02  0.60918498257E+02  0.41800000000E+01 0.  1.
        -11    1    1    2    0    0 -0.32363470549E+02 -0.59534108955E+02 -0.13155473918E+02  0.69027319585E+02  0.00000000000E+00 0. -1.
         11    1    1    2    0    0 -0.86877520735E+02 -0.17021533598E+02  0.49737050307E+02  0.10154413025E+03  0.00000000000E+00 0.  1.
</event>
<event>
 7    1  0.2728221E-009  0.1003775E+03  0.7561462E-02  0.1279504E+00
         -1   -1    0    0    0  501 -0.00000000000E+00  0.00000000000E+00  0.11480541121E+03  0.11480541121E+03  0.00000000000E+00 0.  1.
          1   -1    0    0  501    0  0.00000000000E+00 -0.00000000000E+00 -0.15700938342E+03  0.15700938342E+03  0.00000000000E+00 0. -1.
         25    2    1    2    0    0 -0.65805948904E+02  0.21967450932E+02  0.11198301539E+02  0.14347673847E+03  0.12508869139E+03 0.  0.
          5    1    3    3  502    0 -0.52692056489E+02 -0.24050953737E+02  0.53882138467E+02  0.79219053506E+02  0.41800000000E+01 0. -1.
         -5    1    3    3    0  502 -0.13113892414E+02  0.46018404669E+02 -0.42683836927E+02  0.64257684967E+02  0.41800000000E+01 0. -1.
        -11    1    1    2    0    0 -0.10275920266E+02 -0.15092120945E+02 -0.48461097908E+02  0.51786529739E+02  0.00000000000E+00 0. -1.
         11    1    1    2    0    0  0.76081869170E+02 -0.68753299878E+01 -0.49411758447E+01  0.76551526422E+02  0.00000000000E+00 0.  1.
</event>
<event>
 7    1  0.2728221E-009  0.1718723E+03  0.7561462E-02  0.1175909E+00
         -3   -1    0    0    0  501 -0.00000000000E+00  0.00000000000E+00  0.56630690538E+02  0.56630690538E+02  0.00000000000E+00 0. -1.
          3   -1    0    0  501    0  0.00000000000E+00 -0.00000000000E+00 -0.78769524968E+03  0.78769524968E+03  0.00000000000E+00 0.  1.
         25    2    1    2    0    0  0.14429101167E+02 -0.15835495918E+03 -0.55335667497E+03  0.58918207236E+03  0.12508961825E+03 0.  0.
          5    1    3    3  502    0  0.44078607780E+02 -0.43077539442E+02 -0.80017617570E+02  0.10108852353E+03  0.41800000000E+01 0.  1.
         -5    1    3    3    0  502 -0.29649506613E+02 -0.11527741973E+03 -0.47333905740E+03  0.48809354882E+03  0.41800000000E+01 0.  1.
        -11    1    1    2    0    0  0.34011551056E+01  0.12499721298E+03 -0.75279840682E+02  0.14595521752E+03  0.00000000000E+00 0. -1.
         11    1    1    2    0    0 -0.17830256273E+02  0.33357746198E+02 -0.10242804349E+03  0.10918865034E+03  0.00000000000E+00 0.  1.
</event>
<event>
 7    1  0.2728221E-009  0.1072918E+03  0.7561462E-02  0.1265669E+00
         -2   -1    0    0    0  501 -0.00000000000E+00  0.00000000000E+00  0.15826140817E+03  0.15826140817E+03  0.00000000000E+00 0.  1.
          2   -1    0    0  501    0  0.00000000000E+00 -0.00000000000E+00 -0.91458175668E+02  0.91458175668E+02  0.00000000000E+00 0. -1.
         25    2    1    2    0    0 -0.27844506710E+02 -0.42605068711E+02  0.49715094849E+02  0.14390925526E+03  0.12509106546E+03 0.  0.
          5    1    3    3  502    0 -0.17351785168E+02 -0.80326835279E+02  0.61588330946E+02  0.10278170958E+03  0.41800000000E+01 0. -1.
         -5    1    3    3    0  502 -0.10492721543E+02  0.37721766568E+02 -0.11873236097E+02  0.41127545682E+02  0.41800000000E+01 0. -1.
        -11    1    1    2    0    0 -0.24790256699E+02  0.29777364830E+02 -0.16450661908E+02  0.42093616626E+02  0.00000000000E+00 0. -1.
         11    1    1    2    0    0  0.52634763409E+02  0.12827703880E+02  0.33538799557E+02  0.63716711950E+02  0.00000000000E+00 0.  1.
</event>
<event>
 7    1  0.2728221E-009  0.2858019E+03  0.7561462E-02  0.1092562E+00
         -1   -1    0    0    0  501 -0.00000000000E+00  0.00000000000E+00  0.45832226528E+03  0.45832226528E+03  0.00000000000E+00 0.  1.
          1   -1    0    0  501    0  0.00000000000E+00 -0.00000000000E+00 -0.18619874165E+03  0.18619874165E+03  0.00000000000E+00 0. -1.
         25    2    1    2    0    0  0.19885143089E+03  0.17576060691E+03  0.20037185606E+03  0.35528858840E+03  0.12508963921E+03 0.  0.
          5    1    3    3  502    0  0.19275935554E+03  0.19330585617E+03  0.19499859741E+03  0.33550744934E+03  0.41800000000E+01 0. -1.
         -5    1    3    3    0  502  0.60920753541E+01 -0.17545249259E+02  0.53732586538E+01  0.19781139053E+02  0.41800000000E+01 0. -1.
        -11    1    1    2    0    0 -0.48115496356E+02 -0.99706389868E+02  0.18846890664E+02  0.11230169392E+03  0.00000000000E+00 0.  1.
         11    1    1    2    0    0 -0.15073593453E+03 -0.76054217039E+02  0.52904776909E+02  0.17693072460E+03  0.00000000000E+00 0. -1.
</event>
<event>
 7    1  0.2728221E-009  0.1263944E+03  0.7561462E-02  0.1232906E+00
          1   -1    0    0  501    0  0.00000000000E+00  0.00000000000E+00  0.22092564067E+03  0.22092564067E+03  0.00000000000E+00 0. -1.
         -1   -1    0    0    0  501 -0.00000000000E+00 -0.00000000000E+00 -0.90375034777E+02  0.90375034777E+02  0.00000000000E+00 0.  1.
         25    2    1    2    0    0  0.71348484078E+02  0.43032574398E+02  0.96586372147E+02  0.17865779059E+03  0.12508904915E+03 0.  0.
          5    1    3    3  502    0  0.18753061068E+02 -0.31272131474E+02  0.77209372080E+02  0.85489081428E+02  0.41800000000E+01 0. -1.
         -5    1    3    3    0  502  0.52595423010E+02  0.74304705871E+02  0.19377000067E+02  0.93168709167E+02  0.41800000000E+01 0. -1.
        -11    1    1    2    0    0 -0.90477402388E+02 -0.16066663237E+02  0.37791433529E+02  0.99360406897E+02  0.00000000000E+00 0. -1.
         11    1    1    2    0    0  0.19128918310E+02 -0.26965911161E+02 -0.38271997864E+01  0.33282477952E+02  0.00000000000E+00 0.  1.
</event>
<event>
 7    1  0.2728221E-009  0.1363711E+03  0.7561462E-02  0.1218297E+00
         -2   -1    0    0    0  501 -0.00000000000E+00  0.00000000000E+00  0.56494988298E+02  0.56494988298E+02  0.00000000000E+00 0.  1.
          2   -1    0    0  501    0  0.00000000000E+00 -0.00000000000E+00 -0.47985923504E+03  0.47985923504E+03  0.00000000000E+00 0. -1.
         25    2    1    2    0    0 -0.69558341622E+02 -0.91719964457E+02 -0.29791483029E+03  0.34300237563E+03  0.12508584578E+03 0.  0.
          5    1    3    3  502    0 -0.55360572778E+02  0.61541367854E+01 -0.46080295227E+02  0.72412239477E+02  0.41800000000E+01 0. -1.
         -5    1    3    3    0  502 -0.14197768844E+02 -0.97874101243E+02 -0.25183453506E+03  0.27059013615E+03  0.41800000000E+01 0. -1.
        -11    1    1    2    0    0  0.20753214113E+02  0.48312977189E+02 -0.75544010594E+00  0.52587169068E+02  0.00000000000E+00 0.  1.
         11    1    1    2    0    0  0.48805127509E+02  0.43406987268E+02 -0.12469397635E+03  0.14076467864E+03  0.00000000000E+00 0. -1.
</event>
<event>
 7    1  0.2728221E-009  0.1153253E+03  0.7561462E-02  0.1251014E+00
          2   -1    0    0  501    0  0.00000000000E+00  0.00000000000E+00  0.37152868850E+02  0.37152868850E+02  0.00000000000E+00 0. -1.
         -2   -1    0    0    0  501 -0.00000000000E+00 -0.00000000000E+00 -0.47116718313E+03  0.47116718313E+03  0.00000000000E+00 0.  1.
         25    2    1    2    0    0 -0.63646152332E+02  0.30954219911E+02 -0.19031855964E+03  0.23849175532E+03  0.12509263278E+03 0.  0.
          5    1    3    3  502    0 -0.65157017470E+02 -0.17715723900E+02 -0.36030508672E+02  0.76648246907E+02  0.41800000000E+01 0.  1.
         -5    1    3    3    0  502  0.15108651375E+01  0.48669943811E+02 -0.15428805097E+03  0.16184350842E+03  0.41800000000E+01 0.  1.
        -11    1    1    2    0    0  0.44792010528E+01  0.29322867417E+02 -0.44672072845E+02  0.53623575859E+02  0.00000000000E+00 0. -1.
         11    1    1    2    0    0  0.59166951279E+02 -0.60277087328E+02 -0.19902368179E+03  0.21620472079E+03  0.00000000000E+00 0.  1.
</event>
<event>
 7    1  0.2728221E-009  0.1189499E+03  0.7561462E-02  0.1244839E+00
         -2   -1    0    0    0  501 -0.00000000000E+00  0.00000000000E+00  0.16512340921E+02  0.16512340921E+02  0.00000000000E+00 0.  1.
          2   -1    0    0  501    0  0.00000000000E+00 -0.00000000000E+00 -0.11134335177E+04  0.11134335177E+04  0.00000000000E+00 0. -1.
         25    2    1    2    0    0 -0.61145693591E+02 -0.42444214772E+02 -0.48766719244E+03  0.50892735397E+03  0.12508978303E+03 0.  0.
          5    1    3    3  502    0  0.24201173514E+02 -0.90938309149E+01 -0.28811633805E+03  0.28930415001E+03  0.41800000000E+01 0.  1.
         -5    1    3    3    0  502 -0.85346867106E+02 -0.33350383857E+02 -0.19955085439E+03  0.21962320396E+03  0.41800000000E+01 0.  1.
        -11    1    1    2    0    0  0.30229040972E+02 -0.29153267878E+02 -0.19206916683E+03  0.19660689914E+03  0.00000000000E+00 0.  1.
         11    1    1    2    0    0  0.30916652619E+02  0.71597482649E+02 -0.41718481748E+03  0.42441160548E+03  0.00000000000E+00 0. -1.
</event>
<event>
 7    1  0.2728221E-009  0.1184976E+03  0.7561462E-02  0.1245596E+00
          1   -1    0    0  501    0  0.00000000000E+00  0.00000000000E+00  0.69142751666E+03  0.69142751666E+03  0.00000000000E+00 0. -1.
         -1   -1    0    0    0  501 -0.00000000000E+00 -0.00000000000E+00 -0.22786473715E+02  0.22786473715E+02  0.00000000000E+00 0.  1.
         25    2    1    2    0    0  0.32288791887E+02 -0.57422020484E+02  0.37708555169E+03  0.40271675268E+03  0.12508962818E+03 0.  0.
          5    1    3    3  502    0 -0.22393912206E+02  0.21674050086E+02  0.18728970138E+03  0.18991091700E+03  0.41800000000E+01 0.  1.
         -5    1    3    3    0  502  0.54682704092E+02 -0.79096070571E+02  0.18979585031E+03  0.21280583568E+03  0.41800000000E+01 0.  1.
        -11    1    1    2    0    0 -0.54417954232E+02  0.66024246083E+02  0.21726192549E+03  0.23350216077E+03  0.00000000000E+00 0. -1.
         11    1    1    2    0    0  0.22129162345E+02 -0.86022255989E+01  0.74293565759E+02  0.77995076925E+02  0.00000000000E+00 0.  1.
</event>
<event>
 7    1  0.2728221E-009  0.1031475E+03  0.7561462E-02  0.1273813E+00
          2   -1    0    0  501    0  0.00000000000E+00  0.00000000000E+00  0.42481226538E+03  0.42481226538E+03  0.00000000000E+00 0.  1.
         -2   -1    0    0    0  501 -0.00000000000E+00 -0.00000000000E+00 -0.39864791560E+02  0.39864791560E+02  0.00000000000E+00 0. -1.
         25    2    1    2    0    0  0.44771906040E+02  0.56959645239E+02  0.21765566813E+03  0.26128674038E+03  0.12509135091E+03 0.  0.
          5    1    3    3  502    0  0.82232102302E+02  0.43426783638E+02  0.19294827464E+03  0.21423004755E+03  0.41800000000E+01 0.  1.
         -5    1    3    3    0  502 -0.37460196262E+02  0.13532861601E+02  0.24707393485E+02  0.47056692828E+02  0.41800000000E+01 0.  1.
        -11    1    1    2    0    0 -0.23419927965E+02 -0.37815596672E+02  0.12837004143E+02  0.46295799517E+02  0.00000000000E+00 0. -1.
         11    1    1    2    0    0 -0.21351978075E+02 -0.19144048567E+02  0.15445480155E+03  0.15709451704E+03  0.00000000000E+00 0.  1.
</event>
<event>
 7    1  0.2728221E-009  0.1381437E+03  0.7561462E-02  0.1215849E+00
         -2   -1    0    0    0  501 -0.00000000000E+00  0.00000000000E+00  0.52383741143E+02  0.52383741143E+02  0.00000000000E+00 0.  1.
          2   -1    0    0  501    0  0.00000000000E+00 -0.00000000000E+00 -0.43233506470E+03  0.43233506470E+03  0.00000000000E+00 0. -1.
         25    2    1    2    0    0  0.97445423911E+02 -0.11066655247E+02 -0.15270573978E+03  0.22041861869E+03  0.12508894038E+03 0.  0.
          5    1    3    3  502    0  0.88815155097E+02  0.38229416578E+02 -0.56958809452E+02  0.11230048282E+03  0.41800000000E+01 0. -1.
         -5    1    3    3    0  502  0.86302688134E+01 -0.49296071826E+02 -0.95746930333E+02  0.10811813588E+03  0.41800000000E+01 0. -1.
        -11    1    1    2    0    0 -0.73909632919E+02 -0.31737423831E+02 -0.17596571868E+03  0.19347824699E+03  0.00000000000E+00 0.  1.
         11    1    1    2    0    0 -0.23535790992E+02  0.42804079078E+02 -0.51279865092E+02  0.70821940154E+02  0.00000000000E+00 0. -1.
</event>
<event>
 7    1  0.2728221E-009  0.8658603E+02  0.7561462E-02  0.1311336E+00
          1   -1    0    0  501    0  0.00000000000E+00  0.00000000000E+00  0.12389241313E+03  0.12389241313E+03  0.00000000000E+00 0. -1.
         -1   -1    0    0    0  501 -0.00000000000E+00 -0.00000000000E+00 -0.10699207215E+03  0.10699207215E+03  0.00000000000E+00 0.  1.
         25    2    1    2    0    0  0.18146828525E+02 -0.31673109069E+02  0.30408470159E+02  0.13380842088E+03  0.12509006842E+03 0.  0.
          5    1    3    3  502    0  0.36772920753E+02 -0.59000461740E+02 -0.20816885190E+02  0.72691934183E+02  0.41800000000E+01 0.  1.
         -5    1    3    3    0  502 -0.18626092228E+02  0.27327352671E+02  0.51225355349E+02  0.61116486698E+02  0.41800000000E+01 0.  1.
        -11    1    1    2    0    0  0.91826845278E+01 -0.14130879864E+02  0.25801696381E+02  0.30817705901E+02  0.00000000000E+00 0. -1.
         11    1    1    2    0    0 -0.27329513053E+02  0.45803988933E+02 -0.39309825559E+02  0.66258358502E+02  0.00000000000E+00 0.  1.
</event>
<event>
 7    1  0.2728221E-009  0.2183392E+03  0.7561462E-02  0.1135127E+00
          3   -1    0    0  501    0  0.00000000000E+00  0.00000000000E+00  0.83854683482E+02  0.83854683482E+02  0.00000000000E+00 0. -1.
         -3   -1    0    0    0  501 -0.00000000000E+00 -0.00000000000E+00 -0.77362886404E+03  0.77362886404E+03  0.00000000000E+00 0.  1.
         25    2    1    2    0    0 -0.15259200734E+03 -0.13030419152E+03 -0.16525426600E+03  0.28847825517E+03  0.12508888139E+03 0.  0.
          5    1    3    3  502    0 -0.62498789876E+02  0.12894422481E+02 -0.24944891349E+02  0.68644627404E+02  0.41800000000E+01 0. -1.
         -5    1    3    3    0  502 -0.90093217464E+02 -0.14319861400E+03 -0.14030937465E+03  0.21983362777E+03  0.41800000000E+01 0. -1.
        -11    1    1    2    0    0  0.71133095416E+02  0.38963880039E+02 -0.10917871001E+03  0.13600769070E+03  0.00000000000E+00 0. -1.
         11    1    1    2    0    0  0.81458911924E+02  0.91340311477E+02 -0.41534120455E+03  0.43299760165E+03  0.00000000000E+00 0.  1.
</event>
<event>
 7    1  0.2728221E-009  0.2033224E+03  0.7561462E-02  0.1146966E+00
         -1   -1    0    0    0  501 -0.00000000000E+00  0.00000000000E+00  0.47599080340E+02  0.47599080340E+02  0.00000000000E+00 0.  1.
          1   -1    0    0  501    0  0.00000000000E+00 -0.00000000000E+00 -0.12311517397E+04  0.12311517397E+04  0.00000000000E+00 0. -1.
         25    2    1    2    0    0 -0.22762723919E+02  0.19686787159E+03 -0.38412767016E+03  0.44997538816E+03  0.12509469413E+03 0.  0.
          5    1    3    3  502    0 -0.27853627631E+02  0.11443282547E+03 -0.10161521140E+03  0.15560790374E+03  0.41800000000E+01 0.  1.
         -5    1    3    3    0  502  0.50909037123E+01  0.82435046120E+02 -0.28251245876E+03  0.29436748443E+03  0.41800000000E+01 0.  1.
        -11    1    1    2    0    0 -0.14414830662E+02 -0.11834527822E+03 -0.31883120135E+03  0.34039201985E+03  0.00000000000E+00 0.  1.
         11    1    1    2    0    0  0.37177554580E+02 -0.78522593370E+02 -0.48059378789E+03  0.48838341208E+03  0.00000000000E+00 0. -1.
</event>
<event>
 7    1  0.2728221E-009  0.1401447E+03  0.7561462E-02  0.1213134E+00
          1   -1    0    0  501    0  0.00000000000E+00  0.00000000000E+00  0.82747962350E+03  0.82747962350E+03  0.00000000000E+00 0. -1.
         -1   -1    0    0    0  501 -0.00000000000E+00 -0.00000000000E+00 -0.58701460574E+02  0.58701460574E+02  0.00000000000E+00 0.  1.
         25    2    1    2    0    0  0.90039628776E+02  0.60742720610E+02  0.71649766089E+03  0.73540028639E+03  0.12509144777E+03 0.  0.
          5    1    3    3  502    0  0.29888926930E+02 -0.21400705863E+02  0.56189643698E+02  0.67276196559E+02  0.41800000000E+01 0. -1.
         -5    1    3    3    0  502  0.60150701846E+02  0.82143426473E+02  0.66030801719E+03  0.66812408983E+03  0.41800000000E+01 0. -1.
        -11    1    1    2    0    0 -0.98186354989E+02 -0.20459084533E+02  0.35608693096E+02  0.10642891275E+03  0.00000000000E+00 0. -1.
         11    1    1    2    0    0  0.81467262130E+01 -0.40283636077E+02  0.16671808942E+02  0.44351884931E+02  0.00000000000E+00 0.  1.
</event>
<event>
 7    1  0.2728221E-009  0.1049136E+03  0.7561462E-02  0.1270290E+00
          2   -1    0    0  501    0  0.00000000000E+00  0.00000000000E+00  0.71760600223E+03  0.71760600223E+03  0.00000000000E+00 0. -1.
         -2   -1    0    0    0  501 -0.00000000000E+00 -0.00000000000E+00 -0.18870360737E+02  0.18870360737E+02  0.00000000000E+00 0.  1.
         25    2    1    2    0    0 -0.40609284101E+02  0.10564541354E+02  0.37458143361E+03  0.39713870711E+03  0.12508868371E+03 0.  0.
          5    1    3    3  502    0 -0.76302550708E+02  0.37727356252E+02  0.21361357469E+03  0.22998622643E+03  0.41800000000E+01 0. -1.
         -5    1    3    3    0  502  0.35693266607E+02 -0.27162814898E+02  0.16096785892E+03  0.16715248069E+03  0.41800000000E+01 0. -1.
        -11    1    1    2    0    0  0.54638317318E+02  0.91100582085E+01  0.30035979354E+03  0.30542485893E+03  0.00000000000E+00 0. -1.
         11    1    1    2    0    0 -0.14029033217E+02 -0.19674599563E+02  0.23794414343E+02  0.33912796919E+02  0.00000000000E+00 0.  1.
</event>
<event>
 7    1  0.2728221E-009  0.1481003E+03  0.7561462E-02  0.1202827E+00
         -2   -1    0    0    0  501 -0.00000000000E+00  0.00000000000E+00  0.27360231980E+02  0.27360231980E+02  0.00000000000E+00 0.  1.
          2   -1    0    0  501    0  0.00000000000E+00 -0.00000000000E+00 -0.11887331371E+04  0.11887331371E+04  0.00000000000E+00 0. -1.
         25    2    1    2    0    0 -0.78648057798E+02 -0.86702007419E+02 -0.85975794711E+03  0.87665893866E+03  0.12507762396E+03 0.  0.
          5    1    3    3  502    0 -0.37051529789E+02 -0.97402498690E+02 -0.77038713408E+03  0.77741486439E+03  0.41800000000E+01 0.  1.
         -5    1    3    3    0  502 -0.41596528009E+02  0.10700491271E+02 -0.89370813031E+02  0.99244074270E+02  0.41800000000E+01 0.  1.
        -11    1    1    2    0    0  0.37664879159E+02 -0.13879567449E+02 -0.13249691728E+03  0.13844391863E+03  0.00000000000E+00 0.  1.
         11    1    1    2    0    0  0.40983178638E+02  0.10058157487E+03 -0.16911804072E+03  0.20099051179E+03  0.00000000000E+00 0. -1.
</event>
<event>
 7    1  0.2728221E-009  0.1486328E+03  0.7561462E-02  0.1202163E+00
          2   -1    0    0  501    0  0.00000000000E+00  0.00000000000E+00  0.60844896826E+03  0.60844896826E+03  0.00000000000E+00 0. -1.
         -2   -1    0    0    0  501 -0.00000000000E+00 -0.00000000000E+00 -0.56494093409E+02  0.56494093409E+02  0.00000000000E+00 0.  1.
         25    2    1    2    0    0 -0.14209068697E+03  0.54950481307E+01  0.20507502601E+03  0.27914387447E+03  0.12508228285E+03 0.  0.
          5    1    3    3  502    0 -0.10993646146E+03  0.22163061149E+02  0.21397116920E+03  0.24161614285E+03  0.41800000000E+01 0.  1.
         -5    1    3    3    0  502 -0.32154225518E+02 -0.16668013018E+02 -0.88961431919E+01  0.37527731617E+02  0.41800000000E+01 0.  1.
        -11    1    1    2    0    0  0.46768730016E+02 -0.22260907167E+02  0.44431695754E+02  0.68242491768E+02  0.00000000000E+00 0.  1.
         11    1    1    2    0    0  0.95321956959E+02  0.16765859036E+02  0.30244815309E+03  0.31755669543E+03  0.00000000000E+00 0. -1.
</event>
<event>
 7    1  0.2728221E-009  0.9378125E+02  0.7561462E-02  0.1293945E+00
         -1   -1    0    0    0  501 -0.00000000000E+00  0.00000000000E+00  0.15128607989E+03  0.15128607989E+03  0.00000000000E+00 0.  1.
          1   -1    0    0  501    0  0.00000000000E+00 -0.00000000000E+00 -0.11983099886E+03  0.11983099886E+03  0.00000000000E+00 0. -1.
         25    2    1    2    0    0  0.63857685253E+02 -0.25616742594E+02  0.30593849633E+02  0.14600813034E+03  0.12509344116E+03 0.  0.
          5    1    3    3  502    0  0.66205161124E+02  0.19735852863E+02  0.60122540113E+02  0.91677802533E+02  0.41800000000E+01 0.  1.
         -5    1    3    3    0  502 -0.23474758710E+01 -0.45352595457E+02 -0.29528690480E+02  0.54330327802E+02  0.41800000000E+01 0.  1.
        -11    1    1    2    0    0 -0.18362421619E+02  0.19595873130E+02  0.50691701070E+02  0.57365715622E+02  0.00000000000E+00 0.  1.
         11    1    1    2    0    0 -0.45495263635E+02  0.60208694642E+01 -0.49830469674E+02  0.67743232800E+02  0.00000000000E+00 0. -1.
</event>
<event>
 7    1  0.2728221E-009  0.1166585E+03  0.7561462E-02  0.1248713E+00
          1   -1    0    0  501    0  0.00000000000E+00  0.00000000000E+00  0.92944649377E+02  0.92944649377E+02  0.00000000000E+00 0. -1.
         -1   -1    0    0    0  501 -0.00000000000E+00 -0.00000000000E+00 -0.17592768590E+03  0.17592768590E+03  0.00000000000E+00 0.  1.
         25    2    1    2    0    0  0.12426393463E+02 -0.60707562958E+02 -0.23725754279E+02  0.14159770828E+03  0.12508867303E+03 0.  0.
          5    1    3    3  502    0 -0.47329164288E+02 -0.75109691818E+01  0.17887832848E+02  0.51321646644E+02  0.41800000000E+01 0.  1.
         -5    1    3    3    0  502  0.59755557750E+02 -0.53196593776E+02 -0.41613587126E+02  0.90276061638E+02  0.41800000000E+01 0.  1.
        -11    1    1    2    0    0  0.18656038788E+02  0.70171742291E+02 -0.60862442954E+02  0.94743644440E+02  0.00000000000E+00 0.  1.
         11    1    1    2    0    0 -0.31082432251E+02 -0.94641793330E+01  0.16051607110E+01  0.32530982555E+02  0.00000000000E+00 0. -1.
</event>
<event>
 7    1  0.2728221E-009  0.8708217E+02  0.7561462E-02  0.1310076E+00
         -2   -1    0    0    0  501 -0.00000000000E+00  0.00000000000E+00  0.58159115418E+02  0.58159115418E+02  0.00000000000E+00 0.  1.
          2   -1    0    0  501    0  0.00000000000E+00 -0.00000000000E+00 -0.24129776494E+03  0.24129776494E+03  0.00000000000E+00 0. -1.
         25    2    1    2    0    0 -0.40533328460E+02  0.29912907822E+01 -0.81492817323E+02  0.15473034528E+03  0.12509397243E+03 0.  0.
          5    1    3    3  502    0 -0.52949681597E+02 -0.12292607973E+02  0.14690592645E+02  0.56462933897E+02  0.41800000000E+01 0.  1.
         -5    1    3    3    0  502  0.12416353137E+02  0.15283898755E+02 -0.96183409967E+02  0.98267411380E+02  0.41800000000E+01 0.  1.
        -11    1    1    2    0    0 -0.19320579257E+02  0.26496139294E+02 -0.16975728723E+02  0.36925675972E+02  0.00000000000E+00 0.  1.
         11    1    1    2    0    0  0.59853907718E+02 -0.29487430077E+02 -0.84670103473E+02  0.10780085910E+03  0.00000000000E+00 0. -1.
</event>
<event>
 7    1  0.2728221E-009  0.1449894E+03  0.7561462E-02  0.1206769E+00
          2   -1    0    0  501    0  0.00000000000E+00  0.00000000000E+00  0.79780297214E+03  0.79780297214E+03  0.00000000000E+00 0. -1.
         -2   -1    0    0    0  501 -0.00000000000E+00 -0.00000000000E+00 -0.41414080212E+02  0.41414080212E+02  0.00000000000E+00 0.  1.
         25    2    1    2    0    0 -0.90785919784E+02  0.75865254848E+02  0.60106888230E+03  0.62524478400E+03  0.12509843534E+03 0.  0.
          5    1    3    3  502    0 -0.11631587683E+03  0.67561918139E+02  0.39287933844E+03  0.41528983007E+03  0.41800000000E+01 0. -1.
         -5    1    3    3    0  502  0.25529957046E+02  0.83033367091E+01  0.20818954386E+03  0.20995495393E+03  0.41800000000E+01 0. -1.
        -11    1    1    2    0    0  0.38535571272E+02 -0.63911114096E+02  0.13929509318E+03  0.15802766765E+03  0.00000000000E+00 0. -1.
         11    1    1    2    0    0  0.52250348512E+02 -0.11954140752E+02  0.16024916448E+02  0.55944600704E+02  0.00000000000E+00 0.  1.
</event>
<event>
 7    1  0.2728221E-009  0.9778339E+02  0.7561462E-02  0.1285027E+00
          2   -1    0    0  501    0  0.00000000000E+00  0.00000000000E+00  0.13998233031E+03  0.13998233031E+03  0.00000000000E+00 0. -1.
         -2   -1    0    0    0  501 -0.00000000000E+00 -0.00000000000E+00 -0.95339537167E+02  0.95339537167E+02  0.00000000000E+00 0.  1.
         25    2    1    2    0    0  0.52334123595E+01 -0.30440214153E+02  0.51209932764E+02  0.13864510179E+03  0.12508401893E+03 0.  0.
          5    1    3    3  502    0 -0.41001033880E+02  0.13818160041E+02 -0.15455875233E+02  0.46134399371E+02  0.41800000000E+01 0.  1.
         -5    1    3    3    0  502  0.46234446239E+02 -0.44258374194E+02  0.66665807997E+02  0.92510702415E+02  0.41800000000E+01 0.  1.
        -11    1    1    2    0    0 -0.34690344611E+02 -0.11641511224E+02  0.16776550899E+02  0.40254160690E+02  0.00000000000E+00 0. -1.
         11    1    1    2    0    0  0.29456932252E+02  0.42081725377E+02 -0.23343690518E+02  0.56422605003E+02  0.00000000000E+00 0.  1.
</event>
<event>
 7    1  0.2728221E-009  0.1734605E+03  0.7561462E-02  0.1174286E+00
          1   -1    0    0  501    0  0.00000000000E+00  0.00000000000E+00  0.16352592627E+03  0.16352592627E+03  0.00000000000E+00 0. -1.
         -1   -1    0    0    0  501 -0.00000000000E+00 -0.00000000000E+00 -0.19159126018E+03  0.19159126018E+03  0.00000000000E+00 0.  1.
         25    2    1    2    0    0  0.22261586266E+02  0.13713381102E+03 -0.10004774635E+02  0.18721331035E+03  0.12508983854E+03 0.  0.
          5    1    3    3  502    0  0.36507909069E+02  0.15719681773E+03 -0.37305498448E+01  0.16147772704E+03  0.41800000000E+01 0. -1.
         -5    1    3    3    0  502 -0.14246322803E+02 -0.20063006703E+02 -0.62742247902E+01  0.25735583305E+02  0.41800000000E+01 0. -1.
        -11    1    1    2    0    0  0.28407967459E+02 -0.75934564286E+02 -0.32141006350E+02  0.87213043507E+02  0.00000000000E+00 0.  1.
         11    1    1    2    0    0 -0.50669553726E+02 -0.61199246738E+02  0.14080447069E+02  0.80690832600E+02  0.00000000000E+00 0. -1.
</event>
<event>
 7    1  0.2728221E-009  0.9783524E+02  0.7561462E-02  0.1284915E+00
          2   -1    0    0  501    0  0.00000000000E+00  0.00000000000E+00  0.10024495370E+03  0.10024495370E+03  0.00000000000E+00 0. -1.
         -2   -1    0    0    0  501 -0.00000000000E+00 -0.00000000000E+00 -0.13789059654E+03  0.13789059654E+03  0.00000000000E+00 0.  1.
         25    2    1    2    0    0  0.40329095667E+02 -0.21731318417E+02 -0.15749322502E+02  0.13414376824E+03  0.12509125965E+03 0.  0.
          5    1    3    3  502    0  0.19300955900E+02  0.48901212626E+02 -0.27373894088E+02  0.59419340055E+02  0.41800000000E+01 0.  1.
         -5    1    3    3    0  502  0.21028139767E+02 -0.70632531043E+02  0.11624571586E+02  0.74724428189E+02  0.41800000000E+01 0.  1.
        -11    1    1    2    0    0  0.24674342020E+00  0.28051315289E+02 -0.47811247941E+02  0.55433316709E+02  0.00000000000E+00 0.  1.
         11    1    1    2    0    0 -0.40575839087E+02 -0.63199968720E+01  0.25914927611E+02  0.48558465289E+02  0.00000000000E+00 0. -1.
</event>
<event>
 7    1  0.2728221E-009  0.1914148E+03  0.7561462E-02  0.1157191E+00
         -4   -1    0    0    0  501 -0.00000000000E+00  0.00000000000E+00  0.17331305086E+03  0.17331305086E+03  0.00000000000E+00 0.  1.
          4   -1    0    0  501    0  0.00000000000E+00 -0.00000000000E+00 -0.24515195781E+03  0.24515195781E+03  0.00000000000E+00 0. -1.
         25    2    1    2    0    0  0.14842115104E+03  0.54414019284E+02 -0.11342578217E+03  0.23131032939E+03  0.12509730953E+03 0.  0.
          5    1    3    3  502    0  0.15157451036E+03  0.82753753592E+02 -0.95848671942E+02  0.19755367938E+03  0.41800000000E+01 0.  1.
         -5    1    3    3    0  502 -0.31533593253E+01 -0.28339734307E+02 -0.17577110232E+02  0.33756650008E+02  0.41800000000E+01 0.  1.
        -11    1    1    2    0    0 -0.32938492588E+02  0.24796263657E+02  0.56528409188E+00  0.41232493636E+02  0.00000000000E+00 0. -1.
         11    1    1    2    0    0 -0.11548265845E+03 -0.79210282941E+02  0.41021591132E+02  0.14592218565E+03  0.00000000000E+00 0.  1.
</event>
<event>
 7    1  0.2728221E-009  0.2532312E+03  0.7561462E-02  0.1111280E+00
         -1   -1    0    0    0  501 -0.00000000000E+00  0.00000000000E+00  0.64374611106E+02  0.64374611106E+02  0.00000000000E+00 0.  1.
          1   -1    0    0  501    0  0.00000000000E+00 -0.00000000000E+00 -0.12757085846E+04  0.12757085846E+04  0.00000000000E+00 0. -1.
         25    2    1    2    0    0 -0.95266850274E+02 -0.22919291778E+03 -0.40007618544E+03  0.48715027717E+03  0.12509705060E+03 0.  0.
          5    1    3    3  502    0 -0.16247233363E+02 -0.13113640481E+03 -0.29431552103E+03  0.32264504890E+03  0.41800000000E+01 0. -1.
         -5    1    3    3    0  502 -0.79019616911E+02 -0.98056512964E+02 -0.10576066440E+03  0.16450522827E+03  0.41800000000E+01 0. -1.
        -11    1    1    2    0    0  0.54996061794E+02  0.13871597710E+03 -0.33877451788E+03  0.37018220255E+03  0.00000000000E+00 0. -1.
         11    1    1    2    0    0  0.40270788480E+02  0.90476940682E+02 -0.47248327021E+03  0.48275071604E+03  0.00000000000E+00 0.  1.
</event>
<event>
 7    1  0.2728221E-009  0.1153838E+03  0.7561462E-02  0.1250913E+00
          1   -1    0    0  501    0  0.00000000000E+00  0.00000000000E+00  0.59129953139E+02  0.59129953139E+02  0.00000000000E+00 0. -1.
         -1   -1    0    0    0  501 -0.00000000000E+00 -0.00000000000E+00 -0.47730276526E+03  0.47730276526E+03  0.00000000000E+00 0.  1.
         25    2    1    2    0    0  0.72904214729E+02 -0.44011529896E+02 -0.37793700711E+03  0.40710379241E+03  0.12508028284E+03 0.  0.
          5    1    3    3  502    0 -0.19776730288E+02 -0.22368189201E+02 -0.18762592423E+02  0.35510029899E+02  0.41800000000E+01 0. -1.
         -5    1    3    3    0  502  0.92680945017E+02 -0.21643340695E+02 -0.35917441469E+03  0.37159376251E+03  0.41800000000E+01 0. -1.
        -11    1    1    2    0    0 -0.99202384273E+01  0.41122993484E+02 -0.50035778094E+02  0.65521682007E+02  0.00000000000E+00 0.  1.
         11    1    1    2    0    0 -0.62983976302E+02  0.28885364123E+01  0.97999730812E+01  0.63807243991E+02  0.00000000000E+00 0. -1.
</event>
<event>
 7    1  0.2728221E-009  0.1046048E+03  0.7561462E-02  0.1270900E+00
          2   -1    0    0  501    0  0.00000000000E+00  0.00000000000E+00  0.48259063636E+02  0.48259063636E+02  0.00000000000E+00 0. -1.
         -2   -1    0    0    0  501 -0.00000000000E+00 -0.00000000000E+00 -0.32901247809E+03  0.32901247809E+03  0.00000000000E+00 0.  1.
         25    2    1    2    0    0 -0.22396191025E+02 -0.55040727406E+02 -0.12425551291E+03  0.18605864820E+03  0.12508923629E+03 0.  0.
          5    1    3    3  502    0 -0.60750659042E+02 -0.62822253717E+02 -0.11690618947E+03  0.14601988794E+03  0.41800000000E+01 0.  1.
         -5    1    3    3    0  502  0.38354468017E+02  0.77815263107E+01 -0.73493234359E+01  0.40038760265E+02  0.41800000000E+01 0.  1.
        -11    1    1    2    0    0 -0.63628747363E+01  0.53159710312E+02 -0.29790690492E+02  0.61269292597E+02  0.00000000000E+00 0. -1.
         11    1    1    2    0    0  0.28759065762E+02  0.18810170938E+01 -0.12670721106E+03  0.12994360093E+03  0.00000000000E+00 0.  1.
</event>
<event>
 7    1  0.2728221E-009  0.1137502E+03  0.7561462E-02  0.1253779E+00
          1   -1    0    0  501    0  0.00000000000E+00  0.00000000000E+00  0.13081350448E+03  0.13081350448E+03  0.00000000000E+00 0. -1.
         -1   -1    0    0    0  501 -0.00000000000E+00 -0.00000000000E+00 -0.16114274437E+03  0.16114274437E+03  0.00000000000E+00 0.  1.
         25    2    1    2    0    0  0.94865100925E+02 -0.15267247614E+02 -0.50508706420E+02  0.16562725798E+03  0.12509509559E+03 0.  0.
          5    1    3    3  502    0  0.58886092685E+02 -0.52758648667E+02 -0.74069805649E+02  0.10841981106E+03  0.41800000000E+01 0. -1.
         -5    1    3    3    0  502  0.35979008240E+02  0.37491401053E+02  0.23561099229E+02  0.57207446926E+02  0.41800000000E+01 0. -1.
        -11    1    1    2    0    0 -0.55777717406E+02  0.66773787797E+01  0.50955752720E+02  0.75843456419E+02  0.00000000000E+00 0. -1.
         11    1    1    2    0    0 -0.39087383519E+02  0.85898688347E+01 -0.30776286194E+02  0.50485534451E+02  0.00000000000E+00 0.  1.
</event>
<event>
 7    1  0.2728221E-009  0.3115739E+03  0.7561462E-02  0.1079594E+00
          2   -1    0    0  501    0  0.00000000000E+00  0.00000000000E+00  0.22346581831E+04  0.22346581831E+04  0.00000000000E+00 0.  1.
         -2   -1    0    0    0  501 -0.00000000000E+00 -0.00000000000E+00 -0.52260319138E+02  0.52260319138E+02  0.00000000000E+00 0. -1.
         25    2    1    2    0    0  0.18969971081E+03  0.22850184022E+03  0.15392798175E+04  0.15726501860E+04  0.12508868718E+03 0.  0.
          5    1    3    3  502    0  0.58529865669E+02  0.11733598979E+02  0.17265231877E+03  0.18272853663E+03  0.41800000000E+01 0. -1.
         -5    1    3    3    0  502  0.13116984514E+03  0.21676824124E+03  0.13666274987E+04  0.13899216494E+04  0.41800000000E+01 0. -1.
        -11    1    1    2    0    0 -0.14117692301E+03 -0.10128672938E+03  0.33394734135E+03  0.37644488565E+03  0.00000000000E+00 0. -1.
         11    1    1    2    0    0 -0.48522787800E+02 -0.12721511084E+03  0.30917070514E+03  0.33782343062E+03  0.00000000000E+00 0.  1.
</event>
<event>
 7    1  0.2728221E-009  0.1107739E+03  0.7561462E-02  0.1259143E+00
          2   -1    0    0  501    0  0.00000000000E+00  0.00000000000E+00  0.63618408716E+02  0.63618408716E+02  0.00000000000E+00 0. -1.
         -2   -1    0    0    0  501 -0.00000000000E+00 -0.00000000000E+00 -0.24984768434E+03  0.24984768434E+03  0.00000000000E+00 0.  1.
         25    2    1    2    0    0 -0.44733005146E+01 -0.39905898287E+02 -0.37813774467E+02  0.13669815638E+03  0.12507603001E+03 0.  0.
          5    1    3    3  502    0  0.48798145371E+02  0.16870597743E+02 -0.47784063868E+01  0.52020972957E+02  0.41800000000E+01 0. -1.
         -5    1    3    3    0  502 -0.53271445885E+02 -0.56776496029E+02 -0.33035368081E+02  0.84677183422E+02  0.41800000000E+01 0. -1.
        -11    1    1    2    0    0 -0.12386638522E+02  0.62428535254E+02 -0.12457290341E+03  0.13988981053E+03  0.00000000000E+00 0.  1.
         11    1    1    2    0    0  0.16859939037E+02 -0.22522636968E+02 -0.23842597745E+02  0.36878126139E+02  0.00000000000E+00 0. -1.
</event>
<event>
 7    1  0.2728221E-009  0.1045645E+03  0.7561462E-02  0.1270980E+00
          2   -1    0    0  501    0  0.00000000000E+00  0.00000000000E+00  0.57030308759E+02  0.57030308759E+02  0.00000000000E+00 0. -1.
         -2   -1    0    0    0  501 -0.00000000000E+00 -0.00000000000E+00 -0.24904573077E+03  0.24904573077E+03  0.00000000000E+00 0.  1.
         25    2    1    2    0    0  0.34371298407E+02  0.31216829062E+02 -0.13398275132E+03  0.18908752431E+03  0.12508732000E+03 0.  0.
          5    1    3    3  502    0  0.56310656323E+02 -0.30893567757E+02 -0.86312704133E+02  0.10766920562E+03  0.41800000000E+01 0. -1.
         -5    1    3    3    0  502 -0.21939357916E+02  0.62110396819E+02 -0.47670047192E+02  0.81418318688E+02  0.41800000000E+01 0. -1.
        -11    1    1    2    0    0 -0.43542141293E+02 -0.44733875241E+02 -0.72143604552E+02  0.95403025844E+02  0.00000000000E+00 0.  1.
         11    1    1    2    0    0  0.91708428852E+01  0.13517046180E+02  0.14110933871E+02  0.21585489370E+02  0.00000000000E+00 0. -1.
</event>
<event>
 7    1  0.2728221E-009  0.8847393E+02  0.7561462E-02  0.1306590E+00
          1   -1    0    0  501    0  0.00000000000E+00  0.00000000000E+00  0.16299705739E+03  0.16299705739E+03  0.00000000000E+00 0. -1.
         -1   -1    0    0    0  501 -0.00000000000E+00 -0.00000000000E+00 -0.94387906295E+02  0.94387906295E+02  0.00000000000E+00 0.  1.
         25    2    1    2    0    0  0.52247383090E+02 -0.83977722513E+01  0.67908704301E+02  0.15185207272E+03  0.12508856163E+03 0.  0.
          5    1    3    3  502    0  0.17056792212E+02  0.38075589556E+02  0.81674927906E+02  0.91809318313E+02  0.41800000000E+01 0. -1.
         -5    1    3    3    0  502  0.35190590878E+02 -0.46473361808E+02 -0.13766223605E+02  0.60042754404E+02  0.41800000000E+01 0. -1.
        -11    1    1    2    0    0 -0.39016229974E+02 -0.21019710346E+02  0.36450177388E+02  0.57382138824E+02  0.00000000000E+00 0. -1.
         11    1    1    2    0    0 -0.13231153116E+02  0.29417482597E+02 -0.35749730590E+02  0.48150752147E+02  0.00000000000E+00 0.  1.
</event>
<event>
 7    1  0.2728221E-009  0.1381116E+03  0.7561462E-02  0.1215893E+00
         -1   -1    0    0    0  501 -0.00000000000E+00  0.00000000000E+00  0.22813391071E+02  0.22813391071E+02  0.00000000000E+00 0.  1.
          1   -1    0    0  501    0  0.00000000000E+00 -0.00000000000E+00 -0.96107516188E+03  0.96107516188E+03  0.00000000000E+00 0. -1.
         25    2    1    2    0    0  0.98745810415E+02 -0.70671940531E+01 -0.55581543369E+03  0.57825701821E+03  0.12509877089E+03 0.  0.
          5    1    3    3  502    0  0.18706600284E+02 -0.58978773159E+02 -0.26523398278E+03  0.27238753752E+03  0.41800000000E+01 0.  1.
         -5    1    3    3    0  502  0.80039210130E+02  0.51911579105E+02 -0.29058145091E+03  0.30586948069E+03  0.41800000000E+01 0.  1.
        -11    1    1    2    0    0 -0.10682350691E+03  0.14421460567E+02 -0.37921801654E+03  0.39424046497E+03  0.00000000000E+00 0. -1.
         11    1    1    2    0    0  0.80776964965E+01 -0.73542665136E+01 -0.32283205787E+01  0.11391069765E+02  0.00000000000E+00 0.  1.
</event>
<event>
 7    1  0.2728221E-009  0.9648834E+02  0.7561462E-02  0.1287859E+00
          2   -1    0    0  501    0  0.00000000000E+00  0.00000000000E+00  0.38448335480E+02  0.38448335480E+02  0.00000000000E+00 0.  1.
         -2   -1    0    0    0  501 -0.00000000000E+00 -0.00000000000E+00 -0.38774630447E+03  0.38774630447E+03  0.00000000000E+00 0. -1.
         25    2    1    2    0    0 -0.32482136589E+02  0.26876939020E+02 -0.26376235816E+03  0.29495207723E+03  0.12509471305E+03 0.  0.
          5    1    3    3  502    0 -0.74270527701E+02  0.27117884053E+02 -0.22211729474E+03  0.23580724319E+03  0.41800000000E+01 0. -1.
         -5    1    3    3    0  502  0.41788391112E+02 -0.24094503359E+00 -0.41645063419E+02  0.59144834039E+02  0.41800000000E+01 0. -1.
        -11    1    1    2    0    0  0.34294347007E+02 -0.43324606312E+02 -0.96635469572E+02  0.11131728405E+03  0.00000000000E+00 0. -1.
         11    1    1    2    0    0 -0.18122104184E+01  0.16447667292E+02  0.11099858740E+02  0.19925278668E+02  0.00000000000E+00 0.  1.
</event>
<event>
 7    1  0.2728221E-009  0.1009976E+03  0.7561462E-02  0.1278212E+00
         -1   -1    0    0    0  501 -0.00000000000E+00  0.00000000000E+00  0.59597418918E+02  0.59597418918E+02  0.00000000000E+00 0.  1.
          1   -1    0    0  501    0  0.00000000000E+00 -0.00000000000E+00 -0.25360644729E+03  0.25360644729E+03  0.00000000000E+00 0. -1.
         25    2    1    2    0    0 -0.20459888397E+02 -0.51104597577E+02 -0.12542783096E+03  0.18550198340E+03  0.12509419707E+03 0.  0.
          5    1    3    3  502    0 -0.72225148857E+02 -0.42852825715E+02 -0.77009460231E+02  0.11402090231E+03  0.41800000000E+01 0. -1.
         -5    1    3    3    0  502  0.51765260460E+02 -0.82517718627E+01 -0.48418370730E+02  0.71481081088E+02  0.41800000000E+01 0. -1.
        -11    1    1    2    0    0  0.30535015217E+02  0.36610509111E+02 -0.88845376501E+02  0.10082766216E+03  0.00000000000E+00 0. -1.
         11    1    1    2    0    0 -0.10075126820E+02  0.14494088467E+02  0.20264179092E+02  0.26874220643E+02  0.00000000000E+00 0.  1.
</event>
<event>
 7    1  0.3128229E-009  0.1447358E+03  0.7561462E-02  0.1207095E+00
         -2   -1    0    0    0  501 -0.00000000000E+00  0.00000000000E+00  0.92133954956E+02  0.92133954956E+02  0.00000000000E+00 0.  1.
          2   -1    0    0  501    0  0.00000000000E+00 -0.00000000000E+00 -0.26912310961E+03  0.26912310961E+03  0.00000000000E+00 0. -1.
         25    2    1    2    0    0 -0.11383178281E+03  0.15611612404E+01 -0.10626923385E+03  0.19974277801E+03  0.12507563832E+03 0.  0.
          5    1    3    3  502    0  0.17451312806E+02  0.77987772047E+01  0.11941502862E+02  0.22922502812E+02  0.41800000000E+01 0. -1.
         -5    1    3    3    0  502 -0.13128309561E+03 -0.62376159643E+01 -0.11821073671E+03  0.17682027519E+03  0.41800000000E+01 0. -1.
        -11    1    1    2    0    0  0.89958665071E+02  0.33497117515E+02 -0.25093641475E+02  0.99218491954E+02  0.00000000000E+00 0.  1.
         11    1    1    2    0    0  0.23873117735E+02 -0.35058278755E+02 -0.45626279332E+02  0.62295794604E+02  0.00000000000E+00 0. -1.
</event>
<event>
 7    1  0.2728221E-009  0.1076219E+03  0.7561462E-02  0.1265038E+00
          4   -1    0    0  501    0  0.00000000000E+00  0.00000000000E+00  0.96698189469E+02  0.96698189469E+02  0.00000000000E+00 0. -1.
         -4   -1    0    0    0  501 -0.00000000000E+00 -0.00000000000E+00 -0.16257952151E+03  0.16257952151E+03  0.00000000000E+00 0.  1.
         25    2    1    2    0    0  0.29222617084E+02  0.49855139066E+01  0.20368753495E+02  0.13016943662E+03  0.12510147647E+03 0.  0.
          5    1    3    3  502    0 -0.35379037628E+02  0.41006315825E+02  0.11853431165E+02  0.55598295580E+02  0.41800000000E+01 0.  1.
         -5    1    3    3    0  502  0.64601654712E+02 -0.36020801918E+02  0.85153223308E+01  0.74571141045E+02  0.41800000000E+01 0.  1.
        -11    1    1    2    0    0  0.80121836175E+00 -0.40402202890E+02 -0.68239650820E+02  0.79307186896E+02  0.00000000000E+00 0.  1.
         11    1    1    2    0    0 -0.30023835445E+02  0.35416688984E+02 -0.18010434716E+02  0.49801087459E+02  0.00000000000E+00 0. -1.
</event>
<event>
 7    1  0.2728221E-009  0.1208008E+03  0.7561462E-02  0.1241782E+00
          1   -1    0    0  501    0  0.00000000000E+00  0.00000000000E+00  0.10016094044E+04  0.10016094044E+04  0.00000000000E+00 0. -1.
         -1   -1    0    0    0  501 -0.00000000000E+00 -0.00000000000E+00 -0.25236441933E+02  0.25236441933E+02  0.00000000000E+00 0.  1.
         25    2    1    2    0    0 -0.64831235161E+01 -0.81416882720E+02  0.78804999569E+03  0.80208524164E+03  0.12508876635E+03 0.  0.
          5    1    3    3  502    0 -0.46300032857E+02 -0.70837850351E+02  0.69613928595E+03  0.70127674418E+03  0.41800000000E+01 0. -1.
         -5    1    3    3    0  502  0.39816909340E+02 -0.10579032369E+02  0.91910709747E+02  0.10080849747E+03  0.41800000000E+01 0. -1.
        -11    1    1    2    0    0  0.21097281526E+01  0.98146920321E+02  0.12401114861E+03  0.15816457853E+03  0.00000000000E+00 0.  1.
         11    1    1    2    0    0  0.43733953635E+01 -0.16730037601E+02  0.64311818168E+02  0.66596026167E+02  0.00000000000E+00 0. -1.
</event>
<event>
 7    1  0.2728221E-009  0.1145081E+03  0.7561462E-02  0.1252442E+00
         -4   -1    0    0    0  501 -0.00000000000E+00  0.00000000000E+00  0.20397332146E+03  0.20397332146E+03  0.00000000000E+00 0. -1.
          4   -1    0    0  501    0  0.00000000000E+00 -0.00000000000E+00 -0.11119791458E+03  0.11119791458E+03  0.00000000000E+00 0.  1.
         25    2    1    2    0    0 -0.94749614058E+02  0.38286724361E+02  0.75398365438E+02  0.17826729089E+03  0.12510376039E+03 0.  0.
          5    1    3    3  502    0 -0.38262161269E+02  0.16987899870E+00 -0.32638858621E+02  0.50465724367E+02  0.41800000000E+01 0.  1.
         -5    1    3    3    0  502 -0.56487452789E+02  0.38116845362E+02  0.10803722406E+03  0.12780156652E+03  0.41800000000E+01 0.  1.
        -11    1    1    2    0    0 -0.88486276207E+00 -0.25790514947E+02 -0.20830863372E+02  0.33164114825E+02  0.00000000000E+00 0.  1.
         11    1    1    2    0    0  0.95634476820E+02 -0.12496209414E+02  0.38207904817E+02  0.10373983033E+03  0.00000000000E+00 0. -1.
</event>
<event>
 7    1  0.2728221E-009  0.1486969E+03  0.7561462E-02  0.1202083E+00
          1   -1    0    0  501    0  0.00000000000E+00  0.00000000000E+00  0.94441019854E+03  0.94441019854E+03  0.00000000000E+00 0. -1.
         -1   -1    0    0    0  501 -0.00000000000E+00 -0.00000000000E+00 -0.31086686800E+02  0.31086686800E+02  0.00000000000E+00 0.  1.
         25    2    1    2    0    0  0.11561603500E+03 -0.64134614797E+02  0.49555121680E+03  0.52792003190E+03  0.12509290642E+03 0.  0.
          5    1    3    3  502    0  0.21579116263E+01 -0.15777288697E+02 -0.77559395071E+00  0.16481910302E+02  0.41800000000E+01 0. -1.
         -5    1    3    3    0  502  0.11345812338E+03 -0.48357326100E+02  0.49632681075E+03  0.51143812160E+03  0.41800000000E+01 0. -1.
        -11    1    1    2    0    0 -0.12504681466E+03  0.72820037692E+02  0.40199949748E+03  0.42725058188E+03  0.00000000000E+00 0.  1.
         11    1    1    2    0    0  0.94307796611E+01 -0.86854228954E+01  0.15772797459E+02  0.20326271561E+02  0.00000000000E+00 0. -1.
</event>
<event>
 7    1  0.2728221E-009  0.1443014E+03  0.7561462E-02  0.1207656E+00
         -1   -1    0    0    0  501 -0.00000000000E+00  0.00000000000E+00  0.12175689346E+03  0.12175689346E+03  0.00000000000E+00 0.  1.
          1   -1    0    0  501    0  0.00000000000E+00 -0.00000000000E+00 -0.21997584476E+03  0.21997584476E+03  0.00000000000E+00 0. -1.
         25    2    1    2    0    0 -0.72257945561E+02 -0.87067979827E+02 -0.94806524391E+02  0.19349568962E+03  0.12510100329E+03 0.  0.
          5    1    3    3  502    0  0.15938765974E+02  0.22392431718E+02 -0.19599759748E+02  0.34015999783E+02  0.41800000000E+01 0. -1.
         -5    1    3    3    0  502 -0.88196711535E+02 -0.10946041154E+03 -0.75206764643E+02  0.15947968983E+03  0.41800000000E+01 0. -1.
        -11    1    1    2    0    0  0.36238291633E+02  0.14271067963E+02  0.40263243466E+02  0.56017907277E+02  0.00000000000E+00 0.  1.
         11    1    1    2    0    0  0.36019653928E+02  0.72796911864E+02 -0.43675670375E+02  0.92219141336E+02  0.00000000000E+00 0. -1.
</event>
<event>
 7    1  0.2728221E-009  0.1018742E+03  0.7561462E-02  0.1276403E+00
         -1   -1    0    0    0  501 -0.00000000000E+00  0.00000000000E+00  0.58022183417E+02  0.58022183417E+02  0.00000000000E+00 0.  1.
          1   -1    0    0  501    0  0.00000000000E+00 -0.00000000000E+00 -0.29277474187E+03  0.29277474187E+03  0.00000000000E+00 0. -1.
         25    2    1    2    0    0 -0.63066358702E+02  0.35057014153E+02 -0.12191951391E+03  0.18899075415E+03  0.12508707943E+03 0.  0.
          5    1    3    3  502    0 -0.25035480285E+02 -0.31163596058E+02  0.53128685963E+01  0.40541879151E+02  0.41800000000E+01 0.  1.
         -5    1    3    3    0  502 -0.38030878417E+02  0.66220610210E+02 -0.12723238251E+03  0.14844887500E+03  0.41800000000E+01 0.  1.
        -11    1    1    2    0    0  0.48190469826E+02 -0.47513804286E+02 -0.12263461648E+03  0.14006831240E+03  0.00000000000E+00 0. -1.
         11    1    1    2    0    0  0.14875888876E+02  0.12456790133E+02  0.98015719331E+01  0.21737858741E+02  0.00000000000E+00 0.  1.
</event>
<event>
 7    1  0.2728221E-009  0.1148511E+03  0.7561462E-02  0.1251841E+00
          1   -1    0    0  501    0  0.00000000000E+00  0.00000000000E+00  0.12408903173E+04  0.12408903173E+04  0.00000000000E+00 0. -1.
         -1   -1    0    0    0  501 -0.00000000000E+00 -0.00000000000E+00 -0.14127953462E+02  0.14127953462E+02  0.00000000000E+00 0.  1.
         25    2    1    2    0    0  0.38605525524E+02 -0.70238045776E+02  0.68234585837E+03  0.69833192836E+03  0.12509133483E+03 0.  0.
          5    1    3    3  502    0  0.61569497262E+02 -0.34252875842E+02  0.16831055308E+03  0.18251021115E+03  0.41800000000E+01 0. -1.
         -5    1    3    3    0  502 -0.22963971738E+02 -0.35985169934E+02  0.51403530529E+03  0.51582171721E+03  0.41800000000E+01 0. -1.
        -11    1    1    2    0    0 -0.70651405404E+00  0.77616150344E+02  0.36133997027E+03  0.36958265662E+03  0.00000000000E+00 0.  1.
         11    1    1    2    0    0 -0.37899011470E+02 -0.73781045686E+01  0.18307653523E+03  0.18710368583E+03  0.00000000000E+00 0. -1.
</event>
<event>
 7    1  0.2728221E-009  0.9571138E+02  0.7561462E-02  0.1289582E+00
          2   -1    0    0  501    0  0.00000000000E+00  0.00000000000E+00  0.16123755813E+03  0.16123755813E+03  0.00000000000E+00 0. -1.
         -2   -1    0    0    0  501 -0.00000000000E+00 -0.00000000000E+00 -0.95148539756E+02  0.95148539756E+02  0.00000000000E+00 0.  1.
         25    2    1    2    0    0 -0.43720001476E+02 -0.19758322484E+01  0.73401451905E+02  0.15149473291E+03  0.12509012157E+03 0.  0.
          5    1    3    3  502    0 -0.11250409129E+02 -0.44098450040E+02 -0.15121512536E+02  0.48139147716E+02  0.41800000000E+01 0. -1.
         -5    1    3    3    0  502 -0.32469592348E+02  0.42122617792E+02  0.88522964441E+02  0.10335558519E+03  0.41800000000E+01 0. -1.
        -11    1    1    2    0    0  0.67549534935E+02 -0.44349691759E+01  0.17475681923E+02  0.69914290958E+02  0.00000000000E+00 0. -1.
         11    1    1    2    0    0 -0.23829533459E+02  0.64108014243E+01 -0.24788115450E+02  0.34977074025E+02  0.00000000000E+00 0.  1.
</event>
<event>
 7    1  0.2728221E-009  0.1006670E+03  0.7561462E-02  0.1278900E+00
          2   -1    0    0  501    0  0.00000000000E+00  0.00000000000E+00  0.29167312726E+03  0.29167312726E+03  0.00000000000E+00 0. -1.
         -2   -1    0    0    0  501 -0.00000000000E+00 -0.00000000000E+00 -0.47623828627E+02  0.47623828627E+02  0.00000000000E+00 0.  1.
         25    2    1    2    0    0 -0.45523507535E+02 -0.11246113889E+02  0.14067845055E+03  0.19400067559E+03  0.12508785258E+03 0.  0.
          5    1    3    3  502    0 -0.66548788525E+02 -0.46690353338E+02  0.53294273039E+02  0.97295849283E+02  0.41800000000E+01 0. -1.
         -5    1    3    3    0  502  0.21025280990E+02  0.35444239449E+02  0.87384177514E+02  0.96704826304E+02  0.41800000000E+01 0. -1.
        -11    1    1    2    0    0  0.52718428307E+02 -0.12092463105E+02  0.10767605160E+03  0.12049727148E+03  0.00000000000E+00 0. -1.
         11    1    1    2    0    0 -0.71949207720E+01  0.23338576994E+02 -0.43052035157E+01  0.24799008818E+02  0.00000000000E+00 0.  1.
</event>
<event>
 7    1  0.2728221E-009  0.1803604E+03  0.7561462E-02  0.1167455E+00
          1   -1    0    0  501    0  0.00000000000E+00  0.00000000000E+00  0.11069600007E+03  0.11069600007E+03  0.00000000000E+00 0. -1.
         -1   -1    0    0    0  501 -0.00000000000E+00 -0.00000000000E+00 -0.29851103898E+03  0.29851103898E+03  0.00000000000E+00 0.  1.
         25    2    1    2    0    0  0.14550658285E+03 -0.14120747299E+01 -0.10211991990E+03  0.21737373696E+03  0.12509477955E+03 0.  0.
          5    1    3    3  502    0  0.26166124923E+02  0.52345012602E+02 -0.47483802768E+02  0.75477482491E+02  0.41800000000E+01 0.  1.
         -5    1    3    3    0  502  0.11934045792E+03 -0.53757087332E+02 -0.54636117136E+02  0.14189625447E+03  0.41800000000E+01 0.  1.
        -11    1    1    2    0    0 -0.10212655094E+03  0.43176074283E+02 -0.48236176109E+02  0.12091622919E+03  0.00000000000E+00 0. -1.
         11    1    1    2    0    0 -0.43380031909E+02 -0.41763999553E+02 -0.37458942894E+02  0.70917072908E+02  0.00000000000E+00 0.  1.
</event>
<event>
 7    1  0.2728221E-009  0.1159225E+03  0.7561462E-02  0.1249979E+00
         -1   -1    0    0    0  501 -0.00000000000E+00  0.00000000000E+00  0.35308079997E+02  0.35308079997E+02  0.00000000000E+00 0.  1.
          1   -1    0    0  501    0  0.00000000000E+00 -0.00000000000E+00 -0.53300879672E+03  0.53300879672E+03  0.00000000000E+00 0. -1.
         25    2    1    2    0    0  0.38450082208E+02 -0.66152378620E+02 -0.35075473310E+03  0.38017272928E+03  0.12509146764E+03 0.  0.
          5    1    3    3  502    0  0.12801460910E+02  0.33922461776E+02 -0.14976392177E+03  0.15414705796E+03  0.41800000000E+01 0.  1.
         -5    1    3    3    0  502  0.25648621297E+02 -0.10007484040E+03 -0.20099081133E+03  0.22602567131E+03  0.41800000000E+01 0.  1.
        -11    1    1    2    0    0 -0.29538903759E+00  0.50839962308E+02 -0.19874558469E+02  0.54587426176E+02  0.00000000000E+00 0.  1.
         11    1    1    2    0    0 -0.38154693170E+02  0.15312416312E+02 -0.12707142516E+03  0.13355672127E+03  0.00000000000E+00 0. -1.
</event>
<event>
 7    1  0.2728221E-009  0.1184894E+03  0.7561462E-02  0.1245610E+00
          1   -1    0    0  501    0  0.00000000000E+00  0.00000000000E+00  0.15215730862E+04  0.15215730862E+04  0.00000000000E+00 0. -1.
         -1   -1    0    0    0  501 -0.00000000000E+00 -0.00000000000E+00 -0.11539681525E+02  0.11539681525E+02  0.00000000000E+00 0.  1.
         25    2    1    2    0    0 -0.49832386485E+02 -0.15290020766E+02  0.11577352784E+04  0.11656423148E+04  0.12511586548E+03 0.  0.
          5    1    3    3  502    0 -0.87280431481E+02 -0.33267104540E+02  0.76409278016E+03  0.76979206482E+03  0.41800000000E+01 0.  1.
         -5    1    3    3    0  502  0.37448044996E+02  0.17977083774E+02  0.39364249824E+03  0.39585025001E+03  0.41800000000E+01 0.  1.
        -11    1    1    2    0    0  0.74942688392E+02  0.15909244373E+02  0.29722025556E+03  0.30693548331E+03  0.00000000000E+00 0. -1.
         11    1    1    2    0    0 -0.25110301907E+02 -0.61922360713E+00  0.55077870703E+02  0.60534969570E+02  0.00000000000E+00 0.  1.
</event>
<event>
 7    1  0.2741767E-009  0.1019661E+03  0.7561462E-02  0.1276215E+00
         -1   -1    0    0    0  501 -0.00000000000E+00  0.00000000000E+00  0.18215478803E+02  0.18215478803E+02  0.00000000000E+00 0.  1.
          1   -1    0    0  501    0  0.00000000000E+00 -0.00000000000E+00 -0.91160260333E+03  0.91160260333E+03  0.00000000000E+00 0. -1.
         25    2    1    2    0    0  0.20203084225E+02  0.64287626478E+02 -0.55102830118E+03  0.56905201536E+03  0.12508774503E+03 0.  0.
          5    1    3    3  502    0  0.21199760764E+01  0.77428561869E+02 -0.16467729255E+03  0.18203230365E+03  0.41800000000E+01 0.  1.
         -5    1    3    3    0  502  0.18083108149E+02 -0.13140935391E+02 -0.38635100863E+03  0.38701971171E+03  0.41800000000E+01 0.  1.
        -11    1    1    2    0    0  0.13201637961E+02 -0.68672140342E+02 -0.15026280323E+03  0.16573791401E+03  0.00000000000E+00 0.  1.
         11    1    1    2    0    0 -0.33404722186E+02  0.43845138641E+01 -0.19209602012E+03  0.19502815276E+03  0.00000000000E+00 0. -1.
</event>
<event>
 7    1  0.2728221E-009  0.1840678E+03  0.7561462E-02  0.1163923E+00
          3   -1    0    0  501    0  0.00000000000E+00  0.00000000000E+00  0.63899947648E+03  0.63899947648E+03  0.00000000000E+00 0. -1.
         -3   -1    0    0    0  501 -0.00000000000E+00 -0.00000000000E+00 -0.55189543957E+02  0.55189543957E+02  0.00000000000E+00 0.  1.
         25    2    1    2    0    0 -0.46365762685E+02  0.13963456283E+03  0.32911556478E+03  0.38159241618E+03  0.12509245391E+03 0.  0.
          5    1    3    3  502    0  0.32564842076E+02  0.94092730129E+02  0.20062148975E+03  0.22400974388E+03  0.41800000000E+01 0. -1.
         -5    1    3    3    0  502 -0.78930604761E+02  0.45541832698E+02  0.12849407502E+03  0.15758267230E+03  0.41800000000E+01 0. -1.
        -11    1    1    2    0    0  0.66434097516E+02 -0.44340004860E+02  0.14774253912E+03  0.16795053798E+03  0.00000000000E+00 0. -1.
         11    1    1    2    0    0 -0.20068334831E+02 -0.95294557967E+02  0.10695182863E+03  0.14464606627E+03  0.00000000000E+00 0.  1.
</event>
<event>
 7    1  0.2728221E-009  0.8200413E+02  0.7561462E-02  0.1323458E+00
         -2   -1    0    0    0  501 -0.00000000000E+00  0.00000000000E+00  0.47923481667E+02  0.47923481667E+02  0.00000000000E+00 0. -1.
          2   -1    0    0  501    0  0.00000000000E+00 -0.00000000000E+00 -0.35149683264E+03  0.35149683264E+03  0.00000000000E+00 0.  1.
         25    2    1    2    0    0  0.62967523492E+02 -0.34373450554E+02 -0.15652796879E+03  0.21282730230E+03  0.12509201603E+03 0.  0.
          5    1    3    3  502    0  0.25644492214E+02 -0.24075482186E+02 -0.16842365637E+03  0.17210830674E+03  0.41800000000E+01 0. -1.
         -5    1    3    3    0  502  0.37323031277E+02 -0.10297968368E+02  0.11895687586E+02  0.40718995560E+02  0.41800000000E+01 0. -1.
        -11    1    1    2    0    0 -0.17886345854E+02 -0.14593526894E+02  0.21896504888E+01  0.23188078068E+02  0.00000000000E+00 0. -1.
         11    1    1    2    0    0 -0.45081177637E+02  0.48966977448E+02 -0.14923503267E+03  0.16340493393E+03  0.00000000000E+00 0.  1.
</event>
<event>
 7    1  0.2728221E-009  0.1230297E+03  0.7561462E-02  0.1238181E+00
          2   -1    0    0  501    0  0.00000000000E+00  0.00000000000E+00  0.12245060017E+04  0.12245060017E+04  0.00000000000E+00 0.  1.
         -2   -1    0    0    0  501 -0.00000000000E+00 -0.00000000000E+00 -0.16601880829E+02  0.16601880829E+02  0.00000000000E+00 0. -1.
         25    2    1    2    0    0  0.71675135848E+02  0.49657483691E+02  0.77936807102E+03  0.79414396861E+03  0.12508741734E+03 0.  0.
          5    1    3    3  502    0  0.39774836238E+02  0.71212041635E+02  0.24257194878E+03  0.25595275972E+03  0.41800000000E+01 0. -1.
         -5    1    3    3    0  502  0.31900299610E+02 -0.21554557943E+02  0.53679612224E+03  0.53819120890E+03  0.41800000000E+01 0. -1.
        -11    1    1    2    0    0  0.21730793225E+02 -0.59340954923E+01  0.10494141947E+03  0.10733192621E+03  0.00000000000E+00 0. -1.
         11    1    1    2    0    0 -0.93405929073E+02 -0.43723388199E+02  0.32359463042E+03  0.33963198774E+03  0.00000000000E+00 0.  1.
</event>
<event>
 7    1  0.2728221E-009  0.9250310E+02  0.7561462E-02  0.1296901E+00
         -1   -1    0    0    0  501 -0.00000000000E+00  0.00000000000E+00  0.13261950509E+03  0.13261950509E+03  0.00000000000E+00 0.  1.
          1   -1    0    0  501    0  0.00000000000E+00 -0.00000000000E+00 -0.13962705289E+03  0.13962705289E+03  0.00000000000E+00 0. -1.
         25    2    1    2    0    0  0.55864889294E+02  0.76108778881E+01 -0.63892068873E+02  0.15135578059E+03  0.12509022558E+03 0.  0.
          5    1    3    3  502    0  0.11667602960E+02  0.36548552167E+02  0.26331874294E+02  0.46720120164E+02  0.41800000000E+01 0.  1.
         -5    1    3    3    0  502  0.44197286334E+02 -0.28937674279E+02 -0.90223943167E+02  0.10463566042E+03  0.41800000000E+01 0.  1.
        -11    1    1    2    0    0 -0.39347854814E+02  0.31862458270E+02  0.59371985643E+02  0.78028857512E+02  0.00000000000E+00 0.  1.
         11    1    1    2    0    0 -0.16517034479E+02 -0.39473336158E+02 -0.24874645754E+01  0.42861919876E+02  0.00000000000E+00 0. -1.
</event>
<event>
 7    1  0.2728221E-009  0.1421507E+03  0.7561462E-02  0.1210464E+00
         -1   -1    0    0    0  501 -0.00000000000E+00  0.00000000000E+00  0.56230528756E+02  0.56230528756E+02  0.00000000000E+00 0.  1.
          1   -1    0    0  501    0  0.00000000000E+00 -0.00000000000E+00 -0.36905898462E+03  0.36905898462E+03  0.00000000000E+00 0. -1.
         25    2    1    2    0    0 -0.64716076065E+02 -0.68192976980E+02 -0.17193811279E+03  0.23248387955E+03  0.12509031541E+03 0.  0.
          5    1    3    3  502    0 -0.32904577706E+01 -0.88133450611E+02 -0.74569111088E+02  0.11556970605E+03  0.41800000000E+01 0. -1.
         -5    1    3    3    0  502 -0.61425618295E+02  0.19940473631E+02 -0.97369001702E+02  0.11691417350E+03  0.41800000000E+01 0. -1.
        -11    1    1    2    0    0  0.15654874108E+01  0.68122658644E+02 -0.66301114100E+02  0.95073577310E+02  0.00000000000E+00 0. -1.
         11    1    1    2    0    0  0.63150588655E+02  0.70318336319E-01 -0.74589228974E+02  0.97732056517E+02  0.00000000000E+00 0.  1.
</event>
<event>
 7    1  0.2728221E-009  0.1297467E+03  0.7561462E-02  0.1227832E+00
         -2   -1    0    0    0  501 -0.00000000000E+00  0.00000000000E+00  0.27231755412E+02  0.27231755412E+02  0.00000000000E+00 0.  1.
          2   -1    0    0  501    0  0.00000000000E+00 -0.00000000000E+00 -0.69202816026E+03  0.69202816026E+03  0.00000000000E+00 0. -1.
         25    2    1    2    0    0 -0.16186569974E+02  0.82104723750E+02 -0.42959919496E+03  0.45519904065E+03  0.12508999796E+03 0.  0.
          5    1    3    3  502    0 -0.67033780011E+02  0.71168877109E+02 -0.29685907527E+03  0.31257210321E+03  0.41800000000E+01 0. -1.
         -5    1    3    3    0  502  0.50847210037E+02  0.10935846641E+02 -0.13274011969E+03  0.14262693745E+03  0.41800000000E+01 0. -1.
        -11    1    1    2    0    0 -0.26670315433E+02 -0.17387478075E+02 -0.12681350422E+03  0.13074897694E+03  0.00000000000E+00 0. -1.
         11    1    1    2    0    0  0.42856885407E+02 -0.64717245675E+02 -0.10838370566E+03  0.13331189807E+03  0.00000000000E+00 0.  1.
</event>
<event>
 7    1  0.2728221E-009  0.8808834E+02  0.7561462E-02  0.1307548E+00
         -1   -1    0    0    0  501 -0.00000000000E+00  0.00000000000E+00  0.12265368294E+03  0.12265368294E+03  0.00000000000E+00 0.  1.
          1   -1    0    0  501    0  0.00000000000E+00 -0.00000000000E+00 -0.98238211455E+02  0.98238211455E+02  0.00000000000E+00 0. -1.
         25    2    1    2    0    0  0.74163789954E+01 -0.45970853310E+01 -0.35837459239E+01  0.12544618524E+03  0.12509103200E+03 0.  0.
          5    1    3    3  502    0  0.12467169452E+02 -0.49862661286E+02 -0.41376057857E+02  0.66114793114E+02  0.41800000000E+01 0.  1.
         -5    1    3    3    0  502 -0.50507904565E+01  0.45265575955E+02  0.37792311933E+02  0.59331392130E+02  0.41800000000E+01 0.  1.
        -11    1    1    2    0    0  0.16253378793E+02  0.36028160508E+02  0.38020246859E+02  0.54842865014E+02  0.00000000000E+00 0.  1.
         11    1    1    2    0    0 -0.23669757788E+02 -0.31431075177E+02 -0.10021029453E+02  0.40602844135E+02  0.00000000000E+00 0. -1.
</event>
<event>
 7    1  0.2728221E-009  0.1592933E+03  0.7561462E-02  0.1189497E+00
         -1   -1    0    0    0  501 -0.00000000000E+00  0.00000000000E+00  0.19374840110E+03  0.19374840110E+03  0.00000000000E+00 0.  1.
          1   -1    0    0  501    0  0.00000000000E+00 -0.00000000000E+00 -0.16302396437E+03  0.16302396437E+03  0.00000000000E+00 0. -1.
         25    2    1    2    0    0  0.26621326105E+02 -0.13014345022E+03 -0.31192832756E+02  0.18512194058E+03  0.12510446606E+03 0.  0.
          5    1    3    3  502    0  0.24985350041E+02  0.12833721114E+02  0.18266209600E+02  0.33765350990E+02  0.41800000000E+01 0. -1.
         -5    1    3    3    0  502  0.16359760640E+01 -0.14297717133E+03 -0.49459042356E+02  0.15135658959E+03  0.41800000000E+01 0. -1.
        -11    1    1    2    0    0  0.20858359053E+02  0.46437161111E+02 -0.95327767354E+01  0.51791455924E+02  0.00000000000E+00 0. -1.
         11    1    1    2    0    0 -0.47479685158E+02  0.83706289108E+02  0.71450046220E+02  0.11985896897E+03  0.00000000000E+00 0.  1.
</event>
<event>
 7    1  0.2728221E-009  0.1021921E+03  0.7561462E-02  0.1275753E+00
          1   -1    0    0  501    0  0.00000000000E+00  0.00000000000E+00  0.59615421087E+02  0.59615421087E+02  0.00000000000E+00 0. -1.
         -1   -1    0    0    0  501 -0.00000000000E+00 -0.00000000000E+00 -0.21291914566E+03  0.21291914566E+03  0.00000000000E+00 0.  1.
         25    2    1    2    0    0  0.21867256840E+02  0.11682936910E+02 -0.63457389105E+02  0.14243763937E+03  0.12508786088E+03 0.  0.
          5    1    3    3  502    0  0.30322222529E+02 -0.52036986028E+02 -0.45408321425E+02  0.75542525432E+02  0.41800000000E+01 0. -1.
         -5    1    3    3    0  502 -0.84549656889E+01  0.63719922938E+02 -0.18049067680E+02  0.66895113933E+02  0.41800000000E+01 0. -1.
        -11    1    1    2    0    0 -0.17725032904E+02 -0.43781472169E+02 -0.85177601343E+02  0.97397216938E+02  0.00000000000E+00 0.  1.
         11    1    1    2    0    0 -0.41422239360E+01  0.32098535259E+02 -0.46687341266E+01  0.32699710446E+02  0.00000000000E+00 0. -1.
</event>
<event>
 7    1  0.2728221E-009  0.1110370E+03  0.7561462E-02  0.1258661E+00
         -1   -1    0    0    0  501 -0.00000000000E+00  0.00000000000E+00  0.58176261966E+02  0.58176261966E+02  0.00000000000E+00 0.  1.
          1   -1    0    0  501    0  0.00000000000E+00 -0.00000000000E+00 -0.32831416112E+03  0.32831416112E+03  0.00000000000E+00 0. -1.
         25    2    1    2    0    0 -0.31162052528E+02 -0.89173779994E+01 -0.25476427011E+03  0.28566225358E+03  0.12508995422E+03 0.  0.
          5    1    3    3  502    0 -0.15977706308E+02  0.57419838355E+02 -0.13925775355E+03  0.15153388816E+03  0.41800000000E+01 0. -1.
         -5    1    3    3    0  502 -0.15184346220E+02 -0.66337216355E+02 -0.11550651656E+03  0.13412836543E+03  0.41800000000E+01 0. -1.
        -11    1    1    2    0    0 -0.15042045512E+02  0.37093625540E+02  0.96971458171E+01  0.41185371503E+02  0.00000000000E+00 0.  1.
         11    1    1    2    0    0  0.46204098039E+02 -0.28176247540E+02 -0.25070774853E+02  0.59642797996E+02  0.00000000000E+00 0. -1.
</event>
<event>
 7    1  0.2728221E-009  0.1269011E+03  0.7561462E-02  0.1232128E+00
          2   -1    0    0  501    0  0.00000000000E+00  0.00000000000E+00  0.90208966871E+03  0.90208966871E+03  0.00000000000E+00 0. -1.
         -2   -1    0    0    0  501 -0.00000000000E+00 -0.00000000000E+00 -0.27044004075E+02  0.27044004075E+02  0.00000000000E+00 0.  1.
         25    2    1    2    0    0  0.49893883288E+02  0.63865004849E+02  0.68329473357E+03  0.69936158254E+03  0.12508713676E+03 0.  0.
          5    1    3    3  502    0 -0.12811143058E+02  0.63212855261E+02  0.52631190752E+03  0.53026567573E+03  0.41800000000E+01 0. -1.
         -5    1    3    3    0  502  0.62705026346E+02  0.65214958779E+00  0.15698282604E+03  0.16909590681E+03  0.41800000000E+01 0. -1.
        -11    1    1    2    0    0 -0.35803546564E+02  0.20182980835E+02  0.69636508518E+02  0.80860929876E+02  0.00000000000E+00 0.  1.
         11    1    1    2    0    0 -0.14090336724E+02 -0.84047985684E+02  0.12211442255E+03  0.14891116036E+03  0.00000000000E+00 0. -1.
</event>
<event>
 7    1  0.2728221E-009  0.1232209E+03  0.7561462E-02  0.1237876E+00
          2   -1    0    0  501    0  0.00000000000E+00  0.00000000000E+00  0.46627892744E+03  0.46627892744E+03  0.00000000000E+00 0.  1.
         -2   -1    0    0    0  501 -0.00000000000E+00 -0.00000000000E+00 -0.34728376100E+02  0.34728376100E+02  0.00000000000E+00 0. -1.
         25    2    1    2    0    0  0.51137958170E+02 -0.40426768725E+02  0.22192761108E+03  0.26296175357E+03  0.12509038686E+03 0.  0.
          5    1    3    3  502    0 -0.32185953427E+02  0.17788974189E+02  0.39815660552E+02  0.54361221711E+02  0.41800000000E+01 0.  1.
         -5    1    3    3    0  502  0.83323911597E+02 -0.58215742914E+02  0.18211195053E+03  0.20860053186E+03  0.41800000000E+01 0.  1.
        -11    1    1    2    0    0 -0.74905308980E+02  0.37449012245E+02  0.18786602840E+03  0.20568635943E+03  0.00000000000E+00 0.  1.
         11    1    1    2    0    0  0.23767350810E+02  0.29777564804E+01  0.21756911854E+02  0.32359190527E+02  0.00000000000E+00 0. -1.
</event>
<event>
 7    1  0.2728221E-009  0.9430947E+02  0.7561462E-02  0.1292739E+00
         -1   -1    0    0    0  501 -0.00000000000E+00  0.00000000000E+00  0.72955870408E+03  0.72955870408E+03  0.00000000000E+00 0.  1.
          1   -1    0    0  501    0  0.00000000000E+00 -0.00000000000E+00 -0.15947004747E+02  0.15947004747E+02  0.00000000000E+00 0. -1.
         25    2    1    2    0    0  0.56771232780E+01  0.60107063487E+02  0.48548325527E+03  0.50496188760E+03  0.12508967972E+03 0.  0.
          5    1    3    3  502    0  0.19234236014E+02 -0.28674183409E+02  0.54144511750E+02  0.64352662586E+02  0.41800000000E+01 0. -1.
         -5    1    3    3    0  502 -0.13557112736E+02  0.88781246897E+02  0.43133874352E+03  0.44060922501E+03  0.41800000000E+01 0. -1.
        -11    1    1    2    0    0 -0.13671093415E+02 -0.41015160304E+02  0.20498707767E+03  0.20949664480E+03  0.00000000000E+00 0.  1.
         11    1    1    2    0    0  0.79939701372E+01 -0.19091903183E+02  0.23141366393E+02  0.31047176429E+02  0.00000000000E+00 0. -1.
</event>
<event>
 7    1  0.3108577E-009  0.1271084E+03  0.7561462E-02  0.1231810E+00
         -2   -1    0    0    0  501 -0.00000000000E+00  0.00000000000E+00  0.18393789397E+02  0.18393789397E+02  0.00000000000E+00 0.  1.
          2   -1    0    0  501    0  0.00000000000E+00 -0.00000000000E+00 -0.13132175503E+04  0.13132175503E+04  0.00000000000E+00 0. -1.
         25    2    1    2    0    0 -0.10495022996E+03  0.32207359205E+02 -0.75995051324E+03  0.77795935781E+03  0.12507643691E+03 0.  0.
          5    1    3    3  502    0 -0.70850383075E+02  0.48068965325E+02 -0.71069990631E+03  0.71585070472E+03  0.41800000000E+01 0.  1.
         -5    1    3    3    0  502 -0.34099846880E+02 -0.15861606120E+02 -0.49250606928E+02  0.62108653091E+02  0.41800000000E+01 0.  1.
        -11    1    1    2    0    0  0.11359202348E+02 -0.35231326327E+02 -0.67436947954E+02  0.76928666842E+02  0.00000000000E+00 0.  1.
         11    1    1    2    0    0  0.93591027608E+02  0.30239671219E+01 -0.46743629968E+03  0.47672331502E+03  0.00000000000E+00 0. -1.
</event>
<event>
 7    1  0.2728221E-009  0.1426977E+03  0.7561462E-02  0.1209744E+00
         -1   -1    0    0    0  501 -0.00000000000E+00  0.00000000000E+00  0.81161345986E+02  0.81161345986E+02  0.00000000000E+00 0.  1.
          1   -1    0    0  501    0  0.00000000000E+00 -0.00000000000E+00 -0.28083963010E+03  0.28083963010E+03  0.00000000000E+00 0. -1.
         25    2    1    2    0    0  0.57723768620E+02 -0.83878252278E+02 -0.14052149581E+03  0.21392729800E+03  0.12510397026E+03 0.  0.
          5    1    3    3  502    0 -0.39473502934E+02 -0.24311114803E+02 -0.32055983255E+02  0.56517662720E+02  0.41800000000E+01 0.  1.
         -5    1    3    3    0  502  0.97197271555E+02 -0.59567137475E+02 -0.10846551256E+03  0.15740963528E+03  0.41800000000E+01 0.  1.
        -11    1    1    2    0    0 -0.57945243189E+02  0.20605152425E+02 -0.67886486452E-01  0.61499822140E+02  0.00000000000E+00 0.  1.
         11    1    1    2    0    0  0.22147456817E+00  0.63273099853E+02 -0.59088901816E+02  0.86573855949E+02  0.00000000000E+00 0. -1.
</event>
<event>
 7    1  0.2728221E-009  0.9717150E+02  0.7561462E-02  0.1286359E+00
          2   -1    0    0  501    0  0.00000000000E+00  0.00000000000E+00  0.30094937871E+03  0.30094937871E+03  0.00000000000E+00 0. -1.
         -2   -1    0    0    0  501 -0.00000000000E+00 -0.00000000000E+00 -0.39496746231E+02  0.39496746231E+02  0.00000000000E+00 0.  1.
         25    2    1    2    0    0  0.71204393529E+01  0.79867843246E+00  0.14644687209E+03  0.19273166650E+03  0.12508984924E+03 0.  0.
          5    1    3    3  502    0  0.83135929940E+01  0.62620757706E+02  0.72679268803E+02  0.96385806206E+02  0.41800000000E+01 0. -1.
         -5    1    3    3    0  502 -0.11931536411E+01 -0.61822079274E+02  0.73767603290E+02  0.96345860298E+02  0.41800000000E+01 0. -1.
        -11    1    1    2    0    0 -0.59390765316E+01 -0.34666471902E+02  0.88318315569E+01  0.36263454784E+02  0.00000000000E+00 0.  1.
         11    1    1    2    0    0 -0.11813628213E+01  0.33867793470E+02  0.10617392883E+03  0.11145100366E+03  0.00000000000E+00 0. -1.
</event>
<event>
 7    1  0.2728221E-009  0.7720227E+02  0.7561462E-02  0.1337184E+00
          2   -1    0    0  501    0  0.00000000000E+00  0.00000000000E+00  0.88001700092E+02  0.88001700092E+02  0.00000000000E+00 0. -1.
         -2   -1    0    0    0  501 -0.00000000000E+00 -0.00000000000E+00 -0.15665762470E+03  0.15665762470E+03  0.00000000000E+00 0.  1.
         25    2    1    2    0    0 -0.39262946784E+02 -0.20108231328E+02 -0.28887180752E+02  0.13573828096E+03  0.12507794270E+03 0.  0.
          5    1    3    3  502    0 -0.27648349795E+02 -0.28849430904E+02 -0.76158319701E+02  0.86106230724E+02  0.41800000000E+01 0.  1.
         -5    1    3    3    0  502 -0.11614596990E+02  0.87411995761E+01  0.47271138949E+02  0.49632050237E+02  0.41800000000E+01 0.  1.
        -11    1    1    2    0    0  0.44018097849E+02  0.51273342942E+02 -0.37571910062E+02  0.77318801468E+02  0.00000000000E+00 0. -1.
         11    1    1    2    0    0 -0.47551510647E+01 -0.31165111614E+02 -0.21968337931E+01  0.31602242361E+02  0.00000000000E+00 0.  1.
</event>
<event>
 7    1  0.2728221E-009  0.2066204E+03  0.7561462E-02  0.1144271E+00
         -2   -1    0    0    0  501 -0.00000000000E+00  0.00000000000E+00  0.48667089918E+02  0.48667089918E+02  0.00000000000E+00 0.  1.
          2   -1    0    0  501    0  0.00000000000E+00 -0.00000000000E+00 -0.90684667838E+03  0.90684667838E+03  0.00000000000E+00 0. -1.
         25    2    1    2    0    0  0.45473788562E+02 -0.17236182231E+03 -0.49865233883E+03  0.54413008659E+03  0.12508770074E+03 0.  0.
          5    1    3    3  502    0  0.54555348677E+02 -0.13784858613E+02 -0.16925823812E+03  0.17841561582E+03  0.41800000000E+01 0.  1.
         -5    1    3    3    0  502 -0.90815601153E+01 -0.15857696369E+03 -0.32939410071E+03  0.36571447077E+03  0.41800000000E+01 0.  1.
        -11    1    1    2    0    0 -0.17762581763E+02  0.16908986327E+03 -0.32675147972E+03  0.36833873088E+03  0.00000000000E+00 0. -1.
         11    1    1    2    0    0 -0.27711206799E+02  0.32719590411E+01 -0.32775769919E+02  0.43044950830E+02  0.00000000000E+00 0.  1.
</event>
<event>
 7    1  0.2728221E-009  0.1353396E+03  0.7561462E-02  0.1219741E+00
         -2   -1    0    0    0  501 -0.00000000000E+00  0.00000000000E+00  0.50720624333E+02  0.50720624333E+02  0.00000000000E+00 0.  1.
          2   -1    0    0  501    0  0.00000000000E+00 -0.00000000000E+00 -0.44138250939E+03  0.44138250939E+03  0.00000000000E+00 0. -1.
         25    2    1    2    0    0 -0.30411456208E+02 -0.97914492860E+02 -0.21396449394E+03  0.26821694118E+03  0.12508964102E+03 0.  0.
          5    1    3    3  502    0  0.28816396931E+02 -0.70138567433E+02 -0.17782852716E+03  0.19336561444E+03  0.41800000000E+01 0.  1.
         -5    1    3    3    0  502 -0.59227853139E+02 -0.27775925428E+02 -0.36135966775E+02  0.74851326746E+02  0.41800000000E+01 0.  1.
        -11    1    1    2    0    0 -0.23698767540E+02  0.55779868246E+02 -0.45286462093E+02  0.75656387260E+02  0.00000000000E+00 0.  1.
         11    1    1    2    0    0  0.54110223748E+02  0.42134624614E+02 -0.13141092902E+03  0.14822980528E+03  0.00000000000E+00 0. -1.
</event>
<event>
 7    1  0.2728221E-009  0.2032699E+03  0.7561462E-02  0.1147009E+00
          2   -1    0    0  501    0  0.00000000000E+00  0.00000000000E+00  0.13810196059E+04  0.13810196059E+04  0.00000000000E+00 0. -1.
         -2   -1    0    0    0  501 -0.00000000000E+00 -0.00000000000E+00 -0.45289907687E+02  0.45289907687E+02  0.00000000000E+00 0.  1.
         25    2    1    2    0    0  0.14923891796E+03 -0.13418781570E+03  0.97751329441E+03  0.10057129689E+04  0.12509080883E+03 0.  0.
          5    1    3    3  502    0  0.55925999964E+02 -0.30906760833E+02  0.59870675821E+03  0.60212141638E+03  0.41800000000E+01 0.  1.
         -5    1    3    3    0  502  0.93312917998E+02 -0.10328105487E+03  0.37880653620E+03  0.40359155248E+03  0.41800000000E+01 0.  1.
        -11    1    1    2    0    0 -0.23279964786E+02  0.38805155637E+02  0.24715372657E+02  0.51562064641E+02  0.00000000000E+00 0.  1.
         11    1    1    2    0    0 -0.12595895318E+03  0.95382660063E+02  0.33350103119E+03  0.36903448014E+03  0.00000000000E+00 0. -1.
</event>
<event>
 7    1  0.2728221E-009  0.1128502E+03  0.7561462E-02  0.1255381E+00
          2   -1    0    0  501    0  0.00000000000E+00  0.00000000000E+00  0.24378984425E+03  0.24378984425E+03  0.00000000000E+00 0. -1.
         -2   -1    0    0    0  501 -0.00000000000E+00 -0.00000000000E+00 -0.66107834071E+02  0.66107834071E+02  0.00000000000E+00 0.  1.
         25    2    1    2    0    0 -0.51718790033E+02  0.39509410901E+01  0.14656876196E+03  0.19954866428E+03  0.12508726656E+03 0.  0.
          5    1    3    3  502    0 -0.53921015491E+02 -0.53998673953E+02  0.94164155179E+02  0.12127527869E+03  0.41800000000E+01 0.  1.
         -5    1    3    3    0  502  0.22022254582E+01  0.57949615043E+02  0.52404606784E+02  0.78273385597E+02  0.41800000000E+01 0.  1.
        -11    1    1    2    0    0  0.42065713430E+02  0.32669612494E+02 -0.10280257867E+02  0.54244921686E+02  0.00000000000E+00 0.  1.
         11    1    1    2    0    0  0.96530766033E+01 -0.36620553584E+02  0.41393506085E+02  0.56104092353E+02  0.00000000000E+00 0. -1.
</event>
<event>
 7    1  0.2728221E-009  0.1326973E+03  0.7561462E-02  0.1223507E+00
         -1   -1    0    0    0  501 -0.00000000000E+00  0.00000000000E+00  0.47492336163E+02  0.47492336163E+02  0.00000000000E+00 0.  1.
          1   -1    0    0  501    0  0.00000000000E+00 -0.00000000000E+00 -0.44443225211E+03  0.44443225211E+03  0.00000000000E+00 0. -1.
         25    2    1    2    0    0 -0.19035284516E+02 -0.92195832224E+02 -0.17599935377E+03  0.23555324919E+03  0.12508855720E+03 0.  0.
          5    1    3    3  502    0 -0.57172665237E+02 -0.23538168356E+01 -0.49885215660E+02  0.76028029341E+02  0.41800000000E+01 0. -1.
         -5    1    3    3    0  502  0.38137380721E+02 -0.89842015389E+02 -0.12611413811E+03  0.15952521985E+03  0.41800000000E+01 0. -1.
        -11    1    1    2    0    0 -0.10733731259E+02  0.75378935695E+02 -0.76474776078E+02  0.10791472703E+03  0.00000000000E+00 0.  1.
         11    1    1    2    0    0  0.29769015775E+02  0.16816896530E+02 -0.14446578610E+03  0.14845661205E+03  0.00000000000E+00 0. -1.
</event>
<event>
 7    1  0.2728221E-009  0.1622589E+03  0.7561462E-02  0.1186170E+00
         -1   -1    0    0    0  501 -0.00000000000E+00  0.00000000000E+00  0.36913728873E+02  0.36913728873E+02  0.00000000000E+00 0.  1.
          1   -1    0    0  501    0  0.00000000000E+00 -0.00000000000E+00 -0.94989204240E+03  0.94989204240E+03  0.00000000000E+00 0. -1.
         25    2    1    2    0    0  0.13439028258E+03  0.27199439902E+02 -0.30308575078E+03  0.35539983361E+03  0.12509001485E+03 0.  0.
          5    1    3    3  502    0  0.87812640000E+02 -0.25039805837E+02 -0.25362997249E+03  0.26959912271E+03  0.41800000000E+01 0. -1.
         -5    1    3    3    0  502  0.46577642583E+02  0.52239245738E+02 -0.49455778296E+02  0.85800710899E+02  0.41800000000E+01 0. -1.
        -11    1    1    2    0    0 -0.13187470985E+03 -0.49273138711E+02 -0.51007023467E+03  0.52914121517E+03  0.00000000000E+00 0.  1.
         11    1    1    2    0    0 -0.25155727323E+01  0.22073698810E+02 -0.99822328073E+02  0.10226472250E+03  0.00000000000E+00 0. -1.
</event>
<event>
 7    1  0.2728221E-009  0.1127255E+03  0.7561462E-02  0.1255604E+00
         -2   -1    0    0    0  501 -0.00000000000E+00  0.00000000000E+00  0.10302957955E+03  0.10302957955E+03  0.00000000000E+00 0.  1.
          2   -1    0    0  501    0  0.00000000000E+00 -0.00000000000E+00 -0.18004184803E+03  0.18004184803E+03  0.00000000000E+00 0. -1.
         25    2    1    2    0    0 -0.65126162798E+02  0.12861246994E+02 -0.94444815483E+02  0.17021917327E+03  0.12509162650E+03 0.  0.
          5    1    3    3  502    0  0.28226769197E+02  0.13555044197E+02 -0.64951459998E+02  0.72226409840E+02  0.41800000000E+01 0. -1.
         -5    1    3    3    0  502 -0.93352931995E+02 -0.69379720292E+00 -0.29493355485E+02  0.97992763428E+02  0.41800000000E+01 0. -1.
        -11    1    1    2    0    0  0.13561450856E+02 -0.39932523510E+02 -0.16687951116E+02  0.45354240107E+02  0.00000000000E+00 0.  1.
         11    1    1    2    0    0  0.51564711942E+02  0.27071276516E+02  0.34120498112E+02  0.67498014203E+02  0.00000000000E+00 0. -1.
</event>
<event>
 7    1  0.2728221E-009  0.1013222E+03  0.7561462E-02  0.1277540E+00
         -1   -1    0    0    0  501 -0.00000000000E+00  0.00000000000E+00  0.10045384865E+03  0.10045384865E+03  0.00000000000E+00 0.  1.
          1   -1    0    0  501    0  0.00000000000E+00 -0.00000000000E+00 -0.13478652198E+03  0.13478652198E+03  0.00000000000E+00 0. -1.
         25    2    1    2    0    0 -0.40392811880E+02 -0.64689292618E+01 -0.95650778491E+01  0.13196174206E+03  0.12509590064E+03 0.  0.
          5    1    3    3  502    0  0.44985410214E+02  0.44690947700E+01 -0.47982488054E+01  0.45652552303E+02  0.41800000000E+01 0.  1.
         -5    1    3    3    0  502 -0.85378222094E+02 -0.10938024032E+02 -0.47668290437E+01  0.86309189759E+02  0.41800000000E+01 0.  1.
        -11    1    1    2    0    0  0.37234932577E+02 -0.21449274841E+02 -0.49709991972E+02  0.65708408116E+02  0.00000000000E+00 0. -1.
         11    1    1    2    0    0  0.31578793029E+01  0.27918204103E+02  0.24942396492E+02  0.37570220452E+02  0.00000000000E+00 0.  1.
</event>
<event>
 7    1  0.2728221E-009  0.3230037E+03  0.7561462E-02  0.1074275E+00
          2   -1    0    0  501    0  0.00000000000E+00  0.00000000000E+00  0.13233980293E+04  0.13233980293E+04  0.00000000000E+00 0. -1.
         -2   -1    0    0    0  501 -0.00000000000E+00 -0.00000000000E+00 -0.85353982974E+02  0.85353982974E+02  0.00000000000E+00 0.  1.
         25    2    1    2    0    0  0.23910455351E+03  0.20109302186E+03  0.74510269104E+03  0.81757910811E+03  0.12509271308E+03 0.  0.
          5    1    3    3  502    0  0.11643752489E+01  0.46970617058E+02  0.61460903878E+02  0.77475865545E+02  0.41800000000E+01 0.  1.
         -5    1    3    3    0  502  0.23794017826E+03  0.15412240480E+03  0.68364178716E+03  0.74010324256E+03  0.41800000000E+01 0.  1.
        -11    1    1    2    0    0 -0.17379296304E+03 -0.12004128448E+03  0.39660406765E+03  0.44934250908E+03  0.00000000000E+00 0.  1.
         11    1    1    2    0    0 -0.65311590464E+02 -0.81051737380E+02  0.96337287604E+02  0.14183039506E+03  0.00000000000E+00 0. -1.
</event>
<event>
 7    1  0.2728221E-009  0.1657132E+03  0.7561462E-02  0.1182394E+00
          1   -1    0    0  501    0  0.00000000000E+00  0.00000000000E+00  0.44065561811E+03  0.44065561811E+03  0.00000000000E+00 0. -1.
         -1   -1    0    0    0  501 -0.00000000000E+00 -0.00000000000E+00 -0.72376408589E+02  0.72376408589E+02  0.00000000000E+00 0.  1.
         25    2    1    2    0    0  0.13554615013E+03  0.26932381554E+02  0.15089221099E+03  0.23982496219E+03  0.12509772644E+03 0.  0.
          5    1    3    3  502    0  0.83243675054E+02  0.74245380348E+02  0.11616220277E+03  0.16109939693E+03  0.41800000000E+01 0. -1.
         -5    1    3    3    0  502  0.52302475080E+02 -0.47312998794E+02  0.34730008217E+02  0.78725565257E+02  0.41800000000E+01 0. -1.
        -11    1    1    2    0    0 -0.25528698202E+02 -0.29620693104E+02  0.13235831055E+02  0.41283012434E+02  0.00000000000E+00 0.  1.
         11    1    1    2    0    0 -0.11001745193E+03  0.26883115506E+01  0.20415116748E+03  0.23192405208E+03  0.00000000000E+00 0. -1.
</event>
<event>
 7    1  0.2728221E-009  0.1065872E+03  0.7561462E-02  0.1267024E+00
          2   -1    0    0  501    0  0.00000000000E+00  0.00000000000E+00  0.34397081534E+03  0.34397081534E+03  0.00000000000E+00 0. -1.
         -2   -1    0    0    0  501 -0.00000000000E+00 -0.00000000000E+00 -0.51217605221E+02  0.51217605221E+02  0.00000000000E+00 0.  1.
         25    2    1    2    0    0 -0.59413852322E+02 -0.42822622017E+02  0.19550341583E+03  0.24337816761E+03  0.12509022369E+03 0.  0.
          5    1    3    3  502    0 -0.14270166480E+01  0.20300579485E+02 -0.82007310601E+01  0.22335494037E+02  0.41800000000E+01 0.  1.
         -5    1    3    3    0  502 -0.57986835674E+02 -0.63123201503E+02  0.20370414689E+03  0.22104267357E+03  0.41800000000E+01 0.  1.
        -11    1    1    2    0    0  0.50701633946E+02  0.65185572287E+02  0.44388565742E+02  0.93755849352E+02  0.00000000000E+00 0.  1.
         11    1    1    2    0    0  0.87122183759E+01 -0.22362950269E+02  0.52861228551E+02  0.58054403603E+02  0.00000000000E+00 0. -1.
</event>
<event>
 7    1  0.2728221E-009  0.1529034E+03  0.7561462E-02  0.1196950E+00
          2   -1    0    0  501    0  0.00000000000E+00  0.00000000000E+00  0.23845438001E+03  0.23845438001E+03  0.00000000000E+00 0. -1.
         -2   -1    0    0    0  501 -0.00000000000E+00 -0.00000000000E+00 -0.14036313254E+03  0.14036313254E+03  0.00000000000E+00 0.  1.
         25    2    1    2    0    0 -0.12967777298E+02 -0.12255875216E+03  0.14240826769E+03  0.22609394078E+03  0.12509813898E+03 0.  0.
          5    1    3    3  502    0 -0.46740391387E+02  0.60163370007E-01  0.26104795201E+02  0.53699167025E+02  0.41800000000E+01 0. -1.
         -5    1    3    3    0  502  0.33772614089E+02 -0.12261891553E+03  0.11630347248E+03  0.17239477376E+03  0.41800000000E+01 0. -1.
        -11    1    1    2    0    0  0.18220214751E+02  0.14095538568E+02 -0.37384777899E+02  0.43912208458E+02  0.00000000000E+00 0.  1.
         11    1    1    2    0    0 -0.52524374525E+01  0.10846321359E+03 -0.69322423090E+01  0.10881136331E+03  0.00000000000E+00 0. -1.
</event>
<event>
 7    1  0.2728221E-009  0.9948839E+02  0.7561462E-02  0.1281375E+00
         -1   -1    0    0    0  501 -0.00000000000E+00  0.00000000000E+00  0.21150045055E+02  0.21150045055E+02  0.00000000000E+00 0.  1.
          1   -1    0    0  501    0  0.00000000000E+00 -0.00000000000E+00 -0.83292525304E+03  0.83292525304E+03  0.00000000000E+00 0. -1.
         25    2    1    2    0    0 -0.57391829743E+02  0.50183645906E+02 -0.67298246499E+03  0.68874171029E+03  0.12509006709E+03 0.  0.
          5    1    3    3  502    0  0.26222454534E+02  0.21393925821E+02 -0.40672149366E+03  0.40814845705E+03  0.41800000000E+01 0.  1.
         -5    1    3    3    0  502 -0.83614284277E+02  0.28789720086E+02 -0.26626097132E+03  0.28059325325E+03  0.41800000000E+01 0.  1.
        -11    1    1    2    0    0  0.17018240872E+02 -0.12464202899E+02 -0.66710118275E+01  0.22124178518E+02  0.00000000000E+00 0.  1.
         11    1    1    2    0    0  0.40373588872E+02 -0.37719443007E+02 -0.13212173118E+03  0.14320940929E+03  0.00000000000E+00 0. -1.
</event>
<event>
 7    1  0.2728221E-009  0.1296910E+03  0.7561462E-02  0.1227915E+00
         -2   -1    0    0    0  501 -0.00000000000E+00  0.00000000000E+00  0.44954824241E+02  0.44954824241E+02  0.00000000000E+00 0.  1.
          2   -1    0    0  501    0  0.00000000000E+00 -0.00000000000E+00 -0.58480074130E+03  0.58480074130E+03  0.00000000000E+00 0. -1.
         25    2    1    2    0    0  0.86165567665E+02 -0.17972237782E+02 -0.12989894091E+03  0.20067147761E+03  0.12509116954E+03 0.  0.
          5    1    3    3  502    0  0.98832060278E+02 -0.50009031705E+02 -0.12247142831E+03  0.16518293660E+03  0.41800000000E+01 0.  1.
         -5    1    3    3    0  502 -0.12666492613E+02  0.32036793923E+02 -0.74275125968E+01  0.35488541015E+02  0.41800000000E+01 0.  1.
        -11    1    1    2    0    0 -0.88050870028E+02 -0.74304764681E+01 -0.37817720980E+03  0.38836345053E+03  0.00000000000E+00 0. -1.
         11    1    1    2    0    0  0.18853023638E+01  0.25402714250E+02 -0.31769766351E+02  0.40720637401E+02  0.00000000000E+00 0.  1.
</event>
<event>
 7    1  0.2728221E-009  0.1161328E+03  0.7561462E-02  0.1249617E+00
         -3   -1    0    0    0  501 -0.00000000000E+00  0.00000000000E+00  0.16151447782E+03  0.16151447782E+03  0.00000000000E+00 0.  1.
          3   -1    0    0  501    0  0.00000000000E+00 -0.00000000000E+00 -0.17181036595E+03  0.17181036595E+03  0.00000000000E+00 0. -1.
         25    2    1    2    0    0  0.56315725594E+02  0.90284307800E+02  0.61369799046E+02  0.17531705219E+03  0.12508836624E+03 0.  0.
          5    1    3    3  502    0  0.68986961578E+01  0.32228263508E+02  0.88307448253E+02  0.94350043955E+02  0.41800000000E+01 0.  1.
         -5    1    3    3    0  502  0.49417029436E+02  0.58056044292E+02 -0.26937649207E+02  0.80967008231E+02  0.41800000000E+01 0.  1.
        -11    1    1    2    0    0 -0.12957857858E+02 -0.75913144500E+02 -0.49717436661E+01  0.77171431392E+02  0.00000000000E+00 0.  1.
         11    1    1    2    0    0 -0.43357867736E+02 -0.14371163300E+02 -0.66693943500E+02  0.80836360190E+02  0.00000000000E+00 0. -1.
</event>
<event>
 7    1  0.2728221E-009  0.1925961E+03  0.7561462E-02  0.1156140E+00
          1   -1    0    0  501    0  0.00000000000E+00  0.00000000000E+00  0.11065660480E+04  0.11065660480E+04  0.00000000000E+00 0. -1.
         -1   -1    0    0    0  501 -0.00000000000E+00 -0.00000000000E+00 -0.42084645506E+02  0.42084645506E+02  0.00000000000E+00 0.  1.
         25    2    1    2    0    0  0.14277719424E+03 -0.11929403422E+03  0.58281474666E+03  0.62444745332E+03  0.12508077085E+03 0.  0.
          5    1    3    3  502    0  0.38145611470E+02 -0.46529305734E+02  0.55595235498E+02  0.82026621146E+02  0.41800000000E+01 0.  1.
         -5    1    3    3    0  502  0.10463158277E+03 -0.72764728485E+02  0.52721951116E+03  0.54242083217E+03  0.41800000000E+01 0.  1.
        -11    1    1    2    0    0 -0.22480152901E+02  0.58310848125E+02  0.86937093629E+02  0.10706806495E+03  0.00000000000E+00 0.  1.
         11    1    1    2    0    0 -0.12029704134E+03  0.60983186094E+02  0.39472956219E+03  0.41713517522E+03  0.00000000000E+00 0. -1.
</event>
<event>
 7    1  0.2728221E-009  0.8953323E+02  0.7561462E-02  0.1303986E+00
         -3   -1    0    0    0  501 -0.00000000000E+00  0.00000000000E+00  0.23980233118E+03  0.23980233118E+03  0.00000000000E+00 0.  1.
          3   -1    0    0  501    0  0.00000000000E+00 -0.00000000000E+00 -0.58434227123E+02  0.58434227123E+02  0.00000000000E+00 0. -1.
         25    2    1    2    0    0 -0.30581792883E+02 -0.35802800926E+02  0.12449538696E+03  0.18265753310E+03  0.12509031303E+03 0.  0.
          5    1    3    3  502    0  0.10561536328E+02  0.20024472395E+02  0.10909161044E+03  0.11149429318E+03  0.41800000000E+01 0. -1.
         -5    1    3    3    0  502 -0.41143329211E+02 -0.55827273321E+02  0.15403776522E+02  0.71163239922E+02  0.41800000000E+01 0. -1.
        -11    1    1    2    0    0 -0.13404151577E+02  0.40188203967E+02 -0.14596930364E+01  0.42389783219E+02  0.00000000000E+00 0. -1.
         11    1    1    2    0    0  0.43985944460E+02 -0.43854030403E+01  0.58332410138E+02  0.73189241985E+02  0.00000000000E+00 0.  1.
</event>
<event>
 7    1  0.2728221E-009  0.1027972E+03  0.7561462E-02  0.1274521E+00
          3   -1    0    0  501    0  0.00000000000E+00  0.00000000000E+00  0.16026367802E+03  0.16026367802E+03  0.00000000000E+00 0. -1.
         -3   -1    0    0    0  501 -0.00000000000E+00 -0.00000000000E+00 -0.12981302286E+03  0.12981302286E+03  0.00000000000E+00 0.  1.
         25    2    1    2    0    0 -0.32555557482E+02  0.56626029897E+01  0.10278424252E+03  0.16523939723E+03  0.12509008151E+03 0.  0.
          5    1    3    3  502    0  0.27649438212E+02 -0.43366246792E+02  0.39412371368E+02  0.64930194910E+02  0.41800000000E+01 0.  1.
         -5    1    3    3    0  502 -0.60204995694E+02  0.49028849781E+02  0.63371871148E+02  0.10030920232E+03  0.41800000000E+01 0.  1.
        -11    1    1    2    0    0 -0.67696172415E+01  0.25297980888E+02  0.10371400211E+02  0.28167028543E+02  0.00000000000E+00 0. -1.
         11    1    1    2    0    0  0.39325174724E+02 -0.30960583878E+02 -0.82704987563E+02  0.96670275106E+02  0.00000000000E+00 0.  1.
</event>
<event>
 7    1  0.2728221E-009  0.1290474E+03  0.7561462E-02  0.1228876E+00
         -2   -1    0    0    0  501 -0.00000000000E+00  0.00000000000E+00  0.73709606527E+02  0.73709606527E+02  0.00000000000E+00 0.  1.
          2   -1    0    0  501    0  0.00000000000E+00 -0.00000000000E+00 -0.29476794984E+03  0.29476794984E+03  0.00000000000E+00 0. -1.
         25    2    1    2    0    0 -0.35499020381E+02 -0.77186826702E+02 -0.18940081753E+03  0.24235808811E+03  0.12508711575E+03 0.  0.
          5    1    3    3  502    0 -0.60275979860E+02 -0.99224702992E+02 -0.16075890612E+03  0.19834221369E+03  0.41800000000E+01 0.  1.
         -5    1    3    3    0  502  0.24776959479E+02  0.22037876290E+02 -0.28641911410E+02  0.44015874427E+02  0.41800000000E+01 0.  1.
        -11    1    1    2    0    0  0.24299600740E+02 -0.56181390303E+01 -0.34430435690E+02  0.42514573785E+02  0.00000000000E+00 0. -1.
         11    1    1    2    0    0  0.11199419641E+02  0.82804965732E+02  0.27729099072E+01  0.83604894471E+02  0.00000000000E+00 0.  1.
</event>
<event>
 7    1  0.2728221E-009  0.1335666E+03  0.7561462E-02  0.1222257E+00
         -3   -1    0    0    0  501 -0.00000000000E+00  0.00000000000E+00  0.10713140987E+04  0.10713140987E+04  0.00000000000E+00 0.  1.
          3   -1    0    0  501    0  0.00000000000E+00 -0.00000000000E+00 -0.24468584165E+02  0.24468584165E+02  0.00000000000E+00 0. -1.
         25    2    1    2    0    0  0.68918454739E+02  0.96534113736E+02  0.55335179815E+03  0.57957434145E+03  0.12505845123E+03 0.  0.
          5    1    3    3  502    0  0.18441202665E+02  0.53541894006E+02  0.63286309469E+02  0.85026123842E+02  0.41800000000E+01 0.  1.
         -5    1    3    3    0  502  0.50477252074E+02  0.42992219730E+02  0.49006548868E+03  0.49454821760E+03  0.41800000000E+01 0.  1.
        -11    1    1    2    0    0 -0.36466810282E+02  0.54680109719E+01  0.20933027379E+03  0.21255326608E+03  0.00000000000E+00 0.  1.
         11    1    1    2    0    0 -0.32451644457E+02 -0.10200212471E+03  0.28416344256E+03  0.30365507531E+03  0.00000000000E+00 0. -1.
</event>
<event>
 7    1  0.2728221E-009  0.1000047E+03  0.7561462E-02  0.1280286E+00
         -1   -1    0    0    0  501 -0.00000000000E+00  0.00000000000E+00  0.16933624989E+02  0.16933624989E+02  0.00000000000E+00 0. -1.
          1   -1    0    0  501    0  0.00000000000E+00 -0.00000000000E+00 -0.89049749421E+03  0.89049749421E+03  0.00000000000E+00 0.  1.
         25    2    1    2    0    0  0.38996831830E+02  0.40165676605E+02 -0.56218833830E+03  0.57865107158E+03  0.12508917002E+03 0.  0.
          5    1    3    3  502    0  0.76600917937E+02  0.30905194570E+02 -0.48698775722E+03  0.49396090914E+03  0.41800000000E+01 0. -1.
         -5    1    3    3    0  502 -0.37604086108E+02  0.92604820349E+01 -0.75200581079E+02  0.84690162440E+02  0.41800000000E+01 0. -1.
        -11    1    1    2    0    0 -0.18210435635E+02  0.12261191565E+02 -0.13851658438E+02  0.25958143733E+02  0.00000000000E+00 0. -1.
         11    1    1    2    0    0 -0.20786396195E+02 -0.52426868170E+02 -0.29752387249E+03  0.30282190389E+03  0.00000000000E+00 0.  1.
</event>
<event>
 7    1  0.2728221E-009  0.5435041E+02  0.7561462E-02  0.1423196E+00
         -1   -1    0    0    0  501 -0.00000000000E+00  0.00000000000E+00  0.70141356489E+02  0.70141356489E+02  0.00000000000E+00 0.  1.
          1   -1    0    0  501    0  0.00000000000E+00 -0.00000000000E+00 -0.20341680917E+03  0.20341680917E+03  0.00000000000E+00 0. -1.
         25    2    1    2    0    0 -0.34225389414E+02  0.32474837272E+02 -0.47961957441E+02  0.14203465325E+03  0.12508997172E+03 0.  0.
          5    1    3    3  502    0 -0.79341527327E+01  0.19215456515E+02  0.42127322318E+02  0.47163208482E+02  0.41800000000E+01 0. -1.
         -5    1    3    3    0  502 -0.26291236681E+02  0.13259380758E+02 -0.90089279759E+02  0.94871444765E+02  0.41800000000E+01 0. -1.
        -11    1    1    2    0    0  0.20956917916E+02  0.17679591336E+01  0.14249268709E+02  0.25403931719E+02  0.00000000000E+00 0.  1.
         11    1    1    2    0    0  0.13268471498E+02 -0.34242796406E+02 -0.99562763951E+02  0.10611958070E+03  0.00000000000E+00 0. -1.
</event>
<event>
 7    1  0.2728221E-009  0.1505464E+03  0.7561462E-02  0.1199803E+00
         -2   -1    0    0    0  501 -0.00000000000E+00  0.00000000000E+00  0.17189893004E+02  0.17189893004E+02  0.00000000000E+00 0.  1.
          2   -1    0    0  501    0  0.00000000000E+00 -0.00000000000E+00 -0.14166093417E+04  0.14166093417E+04  0.00000000000E+00 0. -1.
         25    2    1    2    0    0  0.10716079366E+03  0.32945788218E+02 -0.81530347685E+03  0.83242759106E+03  0.12508826622E+03 0.  0.
          5    1    3    3  502    0  0.54705578262E+02  0.73766886383E+02 -0.60169681031E+03  0.60867953617E+03  0.41800000000E+01 0. -1.
         -5    1    3    3    0  502  0.52455215398E+02 -0.40821098165E+02 -0.21360666654E+03  0.22374805489E+03  0.41800000000E+01 0. -1.
        -11    1    1    2    0    0  0.80538169582E+01 -0.25908658532E+02 -0.13139772216E+03  0.13416960887E+03  0.00000000000E+00 0.  1.
         11    1    1    2    0    0 -0.11521461062E+03 -0.70371296865E+01 -0.45271824965E+03  0.46720203473E+03  0.00000000000E+00 0. -1.
</event>
<event>
 7    1  0.2728221E-009  0.2173366E+03  0.7561462E-02  0.1135884E+00
          1   -1    0    0  501    0  0.00000000000E+00  0.00000000000E+00  0.11124488494E+04  0.11124488494E+04  0.00000000000E+00 0. -1.
         -1   -1    0    0    0  501 -0.00000000000E+00 -0.00000000000E+00 -0.50890211656E+02  0.50890211656E+02  0.00000000000E+00 0.  1.
         25    2    1    2    0    0 -0.20047392505E+03 -0.47487349891E+02  0.66456656253E+03  0.70692351878E+03  0.12508917757E+03 0.  0.
          5    1    3    3  502    0 -0.58449657807E+02 -0.35342274435E+02  0.40520938282E+03  0.41094714403E+03  0.41800000000E+01 0. -1.
         -5    1    3    3    0  502 -0.14202426724E+03 -0.12145075456E+02  0.25935717971E+03  0.29597637475E+03  0.41800000000E+01 0. -1.
        -11    1    1    2    0    0  0.17316172506E+03  0.51293959296E+01  0.28357217507E+03  0.33230177881E+03  0.00000000000E+00 0.  1.
         11    1    1    2    0    0  0.27312199988E+02  0.42357953961E+02  0.11341990015E+03  0.12411376346E+03  0.00000000000E+00 0. -1.
</event>
<event>
 7    1  0.2728221E-009  0.1023632E+03  0.7561462E-02  0.1275404E+00
          1   -1    0    0  501    0  0.00000000000E+00  0.00000000000E+00  0.50119902483E+03  0.50119902483E+03  0.00000000000E+00 0. -1.
         -1   -1    0    0    0  501 -0.00000000000E+00 -0.00000000000E+00 -0.30581242847E+02  0.30581242847E+02  0.00000000000E+00 0.  1.
         25    2    1    2    0    0  0.18818654502E+02 -0.55201616536E+02  0.21809465145E+03  0.25809730052E+03  0.12509028467E+03 0.  0.
          5    1    3    3  502    0 -0.32492092234E+02 -0.44664002746E+02  0.30397163232E+02  0.63182823074E+02  0.41800000000E+01 0.  1.
         -5    1    3    3    0  502  0.51310746736E+02 -0.10537613790E+02  0.18769748822E+03  0.19491447745E+03  0.41800000000E+01 0.  1.
        -11    1    1    2    0    0 -0.45532274586E+02  0.13912041449E+02  0.70041153411E+02  0.84690590371E+02  0.00000000000E+00 0. -1.
         11    1    1    2    0    0  0.26713620084E+02  0.41289575087E+02  0.18248197712E+03  0.18899237679E+03  0.00000000000E+00 0.  1.
</event>
<event>
 7    1  0.2728221E-009  0.1009153E+03  0.7561462E-02  0.1278383E+00
         -2   -1    0    0    0  501 -0.00000000000E+00  0.00000000000E+00  0.28093301010E+03  0.28093301010E+03  0.00000000000E+00 0.  1.
          2   -1    0    0  501    0  0.00000000000E+00 -0.00000000000E+00 -0.59979481651E+02  0.59979481651E+02  0.00000000000E+00 0. -1.
         25    2    1    2    0    0 -0.66401674218E+02 -0.19694018360E+02  0.10371746660E+03  0.17663901239E+03  0.12508793356E+03 0.  0.
          5    1    3    3  502    0 -0.81501450700E+02 -0.40037139675E+01  0.12368657178E+02  0.82637595997E+02  0.41800000000E+01 0.  1.
         -5    1    3    3    0  502  0.15099776483E+02 -0.15690304393E+02  0.91348809417E+02  0.94001416392E+02  0.41800000000E+01 0.  1.
        -11    1    1    2    0    0  0.48882752237E+02  0.45485555915E+02  0.11504465391E+03  0.13301778699E+03  0.00000000000E+00 0.  1.
         11    1    1    2    0    0  0.17518921980E+02 -0.25791537555E+02  0.21914079456E+01  0.31255692371E+02  0.00000000000E+00 0. -1.
</event>
<event>
 7    1  0.2728221E-009  0.1347078E+03  0.7561462E-02  0.1220633E+00
         -3   -1    0    0    0  501 -0.00000000000E+00  0.00000000000E+00  0.78707716799E+02  0.78707716799E+02  0.00000000000E+00 0.  1.
          3   -1    0    0  501    0  0.00000000000E+00 -0.00000000000E+00 -0.48782053961E+03  0.48782053961E+03  0.00000000000E+00 0. -1.
         25    2    1    2    0    0 -0.27838925786E+02  0.10360396622E+03 -0.39229253714E+03  0.42549581455E+03  0.12507783938E+03 0.  0.
          5    1    3    3  502    0  0.47936468883E+02  0.32589374427E+02 -0.10545361097E+03  0.12040726241E+03  0.41800000000E+01 0.  1.
         -5    1    3    3    0  502 -0.75775394669E+02  0.71014591798E+02 -0.28683892616E+03  0.30508855214E+03  0.41800000000E+01 0.  1.
        -11    1    1    2    0    0  0.15205290948E+02 -0.64623610524E+02  0.34935449532E+02  0.75019314473E+02  0.00000000000E+00 0.  1.
         11    1    1    2    0    0  0.12633634839E+02 -0.38980355701E+02 -0.51755735207E+02  0.66013127381E+02  0.00000000000E+00 0. -1.
</event>
<event>
 7    1  0.2728221E-009  0.1087040E+03  0.7561462E-02  0.1262989E+00
         -1   -1    0    0    0  501 -0.00000000000E+00  0.00000000000E+00  0.12796233699E+02  0.12796233699E+02  0.00000000000E+00 0.  1.
          1   -1    0    0  501    0  0.00000000000E+00 -0.00000000000E+00 -0.10660100500E+04  0.10660100500E+04  0.00000000000E+00 0. -1.
         25    2    1    2    0    0 -0.12211752082E+02  0.16674910145E+02 -0.77860438214E+03  0.78885394487E+03  0.12505431995E+03 0.  0.
          5    1    3    3  502    0 -0.65204454940E+02  0.29000403737E+02 -0.40000485571E+03  0.40634222196E+03  0.41800000000E+01 0. -1.
         -5    1    3    3    0  502  0.52992702858E+02 -0.12325493592E+02 -0.37859952643E+03  0.38251172291E+03  0.41800000000E+01 0. -1.
        -11    1    1    2    0    0 -0.20141073450E+02  0.29045800714E+02 -0.13438882708E+03  0.13895926822E+03  0.00000000000E+00 0. -1.
         11    1    1    2    0    0  0.32352825531E+02 -0.45720710859E+02 -0.14022060704E+03  0.15099307057E+03  0.00000000000E+00 0.  1.
</event>
<event>
 7    1  0.2728221E-009  0.5395137E+02  0.7561462E-02  0.1425124E+00
          1   -1    0    0  501    0  0.00000000000E+00  0.00000000000E+00  0.26991494719E+03  0.26991494719E+03  0.00000000000E+00 0. -1.
         -1   -1    0    0    0  501 -0.00000000000E+00 -0.00000000000E+00 -0.31786383051E+02  0.31786383051E+02  0.00000000000E+00 0.  1.
         25    2    1    2    0    0  0.12506839294E+02  0.32842018384E+01  0.19610388248E+03  0.23296039464E+03  0.12508639308E+03 0.  0.
          5    1    3    3  502    0 -0.24826201116E+00 -0.23386320633E+02 -0.92143760360E+01  0.25482518567E+02  0.41800000000E+01 0. -1.
         -5    1    3    3    0  502  0.12755101306E+02  0.26670522471E+02  0.20531825852E+03  0.20747787607E+03  0.41800000000E+01 0. -1.
        -11    1    1    2    0    0  0.15608384314E+02 -0.16936776721E+02  0.20022959923E+02  0.30518764567E+02  0.00000000000E+00 0.  1.
         11    1    1    2    0    0 -0.28115223608E+02  0.13652574883E+02  0.22001721732E+02  0.38222171035E+02  0.00000000000E+00 0. -1.
</event>
<event>
 7    1  0.2728221E-009  0.1104373E+03  0.7561462E-02  0.1259762E+00
          2   -1    0    0  501    0  0.00000000000E+00  0.00000000000E+00  0.10508639764E+04  0.10508639764E+04  0.00000000000E+00 0. -1.
         -2   -1    0    0    0  501 -0.00000000000E+00 -0.00000000000E+00 -0.15835135301E+02  0.15835135301E+02  0.00000000000E+00 0.  1.
         25    2    1    2    0    0 -0.68456919316E+01 -0.69909768266E+02  0.61008090556E+03  0.62672195326E+03  0.12508979245E+03 0.  0.
          5    1    3    3  502    0  0.42348625828E+02 -0.14416450038E+01  0.36575785790E+03  0.36822787437E+03  0.41800000000E+01 0. -1.
         -5    1    3    3    0  502 -0.49194317759E+02 -0.68468123262E+02  0.24432304766E+03  0.25849407889E+03  0.41800000000E+01 0. -1.
        -11    1    1    2    0    0  0.27825250597E+02  0.67195791146E+02  0.40293915992E+03  0.40945022349E+03  0.00000000000E+00 0. -1.
         11    1    1    2    0    0 -0.20979558665E+02  0.27139771202E+01  0.22008775644E+02  0.30526934975E+02  0.00000000000E+00 0.  1.
</event>
<event>
 7    1  0.2728221E-009  0.8789171E+02  0.7561462E-02  0.1308039E+00
         -1   -1    0    0    0  501 -0.00000000000E+00  0.00000000000E+00  0.30594051231E+02  0.30594051231E+02  0.00000000000E+00 0.  1.
          1   -1    0    0  501    0  0.00000000000E+00 -0.00000000000E+00 -0.55966300830E+03  0.55966300830E+03  0.00000000000E+00 0. -1.
         25    2    1    2    0    0  0.42076076735E+02 -0.47688260701E+02 -0.21303310046E+03  0.25507879022E+03  0.12505007352E+03 0.  0.
          5    1    3    3  502    0 -0.57589300762E+01  0.72386319702E+01 -0.17015027988E+03  0.17045278880E+03  0.41800000000E+01 0. -1.
         -5    1    3    3    0  502  0.47835006812E+02 -0.54926892671E+02 -0.42882820587E+02  0.84626001422E+02  0.41800000000E+01 0. -1.
        -11    1    1    2    0    0  0.13690347369E+01  0.49186488665E+02 -0.25809167081E+03  0.26274035751E+03  0.00000000000E+00 0. -1.
         11    1    1    2    0    0 -0.43445111472E+02 -0.14982279646E+01 -0.57944185798E+02  0.72437911798E+02  0.00000000000E+00 0.  1.
</event>
<event>
 7    1  0.2728221E-009  0.1610953E+03  0.7561462E-02  0.1187466E+00
         -2   -1    0    0    0  501 -0.00000000000E+00  0.00000000000E+00  0.52016623589E+02  0.52016623589E+02  0.00000000000E+00 0.  1.
          2   -1    0    0  501    0  0.00000000000E+00 -0.00000000000E+00 -0.79912951915E+03  0.79912951915E+03  0.00000000000E+00 0. -1.
         25    2    1    2    0    0 -0.13114000864E+03  0.29208046200E+02 -0.60005080683E+03  0.62750263991E+03  0.12509108879E+03 0.  0.
          5    1    3    3  502    0 -0.11354491910E+03 -0.32698866212E+02 -0.41618625872E+03  0.43265475712E+03  0.41800000000E+01 0.  1.
         -5    1    3    3    0  502 -0.17595089536E+02  0.61906912413E+02 -0.18386454810E+03  0.19484788279E+03  0.41800000000E+01 0.  1.
        -11    1    1    2    0    0  0.74645900072E+02 -0.35429387353E+02 -0.20838872721E+02  0.85214497018E+02  0.00000000000E+00 0.  1.
         11    1    1    2    0    0  0.56494108569E+02  0.62213411521E+01 -0.12622321602E+03  0.13842900581E+03  0.00000000000E+00 0. -1.
</event>
<event>
 7    1  0.2728221E-009  0.2007252E+03  0.7561462E-02  0.1149129E+00
         -2   -1    0    0    0  501 -0.00000000000E+00  0.00000000000E+00  0.13789244308E+03  0.13789244308E+03  0.00000000000E+00 0.  1.
          2   -1    0    0  501    0  0.00000000000E+00 -0.00000000000E+00 -0.34975017121E+03  0.34975017121E+03  0.00000000000E+00 0. -1.
         25    2    1    2    0    0 -0.17625185383E+03  0.70698607945E+02 -0.12172984198E+03  0.25794588530E+03  0.12511960745E+03 0.  0.
          5    1    3    3  502    0 -0.11586791245E+03  0.50773109850E+02 -0.70727698552E+01  0.12677057345E+03  0.41800000000E+01 0. -1.
         -5    1    3    3    0  502 -0.60383941386E+02  0.19925498095E+02 -0.11465707212E+03  0.13117531185E+03  0.41800000000E+01 0. -1.
        -11    1    1    2    0    0  0.50590586761E+02  0.21831855155E+02 -0.26977877748E+02  0.61350169162E+02  0.00000000000E+00 0.  1.
         11    1    1    2    0    0  0.12566126707E+03 -0.92530463100E+02 -0.63150008403E+02  0.16834655983E+03  0.00000000000E+00 0. -1.
</event>
<event>
 7    1  0.2728221E-009  0.1360948E+03  0.7561462E-02  0.1218682E+00
         -2   -1    0    0    0  501 -0.00000000000E+00  0.00000000000E+00  0.21534671932E+02  0.21534671932E+02  0.00000000000E+00 0. -1.
          2   -1    0    0  501    0  0.00000000000E+00 -0.00000000000E+00 -0.11984621434E+04  0.11984621434E+04  0.00000000000E+00 0.  1.
         25    2    1    2    0    0 -0.10376280095E+03 -0.20876719537E+02 -0.82965285737E+03  0.84567942914E+03  0.12508907561E+03 0.  0.
          5    1    3    3  502    0 -0.21328699762E+02 -0.61153275099E+02 -0.22800549369E+03  0.23706246864E+03  0.41800000000E+01 0. -1.
         -5    1    3    3    0  502 -0.82434101191E+02  0.40276555562E+02 -0.60164736369E+03  0.60861696049E+03  0.41800000000E+01 0. -1.
        -11    1    1    2    0    0  0.88796334411E+02 -0.11646692230E+01 -0.33186159208E+03  0.34353786073E+03  0.00000000000E+00 0. -1.
         11    1    1    2    0    0  0.14966466542E+02  0.22041388760E+02 -0.15413021990E+02  0.30779525437E+02  0.00000000000E+00 0.  1.
</event>
<event>
 7    1  0.2728221E-009  0.1149344E+03  0.7561462E-02  0.1251696E+00
         -4   -1    0    0    0  501 -0.00000000000E+00  0.00000000000E+00  0.64741850024E+02  0.64741850024E+02  0.00000000000E+00 0.  1.
          4   -1    0    0  501    0  0.00000000000E+00 -0.00000000000E+00 -0.29547438214E+03  0.29547438214E+03  0.00000000000E+00 0. -1.
         25    2    1    2    0    0  0.47822934994E+02  0.68895303315E+02 -0.15458859977E+03  0.21582175863E+03  0.12509116831E+03 0.  0.
          5    1    3    3  502    0 -0.74954543430E+01  0.50126759985E+02 -0.14846947728E+03  0.15693798771E+03  0.41800000000E+01 0. -1.
         -5    1    3    3    0  502  0.55318389337E+02  0.18768543330E+02 -0.61191224882E+01  0.58883770918E+02  0.41800000000E+01 0. -1.
        -11    1    1    2    0    0 -0.63875201114E+02 -0.78913821195E+02 -0.53087363330E+02  0.11456745017E+03  0.00000000000E+00 0. -1.
         11    1    1    2    0    0  0.16052266120E+02  0.10018517880E+02 -0.23056569021E+02  0.29827023370E+02  0.00000000000E+00 0.  1.
</event>
<event>
 7    1  0.2728221E-009  0.8758993E+02  0.7561462E-02  0.1308795E+00
         -2   -1    0    0    0  501 -0.00000000000E+00  0.00000000000E+00  0.14622510353E+02  0.14622510353E+02  0.00000000000E+00 0.  1.
          2   -1    0    0  501    0  0.00000000000E+00 -0.00000000000E+00 -0.10496847443E+04  0.10496847443E+04  0.00000000000E+00 0. -1.
         25    2    1    2    0    0 -0.32010539740E+02 -0.12514981878E+02 -0.79983781183E+03  0.81028980587E+03  0.12509094626E+03 0.  0.
          5    1    3    3  502    0 -0.18088454050E+02  0.34783524148E+02 -0.67281759984E+03  0.67397186943E+03  0.41800000000E+01 0. -1.
         -5    1    3    3    0  502 -0.13922085690E+02 -0.47298506026E+02 -0.12702021199E+03  0.13631793644E+03  0.41800000000E+01 0. -1.
        -11    1    1    2    0    0  0.20453202890E+02 -0.33267206917E+02 -0.16383725512E+03  0.16842709618E+03  0.00000000000E+00 0.  1.
         11    1    1    2    0    0  0.11557336850E+02  0.45782188796E+02 -0.71387167003E+02  0.85590352603E+02  0.00000000000E+00 0. -1.
</event>
<event>
 7    1  0.2728221E-009  0.1032227E+03  0.7561462E-02  0.1273661E+00
         -2   -1    0    0    0  501 -0.00000000000E+00  0.00000000000E+00  0.20272104555E+03  0.20272104555E+03  0.00000000000E+00 0.  1.
          2   -1    0    0  501    0  0.00000000000E+00 -0.00000000000E+00 -0.62604749420E+02  0.62604749420E+02  0.00000000000E+00 0. -1.
         25    2    1    2    0    0  0.35471912058E+02 -0.46486496730E+01  0.12185670330E+03  0.17825837516E+03  0.12508847144E+03 0.  0.
          5    1    3    3  502    0  0.56337002312E+01  0.57156272031E+02  0.77043689395E+02  0.96186176171E+02  0.41800000000E+01 0. -1.
         -5    1    3    3    0  502  0.29838211827E+02 -0.61804921704E+02  0.44813013902E+02  0.82072198989E+02  0.41800000000E+01 0. -1.
        -11    1    1    2    0    0 -0.39547947286E+02 -0.27196995573E+02  0.25214890466E+02  0.54217224237E+02  0.00000000000E+00 0.  1.
         11    1    1    2    0    0  0.40760352277E+01  0.31845645246E+02 -0.69552976305E+01  0.32850195576E+02  0.00000000000E+00 0. -1.
</event>
<event>
 7    1  0.2728221E-009  0.1731416E+03  0.7561462E-02  0.1174611E+00
         -2   -1    0    0    0  501 -0.00000000000E+00  0.00000000000E+00  0.12818828793E+03  0.12818828793E+03  0.00000000000E+00 0.  1.
          2   -1    0    0  501    0  0.00000000000E+00 -0.00000000000E+00 -0.26240973192E+03  0.26240973192E+03  0.00000000000E+00 0. -1.
         25    2    1    2    0    0 -0.69600494315E+02  0.12608791231E+03 -0.34837513937E+02  0.19391574858E+03  0.12508906718E+03 0.  0.
          5    1    3    3  502    0 -0.54976940112E+02  0.35727384016E+01  0.20092693125E+02  0.58791301404E+02  0.41800000000E+01 0.  1.
         -5    1    3    3    0  502 -0.14623554203E+02  0.12251517391E+03 -0.54930207062E+02  0.13512444717E+03  0.41800000000E+01 0.  1.
        -11    1    1    2    0    0  0.29978929023E+02 -0.12435435374E+03 -0.61879596863E+02  0.14209794505E+03  0.00000000000E+00 0. -1.
         11    1    1    2    0    0  0.39621565292E+02 -0.17335585702E+01 -0.37504333194E+02  0.54584326228E+02  0.00000000000E+00 0.  1.
</event>
<event>
 7    1  0.2728221E-009  0.1148389E+03  0.7561462E-02  0.1251862E+00
          2   -1    0    0  501    0  0.00000000000E+00  0.00000000000E+00  0.66056321007E+03  0.66056321007E+03  0.00000000000E+00 0.  1.
         -2   -1    0    0    0  501 -0.00000000000E+00 -0.00000000000E+00 -0.20952612437E+02  0.20952612437E+02  0.00000000000E+00 0. -1.
         25    2    1    2    0    0 -0.29702576394E+02 -0.34384548284E+02  0.30712578199E+03  0.33471985336E+03  0.12508634643E+03 0.  0.
          5    1    3    3  502    0 -0.47950931182E+02 -0.73721843737E+02  0.22773467829E+03  0.24416133629E+03  0.41800000000E+01 0. -1.
         -5    1    3    3    0  502  0.18248354787E+02  0.39337295452E+02  0.79391103703E+02  0.90558517065E+02  0.41800000000E+01 0. -1.
        -11    1    1    2    0    0 -0.10313244447E+02  0.52958244603E+02  0.20055745163E+03  0.20768781882E+03  0.00000000000E+00 0.  1.
         11    1    1    2    0    0  0.40015820842E+02 -0.18573696319E+02  0.13192736401E+03  0.13910815033E+03  0.00000000000E+00 0. -1.
</event>
<event>
 7    1  0.2728221E-009  0.3266391E+03  0.7561462E-02  0.1072634E+00
         -1   -1    0    0    0  501 -0.00000000000E+00  0.00000000000E+00  0.34136065450E+03  0.34136065450E+03  0.00000000000E+00 0.  1.
          1   -1    0    0  501    0  0.00000000000E+00 -0.00000000000E+00 -0.33225536025E+03  0.33225536025E+03  0.00000000000E+00 0. -1.
         25    2    1    2    0    0 -0.26511945419E+03  0.16854182238E+03  0.34762270276E+02  0.33991967671E+03  0.12506918204E+03 0.  0.
          5    1    3    3  502    0 -0.51479563119E+02  0.93892514910E+02 -0.14897209519E+02  0.10819126132E+03  0.41800000000E+01 0. -1.
         -5    1    3    3    0  502 -0.21363989107E+03  0.74649307471E+02  0.49659479795E+02  0.23172841538E+03  0.41800000000E+01 0. -1.
        -11    1    1    2    0    0  0.10514284602E+03 -0.33299551562E+02  0.34824506982E+02  0.11565735813E+03  0.00000000000E+00 0.  1.
         11    1    1    2    0    0  0.15997660817E+03 -0.13524227082E+03 -0.60481483008E+02  0.21803897992E+03  0.00000000000E+00 0. -1.
</event>
<event>
 7    1  0.2728221E-009  0.1092712E+03  0.7561462E-02  0.1261925E+00
         -2   -1    0    0    0  501 -0.00000000000E+00  0.00000000000E+00  0.13736092080E+02  0.13736092080E+02  0.00000000000E+00 0.  1.
          2   -1    0    0  501    0  0.00000000000E+00 -0.00000000000E+00 -0.13899322653E+04  0.13899322653E+04  0.00000000000E+00 0. -1.
         25    2    1    2    0    0  0.45889012954E+02  0.57234116596E+02 -0.96700802426E+03  0.97782083347E+03  0.12509003864E+03 0.  0.
          5    1    3    3  502    0  0.44021928680E+02 -0.98998361960E+01 -0.73111823684E+03  0.73252118441E+03  0.41800000000E+01 0. -1.
         -5    1    3    3    0  502  0.18670842735E+01  0.67133952792E+02 -0.23588978742E+03  0.24529964906E+03  0.41800000000E+01 0. -1.
        -11    1    1    2    0    0  0.21430289824E+02 -0.96708543242E+01 -0.31713604303E+02  0.39478290783E+02  0.00000000000E+00 0.  1.
         11    1    1    2    0    0 -0.67319302778E+02 -0.47563262272E+02 -0.37747454465E+03  0.38636923312E+03  0.00000000000E+00 0. -1.
</event>
<event>
 7    1  0.2728221E-009  0.1003557E+03  0.7561462E-02  0.1279550E+00
         -1   -1    0    0    0  501 -0.00000000000E+00  0.00000000000E+00  0.36891662509E+02  0.36891662509E+02  0.00000000000E+00 0.  1.
          1   -1    0    0  501    0  0.00000000000E+00 -0.00000000000E+00 -0.35176311815E+03  0.35176311815E+03  0.00000000000E+00 0. -1.
         25    2    1    2    0    0  0.20951086895E+02  0.30965762700E+02 -0.17155393092E+03  0.21558023483E+03  0.12508501083E+03 0.  0.
          5    1    3    3  502    0 -0.38691622644E+02 -0.15261476921E+01 -0.98959359647E+01  0.40184234946E+02  0.41800000000E+01 0.  1.
         -5    1    3    3    0  502  0.59642709539E+02  0.32491910392E+02 -0.16165799495E+03  0.17539599988E+03  0.41800000000E+01 0.  1.
        -11    1    1    2    0    0 -0.14860881393E+02  0.29454414125E+02 -0.73359528711E+02  0.80436488983E+02  0.00000000000E+00 0. -1.
         11    1    1    2    0    0 -0.60902055025E+01 -0.60420176825E+02 -0.69957996013E+02  0.92638056849E+02  0.00000000000E+00 0.  1.
</event>
<event>
 7    1  0.2728221E-009  0.1147708E+03  0.7561462E-02  0.1251982E+00
          2   -1    0    0  501    0  0.00000000000E+00  0.00000000000E+00  0.31878793136E+03  0.31878793136E+03  0.00000000000E+00 0. -1.
         -2   -1    0    0    0  501 -0.00000000000E+00 -0.00000000000E+00 -0.48111830847E+02  0.48111830847E+02  0.00000000000E+00 0.  1.
         25    2    1    2    0    0  0.33552993037E+02  0.35885565224E+02  0.10442558826E+03  0.17019268841E+03  0.12508905057E+03 0.  0.
          5    1    3    3  502    0 -0.43446525721E+01  0.74578703946E+02  0.83136425609E+02  0.11184809677E+03  0.41800000000E+01 0. -1.
         -5    1    3    3    0  502  0.37897645609E+02 -0.38693138722E+02  0.21289162646E+02  0.58344591635E+02  0.41800000000E+01 0. -1.
        -11    1    1    2    0    0 -0.63352574640E+02 -0.29673505378E+02  0.14002307110E+03  0.15652643890E+03  0.00000000000E+00 0. -1.
         11    1    1    2    0    0  0.29799581603E+02 -0.62120598463E+01  0.26227441157E+02  0.40180634899E+02  0.00000000000E+00 0.  1.
</event>
<event>
 7    1  0.2728221E-009  0.9154287E+02  0.7561462E-02  0.1299158E+00
          2   -1    0    0  501    0  0.00000000000E+00  0.00000000000E+00  0.15012927703E+03  0.15012927703E+03  0.00000000000E+00 0. -1.
         -2   -1    0    0    0  501 -0.00000000000E+00 -0.00000000000E+00 -0.16498306261E+03  0.16498306261E+03  0.00000000000E+00 0.  1.
         25    2    1    2    0    0 -0.51224345764E+02 -0.51275266173E+02 -0.97114186263E+02  0.17415135770E+03  0.12507775060E+03 0.  0.
          5    1    3    3  502    0 -0.50375011388E+01 -0.35220357748E+02  0.24237042592E+02  0.43252244464E+02  0.41800000000E+01 0. -1.
         -5    1    3    3    0  502 -0.46186844625E+02 -0.16054908426E+02 -0.12135122885E+03  0.13089911323E+03  0.41800000000E+01 0. -1.
        -11    1    1    2    0    0  0.46555245071E+02 -0.14393073934E+00  0.33700913156E+01  0.46677286501E+02  0.00000000000E+00 0.  1.
         11    1    1    2    0    0  0.46691006933E+01  0.51419196913E+02  0.78890309369E+02  0.94283695434E+02  0.00000000000E+00 0. -1.
</event>
<event>
 7    1  0.2728221E-009  0.1159358E+03  0.7561462E-02  0.1249956E+00
         -2   -1    0    0    0  501 -0.00000000000E+00  0.00000000000E+00  0.55690927593E+02  0.55690927593E+02  0.00000000000E+00 0.  1.
          2   -1    0    0  501    0  0.00000000000E+00 -0.00000000000E+00 -0.53496650458E+03  0.53496650458E+03  0.00000000000E+00 0. -1.
         25    2    1    2    0    0  0.10928823858E+02 -0.90688327466E+02 -0.42447038407E+03  0.45184780671E+03  0.12509005375E+03 0.  0.
          5    1    3    3  502    0  0.20489918204E+02  0.89773113744E+01 -0.24694590744E+03  0.24799230325E+03  0.41800000000E+01 0.  1.
         -5    1    3    3    0  502 -0.95610943459E+01 -0.99665638840E+02 -0.17752447663E+03  0.20385550347E+03  0.41800000000E+01 0.  1.
        -11    1    1    2    0    0 -0.33495447326E+02  0.33272330356E+02  0.11137935444E+02  0.48508211313E+02  0.00000000000E+00 0. -1.
         11    1    1    2    0    0  0.22566623468E+02  0.57415997110E+02 -0.65943128356E+02  0.90301414143E+02  0.00000000000E+00 0.  1.
</event>
<event>
 7    1  0.2728221E-009  0.8561370E+02  0.7561462E-02  0.1313835E+00
          2   -1    0    0  501    0  0.00000000000E+00  0.00000000000E+00  0.34620669003E+03  0.34620669003E+03  0.00000000000E+00 0. -1.
         -2   -1    0    0    0  501 -0.00000000000E+00 -0.00000000000E+00 -0.48176719352E+02  0.48176719352E+02  0.00000000000E+00 0.  1.
         25    2    1    2    0    0  0.60780895520E+02  0.23350190104E+02  0.12333245935E+03  0.18734161852E+03  0.12508572205E+03 0.  0.
          5    1    3    3  502    0 -0.64138940634E+01  0.29412138204E+02 -0.14614092048E+02  0.33723226376E+02  0.41800000000E+01 0.  1.
         -5    1    3    3    0  502  0.67194789583E+02 -0.60619480995E+01  0.13794655140E+03  0.15361839214E+03  0.41800000000E+01 0.  1.
        -11    1    1    2    0    0 -0.31136674672E+02 -0.29579044039E+02  0.16559261874E+02  0.46028485851E+02  0.00000000000E+00 0.  1.
         11    1    1    2    0    0 -0.29644220848E+02  0.62288539348E+01  0.15813824945E+03  0.16101330501E+03  0.00000000000E+00 0. -1.
</event>
<event>
 7    1  0.2728221E-009  0.1060147E+03  0.7561462E-02  0.1268133E+00
         -1   -1    0    0    0  501 -0.00000000000E+00  0.00000000000E+00  0.53793456149E+02  0.53793456149E+02  0.00000000000E+00 0.  1.
          1   -1    0    0  501    0  0.00000000000E+00 -0.00000000000E+00 -0.24842386028E+03  0.24842386028E+03  0.00000000000E+00 0. -1.
         25    2    1    2    0    0  0.12247942989E+02 -0.18973834440E+01 -0.95426674129E+02  0.15781696078E+03  0.12508529411E+03 0.  0.
          5    1    3    3  502    0  0.49665053325E+01 -0.59383512755E+02 -0.20826442626E+02  0.63263582532E+02  0.41800000000E+01 0. -1.
         -5    1    3    3    0  502  0.72814376566E+01  0.57486129311E+02 -0.74600231503E+02  0.94553378246E+02  0.41800000000E+01 0. -1.
        -11    1    1    2    0    0  0.10657583167E+02  0.44536542657E+02 -0.80295291420E+02  0.92436040239E+02  0.00000000000E+00 0.  1.
         11    1    1    2    0    0 -0.22905526156E+02 -0.42639159213E+02 -0.18908438584E+02  0.51964315415E+02  0.00000000000E+00 0. -1.
</event>
<event>
 7    1  0.2728221E-009  0.1447488E+03  0.7561462E-02  0.1207078E+00
          1   -1    0    0  501    0  0.00000000000E+00  0.00000000000E+00  0.16590285378E+03  0.16590285378E+03  0.00000000000E+00 0. -1.
         -1   -1    0    0    0  501 -0.00000000000E+00 -0.00000000000E+00 -0.16731954602E+03  0.16731954602E+03  0.00000000000E+00 0.  1.
         25    2    1    2    0    0  0.10673738281E+03  0.27614070912E+02  0.58086850704E+02  0.17657120489E+03  0.12509157593E+03 0.  0.
          5    1    3    3  502    0  0.11124213091E+03  0.63651555100E+02  0.56075871749E+02  0.13995823644E+03  0.41800000000E+01 0. -1.
         -5    1    3    3    0  502 -0.45047480975E+01 -0.36037484188E+02  0.20109789541E+01  0.36612968445E+02  0.41800000000E+01 0. -1.
        -11    1    1    2    0    0 -0.68148247177E+02  0.12232025964E+02  0.75276984339E+01  0.69645332192E+02  0.00000000000E+00 0. -1.
         11    1    1    2    0    0 -0.38589135636E+02 -0.39846096876E+02 -0.67031241376E+02  0.87005862710E+02  0.00000000000E+00 0.  1.
</event>
<event>
 7    1  0.2728221E-009  0.1278011E+03  0.7561462E-02  0.1230755E+00
         -1   -1    0    0    0  501 -0.00000000000E+00  0.00000000000E+00  0.53926549172E+02  0.53926549172E+02  0.00000000000E+00 0.  1.
          1   -1    0    0  501    0  0.00000000000E+00 -0.00000000000E+00 -0.34622388144E+03  0.34622388144E+03  0.00000000000E+00 0. -1.
         25    2    1    2    0    0 -0.62698858541E+02 -0.35567592940E+02 -0.13197451139E+03  0.19559980639E+03  0.12508322059E+03 0.  0.
          5    1    3    3  502    0 -0.91274323449E+02 -0.80518748587E+01 -0.12509851966E+03  0.15512236083E+03  0.41800000000E+01 0. -1.
         -5    1    3    3    0  502  0.28575464908E+02 -0.27515718082E+02 -0.68759917310E+01  0.40477445553E+02  0.41800000000E+01 0. -1.
        -11    1    1    2    0    0  0.88223654179E+02  0.11613975091E+02 -0.13355635379E+03  0.16048550467E+03  0.00000000000E+00 0.  1.
         11    1    1    2    0    0 -0.25524795637E+02  0.23953617850E+02 -0.26766467092E+02  0.44065119550E+02  0.00000000000E+00 0. -1.
</event>
<event>
 7    1  0.2728221E-009  0.1465551E+03  0.7561462E-02  0.1204771E+00
         -2   -1    0    0    0  501 -0.00000000000E+00  0.00000000000E+00  0.28824171365E+02  0.28824171365E+02  0.00000000000E+00 0.  1.
          2   -1    0    0  501    0  0.00000000000E+00 -0.00000000000E+00 -0.85839086124E+03  0.85839086124E+03  0.00000000000E+00 0. -1.
         25    2    1    2    0    0 -0.44800140846E+02 -0.96344841200E+02 -0.55480583429E+03  0.57857166005E+03  0.12508505509E+03 0.  0.
          5    1    3    3  502    0 -0.85074298575E+02 -0.77986499009E+02 -0.33593932587E+03  0.35523546187E+03  0.41800000000E+01 0.  1.
         -5    1    3    3    0  502  0.40274157729E+02 -0.18358342191E+02 -0.21886650842E+03  0.22333619818E+03  0.41800000000E+01 0.  1.
        -11    1    1    2    0    0  0.55662639409E+02  0.25034190171E+02 -0.77759877488E+02  0.98851599129E+02  0.00000000000E+00 0.  1.
         11    1    1    2    0    0 -0.10862498564E+02  0.71310651029E+02 -0.19700097809E+03  0.20979177342E+03  0.00000000000E+00 0. -1.
</event>
<event>
 7    1  0.2728221E-009  0.1781864E+03  0.7561462E-02  0.1169570E+00
          1   -1    0    0  501    0  0.00000000000E+00  0.00000000000E+00  0.38373013598E+03  0.38373013598E+03  0.00000000000E+00 0. -1.
         -1   -1    0    0    0  501 -0.00000000000E+00 -0.00000000000E+00 -0.96674267247E+02  0.96674267247E+02  0.00000000000E+00 0.  1.
         25    2    1    2    0    0 -0.54506826708E+02  0.15335614619E+03  0.17674070723E+03  0.27087583584E+03  0.12508932455E+03 0.  0.
          5    1    3    3  502    0 -0.61938536558E+02  0.66465514609E+02  0.22580532554E+02  0.93709123321E+02  0.41800000000E+01 0. -1.
         -5    1    3    3    0  502  0.74317098492E+01  0.86890631580E+02  0.15416017468E+03  0.17716671252E+03  0.41800000000E+01 0. -1.
        -11    1    1    2    0    0  0.41417218236E+02 -0.23533928537E+02  0.28116196440E+02  0.55315027443E+02  0.00000000000E+00 0.  1.
         11    1    1    2    0    0  0.13089608472E+02 -0.12982221765E+03  0.82198965063E+02  0.15421353995E+03  0.00000000000E+00 0. -1.
</event>
<event>
 7    1  0.2728221E-009  0.1082291E+03  0.7561462E-02  0.1263885E+00
          1   -1    0    0  501    0  0.00000000000E+00  0.00000000000E+00  0.25923565308E+02  0.25923565308E+02  0.00000000000E+00 0. -1.
         -1   -1    0    0    0  501 -0.00000000000E+00 -0.00000000000E+00 -0.59212196677E+03  0.59212196677E+03  0.00000000000E+00 0.  1.
         25    2    1    2    0    0  0.55076389949E+01  0.31889576487E+02 -0.19027301078E+03  0.23001337559E+03  0.12512016281E+03 0.  0.
          5    1    3    3  502    0  0.60970950232E+02 -0.62839350905E+01 -0.99055025200E+02  0.11656034930E+03  0.41800000000E+01 0.  1.
         -5    1    3    3    0  502 -0.55463311237E+02  0.38173511577E+02 -0.91217985579E+02  0.11345302628E+03  0.41800000000E+01 0.  1.
        -11    1    1    2    0    0 -0.23221458211E+00  0.27719163815E+02 -0.55171800322E+02  0.61744097021E+02  0.00000000000E+00 0. -1.
         11    1    1    2    0    0 -0.52754244128E+01 -0.59608740302E+02 -0.32075359036E+03  0.32628805947E+03  0.00000000000E+00 0.  1.
</event>
<event>
 7    1  0.2728221E-009  0.7420424E+02  0.7561462E-02  0.1346353E+00
          2   -1    0    0  501    0  0.00000000000E+00  0.00000000000E+00  0.13649304437E+03  0.13649304437E+03  0.00000000000E+00 0. -1.
         -2   -1    0    0    0  501 -0.00000000000E+00 -0.00000000000E+00 -0.12716947805E+03  0.12716947805E+03  0.00000000000E+00 0.  1.
         25    2    1    2    0    0  0.41363047871E+02  0.16092030826E+02 -0.54819317275E+02  0.14360815774E+03  0.12509312626E+03 0.  0.
          5    1    3    3  502    0 -0.74206382493E+01 -0.11287631230E+02 -0.80627762328E+02  0.81858322417E+02  0.41800000000E+01 0. -1.
         -5    1    3    3    0  502  0.48783686120E+02  0.27379662056E+02  0.25808445054E+02  0.61749835319E+02  0.41800000000E+01 0. -1.
        -11    1    1    2    0    0 -0.18607616192E+02 -0.40640255079E+02 -0.32407256512E+01  0.44814908412E+02  0.00000000000E+00 0.  1.
         11    1    1    2    0    0 -0.22755431679E+02  0.24548224253E+02  0.67383609250E+02  0.75239456274E+02  0.00000000000E+00 0. -1.
</event>
<event>
 7    1  0.2728221E-009  0.1192789E+03  0.7561462E-02  0.1244291E+00
         -2   -1    0    0    0  501 -0.00000000000E+00  0.00000000000E+00  0.43499579179E+02  0.43499579179E+02  0.00000000000E+00 0.  1.
          2   -1    0    0  501    0  0.00000000000E+00 -0.00000000000E+00 -0.57435551773E+03  0.57435551773E+03  0.00000000000E+00 0. -1.
         25    2    1    2    0    0 -0.55235789467E+02  0.43239683026E+02 -0.11456364803E+03  0.18355697726E+03  0.12509065444E+03 0.  0.
          5    1    3    3  502    0 -0.69620462262E+02 -0.24306468137E+02 -0.65723766693E+02  0.98868089226E+02  0.41800000000E+01 0.  1.
         -5    1    3    3    0  502  0.14384672795E+02  0.67546151164E+02 -0.48839881334E+02  0.84688888039E+02  0.41800000000E+01 0.  1.
        -11    1    1    2    0    0  0.26928928559E+02 -0.57736380248E+02 -0.38297864363E+03  0.38824128873E+03  0.00000000000E+00 0. -1.
         11    1    1    2    0    0  0.28306860908E+02  0.14496697221E+02 -0.33313646901E+02  0.46056830922E+02  0.00000000000E+00 0.  1.
</event>
<event>
 7    1  0.2728221E-009  0.1289487E+03  0.7561462E-02  0.1229024E+00
         -2   -1    0    0    0  501 -0.00000000000E+00  0.00000000000E+00  0.18030790110E+03  0.18030790110E+03  0.00000000000E+00 0. -1.
          2   -1    0    0  501    0  0.00000000000E+00 -0.00000000000E+00 -0.11382377648E+03  0.11382377648E+03  0.00000000000E+00 0.  1.
         25    2    1    2    0    0  0.37977368420E+02 -0.64929594595E+02  0.93191478608E+02  0.17317664155E+03  0.12508942693E+03 0.  0.
          5    1    3    3  502    0 -0.94517802485E+01  0.32455742509E+02  0.39656167174E+02  0.52276145292E+02  0.41800000000E+01 0.  1.
         -5    1    3    3    0  502  0.47429148669E+02 -0.97385337103E+02  0.53535311434E+02  0.12090049626E+03  0.41800000000E+01 0.  1.
        -11    1    1    2    0    0  0.87425493627E+01 -0.18134996884E+02 -0.14638873328E+02  0.24891904178E+02  0.00000000000E+00 0. -1.
         11    1    1    2    0    0 -0.46719917783E+02  0.83064591478E+02 -0.12068480666E+02  0.96063131849E+02  0.00000000000E+00 0.  1.
</event>
<event>
 7    1  0.2728221E-009  0.1004221E+03  0.7561462E-02  0.1279411E+00
         -2   -1    0    0    0  501 -0.00000000000E+00  0.00000000000E+00  0.23997178798E+03  0.23997178798E+03  0.00000000000E+00 0.  1.
          2   -1    0    0  501    0  0.00000000000E+00 -0.00000000000E+00 -0.58014561114E+02  0.58014561114E+02  0.00000000000E+00 0. -1.
         25    2    1    2    0    0  0.18494384715E+02  0.48951358763E+01  0.15924171124E+03  0.20339954153E+03  0.12508975287E+03 0.  0.
          5    1    3    3  502    0 -0.23905250320E+02  0.53128947524E+02  0.10063208692E+03  0.11635478235E+03  0.41800000000E+01 0. -1.
         -5    1    3    3    0  502  0.42399635035E+02 -0.48233811648E+02  0.58609624319E+02  0.87044759176E+02  0.41800000000E+01 0. -1.
        -11    1    1    2    0    0 -0.39456814133E+02  0.21052508831E+02  0.37247527695E+02  0.58201603320E+02  0.00000000000E+00 0.  1.
         11    1    1    2    0    0  0.20962429418E+02 -0.25947644707E+02 -0.14532012073E+02  0.36385204243E+02  0.00000000000E+00 0. -1.
</event>
<event>
 7    1  0.2728221E-009  0.8556161E+02  0.7561462E-02  0.1313970E+00
          2   -1    0    0  501    0  0.00000000000E+00  0.00000000000E+00  0.12312719929E+03  0.12312719929E+03  0.00000000000E+00 0. -1.
         -2   -1    0    0    0  501 -0.00000000000E+00 -0.00000000000E+00 -0.10585391928E+03  0.10585391928E+03  0.00000000000E+00 0.  1.
         25    2    1    2    0    0  0.12105121318E+02 -0.35303917155E+02  0.73802892484E+01  0.13074553841E+03  0.12508807544E+03 0.  0.
          5    1    3    3  502    0 -0.27332543599E+02 -0.55277855108E+02 -0.33574648469E+02  0.70338031141E+02  0.41800000000E+01 0.  1.
         -5    1    3    3    0  502  0.39437664917E+02  0.19973937953E+02  0.40954937717E+02  0.60407507273E+02  0.41800000000E+01 0.  1.
        -11    1    1    2    0    0 -0.33105283904E+02  0.17888799634E+02 -0.31219903093E+02  0.48894287231E+02  0.00000000000E+00 0.  1.
         11    1    1    2    0    0  0.21000162585E+02  0.17415117522E+02  0.41112893855E+02  0.49341292930E+02  0.00000000000E+00 0. -1.
</event>
<event>
 7    1  0.2728221E-009  0.7964584E+02  0.7561462E-02  0.1330059E+00
          1   -1    0    0  501    0  0.00000000000E+00  0.00000000000E+00  0.26821298941E+03  0.26821298941E+03  0.00000000000E+00 0. -1.
         -1   -1    0    0    0  501 -0.00000000000E+00 -0.00000000000E+00 -0.75966355859E+02  0.75966355859E+02  0.00000000000E+00 0.  1.
         25    2    1    2    0    0 -0.18214229844E+02  0.28598859138E+02  0.22612010466E+00  0.12960430452E+03  0.12509025425E+03 0.  0.
          5    1    3    3  502    0  0.34010869584E+02 -0.96163995204E+01 -0.39804417178E+02  0.53395490600E+02  0.41800000000E+01 0.  1.
         -5    1    3    3    0  502 -0.52225099428E+02  0.38215258659E+02  0.40030537283E+02  0.76208813924E+02  0.41800000000E+01 0.  1.
        -11    1    1    2    0    0 -0.12973446280E+02 -0.24062011766E+02  0.88802302385E+01  0.28742811409E+02  0.00000000000E+00 0.  1.
         11    1    1    2    0    0  0.31187676124E+02 -0.45368473721E+01  0.18314028321E+03  0.18583222934E+03  0.00000000000E+00 0. -1.
</event>
<event>
 7    1  0.2728221E-009  0.1418305E+03  0.7561462E-02  0.1210887E+00
         -3   -1    0    0    0  501 -0.00000000000E+00  0.00000000000E+00  0.35988846947E+03  0.35988846947E+03  0.00000000000E+00 0.  1.
          3   -1    0    0  501    0  0.00000000000E+00 -0.00000000000E+00 -0.72398722267E+02  0.72398722267E+02  0.00000000000E+00 0. -1.
         25    2    1    2    0    0  0.54676067364E+02  0.70777877993E+02  0.23510379100E+03  0.28092748939E+03  0.12508989327E+03 0.  0.
          5    1    3    3  502    0  0.27818396898E+02 -0.27763934019E+02  0.12309887323E+03  0.12928845358E+03  0.41800000000E+01 0.  1.
         -5    1    3    3    0  502  0.26857670466E+02  0.98541812012E+02  0.11200491777E+03  0.15163903581E+03  0.41800000000E+01 0.  1.
        -11    1    1    2    0    0 -0.30151031583E+02  0.27387143520E+02  0.12607252202E+02  0.42638986196E+02  0.00000000000E+00 0. -1.
         11    1    1    2    0    0 -0.24525035780E+02 -0.98165021512E+02  0.39778704000E+02  0.10872071615E+03  0.00000000000E+00 0.  1.
</event>
<event>
 7    1  0.2728221E-009  0.1350729E+03  0.7561462E-02  0.1220117E+00
         -2   -1    0    0    0  501 -0.00000000000E+00  0.00000000000E+00  0.18739800231E+03  0.18739800231E+03  0.00000000000E+00 0.  1.
          2   -1    0    0  501    0  0.00000000000E+00 -0.00000000000E+00 -0.12905876912E+03  0.12905876912E+03  0.00000000000E+00 0. -1.
         25    2    1    2    0    0 -0.20811535386E+02 -0.10799231678E+03  0.53232369981E+02  0.17486168931E+03  0.12508982647E+03 0.  0.
          5    1    3    3  502    0  0.32447673479E+02 -0.98337038338E+02  0.75514953884E+01  0.10391112600E+03  0.41800000000E+01 0. -1.
         -5    1    3    3    0  502 -0.53259208864E+02 -0.96552784380E+01  0.45680874593E+02  0.70950563311E+02  0.41800000000E+01 0. -1.
        -11    1    1    2    0    0 -0.17654792242E+01  0.49367992465E+02 -0.40569649743E+02  0.63923486116E+02  0.00000000000E+00 0. -1.
         11    1    1    2    0    0  0.22577014610E+02  0.58624324311E+02  0.45676512956E+02  0.77671596002E+02  0.00000000000E+00 0.  1.
</event>
<event>
 7    1  0.2728221E-009  0.1108144E+03  0.7561462E-02  0.1259069E+00
          2   -1    0    0  501    0  0.00000000000E+00  0.00000000000E+00  0.23607694139E+03  0.23607694139E+03  0.00000000000E+00 0. -1.
         -2   -1    0    0    0  501 -0.00000000000E+00 -0.00000000000E+00 -0.65621801753E+02  0.65621801753E+02  0.00000000000E+00 0.  1.
         25    2    1    2    0    0  0.29577890431E+02 -0.55320596808E+02  0.93084481207E+02  0.16807096370E+03  0.12509159909E+03 0.  0.
          5    1    3    3  502    0 -0.10676274987E+02 -0.85379075484E+02  0.40384451758E+02  0.95141713890E+02  0.41800000000E+01 0.  1.
         -5    1    3    3    0  502  0.40254165418E+02  0.30058478675E+02  0.52700029449E+02  0.72929249809E+02  0.41800000000E+01 0.  1.
        -11    1    1    2    0    0  0.95197180389E+01  0.43054896988E+02 -0.21748811908E+01  0.44148378162E+02  0.00000000000E+00 0.  1.
         11    1    1    2    0    0 -0.39097608470E+02  0.12265699821E+02  0.79545539621E+02  0.89479401282E+02  0.00000000000E+00 0. -1.
</event>
<event>
 7    1  0.2728221E-009  0.1160727E+03  0.7561462E-02  0.1249720E+00
          2   -1    0    0  501    0  0.00000000000E+00  0.00000000000E+00  0.11196217907E+04  0.11196217907E+04  0.00000000000E+00 0. -1.
         -2   -1    0    0    0  501 -0.00000000000E+00 -0.00000000000E+00 -0.70682287819E+02  0.70682287819E+02  0.00000000000E+00 0.  1.
         25    2    1    2    0    0  0.53689581733E+02 -0.46406133791E+02  0.10553213422E+04  0.10650761472E+04  0.12509182076E+03 0.  0.
          5    1    3    3  502    0  0.89792539788E+02 -0.49265243867E+02  0.88371747679E+03  0.88964252126E+03  0.41800000000E+01 0.  1.
         -5    1    3    3    0  502 -0.36102958055E+02  0.28591100755E+01  0.17160386545E+03  0.17543362599E+03  0.41800000000E+01 0.  1.
        -11    1    1    2    0    0 -0.53909398008E+02  0.76756530118E+01 -0.44920119085E+02  0.70590055542E+02  0.00000000000E+00 0.  1.
         11    1    1    2    0    0  0.21981627520E+00  0.38730480780E+02  0.38538279767E+02  0.54637875764E+02  0.00000000000E+00 0. -1.
</event>
<event>
 7    1  0.2728221E-009  0.1377035E+03  0.7561462E-02  0.1216453E+00
         -1   -1    0    0    0  501 -0.00000000000E+00  0.00000000000E+00  0.49776941254E+02  0.49776941254E+02  0.00000000000E+00 0.  1.
          1   -1    0    0  501    0  0.00000000000E+00 -0.00000000000E+00 -0.43835966963E+03  0.43835966963E+03  0.00000000000E+00 0. -1.
         25    2    1    2    0    0  0.78061742295E+00  0.10106656301E+03 -0.22676264582E+03  0.27800023859E+03  0.12509106919E+03 0.  0.
          5    1    3    3  502    0 -0.48996035148E+02  0.15940386207E+02 -0.35304633967E+02  0.62598697688E+02  0.41800000000E+01 0. -1.
         -5    1    3    3    0  502  0.49776652571E+02  0.85126176802E+02 -0.19145801186E+03  0.21540154090E+03  0.41800000000E+01 0. -1.
        -11    1    1    2    0    0  0.21230355364E+02  0.35313853913E+00 -0.45577506022E+01  0.21716946983E+02  0.00000000000E+00 0.  1.
         11    1    1    2    0    0 -0.22010972787E+02 -0.10141970155E+03 -0.15726233195E+03  0.18841942532E+03  0.00000000000E+00 0. -1.
</event>
<event>
 7    1  0.2728221E-009  0.1110546E+03  0.7561462E-02  0.1258629E+00
         -1   -1    0    0    0  501 -0.00000000000E+00  0.00000000000E+00  0.85258169428E+01  0.85258169428E+01  0.00000000000E+00 0. -1.
          1   -1    0    0  501    0  0.00000000000E+00 -0.00000000000E+00 -0.14999108757E+04  0.14999108757E+04  0.00000000000E+00 0.  1.
         25    2    1    2    0    0 -0.24995670128E+02  0.33584527350E+01 -0.98105335049E+03  0.98931728970E+03  0.12508781107E+03 0.  0.
          5    1    3    3  502    0  0.25048092506E+02  0.51510133741E+02 -0.49184019618E+03  0.49518173613E+03  0.41800000000E+01 0. -1.
         -5    1    3    3    0  502 -0.50043762633E+02 -0.48151681006E+02 -0.48921315431E+03  0.49413555358E+03  0.41800000000E+01 0. -1.
        -11    1    1    2    0    0  0.59583876826E+02 -0.83272618156E+01 -0.32582468784E+03  0.33133262573E+03  0.00000000000E+00 0. -1.
         11    1    1    2    0    0 -0.34588206699E+02  0.49688090806E+01 -0.18450702047E+03  0.18778677725E+03  0.00000000000E+00 0.  1.
</event>
<event>
 7    1  0.2728221E-009  0.6952329E+02  0.7561462E-02  0.1361722E+00
          1   -1    0    0  501    0  0.00000000000E+00  0.00000000000E+00  0.16522788701E+03  0.16522788701E+03  0.00000000000E+00 0. -1.
         -1   -1    0    0    0  501 -0.00000000000E+00 -0.00000000000E+00 -0.79831696558E+02  0.79831696558E+02  0.00000000000E+00 0.  1.
         25    2    1    2    0    0 -0.31978053122E+02  0.20777091843E+02  0.69760552483E+02  0.14821049214E+03  0.12508210052E+03 0.  0.
          5    1    3    3  502    0 -0.32180365505E+02  0.54708980867E+02  0.88681266742E+02  0.10913518215E+03  0.41800000000E+01 0.  1.
         -5    1    3    3    0  502  0.20231238377E+00 -0.33931889024E+02 -0.18920714258E+02  0.39075309993E+02  0.41800000000E+01 0.  1.
        -11    1    1    2    0    0  0.11592483036E+02  0.72978698426E+00 -0.35717894929E+02  0.37559103692E+02  0.00000000000E+00 0.  1.
         11    1    1    2    0    0  0.20385570086E+02 -0.21506878827E+02  0.51353532897E+02  0.59289987735E+02  0.00000000000E+00 0. -1.
</event>
<event>
 7    1  0.2728221E-009  0.1306518E+03  0.7561462E-02  0.1226492E+00
         -2   -1    0    0    0  501 -0.00000000000E+00  0.00000000000E+00  0.19907356478E+02  0.19907356478E+02  0.00000000000E+00 0.  1.
          2   -1    0    0  501    0  0.00000000000E+00 -0.00000000000E+00 -0.13509695216E+04  0.13509695216E+04  0.00000000000E+00 0. -1.
         25    2    1    2    0    0 -0.88080373313E+01 -0.95421575663E+02 -0.10438544437E+04  0.10556812442E+04  0.12509169088E+03 0.  0.
          5    1    3    3  502    0  0.43487558113E+02 -0.73786747402E+02 -0.83027290280E+03  0.83468929389E+03  0.41800000000E+01 0.  1.
         -5    1    3    3    0  502 -0.52295595444E+02 -0.21634828261E+02 -0.21358154092E+03  0.22099195034E+03  0.41800000000E+01 0.  1.
        -11    1    1    2    0    0  0.36377794633E+02  0.27815266428E+02 -0.53879348536E+02  0.70710799653E+02  0.00000000000E+00 0.  1.
         11    1    1    2    0    0 -0.27569757302E+02  0.67606309234E+02 -0.23332837290E+03  0.24448483422E+03  0.00000000000E+00 0. -1.
</event>
<event>
 7    1  0.2728221E-009  0.1174630E+03  0.7561462E-02  0.1247342E+00
          2   -1    0    0  501    0  0.00000000000E+00  0.00000000000E+00  0.66160670670E+03  0.66160670670E+03  0.00000000000E+00 0. -1.
         -2   -1    0    0    0  501 -0.00000000000E+00 -0.00000000000E+00 -0.26707989755E+02  0.26707989755E+02  0.00000000000E+00 0.  1.
         25    2    1    2    0    0  0.10962852961E+02  0.73901284296E+02  0.39046498274E+03  0.41676367527E+03  0.12508986493E+03 0.  0.
          5    1    3    3  502    0 -0.39822577564E+02  0.79423489362E+02  0.29861410536E+03  0.31157949976E+03  0.41800000000E+01 0. -1.
         -5    1    3    3    0  502  0.50785430525E+02 -0.55222050655E+01  0.91850877380E+02  0.10518417551E+03  0.41800000000E+01 0. -1.
        -11    1    1    2    0    0 -0.13356082803E+02  0.61030257599E+01  0.36045247485E+00  0.14688832399E+02  0.00000000000E+00 0.  1.
         11    1    1    2    0    0  0.23932298415E+01 -0.80004310056E+02  0.24407328172E+03  0.25686218879E+03  0.00000000000E+00 0. -1.
</event>
<event>
 7    1  0.2728221E-009  0.2248860E+03  0.7561462E-02  0.1130292E+00
          1   -1    0    0  501    0  0.00000000000E+00  0.00000000000E+00  0.29484407045E+03  0.29484407045E+03  0.00000000000E+00 0. -1.
         -1   -1    0    0    0  501 -0.00000000000E+00 -0.00000000000E+00 -0.21317407269E+03  0.21317407269E+03  0.00000000000E+00 0.  1.
         25    2    1    2    0    0 -0.11942224118E+03 -0.17327583558E+03  0.12496404311E+03  0.27486677066E+03  0.12509813211E+03 0.  0.
          5    1    3    3  502    0 -0.13424128839E+03 -0.16676647551E+03  0.13705934065E+03  0.25423319241E+03  0.41800000000E+01 0.  1.
         -5    1    3    3    0  502  0.14819047209E+02 -0.65093600676E+01 -0.12095297543E+02  0.20633578248E+02  0.41800000000E+01 0.  1.
        -11    1    1    2    0    0  0.52843901020E+02  0.12782655084E+03  0.63754877630E+01  0.13846570629E+03  0.00000000000E+00 0. -1.
         11    1    1    2    0    0  0.66578340158E+02  0.45449284745E+02 -0.49669533119E+02  0.94685666192E+02  0.00000000000E+00 0.  1.
</event>
<event>
 7    1  0.2728221E-009  0.1828876E+03  0.7561462E-02  0.1165037E+00
          2   -1    0    0  501    0  0.00000000000E+00  0.00000000000E+00  0.31675995732E+03  0.31675995732E+03  0.00000000000E+00 0. -1.
         -2   -1    0    0    0  501 -0.00000000000E+00 -0.00000000000E+00 -0.17444705883E+03  0.17444705883E+03  0.00000000000E+00 0.  1.
         25    2    1    2    0    0  0.11442576241E+03  0.12032373183E+03  0.20085495564E+03  0.28906507006E+03  0.12507935872E+03 0.  0.
          5    1    3    3  502    0  0.79328180576E+02  0.13821204264E+03  0.12172904487E+03  0.20057657323E+03  0.41800000000E+01 0.  1.
         -5    1    3    3    0  502  0.35097581834E+02 -0.17888310817E+02  0.79125910774E+02  0.88488496825E+02  0.41800000000E+01 0.  1.
        -11    1    1    2    0    0 -0.39572338443E+02 -0.52439126245E+02  0.25738532019E+02  0.70557097175E+02  0.00000000000E+00 0. -1.
         11    1    1    2    0    0 -0.74853423967E+02 -0.67884605581E+02 -0.84280589169E+02  0.13158484892E+03  0.00000000000E+00 0.  1.
</event>
<event>
 7    1  0.2728221E-009  0.9195749E+02  0.7561462E-02  0.1298179E+00
          1   -1    0    0  501    0  0.00000000000E+00  0.00000000000E+00  0.68263351866E+03  0.68263351866E+03  0.00000000000E+00 0. -1.
         -1   -1    0    0    0  501 -0.00000000000E+00 -0.00000000000E+00 -0.24015494816E+02  0.24015494816E+02  0.00000000000E+00 0.  1.
         25    2    1    2    0    0  0.14227111137E+02  0.63178922102E+02  0.38635132505E+03  0.41122795746E+03  0.12508836773E+03 0.  0.
          5    1    3    3  502    0  0.21570987442E+02  0.62500485951E+02  0.76249502527E+02  0.10101028304E+03  0.41800000000E+01 0.  1.
         -5    1    3    3    0  502 -0.73438763047E+01  0.67843615053E+00  0.31010182252E+03  0.31021767442E+03  0.41800000000E+01 0.  1.
        -11    1    1    2    0    0 -0.48351697790E+02 -0.15938409116E+02  0.17275889361E+03  0.18010428891E+03  0.00000000000E+00 0. -1.
         11    1    1    2    0    0  0.34124586653E+02 -0.47240512986E+02  0.99507805186E+02  0.11531676710E+03  0.00000000000E+00 0.  1.
</event>
<event>
 7    1  0.2728221E-009  0.1043083E+03  0.7561462E-02  0.1271488E+00
         -1   -1    0    0    0  501 -0.00000000000E+00  0.00000000000E+00  0.20050983739E+03  0.20050983739E+03  0.00000000000E+00 0. -1.
          1   -1    0    0  501    0  0.00000000000E+00 -0.00000000000E+00 -0.74425737103E+02  0.74425737103E+02  0.00000000000E+00 0.  1.
         25    2    1    2    0    0 -0.36244176453E+02  0.49709676448E+02  0.62320722406E+02  0.15269068363E+03  0.12508349279E+03 0.  0.
          5    1    3    3  502    0  0.25022676525E+02  0.33393049071E+02  0.76816234438E+02  0.87518205763E+02  0.41800000000E+01 0.  1.
         -5    1    3    3    0  502 -0.61266852978E+02  0.16316627376E+02 -0.14495512032E+02  0.65172477871E+02  0.41800000000E+01 0.  1.
        -11    1    1    2    0    0  0.21383080738E+02 -0.72691631625E+02  0.54559317443E+02  0.93370383794E+02  0.00000000000E+00 0. -1.
         11    1    1    2    0    0  0.14861095715E+02  0.22981955177E+02  0.92040604369E+01  0.28874507063E+02  0.00000000000E+00 0.  1.
</event>
<event>
 7    1  0.2728221E-009  0.9144760E+02  0.7561462E-02  0.1299384E+00
          1   -1    0    0  501    0  0.00000000000E+00  0.00000000000E+00  0.13096180497E+03  0.13096180497E+03  0.00000000000E+00 0. -1.
         -1   -1    0    0    0  501 -0.00000000000E+00 -0.00000000000E+00 -0.16219406756E+03  0.16219406756E+03  0.00000000000E+00 0.  1.
         25    2    1    2    0    0  0.11828299093E+02 -0.41727841655E+02 -0.10432479487E+03  0.16855731346E+03  0.12508710432E+03 0.  0.
          5    1    3    3  502    0  0.42415661783E+02  0.31331207817E+02 -0.46086949735E+02  0.70158479770E+02  0.41800000000E+01 0. -1.
         -5    1    3    3    0  502 -0.30587362690E+02 -0.73059049472E+02 -0.58237845132E+02  0.98398833690E+02  0.41800000000E+01 0. -1.
        -11    1    1    2    0    0  0.84657889716E+01  0.12828811902E+02  0.85726571315E+02  0.87093587750E+02  0.00000000000E+00 0. -1.
         11    1    1    2    0    0 -0.20294088064E+02  0.28899029753E+02 -0.12634039036E+02  0.37504971315E+02  0.00000000000E+00 0.  1.
</event>
<event>
 7    1  0.2728221E-009  0.1411367E+03  0.7561462E-02  0.1211808E+00
         -1   -1    0    0    0  501 -0.00000000000E+00  0.00000000000E+00  0.55555583946E+03  0.55555583946E+03  0.00000000000E+00 0.  1.
          1   -1    0    0  501    0  0.00000000000E+00 -0.00000000000E+00 -0.11929327093E+03  0.11929327093E+03  0.00000000000E+00 0. -1.
         25    2    1    2    0    0  0.70254222820E+02 -0.10756772857E+03  0.47894919384E+03  0.51141609250E+03  0.12509043660E+03 0.  0.
          5    1    3    3  502    0  0.56424879076E+02 -0.11491930923E+03  0.47834081785E+03  0.49519453252E+03  0.41800000000E+01 0. -1.
         -5    1    3    3    0  502  0.13829343744E+02  0.73515806647E+01  0.60837598863E+00  0.16221559975E+02  0.41800000000E+01 0. -1.
        -11    1    1    2    0    0 -0.44637815666E+02  0.10258262675E+03  0.17641926049E+01  0.11188763236E+03  0.00000000000E+00 0.  1.
         11    1    1    2    0    0 -0.25616407154E+02  0.49851018130E+01 -0.44450817920E+02  0.51545385529E+02  0.00000000000E+00 0. -1.
</event>
<event>
 7    1  0.4144501E-009  0.1287497E+03  0.7561462E-02  0.1229323E+00
          2   -1    0    0  501    0  0.00000000000E+00  0.00000000000E+00  0.89284863986E+03  0.89284863986E+03  0.00000000000E+00 0. -1.
         -2   -1    0    0    0  501 -0.00000000000E+00 -0.00000000000E+00 -0.22682900700E+02  0.22682900700E+02  0.00000000000E+00 0.  1.
         25    2    1    2    0    0 -0.44673946875E+02 -0.78530405351E+02  0.53013193213E+03  0.55213322588E+03  0.12509375511E+03 0.  0.
          5    1    3    3  502    0  0.17446909617E+02 -0.66681205353E+02  0.13182714727E+03  0.14881749547E+03  0.41800000000E+01 0. -1.
         -5    1    3    3    0  502 -0.62120856492E+02 -0.11849199998E+02  0.39830478486E+03  0.40331573041E+03  0.41800000000E+01 0. -1.
        -11    1    1    2    0    0 -0.17125430330E+02  0.57172300498E+02  0.20251729433E+03  0.21112841308E+03  0.00000000000E+00 0. -1.
         11    1    1    2    0    0  0.61799377205E+02  0.21358104854E+02  0.13751651270E+03  0.15226990159E+03  0.00000000000E+00 0.  1.
</event>
<event>
 7    1  0.2728221E-009  0.1212574E+03  0.7561462E-02  0.1241037E+00
          1   -1    0    0  501    0  0.00000000000E+00  0.00000000000E+00  0.17276516441E+03  0.17276516441E+03  0.00000000000E+00 0. -1.
         -1   -1    0    0    0  501 -0.00000000000E+00 -0.00000000000E+00 -0.93737161178E+02  0.93737161178E+02  0.00000000000E+00 0.  1.
         25    2    1    2    0    0  0.64821994812E+02  0.14699450438E+02  0.46565076531E+02  0.14910963208E+03  0.12508961256E+03 0.  0.
          5    1    3    3  502    0  0.76325851721E+02  0.57389888479E+02  0.42193947434E+02  0.10448462346E+03  0.41800000000E+01 0.  1.
         -5    1    3    3    0  502 -0.11503856910E+02 -0.42690438041E+02  0.43711290970E+01  0.44625008610E+02  0.41800000000E+01 0.  1.
        -11    1    1    2    0    0 -0.75481529811E+01 -0.39420787348E+02 -0.10694844631E+02  0.41537366193E+02  0.00000000000E+00 0.  1.
         11    1    1    2    0    0 -0.57273841831E+02  0.24721336909E+02  0.43157771337E+02  0.75855327324E+02  0.00000000000E+00 0. -1.
</event>
<event>
 7    1  0.2728221E-009  0.1106683E+03  0.7561462E-02  0.1259337E+00
         -2   -1    0    0    0  501 -0.00000000000E+00  0.00000000000E+00  0.30589951845E+02  0.30589951845E+02  0.00000000000E+00 0.  1.
          2   -1    0    0  501    0  0.00000000000E+00 -0.00000000000E+00 -0.42393324082E+03  0.42393324082E+03  0.00000000000E+00 0. -1.
         25    2    1    2    0    0  0.30409915544E+02 -0.17418746595E+02 -0.23192832465E+03  0.26583130815E+03  0.12508941171E+03 0.  0.
          5    1    3    3  502    0 -0.48202635060E+02 -0.78564277426E+01 -0.10939769578E+03  0.11987721103E+03  0.41800000000E+01 0. -1.
         -5    1    3    3    0  502  0.78612550604E+02 -0.95623188524E+01 -0.12253062887E+03  0.14595409712E+03  0.41800000000E+01 0. -1.
        -11    1    1    2    0    0 -0.59242712659E+02  0.23176816455E+02 -0.13469719985E+03  0.14896375221E+03  0.00000000000E+00 0. -1.
         11    1    1    2    0    0  0.28832797114E+02 -0.57580698603E+01 -0.26717764478E+02  0.39728132308E+02  0.00000000000E+00 0.  1.
</event>
<event>
 7    1  0.3687976E-009  0.1091911E+03  0.7561462E-02  0.1262075E+00
          2   -1    0    0  501    0  0.00000000000E+00  0.00000000000E+00  0.76813086179E+03  0.76813086179E+03  0.00000000000E+00 0. -1.
         -2   -1    0    0    0  501 -0.00000000000E+00 -0.00000000000E+00 -0.28000795776E+02  0.28000795776E+02  0.00000000000E+00 0.  1.
         25    2    1    2    0    0 -0.84022683347E+02 -0.49725681955E+02  0.44108763851E+03  0.46876163627E+03  0.12508681798E+03 0.  0.
          5    1    3    3  502    0 -0.13550230131E+02 -0.24285093238E+02  0.34827337343E+03  0.34940691111E+03  0.41800000000E+01 0. -1.
         -5    1    3    3    0  502 -0.70472453216E+02 -0.25440588717E+02  0.92814265078E+02  0.11935472516E+03  0.41800000000E+01 0. -1.
        -11    1    1    2    0    0  0.53580724754E+02 -0.37228976965E+01  0.59943341386E+02  0.80485764014E+02  0.00000000000E+00 0.  1.
         11    1    1    2    0    0  0.30441958593E+02  0.53448579651E+02  0.23909908612E+03  0.24688425728E+03  0.00000000000E+00 0. -1.
</event>
<event>
 7    1  0.2728221E-009  0.1109900E+03  0.7561462E-02  0.1258748E+00
          2   -1    0    0  501    0  0.00000000000E+00  0.00000000000E+00  0.91347968917E+02  0.91347968917E+02  0.00000000000E+00 0. -1.
         -2   -1    0    0    0  501 -0.00000000000E+00 -0.00000000000E+00 -0.16331015708E+03  0.16331015708E+03  0.00000000000E+00 0.  1.
         25    2    1    2    0    0 -0.21453485581E+02 -0.24589018948E+02  0.11282660531E+02  0.12973781891E+03  0.12505891144E+03 0.  0.
          5    1    3    3  502    0  0.49681203822E+02 -0.29306908166E+02  0.48771149049E+01  0.58037707822E+02  0.41800000000E+01 0.  1.
         -5    1    3    3    0  502 -0.71134689403E+02  0.47178892171E+01  0.64055456256E+01  0.71700111087E+02  0.41800000000E+01 0.  1.
        -11    1    1    2    0    0  0.55414138637E+02  0.16588704838E+02 -0.46178027513E+02  0.74015688297E+02  0.00000000000E+00 0.  1.
         11    1    1    2    0    0 -0.33960653056E+02  0.80003141103E+01 -0.37066821182E+02  0.50904618792E+02  0.00000000000E+00 0. -1.
</event>
<event>
 7    1  0.2728221E-009  0.1790654E+03  0.7561462E-02  0.1168711E+00
          2   -1    0    0  501    0  0.00000000000E+00  0.00000000000E+00  0.13816440703E+03  0.13816440703E+03  0.00000000000E+00 0.  1.
         -2   -1    0    0    0  501 -0.00000000000E+00 -0.00000000000E+00 -0.27388867135E+03  0.27388867135E+03  0.00000000000E+00 0. -1.
         25    2    1    2    0    0  0.77771595232E+02 -0.13359538251E+03 -0.11886486147E+03  0.23167298915E+03  0.12508945342E+03 0.  0.
          5    1    3    3  502    0 -0.24085775539E+02  0.64021915752E+01 -0.20249237776E+02  0.32382351224E+02  0.41800000000E+01 0.  1.
         -5    1    3    3    0  502  0.10185737077E+03 -0.13999757408E+03 -0.98615623698E+02  0.19929063793E+03  0.41800000000E+01 0.  1.
        -11    1    1    2    0    0 -0.20811330608E+02  0.75511859209E+02 -0.49573446134E+02  0.92696703957E+02  0.00000000000E+00 0. -1.
         11    1    1    2    0    0 -0.56960264624E+02  0.58083523298E+02  0.32714043278E+02  0.87683385270E+02  0.00000000000E+00 0.  1.
</event>
<event>
 7    1  0.2728221E-009  0.9057096E+02  0.7561462E-02  0.1301475E+00
         -1   -1    0    0    0  501 -0.00000000000E+00  0.00000000000E+00  0.74539825443E+02  0.74539825443E+02  0.00000000000E+00 0.  1.
          1   -1    0    0  501    0  0.00000000000E+00 -0.00000000000E+00 -0.20932882682E+03  0.20932882682E+03  0.00000000000E+00 0. -1.
         25    2    1    2    0    0 -0.24409697177E+02  0.39003229179E+02 -0.28077888656E+02  0.13621145867E+03  0.12509239961E+03 0.  0.
          5    1    3    3  502    0 -0.75098359548E+02  0.14913118594E+02 -0.20915147916E+02  0.79480063697E+02  0.41800000000E+01 0.  1.
         -5    1    3    3    0  502  0.50688662371E+02  0.24090110586E+02 -0.71627407401E+01  0.56731394976E+02  0.41800000000E+01 0.  1.
        -11    1    1    2    0    0  0.13125888074E+02 -0.84379121316E+01  0.15009624277E+02  0.21651238297E+02  0.00000000000E+00 0.  1.
         11    1    1    2    0    0  0.11283809103E+02 -0.30565317048E+02 -0.12172073700E+03  0.12600595530E+03  0.00000000000E+00 0. -1.
</event>
<event>
 7    1  0.2728221E-009  0.2577622E+03  0.7561462E-02  0.1108495E+00
          1   -1    0    0  501    0  0.00000000000E+00  0.00000000000E+00  0.11991372345E+04  0.11991372345E+04  0.00000000000E+00 0. -1.
         -1   -1    0    0    0  501 -0.00000000000E+00 -0.00000000000E+00 -0.57890093019E+02  0.57890093019E+02  0.00000000000E+00 0.  1.
         25    2    1    2    0    0 -0.17304362139E+02  0.23610592132E+03  0.48199274930E+03  0.55137122774E+03  0.12509106031E+03 0.  0.
          5    1    3    3  502    0 -0.11722039024E+02 -0.11982298887E+02  0.53172895986E+02  0.55908952352E+02  0.41800000000E+01 0.  1.
         -5    1    3    3    0  502 -0.55823231151E+01  0.24808822021E+03  0.42881985332E+03  0.49546227539E+03  0.41800000000E+01 0.  1.
        -11    1    1    2    0    0  0.40494973745E+02 -0.21475584236E+03  0.59960996806E+03  0.63819435012E+03  0.00000000000E+00 0.  1.
         11    1    1    2    0    0 -0.23190611606E+02 -0.21350078963E+02  0.59644424109E+02  0.67461749649E+02  0.00000000000E+00 0. -1.
</event>
<event>
 7    1  0.2728221E-009  0.9127108E+02  0.7561462E-02  0.1299802E+00
          1   -1    0    0  501    0  0.00000000000E+00  0.00000000000E+00  0.10701011635E+03  0.10701011635E+03  0.00000000000E+00 0. -1.
         -1   -1    0    0    0  501 -0.00000000000E+00 -0.00000000000E+00 -0.12288669420E+03  0.12288669420E+03  0.00000000000E+00 0.  1.
         25    2    1    2    0    0  0.32896661721E+02 -0.24814290586E+01  0.58151441172E+01  0.12949593989E+03  0.12508810777E+03 0.  0.
          5    1    3    3  502    0 -0.24642210052E+02  0.83284112090E+01 -0.44812708073E+02  0.51983191076E+02  0.41800000000E+01 0.  1.
         -5    1    3    3    0  502  0.57538871774E+02 -0.10809840268E+02  0.50627852191E+02  0.77512748816E+02  0.41800000000E+01 0.  1.
        -11    1    1    2    0    0  0.32280290524E+02  0.15868792298E+01 -0.23307539859E+01  0.32403205954E+02  0.00000000000E+00 0. -1.
         11    1    1    2    0    0 -0.65176952245E+02  0.89454982883E+00 -0.19360967982E+02  0.67997664699E+02  0.00000000000E+00 0.  1.
</event>
<event>
 7    1  0.2728221E-009  0.1330551E+03  0.7561462E-02  0.1222992E+00
         -2   -1    0    0    0  501 -0.00000000000E+00  0.00000000000E+00  0.44764948692E+02  0.44764948692E+02  0.00000000000E+00 0.  1.
          2   -1    0    0  501    0  0.00000000000E+00 -0.00000000000E+00 -0.57879435106E+03  0.57879435106E+03  0.00000000000E+00 0. -1.
         25    2    1    2    0    0 -0.11360726271E+03 -0.31849813332E+02 -0.25665925375E+03  0.30893379714E+03  0.12508036509E+03 0.  0.
          5    1    3    3  502    0 -0.11294053517E+02 -0.49763076867E+01 -0.17434697090E+03  0.17483322895E+03  0.41800000000E+01 0. -1.
         -5    1    3    3    0  502 -0.10231320919E+03 -0.26873505645E+02 -0.82312282847E+02  0.13410056819E+03  0.41800000000E+01 0. -1.
        -11    1    1    2    0    0  0.16822098402E+02 -0.28543256725E+02 -0.81133646955E+02  0.87637715439E+02  0.00000000000E+00 0. -1.
         11    1    1    2    0    0  0.96785164306E+02  0.60393070057E+02 -0.19623650166E+03  0.22698778717E+03  0.00000000000E+00 0.  1.
</event>
<event>
 7    1  0.2728221E-009  0.1093539E+03  0.7561462E-02  0.1261771E+00
         -1   -1    0    0    0  501 -0.00000000000E+00  0.00000000000E+00  0.18319838725E+03  0.18319838725E+03  0.00000000000E+00 0.  1.
          1   -1    0    0  501    0  0.00000000000E+00 -0.00000000000E+00 -0.11884465098E+03  0.11884465098E+03  0.00000000000E+00 0. -1.
         25    2    1    2    0    0  0.24837605495E+02  0.56051125614E+02 -0.44995376125E+02  0.14639150537E+03  0.12508898290E+03 0.  0.
          5    1    3    3  502    0 -0.50363006553E+02  0.14365027971E+02 -0.10077670080E+02  0.53495965193E+02  0.41800000000E+01 0. -1.
         -5    1    3    3    0  502  0.75200612048E+02  0.41686097644E+02 -0.34917706045E+02  0.92895540176E+02  0.41800000000E+01 0. -1.
        -11    1    1    2    0    0 -0.21274347729E+01 -0.57302256153E+02  0.11809747450E+03  0.13128247417E+03  0.00000000000E+00 0.  1.
         11    1    1    2    0    0 -0.22710170722E+02  0.12511305385E+01 -0.87483621101E+01  0.24369058690E+02  0.00000000000E+00 0. -1.
</event>
<event>
 7    1  0.2728221E-009  0.1376962E+03  0.7561462E-02  0.1216463E+00
         -3   -1    0    0    0  501 -0.00000000000E+00  0.00000000000E+00  0.27303264054E+03  0.27303264054E+03  0.00000000000E+00 0.  1.
          3   -1    0    0  501    0  0.00000000000E+00 -0.00000000000E+00 -0.88895400686E+02  0.88895400686E+02  0.00000000000E+00 0. -1.
         25    2    1    2    0    0 -0.50918318788E+01 -0.89562256070E+02  0.21744871505E+02  0.15545891604E+03  0.12508921087E+03 0.  0.
          5    1    3    3  502    0  0.55876874070E+02 -0.56039104726E+02 -0.80510428113E+01  0.79654868054E+02  0.41800000000E+01 0.  1.
         -5    1    3    3    0  502 -0.60968705949E+02 -0.33523151343E+02  0.29795914316E+02  0.75804047985E+02  0.41800000000E+01 0.  1.
        -11    1    1    2    0    0 -0.30506424231E+02  0.47902382316E+00  0.51312020578E+02  0.59697527913E+02  0.00000000000E+00 0.  1.
         11    1    1    2    0    0  0.35598256110E+02  0.89083232246E+02  0.11108034777E+03  0.14677159728E+03  0.00000000000E+00 0. -1.
</event>
<event>
 7    1  0.2728221E-009  0.1025359E+03  0.7561462E-02  0.1275052E+00
          2   -1    0    0  501    0  0.00000000000E+00  0.00000000000E+00  0.14683496415E+03  0.14683496415E+03  0.00000000000E+00 0.  1.
         -2   -1    0    0    0  501 -0.00000000000E+00 -0.00000000000E+00 -0.90009562504E+02  0.90009562504E+02  0.00000000000E+00 0. -1.
         25    2    1    2    0    0  0.10877083632E+02  0.39875163182E+02  0.81358823623E+01  0.13199225930E+03  0.12508966523E+03 0.  0.
          5    1    3    3  502    0 -0.55304580688E+02  0.30732935305E+02 -0.56065558467E+01  0.63655446161E+02  0.41800000000E+01 0. -1.
         -5    1    3    3    0  502  0.66181664320E+02  0.91422278778E+01  0.13742438209E+02  0.68336813144E+02  0.41800000000E+01 0. -1.
        -11    1    1    2    0    0 -0.32046345161E+02 -0.42676593695E+02  0.60316837509E+02  0.80538070343E+02  0.00000000000E+00 0.  1.
         11    1    1    2    0    0  0.21169261529E+02  0.28014305131E+01 -0.11627318229E+02  0.24314197001E+02  0.00000000000E+00 0. -1.
</event>
<event>
 7    1  0.2728221E-009  0.2722186E+03  0.7561462E-02  0.1100017E+00
          1   -1    0    0  501    0  0.00000000000E+00  0.00000000000E+00  0.12955981695E+03  0.12955981695E+03  0.00000000000E+00 0. -1.
         -1   -1    0    0    0  501 -0.00000000000E+00 -0.00000000000E+00 -0.64591644397E+03  0.64591644397E+03  0.00000000000E+00 0.  1.
         25    2    1    2    0    0 -0.50387382000E+02 -0.26090210291E+03 -0.30802045211E+03  0.42559702068E+03  0.12508968594E+03 0.  0.
          5    1    3    3  502    0 -0.63358105512E+02 -0.22991514569E+03 -0.19645836033E+03  0.30901227078E+03  0.41800000000E+01 0. -1.
         -5    1    3    3    0  502  0.12970723512E+02 -0.30986957220E+02 -0.11156209178E+03  0.11658474990E+03  0.41800000000E+01 0. -1.
        -11    1    1    2    0    0  0.54602723954E+02  0.12881534585E+03 -0.62991738508E+02  0.15343666417E+03  0.00000000000E+00 0. -1.
         11    1    1    2    0    0 -0.42153419548E+01  0.13208675706E+03 -0.14534443641E+03  0.19644257607E+03  0.00000000000E+00 0.  1.
</event>
<event>
 7    1  0.2728221E-009  0.1122593E+03  0.7561462E-02  0.1256442E+00
          2   -1    0    0  501    0  0.00000000000E+00  0.00000000000E+00  0.16806844095E+04  0.16806844095E+04  0.00000000000E+00 0. -1.
         -2   -1    0    0    0  501 -0.00000000000E+00 -0.00000000000E+00 -0.30700630498E+02  0.30700630498E+02  0.00000000000E+00 0.  1.
         25    2    1    2    0    0  0.25362122197E+02 -0.71895984162E+02  0.15494515693E+04  0.15563620877E+04  0.12510200971E+03 0.  0.
          5    1    3    3  502    0 -0.39365726880E+02 -0.60822234041E+02  0.10638940294E+04  0.10663662517E+04  0.41800000000E+01 0. -1.
         -5    1    3    3    0  502  0.64727849077E+02 -0.11073750120E+02  0.48555753987E+03  0.48999583602E+03  0.41800000000E+01 0. -1.
        -11    1    1    2    0    0 -0.35740418165E+02  0.63204576561E+02  0.22777547803E+02  0.76098703489E+02  0.00000000000E+00 0.  1.
         11    1    1    2    0    0  0.10378295967E+02  0.86914076005E+01  0.77754661958E+02  0.78924248806E+02  0.00000000000E+00 0. -1.
</event>
<event>
 7    1  0.2728221E-009  0.1048030E+03  0.7561462E-02  0.1270508E+00
         -1   -1    0    0    0  501 -0.00000000000E+00  0.00000000000E+00  0.22926248877E+02  0.22926248877E+02  0.00000000000E+00 0. -1.
          1   -1    0    0  501    0  0.00000000000E+00 -0.00000000000E+00 -0.56174081258E+03  0.56174081258E+03  0.00000000000E+00 0.  1.
         25    2    1    2    0    0 -0.13908714145E+01  0.33059458231E+02 -0.29613229273E+03  0.32316663171E+03  0.12508986669E+03 0.  0.
          5    1    3    3  502    0 -0.49927002581E+02  0.54355731048E+02 -0.20134106629E+03  0.21448297942E+03  0.41800000000E+01 0.  1.
         -5    1    3    3    0  502  0.48536131167E+02 -0.21296272817E+02 -0.94791226439E+02  0.10868365229E+03  0.41800000000E+01 0.  1.
        -11    1    1    2    0    0  0.22027865516E+02 -0.50755687200E+02 -0.21755710206E+03  0.22448264810E+03  0.00000000000E+00 0.  1.
         11    1    1    2    0    0 -0.20636994102E+02  0.17696228969E+02 -0.25125168903E+02  0.37017781642E+02  0.00000000000E+00 0. -1.
</event>
<event>
 7    1  0.2728221E-009  0.2160780E+03  0.7561462E-02  0.1136841E+00
          3   -1    0    0  501    0  0.00000000000E+00  0.00000000000E+00  0.28587033849E+02  0.28587033849E+02  0.00000000000E+00 0. -1.
         -3   -1    0    0    0  501 -0.00000000000E+00 -0.00000000000E+00 -0.23337715935E+04  0.23337715935E+04  0.00000000000E+00 0.  1.
         25    2    1    2    0    0 -0.71825668253E+02 -0.18494135130E+03 -0.17359539046E+04  0.17517270344E+04  0.12509761787E+03 0.  0.
          5    1    3    3  502    0 -0.24063910551E+02 -0.17254688244E+03 -0.10863910855E+04  0.11002793107E+04  0.41800000000E+01 0.  1.
         -5    1    3    3    0  502 -0.47761757701E+02 -0.12394468861E+02 -0.64956281904E+03  0.65144772364E+03  0.41800000000E+01 0.  1.
        -11    1    1    2    0    0  0.12054486298E+02  0.11804748293E+03 -0.21885051136E+03  0.24894992506E+03  0.00000000000E+00 0. -1.
         11    1    1    2    0    0  0.59771181955E+02  0.66893868369E+02 -0.35038014371E+03  0.36168166794E+03  0.00000000000E+00 0.  1.
</event>
<event>
 7    1  0.2728221E-009  0.1141004E+03  0.7561462E-02  0.1253160E+00
         -2   -1    0    0    0  501 -0.00000000000E+00  0.00000000000E+00  0.91034980746E+02  0.91034980746E+02  0.00000000000E+00 0.  1.
          2   -1    0    0  501    0  0.00000000000E+00 -0.00000000000E+00 -0.19642114834E+03  0.19642114834E+03  0.00000000000E+00 0. -1.
         25    2    1    2    0    0  0.72766174900E+02 -0.80075039471E+01 -0.92778605124E+02  0.17208602336E+03  0.12508674406E+03 0.  0.
          5    1    3    3  502    0  0.80731737493E+01 -0.44491606426E+02  0.87254522286E+01  0.46241594840E+02  0.41800000000E+01 0. -1.
         -5    1    3    3    0  502  0.64693001151E+02  0.36484102479E+02 -0.10150405735E+03  0.12584442852E+03  0.41800000000E+01 0. -1.
        -11    1    1    2    0    0  0.76606244898E+01 -0.21428368549E+02  0.12705742573E+02  0.26063308319E+02  0.00000000000E+00 0.  1.
         11    1    1    2    0    0 -0.80426799390E+02  0.29435872496E+02 -0.25313305042E+02  0.89306797400E+02  0.00000000000E+00 0. -1.
</event>
<event>
 7    1  0.2728221E-009  0.1983807E+03  0.7561462E-02  0.1151112E+00
          2   -1    0    0  501    0  0.00000000000E+00  0.00000000000E+00  0.15941572345E+04  0.15941572345E+04  0.00000000000E+00 0. -1.
         -2   -1    0    0    0  501 -0.00000000000E+00 -0.00000000000E+00 -0.31291704516E+02  0.31291704516E+02  0.00000000000E+00 0.  1.
         25    2    1    2    0    0  0.63526800682E+02 -0.16022818159E+03  0.11394504475E+04  0.11591818390E+04  0.12508592660E+03 0.  0.
          5    1    3    3  502    0  0.44041323030E+02 -0.17965031534E+03  0.97670962079E+03  0.99407898564E+03  0.41800000000E+01 0.  1.
         -5    1    3    3    0  502  0.19485477652E+02  0.19422133753E+02  0.16274082673E+03  0.16510285341E+03  0.41800000000E+01 0.  1.
        -11    1    1    2    0    0 -0.76410368794E+02  0.12618156661E+03  0.26080718701E+03  0.29963431213E+03  0.00000000000E+00 0.  1.
         11    1    1    2    0    0  0.12883568112E+02  0.34046614984E+02  0.16260789541E+03  0.16663278780E+03  0.00000000000E+00 0. -1.
</event>
<event>
 7    1  0.2728221E-009  0.1009745E+03  0.7561462E-02  0.1278260E+00
          1   -1    0    0  501    0  0.00000000000E+00  0.00000000000E+00  0.38954033125E+02  0.38954033125E+02  0.00000000000E+00 0. -1.
         -1   -1    0    0    0  501 -0.00000000000E+00 -0.00000000000E+00 -0.33153853726E+03  0.33153853726E+03  0.00000000000E+00 0.  1.
         25    2    1    2    0    0 -0.28707061610E+02 -0.88000137477E+01 -0.18214754322E+03  0.22298972210E+03  0.12508058616E+03 0.  0.
          5    1    3    3  502    0 -0.83174359566E+01 -0.62818062109E+02 -0.57981113494E+02  0.85991689075E+02  0.41800000000E+01 0. -1.
         -5    1    3    3    0  502 -0.20389625653E+02  0.54018048361E+02 -0.12416642973E+03  0.13699803303E+03  0.41800000000E+01 0. -1.
        -11    1    1    2    0    0  0.12596814357E+02  0.41895014829E+02 -0.16750185740E+02  0.46844858008E+02  0.00000000000E+00 0. -1.
         11    1    1    2    0    0  0.16110247253E+02 -0.33095001082E+02 -0.93686775174E+02  0.10065799027E+03  0.00000000000E+00 0.  1.
</event>
<event>
 7    1  0.2728221E-009  0.9637736E+02  0.7561462E-02  0.1288104E+00
         -1   -1    0    0    0  501 -0.00000000000E+00  0.00000000000E+00  0.38947932378E+02  0.38947932378E+02  0.00000000000E+00 0.  1.
          1   -1    0    0  501    0  0.00000000000E+00 -0.00000000000E+00 -0.41743832247E+03  0.41743832247E+03  0.00000000000E+00 0. -1.
         25    2    1    2    0    0 -0.14300786054E+02  0.11579082914E+02 -0.33166639127E+03  0.35494949673E+03  0.12509181622E+03 0.  0.
          5    1    3    3  502    0  0.25722995271E+02  0.46042420935E+02 -0.68762993665E+02  0.86760582691E+02  0.41800000000E+01 0.  1.
         -5    1    3    3    0  502 -0.40023781325E+02 -0.34463338021E+02 -0.26290339761E+03  0.26818891404E+03  0.41800000000E+01 0.  1.
        -11    1    1    2    0    0  0.28916233348E+02 -0.43226961860E+02 -0.40708493354E+02  0.66044683464E+02  0.00000000000E+00 0. -1.
         11    1    1    2    0    0 -0.14615447294E+02  0.31647878946E+02 -0.61155054663E+01  0.35392074657E+02  0.00000000000E+00 0.  1.
</event>
<event>
 7    1  0.2728221E-009  0.9227483E+02  0.7561462E-02  0.1297435E+00
          1   -1    0    0  501    0  0.00000000000E+00  0.00000000000E+00  0.22412385501E+04  0.22412385501E+04  0.00000000000E+00 0. -1.
         -1   -1    0    0    0  501 -0.00000000000E+00 -0.00000000000E+00 -0.10802278429E+02  0.10802278429E+02  0.00000000000E+00 0.  1.
         25    2    1    2    0    0  0.65614971810E+02 -0.85075186431E+01  0.18484161361E+04  0.18538253054E+04  0.12509335920E+03 0.  0.
          5    1    3    3  502    0  0.63698752091E+02  0.27016829960E+00  0.37633125952E+03  0.38170707787E+03  0.41800000000E+01 0. -1.
         -5    1    3    3    0  502  0.19162197189E+01 -0.87776869427E+01  0.14720848766E+04  0.14721182276E+04  0.41800000000E+01 0. -1.
        -11    1    1    2    0    0 -0.62103888919E+02 -0.32193322414E+02  0.27215155165E+03  0.28099781155E+03  0.00000000000E+00 0.  1.
         11    1    1    2    0    0 -0.35110828906E+01  0.40700841058E+02  0.10986858394E+03  0.11721771156E+03  0.00000000000E+00 0. -1.
</event>
<event>
 7    1  0.2728221E-009  0.2275104E+03  0.7561462E-02  0.1128404E+00
          1   -1    0    0  501    0  0.00000000000E+00  0.00000000000E+00  0.29660404994E+03  0.29660404994E+03  0.00000000000E+00 0.  1.
         -1   -1    0    0    0  501 -0.00000000000E+00 -0.00000000000E+00 -0.23498464494E+03  0.23498464494E+03  0.00000000000E+00 0. -1.
         25    2    1    2    0    0 -0.91948695905E+01  0.21556472956E+03 -0.75547096443E+02  0.26059186887E+03  0.12509220633E+03 0.  0.
          5    1    3    3  502    0 -0.16540727268E+02  0.23367358368E+02 -0.61175952705E+02  0.67672732212E+02  0.41800000000E+01 0. -1.
         -5    1    3    3    0  502  0.73458576775E+01  0.19219737119E+03 -0.14371143737E+02  0.19291913666E+03  0.41800000000E+01 0. -1.
        -11    1    1    2    0    0  0.35567735151E+02 -0.30747496546E+02  0.28790733667E+02  0.55130560243E+02  0.00000000000E+00 0. -1.
         11    1    1    2    0    0 -0.26372865560E+02 -0.18481723301E+03  0.10837576778E+03  0.21586626577E+03  0.00000000000E+00 0.  1.
</event>
<event>
 7    1  0.2728221E-009  0.1225366E+03  0.7561462E-02  0.1238970E+00
          1   -1    0    0  501    0  0.00000000000E+00  0.00000000000E+00  0.46910151333E+03  0.46910151333E+03  0.00000000000E+00 0. -1.
         -1   -1    0    0    0  501 -0.00000000000E+00 -0.00000000000E+00 -0.34549288168E+02  0.34549288168E+02  0.00000000000E+00 0.  1.
         25    2    1    2    0    0  0.64511760818E+02 -0.14300461301E+02  0.22064033020E+03  0.26209491017E+03  0.12508123820E+03 0.  0.
          5    1    3    3  502    0 -0.13508683717E+02 -0.49514868503E+02  0.53454289208E+02  0.74222908683E+02  0.41800000000E+01 0. -1.
         -5    1    3    3    0  502  0.78020444535E+02  0.35214407202E+02  0.16718604099E+03  0.18787200148E+03  0.41800000000E+01 0. -1.
        -11    1    1    2    0    0 -0.85711448171E+02  0.10762500233E+02  0.19353551281E+03  0.21193932735E+03  0.00000000000E+00 0. -1.
         11    1    1    2    0    0  0.21199687353E+02  0.35379610683E+01  0.20376382158E+02  0.29616563984E+02  0.00000000000E+00 0.  1.
</event>
<event>
 7    1  0.2728221E-009  0.1242548E+03  0.7561462E-02  0.1236239E+00
          2   -1    0    0  501    0  0.00000000000E+00  0.00000000000E+00  0.39138202486E+03  0.39138202486E+03  0.00000000000E+00 0. -1.
         -2   -1    0    0    0  501 -0.00000000000E+00 -0.00000000000E+00 -0.65287594817E+02  0.65287594817E+02  0.00000000000E+00 0.  1.
         25    2    1    2    0    0  0.39203562426E+02 -0.97424934958E+02  0.25122459773E+03  0.29964838224E+03  0.12508723841E+03 0.  0.
          5    1    3    3  502    0 -0.22349988760E+02 -0.11020792277E+02 -0.17195663275E+01  0.25326057102E+02  0.41800000000E+01 0. -1.
         -5    1    3    3    0  502  0.61553551186E+02 -0.86404142681E+02  0.25294416406E+03  0.27432232514E+03  0.41800000000E+01 0. -1.
        -11    1    1    2    0    0 -0.46183014860E+02  0.46025916173E+02  0.81890914708E+02  0.10467749392E+03  0.00000000000E+00 0. -1.
         11    1    1    2    0    0  0.69794524331E+01  0.51399018785E+02 -0.70210823934E+01  0.52343743526E+02  0.00000000000E+00 0.  1.
</event>
<event>
 7    1  0.2728221E-009  0.2307963E+03  0.7561462E-02  0.1126081E+00
         -1   -1    0    0    0  501 -0.00000000000E+00  0.00000000000E+00  0.23362006878E+03  0.23362006878E+03  0.00000000000E+00 0. -1.
          1   -1    0    0  501    0  0.00000000000E+00 -0.00000000000E+00 -0.25715510252E+03  0.25715510252E+03  0.00000000000E+00 0.  1.
         25    2    1    2    0    0  0.78639076648E+02 -0.19209564153E+03 -0.83627358769E+02  0.25637073788E+03  0.12509028832E+03 0.  0.
          5    1    3    3  502    0  0.25239752029E+02  0.11443792750E+02  0.41481619675E+01  0.28331698196E+02  0.41800000000E+01 0.  1.
         -5    1    3    3    0  502  0.53399324619E+02 -0.20353943428E+03 -0.87775520737E+02  0.22803903968E+03  0.41800000000E+01 0.  1.
        -11    1    1    2    0    0 -0.89364162899E+02  0.11692146189E+03  0.19938983963E+02  0.14850638014E+03  0.00000000000E+00 0.  1.
         11    1    1    2    0    0  0.10725086251E+02  0.75174179647E+02  0.40153341062E+02  0.85898053290E+02  0.00000000000E+00 0. -1.
</event>
<event>
 7    1  0.2728221E-009  0.1022708E+03  0.7561462E-02  0.1275592E+00
         -4   -1    0    0    0  501 -0.00000000000E+00  0.00000000000E+00  0.19459160741E+03  0.19459160741E+03  0.00000000000E+00 0.  1.
          4   -1    0    0  501    0  0.00000000000E+00 -0.00000000000E+00 -0.83309611134E+02  0.83309611134E+02  0.00000000000E+00 0. -1.
         25    2    1    2    0    0 -0.55667175090E+02 -0.27849747244E+02  0.86233525462E+02  0.16419114415E+03  0.12509223837E+03 0.  0.
          5    1    3    3  502    0 -0.43922143606E+02 -0.73708973538E+02  0.31000995946E+02  0.91327441816E+02  0.41800000000E+01 0.  1.
         -5    1    3    3    0  502 -0.11745031484E+02  0.45859226295E+02  0.55232529516E+02  0.72863702333E+02  0.41800000000E+01 0.  1.
        -11    1    1    2    0    0  0.17883671984E+02  0.28124431711E+02  0.55798338907E+02  0.64994338272E+02  0.00000000000E+00 0.  1.
         11    1    1    2    0    0  0.37783503106E+02 -0.27468446690E+00 -0.30749868092E+02  0.48715736125E+02  0.00000000000E+00 0. -1.
</event>
<event>
 7    1  0.2728221E-009  0.9678314E+02  0.7561462E-02  0.1287210E+00
          1   -1    0    0  501    0  0.00000000000E+00  0.00000000000E+00  0.25151652039E+02  0.25151652039E+02  0.00000000000E+00 0. -1.
         -1   -1    0    0    0  501 -0.00000000000E+00 -0.00000000000E+00 -0.53510626471E+03  0.53510626471E+03  0.00000000000E+00 0.  1.
         25    2    1    2    0    0 -0.25457688703E+02  0.27009974439E+02 -0.25203922010E+03  0.28381914228E+03  0.12510757139E+03 0.  0.
          5    1    3    3  502    0  0.32936579088E+02 -0.17506902644E+02 -0.16800268626E+03  0.17214437217E+03  0.41800000000E+01 0.  1.
         -5    1    3    3    0  502 -0.58394267791E+02  0.44516877083E+02 -0.84036533848E+02  0.11167477010E+03  0.41800000000E+01 0.  1.
        -11    1    1    2    0    0 -0.58107370986E+01 -0.45692993642E+02 -0.62397349559E+02  0.77556711932E+02  0.00000000000E+00 0. -1.
         11    1    1    2    0    0  0.31268425802E+02  0.18683019203E+02 -0.19551804301E+03  0.19888206254E+03  0.00000000000E+00 0.  1.
</event>
<event>
 7    1  0.2728221E-009  0.1694916E+03  0.7561462E-02  0.1178379E+00
          1   -1    0    0  501    0  0.00000000000E+00  0.00000000000E+00  0.62882864796E+03  0.62882864796E+03  0.00000000000E+00 0. -1.
         -1   -1    0    0    0  501 -0.00000000000E+00 -0.00000000000E+00 -0.62975672540E+02  0.62975672540E+02  0.00000000000E+00 0.  1.
         25    2    1    2    0    0 -0.11205619155E+03  0.84335353148E+02  0.14183924074E+03  0.23544543303E+03  0.12508852812E+03 0.  0.
          5    1    3    3  502    0  0.24836554355E+02  0.33198888993E+02  0.28956171554E+02  0.50743994065E+02  0.41800000000E+01 0. -1.
         -5    1    3    3    0  502 -0.13689274591E+03  0.51136464155E+02  0.11288306919E+03  0.18470143897E+03  0.41800000000E+01 0. -1.
        -11    1    1    2    0    0  0.25172705886E+02  0.59009206882E+01  0.18112420623E+02  0.31568113143E+02  0.00000000000E+00 0.  1.
         11    1    1    2    0    0  0.86883485666E+02 -0.90236273836E+02  0.40590131405E+03  0.42479077432E+03  0.00000000000E+00 0. -1.
</event>
<event>
 7    1  0.2728221E-009  0.1059762E+03  0.7561462E-02  0.1268208E+00
         -1   -1    0    0    0  501 -0.00000000000E+00  0.00000000000E+00  0.11908717045E+03  0.11908717045E+03  0.00000000000E+00 0.  1.
          1   -1    0    0  501    0  0.00000000000E+00 -0.00000000000E+00 -0.12421738855E+03  0.12421738855E+03  0.00000000000E+00 0. -1.
         25    2    1    2    0    0  0.25177033449E+02 -0.49046331221E+02 -0.10709912380E+02  0.13711735869E+03  0.12508813777E+03 0.  0.
          5    1    3    3  502    0  0.50318766556E+02 -0.80561930411E+02  0.44687551112E+00  0.95078257225E+02  0.41800000000E+01 0.  1.
         -5    1    3    3    0  502 -0.25141733107E+02  0.31515599190E+02 -0.11156787891E+02  0.42039101465E+02  0.41800000000E+01 0.  1.
        -11    1    1    2    0    0 -0.39100303046E+02  0.19526472861E+02 -0.33647861643E+02  0.55157007115E+02  0.00000000000E+00 0. -1.
         11    1    1    2    0    0  0.13923269597E+02  0.29519858360E+02  0.39227555929E+02  0.51030193200E+02  0.00000000000E+00 0.  1.
</event>
<event>
 7    1  0.2728221E-009  0.1438735E+03  0.7561462E-02  0.1208210E+00
          1   -1    0    0  501    0  0.00000000000E+00  0.00000000000E+00  0.76263761127E+03  0.76263761127E+03  0.00000000000E+00 0. -1.
         -1   -1    0    0    0  501 -0.00000000000E+00 -0.00000000000E+00 -0.29002257678E+02  0.29002257678E+02  0.00000000000E+00 0.  1.
         25    2    1    2    0    0 -0.89997323422E+02 -0.45098168395E+02  0.35243327912E+03  0.38728544903E+03  0.12508972693E+03 0.  0.
          5    1    3    3  502    0 -0.11714386693E+03 -0.45446878825E+02  0.32497779136E+03  0.34844819074E+03  0.41800000000E+01 0. -1.
         -5    1    3    3    0  502  0.27146543506E+02  0.34871043016E+00  0.27455487759E+02  0.38837258288E+02  0.41800000000E+01 0. -1.
        -11    1    1    2    0    0  0.33026386242E+02 -0.27006557613E+02  0.13378346482E+03  0.14042119427E+03  0.00000000000E+00 0.  1.
         11    1    1    2    0    0  0.56970937180E+02  0.72104726008E+02  0.24741860966E+03  0.26393322565E+03  0.00000000000E+00 0. -1.
</event>
<event>
 7    1  0.2728221E-009  0.1013478E+03  0.7561462E-02  0.1277487E+00
         -1   -1    0    0    0  501 -0.00000000000E+00  0.00000000000E+00  0.97956624210E+02  0.97956624210E+02  0.00000000000E+00 0.  1.
          1   -1    0    0  501    0  0.00000000000E+00 -0.00000000000E+00 -0.36488807937E+03  0.36488807937E+03  0.00000000000E+00 0. -1.
         25    2    1    2    0    0  0.14995620173E+02  0.44259383540E+02  0.41474879025E+02  0.13982699992E+03  0.12509061780E+03 0.  0.
          5    1    3    3  502    0 -0.48111021503E+02  0.12459537073E+02 -0.11775671398E+02  0.51244992839E+02  0.41800000000E+01 0. -1.
         -5    1    3    3    0  502  0.63106641676E+02  0.31799846466E+02  0.53250550423E+02  0.88582007086E+02  0.41800000000E+01 0. -1.
        -11    1    1    2    0    0 -0.29771627866E+02 -0.55825492733E+02 -0.28967670764E+03  0.29650536322E+03  0.00000000000E+00 0. -1.
         11    1    1    2    0    0  0.14776007694E+02  0.11566109193E+02 -0.18729626545E+02  0.26512340443E+02  0.00000000000E+00 0.  1.
</event>
<event>
 7    1  0.2728221E-009  0.1823949E+03  0.7561462E-02  0.1165505E+00
         -2   -1    0    0    0  501 -0.00000000000E+00  0.00000000000E+00  0.63407116412E+02  0.63407116412E+02  0.00000000000E+00 0.  1.
          2   -1    0    0  501    0  0.00000000000E+00 -0.00000000000E+00 -0.79609799274E+03  0.79609799274E+03  0.00000000000E+00 0. -1.
         25    2    1    2    0    0  0.15202161812E+02 -0.15466506946E+03 -0.14992296534E+03  0.24955406822E+03  0.12509175830E+03 0.  0.
          5    1    3    3  502    0 -0.49292631774E+02 -0.45328979886E+02 -0.25569283861E+02  0.71803486280E+02  0.41800000000E+01 0. -1.
         -5    1    3    3    0  502  0.64494793587E+02 -0.10933608957E+03 -0.12435368148E+03  0.17775058194E+03  0.41800000000E+01 0. -1.
        -11    1    1    2    0    0  0.28461432159E+02  0.64640615740E+02 -0.15041690434E+03  0.16617372667E+03  0.00000000000E+00 0.  1.
         11    1    1    2    0    0 -0.43663593971E+02  0.90024453719E+02 -0.43235100664E+03  0.44377731426E+03  0.00000000000E+00 0. -1.
</event>
<event>
 7    1  0.2728221E-009  0.1070936E+03  0.7561462E-02  0.1266049E+00
         -1   -1    0    0    0  501 -0.00000000000E+00  0.00000000000E+00  0.14763491213E+02  0.14763491213E+02  0.00000000000E+00 0.  1.
          1   -1    0    0  501    0  0.00000000000E+00 -0.00000000000E+00 -0.10451698028E+04  0.10451698028E+04  0.00000000000E+00 0. -1.
         25    2    1    2    0    0 -0.39509909418E+02 -0.25787343156E+02 -0.71658837540E+03  0.72895269442E+03  0.12508841247E+03 0.  0.
          5    1    3    3  502    0 -0.22878311401E+02 -0.75595332063E+02 -0.36771843364E+03  0.37612815661E+03  0.41800000000E+01 0. -1.
         -5    1    3    3    0  502 -0.16631598017E+02  0.49807988907E+02 -0.34886994176E+03  0.35282453780E+03  0.41800000000E+01 0. -1.
        -11    1    1    2    0    0 -0.12270754871E+02 -0.12882442820E+02 -0.10090117958E+02  0.20453342967E+02  0.00000000000E+00 0.  1.
         11    1    1    2    0    0  0.51780664290E+02  0.38669785976E+02 -0.30372781821E+03  0.31052725661E+03  0.00000000000E+00 0. -1.
</event>
<event>
 7    1  0.2728221E-009  0.4744578E+03  0.7561462E-02  0.1020670E+00
         -1   -1    0    0    0  501 -0.00000000000E+00  0.00000000000E+00  0.30954048648E+03  0.30954048648E+03  0.00000000000E+00 0.  1.
          1   -1    0    0  501    0  0.00000000000E+00 -0.00000000000E+00 -0.12289305840E+04  0.12289305840E+04  0.00000000000E+00 0. -1.
         25    2    1    2    0    0 -0.20553768809E+03 -0.42508757870E+03 -0.93786869357E+03  0.10574457043E+04  0.12509412621E+03 0.  0.
          5    1    3    3  502    0 -0.66313179515E+02 -0.88665064831E+02 -0.12676656890E+03  0.16836319933E+03  0.41800000000E+01 0.  1.
         -5    1    3    3    0  502 -0.13922450857E+03 -0.33642251387E+03 -0.81110212468E+03  0.88908250499E+03  0.41800000000E+01 0.  1.
        -11    1    1    2    0    0  0.15950164259E+03  0.28572113653E+03 -0.24349362047E+02  0.32813142684E+03  0.00000000000E+00 0. -1.
         11    1    1    2    0    0  0.46036045499E+02  0.13936644217E+03  0.42827958092E+02  0.15289393932E+03  0.00000000000E+00 0.  1.
</event>
<event>
 7    1  0.4058266E-009  0.1206830E+03  0.7561462E-02  0.1241975E+00
         -1   -1    0    0    0  501 -0.00000000000E+00  0.00000000000E+00  0.48128033934E+02  0.48128033934E+02  0.00000000000E+00 0.  1.
          1   -1    0    0  501    0  0.00000000000E+00 -0.00000000000E+00 -0.59368127931E+03  0.59368127931E+03  0.00000000000E+00 0. -1.
         25    2    1    2    0    0  0.91616947654E+02  0.13355318306E+02 -0.11935818565E+03  0.19612818543E+03  0.12509140264E+03 0.  0.
          5    1    3    3  502    0  0.98728615707E+02  0.47615948908E+02 -0.54892032988E+02  0.12265898188E+03  0.41800000000E+01 0. -1.
         -5    1    3    3    0  502 -0.71116680528E+01 -0.34260630603E+02 -0.64466152661E+02  0.73469203553E+02  0.41800000000E+01 0. -1.
        -11    1    1    2    0    0 -0.19480847996E+02 -0.14508661809E+02 -0.15762940822E+02  0.28956432956E+02  0.00000000000E+00 0.  1.
         11    1    1    2    0    0 -0.72136099658E+02  0.11533435035E+01 -0.41043211891E+03  0.41672469486E+03  0.00000000000E+00 0. -1.
</event>
<event>
 7    1  0.2728221E-009  0.2969260E+03  0.7561462E-02  0.1086787E+00
         -2   -1    0    0    0  501 -0.00000000000E+00  0.00000000000E+00  0.42336948746E+03  0.42336948746E+03  0.00000000000E+00 0.  1.
          2   -1    0    0  501    0  0.00000000000E+00 -0.00000000000E+00 -0.35816439868E+03  0.35816439868E+03  0.00000000000E+00 0. -1.
         25    2    1    2    0    0  0.12845107659E+03  0.25274687664E+03  0.27731127803E+03  0.41584719400E+03  0.12508669436E+03 0.  0.
          5    1    3    3  502    0  0.46872440179E+02  0.21244907833E+03  0.17836104185E+03  0.28135701552E+03  0.41800000000E+01 0.  1.
         -5    1    3    3    0  502  0.81578636407E+02  0.40297798303E+02  0.98950236182E+02  0.13449017848E+03  0.41800000000E+01 0.  1.
        -11    1    1    2    0    0 -0.43324234691E+02 -0.56056771577E+02 -0.10830238327E+02  0.71670391469E+02  0.00000000000E+00 0.  1.
         11    1    1    2    0    0 -0.85126841894E+02 -0.19669010506E+03 -0.20127595093E+03  0.29401630067E+03  0.00000000000E+00 0. -1.
</event>
<event>
 7    1  0.2728221E-009  0.1237369E+03  0.7561462E-02  0.1237057E+00
          1   -1    0    0  501    0  0.00000000000E+00  0.00000000000E+00  0.24106016125E+03  0.24106016125E+03  0.00000000000E+00 0. -1.
         -1   -1    0    0    0  501 -0.00000000000E+00 -0.00000000000E+00 -0.80917297168E+02  0.80917297168E+02  0.00000000000E+00 0.  1.
         25    2    1    2    0    0  0.85027844115E+02 -0.21274132880E+02  0.85908274585E+02  0.17524264752E+03  0.12508969128E+03 0.  0.
          5    1    3    3  502    0  0.31009283428E+02 -0.54822605753E+02 -0.59946077272E+01  0.63407424503E+02  0.41800000000E+01 0. -1.
         -5    1    3    3    0  502  0.54018560687E+02  0.33548472873E+02  0.91902882312E+02  0.11183522302E+03  0.41800000000E+01 0. -1.
        -11    1    1    2    0    0 -0.24304669660E+02 -0.31766708556E+02  0.46811232072E+02  0.61572170563E+02  0.00000000000E+00 0.  1.
         11    1    1    2    0    0 -0.60723174455E+02  0.53040841436E+02  0.27423357429E+02  0.85162640335E+02  0.00000000000E+00 0. -1.
</event>
<event>
 7    1  0.2728221E-009  0.9672896E+02  0.7561462E-02  0.1287329E+00
         -1   -1    0    0    0  501 -0.00000000000E+00  0.00000000000E+00  0.12516412687E+03  0.12516412687E+03  0.00000000000E+00 0.  1.
          1   -1    0    0  501    0  0.00000000000E+00 -0.00000000000E+00 -0.10611884131E+03  0.10611884131E+03  0.00000000000E+00 0. -1.
         25    2    1    2    0    0  0.75463444431E+01  0.37398120396E+01  0.50937097157E+02  0.13532392408E+03  0.12508814114E+03 0.  0.
          5    1    3    3  502    0  0.47280216970E+02 -0.25676498134E+02 -0.11899939866E+02  0.55261039096E+02  0.41800000000E+01 0.  1.
         -5    1    3    3    0  502 -0.39733872527E+02  0.29416310173E+02  0.62837037023E+02  0.80062884985E+02  0.41800000000E+01 0.  1.
        -11    1    1    2    0    0 -0.27516666551E+02 -0.39960361190E+02 -0.11585550944E+02  0.49882084912E+02  0.00000000000E+00 0. -1.
         11    1    1    2    0    0  0.19970322108E+02  0.36220549150E+02 -0.20306260660E+02  0.46076959186E+02  0.00000000000E+00 0.  1.
</event>
<event>
 7    1  0.2728221E-009  0.1482206E+03  0.7561462E-02  0.1202677E+00
          1   -1    0    0  501    0  0.00000000000E+00  0.00000000000E+00  0.14219865114E+03  0.14219865114E+03  0.00000000000E+00 0. -1.
         -1   -1    0    0    0  501 -0.00000000000E+00 -0.00000000000E+00 -0.16114915462E+03  0.16114915462E+03  0.00000000000E+00 0.  1.
         25    2    1    2    0    0  0.59159167140E+02 -0.87113986907E+02 -0.17326363723E+02  0.16442733696E+03  0.12508993759E+03 0.  0.
          5    1    3    3  502    0 -0.33973580757E+02 -0.55241551336E+02 -0.66555553442E+01  0.65326885739E+02  0.41800000000E+01 0.  1.
         -5    1    3    3    0  502  0.93132747897E+02 -0.31872435570E+02 -0.10670808379E+02  0.99100451217E+02  0.41800000000E+01 0.  1.
        -11    1    1    2    0    0 -0.36253198095E+02  0.10019496251E+03  0.15204786711E+02  0.10763136357E+03  0.00000000000E+00 0. -1.
         11    1    1    2    0    0 -0.22905969045E+02 -0.13080975604E+02 -0.16828926462E+02  0.31289105236E+02  0.00000000000E+00 0.  1.
</event>
<event>
 7    1  0.2728221E-009  0.1219682E+03  0.7561462E-02  0.1239885E+00
         -1   -1    0    0    0  501 -0.00000000000E+00  0.00000000000E+00  0.31300315951E+02  0.31300315951E+02  0.00000000000E+00 0.  1.
          1   -1    0    0  501    0  0.00000000000E+00 -0.00000000000E+00 -0.57819745253E+03  0.57819745253E+03  0.00000000000E+00 0. -1.
         25    2    1    2    0    0  0.29270331806E+02 -0.72578179744E+02 -0.29406155353E+03  0.32900458642E+03  0.12508987219E+03 0.  0.
          5    1    3    3  502    0 -0.36837352195E+02 -0.24800770533E+02 -0.19778715219E+03  0.20275428160E+03  0.41800000000E+01 0.  1.
         -5    1    3    3    0  502  0.66107684002E+02 -0.47777409211E+02 -0.96274401344E+02  0.12625030483E+03  0.41800000000E+01 0.  1.
        -11    1    1    2    0    0 -0.23721429466E+02  0.93268691133E+02 -0.22925333186E+03  0.24863395812E+03  0.00000000000E+00 0. -1.
         11    1    1    2    0    0 -0.55489023409E+01 -0.20690511389E+02 -0.23582251193E+02  0.31859223940E+02  0.00000000000E+00 0.  1.
</event>
<event>
 7    1  0.2728221E-009  0.9915322E+02  0.7561462E-02  0.1282087E+00
          1   -1    0    0  501    0  0.00000000000E+00  0.00000000000E+00  0.17784458656E+03  0.17784458656E+03  0.00000000000E+00 0. -1.
         -1   -1    0    0    0  501 -0.00000000000E+00 -0.00000000000E+00 -0.89238876245E+02  0.89238876245E+02  0.00000000000E+00 0.  1.
         25    2    1    2    0    0  0.85070453008E+01  0.35237822093E+02 -0.65193364769E+01  0.13040059049E+03  0.12509092024E+03 0.  0.
          5    1    3    3  502    0 -0.27660466831E+02 -0.20207867865E+02 -0.42653738968E+02  0.54865956629E+02  0.41800000000E+01 0.  1.
         -5    1    3    3    0  502  0.36167512132E+02  0.55445689958E+02  0.36134402491E+02  0.75534633858E+02  0.41800000000E+01 0.  1.
        -11    1    1    2    0    0 -0.23587140654E+02 -0.62228042196E+02  0.57201733664E+02  0.87753750768E+02  0.00000000000E+00 0.  1.
         11    1    1    2    0    0  0.15080095353E+02  0.26990220103E+02  0.37923313132E+02  0.48929121553E+02  0.00000000000E+00 0. -1.
</event>
<event>
 7    1  0.2728221E-009  0.9241682E+02  0.7561462E-02  0.1297102E+00
         -1   -1    0    0    0  501 -0.00000000000E+00  0.00000000000E+00  0.10033203457E+03  0.10033203457E+03  0.00000000000E+00 0.  1.
          1   -1    0    0  501    0  0.00000000000E+00 -0.00000000000E+00 -0.19089262427E+03  0.19089262427E+03  0.00000000000E+00 0. -1.
         25    2    1    2    0    0 -0.37714063720E+02  0.34846945332E+02  0.17695992172E+02  0.13637409823E+03  0.12509231122E+03 0.  0.
          5    1    3    3  502    0 -0.61994253295E+02  0.15002821940E+02 -0.36509522690E+02  0.73612429350E+02  0.41800000000E+01 0. -1.
         -5    1    3    3    0  502  0.24280189575E+02  0.19844123392E+02  0.54205514862E+02  0.62761668879E+02  0.41800000000E+01 0. -1.
        -11    1    1    2    0    0  0.11402086477E+02  0.23031411830E+02  0.38345448868E+01  0.25983788049E+02  0.00000000000E+00 0.  1.
         11    1    1    2    0    0  0.26311977243E+02 -0.57878357162E+02 -0.11209112675E+03  0.12886677256E+03  0.00000000000E+00 0. -1.
</event>
<event>
 7    1  0.2728221E-009  0.2154855E+03  0.7561462E-02  0.1137294E+00
          2   -1    0    0  501    0  0.00000000000E+00  0.00000000000E+00  0.64471151800E+03  0.64471151800E+03  0.00000000000E+00 0. -1.
         -2   -1    0    0    0  501 -0.00000000000E+00 -0.00000000000E+00 -0.83334709399E+02  0.83334709399E+02  0.00000000000E+00 0.  1.
         25    2    1    2    0    0  0.93136824781E+02  0.18064724224E+03  0.32342574108E+03  0.40194689592E+03  0.12509677408E+03 0.  0.
          5    1    3    3  502    0 -0.97309859970E+00  0.31101802716E+02 -0.21721389304E+01  0.31471568766E+02  0.41800000000E+01 0.  1.
         -5    1    3    3    0  502  0.94109923380E+02  0.14954543952E+03  0.32559788001E+03  0.37047532715E+03  0.41800000000E+01 0.  1.
        -11    1    1    2    0    0 -0.77151694662E+01 -0.11458706723E+03  0.11669233797E+03  0.16372788876E+03  0.00000000000E+00 0.  1.
         11    1    1    2    0    0 -0.85421655314E+02 -0.66060175006E+02  0.12125872955E+03  0.16237144272E+03  0.00000000000E+00 0. -1.
</event>
<event>
 7    1  0.2728221E-009  0.1943116E+03  0.7561462E-02  0.1154629E+00
         -1   -1    0    0    0  501 -0.00000000000E+00  0.00000000000E+00  0.35166613585E+03  0.35166613585E+03  0.00000000000E+00 0.  1.
          1   -1    0    0  501    0  0.00000000000E+00 -0.00000000000E+00 -0.11567807695E+03  0.11567807695E+03  0.00000000000E+00 0. -1.
         25    2    1    2    0    0  0.14960228751E+03  0.80860911324E+02  0.95548286308E+02  0.23172069370E+03  0.12508266652E+03 0.  0.
          5    1    3    3  502    0  0.19860116895E+02  0.74485714790E+02  0.57620881913E+02  0.96333713638E+02  0.41800000000E+01 0.  1.
         -5    1    3    3    0  502  0.12974217061E+03  0.63751965334E+01  0.37927404395E+02  0.13538698006E+03  0.41800000000E+01 0.  1.
        -11    1    1    2    0    0 -0.10436629268E+03 -0.21054639128E+02  0.11431364551E+03  0.15621533352E+03  0.00000000000E+00 0.  1.
         11    1    1    2    0    0 -0.45235994825E+02 -0.59806272196E+02  0.26126127085E+02  0.79408185587E+02  0.00000000000E+00 0. -1.
</event>
<event>
 7    1  0.2728221E-009  0.1526260E+03  0.7561462E-02  0.1197283E+00
          2   -1    0    0  501    0  0.00000000000E+00  0.00000000000E+00  0.12924228290E+03  0.12924228290E+03  0.00000000000E+00 0. -1.
         -2   -1    0    0    0  501 -0.00000000000E+00 -0.00000000000E+00 -0.22561145677E+03  0.22561145677E+03  0.00000000000E+00 0.  1.
         25    2    1    2    0    0 -0.11920620393E+03  0.45912405574E+02 -0.16212777243E+02  0.17952179297E+03  0.12508857647E+03 0.  0.
          5    1    3    3  502    0 -0.35915291994E+02  0.57360208456E+02  0.39599781560E+02  0.78522078505E+02  0.41800000000E+01 0.  1.
         -5    1    3    3    0  502 -0.83290911932E+02 -0.11447802882E+02 -0.55812558803E+02  0.10099971446E+03  0.41800000000E+01 0.  1.
        -11    1    1    2    0    0  0.59655925930E+02  0.21416021250E+02 -0.17471346184E+02  0.65747421259E+02  0.00000000000E+00 0. -1.
         11    1    1    2    0    0  0.59550277996E+02 -0.67328426824E+02 -0.62685050445E+02  0.10958452545E+03  0.00000000000E+00 0.  1.
</event>
<event>
 7    1  0.2728221E-009  0.1744106E+03  0.7561462E-02  0.1173325E+00
          1   -1    0    0  501    0  0.00000000000E+00  0.00000000000E+00  0.70410385480E+03  0.70410385480E+03  0.00000000000E+00 0. -1.
         -1   -1    0    0    0  501 -0.00000000000E+00 -0.00000000000E+00 -0.48688590453E+02  0.48688590453E+02  0.00000000000E+00 0.  1.
         25    2    1    2    0    0 -0.10387205422E+03 -0.10161260388E+03  0.42745917645E+03  0.46849082195E+03  0.12509107805E+03 0.  0.
          5    1    3    3  502    0 -0.11192631436E+03 -0.25350012180E+02  0.26341631218E+03  0.28735996396E+03  0.41800000000E+01 0. -1.
         -5    1    3    3    0  502  0.80542601398E+01 -0.76262591705E+02  0.16404286427E+03  0.18113085800E+03  0.41800000000E+01 0. -1.
        -11    1    1    2    0    0  0.38092611552E+02  0.24296831450E+01  0.16352268332E+02  0.41525258514E+02  0.00000000000E+00 0.  1.
         11    1    1    2    0    0  0.65779442670E+02  0.99182920740E+02  0.21160381957E+03  0.24277636479E+03  0.00000000000E+00 0. -1.
</event>
<event>
 7    1  0.2728221E-009  0.1345607E+03  0.7561462E-02  0.1220841E+00
          3   -1    0    0  501    0  0.00000000000E+00  0.00000000000E+00  0.56651978786E+02  0.56651978786E+02  0.00000000000E+00 0. -1.
         -3   -1    0    0    0  501 -0.00000000000E+00 -0.00000000000E+00 -0.52464645260E+03  0.52464645260E+03  0.00000000000E+00 0.  1.
         25    2    1    2    0    0 -0.11988891884E+03 -0.28655115602E+02 -0.33124032729E+03  0.37491683849E+03  0.12509201753E+03 0.  0.
          5    1    3    3  502    0 -0.28818110688E+02 -0.29363487447E+02 -0.12215461788E+02  0.43120619260E+02  0.41800000000E+01 0.  1.
         -5    1    3    3    0  502 -0.91070808156E+02  0.70837184470E+00 -0.31902486550E+03  0.33179621923E+03  0.41800000000E+01 0.  1.
        -11    1    1    2    0    0  0.10756751248E+03  0.44599752852E+02 -0.14379870373E+03  0.18503506395E+03  0.00000000000E+00 0.  1.
         11    1    1    2    0    0  0.12321406365E+02 -0.15944637250E+02  0.70445572053E+01  0.21346528946E+02  0.00000000000E+00 0. -1.
</event>
<event>
 7    1  0.2728221E-009  0.1241307E+03  0.7561462E-02  0.1236434E+00
          1   -1    0    0  501    0  0.00000000000E+00  0.00000000000E+00  0.18518067818E+03  0.18518067818E+03  0.00000000000E+00 0. -1.
         -1   -1    0    0    0  501 -0.00000000000E+00 -0.00000000000E+00 -0.11148868941E+03  0.11148868941E+03  0.00000000000E+00 0.  1.
         25    2    1    2    0    0 -0.92890352614E+02 -0.10254500351E+02  0.35320396024E+02  0.16008992499E+03  0.12508989297E+03 0.  0.
          5    1    3    3  502    0 -0.11141009365E+03  0.10265639113E+02 -0.37796673917E+01  0.11202388406E+03  0.41800000000E+01 0. -1.
         -5    1    3    3    0  502  0.18519741040E+02 -0.20520139464E+02  0.39100063416E+02  0.48066040933E+02  0.41800000000E+01 0. -1.
        -11    1    1    2    0    0 -0.99103492682E+00  0.14340898565E+02 -0.20982162507E+02  0.25434124033E+02  0.00000000000E+00 0.  1.
         11    1    1    2    0    0  0.93881387541E+02 -0.40863982137E+01  0.59353755250E+02  0.11114531857E+03  0.00000000000E+00 0. -1.
</event>
<event>
 7    1  0.2728221E-009  0.1052719E+03  0.7561462E-02  0.1269585E+00
         -1   -1    0    0    0  501 -0.00000000000E+00  0.00000000000E+00  0.11295041659E+03  0.11295041659E+03  0.00000000000E+00 0.  1.
          1   -1    0    0  501    0  0.00000000000E+00 -0.00000000000E+00 -0.22877072224E+03  0.22877072224E+03  0.00000000000E+00 0. -1.
         25    2    1    2    0    0  0.82120911038E+02  0.38205552986E+02  0.19992830203E+02  0.15572734413E+03  0.12509110337E+03 0.  0.
          5    1    3    3  502    0  0.39489092693E+02  0.52236647944E+02  0.64764530534E+02  0.92195296222E+02  0.41800000000E+01 0.  1.
         -5    1    3    3    0  502  0.42631818345E+02 -0.14031094958E+02 -0.44771700331E+02  0.63532047910E+02  0.41800000000E+01 0.  1.
        -11    1    1    2    0    0 -0.67789119655E+02 -0.10416789382E+02 -0.13856140962E+03  0.15460639858E+03  0.00000000000E+00 0. -1.
         11    1    1    2    0    0 -0.14331791382E+02 -0.27788763604E+02  0.27482737679E+01  0.31387396126E+02  0.00000000000E+00 0.  1.
</event>
<event>
 7    1  0.2728221E-009  0.1095240E+03  0.7561462E-02  0.1261454E+00
          2   -1    0    0  501    0  0.00000000000E+00  0.00000000000E+00  0.21382324217E+03  0.21382324217E+03  0.00000000000E+00 0. -1.
         -2   -1    0    0    0  501 -0.00000000000E+00 -0.00000000000E+00 -0.74961262432E+02  0.74961262432E+02  0.00000000000E+00 0.  1.
         25    2    1    2    0    0 -0.17558387877E+02  0.14195206302E+02  0.14357534643E+03  0.19175998606E+03  0.12509281068E+03 0.  0.
          5    1    3    3  502    0 -0.69562768015E+02  0.21577628653E+02  0.68743986476E+02  0.10023861945E+03  0.41800000000E+01 0. -1.
         -5    1    3    3    0  502  0.52004380138E+02 -0.73824223505E+01  0.74831359956E+02  0.91521366610E+02  0.41800000000E+01 0. -1.
        -11    1    1    2    0    0 -0.36460763968E+01  0.37422877182E+02 -0.14630903778E+02  0.40346362352E+02  0.00000000000E+00 0.  1.
         11    1    1    2    0    0  0.21204464274E+02 -0.51618083484E+02  0.99175370851E+01  0.56678156194E+02  0.00000000000E+00 0. -1.
</event>
<event>
 7    1  0.2728221E-009  0.1084375E+03  0.7561462E-02  0.1263491E+00
         -1   -1    0    0    0  501 -0.00000000000E+00  0.00000000000E+00  0.72487417243E+03  0.72487417243E+03  0.00000000000E+00 0.  1.
          1   -1    0    0  501    0  0.00000000000E+00 -0.00000000000E+00 -0.20223704394E+02  0.20223704394E+02  0.00000000000E+00 0. -1.
         25    2    1    2    0    0 -0.40152394694E+02  0.15949550922E+02  0.29448968566E+03  0.32285401492E+03  0.12507572514E+03 0.  0.
          5    1    3    3  502    0 -0.53596893839E+01 -0.46887628602E+02  0.54025018769E+02  0.71856461360E+02  0.41800000000E+01 0. -1.
         -5    1    3    3    0  502 -0.34792705310E+02  0.62837179523E+02  0.24046466689E+03  0.25099755356E+03  0.41800000000E+01 0. -1.
        -11    1    1    2    0    0 -0.11228289498E+02 -0.39473645540E+02  0.22273865028E+03  0.22648785730E+03  0.00000000000E+00 0.  1.
         11    1    1    2    0    0  0.51380684192E+02  0.23524094619E+02  0.18742213209E+03  0.19575600459E+03  0.00000000000E+00 0. -1.
</event>
<event>
 7    1  0.2728221E-009  0.1100485E+03  0.7561462E-02  0.1260480E+00
          2   -1    0    0  501    0  0.00000000000E+00  0.00000000000E+00  0.55896543626E+02  0.55896543626E+02  0.00000000000E+00 0.  1.
         -2   -1    0    0    0  501 -0.00000000000E+00 -0.00000000000E+00 -0.25281005015E+03  0.25281005015E+03  0.00000000000E+00 0. -1.
         25    2    1    2    0    0  0.20189639120E+02 -0.39329047284E+02 -0.84241903259E+02  0.15715785913E+03  0.12508996336E+03 0.  0.
          5    1    3    3  502    0 -0.37389981666E+02  0.19682823238E+02 -0.50478992586E+01  0.42759536322E+02  0.41800000000E+01 0.  1.
         -5    1    3    3    0  502  0.57579620786E+02 -0.59011870522E+02 -0.79194004000E+02  0.11439832281E+03  0.41800000000E+01 0.  1.
        -11    1    1    2    0    0 -0.37769438206E+02 -0.12948661798E+02 -0.22455805738E+02  0.45808967638E+02  0.00000000000E+00 0.  1.
         11    1    1    2    0    0  0.17579799086E+02  0.52277709083E+02 -0.90215797532E+02  0.10573976701E+03  0.00000000000E+00 0. -1.
</event>
<event>
 7    1  0.2728221E-009  0.9170030E+02  0.7561462E-02  0.1298786E+00
          1   -1    0    0  501    0  0.00000000000E+00  0.00000000000E+00  0.79238375361E+03  0.79238375361E+03  0.00000000000E+00 0. -1.
         -1   -1    0    0    0  501 -0.00000000000E+00 -0.00000000000E+00 -0.15909538984E+02  0.15909538984E+02  0.00000000000E+00 0.  1.
         25    2    1    2    0    0  0.27348898561E+02  0.12322844959E+02  0.42911182982E+03  0.44797661579E+03  0.12508505524E+03 0.  0.
          5    1    3    3  502    0  0.61689599977E+02  0.27661580702E+02  0.13103563900E+03  0.14750790108E+03  0.41800000000E+01 0. -1.
         -5    1    3    3    0  502 -0.34340701416E+02 -0.15338735743E+02  0.29807619082E+03  0.30046871471E+03  0.41800000000E+01 0. -1.
        -11    1    1    2    0    0 -0.51957629211E+02 -0.52806170597E+01  0.31375433950E+03  0.31807116453E+03  0.00000000000E+00 0. -1.
         11    1    1    2    0    0  0.24608730650E+02 -0.70422278992E+01  0.33608045308E+02  0.42245512275E+02  0.00000000000E+00 0.  1.
</event>
<event>
 7    1  0.2728221E-009  0.1195580E+03  0.7561462E-02  0.1243828E+00
          1   -1    0    0  501    0  0.00000000000E+00  0.00000000000E+00  0.27966974961E+04  0.27966974961E+04  0.00000000000E+00 0. -1.
         -1   -1    0    0    0  501 -0.00000000000E+00 -0.00000000000E+00 -0.13903124444E+02  0.13903124444E+02  0.00000000000E+00 0.  1.
         25    2    1    2    0    0  0.43001835697E+02 -0.94773618966E+02  0.23482125334E+04  0.23538441529E+04  0.12509595335E+03 0.  0.
          5    1    3    3  502    0  0.32701999362E+02 -0.74716913988E+02  0.60570916563E+03  0.61118990807E+03  0.41800000000E+01 0.  1.
         -5    1    3    3    0  502  0.10299836335E+02 -0.20056704979E+02  0.17425033678E+04  0.17426542448E+04  0.41800000000E+01 0.  1.
        -11    1    1    2    0    0  0.10430971322E+02  0.77738615808E+02  0.31588736387E+03  0.32547952962E+03  0.00000000000E+00 0. -1.
         11    1    1    2    0    0 -0.53432807019E+02  0.17035003158E+02  0.11869447438E+03  0.13127693799E+03  0.00000000000E+00 0.  1.
</event>
<event>
 7    1  0.2728221E-009  0.1134700E+03  0.7561462E-02  0.1254276E+00
         -2   -1    0    0    0  501 -0.00000000000E+00  0.00000000000E+00  0.19381838566E+02  0.19381838566E+02  0.00000000000E+00 0. -1.
          2   -1    0    0  501    0  0.00000000000E+00 -0.00000000000E+00 -0.92787859614E+03  0.92787859614E+03  0.00000000000E+00 0.  1.
         25    2    1    2    0    0  0.61444139523E+02  0.19215212711E+02 -0.65054772611E+03  0.66558611492E+03  0.12509166939E+03 0.  0.
          5    1    3    3  502    0  0.18249314625E+02  0.64938995072E+02 -0.21149476026E+03  0.22203066586E+03  0.41800000000E+01 0.  1.
         -5    1    3    3    0  502  0.43194824898E+02 -0.45723782362E+02 -0.43905296584E+03  0.44355544905E+03  0.41800000000E+01 0.  1.
        -11    1    1    2    0    0 -0.36460830124E+02 -0.46651977399E+02 -0.77936200112E+02  0.97876710287E+02  0.00000000000E+00 0. -1.
         11    1    1    2    0    0 -0.24983309398E+02  0.27436764688E+02 -0.18001283136E+03  0.18379760950E+03  0.00000000000E+00 0.  1.
</event>
<event>
 7    1  0.2728221E-009  0.1279872E+03  0.7561462E-02  0.1230473E+00
          1   -1    0    0  501    0  0.00000000000E+00  0.00000000000E+00  0.10902553339E+04  0.10902553339E+04  0.00000000000E+00 0. -1.
         -1   -1    0    0    0  501 -0.00000000000E+00 -0.00000000000E+00 -0.25236045554E+02  0.25236045554E+02  0.00000000000E+00 0.  1.
         25    2    1    2    0    0  0.12521775845E+03  0.12749338820E+02  0.54992848579E+03  0.57785131285E+03  0.12509503432E+03 0.  0.
          5    1    3    3  502    0  0.21459981098E+02 -0.86450861725E+01  0.35647617214E+03  0.35725061512E+03  0.41800000000E+01 0. -1.
         -5    1    3    3    0  502  0.10375777735E+03  0.21394424992E+02  0.19345231365E+03  0.22060069773E+03  0.41800000000E+01 0. -1.
        -11    1    1    2    0    0 -0.22965912884E+02 -0.70783464456E+01  0.17779468282E+02  0.29893906325E+02  0.00000000000E+00 0.  1.
         11    1    1    2    0    0 -0.10225184557E+03 -0.56709923742E+01  0.49731133428E+03  0.50774616028E+03  0.00000000000E+00 0. -1.
</event>
<event>
 7    1  0.2728221E-009  0.1278931E+03  0.7561462E-02  0.1230616E+00
         -2   -1    0    0    0  501 -0.00000000000E+00  0.00000000000E+00  0.36830713584E+02  0.36830713584E+02  0.00000000000E+00 0.  1.
          2   -1    0    0  501    0  0.00000000000E+00 -0.00000000000E+00 -0.83637973203E+03  0.83637973203E+03  0.00000000000E+00 0. -1.
         25    2    1    2    0    0 -0.94314125288E+02  0.17047179878E+02 -0.66585257463E+03  0.68424669826E+03  0.12509249526E+03 0.  0.
          5    1    3    3  502    0 -0.50487691865E+02  0.67384444458E+02 -0.27225895003E+03  0.28501241842E+03  0.41800000000E+01 0. -1.
         -5    1    3    3    0  502 -0.43826433423E+02 -0.50337264580E+02 -0.39359362460E+03  0.39923427984E+03  0.41800000000E+01 0. -1.
        -11    1    1    2    0    0  0.47054857849E+02 -0.29751892298E+02 -0.12814126350E+03  0.13971226916E+03  0.00000000000E+00 0. -1.
         11    1    1    2    0    0  0.47259267439E+02  0.12704712420E+02 -0.55551803257E+01  0.49251478201E+02  0.00000000000E+00 0.  1.
</event>
<event>
 7    1  0.2728221E-009  0.1074436E+03  0.7561462E-02  0.1265379E+00
          2   -1    0    0  501    0  0.00000000000E+00  0.00000000000E+00  0.22346202519E+04  0.22346202519E+04  0.00000000000E+00 0. -1.
         -2   -1    0    0    0  501 -0.00000000000E+00 -0.00000000000E+00 -0.84133747841E+01  0.84133747841E+01  0.00000000000E+00 0.  1.
         25    2    1    2    0    0 -0.38543503279E+02  0.20828114068E+02  0.17410325747E+04  0.17460704692E+04  0.12509294726E+03 0.  0.
          5    1    3    3  502    0 -0.10348853043E+02  0.58786939807E+02  0.42605256242E+03  0.43023396123E+03  0.41800000000E+01 0.  1.
         -5    1    3    3    0  502 -0.28194650236E+02 -0.37958825740E+02  0.13149800123E+04  0.13158365080E+04  0.41800000000E+01 0.  1.
        -11    1    1    2    0    0  0.15271179840E+02 -0.60057338878E+02  0.28431142951E+03  0.29098639459E+03  0.00000000000E+00 0.  1.
         11    1    1    2    0    0  0.23272323439E+02  0.39229224810E+02  0.20086287289E+03  0.20597676283E+03  0.00000000000E+00 0. -1.
</event>
<event>
 7    1  0.3444334E-009  0.9467625E+02  0.7561462E-02  0.1291907E+00
          1   -1    0    0  501    0  0.00000000000E+00  0.00000000000E+00  0.31081273300E+03  0.31081273300E+03  0.00000000000E+00 0. -1.
         -1   -1    0    0    0  501 -0.00000000000E+00 -0.00000000000E+00 -0.49951575342E+02  0.49951575342E+02  0.00000000000E+00 0.  1.
         25    2    1    2    0    0 -0.46130973747E+02  0.37652288230E+02  0.16307535632E+03  0.21397676501E+03  0.12508686014E+03 0.  0.
          5    1    3    3  502    0 -0.45598186985E+02 -0.34260940299E+02  0.11172688959E+03  0.12551245732E+03  0.41800000000E+01 0.  1.
         -5    1    3    3    0  502 -0.53278676211E+00  0.71913228529E+02  0.51348466734E+02  0.88464307690E+02  0.41800000000E+01 0.  1.
        -11    1    1    2    0    0  0.26024295792E+02 -0.15857543609E+02 -0.12236087585E+02  0.32839724423E+02  0.00000000000E+00 0.  1.
         11    1    1    2    0    0  0.20106677955E+02 -0.21794744620E+02  0.11002188892E+03  0.11394781891E+03  0.00000000000E+00 0. -1.
</event>
<event>
 7    1  0.2728221E-009  0.1079591E+03  0.7561462E-02  0.1264397E+00
          1   -1    0    0  501    0  0.00000000000E+00  0.00000000000E+00  0.48213815105E+03  0.48213815105E+03  0.00000000000E+00 0. -1.
         -1   -1    0    0    0  501 -0.00000000000E+00 -0.00000000000E+00 -0.41425391573E+02  0.41425391573E+02  0.00000000000E+00 0.  1.
         25    2    1    2    0    0 -0.80538899857E+02  0.83357839991E+01  0.31154780174E+03  0.34535019629E+03  0.12509486648E+03 0.  0.
          5    1    3    3  502    0 -0.58571863223E+02 -0.33597088846E+02  0.28059689194E+03  0.28863734288E+03  0.41800000000E+01 0. -1.
         -5    1    3    3    0  502 -0.21967036634E+02  0.41932872845E+02  0.30950909803E+02  0.56712853403E+02  0.41800000000E+01 0. -1.
        -11    1    1    2    0    0 -0.48683239755E+00  0.16104137650E+02  0.77283848449E+02  0.78945382932E+02  0.00000000000E+00 0. -1.
         11    1    1    2    0    0  0.81025732255E+02 -0.24439921649E+02  0.51881109282E+02  0.99267963402E+02  0.00000000000E+00 0.  1.
</event>
<event>
 7    1  0.2728221E-009  0.9630686E+02  0.7561462E-02  0.1288260E+00
         -1   -1    0    0    0  501 -0.00000000000E+00  0.00000000000E+00  0.13991290813E+02  0.13991290813E+02  0.00000000000E+00 0.  1.
          1   -1    0    0  501    0  0.00000000000E+00 -0.00000000000E+00 -0.10339506842E+04  0.10339506842E+04  0.00000000000E+00 0. -1.
         25    2    1    2    0    0 -0.78989334290E+01 -0.25172532521E+02 -0.77413433221E+03  0.78462179354E+03  0.12510533579E+03 0.  0.
          5    1    3    3  502    0  0.32273601877E+02 -0.43695094681E+02 -0.65840601172E+03  0.66065633679E+03  0.41800000000E+01 0. -1.
         -5    1    3    3    0  502 -0.40172535307E+02  0.18522562160E+02 -0.11572832050E+03  0.12396545675E+03  0.41800000000E+01 0. -1.
        -11    1    1    2    0    0  0.43983731661E+02 -0.79723574415E+01 -0.13314666167E+03  0.14044985101E+03  0.00000000000E+00 0. -1.
         11    1    1    2    0    0 -0.36084798232E+02  0.33144889963E+02 -0.11267839949E+03  0.12287033046E+03  0.00000000000E+00 0.  1.
</event>
<event>
 7    1  0.2728221E-009  0.1190306E+03  0.7561462E-02  0.1244705E+00
         -2   -1    0    0    0  501 -0.00000000000E+00  0.00000000000E+00  0.16875463722E+02  0.16875463722E+02  0.00000000000E+00 0.  1.
          2   -1    0    0  501    0  0.00000000000E+00 -0.00000000000E+00 -0.16343060113E+04  0.16343060113E+04  0.00000000000E+00 0. -1.
         25    2    1    2    0    0  0.93198224595E+02  0.45327458814E+02 -0.12138298652E+04  0.12246501689E+04  0.12507840296E+03 0.  0.
          5    1    3    3  502    0  0.42438109038E+02  0.61929997304E+02 -0.30099215744E+03  0.31024195220E+03  0.41800000000E+01 0.  1.
         -5    1    3    3    0  502  0.50760115557E+02 -0.16602538490E+02 -0.91283770776E+03  0.91440821667E+03  0.41800000000E+01 0.  1.
        -11    1    1    2    0    0 -0.43258636889E+02 -0.21984164682E+01 -0.47153963223E+02  0.64028422971E+02  0.00000000000E+00 0.  1.
         11    1    1    2    0    0 -0.49939587706E+02 -0.43129042346E+02 -0.35644671917E+03  0.36250288319E+03  0.00000000000E+00 0. -1.
</event>
<event>
 7    1  0.2728221E-009  0.1563207E+03  0.7561462E-02  0.1192914E+00
         -2   -1    0    0    0  501 -0.00000000000E+00  0.00000000000E+00  0.12199111116E+03  0.12199111116E+03  0.00000000000E+00 0.  1.
          2   -1    0    0  501    0  0.00000000000E+00 -0.00000000000E+00 -0.26363231551E+03  0.26363231551E+03  0.00000000000E+00 0. -1.
         25    2    1    2    0    0  0.72607305054E+00 -0.13483223680E+03 -0.12152812376E+03  0.22044480608E+03  0.12508624385E+03 0.  0.
          5    1    3    3  502    0 -0.55595892292E+00  0.10647149425E+02  0.16349616016E+02  0.19961293172E+02  0.41800000000E+01 0.  1.
         -5    1    3    3    0  502  0.12820319735E+01 -0.14547938622E+03 -0.13787773977E+03  0.20048351290E+03  0.41800000000E+01 0.  1.
        -11    1    1    2    0    0 -0.28434951292E+02  0.14034900717E+02 -0.26143330501E+02  0.41097428420E+02  0.00000000000E+00 0.  1.
         11    1    1    2    0    0  0.27708878242E+02  0.12079733608E+03  0.60302499165E+01  0.12408119217E+03  0.00000000000E+00 0. -1.
</event>
<event>
 7    1  0.2728221E-009  0.1311555E+03  0.7561462E-02  0.1225751E+00
          3   -1    0    0  501    0  0.00000000000E+00  0.00000000000E+00  0.44993538375E+02  0.44993538375E+02  0.00000000000E+00 0. -1.
         -3   -1    0    0    0  501 -0.00000000000E+00 -0.00000000000E+00 -0.51182862268E+03  0.51182862268E+03  0.00000000000E+00 0.  1.
         25    2    1    2    0    0 -0.38686566919E+02  0.95031083938E+02 -0.30056413331E+03  0.34134155838E+03  0.12509078251E+03 0.  0.
          5    1    3    3  502    0 -0.39912796086E+01  0.11782607042E+03 -0.19603157319E+03  0.22878977964E+03  0.41800000000E+01 0.  1.
         -5    1    3    3    0  502 -0.34695287311E+02 -0.22794986482E+02 -0.10453256012E+03  0.11255177873E+03  0.41800000000E+01 0.  1.
        -11    1    1    2    0    0  0.16115779506E+02 -0.37243092517E+02 -0.14392971299E+03  0.14954105981E+03  0.00000000000E+00 0.  1.
         11    1    1    2    0    0  0.22570787414E+02 -0.57787991421E+02 -0.22341238003E+02  0.65939542859E+02  0.00000000000E+00 0. -1.
</event>
<event>
 7    1  0.2728221E-009  0.1283488E+03  0.7561462E-02  0.1229927E+00
         -2   -1    0    0    0  501 -0.00000000000E+00  0.00000000000E+00  0.11507272227E+03  0.11507272227E+03  0.00000000000E+00 0.  1.
          2   -1    0    0  501    0  0.00000000000E+00 -0.00000000000E+00 -0.22246747502E+03  0.22246747502E+03  0.00000000000E+00 0. -1.
         25    2    1    2    0    0  0.99120901160E+02 -0.54222581960E+02 -0.63172054272E+02  0.17999815507E+03  0.12507432169E+03 0.  0.
          5    1    3    3  502    0  0.43861248123E+02 -0.50386519499E+02  0.28548313476E+02  0.72767362439E+02  0.41800000000E+01 0. -1.
         -5    1    3    3    0  502  0.55259653037E+02 -0.38360624614E+01 -0.91720367748E+02  0.10723079263E+03  0.41800000000E+01 0. -1.
        -11    1    1    2    0    0 -0.93861229599E+02  0.70318862004E+02 -0.79955654341E+01  0.11755254928E+03  0.00000000000E+00 0.  1.
         11    1    1    2    0    0 -0.52596715607E+01 -0.16096280044E+02 -0.36227133048E+02  0.39989492933E+02  0.00000000000E+00 0. -1.
</event>
<event>
 7    1  0.2728221E-009  0.2068742E+03  0.7561462E-02  0.1144065E+00
         -3   -1    0    0    0  501 -0.00000000000E+00  0.00000000000E+00  0.74228314209E+03  0.74228314209E+03  0.00000000000E+00 0.  1.
          3   -1    0    0  501    0  0.00000000000E+00 -0.00000000000E+00 -0.71604856951E+02  0.71604856951E+02  0.00000000000E+00 0. -1.
         25    2    1    2    0    0  0.15649291761E+03  0.10993318552E+03  0.22870491386E+03  0.32330992558E+03  0.12509209334E+03 0.  0.
          5    1    3    3  502    0  0.13136342925E+03  0.31039195712E+02  0.18655839429E+03  0.23030694539E+03  0.41800000000E+01 0.  1.
         -5    1    3    3    0  502  0.25129488357E+02  0.78893989804E+02  0.42146519575E+02  0.93002980192E+02  0.41800000000E+01 0.  1.
        -11    1    1    2    0    0 -0.38263138965E+02 -0.67079661030E+01  0.18838561693E+03  0.19234917540E+03  0.00000000000E+00 0.  1.
         11    1    1    2    0    0 -0.11822977865E+03 -0.10322521941E+03  0.25358775435E+03  0.29822889806E+03  0.00000000000E+00 0. -1.
</event>
<event>
 7    1  0.2728221E-009  0.1144166E+03  0.7561462E-02  0.1252603E+00
          2   -1    0    0  501    0  0.00000000000E+00  0.00000000000E+00  0.60245243109E+03  0.60245243109E+03  0.00000000000E+00 0. -1.
         -2   -1    0    0    0  501 -0.00000000000E+00 -0.00000000000E+00 -0.23648244137E+02  0.23648244137E+02  0.00000000000E+00 0.  1.
         25    2    1    2    0    0 -0.41251637138E+02  0.18895333677E+02  0.27398797615E+03  0.30458947137E+03  0.12508638531E+03 0.  0.
          5    1    3    3  502    0  0.42055743165E+02  0.15611478099E+02  0.13650599370E+03  0.14374895651E+03  0.41800000000E+01 0.  1.
         -5    1    3    3    0  502 -0.83307380303E+02  0.32838555784E+01  0.13748198246E+03  0.16084051486E+03  0.41800000000E+01 0.  1.
        -11    1    1    2    0    0  0.58712800187E+02 -0.41383016737E+02  0.18746678373E+03  0.20075742074E+03  0.00000000000E+00 0.  1.
         11    1    1    2    0    0 -0.17461163049E+02  0.22487683060E+02  0.11734942707E+03  0.12075378312E+03  0.00000000000E+00 0. -1.
</event>
<event>
 7    1  0.2728221E-009  0.1146912E+03  0.7561462E-02  0.1252121E+00
          3   -1    0    0  501    0  0.00000000000E+00  0.00000000000E+00  0.31915594007E+03  0.31915594007E+03  0.00000000000E+00 0. -1.
         -3   -1    0    0    0  501 -0.00000000000E+00 -0.00000000000E+00 -0.49309687413E+02  0.49309687413E+02  0.00000000000E+00 0.  1.
         25    2    1    2    0    0 -0.40049410761E+02  0.32525829810E+02  0.18472479484E+03  0.22897957174E+03  0.12508600856E+03 0.  0.
          5    1    3    3  502    0  0.33750619510E+01 -0.45048058011E+02  0.75551927870E+02  0.88126527099E+02  0.41800000000E+01 0.  1.
         -5    1    3    3    0  502 -0.43424472712E+02  0.77573887821E+02  0.10917286697E+03  0.14085304464E+03  0.41800000000E+01 0.  1.
        -11    1    1    2    0    0 -0.30986672877E+01 -0.48801777017E+02  0.78877479269E+01  0.49532128425E+02  0.00000000000E+00 0.  1.
         11    1    1    2    0    0  0.43148078048E+02  0.16275947208E+02  0.77233709890E+02  0.89953927319E+02  0.00000000000E+00 0. -1.
</event>
<event>
 7    1  0.2728221E-009  0.1256008E+03  0.7561462E-02  0.1234133E+00
          2   -1    0    0  501    0  0.00000000000E+00  0.00000000000E+00  0.35878950512E+02  0.35878950512E+02  0.00000000000E+00 0. -1.
         -2   -1    0    0    0  501 -0.00000000000E+00 -0.00000000000E+00 -0.57751683127E+03  0.57751683127E+03  0.00000000000E+00 0.  1.
         25    2    1    2    0    0 -0.79996539156E+02 -0.11343297912E+02 -0.29726234680E+03  0.33247483225E+03  0.12508594872E+03 0.  0.
          5    1    3    3  502    0  0.32053703464E+02  0.16579448993E+01 -0.39415703441E+02  0.51002536847E+02  0.41800000000E+01 0. -1.
         -5    1    3    3    0  502 -0.11205024262E+03 -0.13001242811E+02 -0.25784664336E+03  0.28147229540E+03  0.41800000000E+01 0. -1.
        -11    1    1    2    0    0  0.30987652769E+02 -0.29026982826E+02 -0.19746030822E+03  0.20197369551E+03  0.00000000000E+00 0.  1.
         11    1    1    2    0    0  0.49008886386E+02  0.40370280738E+02 -0.46915225735E+02  0.78947254021E+02  0.00000000000E+00 0. -1.
</event>
<event>
 7    1  0.2728221E-009  0.2164787E+03  0.7561462E-02  0.1136536E+00
         -1   -1    0    0    0  501 -0.00000000000E+00  0.00000000000E+00  0.31147934495E+03  0.31147934495E+03  0.00000000000E+00 0.  1.
          1   -1    0    0  501    0  0.00000000000E+00 -0.00000000000E+00 -0.20228584120E+03  0.20228584120E+03  0.00000000000E+00 0. -1.
         25    2    1    2    0    0  0.77133422641E+02 -0.20164739190E+03  0.13402339655E+03  0.28323306017E+03  0.12508980773E+03 0.  0.
          5    1    3    3  502    0  0.21515779546E+02 -0.75060237892E+02 -0.15305889724E+02  0.79678797319E+02  0.41800000000E+01 0. -1.
         -5    1    3    3    0  502  0.55617643095E+02 -0.12658715401E+03  0.14932928628E+03  0.20355426285E+03  0.41800000000E+01 0. -1.
        -11    1    1    2    0    0 -0.67247895851E+02  0.15865374543E+03  0.12460736222E+02  0.17276735913E+03  0.00000000000E+00 0.  1.
         11    1    1    2    0    0 -0.98855267893E+01  0.42993646471E+02 -0.37290629016E+02  0.57764766850E+02  0.00000000000E+00 0. -1.
</event>
<event>
 7    1  0.2728221E-009  0.1367730E+03  0.7561462E-02  0.1217738E+00
          1   -1    0    0  501    0  0.00000000000E+00  0.00000000000E+00  0.24009754875E+03  0.24009754875E+03  0.00000000000E+00 0. -1.
         -1   -1    0    0    0  501 -0.00000000000E+00 -0.00000000000E+00 -0.86259951022E+02  0.86259951022E+02  0.00000000000E+00 0.  1.
         25    2    1    2    0    0 -0.14785633411E+02  0.87364469907E+02  0.45936514345E+02  0.16000748314E+03  0.12506424650E+03 0.  0.
          5    1    3    3  502    0  0.52465573127E+02  0.58372791656E+02  0.13270766500E+02  0.79709502650E+02  0.41800000000E+01 0.  1.
         -5    1    3    3    0  502 -0.67251206538E+02  0.28991678251E+02  0.32665747845E+02  0.80297980491E+02  0.41800000000E+01 0.  1.
        -11    1    1    2    0    0  0.36631614731E+02 -0.92209124375E+02  0.10381469457E+03  0.14360323333E+03  0.00000000000E+00 0. -1.
         11    1    1    2    0    0 -0.21845981320E+02  0.48446544676E+01  0.40863888137E+01  0.22746783295E+02  0.00000000000E+00 0.  1.
</event>
<event>
 7    1  0.2728221E-009  0.1089431E+03  0.7561462E-02  0.1262540E+00
         -1   -1    0    0    0  501 -0.00000000000E+00  0.00000000000E+00  0.57286098664E+03  0.57286098664E+03  0.00000000000E+00 0.  1.
          1   -1    0    0  501    0  0.00000000000E+00 -0.00000000000E+00 -0.25831112931E+02  0.25831112931E+02  0.00000000000E+00 0. -1.
         25    2    1    2    0    0 -0.51984886278E+02 -0.20649656697E+02  0.26823370706E+03  0.30120677324E+03  0.12508941570E+03 0.  0.
          5    1    3    3  502    0  0.11777000763E+02  0.30415869834E+02  0.17050645570E+02  0.37040785617E+02  0.41800000000E+01 0. -1.
         -5    1    3    3    0  502 -0.63761887041E+02 -0.51065526531E+02  0.25118306149E+03  0.26416598763E+03  0.41800000000E+01 0. -1.
        -11    1    1    2    0    0  0.20547725412E+01  0.46798235691E+02  0.14223243178E+03  0.14974765976E+03  0.00000000000E+00 0.  1.
         11    1    1    2    0    0  0.49930113737E+02 -0.26148578994E+02  0.13656373487E+03  0.14773766657E+03  0.00000000000E+00 0. -1.
</event>
<event>
 7    1  0.2728221E-009  0.2175392E+03  0.7561462E-02  0.1135731E+00
          2   -1    0    0  501    0  0.00000000000E+00  0.00000000000E+00  0.57671269690E+03  0.57671269690E+03  0.00000000000E+00 0. -1.
         -2   -1    0    0    0  501 -0.00000000000E+00 -0.00000000000E+00 -0.88780570010E+02  0.88780570010E+02  0.00000000000E+00 0.  1.
         25    2    1    2    0    0  0.16481100988E+03  0.10011406814E+03  0.32041807128E+03  0.39433784295E+03  0.12509635630E+03 0.  0.
          5    1    3    3  502    0  0.62789109179E+02 -0.19689248554E+02  0.14099561460E+03  0.15565145189E+03  0.41800000000E+01 0.  1.
         -5    1    3    3    0  502  0.10202190070E+03  0.11980331669E+03  0.17942245668E+03  0.23868639106E+03  0.41800000000E+01 0.  1.
        -11    1    1    2    0    0  0.41727475771E+01 -0.27482763821E+02  0.11943257513E+02  0.30254843076E+02  0.00000000000E+00 0. -1.
         11    1    1    2    0    0 -0.16898375745E+03 -0.72631304319E+02  0.15557079809E+03  0.24090058088E+03  0.00000000000E+00 0.  1.
</event>
<event>
 7    1  0.2728221E-009  0.6283140E+02  0.7561462E-02  0.1386320E+00
          1   -1    0    0  501    0  0.00000000000E+00  0.00000000000E+00  0.20590977072E+03  0.20590977072E+03  0.00000000000E+00 0. -1.
         -1   -1    0    0    0  501 -0.00000000000E+00 -0.00000000000E+00 -0.73359650998E+02  0.73359650998E+02  0.00000000000E+00 0.  1.
         25    2    1    2    0    0 -0.47407129648E+02 -0.28212626755E+02  0.93161745880E+02  0.16544114961E+03  0.12509306471E+03 0.  0.
          5    1    3    3  502    0  0.42861697377E+01 -0.59501792374E+00 -0.29141402650E+02  0.29755991762E+02  0.41800000000E+01 0.  1.
         -5    1    3    3    0  502 -0.51693299385E+02 -0.27617608831E+02  0.12230314853E+03  0.13568515784E+03  0.41800000000E+01 0.  1.
        -11    1    1    2    0    0  0.16437185550E+02  0.24771158164E+02  0.66296949303E+02  0.72657255883E+02  0.00000000000E+00 0. -1.
         11    1    1    2    0    0  0.30969944098E+02  0.34414685903E+01 -0.26908575465E+02  0.41171016225E+02  0.00000000000E+00 0.  1.
</event>
<event>
 7    1  0.2728221E-009  0.6997729E+02  0.7561462E-02  0.1360170E+00
         -1   -1    0    0    0  501 -0.00000000000E+00  0.00000000000E+00  0.10954895199E+03  0.10954895199E+03  0.00000000000E+00 0.  1.
          1   -1    0    0  501    0  0.00000000000E+00 -0.00000000000E+00 -0.12280713674E+03  0.12280713674E+03  0.00000000000E+00 0. -1.
         25    2    1    2    0    0  0.63283984423E+01  0.36623906652E+02 -0.40781035816E+02  0.13670212052E+03  0.12507205007E+03 0.  0.
          5    1    3    3  502    0  0.18508137876E+02  0.33296061250E+02 -0.83546267744E+02  0.91916430068E+02  0.41800000000E+01 0.  1.
         -5    1    3    3    0  502 -0.12179739434E+02  0.33278454022E+01  0.42765231928E+02  0.44785690455E+02  0.41800000000E+01 0.  1.
        -11    1    1    2    0    0  0.24976220615E+02 -0.48737744945E+02  0.29166044773E+02  0.62047059126E+02  0.00000000000E+00 0. -1.
         11    1    1    2    0    0 -0.31304619058E+02  0.12113838293E+02 -0.16431937112E+01  0.33606909083E+02  0.00000000000E+00 0.  1.
</event>
<event>
 7    1  0.2728221E-009  0.1003627E+03  0.7561462E-02  0.1279535E+00
         -2   -1    0    0    0  501 -0.00000000000E+00  0.00000000000E+00  0.24944027566E+02  0.24944027566E+02  0.00000000000E+00 0. -1.
          2   -1    0    0  501    0  0.00000000000E+00 -0.00000000000E+00 -0.10938503209E+04  0.10938503209E+04  0.00000000000E+00 0.  1.
         25    2    1    2    0    0 -0.78314796676E+02 -0.38895876059E+02 -0.87374527826E+03  0.88697471478E+03  0.12508891563E+03 0.  0.
          5    1    3    3  502    0 -0.77074144338E+02 -0.56079846968E+02 -0.85792480834E+03  0.86321365960E+03  0.41800000000E+01 0.  1.
         -5    1    3    3    0  502 -0.12406523382E+01  0.17183970908E+02 -0.15820469926E+02  0.23761055176E+02  0.41800000000E+01 0.  1.
        -11    1    1    2    0    0  0.59971003445E+02  0.27349742090E+02 -0.19915556380E+03  0.20977957060E+03  0.00000000000E+00 0.  1.
         11    1    1    2    0    0  0.18343793230E+02  0.11546133969E+02  0.39945487661E+01  0.22040063057E+02  0.00000000000E+00 0. -1.
</event>
<event>
 7    1  0.2728221E-009  0.2361754E+03  0.7561462E-02  0.1122367E+00
          1   -1    0    0  501    0  0.00000000000E+00  0.00000000000E+00  0.30612326772E+03  0.30612326772E+03  0.00000000000E+00 0. -1.
         -1   -1    0    0    0  501 -0.00000000000E+00 -0.00000000000E+00 -0.20311142997E+03  0.20311142997E+03  0.00000000000E+00 0.  1.
         25    2    1    2    0    0 -0.18361890765E+03  0.11502139891E+03 -0.80762142997E+01  0.25031621073E+03  0.12508858726E+03 0.  0.
          5    1    3    3  502    0 -0.18293662715E+03  0.13643882696E+03 -0.93878004793E+01  0.22844466782E+03  0.41800000000E+01 0.  1.
         -5    1    3    3    0  502 -0.68228049702E+00 -0.21417428053E+02  0.13115861797E+01  0.21871542913E+02  0.41800000000E+01 0.  1.
        -11    1    1    2    0    0  0.29644916301E+02 -0.43131849930E+02 -0.58166858341E+01  0.52659390188E+02  0.00000000000E+00 0.  1.
         11    1    1    2    0    0  0.15397399135E+03 -0.71889548979E+02  0.11690473788E+03  0.20625909677E+03  0.00000000000E+00 0. -1.
</event>
<event>
 7    1  0.2728221E-009  0.1387596E+03  0.7561462E-02  0.1215008E+00
         -1   -1    0    0    0  501 -0.00000000000E+00  0.00000000000E+00  0.31596175069E+02  0.31596175069E+02  0.00000000000E+00 0.  1.
          1   -1    0    0  501    0  0.00000000000E+00 -0.00000000000E+00 -0.72924355376E+03  0.72924355376E+03  0.00000000000E+00 0. -1.
         25    2    1    2    0    0 -0.79638631230E+00 -0.10709349180E+03 -0.35340423362E+03  0.38989409718E+03  0.12511276696E+03 0.  0.
          5    1    3    3  502    0  0.16871659643E+02 -0.13175798106E+03 -0.26752150589E+03  0.29871398860E+03  0.41800000000E+01 0.  1.
         -5    1    3    3    0  502 -0.17668045955E+02  0.24664489254E+02 -0.85882727730E+02  0.91180108578E+02  0.41800000000E+01 0.  1.
        -11    1    1    2    0    0 -0.19130476040E+02  0.52533055505E+02 -0.65049537727E+02  0.85773768675E+02  0.00000000000E+00 0.  1.
         11    1    1    2    0    0  0.19926862352E+02  0.54560436298E+02 -0.27919360734E+03  0.28517186297E+03  0.00000000000E+00 0. -1.
</event>
<event>
 7    1  0.2728221E-009  0.3051260E+03  0.7561462E-02  0.1082706E+00
          1   -1    0    0  501    0  0.00000000000E+00  0.00000000000E+00  0.11351915750E+04  0.11351915750E+04  0.00000000000E+00 0. -1.
         -1   -1    0    0    0  501 -0.00000000000E+00 -0.00000000000E+00 -0.86909829351E+02  0.86909829351E+02  0.00000000000E+00 0.  1.
         25    2    1    2    0    0  0.25294980932E+03 -0.13339147422E+03  0.67019697207E+03  0.73931558161E+03  0.12508659565E+03 0.  0.
          5    1    3    3  502    0  0.14200003845E+03 -0.66969593886E+01  0.27161771034E+03  0.30659829281E+03  0.41800000000E+01 0. -1.
         -5    1    3    3    0  502  0.11094977087E+03 -0.12669451483E+03  0.39857926173E+03  0.43271728880E+03  0.41800000000E+01 0. -1.
        -11    1    1    2    0    0 -0.15940733244E+03  0.13045593797E+03  0.27439086517E+03  0.34310318604E+03  0.00000000000E+00 0.  1.
         11    1    1    2    0    0 -0.93542476876E+02  0.29355362527E+01  0.10369390842E+03  0.13968263671E+03  0.00000000000E+00 0. -1.
</event>
<event>
 7    1  0.2728221E-009  0.1149543E+03  0.7561462E-02  0.1251661E+00
          1   -1    0    0  501    0  0.00000000000E+00  0.00000000000E+00  0.95214685587E+02  0.95214685587E+02  0.00000000000E+00 0.  1.
         -1   -1    0    0    0  501 -0.00000000000E+00 -0.00000000000E+00 -0.17199632682E+03  0.17199632682E+03  0.00000000000E+00 0. -1.
         25    2    1    2    0    0  0.64984669072E+02  0.23159974023E+02 -0.41457810943E+02  0.14874828675E+03  0.12509161088E+03 0.  0.
          5    1    3    3  502    0 -0.14217408951E+02  0.43077914260E+02  0.16571242996E+02  0.48475972489E+02  0.41800000000E+01 0.  1.
         -5    1    3    3    0  502  0.79202078023E+02 -0.19917940237E+02 -0.58029053939E+02  0.10027231426E+03  0.41800000000E+01 0.  1.
        -11    1    1    2    0    0 -0.81580445152E+02 -0.11712380465E+02 -0.47287506418E+02  0.95019246212E+02  0.00000000000E+00 0. -1.
         11    1    1    2    0    0  0.16595776080E+02 -0.11447593558E+02  0.11963676128E+02  0.23443479445E+02  0.00000000000E+00 0.  1.
</event>
<event>
 7    1  0.2728221E-009  0.9038284E+02  0.7561462E-02  0.1301927E+00
         -2   -1    0    0    0  501 -0.00000000000E+00  0.00000000000E+00  0.69164956173E+02  0.69164956173E+02  0.00000000000E+00 0.  1.
          2   -1    0    0  501    0  0.00000000000E+00 -0.00000000000E+00 -0.17986832183E+03  0.17986832183E+03  0.00000000000E+00 0. -1.
         25    2    1    2    0    0 -0.11970604199E+02 -0.11287290738E+02 -0.87172081728E+02  0.15334363776E+03  0.12507837987E+03 0.  0.
          5    1    3    3  502    0  0.16286507093E+02  0.32060875958E+02 -0.94237067264E+02  0.10095170789E+03  0.41800000000E+01 0.  1.
         -5    1    3    3    0  502 -0.28257111292E+02 -0.43348166696E+02  0.70649855356E+01  0.52391929866E+02  0.41800000000E+01 0.  1.
        -11    1    1    2    0    0 -0.22696637989E+02  0.41084318718E+02 -0.14157442175E+02  0.49025419830E+02  0.00000000000E+00 0.  1.
         11    1    1    2    0    0  0.34667242189E+02 -0.29797027980E+02 -0.93738417532E+01  0.46664220411E+02  0.00000000000E+00 0. -1.
</event>
<event>
 7    1  0.2728221E-009  0.9698372E+02  0.7561462E-02  0.1286770E+00
          1   -1    0    0  501    0  0.00000000000E+00  0.00000000000E+00  0.15226815837E+03  0.15226815837E+03  0.00000000000E+00 0. -1.
         -1   -1    0    0    0  501 -0.00000000000E+00 -0.00000000000E+00 -0.95320663317E+02  0.95320663317E+02  0.00000000000E+00 0.  1.
         25    2    1    2    0    0  0.93835731153E+01  0.49887576287E+01  0.84906776667E+02  0.15156507018E+03  0.12509944295E+03 0.  0.
          5    1    3    3  502    0 -0.46517024494E+02 -0.19682671806E+00 -0.34126710726E+01  0.46829382148E+02  0.41800000000E+01 0. -1.
         -5    1    3    3    0  502  0.55900597609E+02  0.51855843468E+01  0.88319447740E+02  0.10473568803E+03  0.41800000000E+01 0. -1.
        -11    1    1    2    0    0  0.23055836977E+02 -0.38150881567E+02 -0.20396577878E+02  0.49021237970E+02  0.00000000000E+00 0.  1.
         11    1    1    2    0    0 -0.32439410092E+02  0.33162123938E+02 -0.75627037363E+01  0.47002513539E+02  0.00000000000E+00 0. -1.
</event>
<event>
 7    1  0.2728221E-009  0.1169970E+03  0.7561462E-02  0.1248135E+00
          1   -1    0    0  501    0  0.00000000000E+00  0.00000000000E+00  0.32959067933E+03  0.32959067933E+03  0.00000000000E+00 0. -1.
         -1   -1    0    0    0  501 -0.00000000000E+00 -0.00000000000E+00 -0.62776341045E+02  0.62776341045E+02  0.00000000000E+00 0.  1.
         25    2    1    2    0    0  0.69897404204E+02  0.30578645596E+02  0.22499785276E+03  0.26850025886E+03  0.12509058551E+03 0.  0.
          5    1    3    3  502    0  0.16204378161E+02 -0.42383558610E+02  0.12725608660E+03  0.13516853143E+03  0.41800000000E+01 0.  1.
         -5    1    3    3    0  502  0.53693026043E+02  0.72962204206E+02  0.97741766157E+02  0.13333172743E+03  0.41800000000E+01 0.  1.
        -11    1    1    2    0    0 -0.68802309967E+02 -0.16816470382E+01  0.58635061622E+02  0.90413805611E+02  0.00000000000E+00 0. -1.
         11    1    1    2    0    0 -0.10950942367E+01 -0.28896998558E+02 -0.16818576093E+02  0.33452955906E+02  0.00000000000E+00 0.  1.
</event>
<event>
 7    1  0.2728221E-009  0.9598662E+02  0.7561462E-02  0.1288969E+00
          4   -1    0    0  501    0  0.00000000000E+00  0.00000000000E+00  0.55513442687E+02  0.55513442687E+02  0.00000000000E+00 0. -1.
         -4   -1    0    0    0  501 -0.00000000000E+00 -0.00000000000E+00 -0.27419919093E+03  0.27419919093E+03  0.00000000000E+00 0.  1.
         25    2    1    2    0    0  0.48191701320E+02 -0.18214732741E+02 -0.12871316691E+03  0.18673166839E+03  0.12508964817E+03 0.  0.
          5    1    3    3  502    0 -0.30414115926E+02 -0.36592738195E+02 -0.77509046688E+02  0.91044888130E+02  0.41800000000E+01 0.  1.
         -5    1    3    3    0  502  0.78605817246E+02  0.18378005454E+02 -0.51204120220E+02  0.95686780262E+02  0.41800000000E+01 0.  1.
        -11    1    1    2    0    0 -0.16695039026E+02 -0.11340296748E+02 -0.97125973435E+02  0.99200712569E+02  0.00000000000E+00 0.  1.
         11    1    1    2    0    0 -0.31496662294E+02  0.29555029489E+02  0.71533921022E+01  0.43780252653E+02  0.00000000000E+00 0. -1.
</event>
<event>
 7    1  0.2728221E-009  0.1147650E+03  0.7561462E-02  0.1251992E+00
         -1   -1    0    0    0  501 -0.00000000000E+00  0.00000000000E+00  0.29450179759E+02  0.29450179759E+02  0.00000000000E+00 0.  1.
          1   -1    0    0  501    0  0.00000000000E+00 -0.00000000000E+00 -0.54274118315E+03  0.54274118315E+03  0.00000000000E+00 0. -1.
         25    2    1    2    0    0 -0.95844541629E+01 -0.44068759320E+02 -0.38732792202E+03  0.40951631600E+03  0.12508707601E+03 0.  0.
          5    1    3    3  502    0  0.20567837039E+02  0.39083557794E+02 -0.13499793118E+03  0.14210022602E+03  0.41800000000E+01 0.  1.
         -5    1    3    3    0  502 -0.30152291201E+02 -0.83152317115E+02 -0.25232999084E+03  0.26741608998E+03  0.41800000000E+01 0.  1.
        -11    1    1    2    0    0 -0.37674224090E+02  0.27088042479E+02 -0.88834001521E+02  0.10022269719E+03  0.00000000000E+00 0.  1.
         11    1    1    2    0    0  0.47258678253E+02  0.16980716841E+02 -0.37129079849E+02  0.62452349716E+02  0.00000000000E+00 0. -1.
</event>
<event>
 7    1  0.2728221E-009  0.1218305E+03  0.7561462E-02  0.1240107E+00
          2   -1    0    0  501    0  0.00000000000E+00  0.00000000000E+00  0.35871880151E+03  0.35871880151E+03  0.00000000000E+00 0. -1.
         -2   -1    0    0    0  501 -0.00000000000E+00 -0.00000000000E+00 -0.56403168641E+02  0.56403168641E+02  0.00000000000E+00 0.  1.
         25    2    1    2    0    0 -0.63645756903E+02 -0.62754383929E+02  0.19874058897E+03  0.25126411065E+03  0.12508771531E+03 0.  0.
          5    1    3    3  502    0 -0.28140391311E+02 -0.82621683275E+02  0.58439680286E+02  0.10512322675E+03  0.41800000000E+01 0. -1.
         -5    1    3    3    0  502 -0.35505365592E+02  0.19867299347E+02  0.14030090869E+03  0.14614088390E+03  0.41800000000E+01 0. -1.
        -11    1    1    2    0    0  0.63957524500E+02  0.77582799835E+02  0.58324342056E+02  0.11623848178E+03  0.00000000000E+00 0.  1.
         11    1    1    2    0    0 -0.31176759738E+00 -0.14828415906E+02  0.45250701841E+02  0.47619377720E+02  0.00000000000E+00 0. -1.
</event>
<event>
 7    1  0.2728221E-009  0.1010967E+03  0.7561462E-02  0.1278007E+00
          2   -1    0    0  501    0  0.00000000000E+00  0.00000000000E+00  0.12756805545E+04  0.12756805545E+04  0.00000000000E+00 0. -1.
         -2   -1    0    0    0  501 -0.00000000000E+00 -0.00000000000E+00 -0.11757287214E+02  0.11757287214E+02  0.00000000000E+00 0.  1.
         25    2    1    2    0    0 -0.69353989705E+02  0.18325780109E+02  0.10189182427E+04  0.10290711512E+04  0.12508892382E+03 0.  0.
          5    1    3    3  502    0 -0.76380635949E+01  0.56332306276E+02  0.23567241328E+03  0.24246778657E+03  0.41800000000E+01 0.  1.
         -5    1    3    3    0  502 -0.61715926110E+02 -0.38006526167E+02  0.78324582939E+03  0.78660336461E+03  0.41800000000E+01 0.  1.
        -11    1    1    2    0    0  0.46821690463E+02 -0.17685059933E+02  0.21550308001E+03  0.22123880658E+03  0.00000000000E+00 0.  1.
         11    1    1    2    0    0  0.22532299242E+02 -0.64072017598E+00  0.29501944663E+02  0.37127884001E+02  0.00000000000E+00 0. -1.
</event>
<event>
 7    1  0.2728221E-009  0.9791337E+02  0.7561462E-02  0.1284746E+00
          1   -1    0    0  501    0  0.00000000000E+00  0.00000000000E+00  0.75661856104E+02  0.75661856104E+02  0.00000000000E+00 0. -1.
         -1   -1    0    0    0  501 -0.00000000000E+00 -0.00000000000E+00 -0.19570266130E+03  0.19570266130E+03  0.00000000000E+00 0.  1.
         25    2    1    2    0    0  0.10693521869E+02 -0.59686049250E+02 -0.73143650663E+02  0.15707755340E+03  0.12508632325E+03 0.  0.
          5    1    3    3  502    0 -0.37620862350E+01 -0.81967119251E+02 -0.32870759408E+01  0.82225538608E+02  0.41800000000E+01 0. -1.
         -5    1    3    3    0  502  0.14455608104E+02  0.22281070000E+02 -0.69856574722E+02  0.74852014789E+02  0.41800000000E+01 0. -1.
        -11    1    1    2    0    0  0.15806815580E+02  0.58123027515E+02 -0.59706599723E+02  0.84811672527E+02  0.00000000000E+00 0.  1.
         11    1    1    2    0    0 -0.26500337448E+02  0.15630217357E+01  0.12809445191E+02  0.29475291481E+02  0.00000000000E+00 0. -1.
</event>
<event>
 7    1  0.2728221E-009  0.8013623E+02  0.7561462E-02  0.1328665E+00
         -1   -1    0    0    0  501 -0.00000000000E+00  0.00000000000E+00  0.69292573909E+02  0.69292573909E+02  0.00000000000E+00 0.  1.
          1   -1    0    0  501    0  0.00000000000E+00 -0.00000000000E+00 -0.21748157613E+03  0.21748157613E+03  0.00000000000E+00 0. -1.
         25    2    1    2    0    0  0.87345328096E+01  0.54679098391E+02 -0.64974357564E+02  0.15144169655E+03  0.12508726733E+03 0.  0.
          5    1    3    3  502    0 -0.10973160219E+02  0.71851353711E+02  0.85426328549E+01  0.73303998877E+02  0.41800000000E+01 0.  1.
         -5    1    3    3    0  502  0.19707693028E+02 -0.17172255320E+02 -0.73516990419E+02  0.78137697673E+02  0.41800000000E+01 0.  1.
        -11    1    1    2    0    0  0.49969238568E+01 -0.42032068809E+02  0.72650320176E+01  0.42946999274E+02  0.00000000000E+00 0.  1.
         11    1    1    2    0    0 -0.13731456666E+02 -0.12647029581E+02 -0.90479676679E+02  0.92385454220E+02  0.00000000000E+00 0. -1.
</event>
<event>
 7    1  0.2728221E-009  0.6892319E+02  0.7561462E-02  0.1363794E+00
          1   -1    0    0  501    0  0.00000000000E+00  0.00000000000E+00  0.98909558113E+03  0.98909558113E+03  0.00000000000E+00 0. -1.
         -1   -1    0    0    0  501 -0.00000000000E+00 -0.00000000000E+00 -0.14064959847E+02  0.14064959847E+02  0.00000000000E+00 0.  1.
         25    2    1    2    0    0 -0.60136183101E+01  0.62423403785E+00  0.75202481194E+03  0.76237906686E+03  0.12507585917E+03 0.  0.
          5    1    3    3  502    0 -0.25985235105E+02 -0.27921231508E+01  0.73529922654E+03  0.73577540958E+03  0.41800000000E+01 0. -1.
         -5    1    3    3    0  502  0.19971616795E+02  0.34163571886E+01  0.16725585400E+02  0.26603657282E+02  0.41800000000E+01 0. -1.
        -11    1    1    2    0    0  0.41855627042E+02 -0.23664551725E+02  0.11240744252E+03  0.12225930499E+03  0.00000000000E+00 0.  1.
         11    1    1    2    0    0 -0.35842008732E+02  0.23040317688E+02  0.11059836683E+03  0.11852216912E+03  0.00000000000E+00 0. -1.
</event>
<event>
 7    1  0.2728221E-009  0.1954998E+03  0.7561462E-02  0.1153592E+00
          2   -1    0    0  501    0  0.00000000000E+00  0.00000000000E+00  0.39437932175E+03  0.39437932175E+03  0.00000000000E+00 0. -1.
         -2   -1    0    0    0  501 -0.00000000000E+00 -0.00000000000E+00 -0.11578020404E+03  0.11578020404E+03  0.00000000000E+00 0.  1.
         25    2    1    2    0    0  0.16828890402E+03  0.70909829986E+02  0.16908840119E+03  0.27854701796E+03  0.12509274397E+03 0.  0.
          5    1    3    3  502    0  0.39250628206E+02  0.40297775793E+02  0.12762244235E+03  0.13953308834E+03  0.41800000000E+01 0.  1.
         -5    1    3    3    0  502  0.12903827582E+03  0.30612054193E+02  0.41465958835E+02  0.13901392963E+03  0.41800000000E+01 0.  1.
        -11    1    1    2    0    0 -0.16567601247E+03 -0.39412428025E+02  0.10395959122E+03  0.19952312447E+03  0.00000000000E+00 0.  1.
         11    1    1    2    0    0 -0.26128915582E+01 -0.31497401961E+02  0.55511252971E+01  0.32089383363E+02  0.00000000000E+00 0. -1.
</event>
<event>
 7    1  0.2728221E-009  0.1035544E+03  0.7561462E-02  0.1272994E+00
          2   -1    0    0  501    0  0.00000000000E+00  0.00000000000E+00  0.17828214266E+02  0.17828214266E+02  0.00000000000E+00 0.  1.
         -2   -1    0    0    0  501 -0.00000000000E+00 -0.00000000000E+00 -0.68725216621E+03  0.68725216621E+03  0.00000000000E+00 0. -1.
         25    2    1    2    0    0  0.90306074071E+00 -0.12766983308E+02 -0.44737622036E+03  0.46471219116E+03  0.12509247257E+03 0.  0.
          5    1    3    3  502    0 -0.53977303629E+02  0.11923405644E+02 -0.12501061291E+03  0.13675102431E+03  0.41800000000E+01 0.  1.
         -5    1    3    3    0  502  0.54880364370E+02 -0.24690388952E+02 -0.32236560745E+03  0.32796116686E+03  0.41800000000E+01 0.  1.
        -11    1    1    2    0    0  0.20031685589E+02  0.47073963488E+02 -0.10954102457E+03  0.12089856297E+03  0.00000000000E+00 0.  1.
         11    1    1    2    0    0 -0.20934746329E+02 -0.34306980180E+02 -0.11250670702E+03  0.11946962634E+03  0.00000000000E+00 0. -1.
</event>
<event>
 7    1  0.2728221E-009  0.1143961E+03  0.7561462E-02  0.1252639E+00
          2   -1    0    0  501    0  0.00000000000E+00  0.00000000000E+00  0.69851077459E+03  0.69851077459E+03  0.00000000000E+00 0. -1.
         -2   -1    0    0    0  501 -0.00000000000E+00 -0.00000000000E+00 -0.26880694467E+02  0.26880694467E+02  0.00000000000E+00 0.  1.
         25    2    1    2    0    0  0.59882738241E+02  0.19737718245E+02  0.23117227888E+03  0.27030293586E+03  0.12509010652E+03 0.  0.
          5    1    3    3  502    0  0.65432522514E+02  0.65306180289E+02  0.17179054383E+03  0.19513015025E+03  0.41800000000E+01 0. -1.
         -5    1    3    3    0  502 -0.55497842729E+01 -0.45568462044E+02  0.59381735045E+02  0.75172785604E+02  0.41800000000E+01 0. -1.
        -11    1    1    2    0    0 -0.73807737372E+02 -0.18988722436E+02  0.43222932152E+03  0.43889673052E+03  0.00000000000E+00 0. -1.
         11    1    1    2    0    0  0.13924999131E+02 -0.74899580865E+00  0.82284797161E+01  0.16191802678E+02  0.00000000000E+00 0.  1.
</event>
<event>
 7    1  0.2728221E-009  0.1028798E+03  0.7561462E-02  0.1274354E+00
         -2   -1    0    0    0  501 -0.00000000000E+00  0.00000000000E+00  0.37952076434E+02  0.37952076434E+02  0.00000000000E+00 0.  1.
          2   -1    0    0  501    0  0.00000000000E+00 -0.00000000000E+00 -0.38289274124E+03  0.38289274124E+03  0.00000000000E+00 0. -1.
         25    2    1    2    0    0  0.42398615122E+02 -0.27719891213E+02 -0.22008001070E+03  0.25816470471E+03  0.12509104172E+03 0.  0.
          5    1    3    3  502    0 -0.26313239817E+02 -0.54648700092E+02 -0.10705804166E+03  0.12311687007E+03  0.41800000000E+01 0.  1.
         -5    1    3    3    0  502  0.68711854939E+02  0.26928808880E+02 -0.11302196904E+03  0.13504783464E+03  0.41800000000E+01 0.  1.
        -11    1    1    2    0    0  0.56435547785E+01  0.21940909895E+02  0.57674948358E+01  0.23377708062E+02  0.00000000000E+00 0.  1.
         11    1    1    2    0    0 -0.48042169900E+02  0.57789813174E+01 -0.13062814895E+03  0.13930240490E+03  0.00000000000E+00 0. -1.
</event>
<event>
 7    1  0.2728221E-009  0.1216861E+03  0.7561462E-02  0.1240341E+00
          2   -1    0    0  501    0  0.00000000000E+00  0.00000000000E+00  0.12980758751E+04  0.12980758751E+04  0.00000000000E+00 0. -1.
         -2   -1    0    0    0  501 -0.00000000000E+00 -0.00000000000E+00 -0.16426243810E+02  0.16426243810E+02  0.00000000000E+00 0.  1.
         25    2    1    2    0    0 -0.43695961314E+02  0.81703627212E+02  0.83541552578E+03  0.84979478594E+03  0.12508899937E+03 0.  0.
          5    1    3    3  502    0 -0.66551509919E+02  0.52761958765E+02  0.76921236617E+03  0.77389796771E+03  0.41800000000E+01 0. -1.
         -5    1    3    3    0  502  0.22855548605E+02  0.28941668447E+02  0.66203159614E+02  0.75896818230E+02  0.41800000000E+01 0. -1.
        -11    1    1    2    0    0 -0.15321641217E+02 -0.53809958002E+02  0.12562843972E+03  0.13752370391E+03  0.00000000000E+00 0.  1.
         11    1    1    2    0    0  0.59017602530E+02 -0.27893669211E+02  0.32060566582E+03  0.32718362910E+03  0.00000000000E+00 0. -1.
</event>
<event>
 7    1  0.2728221E-009  0.1633257E+03  0.7561462E-02  0.1184992E+00
          1   -1    0    0  501    0  0.00000000000E+00  0.00000000000E+00  0.48026671764E+03  0.48026671764E+03  0.00000000000E+00 0. -1.
         -1   -1    0    0    0  501 -0.00000000000E+00 -0.00000000000E+00 -0.71265731467E+02  0.71265731467E+02  0.00000000000E+00 0.  1.
         25    2    1    2    0    0 -0.11171448365E+03 -0.95883097608E+02  0.25581329575E+03  0.32056452767E+03  0.12508988710E+03 0.  0.
          5    1    3    3  502    0 -0.88967707066E+02 -0.92926096545E+01  0.18778844521E+03  0.20804705729E+03  0.41800000000E+01 0.  1.
         -5    1    3    3    0  502 -0.22746776589E+02 -0.86590487954E+02  0.68024850546E+02  0.11251747038E+03  0.41800000000E+01 0.  1.
        -11    1    1    2    0    0  0.18119274268E+02  0.11518789685E+02 -0.10901620945E+02  0.24079783119E+02  0.00000000000E+00 0.  1.
         11    1    1    2    0    0  0.93595209387E+02  0.84364307923E+02  0.16408931137E+03  0.20688813832E+03  0.00000000000E+00 0. -1.
</event>
<event>
 7    1  0.2728221E-009  0.1038660E+03  0.7561462E-02  0.1272370E+00
         -3   -1    0    0    0  501 -0.00000000000E+00  0.00000000000E+00  0.39351204857E+02  0.39351204857E+02  0.00000000000E+00 0.  1.
          3   -1    0    0  501    0  0.00000000000E+00 -0.00000000000E+00 -0.31480379910E+03  0.31480379910E+03  0.00000000000E+00 0. -1.
         25    2    1    2    0    0 -0.31133325089E+01  0.13027294202E+02 -0.12171319917E+03  0.17504557731E+03  0.12508975998E+03 0.  0.
          5    1    3    3  502    0  0.87921788667E+01 -0.51198736678E+02 -0.85796737688E+02  0.10038508676E+03  0.41800000000E+01 0.  1.
         -5    1    3    3    0  502 -0.11905511376E+02  0.64226030881E+02 -0.35916461481E+02  0.74660490550E+02  0.41800000000E+01 0.  1.
        -11    1    1    2    0    0  0.29779541408E+02 -0.41547314489E+02 -0.69626937889E+02  0.86376564574E+02  0.00000000000E+00 0. -1.
         11    1    1    2    0    0 -0.26666208899E+02  0.28520020286E+02 -0.84112457186E+02  0.92732862072E+02  0.00000000000E+00 0.  1.
</event>
<event>
 7    1  0.2728221E-009  0.1258281E+03  0.7561462E-02  0.1233781E+00
          1   -1    0    0  501    0  0.00000000000E+00  0.00000000000E+00  0.66805718368E+03  0.66805718368E+03  0.00000000000E+00 0. -1.
         -1   -1    0    0    0  501 -0.00000000000E+00 -0.00000000000E+00 -0.34849284209E+02  0.34849284209E+02  0.00000000000E+00 0.  1.
         25    2    1    2    0    0 -0.71554184418E+02  0.66640675562E+02  0.23851488437E+03  0.28652794186E+03  0.12509168820E+03 0.  0.
          5    1    3    3  502    0  0.32041403830E+02  0.27196469998E+02  0.35455169763E+02  0.55143821075E+02  0.41800000000E+01 0. -1.
         -5    1    3    3    0  502 -0.10359558825E+03  0.39444205563E+02  0.20305971460E+03  0.23138412079E+03  0.41800000000E+01 0. -1.
        -11    1    1    2    0    0  0.32255865251E+02 -0.22140886686E+02  0.37188772581E+02  0.53978370783E+02  0.00000000000E+00 0.  1.
         11    1    1    2    0    0  0.39298319168E+02 -0.44499788876E+02  0.35750424253E+03  0.36240015525E+03  0.00000000000E+00 0. -1.
</event>
<event>
 7    1  0.2728221E-009  0.8956863E+02  0.7561462E-02  0.1303900E+00
         -2   -1    0    0    0  501 -0.00000000000E+00  0.00000000000E+00  0.15353960159E+03  0.15353960159E+03  0.00000000000E+00 0.  1.
          2   -1    0    0  501    0  0.00000000000E+00 -0.00000000000E+00 -0.13193350008E+03  0.13193350008E+03  0.00000000000E+00 0. -1.
         25    2    1    2    0    0  0.44720052102E+02 -0.75355417083E+02 -0.88241604446E+01  0.15298226984E+03  0.12508951648E+03 0.  0.
          5    1    3    3  502    0  0.37111991759E+02 -0.72052922376E+02 -0.60027105703E+02  0.10094379314E+03  0.41800000000E+01 0.  1.
         -5    1    3    3    0  502  0.76080603428E+01 -0.33024947069E+01  0.51202945258E+02  0.52038476694E+02  0.41800000000E+01 0.  1.
        -11    1    1    2    0    0 -0.37940309459E+02  0.51976202179E+02  0.64175692412E+02  0.90881858318E+02  0.00000000000E+00 0.  1.
         11    1    1    2    0    0 -0.67797426429E+01  0.23379214904E+02 -0.33745430460E+02  0.41608973512E+02  0.00000000000E+00 0. -1.
</event>
<event>
 7    1  0.2728221E-009  0.5130367E+02  0.7561462E-02  0.1438434E+00
         -2   -1    0    0    0  501 -0.00000000000E+00  0.00000000000E+00  0.14156314661E+03  0.14156314661E+03  0.00000000000E+00 0.  1.
          2   -1    0    0  501    0  0.00000000000E+00 -0.00000000000E+00 -0.94889082795E+02  0.94889082795E+02  0.00000000000E+00 0. -1.
         25    2    1    2    0    0 -0.34070156811E+02 -0.21263740359E+02 -0.14505371725E+02  0.13217886111E+03  0.12509165950E+03 0.  0.
          5    1    3    3  502    0 -0.97645101653E+01  0.26939402390E+01 -0.67841410261E+02  0.68720683342E+02  0.41800000000E+01 0. -1.
         -5    1    3    3    0  502 -0.24305646646E+02 -0.23957680598E+02  0.53336038536E+02  0.63458177765E+02  0.41800000000E+01 0. -1.
        -11    1    1    2    0    0  0.10302233307E+02 -0.12359730880E+02  0.61011083476E+02  0.63097157349E+02  0.00000000000E+00 0.  1.
         11    1    1    2    0    0  0.23767923504E+02  0.33623471239E+02  0.16835206525E+00  0.41176210951E+02  0.00000000000E+00 0. -1.
</event>
<event>
 7    1  0.2728221E-009  0.1805164E+03  0.7561462E-02  0.1167304E+00
          1   -1    0    0  501    0  0.00000000000E+00  0.00000000000E+00  0.37492366731E+03  0.37492366731E+03  0.00000000000E+00 0. -1.
         -1   -1    0    0    0  501 -0.00000000000E+00 -0.00000000000E+00 -0.13014727756E+03  0.13014727756E+03  0.00000000000E+00 0.  1.
         25    2    1    2    0    0  0.20332437361E+02  0.17584447202E+03  0.42251084317E+02  0.22083379952E+03  0.12509087309E+03 0.  0.
          5    1    3    3  502    0  0.25599088915E+02  0.62431113581E+02  0.76576825600E+02  0.10214910629E+03  0.41800000000E+01 0. -1.
         -5    1    3    3    0  502 -0.52666515533E+01  0.11341335844E+03 -0.34325741283E+02  0.11868469323E+03  0.41800000000E+01 0. -1.
        -11    1    1    2    0    0 -0.28843268590E+02 -0.14348552026E+03  0.10227433658E+03  0.17854990505E+03  0.00000000000E+00 0.  1.
         11    1    1    2    0    0  0.85108312283E+01 -0.32358951760E+02  0.10025096886E+03  0.10568724031E+03  0.00000000000E+00 0. -1.
</event>
<event>
 7    1  0.2728221E-009  0.1608475E+03  0.7561462E-02  0.1187743E+00
          1   -1    0    0  501    0  0.00000000000E+00  0.00000000000E+00  0.23142018728E+03  0.23142018728E+03  0.00000000000E+00 0. -1.
         -1   -1    0    0    0  501 -0.00000000000E+00 -0.00000000000E+00 -0.12469380102E+03  0.12469380102E+03  0.00000000000E+00 0.  1.
         25    2    1    2    0    0  0.41769331469E+02 -0.12161268665E+03  0.78686933984E+02  0.19589019588E+03  0.12508801964E+03 0.  0.
          5    1    3    3  502    0 -0.34123138657E+02 -0.80560850452E+01  0.41067480790E+02  0.54159943469E+02  0.41800000000E+01 0. -1.
         -5    1    3    3    0  502  0.75892470126E+02 -0.11355660161E+03  0.37619453195E+02  0.14173025241E+03  0.41800000000E+01 0. -1.
        -11    1    1    2    0    0  0.13246346896E+02 -0.29473266254E+01 -0.12185078384E+02  0.18238107784E+02  0.00000000000E+00 0.  1.
         11    1    1    2    0    0 -0.55015678364E+02  0.12456001328E+03  0.40224530651E+02  0.14198568463E+03  0.00000000000E+00 0. -1.
</event>
<event>
 7    1  0.2728221E-009  0.1186042E+03  0.7561462E-02  0.1245418E+00
         -2   -1    0    0    0  501 -0.00000000000E+00  0.00000000000E+00  0.47839422147E+02  0.47839422147E+02  0.00000000000E+00 0.  1.
          2   -1    0    0  501    0  0.00000000000E+00 -0.00000000000E+00 -0.32827461702E+03  0.32827461702E+03  0.00000000000E+00 0. -1.
         25    2    1    2    0    0  0.72560344564E+02 -0.64879885222E+01 -0.15609926634E+03  0.21288844094E+03  0.12508960682E+03 0.  0.
          5    1    3    3  502    0 -0.28665421045E+02 -0.23865017212E+02 -0.20609139014E+02  0.42818855906E+02  0.41800000000E+01 0. -1.
         -5    1    3    3    0  502  0.10122576561E+03  0.17377028690E+02 -0.13549012733E+03  0.17006958503E+03  0.41800000000E+01 0. -1.
        -11    1    1    2    0    0 -0.56988993181E+02 -0.24633036867E+02 -0.45259247329E+02  0.76830536364E+02  0.00000000000E+00 0.  1.
         11    1    1    2    0    0 -0.15571351383E+02  0.31121025390E+02 -0.79076681202E+02  0.86395061868E+02  0.00000000000E+00 0. -1.
</event>
<event>
 7    1  0.2728221E-009  0.9620442E+02  0.7561462E-02  0.1288486E+00
          1   -1    0    0  501    0  0.00000000000E+00  0.00000000000E+00  0.56352124132E+03  0.56352124132E+03  0.00000000000E+00 0.  1.
         -1   -1    0    0    0  501 -0.00000000000E+00 -0.00000000000E+00 -0.95702939626E+02  0.95702939626E+02  0.00000000000E+00 0. -1.
         25    2    1    2    0    0 -0.95510704659E+01  0.80210868853E+02  0.50724072495E+03  0.52864567403E+03  0.12509232267E+03 0.  0.
          5    1    3    3  502    0 -0.54317175308E+01  0.17115903625E+01  0.37270922600E+03  0.37277616963E+03  0.41800000000E+01 0. -1.
         -5    1    3    3    0  502 -0.41193529351E+01  0.78499278491E+02  0.13453149895E+03  0.15586950440E+03  0.41800000000E+01 0. -1.
        -11    1    1    2    0    0 -0.13995598208E+02 -0.81835319326E+02  0.18384770260E+01  0.83043821301E+02  0.00000000000E+00 0.  1.
         11    1    1    2    0    0  0.23546668674E+02  0.16244504731E+01 -0.41260900280E+02  0.47534685619E+02  0.00000000000E+00 0. -1.
</event>
<event>
 7    1  0.2728221E-009  0.1639251E+03  0.7561462E-02  0.1184335E+00
         -1   -1    0    0    0  501 -0.00000000000E+00  0.00000000000E+00  0.10689874163E+03  0.10689874163E+03  0.00000000000E+00 0.  1.
          1   -1    0    0  501    0  0.00000000000E+00 -0.00000000000E+00 -0.40088823096E+03  0.40088823096E+03  0.00000000000E+00 0. -1.
         25    2    1    2    0    0  0.35652241370E+02  0.12346542126E+03 -0.29843210662E+03  0.34817264249E+03  0.12509066374E+03 0.  0.
          5    1    3    3  502    0  0.69183362162E+02  0.40306722704E+02 -0.86119097679E+02  0.11766452686E+03  0.41800000000E+01 0. -1.
         -5    1    3    3    0  502 -0.33531120792E+02  0.83158698558E+02 -0.21231300894E+03  0.23050811563E+03  0.41800000000E+01 0. -1.
        -11    1    1    2    0    0 -0.65776399452E+02 -0.66874534532E+02  0.13849966669E+02  0.94818561846E+02  0.00000000000E+00 0.  1.
         11    1    1    2    0    0  0.30124158082E+02 -0.56590886731E+02 -0.94073493861E+01  0.64795768254E+02  0.00000000000E+00 0. -1.
</event>
<event>
 7    1  0.2728221E-009  0.1162631E+03  0.7561462E-02  0.1249392E+00
          1   -1    0    0  501    0  0.00000000000E+00  0.00000000000E+00  0.12194415291E+03  0.12194415291E+03  0.00000000000E+00 0. -1.
         -1   -1    0    0    0  501 -0.00000000000E+00 -0.00000000000E+00 -0.12344372965E+03  0.12344372965E+03  0.00000000000E+00 0.  1.
         25    2    1    2    0    0  0.12967574521E+01 -0.53640980989E+02  0.70510834486E+01  0.13629044717E+03  0.12508529806E+03 0.  0.
          5    1    3    3  502    0 -0.61471920074E+02 -0.32026751103E+02  0.40230309252E+00  0.69441658905E+02  0.41800000000E+01 0. -1.
         -5    1    3    3    0  502  0.62768677526E+02 -0.21614229886E+02  0.66487803561E+01  0.66848788262E+02  0.41800000000E+01 0. -1.
        -11    1    1    2    0    0  0.38045570919E+02  0.39286513924E+02  0.20198594228E+02  0.58299904388E+02  0.00000000000E+00 0. -1.
         11    1    1    2    0    0 -0.39342328371E+02  0.14354467065E+02 -0.28749254422E+02  0.50797531005E+02  0.00000000000E+00 0.  1.
</event>
<event>
 7    1  0.2728221E-009  0.9158119E+02  0.7561462E-02  0.1299067E+00
          2   -1    0    0  501    0  0.00000000000E+00  0.00000000000E+00  0.48149795544E+02  0.48149795544E+02  0.00000000000E+00 0. -1.
         -2   -1    0    0    0  501 -0.00000000000E+00 -0.00000000000E+00 -0.28938408493E+03  0.28938408493E+03  0.00000000000E+00 0.  1.
         25    2    1    2    0    0 -0.67820045922E+01  0.45007425986E+02 -0.15440853618E+03  0.20385653724E+03  0.12507528832E+03 0.  0.
          5    1    3    3  502    0 -0.10746882709E+01  0.64200080815E+02 -0.19255485783E+02  0.67164361563E+02  0.41800000000E+01 0. -1.
         -5    1    3    3    0  502 -0.57073163213E+01 -0.19192654829E+02 -0.13515305040E+03  0.13669217568E+03  0.41800000000E+01 0. -1.
        -11    1    1    2    0    0 -0.36972303632E+02 -0.20247173049E+01 -0.49716536829E+02  0.61990198824E+02  0.00000000000E+00 0.  1.
         11    1    1    2    0    0  0.43754308225E+02 -0.42982708681E+02 -0.37109216376E+02  0.71687144411E+02  0.00000000000E+00 0. -1.
</event>
<event>
 7    1  0.2728221E-009  0.1641776E+03  0.7561462E-02  0.1184059E+00
          2   -1    0    0  501    0  0.00000000000E+00  0.00000000000E+00  0.10096725211E+04  0.10096725211E+04  0.00000000000E+00 0.  1.
         -2   -1    0    0    0  501 -0.00000000000E+00 -0.00000000000E+00 -0.33601383096E+02  0.33601383096E+02  0.00000000000E+00 0. -1.
         25    2    1    2    0    0 -0.23623854082E+02 -0.12704441731E+03  0.30538865319E+03  0.35441159033E+03  0.12508787076E+03 0.  0.
          5    1    3    3  502    0 -0.36645355071E+02  0.66253814030E+01  0.11814158379E+03  0.12394226054E+03  0.41800000000E+01 0. -1.
         -5    1    3    3    0  502  0.13021500989E+02 -0.13366979871E+03  0.18724706940E+03  0.23046932979E+03  0.41800000000E+01 0. -1.
        -11    1    1    2    0    0  0.52925195043E+02  0.45257831720E+02  0.26646377352E+03  0.27541294487E+03  0.00000000000E+00 0. -1.
         11    1    1    2    0    0 -0.29301340961E+02  0.81786585590E+02  0.40421871132E+03  0.41344936902E+03  0.00000000000E+00 0.  1.
</event>
<event>
 7    1  0.2728221E-009  0.1293676E+03  0.7561462E-02  0.1228397E+00
          2   -1    0    0  501    0  0.00000000000E+00  0.00000000000E+00  0.81062494284E+03  0.81062494284E+03  0.00000000000E+00 0.  1.
         -2   -1    0    0    0  501 -0.00000000000E+00 -0.00000000000E+00 -0.40843640383E+02  0.40843640383E+02  0.00000000000E+00 0. -1.
         25    2    1    2    0    0  0.80063704852E+02  0.13419418311E+01  0.68777283025E+03  0.70362653686E+03  0.12508732830E+03 0.  0.
          5    1    3    3  502    0  0.17782864606E+01  0.53412850779E+02  0.28573750134E+03  0.29072235380E+03  0.41800000000E+01 0. -1.
         -5    1    3    3    0  502  0.78285418391E+02 -0.52070908948E+02  0.40203532891E+03  0.41290418306E+03  0.41800000000E+01 0. -1.
        -11    1    1    2    0    0 -0.95512150399E+02 -0.39661092716E-01  0.89258445140E+02  0.13072735932E+03  0.00000000000E+00 0.  1.
         11    1    1    2    0    0  0.15448445547E+02 -0.13022807384E+01 -0.72499729327E+01  0.17114687040E+02  0.00000000000E+00 0. -1.
</event>
<event>
 7    1  0.2728221E-009  0.1163591E+03  0.7561462E-02  0.1249227E+00
         -3   -1    0    0    0  501 -0.00000000000E+00  0.00000000000E+00  0.40805746704E+03  0.40805746704E+03  0.00000000000E+00 0.  1.
          3   -1    0    0  501    0  0.00000000000E+00 -0.00000000000E+00 -0.34964012774E+02  0.34964012774E+02  0.00000000000E+00 0. -1.
         25    2    1    2    0    0 -0.14757654759E+02  0.37106030489E+02  0.21378801719E+03  0.25089346064E+03  0.12509023313E+03 0.  0.
          5    1    3    3  502    0 -0.38643862855E+02 -0.33099548288E+02  0.12569036606E+03  0.13566307071E+03  0.41800000000E+01 0. -1.
         -5    1    3    3    0  502  0.23886208097E+02  0.70205578777E+02  0.88097651130E+02  0.11523038993E+03  0.41800000000E+01 0. -1.
        -11    1    1    2    0    0 -0.42669687584E+02 -0.97005427055E+01  0.66266718116E+02  0.79410834885E+02  0.00000000000E+00 0.  1.
         11    1    1    2    0    0  0.57427342343E+02 -0.27405487783E+02  0.93038718955E+02  0.11271718429E+03  0.00000000000E+00 0. -1.
</event>
<event>
 7    1  0.2728221E-009  0.9829533E+02  0.7561462E-02  0.1283922E+00
         -1   -1    0    0    0  501 -0.00000000000E+00  0.00000000000E+00  0.14148737832E+03  0.14148737832E+03  0.00000000000E+00 0.  1.
          1   -1    0    0  501    0  0.00000000000E+00 -0.00000000000E+00 -0.14402911204E+03  0.14402911204E+03  0.00000000000E+00 0. -1.
         25    2    1    2    0    0 -0.27558268037E+02 -0.15432424507E+02  0.84360727066E+02  0.15414621784E+03  0.12508679523E+03 0.  0.
          5    1    3    3  502    0 -0.38234123215E+02  0.49605645883E+02  0.45425308204E+02  0.77482251560E+02  0.41800000000E+01 0. -1.
         -5    1    3    3    0  502  0.10675855178E+02 -0.65038070390E+02  0.38935418862E+02  0.76663966280E+02  0.41800000000E+01 0. -1.
        -11    1    1    2    0    0  0.46770995134E+02  0.10257308169E+02 -0.62370304099E+01  0.48287046969E+02  0.00000000000E+00 0.  1.
         11    1    1    2    0    0 -0.19212727097E+02  0.51751163379E+01 -0.80665430372E+02  0.83083225556E+02  0.00000000000E+00 0. -1.
</event>
<event>
 7    1  0.3125086E-009  0.1210602E+03  0.7561462E-02  0.1241358E+00
          1   -1    0    0  501    0  0.00000000000E+00  0.00000000000E+00  0.11078727401E+04  0.11078727401E+04  0.00000000000E+00 0. -1.
         -1   -1    0    0    0  501 -0.00000000000E+00 -0.00000000000E+00 -0.26898756530E+02  0.26898756530E+02  0.00000000000E+00 0.  1.
         25    2    1    2    0    0 -0.59069376819E+02 -0.78935687334E+02  0.87070280459E+03  0.88515015281E+03  0.12508950827E+03 0.  0.
          5    1    3    3  502    0 -0.13726945766E+02 -0.56700859256E+02  0.77187994009E+03  0.77409271459E+03  0.41800000000E+01 0.  1.
         -5    1    3    3    0  502 -0.45342431053E+02 -0.22234828078E+02  0.98822864503E+02  0.11105743821E+03  0.41800000000E+01 0.  1.
        -11    1    1    2    0    0  0.79853746374E+02  0.78780183981E+02  0.16179404717E+03  0.19687623498E+03  0.00000000000E+00 0.  1.
         11    1    1    2    0    0 -0.20784369556E+02  0.15550335309E+00  0.48477131825E+02  0.52745108864E+02  0.00000000000E+00 0. -1.
</event>
<event>
 7    1  0.2728221E-009  0.1234744E+03  0.7561462E-02  0.1237473E+00
          3   -1    0    0  501    0  0.00000000000E+00  0.00000000000E+00  0.76926096702E+02  0.76926096702E+02  0.00000000000E+00 0. -1.
         -3   -1    0    0    0  501 -0.00000000000E+00 -0.00000000000E+00 -0.28260466435E+03  0.28260466435E+03  0.00000000000E+00 0.  1.
         25    2    1    2    0    0 -0.66238625419E+02  0.49251144289E+02 -0.17873152043E+03  0.23325046015E+03  0.12509032758E+03 0.  0.
          5    1    3    3  502    0 -0.53891247108E+02  0.80857645164E+02 -0.71538442335E+02  0.12073709632E+03  0.41800000000E+01 0. -1.
         -5    1    3    3    0  502 -0.12347378311E+02 -0.31606500875E+02 -0.10719307809E+03  0.11251336383E+03  0.41800000000E+01 0. -1.
        -11    1    1    2    0    0 -0.18142095750E+02 -0.71847286923E+00  0.11641892484E+02  0.21568159450E+02  0.00000000000E+00 0. -1.
         11    1    1    2    0    0  0.84380721169E+02 -0.48532671420E+02 -0.38588939703E+02  0.10471214145E+03  0.00000000000E+00 0.  1.
</event>
<event>
 7    1  0.2847551E-009  0.1817681E+03  0.7561462E-02  0.1166103E+00
          2   -1    0    0  501    0  0.00000000000E+00  0.00000000000E+00  0.80317330751E+03  0.80317330751E+03  0.00000000000E+00 0. -1.
         -2   -1    0    0    0  501 -0.00000000000E+00 -0.00000000000E+00 -0.67978868407E+02  0.67978868407E+02  0.00000000000E+00 0.  1.
         25    2    1    2    0    0 -0.57077651651E+02 -0.15823802289E+03  0.15647574841E+03  0.26158917235E+03  0.12508838892E+03 0.  0.
          5    1    3    3  502    0 -0.40958761799E+02 -0.40226675142E+02 -0.83769994310E+01  0.58167448634E+02  0.41800000000E+01 0. -1.
         -5    1    3    3    0  502 -0.16118889852E+02 -0.11801134774E+03  0.16485274784E+03  0.20342172371E+03  0.41800000000E+01 0. -1.
        -11    1    1    2    0    0  0.38689515189E+02  0.13626860988E+02  0.19076763673E+03  0.19512780722E+03  0.00000000000E+00 0. -1.
         11    1    1    2    0    0  0.18388136462E+02  0.14461116190E+03  0.38795105396E+03  0.41443519636E+03  0.00000000000E+00 0.  1.
</event>
<event>
 7    1  0.2728221E-009  0.1014446E+03  0.7561462E-02  0.1277287E+00
          2   -1    0    0  501    0  0.00000000000E+00  0.00000000000E+00  0.11572206934E+04  0.11572206934E+04  0.00000000000E+00 0. -1.
         -2   -1    0    0    0  501 -0.00000000000E+00 -0.00000000000E+00 -0.15283933261E+02  0.15283933261E+02  0.00000000000E+00 0.  1.
         25    2    1    2    0    0 -0.45648865477E+01 -0.34737855982E+02  0.93153785017E+03  0.94055213349E+03  0.12509193695E+03 0.  0.
          5    1    3    3  502    0 -0.22219760175E+02  0.41622546836E+02  0.24451593190E+03  0.24906157371E+03  0.41800000000E+01 0.  1.
         -5    1    3    3    0  502  0.17654873627E+02 -0.76360402818E+02  0.68702191827E+03  0.69149055978E+03  0.41800000000E+01 0.  1.
        -11    1    1    2    0    0  0.25354226325E+01 -0.21054613974E+02  0.91382344330E+01  0.23091826824E+02  0.00000000000E+00 0.  1.
         11    1    1    2    0    0  0.20294639152E+01  0.55792469956E+02  0.20126067551E+03  0.20886066631E+03  0.00000000000E+00 0. -1.
</event>
<event>
 7    1  0.2728221E-009  0.9617145E+02  0.7561462E-02  0.1288559E+00
          4   -1    0    0  501    0  0.00000000000E+00  0.00000000000E+00  0.10575977367E+03  0.10575977367E+03  0.00000000000E+00 0. -1.
         -4   -1    0    0    0  501 -0.00000000000E+00 -0.00000000000E+00 -0.14111316828E+03  0.14111316828E+03  0.00000000000E+00 0.  1.
         25    2    1    2    0    0 -0.51853670012E+02 -0.18446648057E+02  0.23949773398E+02  0.13874305286E+03  0.12508781377E+03 0.  0.
          5    1    3    3  502    0 -0.93221979716E+02 -0.94611552749E+01  0.20904663459E+02  0.96095412563E+02  0.41800000000E+01 0.  1.
         -5    1    3    3    0  502  0.41368309704E+02 -0.89854927821E+01  0.30451099386E+01  0.42647640296E+02  0.41800000000E+01 0.  1.
        -11    1    1    2    0    0  0.39754460786E+02  0.92606308158E+01  0.58439541580E+01  0.41235036507E+02  0.00000000000E+00 0. -1.
         11    1    1    2    0    0  0.12099209226E+02  0.91860172412E+01 -0.65147122166E+02  0.66894852591E+02  0.00000000000E+00 0.  1.
</event>
<event>
 7    1  0.2728221E-009  0.9616703E+02  0.7561462E-02  0.1288569E+00
         -2   -1    0    0    0  501 -0.00000000000E+00  0.00000000000E+00  0.24822199363E+02  0.24822199363E+02  0.00000000000E+00 0.  1.
          2   -1    0    0  501    0  0.00000000000E+00 -0.00000000000E+00 -0.83429603023E+03  0.83429603023E+03  0.00000000000E+00 0. -1.
         25    2    1    2    0    0 -0.14807268812E+02 -0.69961922455E+02 -0.62367720509E+03  0.64010418654E+03  0.12508472196E+03 0.  0.
          5    1    3    3  502    0  0.35326714009E+02 -0.52112080635E+02 -0.51680246941E+03  0.52063990479E+03  0.41800000000E+01 0.  1.
         -5    1    3    3    0  502 -0.50133982821E+02 -0.17849841820E+02 -0.10687473568E+03  0.11946428175E+03  0.41800000000E+01 0.  1.
        -11    1    1    2    0    0  0.54628860029E+01  0.65090344823E+02 -0.19460803095E+03  0.20527757263E+03  0.00000000000E+00 0. -1.
         11    1    1    2    0    0  0.93443828090E+01  0.48715776323E+01  0.88114051760E+01  0.13736470430E+02  0.00000000000E+00 0.  1.
</event>
<event>
 7    1  0.2728221E-009  0.7186871E+02  0.7561462E-02  0.1353851E+00
          1   -1    0    0  501    0  0.00000000000E+00  0.00000000000E+00  0.45598830792E+03  0.45598830792E+03  0.00000000000E+00 0. -1.
         -1   -1    0    0    0  501 -0.00000000000E+00 -0.00000000000E+00 -0.30537170842E+02  0.30537170842E+02  0.00000000000E+00 0.  1.
         25    2    1    2    0    0 -0.16980741631E+02  0.36596447623E+02  0.29501013727E+03  0.32296414802E+03  0.12508882544E+03 0.  0.
          5    1    3    3  502    0 -0.20448167551E+02  0.27057263896E+02  0.71711227071E+01  0.34915905926E+02  0.41800000000E+01 0.  1.
         -5    1    3    3    0  502  0.34674259207E+01  0.95391837266E+01  0.28783901457E+03  0.28804824210E+03  0.41800000000E+01 0.  1.
        -11    1    1    2    0    0 -0.32437556394E+02  0.64251972473E+01  0.40500889894E+02  0.52285756251E+02  0.00000000000E+00 0. -1.
         11    1    1    2    0    0  0.49418298025E+02 -0.43021644870E+02  0.89940109911E+02  0.11127557449E+03  0.00000000000E+00 0.  1.
</event>
<event>
 7    1  0.2728221E-009  0.8992079E+02  0.7561462E-02  0.1303044E+00
         -2   -1    0    0    0  501 -0.00000000000E+00  0.00000000000E+00  0.74345641130E+02  0.74345641130E+02  0.00000000000E+00 0.  1.
          2   -1    0    0  501    0  0.00000000000E+00 -0.00000000000E+00 -0.22136101223E+03  0.22136101223E+03  0.00000000000E+00 0. -1.
         25    2    1    2    0    0 -0.32035070632E+02  0.42120203765E+02 -0.30547225371E+02  0.13922994433E+03  0.12510590355E+03 0.  0.
          5    1    3    3  502    0  0.26767357622E+02  0.56353139468E+02  0.13884923400E+02  0.64050224510E+02  0.41800000000E+01 0.  1.
         -5    1    3    3    0  502 -0.58802428254E+02 -0.14232935704E+02 -0.44432148771E+02  0.75179719817E+02  0.41800000000E+01 0.  1.
        -11    1    1    2    0    0  0.26754446241E+02 -0.18650835934E+02  0.46937892405E+01  0.32949745555E+02  0.00000000000E+00 0.  1.
         11    1    1    2    0    0  0.52806243910E+01 -0.23469367830E+02 -0.12116193497E+03  0.12352696347E+03  0.00000000000E+00 0. -1.
</event>
<event>
 7    1  0.2728221E-009  0.1778901E+03  0.7561462E-02  0.1169861E+00
         -1   -1    0    0    0  501 -0.00000000000E+00  0.00000000000E+00  0.54322489041E+02  0.54322489041E+02  0.00000000000E+00 0.  1.
          1   -1    0    0  501    0  0.00000000000E+00 -0.00000000000E+00 -0.87826680798E+03  0.87826680798E+03  0.00000000000E+00 0. -1.
         25    2    1    2    0    0 -0.17710514906E+02 -0.16673998922E+03 -0.24219653194E+03  0.32003619463E+03  0.12509244360E+03 0.  0.
          5    1    3    3  502    0  0.26800470455E+02 -0.88957155444E+02 -0.20067601387E+03  0.22117860580E+03  0.41800000000E+01 0.  1.
         -5    1    3    3    0  502 -0.44510985361E+02 -0.77782833775E+02 -0.41520518068E+02  0.98857588826E+02  0.41800000000E+01 0.  1.
        -11    1    1    2    0    0 -0.13706596694E+02  0.70687360553E+02 -0.12058445518E+03  0.14044637612E+03  0.00000000000E+00 0.  1.
         11    1    1    2    0    0  0.31417111600E+02  0.96052628666E+02 -0.46116333182E+03  0.47210672627E+03  0.00000000000E+00 0. -1.
</event>
<event>
 7    1  0.2728221E-009  0.1117573E+03  0.7561462E-02  0.1257350E+00
          1   -1    0    0  501    0  0.00000000000E+00  0.00000000000E+00  0.72586205950E+03  0.72586205950E+03  0.00000000000E+00 0. -1.
         -1   -1    0    0    0  501 -0.00000000000E+00 -0.00000000000E+00 -0.32293664311E+02  0.32293664311E+02  0.00000000000E+00 0.  1.
         25    2    1    2    0    0 -0.32939616907E+02  0.48319760621E+02  0.59964420924E+03  0.61533870565E+03  0.12509487348E+03 0.  0.
          5    1    3    3  502    0  0.24375361517E+02 -0.31075528987E+02  0.19378584378E+03  0.19781373158E+03  0.41800000000E+01 0.  1.
         -5    1    3    3    0  502 -0.57314978423E+02  0.79395289608E+02  0.40585836545E+03  0.41752497407E+03  0.41800000000E+01 0.  1.
        -11    1    1    2    0    0  0.51870383530E+02 -0.33512231769E+02  0.10044849753E+03  0.11791313338E+03  0.00000000000E+00 0. -1.
         11    1    1    2    0    0 -0.18930766624E+02 -0.14807528853E+02 -0.65243115830E+01  0.24903884783E+02  0.00000000000E+00 0.  1.
</event>
<event>
 7    1  0.2728221E-009  0.8327123E+02  0.7561462E-02  0.1320016E+00
          2   -1    0    0  501    0  0.00000000000E+00  0.00000000000E+00  0.52519418439E+03  0.52519418439E+03  0.00000000000E+00 0. -1.
         -2   -1    0    0    0  501 -0.00000000000E+00 -0.00000000000E+00 -0.21877688966E+02  0.21877688966E+02  0.00000000000E+00 0.  1.
         25    2    1    2    0    0 -0.76331145472E+01 -0.76259257285E+01  0.30905946328E+03  0.33358941160E+03  0.12509086501E+03 0.  0.
          5    1    3    3  502    0 -0.33448878218E+02 -0.45564292266E+02  0.69704372155E+02  0.89839323691E+02  0.41800000000E+01 0.  1.
         -5    1    3    3    0  502  0.25815763671E+02  0.37938366538E+02  0.23935509113E+03  0.24375008791E+03  0.41800000000E+01 0.  1.
        -11    1    1    2    0    0  0.27958531525E+02 -0.16322730156E+02  0.23866688573E+02  0.40221012272E+02  0.00000000000E+00 0.  1.
         11    1    1    2    0    0 -0.20325416977E+02  0.23948655884E+02  0.17039034357E+03  0.17326144948E+03  0.00000000000E+00 0. -1.
</event>
<event>
 7    1  0.2728221E-009  0.1430002E+03  0.7561462E-02  0.1209348E+00
         -1   -1    0    0    0  501 -0.00000000000E+00  0.00000000000E+00  0.24035067923E+02  0.24035067923E+02  0.00000000000E+00 0.  1.
          1   -1    0    0  501    0  0.00000000000E+00 -0.00000000000E+00 -0.17287724714E+04  0.17287724714E+04  0.00000000000E+00 0. -1.
         25    2    1    2    0    0 -0.59740700985E+01  0.11514698092E+03 -0.14391499366E+04  0.14491702565E+04  0.12508946933E+03 0.  0.
          5    1    3    3  502    0  0.31039560492E+02  0.95993657701E+02 -0.12984019566E+04  0.13023222911E+04  0.41800000000E+01 0. -1.
         -5    1    3    3    0  502 -0.37013630591E+02  0.19153323217E+02 -0.14074798008E+03  0.14684796538E+03  0.41800000000E+01 0. -1.
        -11    1    1    2    0    0  0.37073559537E+02 -0.18143728252E+02 -0.47470382673E+02  0.62905333023E+02  0.00000000000E+00 0.  1.
         11    1    1    2    0    0 -0.31099489438E+02 -0.97003252666E+02 -0.21811708415E+03  0.24073194983E+03  0.00000000000E+00 0. -1.
</event>
<event>
 7    1  0.2728221E-009  0.9064367E+02  0.7561462E-02  0.1301300E+00
          1   -1    0    0  501    0  0.00000000000E+00  0.00000000000E+00  0.19910280239E+03  0.19910280239E+03  0.00000000000E+00 0. -1.
         -1   -1    0    0    0  501 -0.00000000000E+00 -0.00000000000E+00 -0.14058963631E+03  0.14058963631E+03  0.00000000000E+00 0.  1.
         25    2    1    2    0    0  0.24676981398E+01 -0.14330508960E+02  0.15871752939E+03  0.20260669450E+03  0.12508703169E+03 0.  0.
          5    1    3    3  502    0  0.15604465576E+02 -0.56892048432E+02  0.29957558993E+02  0.66295793694E+02  0.41800000000E+01 0.  1.
         -5    1    3    3    0  502 -0.13136767436E+02  0.42561539472E+02  0.12875997040E+03  0.13631090080E+03  0.41800000000E+01 0.  1.
        -11    1    1    2    0    0  0.23586000213E+02  0.36325615241E+02 -0.92488141681E+02  0.10212691164E+03  0.00000000000E+00 0.  1.
         11    1    1    2    0    0 -0.26053698353E+02 -0.21995106281E+02 -0.77162216343E+01  0.34958832567E+02  0.00000000000E+00 0. -1.
</event>
<event>
 7    1  0.2728221E-009  0.1122851E+03  0.7561462E-02  0.1256396E+00
         -2   -1    0    0    0  501 -0.00000000000E+00  0.00000000000E+00  0.27251891639E+02  0.27251891639E+02  0.00000000000E+00 0.  1.
          2   -1    0    0  501    0  0.00000000000E+00 -0.00000000000E+00 -0.73269990169E+03  0.73269990169E+03  0.00000000000E+00 0. -1.
         25    2    1    2    0    0  0.24841525515E+02 -0.88562935072E+02 -0.37087323164E+03  0.40206414299E+03  0.12509247091E+03 0.  0.
          5    1    3    3  502    0 -0.22362309919E+02 -0.41228057589E+02 -0.30325134340E+03  0.30688544330E+03  0.41800000000E+01 0. -1.
         -5    1    3    3    0  502  0.47203835434E+02 -0.47334877483E+02 -0.67621888235E+02  0.95178699689E+02  0.41800000000E+01 0. -1.
        -11    1    1    2    0    0  0.12342036142E+02  0.65706584228E+02 -0.10703052120E+03  0.12619514070E+03  0.00000000000E+00 0.  1.
         11    1    1    2    0    0 -0.37183561657E+02  0.22856350844E+02 -0.22754425721E+03  0.23169250964E+03  0.00000000000E+00 0. -1.
</event>
<event>
 7    1  0.3026372E-009  0.1408542E+03  0.7561462E-02  0.1212184E+00
         -2   -1    0    0    0  501 -0.00000000000E+00  0.00000000000E+00  0.35069382682E+02  0.35069382682E+02  0.00000000000E+00 0.  1.
          2   -1    0    0  501    0  0.00000000000E+00 -0.00000000000E+00 -0.65644886169E+03  0.65644886169E+03  0.00000000000E+00 0. -1.
         25    2    1    2    0    0 -0.10182465128E+03 -0.47346905670E+01 -0.27423208882E+03  0.31818359303E+03  0.12508750310E+03 0.  0.
          5    1    3    3  502    0  0.21851782218E+02  0.24532887540E+02 -0.72686460524E+02  0.79875884350E+02  0.41800000000E+01 0.  1.
         -5    1    3    3    0  502 -0.12367643349E+03 -0.29267578107E+02 -0.20154562830E+03  0.23830770868E+03  0.41800000000E+01 0.  1.
        -11    1    1    2    0    0  0.62575911064E+02 -0.29653500471E+02 -0.10605693279E+03  0.12666154795E+03  0.00000000000E+00 0.  1.
         11    1    1    2    0    0  0.39248740214E+02  0.34388191038E+02 -0.24109045740E+03  0.24667310339E+03  0.00000000000E+00 0. -1.
</event>
<event>
 7    1  0.2728221E-009  0.8290852E+02  0.7561462E-02  0.1320994E+00
         -2   -1    0    0    0  501 -0.00000000000E+00  0.00000000000E+00  0.73515480968E+02  0.73515480968E+02  0.00000000000E+00 0.  1.
          2   -1    0    0  501    0  0.00000000000E+00 -0.00000000000E+00 -0.22690870160E+03  0.22690870160E+03  0.00000000000E+00 0. -1.
         25    2    1    2    0    0 -0.77096590733E+02 -0.33509728277E+01 -0.39877065764E+02  0.15228919514E+03  0.12508679091E+03 0.  0.
          5    1    3    3  502    0 -0.37275359896E+01 -0.10516230902E+02  0.41047582590E+02  0.42741807091E+02  0.41800000000E+01 0.  1.
         -5    1    3    3    0  502 -0.73369054744E+02  0.71652580743E+01 -0.80924648353E+02  0.10954738805E+03  0.41800000000E+01 0.  1.
        -11    1    1    2    0    0  0.13839322280E+02  0.90762512915E+01 -0.68023568233E+02  0.70007935363E+02  0.00000000000E+00 0. -1.
         11    1    1    2    0    0  0.63257268453E+02 -0.57252784638E+01 -0.45492586637E+02  0.78127052066E+02  0.00000000000E+00 0.  1.
</event>
<event>
 7    1  0.2728221E-009  0.8345737E+02  0.7561462E-02  0.1319517E+00
          1   -1    0    0  501    0  0.00000000000E+00  0.00000000000E+00  0.71600823168E+02  0.71600823168E+02  0.00000000000E+00 0. -1.
         -1   -1    0    0    0  501 -0.00000000000E+00 -0.00000000000E+00 -0.20851833918E+03  0.20851833918E+03  0.00000000000E+00 0.  1.
         25    2    1    2    0    0  0.19536717088E+02 -0.33247161941E+02 -0.33362360067E+02  0.13506873145E+03  0.12507381042E+03 0.  0.
          5    1    3    3  502    0 -0.16730902309E+02  0.36456140500E+02  0.14631822627E+02  0.42901467407E+02  0.41800000000E+01 0.  1.
         -5    1    3    3    0  502  0.36267619397E+02 -0.69703302442E+02 -0.47994182694E+02  0.92167264039E+02  0.41800000000E+01 0.  1.
        -11    1    1    2    0    0  0.40769495596E+01  0.20821603186E+02 -0.11432390802E+03  0.11627603631E+03  0.00000000000E+00 0.  1.
         11    1    1    2    0    0 -0.23613666648E+02  0.12425558756E+02  0.10768752068E+02  0.28774394590E+02  0.00000000000E+00 0. -1.
</event>
<event>
 7    1  0.2728221E-009  0.1719375E+03  0.7561462E-02  0.1175842E+00
          2   -1    0    0  501    0  0.00000000000E+00  0.00000000000E+00  0.46695606885E+02  0.46695606885E+02  0.00000000000E+00 0. -1.
         -2   -1    0    0    0  501 -0.00000000000E+00 -0.00000000000E+00 -0.69268549070E+03  0.69268549070E+03  0.00000000000E+00 0.  1.
         25    2    1    2    0    0 -0.12874168214E+03  0.47899772224E+02 -0.42407067989E+03  0.46298174399E+03  0.12508934735E+03 0.  0.
          5    1    3    3  502    0 -0.13877740033E+03  0.69728009350E+01 -0.27685409964E+03  0.30979582257E+03  0.41800000000E+01 0.  1.
         -5    1    3    3    0  502  0.10035718190E+02  0.40926971289E+02 -0.14721658025E+03  0.15318592141E+03  0.41800000000E+01 0.  1.
        -11    1    1    2    0    0  0.84589291740E+02  0.14752894815E+02 -0.13983123927E+03  0.16409074215E+03  0.00000000000E+00 0.  1.
         11    1    1    2    0    0  0.44152390400E+02 -0.62652667039E+02 -0.82087964644E+02  0.11230861144E+03  0.00000000000E+00 0. -1.
</event>
<event>
 7    1  0.2728221E-009  0.5581191E+02  0.7561462E-02  0.1416298E+00
         -2   -1    0    0    0  501 -0.00000000000E+00  0.00000000000E+00  0.10289647620E+03  0.10289647620E+03  0.00000000000E+00 0.  1.
          2   -1    0    0  501    0  0.00000000000E+00 -0.00000000000E+00 -0.13533796652E+03  0.13533796652E+03  0.00000000000E+00 0. -1.
         25    2    1    2    0    0  0.20879542457E+02 -0.40788750628E+02 -0.99431445274E+01  0.13358482725E+03  0.12508542072E+03 0.  0.
          5    1    3    3  502    0  0.22041969398E+02 -0.22543518078E+02 -0.66654184514E+02  0.73853309577E+02  0.41800000000E+01 0.  1.
         -5    1    3    3    0  502 -0.11624269403E+01 -0.18245232550E+02  0.56711039987E+02  0.59731517673E+02  0.41800000000E+01 0.  1.
        -11    1    1    2    0    0  0.89354568574E+01  0.26572089733E+02  0.30987200011E+02  0.41786659432E+02  0.00000000000E+00 0.  1.
         11    1    1    2    0    0 -0.29814999315E+02  0.14216660895E+02 -0.53485545809E+02  0.62862956036E+02  0.00000000000E+00 0. -1.
</event>
<event>
 7    1  0.2728221E-009  0.5966245E+02  0.7561462E-02  0.1399254E+00
         -1   -1    0    0    0  501 -0.00000000000E+00  0.00000000000E+00  0.29885481410E+03  0.29885481410E+03  0.00000000000E+00 0.  1.
          1   -1    0    0  501    0  0.00000000000E+00 -0.00000000000E+00 -0.46083523154E+02  0.46083523154E+02  0.00000000000E+00 0. -1.
         25    2    1    2    0    0  0.20099306625E+02  0.39684436605E+02  0.15006992561E+03  0.20036809440E+03  0.12509018364E+03 0.  0.
          5    1    3    3  502    0 -0.35240073958E+01  0.61184892381E+01  0.15811959887E+03  0.15833235451E+03  0.41800000000E+01 0.  1.
         -5    1    3    3    0  502  0.23623314021E+02  0.33565947367E+02 -0.80496732602E+01  0.42035739883E+02  0.41800000000E+01 0.  1.
        -11    1    1    2    0    0 -0.21311030291E+02  0.75521962967E+01  0.93800644046E+02  0.96487079469E+02  0.00000000000E+00 0.  1.
         11    1    1    2    0    0  0.12117236658E+01 -0.47236632902E+02  0.89007212912E+01  0.48083163390E+02  0.00000000000E+00 0. -1.
</event>
<event>
 7    1  0.2728221E-009  0.1245317E+03  0.7561462E-02  0.1235803E+00
         -4   -1    0    0    0  501 -0.00000000000E+00  0.00000000000E+00  0.14988960396E+03  0.14988960396E+03  0.00000000000E+00 0.  1.
          4   -1    0    0  501    0  0.00000000000E+00 -0.00000000000E+00 -0.14089069814E+03  0.14089069814E+03  0.00000000000E+00 0. -1.
         25    2    1    2    0    0 -0.80858362879E+02 -0.41004645401E+02  0.37917685041E+02  0.15907541508E+03  0.12509109102E+03 0.  0.
          5    1    3    3  502    0 -0.81704990614E+01  0.40941892303E+02 -0.30095047498E+01  0.42065723803E+02  0.41800000000E+01 0.  1.
         -5    1    3    3    0  502 -0.72687863817E+02 -0.81946537704E+02  0.40927189791E+02  0.11700969127E+03  0.41800000000E+01 0.  1.
        -11    1    1    2    0    0  0.10997311616E+02  0.22768093204E+02  0.29482661262E+02  0.38840111303E+02  0.00000000000E+00 0.  1.
         11    1    1    2    0    0  0.69861051263E+02  0.18236552197E+02 -0.58401440484E+02  0.92864775724E+02  0.00000000000E+00 0. -1.
</event>
<event>
 7    1  0.2728221E-009  0.1379929E+03  0.7561462E-02  0.1216055E+00
         -1   -1    0    0    0  501 -0.00000000000E+00  0.00000000000E+00  0.19121456135E+02  0.19121456135E+02  0.00000000000E+00 0.  1.
          1   -1    0    0  501    0  0.00000000000E+00 -0.00000000000E+00 -0.21205318189E+04  0.21205318189E+04  0.00000000000E+00 0. -1.
         25    2    1    2    0    0 -0.77384945328E+01 -0.12015523642E+03 -0.17338113539E+04  0.17424829490E+04  0.12509137275E+03 0.  0.
          5    1    3    3  502    0  0.15307954195E+02 -0.11461196758E+03 -0.79626222347E+03  0.80462490485E+03  0.41800000000E+01 0.  1.
         -5    1    3    3    0  502 -0.23046448727E+02 -0.55432688381E+01 -0.93754913047E+03  0.93785804420E+03  0.41800000000E+01 0.  1.
        -11    1    1    2    0    0 -0.16407236570E+02  0.10788701491E+03 -0.34515525363E+03  0.36199579349E+03  0.00000000000E+00 0. -1.
         11    1    1    2    0    0  0.24145731103E+02  0.12268221507E+02 -0.22443755216E+02  0.35174532515E+02  0.00000000000E+00 0.  1.
</event>
<event>
 7    1  0.2738847E-009  0.1688990E+03  0.7561462E-02  0.1179001E+00
          2   -1    0    0  501    0  0.00000000000E+00  0.00000000000E+00  0.20483287069E+04  0.20483287069E+04  0.00000000000E+00 0. -1.
         -2   -1    0    0    0  501 -0.00000000000E+00 -0.00000000000E+00 -0.16872316408E+02  0.16872316408E+02  0.00000000000E+00 0.  1.
         25    2    1    2    0    0 -0.12215292595E+02 -0.12902583536E+03  0.14971901119E+04  0.15079862847E+04  0.12509006407E+03 0.  0.
          5    1    3    3  502    0  0.54320258583E+02 -0.82302242828E+02  0.82942996345E+03  0.83528192027E+03  0.41800000000E+01 0. -1.
         -5    1    3    3    0  502 -0.66535551178E+02 -0.46723592529E+02  0.66776014844E+03  0.67270436442E+03  0.41800000000E+01 0. -1.
        -11    1    1    2    0    0  0.50199513362E+02  0.91073949571E+02  0.32917414469E+03  0.34521018665E+03  0.00000000000E+00 0.  1.
         11    1    1    2    0    0 -0.37984220767E+02  0.37951885785E+02  0.20509213396E+03  0.21200455201E+03  0.00000000000E+00 0. -1.
</event>
<event>
 7    1  0.2728221E-009  0.1012575E+03  0.7561462E-02  0.1277674E+00
         -2   -1    0    0    0  501 -0.00000000000E+00  0.00000000000E+00  0.62552494599E+02  0.62552494599E+02  0.00000000000E+00 0.  1.
          2   -1    0    0  501    0  0.00000000000E+00 -0.00000000000E+00 -0.28548196592E+03  0.28548196592E+03  0.00000000000E+00 0. -1.
         25    2    1    2    0    0 -0.19610278378E+01 -0.68773315049E+02 -0.17563913461E+03  0.22634674799E+03  0.12510048052E+03 0.  0.
          5    1    3    3  502    0  0.48320726274E+02 -0.62248003394E+02 -0.57259550144E+02  0.97497871756E+02  0.41800000000E+01 0.  1.
         -5    1    3    3    0  502 -0.50281754112E+02 -0.65253116547E+01 -0.11837958447E+03  0.12884887624E+03  0.41800000000E+01 0.  1.
        -11    1    1    2    0    0 -0.10724900795E+02  0.36736712576E+02  0.22114506169E+02  0.44200236776E+02  0.00000000000E+00 0.  1.
         11    1    1    2    0    0  0.12685928633E+02  0.32036602473E+02 -0.69404842876E+02  0.77487475749E+02  0.00000000000E+00 0. -1.
</event>
<event>
 7    1  0.2728221E-009  0.2088342E+03  0.7561462E-02  0.1142493E+00
         -1   -1    0    0    0  501 -0.00000000000E+00  0.00000000000E+00  0.42823843357E+02  0.42823843357E+02  0.00000000000E+00 0.  1.
          1   -1    0    0  501    0  0.00000000000E+00 -0.00000000000E+00 -0.12836458722E+04  0.12836458722E+04  0.00000000000E+00 0. -1.
         25    2    1    2    0    0 -0.25308005283E+02  0.18942050970E+03 -0.87603414306E+03  0.90532071992E+03  0.12509660860E+03 0.  0.
          5    1    3    3  502    0  0.37105054720E+02  0.59122953546E+02 -0.15647480882E+03  0.17138887629E+03  0.41800000000E+01 0. -1.
         -5    1    3    3    0  502 -0.62413060004E+02  0.13029755616E+03 -0.71955933424E+03  0.73393184363E+03  0.41800000000E+01 0. -1.
        -11    1    1    2    0    0 -0.16049393181E+02 -0.12895590985E+03 -0.17702761342E+03  0.21960415665E+03  0.00000000000E+00 0. -1.
         11    1    1    2    0    0  0.41357398464E+02 -0.60464599856E+02 -0.18776027241E+03  0.20154483903E+03  0.00000000000E+00 0.  1.
</event>
<event>
 7    1  0.2728221E-009  0.1235623E+03  0.7561462E-02  0.1237333E+00
          2   -1    0    0  501    0  0.00000000000E+00  0.00000000000E+00  0.66917837179E+03  0.66917837179E+03  0.00000000000E+00 0. -1.
         -2   -1    0    0    0  501 -0.00000000000E+00 -0.00000000000E+00 -0.28239728754E+02  0.28239728754E+02  0.00000000000E+00 0.  1.
         25    2    1    2    0    0  0.36856456693E+02  0.67268002468E+02  0.28014553901E+03  0.31624817932E+03  0.12509198751E+03 0.  0.
          5    1    3    3  502    0  0.72100773963E+02  0.81023065376E+02  0.20138067014E+03  0.22876823520E+03  0.41800000000E+01 0.  1.
         -5    1    3    3    0  502 -0.35244317270E+02 -0.13755062908E+02  0.78764868868E+02  0.87479944120E+02  0.41800000000E+01 0.  1.
        -11    1    1    2    0    0  0.13562199634E+02  0.31422093942E+01  0.46935451237E+01  0.14691361565E+02  0.00000000000E+00 0.  1.
         11    1    1    2    0    0 -0.50418656327E+02 -0.70410211862E+02  0.35609955890E+03  0.36647855966E+03  0.00000000000E+00 0. -1.
</event>
<event>
 7    1  0.2728221E-009  0.4093208E+03  0.7561462E-02  0.1040599E+00
          2   -1    0    0  501    0  0.00000000000E+00  0.00000000000E+00  0.98139705823E+03  0.98139705823E+03  0.00000000000E+00 0.  1.
         -2   -1    0    0    0  501 -0.00000000000E+00 -0.00000000000E+00 -0.18868233728E+03  0.18868233728E+03  0.00000000000E+00 0. -1.
         25    2    1    2    0    0 -0.54483762196E+02  0.39943827844E+03  0.53880673206E+03  0.68445514680E+03  0.12508690920E+03 0.  0.
          5    1    3    3  502    0 -0.13351900151E+02  0.35320439571E+03  0.40894032056E+03  0.54053795109E+03  0.41800000000E+01 0.  1.
         -5    1    3    3    0  502 -0.41131862045E+02  0.46233882721E+02  0.12986641150E+03  0.14391719571E+03  0.41800000000E+01 0.  1.
        -11    1    1    2    0    0  0.19826828443E+02 -0.14541403692E+03  0.14740209595E+03  0.20800414214E+03  0.00000000000E+00 0. -1.
         11    1    1    2    0    0  0.34656933754E+02 -0.25402424152E+03  0.10650589296E+03  0.27762010657E+03  0.00000000000E+00 0.  1.
</event>
<event>
 7    1  0.2728221E-009  0.1538916E+03  0.7561462E-02  0.1195771E+00
         -1   -1    0    0    0  501 -0.00000000000E+00  0.00000000000E+00  0.18278866319E+03  0.18278866319E+03  0.00000000000E+00 0.  1.
          1   -1    0    0  501    0  0.00000000000E+00 -0.00000000000E+00 -0.20061301903E+03  0.20061301903E+03  0.00000000000E+00 0. -1.
         25    2    1    2    0    0  0.12211691340E+03 -0.18594566299E+02 -0.10677665454E+03  0.20568684888E+03  0.12509007719E+03 0.  0.
          5    1    3    3  502    0  0.58895965139E+02 -0.58888636358E+02 -0.11194980492E+02  0.84139207211E+02  0.41800000000E+01 0. -1.
         -5    1    3    3    0  502  0.63220948264E+02  0.40294070059E+02 -0.95581674046E+02  0.12154764167E+03  0.41800000000E+01 0. -1.
        -11    1    1    2    0    0  0.33871997757E+01  0.23463816820E+02  0.31954220341E+02  0.39788139184E+02  0.00000000000E+00 0.  1.
         11    1    1    2    0    0 -0.12550411318E+03 -0.48692505213E+01  0.56998078362E+02  0.13792669416E+03  0.00000000000E+00 0. -1.
</event>
<event>
 7    1  0.2728221E-009  0.2307050E+03  0.7561462E-02  0.1126145E+00
          1   -1    0    0  501    0  0.00000000000E+00  0.00000000000E+00  0.34296254948E+03  0.34296254948E+03  0.00000000000E+00 0. -1.
         -1   -1    0    0    0  501 -0.00000000000E+00 -0.00000000000E+00 -0.21493863433E+03  0.21493863433E+03  0.00000000000E+00 0.  1.
         25    2    1    2    0    0 -0.11363541776E+03 -0.19298427545E+03  0.17675880309E+03  0.31152177920E+03  0.12508479408E+03 0.  0.
          5    1    3    3  502    0 -0.99909596964E+01 -0.91610080236E+02  0.13647555466E+02  0.93252100495E+02  0.41800000000E+01 0. -1.
         -5    1    3    3    0  502 -0.10364445807E+03 -0.10137419521E+03  0.16311124762E+03  0.21826967871E+03  0.41800000000E+01 0. -1.
        -11    1    1    2    0    0  0.36238041037E+02  0.69686383281E+02 -0.62185745991E+02  0.10018210737E+03  0.00000000000E+00 0.  1.
         11    1    1    2    0    0  0.77397376728E+02  0.12329789216E+03  0.13450858051E+02  0.14619729724E+03  0.00000000000E+00 0. -1.
</event>
<event>
 7    1  0.2728221E-009  0.1597081E+03  0.7561462E-02  0.1189027E+00
          2   -1    0    0  501    0  0.00000000000E+00  0.00000000000E+00  0.15777730938E+04  0.15777730938E+04  0.00000000000E+00 0. -1.
         -2   -1    0    0    0  501 -0.00000000000E+00 -0.00000000000E+00 -0.22243019385E+02  0.22243019385E+02  0.00000000000E+00 0.  1.
         25    2    1    2    0    0 -0.12081223292E+03 -0.22411862647E+02  0.11995272085E+04  0.12122750459E+04  0.12508947126E+03 0.  0.
          5    1    3    3  502    0 -0.71292519521E+02  0.44790900442E+02  0.42716289514E+03  0.43540149228E+03  0.41800000000E+01 0. -1.
         -5    1    3    3    0  502 -0.49519713398E+02 -0.67202763088E+02  0.77236431339E+03  0.77687355366E+03  0.41800000000E+01 0. -1.
        -11    1    1    2    0    0 -0.25347539900E+01 -0.20712716761E+02  0.30166856165E+02  0.36680796396E+02  0.00000000000E+00 0.  1.
         11    1    1    2    0    0  0.12334698691E+03  0.43124579408E+02  0.32583600968E+03  0.35106027080E+03  0.00000000000E+00 0. -1.
</event>
<event>
 7    1  0.2728221E-009  0.1738958E+03  0.7561462E-02  0.1173845E+00
          2   -1    0    0  501    0  0.00000000000E+00  0.00000000000E+00  0.98286983625E+02  0.98286983625E+02  0.00000000000E+00 0. -1.
         -2   -1    0    0    0  501 -0.00000000000E+00 -0.00000000000E+00 -0.33764753547E+03  0.33764753547E+03  0.00000000000E+00 0.  1.
         25    2    1    2    0    0  0.65082235227E+02 -0.12948755001E+03 -0.14851804861E+03  0.24229785097E+03  0.12509162592E+03 0.  0.
          5    1    3    3  502    0  0.53153725541E+01 -0.11795793115E+03 -0.13574590347E+03  0.17996318906E+03  0.41800000000E+01 0.  1.
         -5    1    3    3    0  502  0.59766862673E+02 -0.11529618855E+02 -0.12772145141E+02  0.62334661916E+02  0.41800000000E+01 0.  1.
        -11    1    1    2    0    0  0.20733070150E+02  0.37337670106E+02 -0.95716195750E+01  0.43767313238E+02  0.00000000000E+00 0. -1.
         11    1    1    2    0    0 -0.85815305377E+02  0.92149879900E+02 -0.81270883659E+02  0.14986935488E+03  0.00000000000E+00 0.  1.
</event>
<event>
 7    1  0.2728221E-009  0.1703580E+03  0.7561462E-02  0.1177475E+00
         -1   -1    0    0    0  501 -0.00000000000E+00  0.00000000000E+00  0.39902858667E+03  0.39902858667E+03  0.00000000000E+00 0.  1.
          1   -1    0    0  501    0  0.00000000000E+00 -0.00000000000E+00 -0.86182851029E+02  0.86182851029E+02  0.00000000000E+00 0. -1.
         25    2    1    2    0    0  0.10753860055E+03  0.98583037928E+02  0.11620561756E+03  0.22459151418E+03  0.12511769145E+03 0.  0.
          5    1    3    3  502    0 -0.16685716601E+02 -0.10625197483E+02 -0.33063456411E+01  0.20486880717E+02  0.41800000000E+01 0. -1.
         -5    1    3    3    0  502  0.12422431715E+03  0.10920823541E+03  0.11951196320E+03  0.20410463347E+03  0.41800000000E+01 0. -1.
        -11    1    1    2    0    0 -0.73398542804E+02 -0.95944290248E+02  0.95958364693E+02  0.15427462744E+03  0.00000000000E+00 0. -1.
         11    1    1    2    0    0 -0.34140057748E+02 -0.26387476806E+01  0.10068175339E+03  0.10634529608E+03  0.00000000000E+00 0.  1.
</event>
<event>
 7    1  0.2728221E-009  0.1194904E+03  0.7561462E-02  0.1243940E+00
         -1   -1    0    0    0  501 -0.00000000000E+00  0.00000000000E+00  0.14230052529E+03  0.14230052529E+03  0.00000000000E+00 0.  1.
          1   -1    0    0  501    0  0.00000000000E+00 -0.00000000000E+00 -0.16893676517E+03  0.16893676517E+03  0.00000000000E+00 0. -1.
         25    2    1    2    0    0  0.14137198082E+02 -0.10691746312E+03 -0.42908402785E+02  0.17066125023E+03  0.12511165818E+03 0.  0.
          5    1    3    3  502    0 -0.30237126273E+02 -0.47844236736E+02  0.32175969177E+02  0.65238946854E+02  0.41800000000E+01 0.  1.
         -5    1    3    3    0  502  0.44374324354E+02 -0.59073226383E+02 -0.75084371962E+02  0.10542230338E+03  0.41800000000E+01 0.  1.
        -11    1    1    2    0    0 -0.80139688878E+01  0.29541181303E+02  0.47831682435E+02  0.56787101833E+02  0.00000000000E+00 0.  1.
         11    1    1    2    0    0 -0.61232291939E+01  0.77376281816E+02 -0.31559519527E+02  0.83788938388E+02  0.00000000000E+00 0. -1.
</event>
<event>
 7    1  0.2728221E-009  0.1161799E+03  0.7561462E-02  0.1249536E+00
         -1   -1    0    0    0  501 -0.00000000000E+00  0.00000000000E+00  0.10542184643E+03  0.10542184643E+03  0.00000000000E+00 0.  1.
          1   -1    0    0  501    0  0.00000000000E+00 -0.00000000000E+00 -0.16942995934E+03  0.16942995934E+03  0.00000000000E+00 0. -1.
         25    2    1    2    0    0  0.67294494129E+02 -0.19195179121E+01  0.68695343173E+01  0.14221940715E+03  0.12508771234E+03 0.  0.
          5    1    3    3  502    0  0.18997156060E+02 -0.49622796199E+02 -0.33668172390E+02  0.63042303837E+02  0.41800000000E+01 0.  1.
         -5    1    3    3    0  502  0.48297338069E+02  0.47703278287E+02  0.40537706708E+02  0.79177103313E+02  0.41800000000E+01 0.  1.
        -11    1    1    2    0    0 -0.67410765346E+02 -0.33743751248E+02 -0.56375380204E+02  0.94133073497E+02  0.00000000000E+00 0. -1.
         11    1    1    2    0    0  0.11627121771E+00  0.35663269160E+02 -0.14502267016E+02  0.38499325121E+02  0.00000000000E+00 0.  1.
</event>
<event>
 7    1  0.2728221E-009  0.8735694E+02  0.7561462E-02  0.1309381E+00
          1   -1    0    0  501    0  0.00000000000E+00  0.00000000000E+00  0.40291071227E+03  0.40291071227E+03  0.00000000000E+00 0. -1.
         -1   -1    0    0    0  501 -0.00000000000E+00 -0.00000000000E+00 -0.35807243680E+02  0.35807243680E+02  0.00000000000E+00 0.  1.
         25    2    1    2    0    0 -0.22185213291E+02  0.34858981684E+02  0.19045886056E+03  0.23158059538E+03  0.12509061634E+03 0.  0.
          5    1    3    3  502    0 -0.10027546746E+02  0.50781074307E+02  0.13789322555E+02  0.53729759147E+02  0.41800000000E+01 0.  1.
         -5    1    3    3    0  502 -0.12157666545E+02 -0.15922092622E+02  0.17666953801E+03  0.17785083623E+03  0.41800000000E+01 0.  1.
        -11    1    1    2    0    0  0.15998554059E+02 -0.67360415279E+02  0.84548136908E+02  0.10927839097E+03  0.00000000000E+00 0.  1.
         11    1    1    2    0    0  0.61866592326E+01  0.32501433595E+02  0.92096471121E+02  0.97858969600E+02  0.00000000000E+00 0. -1.
</event>
<event>
 7    1  0.2728221E-009  0.1034360E+03  0.7561462E-02  0.1273232E+00
          3   -1    0    0  501    0  0.00000000000E+00  0.00000000000E+00  0.19437990579E+02  0.19437990579E+02  0.00000000000E+00 0. -1.
         -3   -1    0    0    0  501 -0.00000000000E+00 -0.00000000000E+00 -0.80173521819E+03  0.80173521819E+03  0.00000000000E+00 0.  1.
         25    2    1    2    0    0 -0.49794653620E+02  0.33105618672E+02 -0.51666892682E+03  0.53494831849E+03  0.12508970378E+03 0.  0.
          5    1    3    3  502    0 -0.33884558258E+02 -0.29498900604E+02 -0.39093984263E+03  0.39353498114E+03  0.41800000000E+01 0.  1.
         -5    1    3    3    0  502 -0.15910095362E+02  0.62604519276E+02 -0.12572908420E+03  0.14141333735E+03  0.41800000000E+01 0.  1.
        -11    1    1    2    0    0  0.67749644430E+02 -0.11152199819E+02 -0.23342348341E+03  0.24331236813E+03  0.00000000000E+00 0.  1.
         11    1    1    2    0    0 -0.17954990810E+02 -0.21953418853E+02 -0.32204817375E+02  0.42912522141E+02  0.00000000000E+00 0. -1.
</event>
<event>
 7    1  0.2728221E-009  0.1663786E+03  0.7561462E-02  0.1181678E+00
         -2   -1    0    0    0  501 -0.00000000000E+00  0.00000000000E+00  0.47294068172E+03  0.47294068172E+03  0.00000000000E+00 0.  1.
          2   -1    0    0  501    0  0.00000000000E+00 -0.00000000000E+00 -0.70267286783E+02  0.70267286783E+02  0.00000000000E+00 0. -1.
         25    2    1    2    0    0  0.13053093880E+03  0.68406707542E+02  0.21870540376E+03  0.29186952334E+03  0.12505183486E+03 0.  0.
          5    1    3    3  502    0  0.10092698196E+03 -0.98514103426E+01  0.16036121940E+03  0.18978013347E+03  0.41800000000E+01 0. -1.
         -5    1    3    3    0  502  0.29603956836E+02  0.78258117884E+02  0.58344184361E+02  0.10208938987E+03  0.41800000000E+01 0. -1.
        -11    1    1    2    0    0 -0.23230246145E+02 -0.14791847902E+02 -0.45318205958E+01  0.27910222110E+02  0.00000000000E+00 0. -1.
         11    1    1    2    0    0 -0.10730069265E+03 -0.53614859639E+02  0.18849981178E+03  0.22342822306E+03  0.00000000000E+00 0.  1.
</event>
<event>
 7    1  0.2728221E-009  0.7031976E+02  0.7561462E-02  0.1359009E+00
         -1   -1    0    0    0  501 -0.00000000000E+00  0.00000000000E+00  0.45140519540E+03  0.45140519540E+03  0.00000000000E+00 0.  1.
          1   -1    0    0  501    0  0.00000000000E+00 -0.00000000000E+00 -0.51483538305E+02  0.51483538305E+02  0.00000000000E+00 0. -1.
         25    2    1    2    0    0 -0.15812379898E+02  0.23084502343E+02  0.38508485280E+03  0.40585808400E+03  0.12509002711E+03 0.  0.
          5    1    3    3  502    0 -0.15207039159E+02 -0.12429591305E+02  0.99317316993E+00  0.20104914149E+02  0.41800000000E+01 0.  1.
         -5    1    3    3    0  502 -0.60534073830E+00  0.35514093648E+02  0.38409167963E+03  0.38575316985E+03  0.41800000000E+01 0.  1.
        -11    1    1    2    0    0 -0.85153573297E+01  0.27433247017E+02 -0.16164813972E+02  0.32960515213E+02  0.00000000000E+00 0. -1.
         11    1    1    2    0    0  0.24327737227E+02 -0.50517749360E+02  0.31001618262E+02  0.64070134493E+02  0.00000000000E+00 0.  1.
</event>
<event>
 7    1  0.2728221E-009  0.1089061E+03  0.7561462E-02  0.1262609E+00
          4   -1    0    0  501    0  0.00000000000E+00  0.00000000000E+00  0.61789665506E+03  0.61789665506E+03  0.00000000000E+00 0.  1.
         -4   -1    0    0    0  501 -0.00000000000E+00 -0.00000000000E+00 -0.49133328126E+02  0.49133328126E+02  0.00000000000E+00 0. -1.
         25    2    1    2    0    0  0.79987018099E+02  0.39498723856E+02  0.49956944809E+03  0.52266072445E+03  0.12508607902E+03 0.  0.
          5    1    3    3  502    0  0.31319296183E+02 -0.27658940072E+02  0.34180646478E+03  0.34437631604E+03  0.41800000000E+01 0.  1.
         -5    1    3    3    0  502  0.48667721917E+02  0.67157663928E+02  0.15776298331E+03  0.17828440841E+03  0.41800000000E+01 0.  1.
        -11    1    1    2    0    0 -0.31264074390E+02 -0.29609283567E+02  0.82361570263E+02  0.92938583360E+02  0.00000000000E+00 0.  1.
         11    1    1    2    0    0 -0.48722943709E+02 -0.98894402887E+01 -0.13167691415E+02  0.51430675381E+02  0.00000000000E+00 0. -1.
</event>
<event>
 7    1  0.2728221E-009  0.9255694E+02  0.7561462E-02  0.1296775E+00
         -2   -1    0    0    0  501 -0.00000000000E+00  0.00000000000E+00  0.95715872439E+02  0.95715872439E+02  0.00000000000E+00 0.  1.
          2   -1    0    0  501    0  0.00000000000E+00 -0.00000000000E+00 -0.13923219446E+03  0.13923219446E+03  0.00000000000E+00 0. -1.
         25    2    1    2    0    0 -0.62973550946E+01 -0.74345645101E+01 -0.64700662860E+02  0.14116907707E+03  0.12509037979E+03 0.  0.
          5    1    3    3  502    0 -0.45733102849E+02  0.30950942238E+02  0.96677038303E+00  0.55388487672E+02  0.41800000000E+01 0.  1.
         -5    1    3    3    0  502  0.39435747754E+02 -0.38385506749E+02 -0.65667433243E+02  0.85780589401E+02  0.41800000000E+01 0.  1.
        -11    1    1    2    0    0 -0.82375901780E+01  0.38963300118E+02  0.38139834386E+02  0.55142031292E+02  0.00000000000E+00 0.  1.
         11    1    1    2    0    0  0.14534945273E+02 -0.31528735608E+02 -0.16955493546E+02  0.38636958531E+02  0.00000000000E+00 0. -1.
</event>
<event>
 7    1  0.2728221E-009  0.1393465E+03  0.7561462E-02  0.1214211E+00
         -2   -1    0    0    0  501 -0.00000000000E+00  0.00000000000E+00  0.77460258373E+02  0.77460258373E+02  0.00000000000E+00 0.  1.
          2   -1    0    0  501    0  0.00000000000E+00 -0.00000000000E+00 -0.36681552592E+03  0.36681552592E+03  0.00000000000E+00 0. -1.
         25    2    1    2    0    0  0.13747584364E+02 -0.86822705533E+02 -0.30481708438E+02  0.15590171502E+03  0.12509609077E+03 0.  0.
          5    1    3    3  502    0  0.27851896926E+02 -0.11579491687E+03 -0.31937594802E+02  0.12337614558E+03  0.41800000000E+01 0.  1.
         -5    1    3    3    0  502 -0.14104312563E+02  0.28972211337E+02  0.14558863646E+01  0.32525569445E+02  0.41800000000E+01 0.  1.
        -11    1    1    2    0    0 -0.34667546388E+02  0.97544491591E+02 -0.21336593776E+03  0.23715351570E+03  0.00000000000E+00 0.  1.
         11    1    1    2    0    0  0.20919962024E+02 -0.10721786058E+02 -0.45507621350E+02  0.51220553573E+02  0.00000000000E+00 0. -1.
</event>
<event>
 7    1  0.2728221E-009  0.8427511E+02  0.7561462E-02  0.1317339E+00
          2   -1    0    0  501    0  0.00000000000E+00  0.00000000000E+00  0.50270812746E+03  0.50270812746E+03  0.00000000000E+00 0. -1.
         -2   -1    0    0    0  501 -0.00000000000E+00 -0.00000000000E+00 -0.33161121251E+02  0.33161121251E+02  0.00000000000E+00 0.  1.
         25    2    1    2    0    0 -0.56571614753E+02 -0.87837793373E+01  0.33814282360E+03  0.36505591567E+03  0.12509096705E+03 0.  0.
          5    1    3    3  502    0 -0.33276424036E+02 -0.34977622552E+02  0.34784866745E+02  0.59650765548E+02  0.41800000000E+01 0.  1.
         -5    1    3    3    0  502 -0.23295190717E+02  0.26193843214E+02  0.30335795685E+03  0.30540515012E+03  0.41800000000E+01 0.  1.
        -11    1    1    2    0    0  0.17761065864E+02  0.34102503471E+02  0.11564238527E+03  0.12186713041E+03  0.00000000000E+00 0. -1.
         11    1    1    2    0    0  0.38810548890E+02 -0.25318724133E+02  0.15761797342E+02  0.48946202634E+02  0.00000000000E+00 0.  1.
</event>
<event>
 7    1  0.2728221E-009  0.8769523E+02  0.7561462E-02  0.1308531E+00
          3   -1    0    0  501    0  0.00000000000E+00  0.00000000000E+00  0.35831733761E+02  0.35831733761E+02  0.00000000000E+00 0. -1.
         -3   -1    0    0    0  501 -0.00000000000E+00 -0.00000000000E+00 -0.88041433800E+03  0.88041433800E+03  0.00000000000E+00 0.  1.
         25    2    1    2    0    0 -0.12589534534E+02  0.12608551350E+02 -0.80549665875E+03  0.81534650344E+03  0.12509029325E+03 0.  0.
          5    1    3    3  502    0  0.45569974017E+02 -0.19668538020E+02 -0.51003548243E+03  0.51246184215E+03  0.41800000000E+01 0. -1.
         -5    1    3    3    0  502 -0.58159508550E+02  0.32277089369E+02 -0.29546117632E+03  0.30288466129E+03  0.41800000000E+01 0. -1.
        -11    1    1    2    0    0  0.10027929055E+02 -0.34994225791E+02 -0.59985667894E+02  0.70167197126E+02  0.00000000000E+00 0.  1.
         11    1    1    2    0    0  0.25616054788E+01  0.22385674441E+02  0.20899722404E+02  0.30732371197E+02  0.00000000000E+00 0. -1.
</event>
<event>
 7    1  0.2728221E-009  0.4893042E+02  0.7561462E-02  0.1451197E+00
         -2   -1    0    0    0  501 -0.00000000000E+00  0.00000000000E+00  0.23343995056E+02  0.23343995056E+02  0.00000000000E+00 0.  1.
          2   -1    0    0  501    0  0.00000000000E+00 -0.00000000000E+00 -0.19307992110E+04  0.19307992110E+04  0.00000000000E+00 0. -1.
         25    2    1    2    0    0  0.98007858269E+01  0.27822536762E+02 -0.18490967220E+04  0.18535575705E+04  0.12508729256E+03 0.  0.
          5    1    3    3  502    0  0.30256744020E+02  0.20320637920E+02 -0.15376979561E+03  0.15808548740E+03  0.41800000000E+01 0.  1.
         -5    1    3    3    0  502 -0.20455958193E+02  0.75018988416E+01 -0.16953269264E+04  0.16954720831E+04  0.41800000000E+01 0.  1.
        -11    1    1    2    0    0 -0.11586753954E+02 -0.48867376417E+00 -0.69904219875E+02  0.70859661484E+02  0.00000000000E+00 0. -1.
         11    1    1    2    0    0  0.17859681270E+01 -0.27333862998E+02  0.11545725941E+02  0.29725974097E+02  0.00000000000E+00 0.  1.
</event>
<event>
 7    1  0.2728221E-009  0.1027180E+03  0.7561462E-02  0.1274682E+00
          3   -1    0    0  501    0  0.00000000000E+00  0.00000000000E+00  0.10958182187E+03  0.10958182187E+03  0.00000000000E+00 0. -1.
         -3   -1    0    0    0  501 -0.00000000000E+00 -0.00000000000E+00 -0.13431312035E+03  0.13431312035E+03  0.00000000000E+00 0.  1.
         25    2    1    2    0    0 -0.52809100236E+02  0.16344268734E+02  0.38531081199E+01  0.13681628212E+03  0.12509161612E+03 0.  0.
          5    1    3    3  502    0 -0.79869994335E+02 -0.51036687164E+01  0.37447817431E+02  0.88459453196E+02  0.41800000000E+01 0. -1.
         -5    1    3    3    0  502  0.27060894099E+02  0.21447937451E+02 -0.33594709311E+02  0.48356828928E+02  0.41800000000E+01 0. -1.
        -11    1    1    2    0    0  0.46652018358E+02 -0.42823376824E+02  0.54026118022E+01  0.63556593945E+02  0.00000000000E+00 0. -1.
         11    1    1    2    0    0  0.61570818772E+01  0.26479108090E+02 -0.33987018398E+02  0.43522066151E+02  0.00000000000E+00 0.  1.
</event>
<event>
 7    1  0.2728221E-009  0.1496817E+03  0.7561462E-02  0.1200865E+00
          2   -1    0    0  501    0  0.00000000000E+00  0.00000000000E+00  0.39887885822E+03  0.39887885822E+03  0.00000000000E+00 0. -1.
         -2   -1    0    0    0  501 -0.00000000000E+00 -0.00000000000E+00 -0.62124693002E+02  0.62124693002E+02  0.00000000000E+00 0.  1.
         25    2    1    2    0    0  0.78102096568E+01  0.11616654756E+03  0.18957649593E+03  0.25524608393E+03  0.12512253757E+03 0.  0.
          5    1    3    3  502    0  0.53558472241E+02  0.84887251627E+02  0.16776482801E+03  0.19554248990E+03  0.41800000000E+01 0. -1.
         -5    1    3    3    0  502 -0.45748262584E+02  0.31279295929E+02  0.21811667918E+02  0.59703594035E+02  0.41800000000E+01 0. -1.
        -11    1    1    2    0    0 -0.33347764321E+02 -0.11014224786E+02  0.29228347948E+02  0.45691168256E+02  0.00000000000E+00 0.  1.
         11    1    1    2    0    0  0.25537554664E+02 -0.10515232277E+03  0.11794932135E+03  0.16006629904E+03  0.00000000000E+00 0. -1.
</event>
<event>
 7    1  0.2728221E-009  0.1373952E+03  0.7561462E-02  0.1216878E+00
          1   -1    0    0  501    0  0.00000000000E+00  0.00000000000E+00  0.32261850032E+03  0.32261850032E+03  0.00000000000E+00 0. -1.
         -1   -1    0    0    0  501 -0.00000000000E+00 -0.00000000000E+00 -0.79400287866E+02  0.79400287866E+02  0.00000000000E+00 0.  1.
         25    2    1    2    0    0  0.38486405428E+02 -0.88898641455E+02  0.21500308089E+03  0.26694440868E+03  0.12509524642E+03 0.  0.
          5    1    3    3  502    0  0.45304502215E+02  0.18759056989E+02  0.82117704720E+02  0.95734998661E+02  0.41800000000E+01 0.  1.
         -5    1    3    3    0  502 -0.68180967866E+01 -0.10765769844E+03  0.13288537617E+03  0.17120941002E+03  0.41800000000E+01 0.  1.
        -11    1    1    2    0    0 -0.52192775238E+02  0.37081831524E+02  0.45738199211E+02  0.78683739637E+02  0.00000000000E+00 0. -1.
         11    1    1    2    0    0  0.13706369810E+02  0.51816809931E+02 -0.17523067653E+02  0.56390639868E+02  0.00000000000E+00 0.  1.
</event>
<event>
 7    1  0.2728221E-009  0.1556282E+03  0.7561462E-02  0.1193723E+00
         -1   -1    0    0    0  501 -0.00000000000E+00  0.00000000000E+00  0.46373783597E+03  0.46373783597E+03  0.00000000000E+00 0.  1.
          1   -1    0    0  501    0  0.00000000000E+00 -0.00000000000E+00 -0.68851661120E+02  0.68851661120E+02  0.00000000000E+00 0. -1.
         25    2    1    2    0    0  0.14760846070E+03 -0.99782042763E+01  0.21838630804E+03  0.29193798592E+03  0.12508951137E+03 0.  0.
          5    1    3    3  502    0  0.65233199357E+02 -0.63372340572E+01  0.82812090378E+01  0.66193516729E+02  0.41800000000E+01 0. -1.
         -5    1    3    3    0  502  0.82375261345E+02 -0.36409702191E+01  0.21010509900E+03  0.22574446919E+03  0.41800000000E+01 0. -1.
        -11    1    1    2    0    0 -0.79287812816E+02  0.39515548757E+02  0.10582648703E+03  0.13801188794E+03  0.00000000000E+00 0. -1.
         11    1    1    2    0    0 -0.68320647887E+02 -0.29537344480E+02  0.70673379777E+02  0.10263962322E+03  0.00000000000E+00 0.  1.
</event>
<event>
 7    1  0.2728221E-009  0.1384277E+03  0.7561462E-02  0.1215460E+00
          1   -1    0    0  501    0  0.00000000000E+00  0.00000000000E+00  0.40184171320E+03  0.40184171320E+03  0.00000000000E+00 0. -1.
         -1   -1    0    0    0  501 -0.00000000000E+00 -0.00000000000E+00 -0.69869643702E+02  0.69869643702E+02  0.00000000000E+00 0.  1.
         25    2    1    2    0    0 -0.11520243999E+03  0.55403231414E+02  0.16113050247E+03  0.24073165995E+03  0.12509025959E+03 0.  0.
          5    1    3    3  502    0 -0.12188396671E+03  0.38057343820E+02  0.17535261509E+03  0.21695638912E+03  0.41800000000E+01 0.  1.
         -5    1    3    3    0  502  0.66815267156E+01  0.17345887594E+02 -0.14222112620E+02  0.23775270831E+02  0.41800000000E+01 0.  1.
        -11    1    1    2    0    0  0.16808986706E+02 -0.18410256849E+02 -0.56444014768E+01  0.25560494114E+02  0.00000000000E+00 0.  1.
         11    1    1    2    0    0  0.98393453287E+02 -0.36992974566E+02  0.17648596850E+03  0.20541920284E+03  0.00000000000E+00 0. -1.
</event>
<event>
 7    1  0.2728221E-009  0.4865341E+02  0.7561462E-02  0.1452743E+00
          1   -1    0    0  501    0  0.00000000000E+00  0.00000000000E+00  0.50104512321E+03  0.50104512321E+03  0.00000000000E+00 0. -1.
         -1   -1    0    0    0  501 -0.00000000000E+00 -0.00000000000E+00 -0.28520343631E+02  0.28520343631E+02  0.00000000000E+00 0.  1.
         25    2    1    2    0    0 -0.24443248939E+02  0.19016173745E+02  0.32209105509E+03  0.34691775669E+03  0.12510073882E+03 0.  0.
          5    1    3    3  502    0  0.32846741336E+01  0.21243790382E+02  0.31769251472E+03  0.31844637543E+03  0.41800000000E+01 0. -1.
         -5    1    3    3    0  502 -0.27727923073E+02 -0.22276166370E+01  0.43985403765E+01  0.28471381267E+02  0.41800000000E+01 0. -1.
        -11    1    1    2    0    0 -0.39212003313E+01 -0.18498179878E+02 -0.88355155893E+01  0.20871626830E+02  0.00000000000E+00 0.  1.
         11    1    1    2    0    0  0.28364449270E+02 -0.51799386740E+00  0.15926924008E+03  0.16177608332E+03  0.00000000000E+00 0. -1.
</event>
<event>
 7    1  0.2728221E-009  0.1355873E+03  0.7561462E-02  0.1219393E+00
          2   -1    0    0  501    0  0.00000000000E+00  0.00000000000E+00  0.40395981304E+03  0.40395981304E+03  0.00000000000E+00 0. -1.
         -2   -1    0    0    0  501 -0.00000000000E+00 -0.00000000000E+00 -0.66318788003E+02  0.66318788003E+02  0.00000000000E+00 0.  1.
         25    2    1    2    0    0 -0.17960127797E+02  0.92766811087E+02  0.90105450650E+02  0.18081645158E+03  0.12508936603E+03 0.  0.
          5    1    3    3  502    0  0.11966221586E+02  0.11113101079E+03  0.92825368993E+02  0.14535237716E+03  0.41800000000E+01 0.  1.
         -5    1    3    3    0  502 -0.29926349383E+02 -0.18364199706E+02 -0.27199183432E+01  0.35464074414E+02  0.41800000000E+01 0.  1.
        -11    1    1    2    0    0  0.29768272528E+02  0.67750129615E+00  0.15352556061E+03  0.15638640227E+03  0.00000000000E+00 0. -1.
         11    1    1    2    0    0 -0.11808144731E+02 -0.93444312383E+02  0.94010013779E+02  0.13307574719E+03  0.00000000000E+00 0.  1.
</event>
<event>
 7    1  0.2728221E-009  0.1041151E+03  0.7561462E-02  0.1271873E+00
          1   -1    0    0  501    0  0.00000000000E+00  0.00000000000E+00  0.22844003526E+03  0.22844003526E+03  0.00000000000E+00 0. -1.
         -1   -1    0    0    0  501 -0.00000000000E+00 -0.00000000000E+00 -0.56043419608E+02  0.56043419608E+02  0.00000000000E+00 0.  1.
         25    2    1    2    0    0  0.33044573385E+02 -0.46142837933E+01  0.90155400938E+02  0.15775642778E+03  0.12508340714E+03 0.  0.
          5    1    3    3  502    0 -0.27189789476E+02 -0.43380087604E+02  0.62399359902E+02  0.80822454606E+02  0.41800000000E+01 0. -1.
         -5    1    3    3    0  502  0.60234362861E+02  0.38765803811E+02  0.27756041036E+02  0.76933973174E+02  0.41800000000E+01 0. -1.
        -11    1    1    2    0    0  0.18719592343E+02  0.23468105584E+02  0.60430065118E+02  0.67475683675E+02  0.00000000000E+00 0. -1.
         11    1    1    2    0    0 -0.51764165728E+02 -0.18853821791E+02  0.21811149598E+02  0.59251343415E+02  0.00000000000E+00 0.  1.
</event>
<event>
 7    1  0.2728221E-009  0.1043630E+03  0.7561462E-02  0.1271380E+00
         -2   -1    0    0    0  501 -0.00000000000E+00  0.00000000000E+00  0.14266497454E+03  0.14266497454E+03  0.00000000000E+00 0.  1.
          2   -1    0    0  501    0  0.00000000000E+00 -0.00000000000E+00 -0.13470209232E+03  0.13470209232E+03  0.00000000000E+00 0. -1.
         25    2    1    2    0    0 -0.24129715378E+02 -0.24921786335E+02 -0.74756075051E+02  0.14980448208E+03  0.12509825536E+03 0.  0.
          5    1    3    3  502    0 -0.37899169821E+02  0.40198650520E+02 -0.59673280927E+02  0.81428812059E+02  0.41800000000E+01 0.  1.
         -5    1    3    3    0  502  0.13769454443E+02 -0.65120436855E+02 -0.15082794124E+02  0.68375670018E+02  0.41800000000E+01 0.  1.
        -11    1    1    2    0    0  0.21674402713E+02  0.53615474803E+02  0.79891161138E+02  0.98625536750E+02  0.00000000000E+00 0.  1.
         11    1    1    2    0    0  0.24553126647E+01 -0.28693688467E+02  0.28277961338E+01  0.28937048037E+02  0.00000000000E+00 0. -1.
</event>
<event>
 7    1  0.2728221E-009  0.1445015E+03  0.7561462E-02  0.1207397E+00
          1   -1    0    0  501    0  0.00000000000E+00  0.00000000000E+00  0.21919598015E+03  0.21919598015E+03  0.00000000000E+00 0. -1.
         -1   -1    0    0    0  501 -0.00000000000E+00 -0.00000000000E+00 -0.14259288229E+03  0.14259288229E+03  0.00000000000E+00 0.  1.
         25    2    1    2    0    0  0.93310996447E+02 -0.64093485895E+02 -0.43102248411E+02  0.17412649311E+03  0.12508922733E+03 0.  0.
          5    1    3    3  502    0  0.95118361682E+02 -0.96264643508E+02 -0.41428268764E+02  0.14159151871E+03  0.41800000000E+01 0.  1.
         -5    1    3    3    0  502 -0.18073652352E+01  0.32171157614E+02 -0.16739796470E+01  0.32534974399E+02  0.41800000000E+01 0.  1.
        -11    1    1    2    0    0 -0.94281977416E+02  0.49492763349E+02  0.52200427343E+02  0.11858966862E+03  0.00000000000E+00 0.  1.
         11    1    1    2    0    0  0.97098096952E+00  0.14600722546E+02  0.67504918926E+02  0.69072700700E+02  0.00000000000E+00 0. -1.
</event>
<event>
 7    1  0.2728221E-009  0.9107630E+02  0.7561462E-02  0.1300266E+00
          3   -1    0    0  501    0  0.00000000000E+00  0.00000000000E+00  0.81223138357E+02  0.81223138357E+02  0.00000000000E+00 0. -1.
         -3   -1    0    0    0  501 -0.00000000000E+00 -0.00000000000E+00 -0.16038268617E+03  0.16038268617E+03  0.00000000000E+00 0.  1.
         25    2    1    2    0    0 -0.80325039855E+01 -0.27895212432E+02 -0.31811051124E+02  0.13229450011E+03  0.12508887956E+03 0.  0.
          5    1    3    3  502    0  0.25428929444E+02  0.20711529084E+02 -0.58654330671E+02  0.67330533906E+02  0.41800000000E+01 0. -1.
         -5    1    3    3    0  502 -0.33461433430E+02 -0.48606741516E+02  0.26843279547E+02  0.64963966203E+02  0.41800000000E+01 0. -1.
        -11    1    1    2    0    0  0.33402881137E+02  0.47360481301E+02 -0.50904964834E+02  0.77136781772E+02  0.00000000000E+00 0.  1.
         11    1    1    2    0    0 -0.25370377152E+02 -0.19465268869E+02  0.35564681438E+01  0.32174542648E+02  0.00000000000E+00 0. -1.
</event>
<event>
 7    1  0.2728221E-009  0.1070948E+03  0.7561462E-02  0.1266046E+00
         -2   -1    0    0    0  501 -0.00000000000E+00  0.00000000000E+00  0.59279380902E+02  0.59279380902E+02  0.00000000000E+00 0.  1.
          2   -1    0    0  501    0  0.00000000000E+00 -0.00000000000E+00 -0.29155687631E+03  0.29155687631E+03  0.00000000000E+00 0. -1.
         25    2    1    2    0    0 -0.24591119331E+02 -0.24650509791E+02 -0.20639192547E+03  0.24383867792E+03  0.12508918086E+03 0.  0.
          5    1    3    3  502    0  0.77601343036E+01  0.39750699054E+02 -0.23031840524E+02  0.46779010653E+02  0.41800000000E+01 0.  1.
         -5    1    3    3    0  502 -0.32351253635E+02 -0.64401208845E+02 -0.18336008494E+03  0.19705966726E+03  0.41800000000E+01 0.  1.
        -11    1    1    2    0    0  0.56631460776E+02 -0.59920080325E+01 -0.26144614656E+02  0.62662328279E+02  0.00000000000E+00 0. -1.
         11    1    1    2    0    0 -0.32040341444E+02  0.30642517823E+02  0.25904471390E+00  0.44335251015E+02  0.00000000000E+00 0.  1.
</event>
<event>
 7    1  0.2728221E-009  0.1511910E+03  0.7561462E-02  0.1199017E+00
         -1   -1    0    0    0  501 -0.00000000000E+00  0.00000000000E+00  0.12077810591E+02  0.12077810591E+02  0.00000000000E+00 0.  1.
          1   -1    0    0  501    0  0.00000000000E+00 -0.00000000000E+00 -0.20918293552E+04  0.20918293552E+04  0.00000000000E+00 0. -1.
         25    2    1    2    0    0 -0.49453330519E+02 -0.96220982293E+02 -0.13888494247E+04  0.13986621774E+04  0.12509617300E+03 0.  0.
          5    1    3    3  502    0  0.20554760065E+02 -0.88328910099E+02 -0.92945227205E+03  0.93387552326E+03  0.41800000000E+01 0.  1.
         -5    1    3    3    0  502 -0.70008090584E+02 -0.78920721938E+01 -0.45939715269E+03  0.46478665413E+03  0.41800000000E+01 0.  1.
        -11    1    1    2    0    0 -0.77616986541E+01 -0.14468508604E+02 -0.63409638733E+02  0.65500870158E+02  0.00000000000E+00 0. -1.
         11    1    1    2    0    0  0.57215029173E+02  0.11068949090E+03 -0.62749248118E+03  0.63974411829E+03  0.00000000000E+00 0.  1.
</event>
<event>
 7    1  0.2728221E-009  0.7997283E+02  0.7561462E-02  0.1329129E+00
          1   -1    0    0  501    0  0.00000000000E+00  0.00000000000E+00  0.78413831837E+03  0.78413831837E+03  0.00000000000E+00 0. -1.
         -1   -1    0    0    0  501 -0.00000000000E+00 -0.00000000000E+00 -0.18613969638E+02  0.18613969638E+02  0.00000000000E+00 0.  1.
         25    2    1    2    0    0 -0.51852560656E+02  0.12219093495E+02  0.45444507625E+03  0.47434787824E+03  0.12509031924E+03 0.  0.
          5    1    3    3  502    0 -0.43243437293E+02  0.14303220373E+02  0.46054398647E+03  0.46280969399E+03  0.41800000000E+01 0.  1.
         -5    1    3    3    0  502 -0.86091233629E+01 -0.20841268781E+01 -0.60989102151E+01  0.11538184248E+02  0.41800000000E+01 0.  1.
        -11    1    1    2    0    0  0.26515110403E+02 -0.51351624502E+02  0.19256990489E+03  0.20105523790E+03  0.00000000000E+00 0. -1.
         11    1    1    2    0    0  0.25337450253E+02  0.39132531007E+02  0.11850936759E+03  0.12734917186E+03  0.00000000000E+00 0.  1.
</event>
<event>
 7    1  0.2728221E-009  0.1715932E+03  0.7561462E-02  0.1176196E+00
          2   -1    0    0  501    0  0.00000000000E+00  0.00000000000E+00  0.27365099303E+03  0.27365099303E+03  0.00000000000E+00 0. -1.
         -2   -1    0    0    0  501 -0.00000000000E+00 -0.00000000000E+00 -0.12405564925E+03  0.12405564925E+03  0.00000000000E+00 0.  1.
         25    2    1    2    0    0  0.73837438540E+02  0.12469038493E+03  0.11732706752E+03  0.22452544763E+03  0.12508547652E+03 0.  0.
          5    1    3    3  502    0 -0.20879803056E+02 -0.72503862983E+01  0.36949935344E+02  0.43258576017E+02  0.41800000000E+01 0.  1.
         -5    1    3    3    0  502  0.94717241596E+02  0.13194077123E+03  0.80377132173E+02  0.18126687161E+03  0.41800000000E+01 0.  1.
        -11    1    1    2    0    0  0.11730463094E+02 -0.17424882503E+02  0.29152121413E+02  0.35931552673E+02  0.00000000000E+00 0.  1.
         11    1    1    2    0    0 -0.85567901634E+02 -0.10726550243E+03  0.31161548538E+01  0.13724964197E+03  0.00000000000E+00 0. -1.
</event>
<event>
 6    1  0.2728221E-009  0.1096047E+03  0.7561462E-02  0.1261304E+00
         -2   -1    0    0    0  501 -0.00000000000E+00  0.00000000000E+00  0.36487748585E+03  0.36487748585E+03  0.00000000000E+00 0.  1.
          2   -1    0    0  501    0  0.00000000000E+00 -0.00000000000E+00 -0.38439234341E+02  0.38439234341E+02  0.00000000000E+00 0. -1.
          5    1    1    2  502    0  0.76501754531E+02 -0.16464394763E+02  0.14602817871E+03  0.16572657035E+03  0.41800000000E+01 0. -1.
         -5    1    1    2    0  502 -0.50788725203E+02 -0.50694922408E+01  0.92245055743E+02  0.10550742660E+03  0.41800000000E+01 0. -1.
        -11    1    1    2    0    0  0.23374129647E+02  0.31816830242E+02  0.66745527313E+02  0.77547572752E+02  0.00000000000E+00 0.  1.
         11    1    1    2    0    0 -0.49087158975E+02 -0.10282943239E+02  0.21419489740E+02  0.54535150487E+02  0.00000000000E+00 0. -1.
</event>
<event>
 7    1  0.2728221E-009  0.1147962E+03  0.7561462E-02  0.1251937E+00
         -2   -1    0    0    0  501 -0.00000000000E+00  0.00000000000E+00  0.98209356260E+02  0.98209356260E+02  0.00000000000E+00 0. -1.
          2   -1    0    0  501    0  0.00000000000E+00 -0.00000000000E+00 -0.25940470130E+03  0.25940470130E+03  0.00000000000E+00 0.  1.
         25    2    1    2    0    0  0.13732778449E+02  0.98538393771E+02 -0.15847481766E+03  0.22507770010E+03  0.12508916418E+03 0.  0.
          5    1    3    3  502    0  0.39169772415E+02  0.62402140694E+02 -0.16448839403E+03  0.18028367204E+03  0.41800000000E+01 0. -1.
         -5    1    3    3    0  502 -0.25436993966E+02  0.36136253077E+02  0.60135763663E+01  0.44794028053E+02  0.41800000000E+01 0. -1.
        -11    1    1    2    0    0  0.14766707545E+02 -0.86576273908E+01 -0.29859108085E+02  0.34417677136E+02  0.00000000000E+00 0.  1.
         11    1    1    2    0    0 -0.28499485994E+02 -0.89880766380E+02  0.27138580709E+02  0.98118680331E+02  0.00000000000E+00 0. -1.
</event>
<event>
 7    1  0.2728221E-009  0.1231913E+03  0.7561462E-02  0.1237923E+00
          1   -1    0    0  501    0  0.00000000000E+00  0.00000000000E+00  0.20499316463E+03  0.20499316463E+03  0.00000000000E+00 0. -1.
         -1   -1    0    0    0  501 -0.00000000000E+00 -0.00000000000E+00 -0.86025435117E+02  0.86025435117E+02  0.00000000000E+00 0.  1.
         25    2    1    2    0    0 -0.30860194629E+02  0.69680408008E+02  0.71016325085E+02  0.16277059386E+03  0.12507292642E+03 0.  0.
          5    1    3    3  502    0 -0.47546440909E+02 -0.20574610068E+02  0.40712801118E+02  0.66022596113E+02  0.41800000000E+01 0. -1.
         -5    1    3    3    0  502  0.16686246280E+02  0.90255018076E+02  0.30303523967E+02  0.96747997745E+02  0.41800000000E+01 0. -1.
        -11    1    1    2    0    0  0.66252641024E+01  0.13957002149E+02 -0.14422800556E+02  0.21135496429E+02  0.00000000000E+00 0.  1.
         11    1    1    2    0    0  0.24234930527E+02 -0.83637410158E+02  0.62374204983E+02  0.10711250946E+03  0.00000000000E+00 0. -1.
</event>
<event>
 7    1  0.2728221E-009  0.1169572E+03  0.7561462E-02  0.1248203E+00
          3   -1    0    0  501    0  0.00000000000E+00  0.00000000000E+00  0.49105438504E+02  0.49105438504E+02  0.00000000000E+00 0. -1.
         -3   -1    0    0    0  501 -0.00000000000E+00 -0.00000000000E+00 -0.49030980975E+03  0.49030980975E+03  0.00000000000E+00 0.  1.
         25    2    1    2    0    0  0.85368521284E+02 -0.30632214441E+02 -0.14573960334E+03  0.21240023446E+03  0.12509080953E+03 0.  0.
          5    1    3    3  502    0  0.78652345437E+02 -0.33176783918E+02 -0.21826242048E+02  0.88208546501E+02  0.41800000000E+01 0. -1.
         -5    1    3    3    0  502  0.67161758469E+01  0.25445694768E+01 -0.12391336129E+03  0.12419168796E+03  0.41800000000E+01 0. -1.
        -11    1    1    2    0    0  0.14871383196E+02  0.36818387134E+02 -0.83002565884E+02  0.92011834090E+02  0.00000000000E+00 0.  1.
         11    1    1    2    0    0 -0.10023990448E+03 -0.61861726934E+01 -0.21246220202E+03  0.23500317970E+03  0.00000000000E+00 0. -1.
</event>
<event>
 7    1  0.2728221E-009  0.9722874E+02  0.7561462E-02  0.1286234E+00
         -1   -1    0    0    0  501 -0.00000000000E+00  0.00000000000E+00  0.75907956875E+02  0.75907956875E+02  0.00000000000E+00 0.  1.
          1   -1    0    0  501    0  0.00000000000E+00 -0.00000000000E+00 -0.21313103442E+03  0.21313103442E+03  0.00000000000E+00 0. -1.
         25    2    1    2    0    0 -0.86968012015E+01 -0.10305101079E+02 -0.14508783190E+03  0.19204167973E+03  0.12509076037E+03 0.  0.
          5    1    3    3  502    0  0.43547358488E+02 -0.12210577923E+02 -0.12964300410E+03  0.13736903420E+03  0.41800000000E+01 0. -1.
         -5    1    3    3    0  502 -0.52244159690E+02  0.19054768440E+01 -0.15444827796E+02  0.54672645531E+02  0.41800000000E+01 0. -1.
        -11    1    1    2    0    0 -0.12300182546E+02 -0.40123680815E+02  0.54434765134E+01  0.42318266616E+02  0.00000000000E+00 0.  1.
         11    1    1    2    0    0  0.20996983748E+02  0.50428781894E+02  0.24212778416E+01  0.54679044946E+02  0.00000000000E+00 0. -1.
</event>
<event>
 7    1  0.2728221E-009  0.1566738E+03  0.7561462E-02  0.1192504E+00
          2   -1    0    0  501    0  0.00000000000E+00  0.00000000000E+00  0.21822377196E+03  0.21822377196E+03  0.00000000000E+00 0.  1.
         -2   -1    0    0    0  501 -0.00000000000E+00 -0.00000000000E+00 -0.11533489856E+03  0.11533489856E+03  0.00000000000E+00 0. -1.
         25    2    1    2    0    0 -0.30298366811E+02 -0.11214440789E+03  0.68747277810E+02  0.18403248422E+03  0.12508959904E+03 0.  0.
          5    1    3    3  502    0  0.24869475043E+02 -0.10955393647E+03  0.29732885661E+02  0.11628444726E+03  0.41800000000E+01 0.  1.
         -5    1    3    3    0  502 -0.55167841854E+02 -0.25904714248E+01  0.39014392149E+02  0.67748036959E+02  0.41800000000E+01 0.  1.
        -11    1    1    2    0    0  0.23251632794E+02 -0.84517909770E+01  0.45907378735E+01  0.25162394014E+02  0.00000000000E+00 0. -1.
         11    1    1    2    0    0  0.70467340170E+01  0.12059619887E+03  0.29550857722E+02  0.12436379229E+03  0.00000000000E+00 0.  1.
</event>
<event>
 7    1  0.2728221E-009  0.1395677E+03  0.7561462E-02  0.1213912E+00
          1   -1    0    0  501    0  0.00000000000E+00  0.00000000000E+00  0.15442017846E+03  0.15442017846E+03  0.00000000000E+00 0. -1.
         -1   -1    0    0    0  501 -0.00000000000E+00 -0.00000000000E+00 -0.18347980073E+03  0.18347980073E+03  0.00000000000E+00 0.  1.
         25    2    1    2    0    0  0.10329919934E+03  0.66545479257E+02  0.22259523124E+02  0.17674657337E+03  0.12507933256E+03 0.  0.
          5    1    3    3  502    0  0.10356824193E+03  0.52715266652E+02 -0.31988492350E+02  0.12060686597E+03  0.41800000000E+01 0. -1.
         -5    1    3    3    0  502 -0.26904258986E+00  0.13830212605E+02  0.54248015475E+02  0.56139707405E+02  0.41800000000E+01 0. -1.
        -11    1    1    2    0    0 -0.68150986988E+02  0.53598165229E+01 -0.42825620011E+02  0.80667951443E+02  0.00000000000E+00 0.  1.
         11    1    1    2    0    0 -0.35148212356E+02 -0.71905295780E+02 -0.84935253878E+01  0.80485454379E+02  0.00000000000E+00 0. -1.
</event>
<event>
 7    1  0.2728221E-009  0.5931736E+02  0.7561462E-02  0.1400719E+00
          2   -1    0    0  501    0  0.00000000000E+00  0.00000000000E+00  0.13280690850E+04  0.13280690850E+04  0.00000000000E+00 0. -1.
         -2   -1    0    0    0  501 -0.00000000000E+00 -0.00000000000E+00 -0.12434656656E+02  0.12434656656E+02  0.00000000000E+00 0.  1.
         25    2    1    2    0    0  0.21336687242E+02  0.43252375918E+00  0.10801276960E+04  0.10875564416E+04  0.12509089708E+03 0.  0.
          5    1    3    3  502    0  0.15199180327E+02 -0.16387359234E+02  0.10601952564E+04  0.10604390670E+04  0.41800000000E+01 0.  1.
         -5    1    3    3    0  502  0.61375069155E+01  0.16819882993E+02  0.19932439590E+02  0.27117374561E+02  0.41800000000E+01 0.  1.
        -11    1    1    2    0    0 -0.37117552775E+01 -0.36858178253E+02  0.18270638123E+03  0.18642404398E+03  0.00000000000E+00 0. -1.
         11    1    1    2    0    0 -0.17624931965E+02  0.36425654494E+02  0.52800351130E+02  0.66523256171E+02  0.00000000000E+00 0.  1.
</event>
<event>
 7    1  0.2728221E-009  0.9736291E+02  0.7561462E-02  0.1285941E+00
         -1   -1    0    0    0  501 -0.00000000000E+00  0.00000000000E+00  0.12615222002E+03  0.12615222002E+03  0.00000000000E+00 0.  1.
          1   -1    0    0  501    0  0.00000000000E+00 -0.00000000000E+00 -0.17498528801E+03  0.17498528801E+03  0.00000000000E+00 0. -1.
         25    2    1    2    0    0 -0.88622222696E+01 -0.84942041004E+02 -0.75885413209E+02  0.16940981118E+03  0.12508956341E+03 0.  0.
          5    1    3    3  502    0 -0.26174180538E+02 -0.37952209615E+02  0.27934846938E+02  0.54067421013E+02  0.41800000000E+01 0.  1.
         -5    1    3    3    0  502  0.17311958269E+02 -0.46989831389E+02 -0.10382026015E+03  0.11534239017E+03  0.41800000000E+01 0.  1.
        -11    1    1    2    0    0  0.11139425030E+02 -0.19087753911E+01  0.42067386443E+02  0.43559100262E+02  0.00000000000E+00 0.  1.
         11    1    1    2    0    0 -0.22772027601E+01  0.86850816395E+02 -0.15015041228E+02  0.88168596586E+02  0.00000000000E+00 0. -1.
</event>
<event>
 7    1  0.2728221E-009  0.1281844E+03  0.7561462E-02  0.1230175E+00
          3   -1    0    0  501    0  0.00000000000E+00  0.00000000000E+00  0.27150772350E+03  0.27150772350E+03  0.00000000000E+00 0. -1.
         -3   -1    0    0    0  501 -0.00000000000E+00 -0.00000000000E+00 -0.62091037413E+02  0.62091037413E+02  0.00000000000E+00 0.  1.
         25    2    1    2    0    0  0.66870409765E+02 -0.19262706868E+02  0.14171521319E+03  0.20142879037E+03  0.12509057664E+03 0.  0.
          5    1    3    3  502    0 -0.15758112581E+02 -0.51581578145E+02  0.48215876996E+02  0.72465305564E+02  0.41800000000E+01 0.  1.
         -5    1    3    3    0  502  0.82628522346E+02  0.32318871276E+02  0.93499336193E+02  0.12896348481E+03  0.41800000000E+01 0.  1.
        -11    1    1    2    0    0 -0.29464063391E+01  0.44592679301E+02  0.28852012476E+02  0.53194238236E+02  0.00000000000E+00 0.  1.
         11    1    1    2    0    0 -0.63924003426E+02 -0.25329972433E+02  0.38849460418E+02  0.78975732299E+02  0.00000000000E+00 0. -1.
</event>
<event>
 7    1  0.2728221E-009  0.1466215E+03  0.7561462E-02  0.1204687E+00
         -1   -1    0    0    0  501 -0.00000000000E+00  0.00000000000E+00  0.55964568069E+02  0.55964568069E+02  0.00000000000E+00 0.  1.
          1   -1    0    0  501    0  0.00000000000E+00 -0.00000000000E+00 -0.59180698348E+03  0.59180698348E+03  0.00000000000E+00 0. -1.
         25    2    1    2    0    0  0.95179419301E+02 -0.91412828495E+02 -0.17172520794E+03  0.25010433778E+03  0.12508879111E+03 0.  0.
          5    1    3    3  502    0  0.83687402340E+02 -0.88483473114E+02 -0.19131269340E+03  0.22682796428E+03  0.41800000000E+01 0. -1.
         -5    1    3    3    0  502  0.11492016961E+02 -0.29293553804E+01  0.19587485454E+02  0.23276373498E+02  0.41800000000E+01 0. -1.
        -11    1    1    2    0    0 -0.26700044278E+02  0.86073000472E+02 -0.18362998886E+03  0.20455176994E+03  0.00000000000E+00 0.  1.
         11    1    1    2    0    0 -0.68479375023E+02  0.53398280222E+01 -0.18048721861E+03  0.19311544383E+03  0.00000000000E+00 0. -1.
</event>
<event>
 7    1  0.2728221E-009  0.1119619E+03  0.7561462E-02  0.1256979E+00
          2   -1    0    0  501    0  0.00000000000E+00  0.00000000000E+00  0.14698092788E+03  0.14698092788E+03  0.00000000000E+00 0. -1.
         -2   -1    0    0    0  501 -0.00000000000E+00 -0.00000000000E+00 -0.11304986051E+03  0.11304986051E+03  0.00000000000E+00 0.  1.
         25    2    1    2    0    0 -0.36304558483E+02  0.49739611613E+02 -0.15385807164E+02  0.14027059388E+03  0.12508823491E+03 0.  0.
          5    1    3    3  502    0 -0.75465521111E+02  0.10544425182E+02  0.13733387029E+02  0.77539074655E+02  0.41800000000E+01 0.  1.
         -5    1    3    3    0  502  0.39160962628E+02  0.39195186430E+02 -0.29119194193E+02  0.62731519221E+02  0.41800000000E+01 0.  1.
        -11    1    1    2    0    0  0.77343030747E+01 -0.60889015246E+02 -0.35965680193E+00  0.61379320415E+02  0.00000000000E+00 0.  1.
         11    1    1    2    0    0  0.28570255408E+02  0.11149403633E+02  0.49676531339E+02  0.58380874106E+02  0.00000000000E+00 0. -1.
</event>
<event>
 7    1  0.2728221E-009  0.1109885E+03  0.7561462E-02  0.1258750E+00
         -1   -1    0    0    0  501 -0.00000000000E+00  0.00000000000E+00  0.88118414904E+02  0.88118414904E+02  0.00000000000E+00 0.  1.
          1   -1    0    0  501    0  0.00000000000E+00 -0.00000000000E+00 -0.15468363116E+03  0.15468363116E+03  0.00000000000E+00 0. -1.
         25    2    1    2    0    0 -0.13211027056E+02  0.34182158511E+02 -0.13454937815E+02  0.13103957120E+03  0.12508949865E+03 0.  0.
          5    1    3    3  502    0  0.39154364892E+02  0.59876948778E+02 -0.11045871348E+02  0.72510667897E+02  0.41800000000E+01 0. -1.
         -5    1    3    3    0  502 -0.52365391949E+02 -0.25694790266E+02 -0.24090664670E+01  0.58528903304E+02  0.41800000000E+01 0. -1.
        -11    1    1    2    0    0 -0.22617626512E+01  0.27829109633E+02 -0.36076662068E+02  0.45619079991E+02  0.00000000000E+00 0. -1.
         11    1    1    2    0    0  0.15472789708E+02 -0.62011268144E+02 -0.17033616372E+02  0.66143394870E+02  0.00000000000E+00 0.  1.
</event>
<event>
 7    1  0.2728221E-009  0.7532362E+02  0.7561462E-02  0.1342872E+00
         -1   -1    0    0    0  501 -0.00000000000E+00  0.00000000000E+00  0.70461178330E+02  0.70461178330E+02  0.00000000000E+00 0.  1.
          1   -1    0    0  501    0  0.00000000000E+00 -0.00000000000E+00 -0.21380389517E+03  0.21380389517E+03  0.00000000000E+00 0. -1.
         25    2    1    2    0    0  0.14064708687E+02 -0.39635637272E+02 -0.13023350420E+03  0.18540986633E+03  0.12508898090E+03 0.  0.
          5    1    3    3  502    0  0.15938257423E+01 -0.61824803442E+02 -0.14356404971E+03  0.15637440766E+03  0.41800000000E+01 0.  1.
         -5    1    3    3    0  502  0.12470882945E+02  0.22189166169E+02  0.13330545507E+02  0.29035458671E+02  0.41800000000E+01 0.  1.
        -11    1    1    2    0    0 -0.55395060170E+01  0.49511150034E+02  0.27008071207E+02  0.56669886314E+02  0.00000000000E+00 0.  1.
         11    1    1    2    0    0 -0.85252026701E+01 -0.98755127615E+01 -0.40117283837E+02  0.42185320852E+02  0.00000000000E+00 0. -1.
</event>
<event>
 7    1  0.2728221E-009  0.1177405E+03  0.7561462E-02  0.1246872E+00
         -4   -1    0    0    0  501 -0.00000000000E+00  0.00000000000E+00  0.46525127799E+02  0.46525127799E+02  0.00000000000E+00 0.  1.
          4   -1    0    0  501    0  0.00000000000E+00 -0.00000000000E+00 -0.42286380038E+03  0.42286380038E+03  0.00000000000E+00 0. -1.
         25    2    1    2    0    0  0.60796659666E+02 -0.57096293267E+01 -0.97246041132E+02  0.16980581323E+03  0.12509351701E+03 0.  0.
          5    1    3    3  502    0  0.16283336498E+02  0.55706921912E+02 -0.65108221836E+02  0.87321023512E+02  0.41800000000E+01 0. -1.
         -5    1    3    3    0  502  0.44513323168E+02 -0.61416551239E+02 -0.32137819295E+02  0.82484789717E+02  0.41800000000E+01 0. -1.
        -11    1    1    2    0    0 -0.13015917935E+02 -0.35762543543E+02 -0.56115183041E+02  0.67803299390E+02  0.00000000000E+00 0.  1.
         11    1    1    2    0    0 -0.47780741731E+02  0.41472172870E+02 -0.22297744841E+03  0.23177981556E+03  0.00000000000E+00 0. -1.
</event>
<event>
 7    1  0.2728221E-009  0.1431356E+03  0.7561462E-02  0.1209171E+00
          1   -1    0    0  501    0  0.00000000000E+00  0.00000000000E+00  0.75552815062E+03  0.75552815062E+03  0.00000000000E+00 0. -1.
         -1   -1    0    0    0  501 -0.00000000000E+00 -0.00000000000E+00 -0.32079562291E+02  0.32079562291E+02  0.00000000000E+00 0.  1.
         25    2    1    2    0    0 -0.10138876730E+03  0.66638009181E+01  0.27015243598E+03  0.31456912697E+03  0.12508920256E+03 0.  0.
          5    1    3    3  502    0 -0.38072017111E+02  0.64560021478E+02  0.13367055066E+03  0.15330611003E+03  0.41800000000E+01 0. -1.
         -5    1    3    3    0  502 -0.63316750192E+02 -0.57896220559E+02  0.13648188532E+03  0.16126301694E+03  0.41800000000E+01 0. -1.
        -11    1    1    2    0    0  0.75117434707E+02 -0.38191123795E+02  0.20950526298E+03  0.22581772771E+03  0.00000000000E+00 0.  1.
         11    1    1    2    0    0  0.26271332596E+02  0.31527322877E+02  0.24379088937E+03  0.24722085823E+03  0.00000000000E+00 0. -1.
</event>
<event>
 7    1  0.2728221E-009  0.1623039E+03  0.7561462E-02  0.1186120E+00
          1   -1    0    0  501    0  0.00000000000E+00  0.00000000000E+00  0.67097828672E+02  0.67097828672E+02  0.00000000000E+00 0. -1.
         -1   -1    0    0    0  501 -0.00000000000E+00 -0.00000000000E+00 -0.50207815357E+03  0.50207815357E+03  0.00000000000E+00 0.  1.
         25    2    1    2    0    0 -0.13202388671E+03 -0.82536161753E+01 -0.12894652333E+03  0.22310361933E+03  0.12509832230E+03 0.  0.
          5    1    3    3  502    0 -0.14664018637E+03 -0.33901757070E+00 -0.71580570066E+02  0.16323207283E+03  0.41800000000E+01 0.  1.
         -5    1    3    3    0  502  0.14616299661E+02 -0.79145986046E+01 -0.57365953262E+02  0.59871546502E+02  0.41800000000E+01 0.  1.
        -11    1    1    2    0    0  0.79399753275E+02 -0.40410965688E+02 -0.15216440863E+03  0.17632746304E+03  0.00000000000E+00 0. -1.
         11    1    1    2    0    0  0.52624133431E+02  0.48664581863E+02 -0.15386939294E+03  0.16974489987E+03  0.00000000000E+00 0.  1.
</event>
<event>
 7    1  0.2728221E-009  0.9835456E+02  0.7561462E-02  0.1283795E+00
          2   -1    0    0  501    0  0.00000000000E+00  0.00000000000E+00  0.18686347656E+03  0.18686347656E+03  0.00000000000E+00 0. -1.
         -2   -1    0    0    0  501 -0.00000000000E+00 -0.00000000000E+00 -0.12476345188E+03  0.12476345188E+03  0.00000000000E+00 0.  1.
         25    2    1    2    0    0  0.43935359734E+02 -0.79312627077E+01  0.13282281365E+03  0.18783777575E+03  0.12509160407E+03 0.  0.
          5    1    3    3  502    0  0.34566535218E+02  0.38283251657E+02  0.55492850177E+01  0.52045361740E+02  0.41800000000E+01 0. -1.
         -5    1    3    3    0  502  0.93688245155E+01 -0.46214514365E+02  0.12727352863E+03  0.13579241401E+03  0.41800000000E+01 0. -1.
        -11    1    1    2    0    0  0.23421504094E+02  0.17968869132E+02 -0.65964358810E+01  0.30248307031E+02  0.00000000000E+00 0.  1.
         11    1    1    2    0    0 -0.67356863827E+02 -0.10037606424E+02 -0.64126353083E+02  0.93540845662E+02  0.00000000000E+00 0. -1.
</event>
<event>
 7    1  0.2728221E-009  0.1073785E+03  0.7561462E-02  0.1265503E+00
          2   -1    0    0  501    0  0.00000000000E+00  0.00000000000E+00  0.21376552812E+04  0.21376552812E+04  0.00000000000E+00 0.  1.
         -2   -1    0    0    0  501 -0.00000000000E+00 -0.00000000000E+00 -0.97045785446E+01  0.97045785446E+01  0.00000000000E+00 0. -1.
         25    2    1    2    0    0  0.31371781734E+02 -0.51122315225E+02  0.16984560730E+04  0.17041122534E+04  0.12509140930E+03 0.  0.
          5    1    3    3  502    0  0.54406175185E+02 -0.35949919834E+01  0.32003662314E+03  0.32467501970E+03  0.41800000000E+01 0. -1.
         -5    1    3    3    0  502 -0.23034393452E+02 -0.47527323242E+02  0.13784194498E+04  0.13794372337E+04  0.41800000000E+01 0. -1.
        -11    1    1    2    0    0  0.41550062514E-01 -0.24866252290E+02  0.14467682156E+03  0.14679821159E+03  0.00000000000E+00 0. -1.
         11    1    1    2    0    0 -0.31413331796E+02  0.75988567516E+02  0.28481780817E+03  0.29644939477E+03  0.00000000000E+00 0.  1.
</event>
<event>
 7    1  0.2728221E-009  0.1132542E+03  0.7561462E-02  0.1254660E+00
         -3   -1    0    0    0  501 -0.00000000000E+00  0.00000000000E+00  0.72056735882E+02  0.72056735882E+02  0.00000000000E+00 0.  1.
          3   -1    0    0  501    0  0.00000000000E+00 -0.00000000000E+00 -0.24379901722E+03  0.24379901722E+03  0.00000000000E+00 0. -1.
         25    2    1    2    0    0  0.56942872448E+02 -0.18002393402E+02 -0.14948987299E+03  0.20386384812E+03  0.12508664817E+03 0.  0.
          5    1    3    3  502    0  0.63979947721E+02 -0.64437377727E+02 -0.89559957486E+02  0.12760904256E+03  0.41800000000E+01 0.  1.
         -5    1    3    3    0  502 -0.70370752724E+01  0.46434984325E+02 -0.59929915507E+02  0.76254805556E+02  0.41800000000E+01 0.  1.
        -11    1    1    2    0    0  0.54767621205E+01 -0.16325510989E+02 -0.35572322320E+02  0.39520973515E+02  0.00000000000E+00 0. -1.
         11    1    1    2    0    0 -0.62419634569E+02  0.34327904391E+02  0.13319913976E+02  0.72470931468E+02  0.00000000000E+00 0.  1.
</event>
<event>
 7    1  0.2728221E-009  0.1193671E+03  0.7561462E-02  0.1244145E+00
          2   -1    0    0  501    0  0.00000000000E+00  0.00000000000E+00  0.92099609177E+02  0.92099609177E+02  0.00000000000E+00 0.  1.
         -2   -1    0    0    0  501 -0.00000000000E+00 -0.00000000000E+00 -0.23630783663E+03  0.23630783663E+03  0.00000000000E+00 0. -1.
         25    2    1    2    0    0  0.75702009901E+02  0.63953575486E+02 -0.85873268506E+02  0.18122411538E+03  0.12508839926E+03 0.  0.
          5    1    3    3  502    0 -0.12766833086E+02  0.15020796995E+02  0.24344334667E+02  0.31602775191E+02  0.41800000000E+01 0.  1.
         -5    1    3    3    0  502  0.88468842987E+02  0.48932778491E+02 -0.11021760317E+03  0.14962134019E+03  0.41800000000E+01 0.  1.
        -11    1    1    2    0    0 -0.54777876826E+02 -0.75669377481E+02 -0.73452691211E+02  0.11883504670E+03  0.00000000000E+00 0. -1.
         11    1    1    2    0    0 -0.20924133075E+02  0.11715801996E+02  0.15117732266E+02  0.28348283726E+02  0.00000000000E+00 0.  1.
</event>
<event>
 7    1  0.3404796E-009  0.7208623E+02  0.7561462E-02  0.1353139E+00
          1   -1    0    0  501    0  0.00000000000E+00  0.00000000000E+00  0.41983184279E+02  0.41983184279E+02  0.00000000000E+00 0. -1.
         -1   -1    0    0    0  501 -0.00000000000E+00 -0.00000000000E+00 -0.42002725679E+03  0.42002725679E+03  0.00000000000E+00 0.  1.
         25    2    1    2    0    0 -0.19534445227E+02 -0.41465839028E+02 -0.10295064916E+03  0.16836044340E+03  0.12508154293E+03 0.  0.
          5    1    3    3  502    0 -0.29182276398E+01 -0.32822803107E+02  0.23355041068E+02  0.40605206559E+02  0.41800000000E+01 0.  1.
         -5    1    3    3    0  502 -0.16616217587E+02 -0.86430359210E+01 -0.12630569022E+03  0.12775523684E+03  0.41800000000E+01 0.  1.
        -11    1    1    2    0    0  0.10617105136E+02 -0.23712130202E+02 -0.15079258367E+03  0.15301435008E+03  0.00000000000E+00 0.  1.
         11    1    1    2    0    0  0.89173400904E+01  0.65177969230E+02 -0.12430083968E+03  0.14063564759E+03  0.00000000000E+00 0. -1.
</event>
<event>
 7    1  0.2728221E-009  0.6791750E+02  0.7561462E-02  0.1367321E+00
          1   -1    0    0  501    0  0.00000000000E+00  0.00000000000E+00  0.33677605565E+03  0.33677605565E+03  0.00000000000E+00 0.  1.
         -1   -1    0    0    0  501 -0.00000000000E+00 -0.00000000000E+00 -0.38023904271E+02  0.38023904271E+02  0.00000000000E+00 0. -1.
         25    2    1    2    0    0 -0.25873378564E+01 -0.10136437211E+02  0.12117998906E+03  0.17446474546E+03  0.12507564105E+03 0.  0.
          5    1    3    3  502    0  0.61456284476E+01  0.24205460122E+02 -0.17817055519E+02  0.30961151725E+02  0.41800000000E+01 0. -1.
         -5    1    3    3    0  502 -0.87329663040E+01 -0.34341897333E+02  0.13899704458E+03  0.14350359374E+03  0.41800000000E+01 0. -1.
        -11    1    1    2    0    0 -0.35776950244E+02  0.52084716887E+01  0.27681763827E+02  0.45534584599E+02  0.00000000000E+00 0.  1.
         11    1    1    2    0    0  0.38364288100E+02  0.49279655219E+01  0.14989039849E+03  0.15480062986E+03  0.00000000000E+00 0. -1.
</event>
<event>
 7    1  0.2728221E-009  0.1016783E+03  0.7561462E-02  0.1276806E+00
          1   -1    0    0  501    0  0.00000000000E+00  0.00000000000E+00  0.33290923614E+02  0.33290923614E+02  0.00000000000E+00 0. -1.
         -1   -1    0    0    0  501 -0.00000000000E+00 -0.00000000000E+00 -0.44443292279E+03  0.44443292279E+03  0.00000000000E+00 0.  1.
         25    2    1    2    0    0 -0.35169259231E+02  0.36651407006E+02 -0.27706421617E+03  0.30820858691E+03  0.12509096982E+03 0.  0.
          5    1    3    3  502    0  0.31359451343E+02  0.44362157055E+02 -0.19355861235E+03  0.20108163760E+03  0.41800000000E+01 0.  1.
         -5    1    3    3    0  502 -0.66528710574E+02 -0.77107500498E+01 -0.83505603827E+02  0.10712694931E+03  0.41800000000E+01 0.  1.
        -11    1    1    2    0    0  0.48084766576E+02 -0.45427305633E+02 -0.47242991561E+02  0.81287668963E+02  0.00000000000E+00 0. -1.
         11    1    1    2    0    0 -0.12915507345E+02  0.87758986276E+01 -0.86834791441E+02  0.88227590534E+02  0.00000000000E+00 0.  1.
</event>
<event>
 7    1  0.3042144E-009  0.1141377E+03  0.7561462E-02  0.1253094E+00
          2   -1    0    0  501    0  0.00000000000E+00  0.00000000000E+00  0.23310530875E+03  0.23310530875E+03  0.00000000000E+00 0.  1.
         -2   -1    0    0    0  501 -0.00000000000E+00 -0.00000000000E+00 -0.73650938192E+02  0.73650938192E+02  0.00000000000E+00 0. -1.
         25    2    1    2    0    0  0.44062787010E+02  0.57674155895E+02  0.77098976544E+02  0.16388692049E+03  0.12508730178E+03 0.  0.
          5    1    3    3  502    0  0.68336878877E+02  0.68820646106E+02  0.91372829468E+02  0.13331420296E+03  0.41800000000E+01 0.  1.
         -5    1    3    3    0  502 -0.24274091867E+02 -0.11146490210E+02 -0.14273852924E+02  0.30572717532E+02  0.41800000000E+01 0.  1.
        -11    1    1    2    0    0 -0.27909409132E+02  0.13625047589E+02 -0.21476535350E+01  0.31131807779E+02  0.00000000000E+00 0.  1.
         11    1    1    2    0    0 -0.16153377878E+02 -0.71299203484E+02  0.84503047553E+02  0.11173751868E+03  0.00000000000E+00 0. -1.
</event>
<event>
 7    1  0.2728221E-009  0.6565427E+02  0.7561462E-02  0.1375527E+00
         -3   -1    0    0    0  501 -0.00000000000E+00  0.00000000000E+00  0.69342157316E+02  0.69342157316E+02  0.00000000000E+00 0.  1.
          3   -1    0    0  501    0  0.00000000000E+00 -0.00000000000E+00 -0.19788871656E+03  0.19788871656E+03  0.00000000000E+00 0. -1.
         25    2    1    2    0    0 -0.21582171344E+02  0.54506424052E+01 -0.11923532818E+03  0.17424126592E+03  0.12508979031E+03 0.  0.
          5    1    3    3  502    0 -0.53413820060E+00  0.16421208906E+02  0.23782751650E+02  0.29206730074E+02  0.41800000000E+01 0.  1.
         -5    1    3    3    0  502 -0.21048033143E+02 -0.10970566501E+02 -0.14301807983E+03  0.14503453584E+03  0.41800000000E+01 0.  1.
        -11    1    1    2    0    0  0.13800006979E+02 -0.46484265952E+02  0.52181973414E+01  0.48769424409E+02  0.00000000000E+00 0. -1.
         11    1    1    2    0    0  0.77821643648E+01  0.41033623547E+02 -0.14529428406E+02  0.44220183552E+02  0.00000000000E+00 0.  1.
</event>
<event>
 7    1  0.2728221E-009  0.1103038E+03  0.7561462E-02  0.1260008E+00
          2   -1    0    0  501    0  0.00000000000E+00  0.00000000000E+00  0.35144042888E+03  0.35144042888E+03  0.00000000000E+00 0. -1.
         -2   -1    0    0    0  501 -0.00000000000E+00 -0.00000000000E+00 -0.48578707995E+02  0.48578707995E+02  0.00000000000E+00 0.  1.
         25    2    1    2    0    0  0.62014402198E+02 -0.34772846242E+02  0.13625292560E+03  0.19817070223E+03  0.12510727626E+03 0.  0.
          5    1    3    3  502    0  0.46167136144E+02 -0.61897455036E+02  0.23165767123E+02  0.80726851580E+02  0.41800000000E+01 0.  1.
         -5    1    3    3    0  502  0.15847266055E+02  0.27124608794E+02  0.11308715848E+03  0.11744385065E+03  0.41800000000E+01 0.  1.
        -11    1    1    2    0    0 -0.69911386289E+02  0.55590644690E+02  0.14784423189E+03  0.17273053758E+03  0.00000000000E+00 0. -1.
         11    1    1    2    0    0  0.78969840912E+01 -0.20817798447E+02  0.18764563399E+02  0.29117897065E+02  0.00000000000E+00 0.  1.
</event>
<event>
 7    1  0.2728221E-009  0.1106007E+03  0.7561462E-02  0.1259462E+00
         -1   -1    0    0    0  501 -0.00000000000E+00  0.00000000000E+00  0.82437476516E+02  0.82437476516E+02  0.00000000000E+00 0.  1.
          1   -1    0    0  501    0  0.00000000000E+00 -0.00000000000E+00 -0.22298217857E+03  0.22298217857E+03  0.00000000000E+00 0. -1.
         25    2    1    2    0    0 -0.24475095205E+02  0.61251939128E+02 -0.20460779133E+02  0.14288728273E+03  0.12508917519E+03 0.  0.
          5    1    3    3  502    0 -0.20308914776E+02 -0.29329809505E+02  0.22579753139E+02  0.42426494043E+02  0.41800000000E+01 0.  1.
         -5    1    3    3    0  502 -0.41661804289E+01  0.90581748633E+02 -0.43040532272E+02  0.10046078868E+03  0.41800000000E+01 0.  1.
        -11    1    1    2    0    0 -0.22095137855E+02 -0.34006415143E+02 -0.12937089223E+02  0.42567589376E+02  0.00000000000E+00 0.  1.
         11    1    1    2    0    0  0.46570233059E+02 -0.27245523985E+02 -0.10714683369E+03  0.11996478298E+03  0.00000000000E+00 0. -1.
</event>
<event>
 7    1  0.2728221E-009  0.1267479E+03  0.7561462E-02  0.1232363E+00
          1   -1    0    0  501    0  0.00000000000E+00  0.00000000000E+00  0.69236232621E+03  0.69236232621E+03  0.00000000000E+00 0. -1.
         -1   -1    0    0    0  501 -0.00000000000E+00 -0.00000000000E+00 -0.27337915156E+02  0.27337915156E+02  0.00000000000E+00 0.  1.
         25    2    1    2    0    0 -0.74069091967E+02  0.15123887965E+02  0.46174276053E+03  0.48432285972E+03  0.12508914089E+03 0.  0.
          5    1    3    3  502    0 -0.85626600801E+02 -0.27982436932E+02  0.20884224913E+03  0.22748074416E+03  0.41800000000E+01 0. -1.
         -5    1    3    3    0  502  0.11557508834E+02  0.43106324897E+02  0.25290051140E+03  0.25684211556E+03  0.41800000000E+01 0. -1.
        -11    1    1    2    0    0 -0.14951119551E+02  0.18097636704E+02  0.35515269306E+02  0.42572230197E+02  0.00000000000E+00 0. -1.
         11    1    1    2    0    0  0.89020211518E+02 -0.33221524669E+02  0.16776638121E+03  0.19280515145E+03  0.00000000000E+00 0.  1.
</event>
<event>
 7    1  0.2728221E-009  0.1368919E+03  0.7561462E-02  0.1217573E+00
         -2   -1    0    0    0  501 -0.00000000000E+00  0.00000000000E+00  0.19170853124E+03  0.19170853124E+03  0.00000000000E+00 0.  1.
          2   -1    0    0  501    0  0.00000000000E+00 -0.00000000000E+00 -0.12962721128E+03  0.12962721128E+03  0.00000000000E+00 0. -1.
         25    2    1    2    0    0 -0.38150239084E+02 -0.93883234678E+02  0.76615966468E+02  0.17829088326E+03  0.12509248674E+03 0.  0.
          5    1    3    3  502    0 -0.50527579721E+02 -0.16967977560E+02  0.84376498583E+02  0.99889010847E+02  0.41800000000E+01 0. -1.
         -5    1    3    3    0  502  0.12377340637E+02 -0.76915257118E+02 -0.77605321150E+01  0.78401872411E+02  0.41800000000E+01 0. -1.
        -11    1    1    2    0    0  0.61217841837E+02  0.10105035436E+03 -0.12336636347E+02  0.11878969177E+03  0.00000000000E+00 0.  1.
         11    1    1    2    0    0 -0.23067602753E+02 -0.71671196826E+01 -0.21980101588E+01  0.24255167490E+02  0.00000000000E+00 0. -1.
</event>
<event>
 7    1  0.2728221E-009  0.1349546E+03  0.7561462E-02  0.1220284E+00
          1   -1    0    0  501    0  0.00000000000E+00  0.00000000000E+00  0.15662946631E+03  0.15662946631E+03  0.00000000000E+00 0. -1.
         -1   -1    0    0    0  501 -0.00000000000E+00 -0.00000000000E+00 -0.16392012490E+03  0.16392012490E+03  0.00000000000E+00 0.  1.
         25    2    1    2    0    0 -0.73117748063E+02  0.82612900847E+02  0.36021689669E+02  0.17063552256E+03  0.12509125855E+03 0.  0.
          5    1    3    3  502    0 -0.91606846227E+02  0.98406037460E+02  0.48499765082E+02  0.14298692981E+03  0.41800000000E+01 0.  1.
         -5    1    3    3    0  502  0.18489098164E+02 -0.15793136613E+02 -0.12478075413E+02  0.27648592749E+02  0.41800000000E+01 0.  1.
        -11    1    1    2    0    0  0.16135015698E+02 -0.12705705930E+02 -0.55245314838E+02  0.58939108462E+02  0.00000000000E+00 0.  1.
         11    1    1    2    0    0  0.56982732365E+02 -0.69907194917E+02  0.11932966581E+02  0.90974960183E+02  0.00000000000E+00 0. -1.
</event>
<event>
 7    1  0.2728221E-009  0.1213814E+03  0.7561462E-02  0.1240835E+00
         -1   -1    0    0    0  501 -0.00000000000E+00  0.00000000000E+00  0.16399566842E+03  0.16399566842E+03  0.00000000000E+00 0. -1.
          1   -1    0    0  501    0  0.00000000000E+00 -0.00000000000E+00 -0.18234846650E+03  0.18234846650E+03  0.00000000000E+00 0.  1.
         25    2    1    2    0    0  0.52222029024E+02  0.49096804265E+02  0.10525055740E+03  0.17850250290E+03  0.12509127549E+03 0.  0.
          5    1    3    3  502    0  0.64903127423E+01  0.81805234973E+02  0.37386699778E+02  0.90274350448E+02  0.41800000000E+01 0.  1.
         -5    1    3    3    0  502  0.45731716282E+02 -0.32708430709E+02  0.67863857624E+02  0.88228152452E+02  0.41800000000E+01 0.  1.
        -11    1    1    2    0    0 -0.29646965239E+02 -0.68376287083E+02 -0.53589353996E+02  0.91793671050E+02  0.00000000000E+00 0. -1.
         11    1    1    2    0    0 -0.22575063785E+02  0.19279482818E+02 -0.70014001485E+02  0.76047960963E+02  0.00000000000E+00 0.  1.
</event>
<event>
 7    1  0.2728221E-009  0.1435375E+03  0.7561462E-02  0.1208647E+00
         -2   -1    0    0    0  501 -0.00000000000E+00  0.00000000000E+00  0.78891411495E+02  0.78891411495E+02  0.00000000000E+00 0.  1.
          2   -1    0    0  501    0  0.00000000000E+00 -0.00000000000E+00 -0.32170544601E+03  0.32170544601E+03  0.00000000000E+00 0. -1.
         25    2    1    2    0    0  0.61857552126E+02  0.92796177505E+02 -0.17174396269E+03  0.23996080107E+03  0.12509080707E+03 0.  0.
          5    1    3    3  502    0  0.78475607046E+02  0.98045065574E+02 -0.18056748773E+03  0.21998487632E+03  0.41800000000E+01 0.  1.
         -5    1    3    3    0  502 -0.16618054920E+02 -0.52488880690E+01  0.88235250419E+01  0.19975924746E+02  0.41800000000E+01 0.  1.
        -11    1    1    2    0    0 -0.50818841490E+02 -0.11107411763E+03 -0.65351080705E+02  0.13853078360E+03  0.00000000000E+00 0.  1.
         11    1    1    2    0    0 -0.11038710636E+02  0.18277940120E+02 -0.57189911206E+01  0.22105272832E+02  0.00000000000E+00 0. -1.
</event>
<event>
 7    1  0.2728221E-009  0.7438241E+02  0.7561462E-02  0.1345794E+00
          1   -1    0    0  501    0  0.00000000000E+00  0.00000000000E+00  0.49580461447E+02  0.49580461447E+02  0.00000000000E+00 0. -1.
         -1   -1    0    0    0  501 -0.00000000000E+00 -0.00000000000E+00 -0.34234779458E+03  0.34234779458E+03  0.00000000000E+00 0.  1.
         25    2    1    2    0    0  0.19383033934E+02  0.23601437895E+02 -0.63249831862E+02  0.14343227860E+03  0.12505817622E+03 0.  0.
          5    1    3    3  502    0 -0.14427214346E+02  0.71807655581E+01  0.34671542415E+02  0.38461619326E+02  0.41800000000E+01 0.  1.
         -5    1    3    3    0  502  0.33810248279E+02  0.16420672337E+02 -0.97921374277E+02  0.10497065928E+03  0.41800000000E+01 0.  1.
        -11    1    1    2    0    0  0.35337035358E+01  0.33022974151E+02 -0.64776006963E+02  0.72793783805E+02  0.00000000000E+00 0. -1.
         11    1    1    2    0    0 -0.22916737469E+02 -0.56624412046E+02 -0.16474149431E+03  0.17570219362E+03  0.00000000000E+00 0.  1.
</event>
<event>
 7    1  0.2728221E-009  0.1166036E+03  0.7561462E-02  0.1248808E+00
          4   -1    0    0  501    0  0.00000000000E+00  0.00000000000E+00  0.19517077628E+03  0.19517077628E+03  0.00000000000E+00 0. -1.
         -4   -1    0    0    0  501 -0.00000000000E+00 -0.00000000000E+00 -0.91757005829E+02  0.91757005829E+02  0.00000000000E+00 0.  1.
         25    2    1    2    0    0  0.48147155569E+02 -0.48965340800E+02  0.96809883414E+02  0.17244081824E+03  0.12509168269E+03 0.  0.
          5    1    3    3  502    0 -0.26485200891E+02  0.55105330460E+01 -0.11778188006E+02  0.29799831432E+02  0.41800000000E+01 0.  1.
         -5    1    3    3    0  502  0.74632356459E+02 -0.54475873846E+02  0.10858807142E+03  0.14264098681E+03  0.41800000000E+01 0.  1.
        -11    1    1    2    0    0 -0.52296091181E+02  0.72527519734E+02  0.11233953335E+02  0.90118388685E+02  0.00000000000E+00 0. -1.
         11    1    1    2    0    0  0.41489356125E+01 -0.23562178934E+02 -0.46300662965E+01  0.24368575189E+02  0.00000000000E+00 0.  1.
</event>
<event>
 7    1  0.2728221E-009  0.1151000E+03  0.7561462E-02  0.1251407E+00
         -2   -1    0    0    0  501 -0.00000000000E+00  0.00000000000E+00  0.31400305801E+02  0.31400305801E+02  0.00000000000E+00 0.  1.
          2   -1    0    0  501    0  0.00000000000E+00 -0.00000000000E+00 -0.56241821627E+03  0.56241821627E+03  0.00000000000E+00 0. -1.
         25    2    1    2    0    0 -0.25389931457E+02 -0.62137218482E+02 -0.37384648564E+03  0.39988991446E+03  0.12508023953E+03 0.  0.
          5    1    3    3  502    0  0.69954083274E+01  0.31539455136E+02 -0.17110602617E+03  0.17417926846E+03  0.41800000000E+01 0.  1.
         -5    1    3    3    0  502 -0.32385339785E+02 -0.93676673618E+02 -0.20274045947E+03  0.22571064601E+03  0.41800000000E+01 0.  1.
        -11    1    1    2    0    0  0.33105638708E+02 -0.26157663679E+01 -0.10587179351E+03  0.11095792991E+03  0.00000000000E+00 0. -1.
         11    1    1    2    0    0 -0.77157072510E+01  0.64752984849E+02 -0.51299631312E+02  0.82970677700E+02  0.00000000000E+00 0.  1.
</event>
<event>
 7    1  0.2728221E-009  0.8962091E+02  0.7561462E-02  0.1303772E+00
         -2   -1    0    0    0  501 -0.00000000000E+00  0.00000000000E+00  0.57055697764E+02  0.57055697764E+02  0.00000000000E+00 0.  1.
          2   -1    0    0  501    0  0.00000000000E+00 -0.00000000000E+00 -0.24247650229E+03  0.24247650229E+03  0.00000000000E+00 0. -1.
         25    2    1    2    0    0  0.25882573013E+01  0.76810382814E+01 -0.47659594840E+02  0.13411039763E+03  0.12509382218E+03 0.  0.
          5    1    3    3  502    0  0.46096004635E+02  0.47314730033E+02 -0.21759353776E+02  0.69674006618E+02  0.41800000000E+01 0.  1.
         -5    1    3    3    0  502 -0.43507747334E+02 -0.39633691751E+02 -0.25900241064E+02  0.64436391015E+02  0.41800000000E+01 0.  1.
        -11    1    1    2    0    0  0.19354064047E+02  0.13465235999E+02  0.75864848538E+00  0.23589572340E+02  0.00000000000E+00 0.  1.
         11    1    1    2    0    0 -0.21942321349E+02 -0.21146274280E+02 -0.13851985817E+03  0.14183223008E+03  0.00000000000E+00 0. -1.
</event>
<event>
 7    1  0.2728221E-009  0.7308900E+02  0.7561462E-02  0.1349893E+00
         -2   -1    0    0    0  501 -0.00000000000E+00  0.00000000000E+00  0.28088665761E+02  0.28088665761E+02  0.00000000000E+00 0.  1.
          2   -1    0    0  501    0  0.00000000000E+00 -0.00000000000E+00 -0.41166115862E+03  0.41166115862E+03  0.00000000000E+00 0. -1.
         25    2    1    2    0    0 -0.15471593545E+01  0.31034317151E+02 -0.24211557466E+03  0.27428548231E+03  0.12508817600E+03 0.  0.
          5    1    3    3  502    0 -0.10836745179E+02 -0.16692348979E+02  0.61685227689E+01  0.21250709015E+02  0.41800000000E+01 0. -1.
         -5    1    3    3    0  502  0.92895858242E+01  0.47726666129E+02 -0.24828409742E+03  0.25303477330E+03  0.41800000000E+01 0. -1.
        -11    1    1    2    0    0  0.11384482911E+02 -0.52345128791E+02 -0.58815167540E+02  0.79554024990E+02  0.00000000000E+00 0.  1.
         11    1    1    2    0    0 -0.98373235560E+01  0.21310811640E+02 -0.82641750666E+02  0.85910317079E+02  0.00000000000E+00 0. -1.
</event>
<event>
 7    1  0.2728221E-009  0.1059543E+03  0.7561462E-02  0.1268251E+00
         -2   -1    0    0    0  501 -0.00000000000E+00  0.00000000000E+00  0.26595184936E+02  0.26595184936E+02  0.00000000000E+00 0.  1.
          2   -1    0    0  501    0  0.00000000000E+00 -0.00000000000E+00 -0.75581945917E+03  0.75581945917E+03  0.00000000000E+00 0. -1.
         25    2    1    2    0    0 -0.86440978063E+02  0.13958307207E+02 -0.42772856285E+03  0.45416635682E+03  0.12509388137E+03 0.  0.
          5    1    3    3  502    0  0.15933026815E+02  0.14354158971E+02 -0.23394399848E+03  0.23496206087E+03  0.41800000000E+01 0.  1.
         -5    1    3    3    0  502 -0.10237400488E+03 -0.39585176330E+00 -0.19378456437E+03  0.21920429595E+03  0.41800000000E+01 0.  1.
        -11    1    1    2    0    0  0.28962251912E+02 -0.59256924378E+01 -0.10269208641E+02  0.31295087679E+02  0.00000000000E+00 0.  1.
         11    1    1    2    0    0  0.57478726150E+02 -0.80326147694E+01 -0.29122650274E+03  0.29695319961E+03  0.00000000000E+00 0. -1.
</event>
<event>
 7    1  0.2728221E-009  0.1116849E+03  0.7561462E-02  0.1257481E+00
          2   -1    0    0  501    0  0.00000000000E+00  0.00000000000E+00  0.21904296090E+04  0.21904296090E+04  0.00000000000E+00 0. -1.
         -2   -1    0    0    0  501 -0.00000000000E+00 -0.00000000000E+00 -0.10087300390E+02  0.10087300390E+02  0.00000000000E+00 0.  1.
         25    2    1    2    0    0  0.48232502791E+02  0.44555919972E+02  0.17426443303E+04  0.17483614274E+04  0.12508722799E+03 0.  0.
          5    1    3    3  502    0  0.67203355549E+01 -0.26969685504E+02  0.10724090197E+03  0.11086302495E+03  0.41800000000E+01 0. -1.
         -5    1    3    3    0  502  0.41512167236E+02  0.71525605476E+02  0.16354034283E+04  0.16374984024E+04  0.41800000000E+01 0. -1.
        -11    1    1    2    0    0 -0.62061412154E+02 -0.63639288508E+02  0.36788778084E+03  0.37847456613E+03  0.00000000000E+00 0. -1.
         11    1    1    2    0    0  0.13828909363E+02  0.19083368537E+02  0.69810197521E+02  0.73680915893E+02  0.00000000000E+00 0.  1.
</event>
<event>
 7    1  0.2728221E-009  0.5489417E+02  0.7561462E-02  0.1420600E+00
          2   -1    0    0  501    0  0.00000000000E+00  0.00000000000E+00  0.38454649201E+03  0.38454649201E+03  0.00000000000E+00 0. -1.
         -2   -1    0    0    0  501 -0.00000000000E+00 -0.00000000000E+00 -0.55664335715E+02  0.55664335715E+02  0.00000000000E+00 0.  1.
         25    2    1    2    0    0 -0.67950283520E+00 -0.24289049091E+02  0.32052952987E+03  0.34492967835E+03  0.12508750480E+03 0.  0.
          5    1    3    3  502    0  0.65591801453E+01 -0.25542350696E+02  0.25322935045E+01  0.26820131127E+02  0.41800000000E+01 0.  1.
         -5    1    3    3    0  502 -0.72386829805E+01  0.12533016058E+01  0.31799723637E+03  0.31810954722E+03  0.41800000000E+01 0.  1.
        -11    1    1    2    0    0 -0.34910487205E+02  0.13717414671E+02 -0.25241811938E+02  0.45211266871E+02  0.00000000000E+00 0.  1.
         11    1    1    2    0    0  0.35589990040E+02  0.10571634420E+02  0.33594438363E+02  0.50069882508E+02  0.00000000000E+00 0. -1.
</event>
<event>
 7    1  0.2728221E-009  0.1217172E+03  0.7561462E-02  0.1240291E+00
          2   -1    0    0  501    0  0.00000000000E+00  0.00000000000E+00  0.11588475229E+04  0.11588475229E+04  0.00000000000E+00 0. -1.
         -2   -1    0    0    0  501 -0.00000000000E+00 -0.00000000000E+00 -0.15308806975E+02  0.15308806975E+02  0.00000000000E+00 0.  1.
         25    2    1    2    0    0  0.43973516076E+02 -0.56178230674E+02  0.76117768149E+03  0.77467997499E+03  0.12509171490E+03 0.  0.
          5    1    3    3  502    0 -0.22373753597E+02  0.26288754316E+02  0.12510460023E+03  0.12984728281E+03  0.41800000000E+01 0.  1.
         -5    1    3    3    0  502  0.66347269674E+02 -0.82466984990E+02  0.63607308125E+03  0.64483269218E+03  0.41800000000E+01 0.  1.
        -11    1    1    2    0    0 -0.15762387592E+01  0.60133871874E+02  0.12623768127E+03  0.13983747441E+03  0.00000000000E+00 0.  1.
         11    1    1    2    0    0 -0.42397277317E+02 -0.39556411994E+01  0.25612335317E+03  0.25963888049E+03  0.00000000000E+00 0. -1.
</event>
<event>
 7    1  0.2728221E-009  0.1062910E+03  0.7561462E-02  0.1267597E+00
         -2   -1    0    0    0  501 -0.00000000000E+00  0.00000000000E+00  0.52663381247E+02  0.52663381247E+02  0.00000000000E+00 0. -1.
          2   -1    0    0  501    0  0.00000000000E+00 -0.00000000000E+00 -0.25764454789E+03  0.25764454789E+03  0.00000000000E+00 0.  1.
         25    2    1    2    0    0 -0.14352533953E+02 -0.68335305461E+01 -0.65752884127E+02  0.14220816559E+03  0.12508808184E+03 0.  0.
          5    1    3    3  502    0 -0.66079734236E+02 -0.15589544155E+01 -0.12005065994E+02  0.67309402205E+02  0.41800000000E+01 0.  1.
         -5    1    3    3    0  502  0.51727200283E+02 -0.52745761306E+01 -0.53747818133E+02  0.74898763385E+02  0.41800000000E+01 0.  1.
        -11    1    1    2    0    0  0.26552852332E+01  0.49691863083E+02 -0.72463379968E+02  0.87904910174E+02  0.00000000000E+00 0. -1.
         11    1    1    2    0    0  0.11697248720E+02 -0.42858332537E+02 -0.66764902552E+02  0.80194853377E+02  0.00000000000E+00 0.  1.
</event>
<event>
 7    1  0.2728221E-009  0.1369695E+03  0.7561462E-02  0.1217466E+00
         -1   -1    0    0    0  501 -0.00000000000E+00  0.00000000000E+00  0.59611913618E+02  0.59611913618E+02  0.00000000000E+00 0.  1.
          1   -1    0    0  501    0  0.00000000000E+00 -0.00000000000E+00 -0.45415034710E+03  0.45415034710E+03  0.00000000000E+00 0. -1.
         25    2    1    2    0    0 -0.41951772259E+02 -0.74863554109E+02 -0.71826004003E+02  0.16784144272E+03  0.12508905672E+03 0.  0.
          5    1    3    3  502    0 -0.57609349438E+02  0.14876310508E+02 -0.37211166276E+02  0.70301387274E+02  0.41800000000E+01 0. -1.
         -5    1    3    3    0  502  0.15657577179E+02 -0.89739864617E+02 -0.34614837728E+02  0.97540055442E+02  0.41800000000E+01 0. -1.
        -11    1    1    2    0    0 -0.50993017047E+01 -0.18156591644E+02 -0.71347591393E+02  0.73797991135E+02  0.00000000000E+00 0.  1.
         11    1    1    2    0    0  0.47051073963E+02  0.93020145753E+02 -0.25136483808E+03  0.27212282687E+03  0.00000000000E+00 0. -1.
</event>
<event>
 7    1  0.2728221E-009  0.7924666E+02  0.7561462E-02  0.1331203E+00
         -2   -1    0    0    0  501 -0.00000000000E+00  0.00000000000E+00  0.30281517799E+02  0.30281517799E+02  0.00000000000E+00 0.  1.
          2   -1    0    0  501    0  0.00000000000E+00 -0.00000000000E+00 -0.43871445576E+03  0.43871445576E+03  0.00000000000E+00 0. -1.
         25    2    1    2    0    0  0.28865040733E+02  0.17306938908E+01 -0.17517804561E+03  0.21718939646E+03  0.12509076862E+03 0.  0.
          5    1    3    3  502    0  0.25235035777E+02 -0.44765999789E+02 -0.20339292378E+02  0.55425273857E+02  0.41800000000E+01 0. -1.
         -5    1    3    3    0  502  0.36300049566E+01  0.46496693679E+02 -0.15483875323E+03  0.16176412260E+03  0.41800000000E+01 0. -1.
        -11    1    1    2    0    0  0.78065056330E+01 -0.18279840080E+02 -0.56376824089E+01  0.20661015137E+02  0.00000000000E+00 0.  1.
         11    1    1    2    0    0 -0.36671546366E+02  0.16549146189E+02 -0.22761720994E+03  0.23114556196E+03  0.00000000000E+00 0. -1.
</event>
<event>
 7    1  0.2728221E-009  0.1120903E+03  0.7561462E-02  0.1256747E+00
         -2   -1    0    0    0  501 -0.00000000000E+00  0.00000000000E+00  0.15955993123E+03  0.15955993123E+03  0.00000000000E+00 0. -1.
          2   -1    0    0  501    0  0.00000000000E+00 -0.00000000000E+00 -0.80811263346E+02  0.80811263346E+02  0.00000000000E+00 0.  1.
         25    2    1    2    0    0 -0.78707412748E+01 -0.28497790740E+02  0.28500032022E+02  0.13165808334E+03  0.12509007330E+03 0.  0.
          5    1    3    3  502    0  0.85795044926E+01  0.48363310735E+02  0.16802254534E+02  0.52080763051E+02  0.41800000000E+01 0.  1.
         -5    1    3    3    0  502 -0.16450245767E+02 -0.76861101475E+02  0.11697777489E+02  0.79577320286E+02  0.41800000000E+01 0.  1.
        -11    1    1    2    0    0  0.47867122329E+02  0.29382388070E+02  0.33037389980E+02  0.65161762296E+02  0.00000000000E+00 0.  1.
         11    1    1    2    0    0 -0.39996381054E+02 -0.88459733049E+00  0.17211245880E+02  0.43551348942E+02  0.00000000000E+00 0. -1.
</event>
<event>
 7    1  0.2728221E-009  0.9720292E+02  0.7561462E-02  0.1286290E+00
         -1   -1    0    0    0  501 -0.00000000000E+00  0.00000000000E+00  0.76193071649E+02  0.76193071649E+02  0.00000000000E+00 0.  1.
          1   -1    0    0  501    0  0.00000000000E+00 -0.00000000000E+00 -0.19396137455E+03  0.19396137455E+03  0.00000000000E+00 0. -1.
         25    2    1    2    0    0  0.16084918981E+02 -0.30259283465E+01 -0.11954681439E+03  0.17379780153E+03  0.12508538733E+03 0.  0.
          5    1    3    3  502    0  0.62267203864E+02  0.20829318298E+02 -0.35156699253E+02  0.74595784600E+02  0.41800000000E+01 0.  1.
         -5    1    3    3    0  502 -0.46182284883E+02 -0.23855246645E+02 -0.84390115138E+02  0.99202016928E+02  0.41800000000E+01 0.  1.
        -11    1    1    2    0    0  0.29959954451E+02 -0.26334970670E+01  0.29652661526E+02  0.42235228342E+02  0.00000000000E+00 0.  1.
         11    1    1    2    0    0 -0.46044873432E+02  0.56594254135E+01 -0.27874150035E+02  0.54121416330E+02  0.00000000000E+00 0. -1.
</event>
<event>
 7    1  0.2728221E-009  0.9737605E+02  0.7561462E-02  0.1285913E+00
         -2   -1    0    0    0  501 -0.00000000000E+00  0.00000000000E+00  0.14122763145E+02  0.14122763145E+02  0.00000000000E+00 0.  1.
          2   -1    0    0  501    0  0.00000000000E+00 -0.00000000000E+00 -0.10229244083E+04  0.10229244083E+04  0.00000000000E+00 0. -1.
         25    2    1    2    0    0  0.28780076624E+02  0.38909407702E+02 -0.65540513158E+03  0.66898891570E+03  0.12509215807E+03 0.  0.
          5    1    3    3  502    0  0.57919361748E+02  0.29161058855E+02 -0.61311011467E+03  0.61654400081E+03  0.41800000000E+01 0.  1.
         -5    1    3    3    0  502 -0.29139285124E+02  0.97483488469E+01 -0.42295016908E+02  0.52444914892E+02  0.41800000000E+01 0.  1.
        -11    1    1    2    0    0  0.36002120347E+01 -0.60006867456E+02 -0.26234457268E+03  0.26914394008E+03  0.00000000000E+00 0.  1.
         11    1    1    2    0    0 -0.32380288659E+02  0.21097459754E+02 -0.91051940860E+02  0.98914315627E+02  0.00000000000E+00 0. -1.
</event>
<event>
 7    1  0.2899016E-009  0.8262760E+02  0.7561462E-02  0.1321756E+00
          2   -1    0    0  501    0  0.00000000000E+00  0.00000000000E+00  0.33523903800E+03  0.33523903800E+03  0.00000000000E+00 0. -1.
         -2   -1    0    0    0  501 -0.00000000000E+00 -0.00000000000E+00 -0.43553766953E+02  0.43553766953E+02  0.00000000000E+00 0.  1.
         25    2    1    2    0    0  0.34088049475E+01 -0.39400751099E+02  0.22217422715E+03  0.25802058406E+03  0.12509674436E+03 0.  0.
          5    1    3    3  502    0  0.37272620866E+02 -0.87484554166E+01  0.84488858794E+01  0.39428920997E+02  0.41800000000E+01 0. -1.
         -5    1    3    3    0  502 -0.33863815918E+02 -0.30652295682E+02  0.21372534127E+03  0.21859166306E+03  0.41800000000E+01 0. -1.
        -11    1    1    2    0    0 -0.31304418196E+02  0.42525250996E+02  0.75438376526E+02  0.92083181004E+02  0.00000000000E+00 0. -1.
         11    1    1    2    0    0  0.27895613248E+02 -0.31244998971E+01 -0.59273326242E+01  0.28689039896E+02  0.00000000000E+00 0.  1.
</event>
<event>
 7    1  0.2728221E-009  0.1757589E+03  0.7561462E-02  0.1171972E+00
          1   -1    0    0  501    0  0.00000000000E+00  0.00000000000E+00  0.11615097375E+04  0.11615097375E+04  0.00000000000E+00 0. -1.
         -1   -1    0    0    0  501 -0.00000000000E+00 -0.00000000000E+00 -0.35950447514E+02  0.35950447514E+02  0.00000000000E+00 0.  1.
         25    2    1    2    0    0 -0.62372250423E+01  0.15409193992E+03  0.81428908815E+03  0.83815125241E+03  0.12509026308E+03 0.  0.
          5    1    3    3  502    0 -0.51631290089E+02  0.79304882881E+02  0.25458834181E+03  0.27163900815E+03  0.41800000000E+01 0.  1.
         -5    1    3    3    0  502  0.45394065047E+02  0.74787057036E+02  0.55970074634E+03  0.56651224426E+03  0.41800000000E+01 0.  1.
        -11    1    1    2    0    0 -0.31659451407E+02 -0.78668821675E+02  0.21586349438E+03  0.23192272975E+03  0.00000000000E+00 0. -1.
         11    1    1    2    0    0  0.37896676449E+02 -0.75423118242E+02  0.95406707470E+02  0.12738620287E+03  0.00000000000E+00 0.  1.
</event>
<event>
 7    1  0.2728221E-009  0.9754799E+02  0.7561462E-02  0.1285538E+00
         -1   -1    0    0    0  501 -0.00000000000E+00  0.00000000000E+00  0.28077039122E+02  0.28077039122E+02  0.00000000000E+00 0.  1.
          1   -1    0    0  501    0  0.00000000000E+00 -0.00000000000E+00 -0.64093851353E+03  0.64093851353E+03  0.00000000000E+00 0. -1.
         25    2    1    2    0    0 -0.11971872555E+01  0.74190000916E+02 -0.27399222876E+03  0.31020114636E+03  0.12508964901E+03 0.  0.
          5    1    3    3  502    0  0.37045301370E+02  0.33163826993E+02 -0.23857505249E+03  0.24373699318E+03  0.41800000000E+01 0. -1.
         -5    1    3    3    0  502 -0.38242488625E+02  0.41026173923E+02 -0.35417176271E+02  0.66464153181E+02  0.41800000000E+01 0. -1.
        -11    1    1    2    0    0  0.21627315760E+02 -0.14943411920E+02 -0.17946101840E+02  0.31829371939E+02  0.00000000000E+00 0.  1.
         11    1    1    2    0    0 -0.20430128504E+02 -0.59246588996E+02 -0.32092314381E+03  0.32698503435E+03  0.00000000000E+00 0. -1.
</event>
<event>
 7    1  0.2728221E-009  0.1112094E+03  0.7561462E-02  0.1258347E+00
          1   -1    0    0  501    0  0.00000000000E+00  0.00000000000E+00  0.53410434637E+03  0.53410434637E+03  0.00000000000E+00 0. -1.
         -1   -1    0    0    0  501 -0.00000000000E+00 -0.00000000000E+00 -0.39923216328E+02  0.39923216328E+02  0.00000000000E+00 0.  1.
         25    2    1    2    0    0 -0.30315471010E+02 -0.89328240181E+02  0.31906226610E+03  0.35545418911E+03  0.12509351953E+03 0.  0.
          5    1    3    3  502    0 -0.28202980428E+02 -0.69382983621E+02  0.61286256462E+02  0.96865288686E+02  0.41800000000E+01 0. -1.
         -5    1    3    3    0  502 -0.21124905822E+01 -0.19945256560E+02  0.25777600964E+03  0.25858890042E+03  0.41800000000E+01 0. -1.
        -11    1    1    2    0    0 -0.27564941204E+02  0.11358833477E+02  0.21197500292E+02  0.36581185057E+02  0.00000000000E+00 0. -1.
         11    1    1    2    0    0  0.57880412214E+02  0.77969406704E+02  0.15392136365E+03  0.18199218853E+03  0.00000000000E+00 0.  1.
</event>
<event>
 7    1  0.2728221E-009  0.1640195E+03  0.7561462E-02  0.1184232E+00
         -1   -1    0    0    0  501 -0.00000000000E+00  0.00000000000E+00  0.24012330189E+03  0.24012330189E+03  0.00000000000E+00 0.  1.
          1   -1    0    0  501    0  0.00000000000E+00 -0.00000000000E+00 -0.20204137189E+03  0.20204137189E+03  0.00000000000E+00 0. -1.
         25    2    1    2    0    0  0.14089675079E+03  0.30786085623E+02 -0.10639785085E+03  0.21855811014E+03  0.12508983728E+03 0.  0.
          5    1    3    3  502    0  0.14905491350E+03  0.22550715939E+02 -0.12524846516E+03  0.19603712009E+03  0.41800000000E+01 0. -1.
         -5    1    3    3    0  502 -0.81581627117E+01  0.82353696838E+01  0.18850614315E+02  0.22520990047E+02  0.41800000000E+01 0. -1.
        -11    1    1    2    0    0 -0.59451625343E+02  0.26746635339E+02  0.29925332450E+02  0.71731469943E+02  0.00000000000E+00 0.  1.
         11    1    1    2    0    0 -0.81445125446E+02 -0.57532720961E+02  0.11455444840E+03  0.15187509371E+03  0.00000000000E+00 0. -1.
</event>
<event>
 7    1  0.2728221E-009  0.1374901E+03  0.7561462E-02  0.1216747E+00
         -2   -1    0    0    0  501 -0.00000000000E+00  0.00000000000E+00  0.11824017155E+03  0.11824017155E+03  0.00000000000E+00 0.  1.
          2   -1    0    0  501    0  0.00000000000E+00 -0.00000000000E+00 -0.18926318225E+03  0.18926318225E+03  0.00000000000E+00 0. -1.
         25    2    1    2    0    0  0.23484060429E+02 -0.94503130007E+02 -0.50888361870E+01  0.15860684164E+03  0.12509153164E+03 0.  0.
          5    1    3    3  502    0  0.42594746493E+02  0.21866990555E+01  0.31716995079E+02  0.53315422331E+02  0.41800000000E+01 0. -1.
         -5    1    3    3    0  502 -0.19110686063E+02 -0.96689829062E+02 -0.36805831266E+02  0.10529141931E+03  0.41800000000E+01 0. -1.
        -11    1    1    2    0    0 -0.53982242399E+02  0.86471173604E+02 -0.49094586610E+02  0.11314426540E+03  0.00000000000E+00 0.  1.
         11    1    1    2    0    0  0.30498181970E+02  0.80319564023E+01 -0.16839587901E+02  0.35752246752E+02  0.00000000000E+00 0. -1.
</event>
<event>
 7    1  0.2796232E-009  0.1128045E+03  0.7561462E-02  0.1255463E+00
         -2   -1    0    0    0  501 -0.00000000000E+00  0.00000000000E+00  0.49653123531E+03  0.49653123531E+03  0.00000000000E+00 0.  1.
          2   -1    0    0  501    0  0.00000000000E+00 -0.00000000000E+00 -0.40015263756E+02  0.40015263756E+02  0.00000000000E+00 0. -1.
         25    2    1    2    0    0  0.26425534054E+02  0.83884378370E+02  0.28178920285E+03  0.32060446530E+03  0.12508865072E+03 0.  0.
          5    1    3    3  502    0 -0.35175499494E+02  0.63287674595E+02  0.21686899275E+03  0.22867504878E+03  0.41800000000E+01 0. -1.
         -5    1    3    3    0  502  0.61601033548E+02  0.20596703775E+02  0.64920210102E+02  0.91929416512E+02  0.41800000000E+01 0. -1.
        -11    1    1    2    0    0 -0.14776547124E+02 -0.42145904111E+02  0.16578523008E+03  0.17169556224E+03  0.00000000000E+00 0.  1.
         11    1    1    2    0    0 -0.11648986930E+02 -0.41738474258E+02  0.89415386161E+01  0.44246471528E+02  0.00000000000E+00 0. -1.
</event>
<event>
 7    1  0.2728221E-009  0.1103173E+03  0.7561462E-02  0.1259983E+00
          2   -1    0    0  501    0  0.00000000000E+00  0.00000000000E+00  0.11857106970E+04  0.11857106970E+04  0.00000000000E+00 0. -1.
         -2   -1    0    0    0  501 -0.00000000000E+00 -0.00000000000E+00 -0.18561603993E+02  0.18561603993E+02  0.00000000000E+00 0.  1.
         25    2    1    2    0    0 -0.77610622773E+02 -0.34716755048E+01  0.74035541187E+03  0.75485696735E+03  0.12508974366E+03 0.  0.
          5    1    3    3  502    0 -0.16685096815E+02  0.64313066000E+01  0.61295026357E+03  0.61322528663E+03  0.41800000000E+01 0. -1.
         -5    1    3    3    0  502 -0.60925525957E+02 -0.99029821048E+01  0.12740514831E+03  0.14163168072E+03  0.41800000000E+01 0. -1.
        -11    1    1    2    0    0  0.10719616640E+03 -0.10455233967E+02  0.34080486531E+03  0.35741892259E+03  0.00000000000E+00 0. -1.
         11    1    1    2    0    0 -0.29585543623E+02  0.13926909472E+02  0.85988815777E+02  0.91996411004E+02  0.00000000000E+00 0.  1.
</event>
<event>
 7    1  0.2728221E-009  0.1127483E+03  0.7561462E-02  0.1255563E+00
          1   -1    0    0  501    0  0.00000000000E+00  0.00000000000E+00  0.91068877723E+03  0.91068877723E+03  0.00000000000E+00 0. -1.
         -1   -1    0    0    0  501 -0.00000000000E+00 -0.00000000000E+00 -0.20979287343E+02  0.20979287343E+02  0.00000000000E+00 0.  1.
         25    2    1    2    0    0  0.53434222784E+01  0.75161393703E+02  0.63937194970E+03  0.65583694471E+03  0.12509124956E+03 0.  0.
          5    1    3    3  502    0 -0.19456308011E+02 -0.11053606056E+02  0.20979307284E+02  0.30956967913E+02  0.41800000000E+01 0. -1.
         -5    1    3    3    0  502  0.24799730289E+02  0.86214999759E+02  0.61839264242E+03  0.62487997679E+03  0.41800000000E+01 0. -1.
        -11    1    1    2    0    0  0.37179975038E+02 -0.53638411863E+02  0.11343617279E+03  0.13087090994E+03  0.00000000000E+00 0.  1.
         11    1    1    2    0    0 -0.42523397316E+02 -0.21522981840E+02  0.13690136740E+03  0.14496020993E+03  0.00000000000E+00 0. -1.
</event>
<event>
 7    1  0.2728221E-009  0.1021359E+03  0.7561462E-02  0.1275868E+00
          1   -1    0    0  501    0  0.00000000000E+00  0.00000000000E+00  0.11717221426E+04  0.11717221426E+04  0.00000000000E+00 0. -1.
         -1   -1    0    0    0  501 -0.00000000000E+00 -0.00000000000E+00 -0.14298993296E+02  0.14298993296E+02  0.00000000000E+00 0.  1.
         25    2    1    2    0    0  0.13753320439E+02  0.50636308470E+02  0.87871297935E+03  0.88912105923E+03  0.12508624358E+03 0.  0.
          5    1    3    3  502    0 -0.22580959319E+02 -0.15245260473E+02  0.59294427490E+03  0.59358462179E+03  0.41800000000E+01 0.  1.
         -5    1    3    3    0  502  0.36334279757E+02  0.65881568942E+02  0.28576870445E+03  0.29553643744E+03  0.41800000000E+01 0.  1.
        -11    1    1    2    0    0 -0.38432230368E+02 -0.62965233312E+02  0.18345733922E+03  0.19773277991E+03  0.00000000000E+00 0. -1.
         11    1    1    2    0    0  0.24678909929E+02  0.12328924842E+02  0.95252830755E+02  0.99167296776E+02  0.00000000000E+00 0.  1.
</event>
<event>
 7    1  0.2728221E-009  0.1158443E+03  0.7561462E-02  0.1250114E+00
         -4   -1    0    0    0  501 -0.00000000000E+00  0.00000000000E+00  0.25781044918E+03  0.25781044918E+03  0.00000000000E+00 0.  1.
          4   -1    0    0  501    0  0.00000000000E+00 -0.00000000000E+00 -0.17019205151E+03  0.17019205151E+03  0.00000000000E+00 0. -1.
         25    2    1    2    0    0 -0.52960047559E+02 -0.98096487111E+02 -0.97156829676E+02  0.19368649624E+03  0.12508925555E+03 0.  0.
          5    1    3    3  502    0 -0.55392246727E+02 -0.59884225675E+02 -0.12274906364E+03  0.14744228195E+03  0.41800000000E+01 0. -1.
         -5    1    3    3    0  502  0.24321991674E+01 -0.38212261436E+02  0.25592233960E+02  0.46244214297E+02  0.41800000000E+01 0. -1.
        -11    1    1    2    0    0  0.45316116563E+02  0.82783703502E+02  0.19336500139E+03  0.21516671618E+03  0.00000000000E+00 0.  1.
         11    1    1    2    0    0  0.76439309965E+01  0.15312783609E+02 -0.85897740490E+01  0.19149288268E+02  0.00000000000E+00 0. -1.
</event>
<event>
 7    1  0.2728221E-009  0.1162207E+03  0.7561462E-02  0.1249465E+00
         -2   -1    0    0    0  501 -0.00000000000E+00  0.00000000000E+00  0.51410524450E+02  0.51410524450E+02  0.00000000000E+00 0.  1.
          2   -1    0    0  501    0  0.00000000000E+00 -0.00000000000E+00 -0.29243696903E+03  0.29243696903E+03  0.00000000000E+00 0. -1.
         25    2    1    2    0    0 -0.54272554895E+02 -0.93440486895E+01 -0.11508218288E+03  0.17865826727E+03  0.12506816616E+03 0.  0.
          5    1    3    3  502    0 -0.61086469309E+02 -0.53860673160E+02 -0.39579135738E+02  0.90644962528E+02  0.41800000000E+01 0. -1.
         -5    1    3    3    0  502  0.68139144142E+01  0.44516624470E+02 -0.75503047146E+02  0.88013304745E+02  0.41800000000E+01 0. -1.
        -11    1    1    2    0    0  0.31546749777E+02  0.49981672175E+02 -0.57894837694E+02  0.82735586095E+02  0.00000000000E+00 0.  1.
         11    1    1    2    0    0  0.22725805118E+02 -0.40637623485E+02 -0.68049424006E+02  0.82453640115E+02  0.00000000000E+00 0. -1.
</event>
<event>
 7    1  0.2728221E-009  0.2463675E+03  0.7561462E-02  0.1115622E+00
         -1   -1    0    0    0  501 -0.00000000000E+00  0.00000000000E+00  0.88181421075E+03  0.88181421075E+03  0.00000000000E+00 0.  1.
          1   -1    0    0  501    0  0.00000000000E+00 -0.00000000000E+00 -0.70480282584E+02  0.70480282584E+02  0.00000000000E+00 0. -1.
         25    2    1    2    0    0 -0.10411614967E+03 -0.19562021948E+03  0.35900261993E+03  0.44004195327E+03  0.12508635671E+03 0.  0.
          5    1    3    3  502    0  0.27528977677E+02 -0.17320249535E+02  0.47045628779E+02  0.57346309760E+02  0.41800000000E+01 0. -1.
         -5    1    3    3    0  502 -0.13164512735E+03 -0.17829996995E+03  0.31195699115E+03  0.38269564351E+03  0.41800000000E+01 0. -1.
        -11    1    1    2    0    0  0.50547788541E+02  0.17280410105E+03  0.36916788225E+03  0.41073259129E+03  0.00000000000E+00 0.  1.
         11    1    1    2    0    0  0.53568361134E+02  0.22816118438E+02  0.83163425988E+02  0.10151994876E+03  0.00000000000E+00 0. -1.
</event>
<event>
 7    1  0.2728221E-009  0.1044612E+03  0.7561462E-02  0.1271185E+00
          2   -1    0    0  501    0  0.00000000000E+00  0.00000000000E+00  0.74929104531E+03  0.74929104531E+03  0.00000000000E+00 0. -1.
         -2   -1    0    0    0  501 -0.00000000000E+00 -0.00000000000E+00 -0.24336630906E+02  0.24336630906E+02  0.00000000000E+00 0.  1.
         25    2    1    2    0    0  0.30544701238E+02  0.44614050383E+02  0.35843358391E+03  0.38346465523E+03  0.12508843062E+03 0.  0.
          5    1    3    3  502    0  0.33933385748E+02  0.59477151966E+02  0.36099091828E+03  0.36745193121E+03  0.41800000000E+01 0. -1.
         -5    1    3    3    0  502 -0.33886845093E+01 -0.14863101583E+02 -0.25573343705E+01  0.16012724017E+02  0.41800000000E+01 0. -1.
        -11    1    1    2    0    0 -0.33032868872E+01  0.37680615387E+02  0.54610396821E+02  0.66430685088E+02  0.00000000000E+00 0.  1.
         11    1    1    2    0    0 -0.27241414351E+02 -0.82294665771E+02  0.31191043367E+03  0.32373233590E+03  0.00000000000E+00 0. -1.
</event>
<event>
 7    1  0.2728221E-009  0.1116931E+03  0.7561462E-02  0.1257466E+00
          1   -1    0    0  501    0  0.00000000000E+00  0.00000000000E+00  0.15281371665E+04  0.15281371665E+04  0.00000000000E+00 0. -1.
         -1   -1    0    0    0  501 -0.00000000000E+00 -0.00000000000E+00 -0.12623377959E+02  0.12623377959E+02  0.00000000000E+00 0.  1.
         25    2    1    2    0    0 -0.47501727878E+02  0.52602285771E+02  0.11220999590E+04  0.11312731182E+04  0.12508851055E+03 0.  0.
          5    1    3    3  502    0  0.68514593396E+01 -0.36846462207E+02  0.36923594297E+03  0.37115664921E+03  0.41800000000E+01 0.  1.
         -5    1    3    3    0  502 -0.54353187218E+02  0.89448747978E+02  0.75286401600E+03  0.76011646901E+03  0.41800000000E+01 0.  1.
        -11    1    1    2    0    0 -0.57850842034E+01 -0.13930082784E+02  0.55457655210E+01  0.16070778476E+02  0.00000000000E+00 0.  1.
         11    1    1    2    0    0  0.53286812081E+02 -0.38672202987E+02  0.38786806407E+03  0.39341664778E+03  0.00000000000E+00 0. -1.
</event>
<event>
 7    1  0.2728221E-009  0.1094630E+03  0.7561462E-02  0.1261567E+00
         -1   -1    0    0    0  501 -0.00000000000E+00  0.00000000000E+00  0.33577954451E+03  0.33577954451E+03  0.00000000000E+00 0.  1.
          1   -1    0    0  501    0  0.00000000000E+00 -0.00000000000E+00 -0.37449049751E+02  0.37449049751E+02  0.00000000000E+00 0. -1.
         25    2    1    2    0    0 -0.21990311356E+02  0.59120077793E+01  0.20364043440E+03  0.24007508800E+03  0.12509234879E+03 0.  0.
          5    1    3    3  502    0 -0.67014914308E+02  0.30607529746E+02  0.99399450394E+02  0.12379637618E+03  0.41800000000E+01 0.  1.
         -5    1    3    3    0  502  0.45024602952E+02 -0.24695521967E+02  0.10424098400E+03  0.11627871182E+03  0.41800000000E+01 0.  1.
        -11    1    1    2    0    0  0.48924397960E+02 -0.30073474416E+02  0.57580061334E+02  0.81323268764E+02  0.00000000000E+00 0. -1.
         11    1    1    2    0    0 -0.26934086603E+02  0.24161466637E+02  0.37109999028E+02  0.51830237498E+02  0.00000000000E+00 0.  1.
</event>
<event>
 7    1  0.2728221E-009  0.1254455E+03  0.7561462E-02  0.1234375E+00
         -2   -1    0    0    0  501 -0.00000000000E+00  0.00000000000E+00  0.27149944760E+03  0.27149944760E+03  0.00000000000E+00 0.  1.
          2   -1    0    0  501    0  0.00000000000E+00 -0.00000000000E+00 -0.75937019510E+02  0.75937019510E+02  0.00000000000E+00 0. -1.
         25    2    1    2    0    0 -0.79251059804E+02  0.80614232880E+01  0.16833437556E+03  0.22434126171E+03  0.12508726028E+03 0.  0.
          5    1    3    3  502    0 -0.24524995699E+02  0.62879239082E+02  0.10141953349E+03  0.12189613733E+03  0.41800000000E+01 0. -1.
         -5    1    3    3    0  502 -0.54726064105E+02 -0.54817815794E+02  0.66914842071E+02  0.10244512438E+03  0.41800000000E+01 0. -1.
        -11    1    1    2    0    0  0.92186782052E+02 -0.45775517294E+01  0.43483947436E+02  0.10203043884E+03  0.00000000000E+00 0.  1.
         11    1    1    2    0    0 -0.12935722248E+02 -0.34838715586E+01 -0.16255894907E+02  0.21064766563E+02  0.00000000000E+00 0. -1.
</event>
<event>
 7    1  0.2728221E-009  0.1181300E+03  0.7561462E-02  0.1246214E+00
          2   -1    0    0  501    0  0.00000000000E+00  0.00000000000E+00  0.21891937306E+03  0.21891937306E+03  0.00000000000E+00 0.  1.
         -2   -1    0    0    0  501 -0.00000000000E+00 -0.00000000000E+00 -0.10034306067E+03  0.10034306067E+03  0.00000000000E+00 0. -1.
         25    2    1    2    0    0 -0.63392370273E+02 -0.59955823795E+02  0.16808240930E+01  0.15253426018E+03  0.12510228592E+03 0.  0.
          5    1    3    3  502    0  0.23247397708E+01 -0.54810696934E+02  0.47057828691E+02  0.72398401602E+02  0.41800000000E+01 0.  1.
         -5    1    3    3    0  502 -0.65717110044E+02 -0.51451268610E+01 -0.45377004598E+02  0.80135858573E+02  0.41800000000E+01 0.  1.
        -11    1    1    2    0    0  0.35861208383E+02  0.75493040598E+02  0.10174890655E+03  0.13167408792E+03  0.00000000000E+00 0.  1.
         11    1    1    2    0    0  0.27531161891E+02 -0.15537216803E+02  0.15146581748E+02  0.35054085635E+02  0.00000000000E+00 0. -1.
</event>
<event>
 7    1  0.2728221E-009  0.2385478E+03  0.7561462E-02  0.1120764E+00
          2   -1    0    0  501    0  0.00000000000E+00  0.00000000000E+00  0.79066714157E+03  0.79066714157E+03  0.00000000000E+00 0. -1.
         -2   -1    0    0    0  501 -0.00000000000E+00 -0.00000000000E+00 -0.10149771204E+03  0.10149771204E+03  0.00000000000E+00 0.  1.
         25    2    1    2    0    0 -0.13960861607E+02  0.23549001088E+03  0.17566222646E+03  0.31961802095E+03  0.12509200866E+03 0.  0.
          5    1    3    3  502    0 -0.22599248913E+02  0.20912044832E+03  0.88830703170E+02  0.22836473936E+03  0.41800000000E+01 0.  1.
         -5    1    3    3    0  502  0.86383873060E+01  0.26369562565E+02  0.86831523287E+02  0.91253281593E+02  0.41800000000E+01 0.  1.
        -11    1    1    2    0    0 -0.89802342788E+01 -0.14582466540E+03  0.21439866993E+03  0.25944607785E+03  0.00000000000E+00 0.  1.
         11    1    1    2    0    0  0.22941095886E+02 -0.89665345484E+02  0.29910853315E+03  0.31310075481E+03  0.00000000000E+00 0. -1.
</event>
<event>
 7    1  0.2728221E-009  0.1421300E+03  0.7561462E-02  0.1210491E+00
         -2   -1    0    0    0  501 -0.00000000000E+00  0.00000000000E+00  0.30889482242E+02  0.30889482242E+02  0.00000000000E+00 0. -1.
          2   -1    0    0  501    0  0.00000000000E+00 -0.00000000000E+00 -0.75883923619E+03  0.75883923619E+03  0.00000000000E+00 0.  1.
         25    2    1    2    0    0 -0.10039107518E+03 -0.36356048435E+02 -0.41504300603E+03  0.44643976609E+03  0.12509051788E+03 0.  0.
          5    1    3    3  502    0 -0.27910638212E+02 -0.76269217558E+02 -0.19235302601E+03  0.20883763140E+03  0.41800000000E+01 0.  1.
         -5    1    3    3    0  502 -0.72480436963E+02  0.39913169123E+02 -0.22268998001E+03  0.23760213469E+03  0.41800000000E+01 0.  1.
        -11    1    1    2    0    0  0.28264412239E+02 -0.14565736152E+02 -0.18595430864E+03  0.18865323366E+03  0.00000000000E+00 0.  1.
         11    1    1    2    0    0  0.72126662936E+02  0.50921784587E+02 -0.12695243928E+03  0.15463571868E+03  0.00000000000E+00 0. -1.
</event>
<event>
 7    1  0.2728221E-009  0.6989451E+02  0.7561462E-02  0.1360452E+00
         -2   -1    0    0    0  501 -0.00000000000E+00  0.00000000000E+00  0.19510819371E+02  0.19510819371E+02  0.00000000000E+00 0.  1.
          2   -1    0    0  501    0  0.00000000000E+00 -0.00000000000E+00 -0.64777305729E+03  0.64777305729E+03  0.00000000000E+00 0. -1.
         25    2    1    2    0    0  0.60912860285E+01  0.30794012852E+02 -0.37662997910E+03  0.39809825056E+03  0.12508677367E+03 0.  0.
          5    1    3    3  502    0 -0.99101041077E+01  0.34251506851E+02 -0.37929782610E+03  0.38099303034E+03  0.41800000000E+01 0.  1.
         -5    1    3    3    0  502  0.16001390136E+02 -0.34574939993E+01  0.26678469979E+01  0.17105220216E+02  0.41800000000E+01 0.  1.
        -11    1    1    2    0    0 -0.42208285281E-01 -0.58567740136E+02 -0.21490971432E+03  0.22274731710E+03  0.00000000000E+00 0. -1.
         11    1    1    2    0    0 -0.60490777432E+01  0.27773727284E+02 -0.36722544498E+02  0.46438309005E+02  0.00000000000E+00 0.  1.
</event>
<event>
 7    1  0.3093501E-009  0.8334604E+02  0.7561462E-02  0.1319815E+00
          1   -1    0    0  501    0  0.00000000000E+00  0.00000000000E+00  0.16828833085E+03  0.16828833085E+03  0.00000000000E+00 0. -1.
         -1   -1    0    0    0  501 -0.00000000000E+00 -0.00000000000E+00 -0.15683802681E+03  0.15683802681E+03  0.00000000000E+00 0.  1.
         25    2    1    2    0    0 -0.59641831653E+02  0.19856130394E+02 -0.96674655669E+02  0.17013310870E+03  0.12509145307E+03 0.  0.
          5    1    3    3  502    0  0.19607894366E+02  0.62027049917E+01  0.19587684562E+02  0.28707017560E+02  0.41800000000E+01 0.  1.
         -5    1    3    3    0  502 -0.79249726019E+02  0.13653425402E+02 -0.11626234023E+03  0.14142609114E+03  0.41800000000E+01 0.  1.
        -11    1    1    2    0    0  0.45679977463E+02 -0.22578535729E+02  0.12376973770E+03  0.13384841645E+03  0.00000000000E+00 0. -1.
         11    1    1    2    0    0  0.13961854190E+02  0.27224053355E+01 -0.15644777987E+02  0.21144832501E+02  0.00000000000E+00 0.  1.
</event>
<event>
 7    1  0.2728221E-009  0.1044150E+03  0.7561462E-02  0.1271277E+00
         -2   -1    0    0    0  501 -0.00000000000E+00  0.00000000000E+00  0.39404347871E+03  0.39404347871E+03  0.00000000000E+00 0.  1.
          2   -1    0    0  501    0  0.00000000000E+00 -0.00000000000E+00 -0.62226212409E+02  0.62226212409E+02  0.00000000000E+00 0. -1.
         25    2    1    2    0    0 -0.48188787913E+02  0.25036012533E+02  0.35288082471E+02  0.14087343511E+03  0.12510441540E+03 0.  0.
          5    1    3    3  502    0  0.38180015846E+02  0.23625610353E+02  0.30141638703E+02  0.54239043670E+02  0.41800000000E+01 0. -1.
         -5    1    3    3    0  502 -0.86368803760E+02  0.14104021804E+01  0.51464437683E+01  0.86634391443E+02  0.41800000000E+01 0. -1.
        -11    1    1    2    0    0  0.38764034274E+02 -0.42430760200E+02  0.28829408765E+03  0.29396683612E+03  0.00000000000E+00 0.  1.
         11    1    1    2    0    0  0.94247536391E+01  0.17394747667E+02  0.82350961803E+01  0.21429419886E+02  0.00000000000E+00 0. -1.
</event>
<event>
 7    1  0.2728221E-009  0.1339340E+03  0.7561462E-02  0.1221732E+00
         -1   -1    0    0    0  501 -0.00000000000E+00  0.00000000000E+00  0.64538544475E+03  0.64538544475E+03  0.00000000000E+00 0.  1.
          1   -1    0    0  501    0  0.00000000000E+00 -0.00000000000E+00 -0.82883600308E+02  0.82883600308E+02  0.00000000000E+00 0. -1.
         25    2    1    2    0    0  0.30825008480E+02  0.10508897953E+03  0.18995891510E+02  0.16733696325E+03  0.12508773165E+03 0.  0.
          5    1    3    3  502    0  0.54621888288E+02  0.25022392533E+02 -0.33182519454E+02  0.68762073889E+02  0.41800000000E+01 0.  1.
         -5    1    3    3    0  502 -0.23796879808E+02  0.80066586997E+02  0.52178410963E+02  0.98574889361E+02  0.41800000000E+01 0.  1.
        -11    1    1    2    0    0  0.17503033199E+02 -0.27131802372E+02  0.54076784598E+02  0.62982453934E+02  0.00000000000E+00 0.  1.
         11    1    1    2    0    0 -0.48328041679E+02 -0.77957177158E+02  0.48942916833E+03  0.49794962787E+03  0.00000000000E+00 0. -1.
</event>
<event>
 7    1  0.2728221E-009  0.1148854E+03  0.7561462E-02  0.1251781E+00
          2   -1    0    0  501    0  0.00000000000E+00  0.00000000000E+00  0.37733294624E+03  0.37733294624E+03  0.00000000000E+00 0. -1.
         -2   -1    0    0    0  501 -0.00000000000E+00 -0.00000000000E+00 -0.47708359422E+02  0.47708359422E+02  0.00000000000E+00 0.  1.
         25    2    1    2    0    0 -0.38759403358E+02  0.43193548960E+02  0.26478423608E+03  0.29854283426E+03  0.12509659546E+03 0.  0.
          5    1    3    3  502    0  0.31950539847E+02  0.49964207920E+02  0.16947816607E+03  0.17960395386E+03  0.41800000000E+01 0.  1.
         -5    1    3    3    0  502 -0.70709943205E+02 -0.67706589605E+01  0.95306070006E+02  0.11893888040E+03  0.41800000000E+01 0.  1.
        -11    1    1    2    0    0  0.30205557780E+02  0.19456556349E+02 -0.19477402456E-02  0.35929560386E+02  0.00000000000E+00 0.  1.
         11    1    1    2    0    0  0.85538455779E+01 -0.62650105308E+02  0.64842298485E+02  0.90568911013E+02  0.00000000000E+00 0. -1.
</event>
<event>
 7    1  0.2728221E-009  0.1836157E+03  0.7561462E-02  0.1164349E+00
          1   -1    0    0  501    0  0.00000000000E+00  0.00000000000E+00  0.18537867371E+03  0.18537867371E+03  0.00000000000E+00 0. -1.
         -1   -1    0    0    0  501 -0.00000000000E+00 -0.00000000000E+00 -0.26182819100E+03  0.26182819100E+03  0.00000000000E+00 0.  1.
         25    2    1    2    0    0  0.14747937599E+03  0.57177188949E+02 -0.15021717823E+03  0.25146195505E+03  0.12509403232E+03 0.  0.
          5    1    3    3  502    0 -0.18985529042E+02 -0.10032391473E+02 -0.12803187243E+02  0.25347449482E+02  0.41800000000E+01 0. -1.
         -5    1    3    3    0  502  0.16646490503E+03  0.67209580422E+02 -0.13741399099E+03  0.22611450556E+03  0.41800000000E+01 0. -1.
        -11    1    1    2    0    0 -0.45489075957E+02  0.58937575415E+01  0.59283528478E+02  0.74956848641E+02  0.00000000000E+00 0. -1.
         11    1    1    2    0    0 -0.10199030003E+03 -0.63070946490E+02  0.14484132459E+02  0.12078806102E+03  0.00000000000E+00 0.  1.
</event>
<event>
 7    1  0.2728221E-009  0.1200772E+03  0.7561462E-02  0.1242970E+00
          1   -1    0    0  501    0  0.00000000000E+00  0.00000000000E+00  0.49426845841E+02  0.49426845841E+02  0.00000000000E+00 0. -1.
         -1   -1    0    0    0  501 -0.00000000000E+00 -0.00000000000E+00 -0.37903352031E+03  0.37903352031E+03  0.00000000000E+00 0.  1.
         25    2    1    2    0    0  0.61358986487E+02  0.56219585208E+02 -0.20283830740E+03  0.25242697453E+03  0.12510168480E+03 0.  0.
          5    1    3    3  502    0  0.67517988485E+02 -0.54832107349E+01 -0.16797117173E+03  0.18116437647E+03  0.41800000000E+01 0.  1.
         -5    1    3    3    0  502 -0.61590019984E+01  0.61702795943E+02 -0.34867135670E+02  0.71262598063E+02  0.41800000000E+01 0.  1.
        -11    1    1    2    0    0 -0.63342312949E+02 -0.71042391987E+02 -0.12961665570E+03  0.16080966235E+03  0.00000000000E+00 0.  1.
         11    1    1    2    0    0  0.19833264626E+01  0.14822806779E+02  0.28482886369E+01  0.15223729268E+02  0.00000000000E+00 0. -1.
</event>
<event>
 7    1  0.2728221E-009  0.9985361E+02  0.7561462E-02  0.1280604E+00
          3   -1    0    0  501    0  0.00000000000E+00  0.00000000000E+00  0.42364443599E+03  0.42364443599E+03  0.00000000000E+00 0. -1.
         -3   -1    0    0    0  501 -0.00000000000E+00 -0.00000000000E+00 -0.32423418674E+02  0.32423418674E+02  0.00000000000E+00 0.  1.
         25    2    1    2    0    0 -0.21507805298E+02  0.33506246129E+01  0.14043405942E+03  0.18932241822E+03  0.12508973027E+03 0.  0.
          5    1    3    3  502    0 -0.70329262532E+02  0.14820262027E+01  0.49852877318E+02  0.86320237180E+02  0.41800000000E+01 0.  1.
         -5    1    3    3    0  502  0.48821457234E+02  0.18685984102E+01  0.90581182105E+02  0.10300218104E+03  0.41800000000E+01 0.  1.
        -11    1    1    2    0    0  0.48405260138E+01  0.36597839574E+02  0.55069510653E+02  0.66298443097E+02  0.00000000000E+00 0.  1.
         11    1    1    2    0    0  0.16667279284E+02 -0.39948464187E+02  0.19571744724E+03  0.20044699335E+03  0.00000000000E+00 0. -1.
</event>
<event>
 7    1  0.2728221E-009  0.1162347E+03  0.7561462E-02  0.1249441E+00
          2   -1    0    0  501    0  0.00000000000E+00  0.00000000000E+00  0.23470023876E+03  0.23470023876E+03  0.00000000000E+00 0. -1.
         -2   -1    0    0    0  501 -0.00000000000E+00 -0.00000000000E+00 -0.10202254949E+03  0.10202254949E+03  0.00000000000E+00 0.  1.
         25    2    1    2    0    0  0.82546307278E+01  0.61131906144E+02 -0.28076761361E+02  0.14227123674E+03  0.12509017306E+03 0.  0.
          5    1    3    3  502    0 -0.39958138225E+02  0.78257667431E+02 -0.21115451097E+02  0.90466844740E+02  0.41800000000E+01 0. -1.
         -5    1    3    3    0  502  0.48212768953E+02 -0.17125761287E+02 -0.69613102638E+01  0.51804391998E+02  0.41800000000E+01 0. -1.
        -11    1    1    2    0    0 -0.38374750325E+02 -0.44494758009E+02  0.45919635142E+02  0.74572232395E+02  0.00000000000E+00 0.  1.
         11    1    1    2    0    0  0.30120119598E+02 -0.16637148135E+02  0.11483481549E+03  0.11987931911E+03  0.00000000000E+00 0. -1.
</event>
<event>
 7    1  0.2728221E-009  0.1061856E+03  0.7561462E-02  0.1267801E+00
          2   -1    0    0  501    0  0.00000000000E+00  0.00000000000E+00  0.49516061484E+03  0.49516061484E+03  0.00000000000E+00 0. -1.
         -2   -1    0    0    0  501 -0.00000000000E+00 -0.00000000000E+00 -0.24614179570E+02  0.24614179570E+02  0.00000000000E+00 0.  1.
         25    2    1    2    0    0 -0.23861988962E+02  0.19659357572E+01  0.31513026532E+03  0.33989385721E+03  0.12508993019E+03 0.  0.
          5    1    3    3  502    0 -0.44724280407E+02  0.51691920942E+02  0.22058681981E+03  0.23097258154E+03  0.41800000000E+01 0. -1.
         -5    1    3    3    0  502  0.20862291444E+02 -0.49725985185E+02  0.94543445504E+02  0.10892127568E+03  0.41800000000E+01 0. -1.
        -11    1    1    2    0    0  0.22129833448E+02 -0.43196624553E+02  0.95540270997E+02  0.10716165958E+03  0.00000000000E+00 0.  1.
         11    1    1    2    0    0  0.17321555149E+01  0.41230688796E+02  0.59875898955E+02  0.72719277616E+02  0.00000000000E+00 0. -1.
</event>
<event>
 7    1  0.2728221E-009  0.1228099E+03  0.7561462E-02  0.1238532E+00
         -2   -1    0    0    0  501 -0.00000000000E+00  0.00000000000E+00  0.20484954047E+02  0.20484954047E+02  0.00000000000E+00 0. -1.
          2   -1    0    0  501    0  0.00000000000E+00 -0.00000000000E+00 -0.98106080238E+03  0.98106080238E+03  0.00000000000E+00 0.  1.
         25    2    1    2    0    0 -0.27157546180E+02  0.85584683223E+02 -0.47523598428E+03  0.49955783780E+03  0.12508605930E+03 0.  0.
          5    1    3    3  502    0  0.71528860722E+01  0.83426028645E+02 -0.14485239499E+03  0.16736413824E+03  0.41800000000E+01 0. -1.
         -5    1    3    3    0  502 -0.34310432252E+02  0.21586545780E+01 -0.33038358929E+03  0.33219369956E+03  0.41800000000E+01 0. -1.
        -11    1    1    2    0    0  0.48769178001E+02 -0.11674700547E+02 -0.16082831603E+03  0.16846506639E+03  0.00000000000E+00 0.  1.
         11    1    1    2    0    0 -0.21611631821E+02 -0.73909982676E+02 -0.32451154801E+03  0.33352285223E+03  0.00000000000E+00 0. -1.
</event>
<event>
 7    1  0.2728221E-009  0.1549372E+03  0.7561462E-02  0.1194534E+00
          1   -1    0    0  501    0  0.00000000000E+00  0.00000000000E+00  0.51172664698E+03  0.51172664698E+03  0.00000000000E+00 0. -1.
         -1   -1    0    0    0  501 -0.00000000000E+00 -0.00000000000E+00 -0.56025036568E+02  0.56025036568E+02  0.00000000000E+00 0.  1.
         25    2    1    2    0    0 -0.71478674879E+02 -0.94737566798E+02  0.33141540685E+03  0.37358813994E+03  0.12509004310E+03 0.  0.
          5    1    3    3  502    0 -0.48986442145E+02 -0.12009731782E+03  0.20484977103E+03  0.24249523367E+03  0.41800000000E+01 0.  1.
         -5    1    3    3    0  502 -0.22492232734E+02  0.25359751018E+02  0.12656563581E+03  0.13109290627E+03  0.41800000000E+01 0.  1.
        -11    1    1    2    0    0  0.89045148769E+02  0.92237459720E+02  0.93677013171E+02  0.15878340685E+03  0.00000000000E+00 0.  1.
         11    1    1    2    0    0 -0.17566473891E+02  0.25001070777E+01  0.30609190398E+02  0.35380136760E+02  0.00000000000E+00 0. -1.
</event>
<event>
 7    1  0.2728221E-009  0.1100767E+03  0.7561462E-02  0.1260428E+00
          2   -1    0    0  501    0  0.00000000000E+00  0.00000000000E+00  0.30373188418E+03  0.30373188418E+03  0.00000000000E+00 0. -1.
         -2   -1    0    0    0  501 -0.00000000000E+00 -0.00000000000E+00 -0.66415597861E+02  0.66415597861E+02  0.00000000000E+00 0.  1.
         25    2    1    2    0    0  0.42443505226E+02 -0.60992906373E+02  0.20018612007E+03  0.24747441462E+03  0.12509003741E+03 0.  0.
          5    1    3    3  502    0  0.38451759171E+02  0.22663244549E+02  0.20723751708E+02  0.49387313368E+02  0.41800000000E+01 0. -1.
         -5    1    3    3    0  502  0.39917460555E+01 -0.83656150923E+02  0.17946236836E+03  0.19808710125E+03  0.41800000000E+01 0. -1.
        -11    1    1    2    0    0  0.10351662678E+02  0.26381693202E+02 -0.22230620441E+02  0.36018760967E+02  0.00000000000E+00 0.  1.
         11    1    1    2    0    0 -0.52795167904E+02  0.34611213171E+02  0.59360786694E+02  0.86654306461E+02  0.00000000000E+00 0. -1.
</event>
<event>
 7    1  0.2728221E-009  0.8303759E+02  0.7561462E-02  0.1320646E+00
         -3   -1    0    0    0  501 -0.00000000000E+00  0.00000000000E+00  0.20084561445E+03  0.20084561445E+03  0.00000000000E+00 0.  1.
          3   -1    0    0  501    0  0.00000000000E+00 -0.00000000000E+00 -0.76205432834E+02  0.76205432834E+02  0.00000000000E+00 0. -1.
         25    2    1    2    0    0 -0.37011162434E+02 -0.26411450907E+02  0.25038218332E+02  0.13545498544E+03  0.12511494643E+03 0.  0.
          5    1    3    3  502    0 -0.51694499258E+02 -0.54726438118E+02 -0.21934311289E+02  0.78523185712E+02  0.41800000000E+01 0. -1.
         -5    1    3    3    0  502  0.14683336825E+02  0.28314987211E+02  0.46972529621E+02  0.56931799726E+02  0.41800000000E+01 0. -1.
        -11    1    1    2    0    0  0.22616440889E+02  0.35055900834E+02  0.11278173217E+03  0.12025031681E+03  0.00000000000E+00 0.  1.
         11    1    1    2    0    0  0.14394721545E+02 -0.86444499270E+01 -0.13179768891E+02  0.21345745031E+02  0.00000000000E+00 0. -1.
</event>
<event>
 7    1  0.2728221E-009  0.1706693E+03  0.7561462E-02  0.1177152E+00
         -1   -1    0    0    0  501 -0.00000000000E+00  0.00000000000E+00  0.13934808126E+03  0.13934808126E+03  0.00000000000E+00 0.  1.
          1   -1    0    0  501    0  0.00000000000E+00 -0.00000000000E+00 -0.27616389966E+03  0.27616389966E+03  0.00000000000E+00 0. -1.
         25    2    1    2    0    0  0.38283355354E+02  0.13570523252E+03 -0.15632459686E+03  0.24488293268E+03  0.12509494675E+03 0.  0.
          5    1    3    3  502    0  0.74301442807E+02  0.12730332353E+03 -0.14282952981E+03  0.20529146980E+03  0.41800000000E+01 0. -1.
         -5    1    3    3    0  502 -0.36018087454E+02  0.84019089833E+01 -0.13495067055E+02  0.39591462883E+02  0.41800000000E+01 0. -1.
        -11    1    1    2    0    0 -0.57930463693E+02 -0.10980700145E+03  0.42041029441E+02  0.13107617765E+03  0.00000000000E+00 0. -1.
         11    1    1    2    0    0  0.19647108339E+02 -0.25898231070E+02 -0.22532250978E+02  0.39552870601E+02  0.00000000000E+00 0.  1.
</event>
<event>
 7    1  0.2728221E-009  0.1623679E+03  0.7561462E-02  0.1186049E+00
          3   -1    0    0  501    0  0.00000000000E+00  0.00000000000E+00  0.88540445079E+02  0.88540445079E+02  0.00000000000E+00 0. -1.
         -3   -1    0    0    0  501 -0.00000000000E+00 -0.00000000000E+00 -0.35962217612E+03  0.35962217612E+03  0.00000000000E+00 0.  1.
         25    2    1    2    0    0 -0.33883694940E+02  0.13770098493E+03 -0.14380779510E+03  0.23756592523E+03  0.12508885187E+03 0.  0.
          5    1    3    3  502    0 -0.12408293428E+02 -0.19762762632E+02 -0.43642079250E+02  0.49665239493E+02  0.41800000000E+01 0. -1.
         -5    1    3    3    0  502 -0.21475401512E+02  0.15746374756E+03 -0.10016571585E+03  0.18790068573E+03  0.41800000000E+01 0. -1.
        -11    1    1    2    0    0  0.29592546182E+02 -0.10566294768E+03 -0.38773077248E+02  0.11637752713E+03  0.00000000000E+00 0. -1.
         11    1    1    2    0    0  0.42911487573E+01 -0.32038037251E+02 -0.88500858693E+02  0.94219168846E+02  0.00000000000E+00 0.  1.
</event>
<event>
 7    1  0.2728221E-009  0.2224071E+03  0.7561462E-02  0.1132101E+00
         -1   -1    0    0    0  501 -0.00000000000E+00  0.00000000000E+00  0.12639098012E+03  0.12639098012E+03  0.00000000000E+00 0.  1.
          1   -1    0    0  501    0  0.00000000000E+00 -0.00000000000E+00 -0.44234135383E+03  0.44234135383E+03  0.00000000000E+00 0. -1.
         25    2    1    2    0    0 -0.21043376473E+03 -0.84755411847E+01 -0.17840153327E+03  0.30303170057E+03  0.12508757067E+03 0.  0.
          5    1    3    3  502    0 -0.12214758275E+03  0.32064260318E+02 -0.16031713830E+03  0.20412546630E+03  0.41800000000E+01 0.  1.
         -5    1    3    3    0  502 -0.88286181980E+02 -0.40539801503E+02 -0.18084394973E+02  0.98906234263E+02  0.41800000000E+01 0.  1.
        -11    1    1    2    0    0  0.48808632154E+01  0.14785685960E+02  0.39620040557E+01  0.16066636585E+02  0.00000000000E+00 0.  1.
         11    1    1    2    0    0  0.20555290152E+03 -0.63101447750E+01 -0.14151084449E+03  0.24963399680E+03  0.00000000000E+00 0. -1.
</event>
<event>
 7    1  0.2728221E-009  0.1388379E+03  0.7561462E-02  0.1214901E+00
         -1   -1    0    0    0  501 -0.00000000000E+00  0.00000000000E+00  0.36855243761E+03  0.36855243761E+03  0.00000000000E+00 0.  1.
          1   -1    0    0  501    0  0.00000000000E+00 -0.00000000000E+00 -0.97601590443E+02  0.97601590443E+02  0.00000000000E+00 0. -1.
         25    2    1    2    0    0 -0.10419387023E+03  0.11230738242E+02  0.26385646239E+01  0.16320883762E+03  0.12509064944E+03 0.  0.
          5    1    3    3  502    0 -0.89870813821E+02  0.55568619439E+02  0.28816350177E+02  0.10960150127E+03  0.41800000000E+01 0. -1.
         -5    1    3    3    0  502 -0.14323056413E+02 -0.44337881197E+02 -0.26177785553E+02  0.53607336349E+02  0.41800000000E+01 0. -1.
        -11    1    1    2    0    0 -0.49305270439E+01  0.12532356304E+02  0.13150754115E+01  0.13531425453E+02  0.00000000000E+00 0. -1.
         11    1    1    2    0    0  0.10912439728E+03 -0.23763094546E+02  0.26699720713E+03  0.28941376498E+03  0.00000000000E+00 0.  1.
</event>
<event>
 7    1  0.2728221E-009  0.1765402E+03  0.7561462E-02  0.1171194E+00
         -2   -1    0    0    0  501 -0.00000000000E+00  0.00000000000E+00  0.42750829080E+02  0.42750829080E+02  0.00000000000E+00 0. -1.
          2   -1    0    0  501    0  0.00000000000E+00 -0.00000000000E+00 -0.95215305531E+03  0.95215305531E+03  0.00000000000E+00 0.  1.
         25    2    1    2    0    0  0.10315915091E+03 -0.12988320670E+03 -0.38725898266E+03  0.43946394558E+03  0.12509029544E+03 0.  0.
          5    1    3    3  502    0  0.50178447624E+01 -0.44645679744E+02 -0.23467498079E+03  0.23897329243E+03  0.41800000000E+01 0.  1.
         -5    1    3    3    0  502  0.98141306151E+02 -0.85237526951E+02 -0.15258400187E+03  0.20049065315E+03  0.41800000000E+01 0.  1.
        -11    1    1    2    0    0  0.64483935695E+01  0.26354786079E+02 -0.28779876814E+02  0.39552975088E+02  0.00000000000E+00 0. -1.
         11    1    1    2    0    0 -0.10960754448E+03  0.10352842062E+03 -0.49336336675E+03  0.51588696372E+03  0.00000000000E+00 0.  1.
</event>
<event>
 7    1  0.3201625E-009  0.1199518E+03  0.7561462E-02  0.1243177E+00
         -2   -1    0    0    0  501 -0.00000000000E+00  0.00000000000E+00  0.89793733142E+02  0.89793733142E+02  0.00000000000E+00 0.  1.
          2   -1    0    0  501    0  0.00000000000E+00 -0.00000000000E+00 -0.40108838810E+03  0.40108838810E+03  0.00000000000E+00 0. -1.
         25    2    1    2    0    0  0.10786058254E+03  0.42738512929E+02 -0.29722811605E+03  0.34271350881E+03  0.12509000918E+03 0.  0.
          5    1    3    3  502    0  0.99399124682E+02  0.47607002078E+02 -0.11202387861E+03  0.15720507121E+03  0.41800000000E+01 0.  1.
         -5    1    3    3    0  502  0.84614578585E+01 -0.48684891482E+01 -0.18520423744E+03  0.18550843760E+03  0.41800000000E+01 0.  1.
        -11    1    1    2    0    0 -0.50793262498E+02 -0.34337802743E+02  0.36591014202E+02  0.71399877680E+02  0.00000000000E+00 0.  1.
         11    1    1    2    0    0 -0.57067320043E+02 -0.84007101864E+01 -0.50657553108E+02  0.76768734752E+02  0.00000000000E+00 0. -1.
</event>
<event>
 7    1  0.2728221E-009  0.1170711E+03  0.7561462E-02  0.1248009E+00
          2   -1    0    0  501    0  0.00000000000E+00  0.00000000000E+00  0.16196615854E+02  0.16196615854E+02  0.00000000000E+00 0.  1.
         -2   -1    0    0    0  501 -0.00000000000E+00 -0.00000000000E+00 -0.87304173501E+03  0.87304173501E+03  0.00000000000E+00 0. -1.
         25    2    1    2    0    0  0.12553023755E+02 -0.46835053696E+02 -0.46720790825E+03  0.48608924037E+03  0.12509364255E+03 0.  0.
          5    1    3    3  502    0  0.65447377345E+02 -0.45873313961E+02 -0.25028746405E+03  0.26277177778E+03  0.41800000000E+01 0. -1.
         -5    1    3    3    0  502 -0.52894353590E+02 -0.96173973516E+00 -0.21692044420E+03  0.22331746259E+03  0.41800000000E+01 0. -1.
        -11    1    1    2    0    0 -0.49749033250E+02  0.14669126790E+02 -0.24341327079E+03  0.24887782140E+03  0.00000000000E+00 0. -1.
         11    1    1    2    0    0  0.37196009495E+02  0.32165926906E+02 -0.14622394012E+03  0.15427128910E+03  0.00000000000E+00 0.  1.
</event>
<event>
 7    1  0.2728221E-009  0.1032675E+03  0.7561462E-02  0.1273571E+00
         -2   -1    0    0    0  501 -0.00000000000E+00  0.00000000000E+00  0.30063247870E+02  0.30063247870E+02  0.00000000000E+00 0.  1.
          2   -1    0    0  501    0  0.00000000000E+00 -0.00000000000E+00 -0.45237155836E+03  0.45237155836E+03  0.00000000000E+00 0. -1.
         25    2    1    2    0    0 -0.35340861815E+02  0.25156749658E+02 -0.24719674117E+03  0.28041965932E+03  0.12508844041E+03 0.  0.
          5    1    3    3  502    0 -0.52044811660E+02 -0.25888455467E+02 -0.52605516482E+02  0.78509154317E+02  0.41800000000E+01 0.  1.
         -5    1    3    3    0  502  0.16703949845E+02  0.51045205125E+02 -0.19459122469E+03  0.20191050501E+03  0.41800000000E+01 0.  1.
        -11    1    1    2    0    0  0.62539121459E+02 -0.10260237042E+02 -0.14732097290E+03  0.16037419753E+03  0.00000000000E+00 0. -1.
         11    1    1    2    0    0 -0.27198259644E+02 -0.14896512615E+02 -0.27790596423E+02  0.41640949381E+02  0.00000000000E+00 0.  1.
</event>
<event>
 7    1  0.2728221E-009  0.9968569E+02  0.7561462E-02  0.1280958E+00
         -1   -1    0    0    0  501 -0.00000000000E+00  0.00000000000E+00  0.35159511256E+02  0.35159511256E+02  0.00000000000E+00 0.  1.
          1   -1    0    0  501    0  0.00000000000E+00 -0.00000000000E+00 -0.46907117470E+03  0.46907117470E+03  0.00000000000E+00 0. -1.
         25    2    1    2    0    0  0.38746820896E+02  0.95288141718E+01 -0.35434930295E+03  0.37789462795E+03  0.12509519134E+03 0.  0.
          5    1    3    3  502    0 -0.12180925684E+02 -0.40543560475E+02 -0.23440979305E+03  0.23823849127E+03  0.41800000000E+01 0. -1.
         -5    1    3    3    0  502  0.50927746580E+02  0.50072374647E+02 -0.11993950991E+03  0.13965613668E+03  0.41800000000E+01 0. -1.
        -11    1    1    2    0    0 -0.98347408629E+01 -0.41228172793E+02 -0.83526303995E+01  0.43200124933E+02  0.00000000000E+00 0.  1.
         11    1    1    2    0    0 -0.28912080033E+02  0.31699358621E+02 -0.71209730085E+02  0.83135933071E+02  0.00000000000E+00 0. -1.
</event>
<event>
 7    1  0.2728221E-009  0.8922015E+02  0.7561462E-02  0.1304751E+00
         -2   -1    0    0    0  501 -0.00000000000E+00  0.00000000000E+00  0.38073932568E+02  0.38073932568E+02  0.00000000000E+00 0.  1.
          2   -1    0    0  501    0  0.00000000000E+00 -0.00000000000E+00 -0.40185660564E+03  0.40185660564E+03  0.00000000000E+00 0. -1.
         25    2    1    2    0    0  0.22101297953E+02 -0.14079573318E+02 -0.10327084014E+03  0.16431525613E+03  0.12509170723E+03 0.  0.
          5    1    3    3  502    0 -0.35608195522E+02  0.18977984241E+02  0.98985386137E+00  0.40577822574E+02  0.41800000000E+01 0.  1.
         -5    1    3    3    0  502  0.57709493474E+02 -0.33057557559E+02 -0.10426069400E+03  0.12373743355E+03  0.41800000000E+01 0.  1.
        -11    1    1    2    0    0  0.21630516470E+02  0.16846740248E+02 -0.28672463368E+02  0.39671174111E+02  0.00000000000E+00 0.  1.
         11    1    1    2    0    0 -0.43731814423E+02 -0.27671669303E+01 -0.23183936956E+03  0.23594410797E+03  0.00000000000E+00 0. -1.
</event>
<event>
 7    1  0.2728221E-009  0.8540701E+02  0.7561462E-02  0.1314372E+00
          1   -1    0    0  501    0  0.00000000000E+00  0.00000000000E+00  0.54590434473E+03  0.54590434473E+03  0.00000000000E+00 0. -1.
         -1   -1    0    0    0  501 -0.00000000000E+00 -0.00000000000E+00 -0.27574049899E+02  0.27574049899E+02  0.00000000000E+00 0.  1.
         25    2    1    2    0    0 -0.42392712833E+02 -0.24080977230E+02  0.34939094818E+03  0.37429932489E+03  0.12509562094E+03 0.  0.
          5    1    3    3  502    0 -0.51765087733E+02 -0.97367401234E+01  0.35245871000E+03  0.35639731070E+03  0.41800000000E+01 0. -1.
         -5    1    3    3    0  502  0.93723749004E+01 -0.14344237106E+02 -0.30677618250E+01  0.17902014190E+02  0.41800000000E+01 0. -1.
        -11    1    1    2    0    0  0.40701307722E+02 -0.27248921586E+02  0.51877972913E+02  0.71347209135E+02  0.00000000000E+00 0.  1.
         11    1    1    2    0    0  0.16914051106E+01  0.51329898816E+02  0.11706137374E+03  0.12783186061E+03  0.00000000000E+00 0. -1.
</event>
<event>
 7    1  0.2728221E-009  0.1027141E+03  0.7561462E-02  0.1274690E+00
         -4   -1    0    0    0  501 -0.00000000000E+00  0.00000000000E+00  0.22182006215E+02  0.22182006215E+02  0.00000000000E+00 0.  1.
          4   -1    0    0  501    0  0.00000000000E+00 -0.00000000000E+00 -0.72845123590E+03  0.72845123590E+03  0.00000000000E+00 0. -1.
         25    2    1    2    0    0  0.30132808657E+02  0.57208170240E+02 -0.45089310485E+03  0.47236899378E+03  0.12508842226E+03 0.  0.
          5    1    3    3  502    0 -0.10816087277E+02 -0.31561699396E+02 -0.20470803053E+03  0.20745114793E+03  0.41800000000E+01 0. -1.
         -5    1    3    3    0  502  0.40948895934E+02  0.88769869637E+02 -0.24618507432E+03  0.26491784585E+03  0.41800000000E+01 0. -1.
        -11    1    1    2    0    0  0.82333854055E+01 -0.13344459664E+02  0.64631791278E+00  0.15693341448E+02  0.00000000000E+00 0.  1.
         11    1    1    2    0    0 -0.38366194062E+02 -0.43863710576E+02 -0.25602244274E+03  0.26257090688E+03  0.00000000000E+00 0. -1.
</event>
<event>
 7    1  0.2728221E-009  0.1026392E+03  0.7561462E-02  0.1274842E+00
          1   -1    0    0  501    0  0.00000000000E+00  0.00000000000E+00  0.11364304173E+03  0.11364304173E+03  0.00000000000E+00 0. -1.
         -1   -1    0    0    0  501 -0.00000000000E+00 -0.00000000000E+00 -0.15629714773E+03  0.15629714773E+03  0.00000000000E+00 0.  1.
         25    2    1    2    0    0 -0.21080884365E+02  0.44434751113E+02  0.38841149571E+02  0.13991221066E+03  0.12509173034E+03 0.  0.
          5    1    3    3  502    0 -0.27572385877E+01  0.71639723080E+02 -0.18105714764E+02  0.74061741775E+02  0.41800000000E+01 0. -1.
         -5    1    3    3    0  502 -0.18323645777E+02 -0.27204971967E+02  0.56946864335E+02  0.65850468881E+02  0.41800000000E+01 0. -1.
        -11    1    1    2    0    0  0.55333451000E+02 -0.32232925876E+02 -0.60195456799E+02  0.87887685880E+02  0.00000000000E+00 0.  1.
         11    1    1    2    0    0 -0.34252566635E+02 -0.12201825238E+02 -0.21299798769E+02  0.42140292926E+02  0.00000000000E+00 0. -1.
</event>
<event>
 7    1  0.2728221E-009  0.3720394E+03  0.7561462E-02  0.1053916E+00
         -2   -1    0    0    0  501 -0.00000000000E+00  0.00000000000E+00  0.11533706795E+03  0.11533706795E+03  0.00000000000E+00 0.  1.
          2   -1    0    0  501    0  0.00000000000E+00 -0.00000000000E+00 -0.16905209651E+04  0.16905209651E+04  0.00000000000E+00 0. -1.
         25    2    1    2    0    0  0.36897939174E+03  0.34720768989E+02 -0.12320053008E+04  0.12926084772E+04  0.12509312817E+03 0.  0.
          5    1    3    3  502    0  0.32262770449E+03  0.18883524118E+02 -0.11680508931E+04  0.12119428965E+04  0.41800000000E+01 0. -1.
         -5    1    3    3    0  502  0.46351687250E+02  0.15837244871E+02 -0.63954407759E+02  0.80665580689E+02  0.41800000000E+01 0. -1.
        -11    1    1    2    0    0 -0.24867698805E+02 -0.96950754142E+01 -0.10408985353E+00  0.26690967870E+02  0.00000000000E+00 0.  1.
         11    1    1    2    0    0 -0.34411169294E+03 -0.25025693575E+02 -0.34307450648E+03  0.48655858800E+03  0.00000000000E+00 0. -1.
</event>
<event>
 7    1  0.2728221E-009  0.1164589E+03  0.7561462E-02  0.1249056E+00
          1   -1    0    0  501    0  0.00000000000E+00  0.00000000000E+00  0.32140315837E+03  0.32140315837E+03  0.00000000000E+00 0. -1.
         -1   -1    0    0    0  501 -0.00000000000E+00 -0.00000000000E+00 -0.50355626667E+02  0.50355626667E+02  0.00000000000E+00 0.  1.
         25    2    1    2    0    0  0.51189907987E+02 -0.41215863170E+02  0.16028660101E+03  0.21368034062E+03  0.12509332295E+03 0.  0.
          5    1    3    3  502    0 -0.38318952631E+02  0.49078063086E+01  0.60152013544E+02  0.71611212997E+02  0.41800000000E+01 0.  1.
         -5    1    3    3    0  502  0.89508860618E+02 -0.46123669478E+02  0.10013458747E+03  0.14206912762E+03  0.41800000000E+01 0.  1.
        -11    1    1    2    0    0 -0.33846895628E+02  0.59264853019E+02  0.11397030301E+03  0.13284263290E+03  0.00000000000E+00 0. -1.
         11    1    1    2    0    0 -0.17343012359E+02 -0.18048989849E+02 -0.32093723245E+01  0.25235811518E+02  0.00000000000E+00 0.  1.
</event>
<event>
 7    1  0.2728221E-009  0.8212600E+02  0.7561462E-02  0.1323124E+00
         -1   -1    0    0    0  501 -0.00000000000E+00  0.00000000000E+00  0.97770142682E+02  0.97770142682E+02  0.00000000000E+00 0.  1.
          1   -1    0    0  501    0  0.00000000000E+00 -0.00000000000E+00 -0.14525701725E+03  0.14525701725E+03  0.00000000000E+00 0. -1.
         25    2    1    2    0    0 -0.34768416666E+02 -0.27318854608E+02 -0.44630354740E+01  0.13275344867E+03  0.12509355233E+03 0.  0.
          5    1    3    3  502    0 -0.62052596594E+02  0.26493577209E+01 -0.43803836872E+02  0.76116965028E+02  0.41800000000E+01 0. -1.
         -5    1    3    3    0  502  0.27284179928E+02 -0.29968212329E+02  0.39340801399E+02  0.56636483641E+02  0.41800000000E+01 0. -1.
        -11    1    1    2    0    0  0.33188953596E+02 -0.69969394508E+00  0.21746609565E+02  0.39685151380E+02  0.00000000000E+00 0.  1.
         11    1    1    2    0    0  0.15794630695E+01  0.28018548554E+02 -0.64770448655E+02  0.70588559878E+02  0.00000000000E+00 0. -1.
</event>
<event>
 7    1  0.2728221E-009  0.9193637E+02  0.7561462E-02  0.1298229E+00
         -1   -1    0    0    0  501 -0.00000000000E+00  0.00000000000E+00  0.63387051252E+02  0.63387051252E+02  0.00000000000E+00 0.  1.
          1   -1    0    0  501    0  0.00000000000E+00 -0.00000000000E+00 -0.25836007674E+03  0.25836007674E+03  0.00000000000E+00 0. -1.
         25    2    1    2    0    0  0.62836293759E+02 -0.10640783513E+02 -0.81654522309E+02  0.16239670416E+03  0.12507438755E+03 0.  0.
          5    1    3    3  502    0  0.96257100232E+01 -0.18580476496E+02  0.30913335704E+02  0.37563215046E+02  0.41800000000E+01 0.  1.
         -5    1    3    3    0  502  0.53210583736E+02  0.79396929825E+01 -0.11256785801E+03  0.12483348911E+03  0.41800000000E+01 0.  1.
        -11    1    1    2    0    0  0.18824337866E+02 -0.13789921189E+02 -0.42700971166E+02  0.48660975750E+02  0.00000000000E+00 0. -1.
         11    1    1    2    0    0 -0.81660631626E+02  0.24430704702E+02 -0.70617532013E+02  0.11068944809E+03  0.00000000000E+00 0.  1.
</event>
<event>
 7    1  0.2728221E-009  0.1221654E+03  0.7561462E-02  0.1239567E+00
          3   -1    0    0  501    0  0.00000000000E+00  0.00000000000E+00  0.99545118323E+02  0.99545118323E+02  0.00000000000E+00 0. -1.
         -3   -1    0    0    0  501 -0.00000000000E+00 -0.00000000000E+00 -0.18147959056E+03  0.18147959056E+03  0.00000000000E+00 0.  1.
         25    2    1    2    0    0  0.55446692416E+02 -0.69441459010E+01 -0.88207137348E+02  0.16293725917E+03  0.12508195107E+03 0.  0.
          5    1    3    3  502    0  0.48379613328E+02  0.55312152767E+02 -0.55144828882E+02  0.91969809078E+02  0.41800000000E+01 0.  1.
         -5    1    3    3    0  502  0.70670790890E+01 -0.62256298668E+02 -0.33062308466E+02  0.70967450087E+02  0.41800000000E+01 0.  1.
        -11    1    1    2    0    0 -0.37560155689E+02 -0.41689101040E+02  0.27007465347E+02  0.62274791251E+02  0.00000000000E+00 0. -1.
         11    1    1    2    0    0 -0.17886536727E+02  0.48633246941E+02 -0.20734800231E+02  0.55812658463E+02  0.00000000000E+00 0.  1.
</event>
<event>
 7    1  0.2728221E-009  0.1171051E+03  0.7561462E-02  0.1247951E+00
          2   -1    0    0  501    0  0.00000000000E+00  0.00000000000E+00  0.15867106191E+03  0.15867106191E+03  0.00000000000E+00 0. -1.
         -2   -1    0    0    0  501 -0.00000000000E+00 -0.00000000000E+00 -0.11295627681E+03  0.11295627681E+03  0.00000000000E+00 0.  1.
         25    2    1    2    0    0 -0.45860003769E+01 -0.78086865484E+02  0.26751142695E+02  0.14993878732E+03  0.12508967322E+03 0.  0.
          5    1    3    3  502    0  0.55892205288E+02 -0.32682332451E+02  0.35052815407E+02  0.73744462398E+02  0.41800000000E+01 0.  1.
         -5    1    3    3    0  502 -0.60478205665E+02 -0.45404533033E+02 -0.83016727120E+01  0.76194324921E+02  0.41800000000E+01 0.  1.
        -11    1    1    2    0    0 -0.20391692760E+02  0.58174649726E+02 -0.25691469244E+02  0.66784448761E+02  0.00000000000E+00 0.  1.
         11    1    1    2    0    0  0.24977693137E+02  0.19912215758E+02  0.44655111644E+02  0.54904102640E+02  0.00000000000E+00 0. -1.
</event>
<event>
 7    1  0.2782941E-009  0.2237893E+03  0.7561462E-02  0.1131089E+00
          2   -1    0    0  501    0  0.00000000000E+00  0.00000000000E+00  0.61711762373E+03  0.61711762373E+03  0.00000000000E+00 0. -1.
         -2   -1    0    0    0  501 -0.00000000000E+00 -0.00000000000E+00 -0.11460522258E+03  0.11460522258E+03  0.00000000000E+00 0.  1.
         25    2    1    2    0    0 -0.17573787987E+03 -0.10814520313E+03  0.43291084158E+03  0.49562002894E+03  0.12509288128E+03 0.  0.
          5    1    3    3  502    0 -0.31705518910E+02  0.13080741171E+02  0.16232033836E+03  0.16595695335E+03  0.41800000000E+01 0. -1.
         -5    1    3    3    0  502 -0.14403236096E+03 -0.12122594430E+03  0.27059050322E+03  0.32966307559E+03  0.41800000000E+01 0. -1.
        -11    1    1    2    0    0  0.54384710275E+02  0.85414910102E+02  0.41801868271E+02  0.10954816188E+03  0.00000000000E+00 0.  1.
         11    1    1    2    0    0  0.12135316959E+03  0.22730293030E+02  0.27799691290E+02  0.12655465549E+03  0.00000000000E+00 0. -1.
</event>
<event>
 7    1  0.2728221E-009  0.7489605E+02  0.7561462E-02  0.1344193E+00
          1   -1    0    0  501    0  0.00000000000E+00  0.00000000000E+00  0.97426903193E+03  0.97426903193E+03  0.00000000000E+00 0. -1.
         -1   -1    0    0    0  501 -0.00000000000E+00 -0.00000000000E+00 -0.14304707454E+02  0.14304707454E+02  0.00000000000E+00 0.  1.
         25    2    1    2    0    0  0.27418780318E+02 -0.37161479209E+02  0.54509660946E+03  0.56116867028E+03  0.12508875968E+03 0.  0.
          5    1    3    3  502    0  0.89988392205E+01 -0.66803216443E+01  0.51270940182E+03  0.51284891432E+03  0.41800000000E+01 0. -1.
         -5    1    3    3    0  502  0.18419941098E+02 -0.30481157564E+02  0.32387207640E+02  0.48319755952E+02  0.41800000000E+01 0. -1.
        -11    1    1    2    0    0  0.20550352992E+02 -0.19086642597E+02  0.13919622572E+03  0.14199368362E+03  0.00000000000E+00 0. -1.
         11    1    1    2    0    0 -0.47969133311E+02  0.56248121806E+02  0.27567148929E+03  0.28541138549E+03  0.00000000000E+00 0.  1.
</event>
<event>
 7    1  0.2728221E-009  0.9690091E+02  0.7561462E-02  0.1286951E+00
          1   -1    0    0  501    0  0.00000000000E+00  0.00000000000E+00  0.42501845716E+03  0.42501845716E+03  0.00000000000E+00 0. -1.
         -1   -1    0    0    0  501 -0.00000000000E+00 -0.00000000000E+00 -0.31307692175E+02  0.31307692175E+02  0.00000000000E+00 0.  1.
         25    2    1    2    0    0  0.39678837628E+02 -0.10222852584E+02  0.23472742416E+03  0.26912039701E+03  0.12509959057E+03 0.  0.
          5    1    3    3  502    0  0.83440603655E+02 -0.16592431325E+02  0.13068818034E+03  0.15599524350E+03  0.41800000000E+01 0. -1.
         -5    1    3    3    0  502 -0.43761766027E+02  0.63695787409E+01  0.10403924383E+03  0.11312515350E+03  0.41800000000E+01 0. -1.
        -11    1    1    2    0    0 -0.65775336148E+01  0.26509831832E+02  0.36556171788E+01  0.27557189065E+02  0.00000000000E+00 0.  1.
         11    1    1    2    0    0 -0.33101304013E+02 -0.16286979248E+02  0.15532772364E+03  0.15964856326E+03  0.00000000000E+00 0. -1.
</event>
<event>
 7    1  0.2728221E-009  0.1079807E+03  0.7561462E-02  0.1264356E+00
          1   -1    0    0  501    0  0.00000000000E+00  0.00000000000E+00  0.27704817983E+03  0.27704817983E+03  0.00000000000E+00 0. -1.
         -1   -1    0    0    0  501 -0.00000000000E+00 -0.00000000000E+00 -0.46419677237E+02  0.46419677237E+02  0.00000000000E+00 0.  1.
         25    2    1    2    0    0  0.21110655960E+02 -0.65625681259E+01  0.16449350641E+03  0.20783230692E+03  0.12508967604E+03 0.  0.
          5    1    3    3  502    0  0.28968759189E+02 -0.60102165815E+02  0.12116839963E+03  0.13838610051E+03  0.41800000000E+01 0.  1.
         -5    1    3    3    0  502 -0.78581032283E+01  0.53539597689E+02  0.43325106778E+02  0.69446206407E+02  0.41800000000E+01 0.  1.
        -11    1    1    2    0    0  0.24572181132E+02  0.33695764169E+02  0.27917108580E+02  0.50185272341E+02  0.00000000000E+00 0.  1.
         11    1    1    2    0    0 -0.45682837093E+02 -0.27133196043E+02  0.38217887599E+02  0.65450277806E+02  0.00000000000E+00 0. -1.
</event>
<event>
 7    1  0.2728221E-009  0.1036629E+03  0.7561462E-02  0.1272777E+00
         -2   -1    0    0    0  501 -0.00000000000E+00  0.00000000000E+00  0.44076095370E+02  0.44076095370E+02  0.00000000000E+00 0.  1.
          2   -1    0    0  501    0  0.00000000000E+00 -0.00000000000E+00 -0.44990018247E+03  0.44990018247E+03  0.00000000000E+00 0. -1.
         25    2    1    2    0    0  0.26482920657E+02  0.39978186005E+02 -0.89546497969E+02  0.16114350959E+03  0.12509618277E+03 0.  0.
          5    1    3    3  502    0 -0.33585008866E+02  0.55341770283E+01 -0.84963687986E+02  0.91623581092E+02  0.41800000000E+01 0. -1.
         -5    1    3    3    0  502  0.60067929523E+02  0.34444008977E+02 -0.45828099832E+01  0.69519928502E+02  0.41800000000E+01 0. -1.
        -11    1    1    2    0    0 -0.22839118595E+02 -0.69891790040E+02 -0.22447865802E+03  0.23621421541E+03  0.00000000000E+00 0. -1.
         11    1    1    2    0    0 -0.36438020622E+01  0.29913604035E+02 -0.91798931115E+02  0.96618552845E+02  0.00000000000E+00 0.  1.
</event>
<event>
 7    1  0.2728221E-009  0.1102314E+03  0.7561462E-02  0.1260142E+00
          1   -1    0    0  501    0  0.00000000000E+00  0.00000000000E+00  0.81657727052E+02  0.81657727052E+02  0.00000000000E+00 0. -1.
         -1   -1    0    0    0  501 -0.00000000000E+00 -0.00000000000E+00 -0.18142751924E+03  0.18142751924E+03  0.00000000000E+00 0.  1.
         25    2    1    2    0    0  0.52335323880E+02  0.57686884674E+01 -0.65539958118E+02  0.15071405623E+03  0.12508787608E+03 0.  0.
          5    1    3    3  502    0  0.35865664693E+02  0.52523129761E+02 -0.76704744581E+02  0.99730212598E+02  0.41800000000E+01 0.  1.
         -5    1    3    3    0  502  0.16469659187E+02 -0.46754441294E+02  0.11164786462E+02  0.50983843629E+02  0.41800000000E+01 0.  1.
        -11    1    1    2    0    0 -0.12342577876E+02  0.42522416221E+02 -0.12443701186E+02  0.45992834323E+02  0.00000000000E+00 0. -1.
         11    1    1    2    0    0 -0.39992746003E+02 -0.48291104688E+02 -0.21786132884E+02  0.66378355741E+02  0.00000000000E+00 0.  1.
</event>
<event>
 7    1  0.2728221E-009  0.1133436E+03  0.7561462E-02  0.1254500E+00
         -3   -1    0    0    0  501 -0.00000000000E+00  0.00000000000E+00  0.30192246594E+03  0.30192246594E+03  0.00000000000E+00 0.  1.
          3   -1    0    0  501    0  0.00000000000E+00 -0.00000000000E+00 -0.55333990375E+02  0.55333990375E+02  0.00000000000E+00 0. -1.
         25    2    1    2    0    0  0.11090122371E+02 -0.64517596576E+02  0.17062279087E+03  0.22146047362E+03  0.12508834291E+03 0.  0.
          5    1    3    3  502    0  0.39091104888E+02 -0.74724110717E+02  0.52187422699E+02  0.99261305108E+02  0.41800000000E+01 0.  1.
         -5    1    3    3    0  502 -0.28000982517E+02  0.10206514141E+02  0.11843536817E+03  0.12219916852E+03  0.41800000000E+01 0.  1.
        -11    1    1    2    0    0 -0.51340517625E+02  0.39354143742E+02  0.49443528722E+02  0.81420267207E+02  0.00000000000E+00 0.  1.
         11    1    1    2    0    0  0.40250395254E+02  0.25163452834E+02  0.26522155972E+02  0.54375715481E+02  0.00000000000E+00 0. -1.
</event>
<event>
 7    1  0.2728221E-009  0.1784648E+03  0.7561462E-02  0.1169297E+00
         -1   -1    0    0    0  501 -0.00000000000E+00  0.00000000000E+00  0.76959641177E+02  0.76959641177E+02  0.00000000000E+00 0.  1.
          1   -1    0    0  501    0  0.00000000000E+00 -0.00000000000E+00 -0.45035569927E+03  0.45035569927E+03  0.00000000000E+00 0. -1.
         25    2    1    2    0    0  0.12553539760E+03  0.81647649750E+02 -0.22452856824E+03  0.29747394460E+03  0.12510873271E+03 0.  0.
          5    1    3    3  502    0  0.72828977350E+02 -0.13361032102E+02 -0.14466027367E+03  0.16256273958E+03  0.41800000000E+01 0. -1.
         -5    1    3    3    0  502  0.52706420255E+02  0.95008681852E+02 -0.79868294569E+02  0.13491120502E+03  0.41800000000E+01 0. -1.
        -11    1    1    2    0    0 -0.13916957400E+03 -0.79379471653E+02 -0.12929023493E+03  0.20587674880E+03  0.00000000000E+00 0.  1.
         11    1    1    2    0    0  0.13634176397E+02 -0.22681780969E+01 -0.19577254918E+02  0.23964647046E+02  0.00000000000E+00 0. -1.
</event>
<event>
 7    1  0.2728221E-009  0.2710441E+03  0.7561462E-02  0.1100684E+00
          2   -1    0    0  501    0  0.00000000000E+00  0.00000000000E+00  0.13115809196E+04  0.13115809196E+04  0.00000000000E+00 0.  1.
         -2   -1    0    0    0  501 -0.00000000000E+00 -0.00000000000E+00 -0.62830986689E+02  0.62830986689E+02  0.00000000000E+00 0. -1.
         25    2    1    2    0    0  0.20837341992E+03 -0.15898092123E+03  0.74868070823E+03  0.80303430049E+03  0.12508744721E+03 0.  0.
          5    1    3    3  502    0  0.20298707856E+02 -0.28654602596E+00  0.74717058159E+01  0.22032213621E+02  0.41800000000E+01 0. -1.
         -5    1    3    3    0  502  0.18807471206E+03 -0.15869437520E+03  0.74120900241E+03  0.78100208687E+03  0.41800000000E+01 0. -1.
        -11    1    1    2    0    0 -0.40085278839E+02  0.79708803183E+02  0.13828045004E+03  0.16456550595E+03  0.00000000000E+00 0. -1.
         11    1    1    2    0    0 -0.16828814108E+03  0.79272118045E+02  0.36178877463E+03  0.40681209984E+03  0.00000000000E+00 0.  1.
</event>
<event>
 7    1  0.2728221E-009  0.1938672E+03  0.7561462E-02  0.1155019E+00
          3   -1    0    0  501    0  0.00000000000E+00  0.00000000000E+00  0.36915794943E+02  0.36915794943E+02  0.00000000000E+00 0. -1.
         -3   -1    0    0    0  501 -0.00000000000E+00 -0.00000000000E+00 -0.10975568039E+04  0.10975568039E+04  0.00000000000E+00 0.  1.
         25    2    1    2    0    0 -0.15834601603E+03  0.53548029809E+02 -0.47998455117E+03  0.52342457001E+03  0.12508900366E+03 0.  0.
          5    1    3    3  502    0  0.18648616391E+02  0.49639457992E+01 -0.19765964429E+02  0.27938815312E+02  0.41800000000E+01 0. -1.
         -5    1    3    3    0  502 -0.17699463242E+03  0.48584084010E+02 -0.46021858674E+03  0.49548575469E+03  0.41800000000E+01 0. -1.
        -11    1    1    2    0    0  0.15001438966E+02  0.18621610903E+02 -0.35833380408E+02  0.43079446551E+02  0.00000000000E+00 0.  1.
         11    1    1    2    0    0  0.14334457707E+03 -0.72169640712E+02 -0.54482307736E+03  0.56796858227E+03  0.00000000000E+00 0. -1.
</event>
<event>
 7    1  0.2728221E-009  0.1192537E+03  0.7561462E-02  0.1244333E+00
         -1   -1    0    0    0  501 -0.00000000000E+00  0.00000000000E+00  0.41091813909E+03  0.41091813909E+03  0.00000000000E+00 0.  1.
          1   -1    0    0  501    0  0.00000000000E+00 -0.00000000000E+00 -0.62359839063E+02  0.62359839063E+02  0.00000000000E+00 0. -1.
         25    2    1    2    0    0 -0.45837848684E+02  0.10762364586E+03  0.21596475356E+03  0.27563051447E+03  0.12508976061E+03 0.  0.
          5    1    3    3  502    0  0.30285585846E+01  0.24259173123E+02 -0.12325553100E+02  0.27696052190E+02  0.41800000000E+01 0.  1.
         -5    1    3    3    0  502 -0.48866407269E+02  0.83364472737E+02  0.22829030666E+03  0.24793446228E+03  0.41800000000E+01 0.  1.
        -11    1    1    2    0    0  0.31390311836E+02 -0.75003332441E+02  0.13935083294E+03  0.16133662385E+03  0.00000000000E+00 0.  1.
         11    1    1    2    0    0  0.14447536848E+02 -0.32620313419E+02 -0.67572864712E+01  0.36310839828E+02  0.00000000000E+00 0. -1.
</event>
<event>
 7    1  0.2728221E-009  0.2080120E+03  0.7561462E-02  0.1143150E+00
          1   -1    0    0  501    0  0.00000000000E+00  0.00000000000E+00  0.35285801160E+03  0.35285801160E+03  0.00000000000E+00 0. -1.
         -1   -1    0    0    0  501 -0.00000000000E+00 -0.00000000000E+00 -0.13968677851E+03  0.13968677851E+03  0.00000000000E+00 0.  1.
         25    2    1    2    0    0  0.33166270122E+02  0.17687920425E+03  0.19036159097E+03  0.29029547162E+03  0.12509065176E+03 0.  0.
          5    1    3    3  502    0  0.28265706330E+02 -0.95442238852E+01  0.43365294074E+02  0.52802116378E+02  0.41800000000E+01 0. -1.
         -5    1    3    3    0  502  0.49005637921E+01  0.18642342814E+03  0.14699629690E+03  0.23749335525E+03  0.41800000000E+01 0.  1.
        -11    1    1    2    0    0 -0.30160470819E+02 -0.90229980824E+01 -0.56115554771E+01  0.31977461583E+02  0.00000000000E+00 0.  1.
         11    1    1    2    0    0 -0.30057993032E+01 -0.16785620617E+03  0.28421197590E+02  0.17027185690E+03  0.00000000000E+00 0. -1.
</event>
<event>
 7    1  0.2728221E-009  0.1508079E+03  0.7561462E-02  0.1199484E+00
          1   -1    0    0  501    0  0.00000000000E+00  0.00000000000E+00  0.22374558479E+03  0.22374558479E+03  0.00000000000E+00 0. -1.
         -1   -1    0    0    0  501 -0.00000000000E+00 -0.00000000000E+00 -0.10552976344E+03  0.10552976344E+03  0.00000000000E+00 0.  1.
         25    2    1    2    0    0 -0.97917976214E+02  0.43660988968E+02  0.63670339282E+02  0.17662174671E+03  0.12508843784E+03 0.  0.
          5    1    3    3  502    0 -0.52439903563E+02 -0.40594511944E+02  0.11276549773E+02  0.67398003386E+02  0.41800000000E+01 0. -1.
         -5    1    3    3    0  502 -0.45478072651E+02  0.84255500912E+02  0.52393789509E+02  0.10922374332E+03  0.41800000000E+01 0. -1.
        -11    1    1    2    0    0  0.18634472211E+02 -0.56067114480E+02  0.39328491101E+02  0.70975313264E+02  0.00000000000E+00 0. -1.
         11    1    1    2    0    0  0.79283504004E+02  0.12406125511E+02  0.15216990967E+02  0.81678288250E+02  0.00000000000E+00 0.  1.
</event>
<event>
 7    1  0.2728221E-009  0.9354850E+02  0.7561462E-02  0.1294479E+00
         -1   -1    0    0    0  501 -0.00000000000E+00  0.00000000000E+00  0.63906109652E+02  0.63906109652E+02  0.00000000000E+00 0.  1.
          1   -1    0    0  501    0  0.00000000000E+00 -0.00000000000E+00 -0.22839517872E+03  0.22839517872E+03  0.00000000000E+00 0. -1.
         25    2    1    2    0    0  0.27066955601E+02  0.45533841571E+02 -0.11407131918E+03  0.17738684617E+03  0.12509147261E+03 0.  0.
          5    1    3    3  502    0  0.73743351619E+02  0.23983481491E+02 -0.40638093174E+02  0.87648253315E+02  0.41800000000E+01 0.  1.
         -5    1    3    3    0  502 -0.46676396018E+02  0.21550360080E+02 -0.73433226009E+02  0.89738592851E+02  0.41800000000E+01 0.  1.
        -11    1    1    2    0    0 -0.14224661442E+02 -0.45888541258E+01  0.24429177779E+02  0.28638842545E+02  0.00000000000E+00 0.  1.
         11    1    1    2    0    0 -0.12842294158E+02 -0.40944987445E+02 -0.74846927659E+02  0.86275599657E+02  0.00000000000E+00 0. -1.
</event>
<event>
 7    1  0.2728221E-009  0.1639898E+03  0.7561462E-02  0.1184265E+00
         -2   -1    0    0    0  501 -0.00000000000E+00  0.00000000000E+00  0.16267206251E+03  0.16267206251E+03  0.00000000000E+00 0.  1.
          2   -1    0    0  501    0  0.00000000000E+00 -0.00000000000E+00 -0.23696472712E+03  0.23696472712E+03  0.00000000000E+00 0. -1.
         25    2    1    2    0    0 -0.10012057366E+03  0.12520392118E+03 -0.63594380598E+01  0.20344337463E+03  0.12509441666E+03 0.  0.
          5    1    3    3  502    0 -0.97367142035E+01  0.83226440788E+01  0.44992480745E+02  0.46966644883E+02  0.41800000000E+01 0. -1.
         -5    1    3    3    0  502 -0.90383859455E+02  0.11688127710E+03 -0.51351918805E+02  0.15647672975E+03  0.41800000000E+01 0. -1.
        -11    1    1    2    0    0  0.42633731504E+02 -0.89198804062E+02 -0.80148638354E+02  0.12727083695E+03  0.00000000000E+00 0. -1.
         11    1    1    2    0    0  0.57486842155E+02 -0.36005117120E+02  0.12215411806E+02  0.68922578052E+02  0.00000000000E+00 0.  1.
</event>
<event>
 7    1  0.2728221E-009  0.1240906E+03  0.7561462E-02  0.1236497E+00
          2   -1    0    0  501    0  0.00000000000E+00  0.00000000000E+00  0.71534432369E+03  0.71534432369E+03  0.00000000000E+00 0.  1.
         -2   -1    0    0    0  501 -0.00000000000E+00 -0.00000000000E+00 -0.30688882371E+02  0.30688882371E+02  0.00000000000E+00 0. -1.
         25    2    1    2    0    0 -0.32335018640E+01  0.96874256082E+02  0.30007439265E+03  0.33924527852E+03  0.12509053062E+03 0.  0.
          5    1    3    3  502    0 -0.28025291091E+02 -0.11163837041E+02  0.14749205793E+03  0.15060354494E+03  0.41800000000E+01 0.  1.
         -5    1    3    3    0  502  0.24791789227E+02  0.10803809312E+03  0.15258233472E+03  0.18864173358E+03  0.41800000000E+01 0.  1.
        -11    1    1    2    0    0  0.23572976175E+02 -0.40383461743E+02  0.56885603305E+02  0.73637497591E+02  0.00000000000E+00 0. -1.
         11    1    1    2    0    0 -0.20339474311E+02 -0.56490794339E+02  0.32769544536E+03  0.33315042994E+03  0.00000000000E+00 0.  1.
</event>
<event>
 7    1  0.2728221E-009  0.3574111E+03  0.7561462E-02  0.1059614E+00
          2   -1    0    0  501    0  0.00000000000E+00  0.00000000000E+00  0.21756111921E+04  0.21756111921E+04  0.00000000000E+00 0. -1.
         -2   -1    0    0    0  501 -0.00000000000E+00 -0.00000000000E+00 -0.71776024474E+02  0.71776024474E+02  0.00000000000E+00 0.  1.
         25    2    1    2    0    0  0.11123243380E+03  0.33875698467E+03  0.14354696563E+04  0.14843683932E+04  0.12508974320E+03 0.  0.
          5    1    3    3  502    0  0.49567223233E+02  0.10062611725E+03  0.25623099922E+03  0.27973974057E+03  0.41800000000E+01 0. -1.
         -5    1    3    3    0  502  0.61665210569E+02  0.23813086742E+03  0.11792386570E+04  0.12046286527E+04  0.41800000000E+01 0. -1.
        -11    1    1    2    0    0 -0.39174730762E+02 -0.11920696683E+03  0.33208264726E+03  0.35499837335E+03  0.00000000000E+00 0. -1.
         11    1    1    2    0    0 -0.72057703040E+02 -0.21955001784E+03  0.33628286410E+03  0.40802044996E+03  0.00000000000E+00 0.  1.
</event>
<event>
 7    1  0.2728221E-009  0.1036028E+03  0.7561462E-02  0.1272897E+00
          2   -1    0    0  501    0  0.00000000000E+00  0.00000000000E+00  0.53753988454E+03  0.53753988454E+03  0.00000000000E+00 0. -1.
         -2   -1    0    0    0  501 -0.00000000000E+00 -0.00000000000E+00 -0.30977407647E+02  0.30977407647E+02  0.00000000000E+00 0.  1.
         25    2    1    2    0    0 -0.34532910842E+01  0.49533689739E+02  0.17243737069E+03  0.21874301887E+03  0.12509336455E+03 0.  0.
          5    1    3    3  502    0 -0.46026936786E+02  0.37347004740E+02  0.16269770070E+03  0.17320881007E+03  0.41800000000E+01 0.  1.
         -5    1    3    3    0  502  0.42573645702E+02  0.12186684999E+02  0.97396699905E+01  0.45534208801E+02  0.41800000000E+01 0.  1.
        -11    1    1    2    0    0  0.46090087523E+02 -0.36279137281E+02  0.18039481164E+03  0.18969122287E+03  0.00000000000E+00 0.  1.
         11    1    1    2    0    0 -0.42636796438E+02 -0.13254552458E+02  0.15373029457E+03  0.16008305045E+03  0.00000000000E+00 0. -1.
</event>
<event>
 7    1  0.2728221E-009  0.1249571E+03  0.7561462E-02  0.1235136E+00
         -4   -1    0    0    0  501 -0.00000000000E+00  0.00000000000E+00  0.83296826626E+02  0.83296826626E+02  0.00000000000E+00 0.  1.
          4   -1    0    0  501    0  0.00000000000E+00 -0.00000000000E+00 -0.26437631061E+03  0.26437631061E+03  0.00000000000E+00 0. -1.
         25    2    1    2    0    0  0.43046520486E+02  0.78106186072E+02 -0.42855277147E+02  0.15949253550E+03  0.12509082650E+03 0.  0.
          5    1    3    3  502    0 -0.24943248130E+02  0.94028675460E+01  0.28522883274E+02  0.39263301130E+02  0.41800000000E+01 0.  1.
         -5    1    3    3    0  502  0.67989768616E+02  0.68703318526E+02 -0.71378160421E+02  0.12022923437E+03  0.41800000000E+01 0.  1.
        -11    1    1    2    0    0 -0.70780978258E+02 -0.49728775337E+02 -0.10758344842E+03  0.13804744240E+03  0.00000000000E+00 0. -1.
         11    1    1    2    0    0  0.27734457772E+02 -0.28377410735E+02 -0.30640758413E+02  0.50133159326E+02  0.00000000000E+00 0.  1.
</event>
<event>
 7    1  0.2728221E-009  0.7850996E+02  0.7561462E-02  0.1333334E+00
          2   -1    0    0  501    0  0.00000000000E+00  0.00000000000E+00  0.15829483183E+04  0.15829483183E+04  0.00000000000E+00 0. -1.
         -2   -1    0    0    0  501 -0.00000000000E+00 -0.00000000000E+00 -0.15037154328E+02  0.15037154328E+02  0.00000000000E+00 0.  1.
         25    2    1    2    0    0 -0.30779945096E+02 -0.41235652453E+02  0.13840812510E+04  0.13906749111E+04  0.12509202618E+03 0.  0.
          5    1    3    3  502    0 -0.39272377452E+02 -0.38374894849E+02  0.22815882086E+03  0.23471018751E+03  0.41800000000E+01 0.  1.
         -5    1    3    3    0  502  0.84924323564E+01 -0.28607576039E+01  0.11559224302E+04  0.11559647236E+04  0.41800000000E+01 0.  1.
        -11    1    1    2    0    0 -0.12373965486E+02  0.46932108138E+02  0.12527769525E+03  0.13435117686E+03  0.00000000000E+00 0. -1.
         11    1    1    2    0    0  0.43153910582E+02 -0.56964556849E+01  0.58552217677E+02  0.72959384597E+02  0.00000000000E+00 0.  1.
</event>
<event>
 7    1  0.2728221E-009  0.2300421E+03  0.7561462E-02  0.1126610E+00
         -2   -1    0    0    0  501 -0.00000000000E+00  0.00000000000E+00  0.11198107063E+03  0.11198107063E+03  0.00000000000E+00 0.  1.
          2   -1    0    0  501    0  0.00000000000E+00 -0.00000000000E+00 -0.52597445898E+03  0.52597445898E+03  0.00000000000E+00 0. -1.
         25    2    1    2    0    0 -0.31447236729E+02 -0.20857038283E+03 -0.27814601096E+03  0.37081713796E+03  0.12509841366E+03 0.  0.
          5    1    3    3  502    0  0.45377433753E+02 -0.11617040415E+03 -0.13401533296E+03  0.18311814810E+03  0.41800000000E+01 0. -1.
         -5    1    3    3    0  502 -0.76824670481E+02 -0.92399978681E+02 -0.14413067800E+03  0.18769898986E+03  0.41800000000E+01 0. -1.
        -11    1    1    2    0    0  0.10056969825E+02  0.67625670871E+01 -0.41699329050E+02  0.43424750994E+02  0.00000000000E+00 0. -1.
         11    1    1    2    0    0  0.21390266903E+02  0.20180781574E+03 -0.94148048338E+02  0.22371364066E+03  0.00000000000E+00 0.  1.
</event>
<event>
 7    1  0.2728221E-009  0.8195769E+02  0.7561462E-02  0.1323586E+00
         -4   -1    0    0    0  501 -0.00000000000E+00  0.00000000000E+00  0.37706416577E+03  0.37706416577E+03  0.00000000000E+00 0.  1.
          4   -1    0    0  501    0  0.00000000000E+00 -0.00000000000E+00 -0.34666161870E+02  0.34666161870E+02  0.00000000000E+00 0. -1.
         25    2    1    2    0    0  0.33821123101E+02 -0.17024901295E+02  0.19099846513E+03  0.23143823910E+03  0.12509807834E+03 0.  0.
          5    1    3    3  502    0 -0.13384693328E+02  0.10421513961E+02 -0.11991696113E+02  0.21190354985E+02  0.41800000000E+01 0. -1.
         -5    1    3    3    0  502  0.47205816429E+02 -0.27446415256E+02  0.20299016124E+03  0.21024788412E+03  0.41800000000E+01 0. -1.
        -11    1    1    2    0    0 -0.58423353227E+02 -0.50295940331E+01  0.12474645713E+03  0.13784144364E+03  0.00000000000E+00 0. -1.
         11    1    1    2    0    0  0.24602230126E+02  0.22054495329E+02  0.26653081648E+02  0.42450644903E+02  0.00000000000E+00 0.  1.
</event>
<event>
 7    1  0.2728221E-009  0.1022977E+03  0.7561462E-02  0.1275537E+00
          1   -1    0    0  501    0  0.00000000000E+00  0.00000000000E+00  0.53752715826E+02  0.53752715826E+02  0.00000000000E+00 0. -1.
         -1   -1    0    0    0  501 -0.00000000000E+00 -0.00000000000E+00 -0.36520313305E+03  0.36520313305E+03  0.00000000000E+00 0.  1.
         25    2    1    2    0    0  0.44543860042E+02 -0.57677814753E+02 -0.24213918252E+03  0.28211741694E+03  0.12509183606E+03 0.  0.
          5    1    3    3  502    0 -0.31929065885E+02 -0.33830502529E+01 -0.13733773790E+02  0.35170999699E+02  0.41800000000E+01 0. -1.
         -5    1    3    3    0  502  0.76472925927E+02 -0.54294764500E+02 -0.22840540873E+03  0.24694641724E+03  0.41800000000E+01 0. -1.
        -11    1    1    2    0    0 -0.14715376561E+02  0.42280823341E+02 -0.87771435861E+02  0.98529362542E+02  0.00000000000E+00 0.  1.
         11    1    1    2    0    0 -0.29828483481E+02  0.15396991412E+02  0.18460201154E+02  0.38309069396E+02  0.00000000000E+00 0. -1.
</event>
<event>
 7    1  0.2728221E-009  0.8123654E+02  0.7561462E-02  0.1325578E+00
          2   -1    0    0  501    0  0.00000000000E+00  0.00000000000E+00  0.48119487292E+03  0.48119487292E+03  0.00000000000E+00 0. -1.
         -2   -1    0    0    0  501 -0.00000000000E+00 -0.00000000000E+00 -0.42979946093E+02  0.42979946093E+02  0.00000000000E+00 0.  1.
         25    2    1    2    0    0 -0.95838480086E+00 -0.60554045784E+02  0.36955591074E+03  0.39482567957E+03  0.12509210655E+03 0.  0.
          5    1    3    3  502    0 -0.25906595176E+02 -0.32812302021E+02  0.34996563218E+03  0.35247867304E+03  0.41800000000E+01 0.  1.
         -5    1    3    3    0  502  0.24948210375E+02 -0.27741743763E+02  0.19590278555E+02  0.42347006527E+02  0.41800000000E+01 0.  1.
        -11    1    1    2    0    0 -0.22952773150E+02  0.53132651093E+02  0.17449779687E+01  0.57904692000E+02  0.00000000000E+00 0.  1.
         11    1    1    2    0    0  0.23911157951E+02  0.74213946907E+01  0.66914038123E+02  0.71444447451E+02  0.00000000000E+00 0. -1.
</event>
<event>
 7    1  0.2728221E-009  0.8927084E+02  0.7561462E-02  0.1304627E+00
         -2   -1    0    0    0  501 -0.00000000000E+00  0.00000000000E+00  0.22285994816E+02  0.22285994816E+02  0.00000000000E+00 0.  1.
          2   -1    0    0  501    0  0.00000000000E+00 -0.00000000000E+00 -0.61043966131E+03  0.61043966131E+03  0.00000000000E+00 0. -1.
         25    2    1    2    0    0  0.27145837079E+02 -0.21224635939E+02 -0.39273661754E+03  0.41361468782E+03  0.12509067747E+03 0.  0.
          5    1    3    3  502    0  0.61151577423E+02 -0.37693588174E+02 -0.34583731477E+03  0.35324388558E+03  0.41800000000E+01 0.  1.
         -5    1    3    3    0  502 -0.34005740343E+02  0.16468952235E+02 -0.46899302766E+02  0.60370802247E+02  0.41800000000E+01 0.  1.
        -11    1    1    2    0    0 -0.28942683897E+02 -0.14795756635E+02 -0.17432770380E+03  0.17733229170E+03  0.00000000000E+00 0. -1.
         11    1    1    2    0    0  0.17968468180E+01  0.36020392574E+02 -0.21089345155E+02  0.41778676603E+02  0.00000000000E+00 0.  1.
</event>
<event>
 7    1  0.2728221E-009  0.1281955E+03  0.7561462E-02  0.1230158E+00
         -1   -1    0    0    0  501 -0.00000000000E+00  0.00000000000E+00  0.40920846601E+02  0.40920846601E+02  0.00000000000E+00 0.  1.
          1   -1    0    0  501    0  0.00000000000E+00 -0.00000000000E+00 -0.60434111124E+03  0.60434111124E+03  0.00000000000E+00 0. -1.
         25    2    1    2    0    0 -0.75868158092E+02  0.18818531039E+02 -0.46446438596E+03  0.48732222576E+03  0.12508265816E+03 0.  0.
          5    1    3    3  502    0 -0.48181330616E+02  0.63952945656E+02 -0.37329721559E+03  0.38181108345E+03  0.41800000000E+01 0. -1.
         -5    1    3    3    0  502 -0.27686827476E+02 -0.45134414617E+02 -0.91167170364E+02  0.10551114231E+03  0.41800000000E+01 0. -1.
        -11    1    1    2    0    0 -0.96959627839E+01 -0.34736233885E+02 -0.28916925780E+02  0.46225601514E+02  0.00000000000E+00 0.  1.
         11    1    1    2    0    0  0.85564120876E+02  0.15917702846E+02 -0.70038952904E+02  0.11171413057E+03  0.00000000000E+00 0. -1.
</event>
<event>
 7    1  0.2728221E-009  0.1036065E+03  0.7561462E-02  0.1272890E+00
          1   -1    0    0  501    0  0.00000000000E+00  0.00000000000E+00  0.97096387634E+03  0.97096387634E+03  0.00000000000E+00 0. -1.
         -1   -1    0    0    0  501 -0.00000000000E+00 -0.00000000000E+00 -0.24117928172E+02  0.24117928172E+02  0.00000000000E+00 0.  1.
         25    2    1    2    0    0  0.26389324687E+02 -0.61629969151E+02  0.78777535079E+03  0.80045759382E+03  0.12509079360E+03 0.  0.
          5    1    3    3  502    0  0.35501973542E+02 -0.73702177571E+02  0.26330242546E+03  0.27574996057E+03  0.41800000000E+01 0. -1.
         -5    1    3    3    0  502 -0.91126488546E+01  0.12072208420E+02  0.52447292533E+03  0.52470763325E+03  0.41800000000E+01 0. -1.
        -11    1    1    2    0    0 -0.24904560960E+02  0.83782000580E+02  0.14146609723E+03  0.16628985971E+03  0.00000000000E+00 0. -1.
         11    1    1    2    0    0 -0.14847637275E+01 -0.22152031428E+02  0.17604500147E+02  0.28334350975E+02  0.00000000000E+00 0.  1.
</event>
<event>
 7    1  0.2728221E-009  0.7568142E+02  0.7561462E-02  0.1341774E+00
          2   -1    0    0  501    0  0.00000000000E+00  0.00000000000E+00  0.16552561347E+04  0.16552561347E+04  0.00000000000E+00 0. -1.
         -2   -1    0    0    0  501 -0.00000000000E+00 -0.00000000000E+00 -0.13216390391E+02  0.13216390391E+02  0.00000000000E+00 0.  1.
         25    2    1    2    0    0 -0.31190517710E+02  0.49300920307E+02  0.15003071324E+04  0.15066427655E+04  0.12508997678E+03 0.  0.
          5    1    3    3  502    0 -0.32207574155E+02  0.79829167874E+01  0.13576108855E+04  0.13580227700E+04  0.41800000000E+01 0. -1.
         -5    1    3    3    0  502  0.10170564453E+01  0.41318003519E+02  0.14269624686E+03  0.14861999558E+03  0.41800000000E+01 0. -1.
        -11    1    1    2    0    0  0.20972997821E+02  0.46373757151E+01  0.25910056934E+02  0.33655652444E+02  0.00000000000E+00 0. -1.
         11    1    1    2    0    0  0.10217519889E+02 -0.53938296022E+02  0.11582255493E+03  0.12817410706E+03  0.00000000000E+00 0.  1.
</event>
<event>
 7    1  0.2728221E-009  0.1682475E+03  0.7561462E-02  0.1179688E+00
          2   -1    0    0  501    0  0.00000000000E+00  0.00000000000E+00  0.77420195302E+03  0.77420195302E+03  0.00000000000E+00 0. -1.
         -2   -1    0    0    0  501 -0.00000000000E+00 -0.00000000000E+00 -0.57547804812E+02  0.57547804812E+02  0.00000000000E+00 0.  1.
         25    2    1    2    0    0 -0.68275114463E+02  0.13172225285E+03  0.56595759648E+03  0.59830417319E+03  0.12509052514E+03 0.  0.
          5    1    3    3  502    0  0.13067435246E+02  0.82378066469E+02  0.38351871957E+03  0.39250603099E+03  0.41800000000E+01 0.  1.
         -5    1    3    3    0  502 -0.81342549710E+02  0.49344186384E+02  0.18243887691E+03  0.20579814220E+03  0.41800000000E+01 0.  1.
        -11    1    1    2    0    0  0.58697988581E+02 -0.13533451908E+03  0.91977657326E+02  0.17384123609E+03  0.00000000000E+00 0.  1.
         11    1    1    2    0    0  0.95771258822E+01  0.36122662280E+01  0.58718894398E+02  0.59604348556E+02  0.00000000000E+00 0. -1.
</event>
<event>
 7    1  0.2728221E-009  0.1004978E+03  0.7561462E-02  0.1279253E+00
          1   -1    0    0  501    0  0.00000000000E+00  0.00000000000E+00  0.12340258950E+03  0.12340258950E+03  0.00000000000E+00 0. -1.
         -1   -1    0    0    0  501 -0.00000000000E+00 -0.00000000000E+00 -0.10258249824E+03  0.10258249824E+03  0.00000000000E+00 0.  1.
         25    2    1    2    0    0  0.10893436633E+02 -0.19507892387E+02 -0.74337516229E+01  0.12728772840E+03  0.12509068834E+03 0.  0.
          5    1    3    3  502    0  0.55919851206E+02  0.26963028353E+02 -0.29390113091E+01  0.62290808667E+02  0.41800000000E+01 0. -1.
         -5    1    3    3    0  502 -0.45026414574E+02 -0.46470920739E+02 -0.44947403138E+01  0.64996919729E+02  0.41800000000E+01 0. -1.
        -11    1    1    2    0    0 -0.20894910821E+02 -0.22526403703E+02 -0.17831659146E+02  0.35524698872E+02  0.00000000000E+00 0.  1.
         11    1    1    2    0    0  0.10001474189E+02  0.42034296089E+02  0.46085502032E+02  0.63172660472E+02  0.00000000000E+00 0. -1.
</event>
<event>
 7    1  0.2728221E-009  0.1172956E+03  0.7561462E-02  0.1247626E+00
          2   -1    0    0  501    0  0.00000000000E+00  0.00000000000E+00  0.58842512414E+03  0.58842512414E+03  0.00000000000E+00 0. -1.
         -2   -1    0    0    0  501 -0.00000000000E+00 -0.00000000000E+00 -0.23655947023E+02  0.23655947023E+02  0.00000000000E+00 0.  1.
         25    2    1    2    0    0 -0.49042865396E+02  0.12466301018E+01  0.31324686149E+03  0.34084886719E+03  0.12509035654E+03 0.  0.
          5    1    3    3  502    0 -0.18562066202E+02  0.62103248554E+02  0.12995270400E+03  0.14528090535E+03  0.41800000000E+01 0. -1.
         -5    1    3    3    0  502 -0.30480799194E+02 -0.60856618452E+02  0.18329415749E+03  0.19556796184E+03  0.41800000000E+01 0. -1.
        -11    1    1    2    0    0 -0.20988224069E+02  0.19248909684E+02  0.66527548131E+02  0.72366710122E+02  0.00000000000E+00 0.  1.
         11    1    1    2    0    0  0.70031089465E+02 -0.20495539785E+02  0.18499476749E+03  0.19886549385E+03  0.00000000000E+00 0. -1.
</event>
<event>
 7    1  0.2728221E-009  0.2471029E+03  0.7561462E-02  0.1115150E+00
          3   -1    0    0  501    0  0.00000000000E+00  0.00000000000E+00  0.15991342687E+03  0.15991342687E+03  0.00000000000E+00 0. -1.
         -3   -1    0    0    0  501 -0.00000000000E+00 -0.00000000000E+00 -0.43364177887E+03  0.43364177887E+03  0.00000000000E+00 0.  1.
         25    2    1    2    0    0 -0.23311546815E+03 -0.53767095500E+02 -0.11516580811E+03  0.29350530526E+03  0.12509387998E+03 0.  0.
          5    1    3    3  502    0 -0.81796806499E+02  0.17490225828E+02 -0.92312672153E+02  0.12464239806E+03  0.41800000000E+01 0. -1.
         -5    1    3    3    0  502 -0.15131866165E+03 -0.71257321328E+02 -0.22853135953E+02  0.16886290720E+03  0.41800000000E+01 0. -1.
        -11    1    1    2    0    0  0.56925543005E+02  0.32836868464E+02 -0.86292113608E+02  0.10846707449E+03  0.00000000000E+00 0.  1.
         11    1    1    2    0    0  0.17618992514E+03  0.20930227036E+02 -0.72270430286E+02  0.19158282600E+03  0.00000000000E+00 0. -1.
</event>
<event>
 7    1  0.2728221E-009  0.1013994E+03  0.7561462E-02  0.1277380E+00
          1   -1    0    0  501    0  0.00000000000E+00  0.00000000000E+00  0.20636840798E+03  0.20636840798E+03  0.00000000000E+00 0. -1.
         -1   -1    0    0    0  501 -0.00000000000E+00 -0.00000000000E+00 -0.72755630264E+02  0.72755630264E+02  0.00000000000E+00 0.  1.
         25    2    1    2    0    0  0.89962988969E+01 -0.50957897490E+02  0.49380419896E+02  0.14411210449E+03  0.12510888090E+03 0.  0.
          5    1    3    3  502    0  0.41279569853E+01 -0.77869961222E+02 -0.98778684116E+01  0.78713503123E+02  0.41800000000E+01 0.  1.
         -5    1    3    3    0  502  0.48683419116E+01  0.26912063731E+02  0.59258288307E+02  0.65398601364E+02  0.41800000000E+01 0.  1.
        -11    1    1    2    0    0  0.33012203261E+02  0.27925730663E+01  0.54652468185E+01  0.33577864007E+02  0.00000000000E+00 0.  1.
         11    1    1    2    0    0 -0.42008502158E+02  0.48165324424E+02  0.78767111006E+02  0.10143406975E+03  0.00000000000E+00 0. -1.
</event>
<event>
 7    1  0.2728221E-009  0.1095592E+03  0.7561462E-02  0.1261388E+00
          2   -1    0    0  501    0  0.00000000000E+00  0.00000000000E+00  0.51104625136E+03  0.51104625136E+03  0.00000000000E+00 0. -1.
         -2   -1    0    0    0  501 -0.00000000000E+00 -0.00000000000E+00 -0.30348917749E+02  0.30348917749E+02  0.00000000000E+00 0.  1.
         25    2    1    2    0    0 -0.55955806268E+02  0.23165010005E+02  0.27028794065E+03  0.30394099293E+03  0.12512748051E+03 0.  0.
          5    1    3    3  502    0 -0.13934558869E+02 -0.34591694835E+02  0.17842182198E+02  0.41552053475E+02  0.41800000000E+01 0.  1.
         -5    1    3    3    0  502 -0.42021247399E+02  0.57756704839E+02  0.25244575846E+03  0.26238893946E+03  0.41800000000E+01 0.  1.
        -11    1    1    2    0    0  0.44776160202E+02  0.31179008052E+02  0.10607678362E+03  0.11928670961E+03  0.00000000000E+00 0.  1.
         11    1    1    2    0    0  0.11179646066E+02 -0.54344018056E+02  0.10433260934E+03  0.11816746657E+03  0.00000000000E+00 0. -1.
</event>
<event>
 7    1  0.2728221E-009  0.1103657E+03  0.7561462E-02  0.1259894E+00
         -1   -1    0    0    0  501 -0.00000000000E+00  0.00000000000E+00  0.18619281937E+03  0.18619281937E+03  0.00000000000E+00 0.  1.
          1   -1    0    0  501    0  0.00000000000E+00 -0.00000000000E+00 -0.70542129886E+02  0.70542129886E+02  0.00000000000E+00 0. -1.
         25    2    1    2    0    0 -0.25121802215E+02 -0.18535319213E+01  0.41289138342E+02  0.13411984945E+03  0.12509516595E+03 0.  0.
          5    1    3    3  502    0 -0.32326718049E+02  0.56611638113E+02  0.36597565060E+02  0.74878224058E+02  0.41800000000E+01 0. -1.
         -5    1    3    3    0  502  0.72049158334E+01 -0.58465170035E+02  0.46915732823E+01  0.59241625393E+02  0.41800000000E+01 0. -1.
        -11    1    1    2    0    0  0.45973980847E+02  0.34592796197E+02  0.35054453115E+02  0.67372718120E+02  0.00000000000E+00 0.  1.
         11    1    1    2    0    0 -0.20852178632E+02 -0.32739264275E+02  0.39307098024E+02  0.55242381683E+02  0.00000000000E+00 0. -1.
</event>
<event>
 7    1  0.2728221E-009  0.7269567E+02  0.7561462E-02  0.1351159E+00
         -1   -1    0    0    0  501 -0.00000000000E+00  0.00000000000E+00  0.16044100432E+03  0.16044100432E+03  0.00000000000E+00 0.  1.
          1   -1    0    0  501    0  0.00000000000E+00 -0.00000000000E+00 -0.76278080323E+02  0.76278080323E+02  0.00000000000E+00 0. -1.
         25    2    1    2    0    0  0.10826466387E+02 -0.14974400731E+02  0.34144506676E+02  0.13098381093E+03  0.12509782707E+03 0.  0.
          5    1    3    3  502    0  0.35532027024E+02  0.24173954043E+01  0.73151439294E+02  0.81467626796E+02  0.41800000000E+01 0. -1.
         -5    1    3    3    0  502 -0.24705560637E+02 -0.17391796135E+02 -0.39006932618E+02  0.49516184136E+02  0.41800000000E+01 0. -1.
        -11    1    1    2    0    0 -0.14720005978E+02  0.45724801289E+02  0.56405743625E+02  0.74088082326E+02  0.00000000000E+00 0.  1.
         11    1    1    2    0    0  0.38935395905E+01 -0.30750400559E+02 -0.63873263052E+01  0.31647191382E+02  0.00000000000E+00 0. -1.
</event>
<event>
 7    1  0.2728221E-009  0.1133429E+03  0.7561462E-02  0.1254502E+00
          4   -1    0    0  501    0  0.00000000000E+00  0.00000000000E+00  0.14909057306E+02  0.14909057306E+02  0.00000000000E+00 0. -1.
         -4   -1    0    0    0  501 -0.00000000000E+00 -0.00000000000E+00 -0.99145915117E+03  0.99145915117E+03  0.00000000000E+00 0.  1.
         25    2    1    2    0    0  0.51226979842E+02 -0.68736020521E+01 -0.62672163157E+03  0.64116962948E+03  0.12508813058E+03 0.  0.
          5    1    3    3  502    0  0.48050755778E+02 -0.56209012347E+02 -0.23703293905E+03  0.24833528705E+03  0.41800000000E+01 0. -1.
         -5    1    3    3    0  502  0.31762240633E+01  0.49335410295E+02 -0.38968869252E+03  0.39283434242E+03  0.41800000000E+01 0. -1.
        -11    1    1    2    0    0 -0.57563640726E+01  0.43956002430E+02 -0.11777084056E+03  0.12583813716E+03  0.00000000000E+00 0. -1.
         11    1    1    2    0    0 -0.45470615769E+02 -0.37082400377E+02 -0.23205762173E+03  0.23936044184E+03  0.00000000000E+00 0.  1.
</event>
<event>
 7    1  0.2728221E-009  0.1009364E+03  0.7561462E-02  0.1278339E+00
          2   -1    0    0  501    0  0.00000000000E+00  0.00000000000E+00  0.85694859255E+03  0.85694859255E+03  0.00000000000E+00 0. -1.
         -2   -1    0    0    0  501 -0.00000000000E+00 -0.00000000000E+00 -0.15522496932E+02  0.15522496932E+02  0.00000000000E+00 0.  1.
         25    2    1    2    0    0 -0.14968143148E+01  0.17707434193E+02  0.61352545542E+03  0.62639812021E+03  0.12508128107E+03 0.  0.
          5    1    3    3  502    0 -0.10133590642E+02  0.70531219250E+02  0.39316504658E+03  0.39959175267E+03  0.41800000000E+01 0.  1.
         -5    1    3    3    0  502  0.86367763272E+01 -0.52823785057E+02  0.22036040884E+03  0.22680636755E+03  0.41800000000E+01 0.  1.
        -11    1    1    2    0    0 -0.15732221966E+02 -0.43235334379E+02  0.61276184141E+02  0.76626155389E+02  0.00000000000E+00 0.  1.
         11    1    1    2    0    0  0.17229036280E+02  0.25527900186E+02  0.16662445606E+03  0.16944681388E+03  0.00000000000E+00 0. -1.
</event>
<event>
 7    1  0.2728221E-009  0.1205514E+03  0.7561462E-02  0.1242190E+00
         -2   -1    0    0    0  501 -0.00000000000E+00  0.00000000000E+00  0.14745386111E+03  0.14745386111E+03  0.00000000000E+00 0.  1.
          2   -1    0    0  501    0  0.00000000000E+00 -0.00000000000E+00 -0.17649918115E+03  0.17649918115E+03  0.00000000000E+00 0. -1.
         25    2    1    2    0    0 -0.30571464939E+02 -0.10534220514E+03  0.36041093594E+02  0.17022859829E+03  0.12508885081E+03 0.  0.
          5    1    3    3  502    0  0.20891260270E+02 -0.26544731953E+02  0.63546846695E+02  0.72088429550E+02  0.41800000000E+01 0.  1.
         -5    1    3    3    0  502 -0.51462725209E+02 -0.78797473189E+02 -0.27505753101E+02  0.98140168741E+02  0.41800000000E+01 0.  1.
        -11    1    1    2    0    0  0.16638312590E+02  0.92253497874E+02 -0.84697414133E+02  0.12633761624E+03  0.00000000000E+00 0. -1.
         11    1    1    2    0    0  0.13933152349E+02  0.13088707268E+02  0.19611000503E+02  0.27386827729E+02  0.00000000000E+00 0.  1.
</event>
<event>
 7    1  0.2728221E-009  0.9095312E+02  0.7561462E-02  0.1300560E+00
          1   -1    0    0  501    0  0.00000000000E+00  0.00000000000E+00  0.11267032389E+04  0.11267032389E+04  0.00000000000E+00 0. -1.
         -1   -1    0    0    0  501 -0.00000000000E+00 -0.00000000000E+00 -0.13686607175E+02  0.13686607175E+02  0.00000000000E+00 0.  1.
         25    2    1    2    0    0  0.40613434297E+02  0.13265357948E+02  0.80883665552E+03  0.81956706322E+03  0.12509202630E+03 0.  0.
          5    1    3    3  502    0  0.55012779910E+02 -0.64199939221E+01  0.14507474077E+03  0.15534405391E+03  0.41800000000E+01 0. -1.
         -5    1    3    3    0  502 -0.14399345613E+02  0.19685351870E+02  0.66376191475E+03  0.66422300931E+03  0.41800000000E+01 0. -1.
        -11    1    1    2    0    0 -0.49151023067E+02  0.29956400365E+02  0.15858893935E+03  0.16871176804E+03  0.00000000000E+00 0.  1.
         11    1    1    2    0    0  0.85375887697E+01 -0.43221758313E+02  0.14559103687E+03  0.15211101483E+03  0.00000000000E+00 0. -1.
</event>
<event>
 7    1  0.2728221E-009  0.1409571E+03  0.7561462E-02  0.1212047E+00
          1   -1    0    0  501    0  0.00000000000E+00  0.00000000000E+00  0.32991882242E+03  0.32991882242E+03  0.00000000000E+00 0. -1.
         -1   -1    0    0    0  501 -0.00000000000E+00 -0.00000000000E+00 -0.13263815775E+03  0.13263815775E+03  0.00000000000E+00 0.  1.
         25    2    1    2    0    0  0.11533150180E+03  0.38791219034E+02 -0.41000503209E+02  0.17926434148E+03  0.12509416006E+03 0.  0.
          5    1    3    3  502    0  0.88727354400E+02  0.57263845469E+01 -0.81329366491E+02  0.12057061480E+03  0.41800000000E+01 0.  1.
         -5    1    3    3    0  502  0.26604147401E+02  0.33064834487E+02  0.40328863282E+02  0.58693726685E+02  0.41800000000E+01 0.  1.
        -11    1    1    2    0    0 -0.50064092613E+01 -0.39616573808E+02  0.90076905204E+02  0.98531141804E+02  0.00000000000E+00 0. -1.
         11    1    1    2    0    0 -0.11032509254E+03  0.82535477486E+00  0.14820426268E+03  0.18476149688E+03  0.00000000000E+00 0.  1.
</event>
<event>
 7    1  0.2728221E-009  0.9377190E+02  0.7561462E-02  0.1293966E+00
         -3   -1    0    0    0  501 -0.00000000000E+00  0.00000000000E+00  0.27281582940E+03  0.27281582940E+03  0.00000000000E+00 0.  1.
          3   -1    0    0  501    0  0.00000000000E+00 -0.00000000000E+00 -0.47754288368E+02  0.47754288368E+02  0.00000000000E+00 0. -1.
         25    2    1    2    0    0 -0.73405270940E+01 -0.24965942304E+02  0.16416505270E+03  0.20804238910E+03  0.12511710323E+03 0.  0.
          5    1    3    3  502    0  0.25592758461E+02 -0.67539253060E+02  0.10926425024E+03  0.13104460604E+03  0.41800000000E+01 0.  1.
         -5    1    3    3    0  502 -0.32933285555E+02  0.42573310756E+02  0.54900802456E+02  0.76997783063E+02  0.41800000000E+01 0.  1.
        -11    1    1    2    0    0 -0.24081896367E+02  0.14402767821E+02 -0.13456047691E+02  0.31119811584E+02  0.00000000000E+00 0. -1.
         11    1    1    2    0    0  0.31422423461E+02  0.10563174483E+02  0.74352536018E+02  0.81407917082E+02  0.00000000000E+00 0.  1.
</event>
<event>
 7    1  0.2728221E-009  0.1152577E+03  0.7561462E-02  0.1251132E+00
          2   -1    0    0  501    0  0.00000000000E+00  0.00000000000E+00  0.38528252289E+03  0.38528252289E+03  0.00000000000E+00 0. -1.
         -2   -1    0    0    0  501 -0.00000000000E+00 -0.00000000000E+00 -0.93443674089E+02  0.93443674089E+02  0.00000000000E+00 0.  1.
         25    2    1    2    0    0 -0.46652439743E+02 -0.72228502877E+02  0.31683386537E+03  0.35131945594E+03  0.12509298588E+03 0.  0.
          5    1    3    3  502    0 -0.36921959559E+02  0.21990488627E+02  0.40601434025E+02  0.59268554331E+02  0.41800000000E+01 0.  1.
         -5    1    3    3    0  502 -0.97304801850E+01 -0.94218991503E+02  0.27623243134E+03  0.29205090161E+03  0.41800000000E+01 0.  1.
        -11    1    1    2    0    0  0.12847521254E+02  0.51033411095E+02  0.29141215232E+02  0.60155450921E+02  0.00000000000E+00 0. -1.
         11    1    1    2    0    0  0.33804918490E+02  0.21195091782E+02 -0.54136231796E+02  0.67251290120E+02  0.00000000000E+00 0.  1.
</event>
<event>
 7    1  0.3070821E-009  0.1108394E+03  0.7561462E-02  0.1259023E+00
          2   -1    0    0  501    0  0.00000000000E+00  0.00000000000E+00  0.50920004777E+03  0.50920004777E+03  0.00000000000E+00 0. -1.
         -2   -1    0    0    0  501 -0.00000000000E+00 -0.00000000000E+00 -0.41109131045E+02  0.41109131045E+02  0.00000000000E+00 0.  1.
         25    2    1    2    0    0  0.31857220853E+02 -0.89520415852E+02  0.27485040600E+03  0.31657369465E+03  0.12508945236E+03 0.  0.
          5    1    3    3  502    0  0.88375032821E+01 -0.98119617853E+01  0.21188231499E+03  0.21233455645E+03  0.41800000000E+01 0. -1.
         -5    1    3    3    0  502  0.23019717571E+02 -0.79708454067E+02  0.62968091007E+02  0.10423913820E+03  0.41800000000E+01 0. -1.
        -11    1    1    2    0    0 -0.46157934352E+02  0.14494839682E+02  0.41023417171E+02  0.63431664312E+02  0.00000000000E+00 0.  1.
         11    1    1    2    0    0  0.14300713499E+02  0.75025576170E+02  0.15221709356E+03  0.17030381986E+03  0.00000000000E+00 0. -1.
</event>
<event>
 7    1  0.2728221E-009  0.1208952E+03  0.7561462E-02  0.1241628E+00
         -2   -1    0    0    0  501 -0.00000000000E+00  0.00000000000E+00  0.99785938223E+01  0.99785938223E+01  0.00000000000E+00 0.  1.
          2   -1    0    0  501    0  0.00000000000E+00 -0.00000000000E+00 -0.15707810629E+04  0.15707810629E+04  0.00000000000E+00 0. -1.
         25    2    1    2    0    0 -0.36100345658E+02  0.35155812563E+02 -0.99117045461E+03  0.10003025795E+04  0.12508882561E+03 0.  0.
          5    1    3    3  502    0 -0.67564263583E+02 -0.16892609314E+02 -0.40447010793E+03  0.41044345600E+03  0.41800000000E+01 0. -1.
         -5    1    3    3    0  502  0.31463917925E+02  0.52048421877E+02 -0.58670034668E+03  0.58985912348E+03  0.41800000000E+01 0. -1.
        -11    1    1    2    0    0  0.10410430056E+02 -0.68319465532E+02 -0.38097680814E+03  0.38719407894E+03  0.00000000000E+00 0. -1.
         11    1    1    2    0    0  0.25689915602E+02  0.33163652969E+02 -0.18865520634E+03  0.19326299832E+03  0.00000000000E+00 0.  1.
</event>
<event>
 7    1  0.2728221E-009  0.2219625E+03  0.7561462E-02  0.1132428E+00
         -2   -1    0    0    0  501 -0.00000000000E+00  0.00000000000E+00  0.15478265891E+03  0.15478265891E+03  0.00000000000E+00 0.  1.
          2   -1    0    0  501    0  0.00000000000E+00 -0.00000000000E+00 -0.33308312928E+03  0.33308312928E+03  0.00000000000E+00 0. -1.
         25    2    1    2    0    0 -0.18568333091E+03  0.68439219812E+02 -0.11153270213E+03  0.25932529139E+03  0.12509131434E+03 0.  0.
          5    1    3    3  502    0 -0.22155496904E+02  0.66220171186E+02 -0.41772979617E+02  0.81476569276E+02  0.41800000000E+01 0. -1.
         -5    1    3    3    0  502 -0.16352783401E+03  0.22190486262E+01 -0.69759722518E+02  0.17784872211E+03  0.41800000000E+01 0. -1.
        -11    1    1    2    0    0  0.17549565222E+02 -0.34706509009E+02 -0.38532160307E+02  0.54747204357E+02  0.00000000000E+00 0. -1.
         11    1    1    2    0    0  0.16813376569E+03 -0.33732710803E+02 -0.28235607923E+02  0.17379329244E+03  0.00000000000E+00 0.  1.
</event>
<event>
 7    1  0.2728221E-009  0.9077341E+02  0.7561462E-02  0.1300990E+00
          3   -1    0    0  501    0  0.00000000000E+00  0.00000000000E+00  0.55088371793E+02  0.55088371793E+02  0.00000000000E+00 0. -1.
         -3   -1    0    0    0  501 -0.00000000000E+00 -0.00000000000E+00 -0.25993026591E+03  0.25993026591E+03  0.00000000000E+00 0.  1.
         25    2    1    2    0    0  0.24938066656E+02 -0.27461210016E+02 -0.68581100664E+02  0.14740015195E+03  0.12508961669E+03 0.  0.
          5    1    3    3  502    0  0.41592436470E+02 -0.43630628504E+02 -0.94619930430E+02  0.11226738685E+03  0.41800000000E+01 0.  1.
         -5    1    3    3    0  502 -0.16654369813E+02  0.16169418488E+02  0.26038829766E+02  0.35132765102E+02  0.41800000000E+01 0.  1.
        -11    1    1    2    0    0 -0.59221075427E+02  0.15353362444E+02 -0.82176419935E+02  0.10244913619E+03  0.00000000000E+00 0.  1.
         11    1    1    2    0    0  0.34283008771E+02  0.12107847572E+02 -0.54084373515E+02  0.65169349558E+02  0.00000000000E+00 0. -1.
</event>
<event>
 7    1  0.2728221E-009  0.1204536E+03  0.7561462E-02  0.1242351E+00
         -2   -1    0    0    0  501 -0.00000000000E+00  0.00000000000E+00  0.96923179862E+02  0.96923179862E+02  0.00000000000E+00 0. -1.
          2   -1    0    0  501    0  0.00000000000E+00 -0.00000000000E+00 -0.30593820999E+03  0.30593820999E+03  0.00000000000E+00 0.  1.
         25    2    1    2    0    0  0.56585515000E+02 -0.40297061862E+02  0.10518491810E+02  0.14347003726E+03  0.12508892524E+03 0.  0.
          5    1    3    3  502    0  0.54123116065E+02  0.13746515392E+02  0.51024272713E+02  0.75757687293E+02  0.41800000000E+01 0.  1.
         -5    1    3    3    0  502  0.24623989342E+01 -0.54043577254E+02 -0.40505780902E+02  0.67712349963E+02  0.41800000000E+01 0.  1.
        -11    1    1    2    0    0 -0.88252300794E+02  0.13731131949E+02 -0.18537543924E+03  0.20576944879E+03  0.00000000000E+00 0.  1.
         11    1    1    2    0    0  0.31666785795E+02  0.26565929913E+02 -0.34158082700E+02  0.53621903812E+02  0.00000000000E+00 0. -1.
</event>
<event>
 7    1  0.2786291E-009  0.1075002E+03  0.7561462E-02  0.1265270E+00
         -2   -1    0    0    0  501 -0.00000000000E+00  0.00000000000E+00  0.23730067285E+02  0.23730067285E+02  0.00000000000E+00 0.  1.
          2   -1    0    0  501    0  0.00000000000E+00 -0.00000000000E+00 -0.66042399563E+03  0.66042399563E+03  0.00000000000E+00 0. -1.
         25    2    1    2    0    0  0.42034640861E+02  0.43647691977E+02 -0.38832808635E+03  0.41245243815E+03  0.12508508720E+03 0.  0.
          5    1    3    3  502    0  0.75231771587E+02  0.12020992070E+02 -0.13585079139E+03  0.15581153239E+03  0.41800000000E+01 0. -1.
         -5    1    3    3    0  502 -0.33197130725E+02  0.31626699908E+02 -0.25247729496E+03  0.25664090576E+03  0.41800000000E+01 0. -1.
        -11    1    1    2    0    0 -0.55295596915E+02 -0.96038620022E+01 -0.70445981592E+02  0.90069270709E+02  0.00000000000E+00 0.  1.
         11    1    1    2    0    0  0.13260956053E+02 -0.34043829975E+02 -0.17791986040E+03  0.18163235406E+03  0.00000000000E+00 0. -1.
</event>
<event>
 7    1  0.2728221E-009  0.1341609E+03  0.7561462E-02  0.1221409E+00
         -2   -1    0    0    0  501 -0.00000000000E+00  0.00000000000E+00  0.91239471991E+02  0.91239471991E+02  0.00000000000E+00 0.  1.
          2   -1    0    0  501    0  0.00000000000E+00 -0.00000000000E+00 -0.27957458168E+03  0.27957458168E+03  0.00000000000E+00 0. -1.
         25    2    1    2    0    0  0.31637215485E+02 -0.85902673245E+02 -0.16246707900E+02  0.15585424557E+03  0.12508560138E+03 0.  0.
          5    1    3    3  502    0 -0.39292793975E+02 -0.42115101121E+01  0.16071978398E+02  0.42865386565E+02  0.41800000000E+01 0. -1.
         -5    1    3    3    0  502  0.70930009460E+02 -0.81691163133E+02 -0.32318686298E+02  0.11298885901E+03  0.41800000000E+01 0. -1.
        -11    1    1    2    0    0  0.19995163289E+02  0.58581683293E+02 -0.12659938023E+03  0.14092204670E+03  0.00000000000E+00 0. -1.
         11    1    1    2    0    0 -0.51632378774E+02  0.27320989953E+02 -0.45489021559E+02  0.74037761394E+02  0.00000000000E+00 0.  1.
</event>
<event>
 7    1  0.2728221E-009  0.1043987E+03  0.7561462E-02  0.1271309E+00
          1   -1    0    0  501    0  0.00000000000E+00  0.00000000000E+00  0.10950434016E+04  0.10950434016E+04  0.00000000000E+00 0. -1.
         -1   -1    0    0    0  501 -0.00000000000E+00 -0.00000000000E+00 -0.13354354005E+02  0.13354354005E+02  0.00000000000E+00 0.  1.
         25    2    1    2    0    0 -0.34914185370E+02  0.39513964091E+02  0.68042718994E+03  0.69383581969E+03  0.12508649075E+03 0.  0.
          5    1    3    3  502    0  0.84668098294E+01 -0.34076275447E+02  0.81604052929E+02  0.88935781727E+02  0.41800000000E+01 0.  1.
         -5    1    3    3    0  502 -0.43380995199E+02  0.73590239538E+02  0.59882313701E+03  0.60490003796E+03  0.41800000000E+01 0.  1.
        -11    1    1    2    0    0 -0.18016927867E+02  0.50561959270E+01  0.21308320753E+02  0.28358761262E+02  0.00000000000E+00 0.  1.
         11    1    1    2    0    0  0.52931113237E+02 -0.44570160018E+02  0.37995353695E+03  0.38620317471E+03  0.00000000000E+00 0. -1.
</event>
<event>
 7    1  0.2728221E-009  0.7860091E+02  0.7561462E-02  0.1333069E+00
         -2   -1    0    0    0  501 -0.00000000000E+00  0.00000000000E+00  0.28057841069E+03  0.28057841069E+03  0.00000000000E+00 0.  1.
          2   -1    0    0  501    0  0.00000000000E+00 -0.00000000000E+00 -0.62100111155E+02  0.62100111155E+02  0.00000000000E+00 0. -1.
         25    2    1    2    0    0  0.63329286902E+01  0.57065843979E+02  0.18011060364E+03  0.22668290947E+03  0.12509474556E+03 0.  0.
          5    1    3    3  502    0 -0.25689645125E+02  0.18360992300E+02 -0.72440924713E+01  0.32665473831E+02  0.41800000000E+01 0.  1.
         -5    1    3    3    0  502  0.32022573815E+02  0.38704851679E+02  0.18735469611E+03  0.19401743564E+03  0.41800000000E+01 0.  1.
        -11    1    1    2    0    0 -0.27178291143E+02 -0.37801835000E+02 -0.20324238280E+02  0.50800717520E+02  0.00000000000E+00 0. -1.
         11    1    1    2    0    0  0.20845362453E+02 -0.19264008979E+02  0.58691934178E+02  0.65194894856E+02  0.00000000000E+00 0.  1.
</event>
<event>
 7    1  0.2728221E-009  0.1106721E+03  0.7561462E-02  0.1259330E+00
         -1   -1    0    0    0  501 -0.00000000000E+00  0.00000000000E+00  0.48282850877E+02  0.48282850877E+02  0.00000000000E+00 0.  1.
          1   -1    0    0  501    0  0.00000000000E+00 -0.00000000000E+00 -0.29818000044E+03  0.29818000044E+03  0.00000000000E+00 0. -1.
         25    2    1    2    0    0 -0.44096257137E+02  0.40995961890E+01 -0.96212209585E+02  0.16390760367E+03  0.12509047400E+03 0.  0.
          5    1    3    3  502    0 -0.68507254969E+02  0.45213971290E+02 -0.44931331524E+02  0.93668800225E+02  0.41800000000E+01 0. -1.
         -5    1    3    3    0  502  0.24410997832E+02 -0.41114375101E+02 -0.51280878061E+02  0.70238803448E+02  0.41800000000E+01 0. -1.
        -11    1    1    2    0    0  0.67578364017E+02 -0.34601902597E+01 -0.77761658767E+02  0.10308095738E+03  0.00000000000E+00 0.  1.
         11    1    1    2    0    0 -0.23482106880E+02 -0.63940592936E+00 -0.75923281215E+02  0.79474290270E+02  0.00000000000E+00 0. -1.
</event>
<event>
 7    1  0.2728221E-009  0.1266236E+03  0.7561462E-02  0.1232553E+00
         -2   -1    0    0    0  501 -0.00000000000E+00  0.00000000000E+00  0.11226853192E+03  0.11226853192E+03  0.00000000000E+00 0.  1.
          2   -1    0    0  501    0  0.00000000000E+00 -0.00000000000E+00 -0.16874863795E+03  0.16874863795E+03  0.00000000000E+00 0. -1.
         25    2    1    2    0    0 -0.65368665639E+02  0.36908407968E+02 -0.71608266833E+02  0.16251238369E+03  0.12508892016E+03 0.  0.
          5    1    3    3  502    0 -0.73751197973E+02 -0.28383249877E+02 -0.30607744021E+02  0.84847831263E+02  0.41800000000E+01 0.  1.
         -5    1    3    3    0  502  0.83825323344E+01  0.65291657845E+02 -0.41000522813E+02  0.77664552425E+02  0.41800000000E+01 0.  1.
        -11    1    1    2    0    0  0.69330040810E+02  0.16904054307E+01 -0.13028189538E+02  0.70563770817E+02  0.00000000000E+00 0. -1.
         11    1    1    2    0    0 -0.39613751713E+01 -0.38598813399E+02  0.28156350348E+02  0.47941015362E+02  0.00000000000E+00 0.  1.
</event>
<event>
 7    1  0.3540420E-009  0.8491066E+02  0.7561462E-02  0.1315666E+00
          2   -1    0    0  501    0  0.00000000000E+00  0.00000000000E+00  0.62374234082E+03  0.62374234082E+03  0.00000000000E+00 0. -1.
         -2   -1    0    0    0  501 -0.00000000000E+00 -0.00000000000E+00 -0.25622130489E+02  0.25622130489E+02  0.00000000000E+00 0.  1.
         25    2    1    2    0    0 -0.31682711840E+02  0.18060599681E+02  0.19438752942E+03  0.23401556729E+03  0.12508714823E+03 0.  0.
          5    1    3    3  502    0  0.15543960191E+02 -0.13610476240E+02  0.17115378309E+03  0.17244694729E+03  0.41800000000E+01 0. -1.
         -5    1    3    3    0  502 -0.47226672031E+02  0.31671075920E+02  0.23233746326E+02  0.61568620006E+02  0.41800000000E+01 0. -1.
        -11    1    1    2    0    0 -0.77231214954E+01 -0.43919091683E+02  0.12630132418E+03  0.13394236712E+03  0.00000000000E+00 0.  1.
         11    1    1    2    0    0  0.39405833336E+02  0.25858492002E+02  0.27743135673E+03  0.28140653690E+03  0.00000000000E+00 0. -1.
</event>
<event>
 7    1  0.2728221E-009  0.8180352E+02  0.7561462E-02  0.1324010E+00
         -3   -1    0    0    0  501 -0.00000000000E+00  0.00000000000E+00  0.23261332746E+03  0.23261332746E+03  0.00000000000E+00 0.  1.
          3   -1    0    0  501    0  0.00000000000E+00 -0.00000000000E+00 -0.80110791456E+02  0.80110791456E+02  0.00000000000E+00 0. -1.
         25    2    1    2    0    0 -0.23637274090E+02  0.21720488664E+01  0.17602610535E+03  0.21724374384E+03  0.12508483501E+03 0.  0.
          5    1    3    3  502    0 -0.19173743292E+02  0.33684917318E+02  0.68699952340E+00  0.38990389263E+02  0.41800000000E+01 0.  1.
         -5    1    3    3    0  502 -0.44635307980E+01 -0.31512868451E+02  0.17533910583E+03  0.17825335458E+03  0.41800000000E+01 0.  1.
        -11    1    1    2    0    0 -0.34407032248E+02  0.58847605183E+00 -0.95887650419E+01  0.35723026008E+02  0.00000000000E+00 0. -1.
         11    1    1    2    0    0  0.58044306338E+02 -0.27605249183E+01 -0.13934804310E+02  0.59757349064E+02  0.00000000000E+00 0.  1.
</event>
<event>
 7    1  0.2728221E-009  0.1845767E+03  0.7561462E-02  0.1163446E+00
         -2   -1    0    0    0  501 -0.00000000000E+00  0.00000000000E+00  0.15532919136E+03  0.15532919136E+03  0.00000000000E+00 0.  1.
          2   -1    0    0  501    0  0.00000000000E+00 -0.00000000000E+00 -0.25904639410E+03  0.25904639410E+03  0.00000000000E+00 0. -1.
         25    2    1    2    0    0 -0.15813597534E+03  0.40902260007E+02 -0.92840505586E+01  0.20594574248E+03  0.12508986242E+03 0.  0.
          5    1    3    3  502    0 -0.16546418452E+03  0.15908342664E+01 -0.68862777712E+01  0.16566780114E+03  0.41800000000E+01 0.  1.
         -5    1    3    3    0  502  0.73282091884E+01  0.39311425741E+02 -0.23977727874E+01  0.40277941333E+02  0.41800000000E+01 0.  1.
        -11    1    1    2    0    0  0.99196646985E+02 -0.23062248385E+02 -0.10462997481E+03  0.14601121088E+03  0.00000000000E+00 0. -1.
         11    1    1    2    0    0  0.58939328351E+02 -0.17840011622E+02  0.10196822632E+02  0.62418632097E+02  0.00000000000E+00 0.  1.
</event>
<event>
 7    1  0.2728221E-009  0.1610718E+03  0.7561462E-02  0.1187492E+00
          3   -1    0    0  501    0  0.00000000000E+00  0.00000000000E+00  0.20422311088E+03  0.20422311088E+03  0.00000000000E+00 0. -1.
         -3   -1    0    0    0  501 -0.00000000000E+00 -0.00000000000E+00 -0.15248386966E+03  0.15248386966E+03  0.00000000000E+00 0.  1.
         25    2    1    2    0    0  0.29010175658E+01 -0.13333987571E+03  0.41559232026E+02  0.18751507715E+03  0.12508715375E+03 0.  0.
          5    1    3    3  502    0 -0.48920940071E+02 -0.11626135021E+02  0.13274547239E+02  0.52173857413E+02  0.41800000000E+01 0.  1.
         -5    1    3    3    0  502  0.51821957636E+02 -0.12171374069E+03  0.28284684787E+02  0.13534121974E+03  0.41800000000E+01 0.  1.
        -11    1    1    2    0    0  0.16100525797E+02  0.96991075659E+02  0.51484220895E+02  0.11098252425E+03  0.00000000000E+00 0. -1.
         11    1    1    2    0    0 -0.19001543363E+02  0.36348800055E+02 -0.41304211703E+02  0.58209379142E+02  0.00000000000E+00 0.  1.
</event>
<event>
 7    1  0.2728221E-009  0.1184820E+03  0.7561462E-02  0.1245623E+00
          1   -1    0    0  501    0  0.00000000000E+00  0.00000000000E+00  0.17728928024E+03  0.17728928024E+03  0.00000000000E+00 0. -1.
         -1   -1    0    0    0  501 -0.00000000000E+00 -0.00000000000E+00 -0.10552292738E+03  0.10552292738E+03  0.00000000000E+00 0.  1.
         25    2    1    2    0    0  0.23900437462E+02 -0.78701554860E+02  0.56928843163E+02  0.16016948307E+03  0.12509278346E+03 0.  0.
          5    1    3    3  502    0 -0.33218041077E+02 -0.71125885705E+02 -0.63732598456E+00  0.78614301846E+02  0.41800000000E+01 0. -1.
         -5    1    3    3    0  502  0.57118478539E+02 -0.75756691545E+01  0.57566169148E+02  0.81555181222E+02  0.41800000000E+01 0. -1.
        -11    1    1    2    0    0  0.19050396894E+02  0.17902791728E+02 -0.26725680260E+02  0.37385686550E+02  0.00000000000E+00 0.  1.
         11    1    1    2    0    0 -0.42950834356E+02  0.60798763132E+02  0.41563189957E+02  0.85257038007E+02  0.00000000000E+00 0. -1.
</event>
<event>
 7    1  0.2728221E-009  0.1362160E+03  0.7561462E-02  0.1218513E+00
          1   -1    0    0  501    0  0.00000000000E+00  0.00000000000E+00  0.82572888053E+03  0.82572888053E+03  0.00000000000E+00 0. -1.
         -1   -1    0    0    0  501 -0.00000000000E+00 -0.00000000000E+00 -0.37956195718E+02  0.37956195718E+02  0.00000000000E+00 0.  1.
         25    2    1    2    0    0  0.10164555782E+03  0.27817950625E+02  0.67880387085E+03  0.69823196689E+03  0.12509007440E+03 0.  0.
          5    1    3    3  502    0  0.12521870312E+03  0.45098948247E+02  0.58125948600E+03  0.59631677925E+03  0.41800000000E+01 0. -1.
         -5    1    3    3    0  502 -0.23573145300E+02 -0.17280997622E+02  0.97544384846E+02  0.10191518765E+03  0.41800000000E+01 0. -1.
        -11    1    1    2    0    0 -0.25489410977E+02  0.63643324629E+01 -0.22777044446E+01  0.26370489893E+02  0.00000000000E+00 0.  1.
         11    1    1    2    0    0 -0.76156146841E+02 -0.34182283088E+02  0.11124651841E+03  0.13908261947E+03  0.00000000000E+00 0. -1.
</event>
<event>
 7    1  0.2728221E-009  0.1656864E+03  0.7561462E-02  0.1182422E+00
         -4   -1    0    0    0  501 -0.00000000000E+00  0.00000000000E+00  0.32438179525E+03  0.32438179525E+03  0.00000000000E+00 0.  1.
          4   -1    0    0  501    0  0.00000000000E+00 -0.00000000000E+00 -0.14830071808E+03  0.14830071808E+03  0.00000000000E+00 0. -1.
         25    2    1    2    0    0 -0.50662099920E+02 -0.12031606475E+03 -0.57942540221E+02  0.18985991428E+03  0.12508735060E+03 0.  0.
          5    1    3    3  502    0  0.31429064876E+02 -0.82124835005E+02 -0.14021883791E+02  0.89142359564E+02  0.41800000000E+01 0. -1.
         -5    1    3    3    0  502 -0.82091164796E+02 -0.38191229741E+02 -0.43920656430E+02  0.10071755472E+03  0.41800000000E+01 0. -1.
        -11    1    1    2    0    0  0.39513293487E+02  0.86073333733E+01  0.31482873099E+02  0.51249954620E+02  0.00000000000E+00 0. -1.
         11    1    1    2    0    0  0.11148806433E+02  0.11170873137E+03  0.20254074429E+03  0.23157264443E+03  0.00000000000E+00 0.  1.
</event>
<event>
 7    1  0.2728221E-009  0.1471607E+03  0.7561462E-02  0.1204006E+00
         -2   -1    0    0    0  501 -0.00000000000E+00  0.00000000000E+00  0.20788372803E+02  0.20788372803E+02  0.00000000000E+00 0.  1.
          2   -1    0    0  501    0  0.00000000000E+00 -0.00000000000E+00 -0.11017036889E+04  0.11017036889E+04  0.00000000000E+00 0. -1.
         25    2    1    2    0    0  0.10047371685E+03 -0.27535204130E+02 -0.57342864757E+03  0.59608774439E+03  0.12508808858E+03 0.  0.
          5    1    3    3  502    0  0.19684350442E+02 -0.66918478493E+02 -0.19604433937E+03  0.20812595181E+03  0.41800000000E+01 0.  1.
         -5    1    3    3    0  502  0.80789366412E+02  0.39383274363E+02 -0.37738430820E+03  0.38796179258E+03  0.41800000000E+01 0.  1.
        -11    1    1    2    0    0 -0.88820204665E+02 -0.15253815402E+02 -0.40194211740E+03  0.41192131941E+03  0.00000000000E+00 0. -1.
         11    1    1    2    0    0 -0.11653512189E+02  0.42789019532E+02 -0.10554455114E+03  0.11448299793E+03  0.00000000000E+00 0.  1.
</event>
<event>
 7    1  0.4477158E-009  0.1124300E+03  0.7561462E-02  0.1256135E+00
         -2   -1    0    0    0  501 -0.00000000000E+00  0.00000000000E+00  0.91920043054E+01  0.91920043054E+01  0.00000000000E+00 0.  1.
          2   -1    0    0  501    0  0.00000000000E+00 -0.00000000000E+00 -0.16917108012E+04  0.16917108012E+04  0.00000000000E+00 0. -1.
         25    2    1    2    0    0  0.32748853001E+02  0.31627646929E+01 -0.12930172681E+04  0.12994704072E+04  0.12508874130E+03 0.  0.
          5    1    3    3  502    0  0.62068573580E+02  0.44777238177E+02 -0.87314015804E+03  0.87649798452E+03  0.41800000000E+01 0.  1.
         -5    1    3    3    0  502 -0.29319720579E+02 -0.41614473484E+02 -0.41987711006E+03  0.42297242270E+03  0.41800000000E+01 0.  1.
        -11    1    1    2    0    0  0.32160471305E+02 -0.29947284126E+00 -0.12663113852E+03  0.13065156272E+03  0.00000000000E+00 0.  1.
         11    1    1    2    0    0 -0.64909324305E+02 -0.28632918516E+01 -0.26287039025E+03  0.27078083553E+03  0.00000000000E+00 0. -1.
</event>
<event>
 7    1  0.2728221E-009  0.2167937E+03  0.7561462E-02  0.1136296E+00
         -1   -1    0    0    0  501 -0.00000000000E+00  0.00000000000E+00  0.15943651758E+03  0.15943651758E+03  0.00000000000E+00 0.  1.
          1   -1    0    0  501    0  0.00000000000E+00 -0.00000000000E+00 -0.38246605274E+03  0.38246605274E+03  0.00000000000E+00 0. -1.
         25    2    1    2    0    0  0.14402150799E+03  0.14957455334E+03 -0.30544180800E+02  0.24432082294E+03  0.12507987756E+03 0.  0.
          5    1    3    3  502    0  0.11568178441E+03  0.62109472988E+02 -0.64337887876E+02  0.14627610227E+03  0.41800000000E+01 0.  1.
         -5    1    3    3    0  502  0.28339723578E+02  0.87465080348E+02  0.33793707076E+02  0.98044720667E+02  0.41800000000E+01 0.  1.
        -11    1    1    2    0    0 -0.36319415154E+02 -0.59832666967E+02 -0.12204069934E+03  0.14068752698E+03  0.00000000000E+00 0.  1.
         11    1    1    2    0    0 -0.10770209284E+03 -0.89741886368E+02 -0.70444655020E+02  0.15689422039E+03  0.00000000000E+00 0. -1.
</event>
<event>
 7    1  0.2728221E-009  0.1158690E+03  0.7561462E-02  0.1250072E+00
          2   -1    0    0  501    0  0.00000000000E+00  0.00000000000E+00  0.59920717120E+02  0.59920717120E+02  0.00000000000E+00 0. -1.
         -2   -1    0    0    0  501 -0.00000000000E+00 -0.00000000000E+00 -0.28177513511E+03  0.28177513511E+03  0.00000000000E+00 0.  1.
         25    2    1    2    0    0  0.41335629494E+02  0.25382873238E+02 -0.19430735595E+03  0.23612933783E+03  0.12509512815E+03 0.  0.
          5    1    3    3  502    0 -0.21712863531E+02  0.57310025780E+02 -0.70473472230E+02  0.93487272855E+02  0.41800000000E+01 0. -1.
         -5    1    3    3    0  502  0.63048493025E+02 -0.31927152542E+02 -0.12383388372E+03  0.14264206498E+03  0.41800000000E+01 0. -1.
        -11    1    1    2    0    0  0.27348471436E+02 -0.44184438393E+01 -0.18204169784E+02  0.33148956746E+02  0.00000000000E+00 0.  1.
         11    1    1    2    0    0 -0.68684100930E+02 -0.20964429399E+02 -0.93428922505E+01  0.72417557652E+02  0.00000000000E+00 0. -1.
</event>
<event>
 7    1  0.2728221E-009  0.1192842E+03  0.7561462E-02  0.1244283E+00
         -2   -1    0    0    0  501 -0.00000000000E+00  0.00000000000E+00  0.36380704774E+03  0.36380704774E+03  0.00000000000E+00 0.  1.
          2   -1    0    0  501    0  0.00000000000E+00 -0.00000000000E+00 -0.40581739293E+02  0.40581739293E+02  0.00000000000E+00 0. -1.
         25    2    1    2    0    0  0.18623626923E+02 -0.48248070971E+02  0.20623418123E+03  0.24668516236E+03  0.12508523489E+03 0.  0.
          5    1    3    3  502    0 -0.48028073429E+02 -0.47644886662E+02  0.90570525793E+02  0.11312481427E+03  0.41800000000E+01 0. -1.
         -5    1    3    3    0  502  0.66651700352E+02 -0.60318430837E+00  0.11566365543E+03  0.13356034808E+03  0.41800000000E+01 0. -1.
        -11    1    1    2    0    0 -0.49772789555E+02  0.40586385741E+01  0.41977858793E+02  0.65237594652E+02  0.00000000000E+00 0.  1.
         11    1    1    2    0    0  0.31149162632E+02  0.44189432397E+02  0.75013268426E+02  0.92466030023E+02  0.00000000000E+00 0. -1.
</event>
<event>
 7    1  0.2728221E-009  0.1264520E+03  0.7561462E-02  0.1232817E+00
          2   -1    0    0  501    0  0.00000000000E+00  0.00000000000E+00  0.20514790936E+03  0.20514790936E+03  0.00000000000E+00 0. -1.
         -2   -1    0    0    0  501 -0.00000000000E+00 -0.00000000000E+00 -0.82883846255E+02  0.82883846255E+02  0.00000000000E+00 0.  1.
         25    2    1    2    0    0 -0.38154770275E+02 -0.54842558583E+02  0.36398845180E+02  0.14641017674E+03  0.12509025221E+03 0.  0.
          5    1    3    3  502    0  0.43136282669E+02 -0.22147684175E+01  0.21197979631E+02  0.48295660489E+02  0.41800000000E+01 0.  1.
         -5    1    3    3    0  502 -0.81291052945E+02 -0.52627790165E+02  0.15200865549E+02  0.98114516255E+02  0.41800000000E+01 0.  1.
        -11    1    1    2    0    0  0.47377962749E+02  0.75966358881E+02  0.69850841899E+02  0.11355482883E+03  0.00000000000E+00 0. -1.
         11    1    1    2    0    0 -0.92231924738E+01 -0.21123800298E+02  0.16014376021E+02  0.28066750040E+02  0.00000000000E+00 0.  1.
</event>
<event>
 7    1  0.2728221E-009  0.1220521E+03  0.7561462E-02  0.1239750E+00
          1   -1    0    0  501    0  0.00000000000E+00  0.00000000000E+00  0.19738641492E+03  0.19738641492E+03  0.00000000000E+00 0. -1.
         -1   -1    0    0    0  501 -0.00000000000E+00 -0.00000000000E+00 -0.10513949789E+03  0.10513949789E+03  0.00000000000E+00 0.  1.
         25    2    1    2    0    0 -0.34640310884E+02 -0.44392410823E+02 -0.28701091653E+02  0.14014944951E+03  0.12508988072E+03 0.  0.
          5    1    3    3  502    0 -0.17617908307E+01 -0.84265858178E+02 -0.25694610080E+02  0.88212947738E+02  0.41800000000E+01 0. -1.
         -5    1    3    3    0  502 -0.32878520053E+02  0.39873447355E+02 -0.30064815734E+01  0.51936501772E+02  0.41800000000E+01 0. -1.
        -11    1    1    2    0    0 -0.26547974900E+02  0.37986729079E+02  0.59548150152E+02  0.75457065567E+02  0.00000000000E+00 0. -1.
         11    1    1    2    0    0  0.61188285784E+02  0.64056817445E+01  0.61399858530E+02  0.86919397739E+02  0.00000000000E+00 0.  1.
</event>
<event>
 7    1  0.2728221E-009  0.1562918E+03  0.7561462E-02  0.1192948E+00
         -3   -1    0    0    0  501 -0.00000000000E+00  0.00000000000E+00  0.33969569777E+03  0.33969569777E+03  0.00000000000E+00 0.  1.
          3   -1    0    0  501    0  0.00000000000E+00 -0.00000000000E+00 -0.83976756740E+02  0.83976756740E+02  0.00000000000E+00 0. -1.
         25    2    1    2    0    0  0.12118914768E+03 -0.43611404470E+02  0.12735684664E+03  0.22012769847E+03  0.12509065965E+03 0.  0.
          5    1    3    3  502    0  0.15647739753E+01  0.25695840298E+02  0.61770842514E+02  0.67050981432E+02  0.41800000000E+01 0. -1.
         -5    1    3    3    0  502  0.11962437371E+03 -0.69307244768E+02  0.65586004123E+02  0.15307671704E+03  0.41800000000E+01 0. -1.
        -11    1    1    2    0    0 -0.27031668592E+01  0.28631871847E+02  0.75644410623E+00  0.28769139789E+02  0.00000000000E+00 0. -1.
         11    1    1    2    0    0 -0.11848598083E+03  0.14979532623E+02  0.12760565028E+03  0.17477561625E+03  0.00000000000E+00 0.  1.
</event>
<event>
 7    1  0.2728221E-009  0.9397397E+02  0.7561462E-02  0.1293504E+00
         -3   -1    0    0    0  501 -0.00000000000E+00  0.00000000000E+00  0.28488535635E+03  0.28488535635E+03  0.00000000000E+00 0.  1.
          3   -1    0    0  501    0  0.00000000000E+00 -0.00000000000E+00 -0.48079758618E+02  0.48079758618E+02  0.00000000000E+00 0. -1.
         25    2    1    2    0    0 -0.29348754356E+02  0.31353620725E+02  0.13813639382E+03  0.19123988386E+03  0.12508649394E+03 0.  0.
          5    1    3    3  502    0 -0.37539933142E+02 -0.30239423202E+02  0.11507122492E+03  0.12482999840E+03  0.41800000000E+01 0.  1.
         -5    1    3    3    0  502  0.81911787856E+01  0.61593043927E+02  0.23065168899E+02  0.66409885457E+02  0.41800000000E+01 0.  1.
        -11    1    1    2    0    0  0.43250742640E+02 -0.41605385123E+02  0.10689801143E+03  0.12259208644E+03  0.00000000000E+00 0.  1.
         11    1    1    2    0    0 -0.13901988284E+02  0.10251764398E+02 -0.82288075220E+01  0.19133144665E+02  0.00000000000E+00 0. -1.
</event>
<event>
 7    1  0.2728221E-009  0.8980401E+02  0.7561462E-02  0.1303327E+00
          1   -1    0    0  501    0  0.00000000000E+00  0.00000000000E+00  0.21728679095E+04  0.21728679095E+04  0.00000000000E+00 0. -1.
         -1   -1    0    0    0  501 -0.00000000000E+00 -0.00000000000E+00 -0.12407173011E+02  0.12407173011E+02  0.00000000000E+00 0.  1.
         25    2    1    2    0    0  0.56715341370E+02 -0.41658267956E+01  0.18577308961E+04  0.18628058335E+04  0.12508999550E+03 0.  0.
          5    1    3    3  502    0 -0.13921082729E+00 -0.44936204539E+02  0.28831798760E+03  0.29182874470E+03  0.41800000000E+01 0. -1.
         -5    1    3    3    0  502  0.56854552198E+02  0.40770377744E+02  0.15694129085E+04  0.15709770888E+04  0.41800000000E+01 0.  1.
        -11    1    1    2    0    0 -0.50448534756E+02  0.14335207635E+02  0.30569520192E+03  0.31016142460E+03  0.00000000000E+00 0. -1.
         11    1    1    2    0    0 -0.62668066145E+01 -0.10169380839E+02 -0.29653615484E+01  0.12307824378E+02  0.00000000000E+00 0.  1.
</event>
<event>
 7    1  0.2728221E-009  0.1081629E+03  0.7561462E-02  0.1264010E+00
          2   -1    0    0  501    0  0.00000000000E+00  0.00000000000E+00  0.13552868547E+04  0.13552868547E+04  0.00000000000E+00 0. -1.
         -2   -1    0    0    0  501 -0.00000000000E+00 -0.00000000000E+00 -0.15862490252E+02  0.15862490252E+02  0.00000000000E+00 0.  1.
         25    2    1    2    0    0 -0.22445554375E+02  0.85087969339E+02  0.93697967854E+03  0.94937963798E+03  0.12508802331E+03 0.  0.
          5    1    3    3  502    0 -0.23002658187E+02  0.50886551659E+02  0.12857854661E+03  0.14024435273E+03  0.41800000000E+01 0. -1.
         -5    1    3    3    0  502  0.55710381162E+00  0.34201417680E+02  0.80840113193E+03  0.80913528525E+03  0.41800000000E+01 0. -1.
        -11    1    1    2    0    0 -0.14522826814E+02  0.13959143677E+02  0.76532760759E+02  0.79139330679E+02  0.00000000000E+00 0. -1.
         11    1    1    2    0    0  0.36968381190E+02 -0.99047113016E+02  0.32591192516E+03  0.34263037630E+03  0.00000000000E+00 0.  1.
</event>
<event>
 7    1  0.2728221E-009  0.1087501E+03  0.7561462E-02  0.1262902E+00
         -2   -1    0    0    0  501 -0.00000000000E+00  0.00000000000E+00  0.15593813444E+03  0.15593813444E+03  0.00000000000E+00 0. -1.
          2   -1    0    0  501    0  0.00000000000E+00 -0.00000000000E+00 -0.15858180748E+03  0.15858180748E+03  0.00000000000E+00 0.  1.
         25    2    1    2    0    0  0.17034875224E+02  0.46746326813E+02 -0.10264252962E+03  0.16928289512E+03  0.12508318691E+03 0.  0.
          5    1    3    3  502    0  0.21357008805E+02 -0.36664907819E+02 -0.64616526771E+02  0.77415794399E+02  0.41800000000E+01 0.  1.
         -5    1    3    3    0  502 -0.43221335812E+01  0.83411234632E+02 -0.38026002853E+02  0.91867100719E+02  0.41800000000E+01 0.  1.
        -11    1    1    2    0    0  0.91652376362E+00 -0.65365534958E+02  0.32607320491E+02  0.73052929618E+02  0.00000000000E+00 0. -1.
         11    1    1    2    0    0 -0.17951398987E+02  0.18619208146E+02  0.67391536091E+02  0.72184117188E+02  0.00000000000E+00 0.  1.
</event>
<event>
 7    1  0.2728221E-009  0.1337520E+03  0.7561462E-02  0.1221992E+00
          1   -1    0    0  501    0  0.00000000000E+00  0.00000000000E+00  0.12780208540E+03  0.12780208540E+03  0.00000000000E+00 0. -1.
         -1   -1    0    0    0  501 -0.00000000000E+00 -0.00000000000E+00 -0.16138188802E+03  0.16138188802E+03  0.00000000000E+00 0.  1.
         25    2    1    2    0    0 -0.23803328179E+02 -0.72419589947E+02 -0.68011260066E+02  0.16150827459E+03  0.12509274889E+03 0.  0.
          5    1    3    3  502    0 -0.70639451457E+02 -0.67150943808E+02 -0.56789915410E+02  0.11287935262E+03  0.41800000000E+01 0. -1.
         -5    1    3    3    0  502  0.46836123278E+02 -0.52686461388E+01 -0.11221344656E+02  0.48628921968E+02  0.41800000000E+01 0. -1.
        -11    1    1    2    0    0  0.61239680267E+02  0.40329669068E+02  0.16118950292E+02  0.75077301528E+02  0.00000000000E+00 0. -1.
         11    1    1    2    0    0 -0.37436352087E+02  0.32089920879E+02  0.18312507153E+02  0.52598397294E+02  0.00000000000E+00 0.  1.
</event>
<event>
 7    1  0.2728221E-009  0.9460649E+02  0.7561462E-02  0.1292065E+00
         -2   -1    0    0    0  501 -0.00000000000E+00  0.00000000000E+00  0.75361730313E+02  0.75361730313E+02  0.00000000000E+00 0. -1.
          2   -1    0    0  501    0  0.00000000000E+00 -0.00000000000E+00 -0.15088244420E+03  0.15088244420E+03  0.00000000000E+00 0.  1.
         25    2    1    2    0    0  0.83315556060E+01  0.13548341543E+02 -0.34040352784E+02  0.13060526246E+03  0.12508403810E+03 0.  0.
          5    1    3    3  502    0  0.54410569384E+01 -0.51897417500E+02  0.75578490854E+01  0.52891781277E+02  0.41800000000E+01 0.  1.
         -5    1    3    3    0  502  0.28904986676E+01  0.65445759044E+02 -0.41598201870E+02  0.77713481187E+02  0.41800000000E+01 0.  1.
        -11    1    1    2    0    0 -0.34954598859E+02  0.92640004693E+01 -0.47878623433E+02  0.60000068899E+02  0.00000000000E+00 0.  1.
         11    1    1    2    0    0  0.26623043253E+02 -0.22812342013E+02  0.63982623316E+01  0.35638843149E+02  0.00000000000E+00 0. -1.
</event>
<event>
 7    1  0.2728221E-009  0.9541010E+02  0.7561462E-02  0.1290255E+00
         -2   -1    0    0    0  501 -0.00000000000E+00  0.00000000000E+00  0.12977631992E+02  0.12977631992E+02  0.00000000000E+00 0.  1.
          2   -1    0    0  501    0  0.00000000000E+00 -0.00000000000E+00 -0.14440571427E+04  0.14440571427E+04  0.00000000000E+00 0. -1.
         25    2    1    2    0    0  0.56434105619E+02 -0.50226893782E+02 -0.98963892685E+03  0.10003702637E+04  0.12509160582E+03 0.  0.
          5    1    3    3  502    0  0.46911012940E+02 -0.49381467541E+02 -0.98732753999E+03  0.98968293716E+03  0.41800000000E+01 0.  1.
         -5    1    3    3    0  502  0.95230926797E+01 -0.84542624122E+00 -0.23113868581E+01  0.10687326556E+02  0.41800000000E+01 0.  1.
        -11    1    1    2    0    0  0.86242202245E+00  0.54670798368E+02 -0.28029315887E+03  0.28557642563E+03  0.00000000000E+00 0.  1.
         11    1    1    2    0    0 -0.57296527642E+02 -0.44439045861E+01 -0.16114742496E+03  0.17108808532E+03  0.00000000000E+00 0. -1.
</event>
<event>
 7    1  0.2728221E-009  0.1328271E+03  0.7561462E-02  0.1223320E+00
         -1   -1    0    0    0  501 -0.00000000000E+00  0.00000000000E+00  0.57684200305E+02  0.57684200305E+02  0.00000000000E+00 0.  1.
          1   -1    0    0  501    0  0.00000000000E+00 -0.00000000000E+00 -0.45431390897E+03  0.45431390897E+03  0.00000000000E+00 0. -1.
         25    2    1    2    0    0 -0.10404351642E+03  0.15487537315E+02 -0.30380323875E+03  0.34497504518E+03  0.12508579778E+03 0.  0.
          5    1    3    3  502    0 -0.10117391015E+03  0.34994846687E+02 -0.30645790104E+03  0.32464552500E+03  0.41800000000E+01 0. -1.
         -5    1    3    3    0  502 -0.28696062654E+01 -0.19507309373E+02  0.26546622944E+01  0.20329520186E+02  0.41800000000E+01 0. -1.
        -11    1    1    2    0    0 -0.13713577089E+02  0.11097500408E+02 -0.73818610057E+01  0.19123508668E+02  0.00000000000E+00 0.  1.
         11    1    1    2    0    0  0.11775709351E+03 -0.26585037722E+02 -0.85444608909E+02  0.14789955542E+03  0.00000000000E+00 0. -1.
</event>
<event>
 7    1  0.2728221E-009  0.1621333E+03  0.7561462E-02  0.1186309E+00
         -2   -1    0    0    0  501 -0.00000000000E+00  0.00000000000E+00  0.26359634480E+02  0.26359634480E+02  0.00000000000E+00 0. -1.
          2   -1    0    0  501    0  0.00000000000E+00 -0.00000000000E+00 -0.14491740377E+04  0.14491740377E+04  0.00000000000E+00 0.  1.
         25    2    1    2    0    0  0.84801938649E+02  0.11782294286E+03 -0.47254275135E+03  0.50992325110E+03  0.12510577721E+03 0.  0.
          5    1    3    3  502    0  0.57342771924E+02  0.37474623956E+02 -0.68249565782E+02  0.96788514619E+02  0.41800000000E+01 0.  1.
         -5    1    3    3    0  502  0.27459166725E+02  0.80348318901E+02 -0.40429318557E+03  0.41313473648E+03  0.41800000000E+01 0.  1.
        -11    1    1    2    0    0 -0.76915698196E+02 -0.13293173530E+03 -0.88003286358E+03  0.89333348300E+03  0.00000000000E+00 0.  1.
         11    1    1    2    0    0 -0.78862404538E+01  0.15108792442E+02 -0.70238788271E+02  0.72276938060E+02  0.00000000000E+00 0. -1.
</event>
<event>
 7    1  0.2728221E-009  0.1259663E+03  0.7561462E-02  0.1233567E+00
          1   -1    0    0  501    0  0.00000000000E+00  0.00000000000E+00  0.10585112613E+04  0.10585112613E+04  0.00000000000E+00 0. -1.
         -1   -1    0    0    0  501 -0.00000000000E+00 -0.00000000000E+00 -0.23319686940E+02  0.23319686940E+02  0.00000000000E+00 0.  1.
         25    2    1    2    0    0 -0.10616135120E+03 -0.37637014503E+02  0.61999177429E+03  0.64243595145E+03  0.12508946470E+03 0.  0.
          5    1    3    3  502    0 -0.63905465785E+01  0.16166189975E+02  0.72656063237E+01  0.19298865747E+02  0.41800000000E+01 0. -1.
         -5    1    3    3    0  502 -0.99770804624E+02 -0.53803204478E+02  0.61272616796E+03  0.62313708570E+03  0.41800000000E+01 0. -1.
        -11    1    1    2    0    0  0.61373532898E+02 -0.11356408526E+01  0.32977841663E+03  0.33544269898E+03  0.00000000000E+00 0.  1.
         11    1    1    2    0    0  0.44787818304E+02  0.38772655355E+02  0.85421383423E+02  0.10395229780E+03  0.00000000000E+00 0. -1.
</event>
<event>
 7    1  0.2728221E-009  0.1338018E+03  0.7561462E-02  0.1221921E+00
         -2   -1    0    0    0  501 -0.00000000000E+00  0.00000000000E+00  0.27262476259E+02  0.27262476259E+02  0.00000000000E+00 0. -1.
          2   -1    0    0  501    0  0.00000000000E+00 -0.00000000000E+00 -0.12114071519E+04  0.12114071519E+04  0.00000000000E+00 0.  1.
         25    2    1    2    0    0 -0.84974786082E+02 -0.33155222559E+01 -0.10222634590E+04  0.10333932418E+04  0.12508919022E+03 0.  0.
          5    1    3    3  502    0 -0.16532317818E+02  0.52910529627E+02 -0.55602965565E+03  0.55880165716E+03  0.41800000000E+01 0.  1.
         -5    1    3    3    0  502 -0.68442468264E+02 -0.56226051882E+02 -0.46623380337E+03  0.47459158460E+03  0.41800000000E+01 0.  1.
        -11    1    1    2    0    0  0.91282503451E+02  0.29869578909E+02 -0.14232398683E+03  0.17169975075E+03  0.00000000000E+00 0.  1.
         11    1    1    2    0    0 -0.63077173690E+01 -0.26554056653E+02 -0.19557229748E+02  0.33576635605E+02  0.00000000000E+00 0. -1.
</event>
<event>
 7    1  0.2728221E-009  0.1305945E+03  0.7561462E-02  0.1226576E+00
         -2   -1    0    0    0  501 -0.00000000000E+00  0.00000000000E+00  0.60641049527E+02  0.60641049527E+02  0.00000000000E+00 0.  1.
          2   -1    0    0  501    0  0.00000000000E+00 -0.00000000000E+00 -0.42107127894E+03  0.42107127894E+03  0.00000000000E+00 0. -1.
         25    2    1    2    0    0  0.64063967610E+02 -0.80887963882E+02 -0.27223407016E+03  0.31686824515E+03  0.12508813365E+03 0.  0.
          5    1    3    3  502    0  0.85654691081E+02 -0.61182420874E+02 -0.11130443600E+03  0.15325196443E+03  0.41800000000E+01 0.  1.
         -5    1    3    3    0  502 -0.21590723472E+02 -0.19705543008E+02 -0.16092963416E+03  0.16361628072E+03  0.41800000000E+01 0.  1.
        -11    1    1    2    0    0 -0.32596715567E+02  0.88182253920E+02 -0.92936779853E+02  0.13219644784E+03  0.00000000000E+00 0. -1.
         11    1    1    2    0    0 -0.31467252043E+02 -0.72942900381E+01  0.47406206053E+01  0.32647635474E+02  0.00000000000E+00 0.  1.
</event>
<event>
 7    1  0.2728221E-009  0.2413374E+03  0.7561462E-02  0.1118905E+00
          2   -1    0    0  501    0  0.00000000000E+00  0.00000000000E+00  0.14135265867E+04  0.14135265867E+04  0.00000000000E+00 0. -1.
         -2   -1    0    0    0  501 -0.00000000000E+00 -0.00000000000E+00 -0.51887571843E+02  0.51887571843E+02  0.00000000000E+00 0.  1.
         25    2    1    2    0    0  0.22965516683E+03 -0.73382568695E+02  0.53980794289E+03  0.60428893598E+03  0.12508399538E+03 0.  0.
          5    1    3    3  502    0  0.20862983531E+03 -0.66390128699E+02  0.34802352932E+03  0.41118354384E+03  0.41800000000E+01 0.  1.
         -5    1    3    3    0  502  0.21025331520E+02 -0.69924399957E+01  0.19178441357E+03  0.19310539214E+03  0.41800000000E+01 0.  1.
        -11    1    1    2    0    0 -0.65639935499E+02  0.23396003720E+02  0.12107112246E+03  0.13969320247E+03  0.00000000000E+00 0.  1.
         11    1    1    2    0    0 -0.16401523133E+03  0.49986564975E+02  0.70075994953E+03  0.72143202012E+03  0.00000000000E+00 0. -1.
</event>
<event>
 7    1  0.2728221E-009  0.1413438E+03  0.7561462E-02  0.1211532E+00
         -1   -1    0    0    0  501 -0.00000000000E+00  0.00000000000E+00  0.80777340310E+02  0.80777340310E+02  0.00000000000E+00 0.  1.
          1   -1    0    0  501    0  0.00000000000E+00 -0.00000000000E+00 -0.32773059868E+03  0.32773059868E+03  0.00000000000E+00 0. -1.
         25    2    1    2    0    0 -0.20573069921E+02  0.11372809022E+03 -0.18215024797E+03  0.24936495021E+03  0.12508731290E+03 0.  0.
          5    1    3    3  502    0  0.23911082304E+02  0.13793304083E+02 -0.12057943692E+03  0.12376941505E+03  0.41800000000E+01 0. -1.
         -5    1    3    3    0  502 -0.44484152225E+02  0.99934786134E+02 -0.61570811048E+02  0.12559553516E+03  0.41800000000E+01 0. -1.
        -11    1    1    2    0    0 -0.32393834090E+02 -0.68014172643E+02 -0.31493627130E+02  0.81652536502E+02  0.00000000000E+00 0. -1.
         11    1    1    2    0    0  0.52966904010E+02 -0.45713917574E+02 -0.33309383274E+02  0.77490452280E+02  0.00000000000E+00 0.  1.
</event>
<event>
 7    1  0.2728221E-009  0.1366365E+03  0.7561462E-02  0.1217928E+00
         -2   -1    0    0    0  501 -0.00000000000E+00  0.00000000000E+00  0.30398863878E+02  0.30398863878E+02  0.00000000000E+00 0.  1.
          2   -1    0    0  501    0  0.00000000000E+00 -0.00000000000E+00 -0.84359702592E+03  0.84359702592E+03  0.00000000000E+00 0. -1.
         25    2    1    2    0    0  0.60856198147E+01 -0.10998737830E+03 -0.55203023113E+03  0.57664596863E+03  0.12509571897E+03 0.  0.
          5    1    3    3  502    0 -0.20867964456E+01  0.14106200020E+02 -0.24371737583E+03  0.24416996392E+03  0.41800000000E+01 0. -1.
         -5    1    3    3    0  502  0.81724162602E+01 -0.12409357832E+03 -0.30831285530E+03  0.33247600471E+03  0.41800000000E+01 0. -1.
        -11    1    1    2    0    0 -0.24482616220E+02  0.11274990204E+03 -0.17796851467E+03  0.21209604221E+03  0.00000000000E+00 0.  1.
         11    1    1    2    0    0  0.18396996405E+02 -0.27625237417E+01 -0.83199416239E+02  0.85253878954E+02  0.00000000000E+00 0. -1.
</event>
<event>
 7    1  0.2728221E-009  0.1597370E+03  0.7561462E-02  0.1188994E+00
          2   -1    0    0  501    0  0.00000000000E+00  0.00000000000E+00  0.18484323928E+03  0.18484323928E+03  0.00000000000E+00 0.  1.
         -2   -1    0    0    0  501 -0.00000000000E+00 -0.00000000000E+00 -0.15318963888E+03  0.15318963888E+03  0.00000000000E+00 0. -1.
         25    2    1    2    0    0 -0.13220603355E+02 -0.12723329883E+03  0.28926537208E+02  0.18124126748E+03  0.12509418770E+03 0.  0.
          5    1    3    3  502    0 -0.24209187431E+02 -0.14729325686E+03  0.73305566240E+01  0.14950785175E+03  0.41800000000E+01 0. -1.
         -5    1    3    3    0  502  0.10988584076E+02  0.20059958034E+02  0.21595980584E+02  0.31733415727E+02  0.41800000000E+01 0. -1.
        -11    1    1    2    0    0  0.80222975783E+01  0.13625041295E+03  0.18664417283E+02  0.13775664325E+03  0.00000000000E+00 0.  1.
         11    1    1    2    0    0  0.51983057769E+01 -0.90171141152E+01 -0.15937354090E+02  0.19034967437E+02  0.00000000000E+00 0. -1.
</event>
<event>
 7    1  0.2728221E-009  0.8167401E+02  0.7561462E-02  0.1324367E+00
          1   -1    0    0  501    0  0.00000000000E+00  0.00000000000E+00  0.10475482818E+03  0.10475482818E+03  0.00000000000E+00 0. -1.
         -1   -1    0    0    0  501 -0.00000000000E+00 -0.00000000000E+00 -0.17179414453E+03  0.17179414453E+03  0.00000000000E+00 0.  1.
         25    2    1    2    0    0 -0.61394675508E+02 -0.45597385991E+02 -0.16631740366E+02  0.14755409720E+03  0.12508864466E+03 0.  0.
          5    1    3    3  502    0 -0.21165660513E+02  0.81953287933E+00 -0.65489984104E+02  0.68956995563E+02  0.41800000000E+01 0.  1.
         -5    1    3    3    0  502 -0.40229014995E+02 -0.46416918871E+02  0.48858243739E+02  0.78597101640E+02  0.41800000000E+01 0.  1.
        -11    1    1    2    0    0  0.20961420864E+02  0.30549489570E+02 -0.71833230440E+02  0.80824906267E+02  0.00000000000E+00 0.  1.
         11    1    1    2    0    0  0.40433254644E+02  0.15047896422E+02  0.21425654450E+02  0.48169969238E+02  0.00000000000E+00 0. -1.
</event>
<event>
 7    1  0.2728221E-009  0.1272150E+03  0.7561462E-02  0.1231648E+00
          2   -1    0    0  501    0  0.00000000000E+00  0.00000000000E+00  0.62922002391E+03  0.62922002391E+03  0.00000000000E+00 0. -1.
         -2   -1    0    0    0  501 -0.00000000000E+00 -0.00000000000E+00 -0.41434733487E+02  0.41434733487E+02  0.00000000000E+00 0.  1.
         25    2    1    2    0    0 -0.60847602536E+02  0.83480386885E+02  0.35012368033E+03  0.38588332676E+03  0.12509174476E+03 0.  0.
          5    1    3    3  502    0 -0.88921035344E+02  0.43270399188E+02  0.29883074435E+03  0.31479606755E+03  0.41800000000E+01 0.  1.
         -5    1    3    3    0  502  0.28073432808E+02  0.40209987696E+02  0.51292935984E+02  0.71087259210E+02  0.41800000000E+01 0.  1.
        -11    1    1    2    0    0  0.28502461422E+02 -0.59479800302E+02  0.28642490599E+02  0.71907087403E+02  0.00000000000E+00 0.  1.
         11    1    1    2    0    0  0.32345141114E+02 -0.24000586582E+02  0.20901911949E+03  0.21286434324E+03  0.00000000000E+00 0. -1.
</event>
<event>
 7    1  0.2728221E-009  0.1159728E+03  0.7561462E-02  0.1249893E+00
          1   -1    0    0  501    0  0.00000000000E+00  0.00000000000E+00  0.41263127007E+03  0.41263127007E+03  0.00000000000E+00 0. -1.
         -1   -1    0    0    0  501 -0.00000000000E+00 -0.00000000000E+00 -0.43115471026E+02  0.43115471026E+02  0.00000000000E+00 0.  1.
         25    2    1    2    0    0 -0.76455597840E+02 -0.49757381200E+01  0.17462033734E+03  0.22805752467E+03  0.12509099062E+03 0.  0.
          5    1    3    3  502    0 -0.99724881222E+02  0.43263334187E+01  0.74127863285E+02  0.12440330225E+03  0.41800000000E+01 0.  1.
         -5    1    3    3    0  502  0.23269283382E+02 -0.93020715388E+01  0.10049247405E+03  0.10365422242E+03  0.41800000000E+01 0.  1.
        -11    1    1    2    0    0  0.84732044521E+02  0.22141060502E+02  0.10960669947E+03  0.14029745007E+03  0.00000000000E+00 0.  1.
         11    1    1    2    0    0 -0.82764466810E+01 -0.17165322382E+02  0.85288762234E+02  0.87391766349E+02  0.00000000000E+00 0. -1.
</event>
<event>
 7    1  0.2728221E-009  0.1365250E+03  0.7561462E-02  0.1218083E+00
         -2   -1    0    0    0  501 -0.00000000000E+00  0.00000000000E+00  0.37116075704E+02  0.37116075704E+02  0.00000000000E+00 0.  1.
          2   -1    0    0  501    0  0.00000000000E+00 -0.00000000000E+00 -0.58420758383E+03  0.58420758383E+03  0.00000000000E+00 0. -1.
         25    2    1    2    0    0  0.15750853836E+02  0.84826249823E+02 -0.39063953849E+03  0.41915386677E+03  0.12508850043E+03 0.  0.
          5    1    3    3  502    0  0.56220704498E+02  0.94573251645E+02 -0.28014247702E+03  0.30100190593E+03  0.41800000000E+01 0. -1.
         -5    1    3    3    0  502 -0.40469850662E+02 -0.97470018222E+01 -0.11049706146E+03  0.11815196084E+03  0.41800000000E+01 0. -1.
        -11    1    1    2    0    0 -0.11077262055E+01  0.17604787739E+02 -0.52974393697E+02  0.55834057673E+02  0.00000000000E+00 0.  1.
         11    1    1    2    0    0 -0.14643127631E+02 -0.10243103756E+03 -0.10347757594E+03  0.14633573509E+03  0.00000000000E+00 0. -1.
</event>
<event>
 7    1  0.2728221E-009  0.1031663E+03  0.7561462E-02  0.1273775E+00
         -1   -1    0    0    0  501 -0.00000000000E+00  0.00000000000E+00  0.41969244217E+03  0.41969244217E+03  0.00000000000E+00 0.  1.
          1   -1    0    0  501    0  0.00000000000E+00 -0.00000000000E+00 -0.28762991917E+02  0.28762991917E+02  0.00000000000E+00 0. -1.
         25    2    1    2    0    0 -0.10826239450E+02  0.32324717000E+01  0.26263229009E+03  0.29112087240E+03  0.12509191108E+03 0.  0.
          5    1    3    3  502    0  0.65822750906E+00 -0.60409241770E+02  0.13585964905E+03  0.14874483653E+03  0.41800000000E+01 0. -1.
         -5    1    3    3    0  502 -0.11484466959E+02  0.63641713470E+02  0.12677264104E+03  0.14237603587E+03  0.41800000000E+01 0. -1.
        -11    1    1    2    0    0  0.10969776191E+02  0.38095053344E+02  0.99095715244E+02  0.10673111008E+03  0.00000000000E+00 0.  1.
         11    1    1    2    0    0 -0.14353674117E+00 -0.41327525044E+02  0.29201444924E+02  0.50603451609E+02  0.00000000000E+00 0. -1.
</event>
<event>
 7    1  0.2728221E-009  0.9784769E+02  0.7561462E-02  0.1284888E+00
          2   -1    0    0  501    0  0.00000000000E+00  0.00000000000E+00  0.21268701479E+03  0.21268701479E+03  0.00000000000E+00 0. -1.
         -2   -1    0    0    0  501 -0.00000000000E+00 -0.00000000000E+00 -0.71074048224E+02  0.71074048224E+02  0.00000000000E+00 0.  1.
         25    2    1    2    0    0 -0.59752770356E+02 -0.80943864110E+01  0.10420559123E+03  0.17362801596E+03  0.12510783359E+03 0.  0.
          5    1    3    3  502    0 -0.34710432073E+02  0.38816332590E+02 -0.46092438195E+01  0.52442723986E+02  0.41800000000E+01 0. -1.
         -5    1    3    3    0  502 -0.25042338282E+02 -0.46910719001E+02  0.10881483505E+03  0.12118529197E+03  0.41800000000E+01 0. -1.
        -11    1    1    2    0    0  0.50633691199E+02 -0.24513943974E+02  0.48734157564E+02  0.74429310404E+02  0.00000000000E+00 0. -1.
         11    1    1    2    0    0  0.91190791563E+01  0.32608330385E+02 -0.11326782229E+02  0.35703736651E+02  0.00000000000E+00 0.  1.
</event>
<event>
 7    1  0.2728221E-009  0.1173389E+03  0.7561462E-02  0.1247553E+00
         -1   -1    0    0    0  501 -0.00000000000E+00  0.00000000000E+00  0.80730869319E+02  0.80730869319E+02  0.00000000000E+00 0.  1.
          1   -1    0    0  501    0  0.00000000000E+00 -0.00000000000E+00 -0.19032921372E+03  0.19032921372E+03  0.00000000000E+00 0. -1.
         25    2    1    2    0    0 -0.25101601320E+02 -0.33578431747E+02 -0.10017727061E+03  0.16565335592E+03  0.12509175557E+03 0.  0.
          5    1    3    3  502    0 -0.41745835098E+02  0.38873050344E+02 -0.38215184530E+02  0.68787364535E+02  0.41800000000E+01 0. -1.
         -5    1    3    3    0  502  0.16644233778E+02 -0.72451482090E+02 -0.61962086080E+02  0.96865991383E+02  0.41800000000E+01 0. -1.
        -11    1    1    2    0    0  0.53665508696E+02  0.47118900287E+02 -0.15839324095E+02  0.73150951980E+02  0.00000000000E+00 0. -1.
         11    1    1    2    0    0 -0.28563907376E+02 -0.13540468540E+02  0.64182503046E+01  0.32255775139E+02  0.00000000000E+00 0.  1.
</event>
<event>
 7    1  0.2728221E-009  0.1498922E+03  0.7561462E-02  0.1200605E+00
          2   -1    0    0  501    0  0.00000000000E+00  0.00000000000E+00  0.10300250585E+04  0.10300250585E+04  0.00000000000E+00 0. -1.
         -2   -1    0    0    0  501 -0.00000000000E+00 -0.00000000000E+00 -0.26331803497E+02  0.26331803497E+02  0.00000000000E+00 0.  1.
         25    2    1    2    0    0  0.87402064522E+02 -0.81356098012E+02  0.64885581513E+03  0.67150522043E+03  0.12508979443E+03 0.  0.
          5    1    3    3  502    0  0.46175378277E+02 -0.10874270688E+03  0.37533721838E+03  0.39351320405E+03  0.41800000000E+01 0.  1.
         -5    1    3    3    0  502  0.41226686245E+02  0.27386608871E+02  0.27351859674E+03  0.27799201638E+03  0.41800000000E+01 0.  1.
        -11    1    1    2    0    0 -0.32739433480E+02 -0.13441177726E+01  0.18760312445E+03  0.19044319221E+03  0.00000000000E+00 0. -1.
         11    1    1    2    0    0 -0.54662631041E+02  0.82700215785E+02  0.16723431539E+03  0.19440844932E+03  0.00000000000E+00 0.  1.
</event>
<event>
 7    1  0.2728221E-009  0.8750262E+02  0.7561462E-02  0.1309015E+00
          2   -1    0    0  501    0  0.00000000000E+00  0.00000000000E+00  0.76944755963E+03  0.76944755963E+03  0.00000000000E+00 0. -1.
         -2   -1    0    0    0  501 -0.00000000000E+00 -0.00000000000E+00 -0.21506108324E+02  0.21506108324E+02  0.00000000000E+00 0.  1.
         25    2    1    2    0    0 -0.24831351770E+02  0.66409276706E+01  0.62101475496E+03  0.63400902365E+03  0.12508964084E+03 0.  0.
          5    1    3    3  502    0 -0.40434213208E+02  0.51275786988E+02  0.49579366531E+03  0.50009295425E+03  0.41800000000E+01 0. -1.
         -5    1    3    3    0  502  0.15602861438E+02 -0.44634859317E+02  0.12522108965E+03  0.13391606940E+03  0.41800000000E+01 0. -1.
        -11    1    1    2    0    0  0.33947698042E+02 -0.24626531738E+02  0.17115329016E+02  0.45297315098E+02  0.00000000000E+00 0.  1.
         11    1    1    2    0    0 -0.91163462718E+01  0.17985604067E+02  0.10981136733E+03  0.11164732920E+03  0.00000000000E+00 0. -1.
</event>
<event>
 7    1  0.5113519E-009  0.1127183E+03  0.7561462E-02  0.1255617E+00
         -3   -1    0    0    0  501 -0.00000000000E+00  0.00000000000E+00  0.38712702119E+02  0.38712702119E+02  0.00000000000E+00 0.  1.
          3   -1    0    0  501    0  0.00000000000E+00 -0.00000000000E+00 -0.42173875966E+03  0.42173875966E+03  0.00000000000E+00 0. -1.
         25    2    1    2    0    0 -0.66001169734E+02  0.12602436299E+02 -0.23219032404E+03  0.27217032520E+03  0.12509741618E+03 0.  0.
          5    1    3    3  502    0 -0.88090092126E+02  0.28253759945E+02 -0.96511053782E+02  0.13375348662E+03  0.41800000000E+01 0. -1.
         -5    1    3    3    0  502  0.22088922392E+02 -0.15651323645E+02 -0.13567927026E+03  0.13841683858E+03  0.41800000000E+01 0. -1.
        -11    1    1    2    0    0  0.55604163253E+02  0.28891924215E+02 -0.55175154612E+02  0.83491699841E+02  0.00000000000E+00 0.  1.
         11    1    1    2    0    0  0.10397006482E+02 -0.41494360515E+02 -0.95660578890E+02  0.10478943674E+03  0.00000000000E+00 0. -1.
</event>
<event>
 7    1  0.2728221E-009  0.1350582E+03  0.7561462E-02  0.1220138E+00
          2   -1    0    0  501    0  0.00000000000E+00  0.00000000000E+00  0.58495995046E+03  0.58495995046E+03  0.00000000000E+00 0. -1.
         -2   -1    0    0    0  501 -0.00000000000E+00 -0.00000000000E+00 -0.52270811422E+02  0.52270811422E+02  0.00000000000E+00 0.  1.
         25    2    1    2    0    0 -0.17153175470E+02  0.10864461441E+03  0.42459294138E+03  0.45609715425E+03  0.12509022575E+03 0.  0.
          5    1    3    3  502    0 -0.63961104793E+02  0.84905276107E+02  0.34187682765E+03  0.35804631896E+03  0.41800000000E+01 0. -1.
         -5    1    3    3    0  502  0.46807929324E+02  0.23739338308E+02  0.82716113731E+02  0.98050835292E+02  0.41800000000E+01 0. -1.
        -11    1    1    2    0    0  0.14374769420E+02 -0.42210313456E+02 -0.99144323545E+01  0.45679760582E+02  0.00000000000E+00 0.  1.
         11    1    1    2    0    0  0.27784060500E+01 -0.66434300959E+02  0.11801063001E+03  0.13545384705E+03  0.00000000000E+00 0. -1.
</event>
<event>
 7    1  0.2728221E-009  0.1086424E+03  0.7561462E-02  0.1263105E+00
          1   -1    0    0  501    0  0.00000000000E+00  0.00000000000E+00  0.36808541239E+02  0.36808541239E+02  0.00000000000E+00 0. -1.
         -1   -1    0    0    0  501 -0.00000000000E+00 -0.00000000000E+00 -0.46125973517E+03  0.46125973517E+03  0.00000000000E+00 0.  1.
         25    2    1    2    0    0  0.60016024344E+02  0.10482472675E+02 -0.15939055550E+03  0.21157675819E+03  0.12509024747E+03 0.  0.
          5    1    3    3  502    0  0.60249844713E+02  0.60622850635E+02 -0.12140968248E+03  0.14853604682E+03  0.41800000000E+01 0.  1.
         -5    1    3    3    0  502 -0.23382036877E+00 -0.50140377960E+02 -0.37980873021E+02  0.63040711365E+02  0.41800000000E+01 0.  1.
        -11    1    1    2    0    0 -0.69997426303E+02 -0.54233832944E+01 -0.26614447147E+03  0.27524885553E+03  0.00000000000E+00 0.  1.
         11    1    1    2    0    0  0.99814019588E+01 -0.50590893802E+01  0.10838330346E+01  0.11242662695E+02  0.00000000000E+00 0. -1.
</event>
<event>
 7    1  0.2728221E-009  0.1195827E+03  0.7561462E-02  0.1243787E+00
          1   -1    0    0  501    0  0.00000000000E+00  0.00000000000E+00  0.74839955103E+03  0.74839955103E+03  0.00000000000E+00 0. -1.
         -1   -1    0    0    0  501 -0.00000000000E+00 -0.00000000000E+00 -0.20336648724E+02  0.20336648724E+02  0.00000000000E+00 0.  1.
         25    2    1    2    0    0  0.38706122053E+02  0.43911976202E+02  0.46125806036E+03  0.48149130046E+03  0.12509375940E+03 0.  0.
          5    1    3    3  502    0  0.82440139432E+02  0.11504070723E+02  0.26673247541E+03  0.27945018531E+03  0.41800000000E+01 0.  1.
         -5    1    3    3    0  502 -0.43734017379E+02  0.32407905479E+02  0.19452558494E+03  0.20204111515E+03  0.41800000000E+01 0.  1.
        -11    1    1    2    0    0 -0.17522469779E+02 -0.67375668362E+02  0.13733988585E+03  0.15397649782E+03  0.00000000000E+00 0.  1.
         11    1    1    2    0    0 -0.21183652274E+02  0.23463692159E+02  0.12946495610E+03  0.13326840148E+03  0.00000000000E+00 0. -1.
</event>
<event>
 7    1  0.2728221E-009  0.1818997E+03  0.7561462E-02  0.1165977E+00
         -2   -1    0    0    0  501 -0.00000000000E+00  0.00000000000E+00  0.10740123891E+03  0.10740123891E+03  0.00000000000E+00 0.  1.
          2   -1    0    0  501    0  0.00000000000E+00 -0.00000000000E+00 -0.37072474985E+03  0.37072474985E+03  0.00000000000E+00 0. -1.
         25    2    1    2    0    0 -0.10789115303E+03 -0.12588043030E+03 -0.10915605947E+03  0.23462867794E+03  0.12509671282E+03 0.  0.
          5    1    3    3  502    0 -0.11382444558E+03 -0.10103789249E+03 -0.13092710932E+03  0.20080846717E+03  0.41800000000E+01 0. -1.
         -5    1    3    3    0  502  0.59332925558E+01 -0.24842537809E+02  0.21771049846E+02  0.33820210773E+02  0.41800000000E+01 0. -1.
        -11    1    1    2    0    0  0.98560654524E+02  0.52463436980E+02 -0.71710159554E+02  0.13269876346E+03  0.00000000000E+00 0. -1.
         11    1    1    2    0    0  0.93304985025E+01  0.73416993318E+02 -0.82457291912E+02  0.11079854737E+03  0.00000000000E+00 0.  1.
</event>
<event>
 7    1  0.2728221E-009  0.1021752E+03  0.7561462E-02  0.1275787E+00
          1   -1    0    0  501    0  0.00000000000E+00  0.00000000000E+00  0.80421548982E+03  0.80421548982E+03  0.00000000000E+00 0. -1.
         -1   -1    0    0    0  501 -0.00000000000E+00 -0.00000000000E+00 -0.22642808477E+02  0.22642808477E+02  0.00000000000E+00 0.  1.
         25    2    1    2    0    0 -0.40527544641E+02  0.52279326048E+02  0.57503264345E+03  0.59218155739E+03  0.12506336823E+03 0.  0.
          5    1    3    3  502    0  0.18022546967E+02  0.55149163297E+01  0.91858287009E+01  0.21379390782E+02  0.41800000000E+01 0. -1.
         -5    1    3    3    0  502 -0.58550091608E+02  0.46764409718E+02  0.56584681475E+03  0.57080216661E+03  0.41800000000E+01 0. -1.
        -11    1    1    2    0    0  0.66355407952E+02 -0.51770782765E+02  0.14070359132E+03  0.16395351391E+03  0.00000000000E+00 0. -1.
         11    1    1    2    0    0 -0.25827863311E+02 -0.50854328279E+00  0.65836446568E+02  0.70723226992E+02  0.00000000000E+00 0.  1.
</event>
<event>
 7    1  0.2728221E-009  0.2547781E+03  0.7561462E-02  0.1110322E+00
         -2   -1    0    0    0  501 -0.00000000000E+00  0.00000000000E+00  0.92117639096E+02  0.92117639096E+02  0.00000000000E+00 0. -1.
          2   -1    0    0  501    0  0.00000000000E+00 -0.00000000000E+00 -0.14532214909E+04  0.14532214909E+04  0.00000000000E+00 0.  1.
         25    2    1    2    0    0  0.18988605456E+03 -0.16035574766E+03 -0.12020663433E+04  0.12338478750E+04  0.12508559272E+03 0.  0.
          5    1    3    3  502    0  0.39297125750E+02 -0.11058224913E+02 -0.62882401868E+02  0.75088063600E+02  0.41800000000E+01 0. -1.
         -5    1    3    3    0  502  0.15058892881E+03 -0.14929752275E+03 -0.11391839414E+04  0.11587598114E+04  0.41800000000E+01 0. -1.
        -11    1    1    2    0    0 -0.14142159816E+03  0.79715053456E+02 -0.14240562661E+03  0.21594888437E+03  0.00000000000E+00 0.  1.
         11    1    1    2    0    0 -0.48464456404E+02  0.80640694204E+02 -0.16631881988E+02  0.95542370677E+02  0.00000000000E+00 0. -1.
</event>
<event>
 7    1  0.2728221E-009  0.1007571E+03  0.7561462E-02  0.1278712E+00
          1   -1    0    0  501    0  0.00000000000E+00  0.00000000000E+00  0.69177674124E+03  0.69177674124E+03  0.00000000000E+00 0. -1.
         -1   -1    0    0    0  501 -0.00000000000E+00 -0.00000000000E+00 -0.18174668480E+02  0.18174668480E+02  0.00000000000E+00 0.  1.
         25    2    1    2    0    0 -0.25180094551E+02  0.15581418245E+02  0.40387167236E+03  0.42383961914E+03  0.12510346622E+03 0.  0.
          5    1    3    3  502    0 -0.56438132530E+01 -0.54253570519E+02  0.14522899959E+03  0.15519097030E+03  0.41800000000E+01 0.  1.
         -5    1    3    3    0  502 -0.19536281298E+02  0.69834988764E+02  0.25864267277E+03  0.26864864883E+03  0.41800000000E+01 0.  1.
        -11    1    1    2    0    0  0.36098667139E+02  0.16932902325E+02  0.23083700442E+03  0.23425532985E+03  0.00000000000E+00 0. -1.
         11    1    1    2    0    0 -0.10918572588E+02 -0.32514320571E+02  0.38893395979E+02  0.51856460738E+02  0.00000000000E+00 0.  1.
</event>
<event>
 7    1  0.2728221E-009  0.1249301E+03  0.7561462E-02  0.1235179E+00
         -2   -1    0    0    0  501 -0.00000000000E+00  0.00000000000E+00  0.32311194811E+02  0.32311194811E+02  0.00000000000E+00 0.  1.
          2   -1    0    0  501    0  0.00000000000E+00 -0.00000000000E+00 -0.65310633172E+03  0.65310633172E+03  0.00000000000E+00 0. -1.
         25    2    1    2    0    0  0.19357795042E+02  0.87021095678E+02 -0.42530992626E+03  0.45219901547E+03  0.12509204965E+03 0.  0.
          5    1    3    3  502    0  0.59019337277E+02  0.88442178649E+02 -0.23829489468E+03  0.26097362006E+03  0.41800000000E+01 0.  1.
         -5    1    3    3    0  502 -0.39661542234E+02 -0.14210829710E+01 -0.18701503158E+03  0.19122539540E+03  0.41800000000E+01 0.  1.
        -11    1    1    2    0    0 -0.26433170800E+02 -0.13493890543E+02 -0.65996667418E+01  0.30403177492E+02  0.00000000000E+00 0.  1.
         11    1    1    2    0    0  0.70753757576E+01 -0.73527205135E+02 -0.18888554391E+03  0.20281533358E+03  0.00000000000E+00 0. -1.
</event>
<event>
 7    1  0.2728221E-009  0.1356529E+03  0.7561462E-02  0.1219301E+00
         -1   -1    0    0    0  501 -0.00000000000E+00  0.00000000000E+00  0.12220128979E+03  0.12220128979E+03  0.00000000000E+00 0.  1.
          1   -1    0    0  501    0  0.00000000000E+00 -0.00000000000E+00 -0.18607973175E+03  0.18607973175E+03  0.00000000000E+00 0. -1.
         25    2    1    2    0    0 -0.35764769780E+01 -0.10537507307E+03 -0.28096034516E+02  0.16599192709E+03  0.12508891035E+03 0.  0.
          5    1    3    3  502    0  0.31932089594E+02  0.51898153549E+01 -0.37148704467E+02  0.49437750483E+02  0.41800000000E+01 0.  1.
         -5    1    3    3    0  502 -0.35508566572E+02 -0.11056488843E+03  0.90526699503E+01  0.11655417661E+03  0.41800000000E+01 0.  1.
        -11    1    1    2    0    0 -0.25839710056E+02  0.78484695571E+02  0.80815158955E+01  0.83023183231E+02  0.00000000000E+00 0.  1.
         11    1    1    2    0    0  0.29416187034E+02  0.26890377499E+02 -0.43863923335E+02  0.59265911213E+02  0.00000000000E+00 0. -1.
</event>
<event>
 7    1  0.2728221E-009  0.1611535E+03  0.7561462E-02  0.1187401E+00
          1   -1    0    0  501    0  0.00000000000E+00  0.00000000000E+00  0.55959861278E+03  0.55959861278E+03  0.00000000000E+00 0. -1.
         -1   -1    0    0    0  501 -0.00000000000E+00 -0.00000000000E+00 -0.58643958900E+02  0.58643958900E+02  0.00000000000E+00 0.  1.
         25    2    1    2    0    0  0.12366351461E+03  0.23059337427E+02  0.38661859584E+03  0.42537733280E+03  0.12509012241E+03 0.  0.
          5    1    3    3  502    0  0.11938523647E+03 -0.23062158801E+02  0.33228131082E+03  0.35385454607E+03  0.41800000000E+01 0.  1.
         -5    1    3    3    0  502  0.42782781429E+01  0.46121496229E+02  0.54337285018E+02  0.71522786728E+02  0.41800000000E+01 0.  1.
        -11    1    1    2    0    0 -0.10990945570E+01  0.23130081790E+02  0.92281662092E+01  0.24927249027E+02  0.00000000000E+00 0.  1.
         11    1    1    2    0    0 -0.12256442006E+03 -0.46189419217E+02  0.10510789184E+03  0.16793798986E+03  0.00000000000E+00 0. -1.
</event>
<event>
 7    1  0.2728221E-009  0.9742341E+02  0.7561462E-02  0.1285809E+00
         -2   -1    0    0    0  501 -0.00000000000E+00  0.00000000000E+00  0.14353197012E+03  0.14353197012E+03  0.00000000000E+00 0.  1.
          2   -1    0    0  501    0  0.00000000000E+00 -0.00000000000E+00 -0.88995967723E+02  0.88995967723E+02  0.00000000000E+00 0. -1.
         25    2    1    2    0    0  0.82695475689E+01 -0.25408733720E+02  0.76232345492E+01  0.12813843426E+03  0.12508938989E+03 0.  0.
          5    1    3    3  502    0  0.66112433065E+02 -0.67473037311E+01 -0.10909150279E+01  0.66596114068E+02  0.41800000000E+01 0.  1.
         -5    1    3    3    0  502 -0.57842885496E+02 -0.18661429989E+02  0.87141495771E+01  0.61542320192E+02  0.41800000000E+01 0.  1.
        -11    1    1    2    0    0 -0.23611620132E+02 -0.12302761847E+02 -0.14796615893E+02  0.30459914580E+02  0.00000000000E+00 0. -1.
         11    1    1    2    0    0  0.15342072563E+02  0.37711495567E+02  0.61709383740E+02  0.73929589002E+02  0.00000000000E+00 0.  1.
</event>
<event>
 7    1  0.2728221E-009  0.8547308E+02  0.7561462E-02  0.1314200E+00
          2   -1    0    0  501    0  0.00000000000E+00  0.00000000000E+00  0.63089119965E+03  0.63089119965E+03  0.00000000000E+00 0. -1.
         -2   -1    0    0    0  501 -0.00000000000E+00 -0.00000000000E+00 -0.31390949408E+02  0.31390949408E+02  0.00000000000E+00 0.  1.
         25    2    1    2    0    0  0.66275573940E+02 -0.11189532979E+00  0.18379070017E+03  0.23199825612E+03  0.12510677500E+03 0.  0.
          5    1    3    3  502    0  0.69962279375E+02  0.34842085936E+01  0.20134999334E+03  0.21322793547E+03  0.41800000000E+01 0. -1.
         -5    1    3    3    0  502 -0.36867054354E+01 -0.35961039234E+01 -0.17559293176E+02  0.18770320648E+02  0.41800000000E+01 0. -1.
        -11    1    1    2    0    0 -0.67839847894E+02  0.22669926957E+02  0.38790887741E+03  0.39444830805E+03  0.00000000000E+00 0.  1.
         11    1    1    2    0    0  0.15642739536E+01 -0.22558031627E+02  0.27800672663E+02  0.35835584890E+02  0.00000000000E+00 0. -1.
</event>
<event>
 7    1  0.2728221E-009  0.9588346E+02  0.7561462E-02  0.1289199E+00
         -3   -1    0    0    0  501 -0.00000000000E+00  0.00000000000E+00  0.45704269655E+02  0.45704269655E+02  0.00000000000E+00 0.  1.
          3   -1    0    0  501    0  0.00000000000E+00 -0.00000000000E+00 -0.29663126620E+03  0.29663126620E+03  0.00000000000E+00 0. -1.
         25    2    1    2    0    0  0.23456068815E+02  0.26207532051E+02 -0.10765683596E+03  0.16874481537E+03  0.12509115271E+03 0.  0.
          5    1    3    3  502    0  0.59012246915E+02 -0.19983381951E+01 -0.10800927522E+03  0.12316620711E+03  0.41800000000E+01 0.  1.
         -5    1    3    3    0  502 -0.35556178099E+02  0.28205870246E+02  0.35243926036E+00  0.45578608259E+02  0.41800000000E+01 0.  1.
        -11    1    1    2    0    0 -0.39926242423E+02  0.14974813849E+02 -0.11050542367E+03  0.11844745056E+03  0.00000000000E+00 0. -1.
         11    1    1    2    0    0  0.16470173608E+02 -0.41182345900E+02 -0.32764736914E+02  0.55143269920E+02  0.00000000000E+00 0.  1.
</event>
<event>
 7    1  0.2728221E-009  0.1067958E+03  0.7561462E-02  0.1266621E+00
          3   -1    0    0  501    0  0.00000000000E+00  0.00000000000E+00  0.86460774922E+02  0.86460774922E+02  0.00000000000E+00 0. -1.
         -3   -1    0    0    0  501 -0.00000000000E+00 -0.00000000000E+00 -0.30370909468E+03  0.30370909468E+03  0.00000000000E+00 0.  1.
         25    2    1    2    0    0  0.77286592488E+02 -0.24420739981E+02 -0.97196141188E+01  0.14937225604E+03  0.12509200637E+03 0.  0.
          5    1    3    3  502    0 -0.43291567586E+01 -0.27345628256E+02  0.43551885106E+02  0.51776095635E+02  0.41800000000E+01 0.  1.
         -5    1    3    3    0  502  0.81615749247E+02  0.29248882750E+01 -0.53271499225E+02  0.97596160407E+02  0.41800000000E+01 0.  1.
        -11    1    1    2    0    0 -0.25085286704E+02  0.41841506478E+02 -0.16258215052E+03  0.16974374492E+03  0.00000000000E+00 0.  1.
         11    1    1    2    0    0 -0.52201305784E+02 -0.17420766497E+02 -0.44946555117E+02  0.71053868633E+02  0.00000000000E+00 0. -1.
</event>
<event>
 7    1  0.2728221E-009  0.7353881E+02  0.7561462E-02  0.1348456E+00
         -2   -1    0    0    0  501 -0.00000000000E+00  0.00000000000E+00  0.12786504210E+03  0.12786504210E+03  0.00000000000E+00 0.  1.
          2   -1    0    0  501    0  0.00000000000E+00 -0.00000000000E+00 -0.26369400144E+03  0.26369400144E+03  0.00000000000E+00 0. -1.
         25    2    1    2    0    0  0.40708454134E+02 -0.10867462706E+02  0.79888690958E+02  0.15429011139E+03  0.12509178848E+03 0.  0.
          5    1    3    3  502    0 -0.13230439846E+02 -0.79376817241E+01 -0.28747504810E+02  0.32892898359E+02  0.41800000000E+01 0.  1.
         -5    1    3    3    0  502  0.53938893980E+02 -0.29297809819E+01  0.10863619577E+03  0.12139721303E+03  0.41800000000E+01 0.  1.
        -11    1    1    2    0    0 -0.53825557478E+01  0.34171258082E+02 -0.17553514016E+03  0.17891124117E+03  0.00000000000E+00 0. -1.
         11    1    1    2    0    0 -0.35325898387E+02 -0.23303795376E+02 -0.40182510135E+02  0.58357690980E+02  0.00000000000E+00 0.  1.
</event>
<event>
 7    1  0.2728221E-009  0.1038840E+03  0.7561462E-02  0.1272334E+00
         -2   -1    0    0    0  501 -0.00000000000E+00  0.00000000000E+00  0.57879615302E+02  0.57879615302E+02  0.00000000000E+00 0. -1.
          2   -1    0    0  501    0  0.00000000000E+00 -0.00000000000E+00 -0.25881388161E+03  0.25881388161E+03  0.00000000000E+00 0.  1.
         25    2    1    2    0    0  0.57885379432E+01  0.55124463974E+02 -0.13359075997E+03  0.19122911741E+03  0.12509944244E+03 0.  0.
          5    1    3    3  502    0  0.12396548750E+02 -0.36244241004E+02 -0.15072460277E+02  0.41375969907E+02  0.41800000000E+01 0. -1.
         -5    1    3    3    0  502 -0.66080108072E+01  0.91368704978E+02 -0.11851829969E+03  0.14985314751E+03  0.41800000000E+01 0. -1.
        -11    1    1    2    0    0  0.19632356672E+02 -0.34358012707E+01  0.15020406196E+02  0.24956898068E+02  0.00000000000E+00 0. -1.
         11    1    1    2    0    0 -0.25420894615E+02 -0.51688662703E+02 -0.82363912539E+02  0.10050748143E+03  0.00000000000E+00 0.  1.
</event>
<event>
 7    1  0.2728221E-009  0.1114185E+03  0.7561462E-02  0.1257965E+00
         -2   -1    0    0    0  501 -0.00000000000E+00  0.00000000000E+00  0.41552359683E+03  0.41552359683E+03  0.00000000000E+00 0.  1.
          2   -1    0    0  501    0  0.00000000000E+00 -0.00000000000E+00 -0.33245341019E+02  0.33245341019E+02  0.00000000000E+00 0. -1.
         25    2    1    2    0    0  0.25797574939E+02  0.30523886399E+02  0.24221491990E+03  0.27552283977E+03  0.12509014868E+03 0.  0.
          5    1    3    3  502    0 -0.18159765585E+02 -0.36300389113E+02  0.13906448578E+03  0.14492721946E+03  0.41800000000E+01 0.  1.
         -5    1    3    3    0  502  0.43957340524E+02  0.66824275512E+02  0.10315043412E+03  0.13059562030E+03  0.41800000000E+01 0.  1.
        -11    1    1    2    0    0  0.22359387506E+02  0.21519254976E+02  0.44420557521E+02  0.54186773984E+02  0.00000000000E+00 0. -1.
         11    1    1    2    0    0 -0.48156962445E+02 -0.52043141375E+02  0.95642778388E+02  0.11905932409E+03  0.00000000000E+00 0.  1.
</event>
<event>
 7    1  0.2728221E-009  0.1182721E+03  0.7561462E-02  0.1245975E+00
         -2   -1    0    0    0  501 -0.00000000000E+00  0.00000000000E+00  0.22448558918E+02  0.22448558918E+02  0.00000000000E+00 0.  1.
          2   -1    0    0  501    0  0.00000000000E+00 -0.00000000000E+00 -0.88549073805E+03  0.88549073805E+03  0.00000000000E+00 0. -1.
         25    2    1    2    0    0  0.23836388006E+02 -0.20165078853E+02 -0.68554483425E+03  0.69756314450E+03  0.12509123471E+03 0.  0.
          5    1    3    3  502    0  0.61885131557E+02 -0.47019769493E+02 -0.50966398738E+03  0.51557296347E+03  0.41800000000E+01 0. -1.
         -5    1    3    3    0  502 -0.38048743551E+02  0.26854690640E+02 -0.17588084687E+03  0.18199018103E+03  0.41800000000E+01 0. -1.
        -11    1    1    2    0    0  0.39793355958E+02  0.26800877231E+02 -0.62621189960E+02  0.78887335046E+02  0.00000000000E+00 0.  1.
         11    1    1    2    0    0 -0.63629743964E+02 -0.66357983779E+01 -0.11487615492E+03  0.13148881742E+03  0.00000000000E+00 0. -1.
</event>
<event>
 7    1  0.2728221E-009  0.1158378E+03  0.7561462E-02  0.1250126E+00
          1   -1    0    0  501    0  0.00000000000E+00  0.00000000000E+00  0.12798233208E+04  0.12798233208E+04  0.00000000000E+00 0. -1.
         -1   -1    0    0    0  501 -0.00000000000E+00 -0.00000000000E+00 -0.13681040502E+02  0.13681040502E+02  0.00000000000E+00 0.  1.
         25    2    1    2    0    0 -0.25032866782E+02  0.44703300322E+02  0.96926515846E+03  0.97864528640E+03  0.12508644895E+03 0.  0.
          5    1    3    3  502    0 -0.26363404315E+02  0.87816682565E+02  0.67103859348E+03  0.67728654584E+03  0.41800000000E+01 0. -1.
         -5    1    3    3    0  502  0.13305375331E+01 -0.43113382242E+02  0.29822656497E+03  0.30135874056E+03  0.41800000000E+01 0. -1.
        -11    1    1    2    0    0  0.46455469426E+02 -0.55655606324E+02  0.26607167649E+03  0.27577127150E+03  0.00000000000E+00 0.  1.
         11    1    1    2    0    0 -0.21422602644E+02  0.10952306002E+02  0.30805445308E+02  0.39087803359E+02  0.00000000000E+00 0. -1.
</event>
<event>
 7    1  0.2728221E-009  0.7399600E+02  0.7561462E-02  0.1347009E+00
         -1   -1    0    0    0  501 -0.00000000000E+00  0.00000000000E+00  0.41739117873E+02  0.41739117873E+02  0.00000000000E+00 0.  1.
          1   -1    0    0  501    0  0.00000000000E+00 -0.00000000000E+00 -0.32056021999E+03  0.32056021999E+03  0.00000000000E+00 0. -1.
         25    2    1    2    0    0 -0.40992357374E+02 -0.19073408630E+01 -0.13960962333E+03  0.19191353532E+03  0.12512372597E+03 0.  0.
          5    1    3    3  502    0 -0.47296223780E+01  0.15772712164E+02  0.20570079507E+02  0.26678612179E+02  0.41800000000E+01 0.  1.
         -5    1    3    3    0  502 -0.36262734996E+02 -0.17680053027E+02 -0.16017970284E+03  0.16523492314E+03  0.41800000000E+01 0.  1.
        -11    1    1    2    0    0  0.20602258743E+02  0.41262781451E+02 -0.37519654947E+02  0.59454139517E+02  0.00000000000E+00 0.  1.
         11    1    1    2    0    0  0.20390098631E+02 -0.39355440588E+02 -0.10169182383E+03  0.11093166302E+03  0.00000000000E+00 0. -1.
</event>
<event>
 7    1  0.2980906E-009  0.9511619E+02  0.7561462E-02  0.1290915E+00
          1   -1    0    0  501    0  0.00000000000E+00  0.00000000000E+00  0.14045248435E+03  0.14045248435E+03  0.00000000000E+00 0. -1.
         -1   -1    0    0    0  501 -0.00000000000E+00 -0.00000000000E+00 -0.11692882924E+03  0.11692882924E+03  0.00000000000E+00 0.  1.
         25    2    1    2    0    0 -0.33820088305E+02  0.51178108872E+02  0.44042519486E+02  0.14611515036E+03  0.12508755511E+03 0.  0.
          5    1    3    3  502    0 -0.30787742953E+02  0.86999662452E+02  0.55963865363E+02  0.10801043010E+03  0.41800000000E+01 0.  1.
         -5    1    3    3    0  502 -0.30323453516E+01 -0.35821553580E+02 -0.11921345876E+02  0.38104720269E+02  0.41800000000E+01 0.  1.
        -11    1    1    2    0    0  0.10217563107E+02 -0.20942664736E+02  0.36046280045E+02  0.42922349740E+02  0.00000000000E+00 0. -1.
         11    1    1    2    0    0  0.23602525198E+02 -0.30235444136E+02 -0.56565144428E+02  0.68343813487E+02  0.00000000000E+00 0.  1.
</event>
<event>
 7    1  0.2728221E-009  0.9418290E+02  0.7561462E-02  0.1293027E+00
         -1   -1    0    0    0  501 -0.00000000000E+00  0.00000000000E+00  0.57525357229E+03  0.57525357229E+03  0.00000000000E+00 0.  1.
          1   -1    0    0  501    0  0.00000000000E+00 -0.00000000000E+00 -0.32136440860E+02  0.32136440860E+02  0.00000000000E+00 0. -1.
         25    2    1    2    0    0  0.54868023655E+01  0.22861616574E+02  0.47227897467E+03  0.48913042000E+03  0.12509348239E+03 0.  0.
          5    1    3    3  502    0  0.16391430267E+02 -0.34334190284E+02  0.36496434896E+03  0.36696588945E+03  0.41800000000E+01 0.  1.
         -5    1    3    3    0  502 -0.10904627902E+02  0.57195806858E+02  0.10731462571E+03  0.12216453055E+03  0.41800000000E+01 0.  1.
        -11    1    1    2    0    0 -0.21426927839E+00  0.34304915061E+02  0.12774983331E+02  0.36607011730E+02  0.00000000000E+00 0.  1.
         11    1    1    2    0    0 -0.52725330871E+01 -0.57166531635E+02  0.58063173423E+02  0.81652581418E+02  0.00000000000E+00 0. -1.
</event>
<event>
 7    1  0.2728221E-009  0.9696321E+02  0.7561462E-02  0.1286815E+00
          2   -1    0    0  501    0  0.00000000000E+00  0.00000000000E+00  0.10227253410E+03  0.10227253410E+03  0.00000000000E+00 0. -1.
         -2   -1    0    0    0  501 -0.00000000000E+00 -0.00000000000E+00 -0.19008549906E+03  0.19008549906E+03  0.00000000000E+00 0.  1.
         25    2    1    2    0    0  0.19456252742E+02 -0.33177163947E+02  0.33412382209E+02  0.13505821694E+03  0.12508023305E+03 0.  0.
          5    1    3    3  502    0  0.63632179534E+02 -0.44984608153E+02  0.41571957940E+02  0.88421543358E+02  0.41800000000E+01 0.  1.
         -5    1    3    3    0  502 -0.44175926792E+02  0.11807444206E+02 -0.81595757310E+01  0.46636673581E+02  0.41800000000E+01 0.  1.
        -11    1    1    2    0    0 -0.76085005429E-01 -0.16575535681E+02  0.73096505966E+01  0.18115881538E+02  0.00000000000E+00 0. -1.
         11    1    1    2    0    0 -0.19380167736E+02  0.49752699628E+02 -0.12853499777E+03  0.13918393468E+03  0.00000000000E+00 0.  1.
</event>
<event>
 7    1  0.2728221E-009  0.1571504E+03  0.7561462E-02  0.1191952E+00
         -2   -1    0    0    0  501 -0.00000000000E+00  0.00000000000E+00  0.16297284528E+03  0.16297284528E+03  0.00000000000E+00 0.  1.
          2   -1    0    0  501    0  0.00000000000E+00 -0.00000000000E+00 -0.18242424908E+03  0.18242424908E+03  0.00000000000E+00 0. -1.
         25    2    1    2    0    0  0.91241011283E+02  0.95390022833E+02 -0.32377241756E+02  0.18471371441E+03  0.12508673755E+03 0.  0.
          5    1    3    3  502    0 -0.16005011234E+02  0.27363244058E+02  0.29387183015E+02  0.43427945330E+02  0.41800000000E+01 0.  1.
         -5    1    3    3    0  502  0.10724602252E+03  0.68026778774E+02 -0.61764424772E+02  0.14128576908E+03  0.41800000000E+01 0.  1.
        -11    1    1    2    0    0 -0.92436084350E+02 -0.41452351903E+02  0.27166929124E+02  0.10488455180E+03  0.00000000000E+00 0.  1.
         11    1    1    2    0    0  0.11950730666E+01 -0.53937670929E+02 -0.14241091166E+02  0.55798828147E+02  0.00000000000E+00 0. -1.
</event>
<event>
 7    1  0.2728221E-009  0.2283990E+03  0.7561462E-02  0.1127772E+00
         -1   -1    0    0    0  501 -0.00000000000E+00  0.00000000000E+00  0.96038047984E+02  0.96038047984E+02  0.00000000000E+00 0. -1.
          1   -1    0    0  501    0  0.00000000000E+00 -0.00000000000E+00 -0.60469907787E+03  0.60469907787E+03  0.00000000000E+00 0.  1.
         25    2    1    2    0    0 -0.14844311832E+02 -0.21416136961E+03 -0.26211364605E+03  0.36116785979E+03  0.12511280379E+03 0.  0.
          5    1    3    3  502    0 -0.19244340838E+02 -0.22214248386E+03 -0.20415416483E+03  0.30234752059E+03  0.41800000000E+01 0. -1.
         -5    1    3    3    0  502  0.44000290060E+01  0.79811142515E+01 -0.57959481228E+02  0.58820339205E+02  0.41800000000E+01 0. -1.
        -11    1    1    2    0    0 -0.23800953276E+02  0.54220523755E+02 -0.26675621961E+02  0.64945664829E+02  0.00000000000E+00 0. -1.
         11    1    1    2    0    0  0.38645265108E+02  0.15994084585E+03 -0.21987176187E+03  0.27462360123E+03  0.00000000000E+00 0.  1.
</event>
<event>
 7    1  0.2728221E-009  0.9415574E+02  0.7561462E-02  0.1293089E+00
          1   -1    0    0  501    0  0.00000000000E+00  0.00000000000E+00  0.40923421346E+03  0.40923421346E+03  0.00000000000E+00 0. -1.
         -1   -1    0    0    0  501 -0.00000000000E+00 -0.00000000000E+00 -0.33554387178E+02  0.33554387178E+02  0.00000000000E+00 0.  1.
         25    2    1    2    0    0 -0.32339517570E+02  0.11283966781E+02  0.24153394313E+03  0.27414083039E+03  0.12506549044E+03 0.  0.
          5    1    3    3  502    0  0.38996493819E+02 -0.27684030982E+02  0.81167940084E+02  0.94301850454E+02  0.41800000000E+01 0.  1.
         -5    1    3    3    0  502 -0.71336011389E+02  0.38967997763E+02  0.16036600305E+03  0.17983897993E+03  0.41800000000E+01 0.  1.
        -11    1    1    2    0    0 -0.68712889431E+01 -0.17876083944E+02 -0.82148253337E+01  0.20838722230E+02  0.00000000000E+00 0.  1.
         11    1    1    2    0    0  0.39210806513E+02  0.65921171634E+01  0.14236070849E+03  0.14780904802E+03  0.00000000000E+00 0. -1.
</event>
<event>
 7    1  0.2728221E-009  0.7687641E+02  0.7561462E-02  0.1338157E+00
          2   -1    0    0  501    0  0.00000000000E+00  0.00000000000E+00  0.44540829275E+03  0.44540829275E+03  0.00000000000E+00 0. -1.
         -2   -1    0    0    0  501 -0.00000000000E+00 -0.00000000000E+00 -0.30971065858E+02  0.30971065858E+02  0.00000000000E+00 0.  1.
         25    2    1    2    0    0 -0.66771688340E+01  0.23388560672E+02  0.31187414921E+03  0.33690302699E+03  0.12508619147E+03 0.  0.
          5    1    3    3  502    0  0.47651583539E+02  0.89544141569E+01  0.52961428966E+02  0.71925241083E+02  0.41800000000E+01 0. -1.
         -5    1    3    3    0  502 -0.54328752373E+02  0.14434146515E+02  0.25891272025E+03  0.26497778591E+03  0.41800000000E+01 0. -1.
        -11    1    1    2    0    0 -0.97707379838E+01  0.84271204910E+01 -0.13104528654E+02  0.18390550611E+02  0.00000000000E+00 0.  1.
         11    1    1    2    0    0  0.16447906818E+02 -0.31815681163E+02  0.11566760634E+03  0.12108578101E+03  0.00000000000E+00 0. -1.
</event>
<event>
 7    1  0.2728221E-009  0.1527030E+03  0.7561462E-02  0.1197190E+00
         -2   -1    0    0    0  501 -0.00000000000E+00  0.00000000000E+00  0.22962988930E+02  0.22962988930E+02  0.00000000000E+00 0.  1.
          2   -1    0    0  501    0  0.00000000000E+00 -0.00000000000E+00 -0.18985743324E+04  0.18985743324E+04  0.00000000000E+00 0. -1.
         25    2    1    2    0    0  0.35914694161E+02 -0.12864781725E+03 -0.15325657537E+04  0.15434525740E+04  0.12509169639E+03 0.  0.
          5    1    3    3  502    0  0.44273203779E+02 -0.13092504931E+03 -0.15248909294E+04  0.15311470550E+04  0.41800000000E+01 0.  1.
         -5    1    3    3    0  502 -0.83585096182E+01  0.22772320587E+01 -0.76748243454E+01  0.12305518990E+02  0.41800000000E+01 0.  1.
        -11    1    1    2    0    0  0.23273416073E+02  0.71690060950E+02 -0.13889656181E+03  0.15802965423E+03  0.00000000000E+00 0.  1.
         11    1    1    2    0    0 -0.59188110234E+02  0.56957756301E+02 -0.20414902788E+03  0.22005509306E+03  0.00000000000E+00 0. -1.
</event>
<event>
 7    1  0.2728221E-009  0.1192459E+03  0.7561462E-02  0.1244346E+00
          1   -1    0    0  501    0  0.00000000000E+00  0.00000000000E+00  0.41318314591E+02  0.41318314591E+02  0.00000000000E+00 0. -1.
         -1   -1    0    0    0  501 -0.00000000000E+00 -0.00000000000E+00 -0.43720722932E+03  0.43720722932E+03  0.00000000000E+00 0.  1.
         25    2    1    2    0    0  0.51282572458E+02  0.63221125673E+02 -0.20264977164E+03  0.25167544360E+03  0.12508711364E+03 0.  0.
          5    1    3    3  502    0 -0.25564581811E+02  0.60357257583E+01  0.96477367632E+00  0.26615428173E+02  0.41800000000E+01 0. -1.
         -5    1    3    3    0  502  0.76847154269E+02  0.57185399915E+02 -0.20361454531E+03  0.22506001543E+03  0.41800000000E+01 0. -1.
        -11    1    1    2    0    0 -0.73298991851E+02 -0.57780345219E+02 -0.13298618191E+03  0.16247041293E+03  0.00000000000E+00 0. -1.
         11    1    1    2    0    0  0.22016419393E+02 -0.54407804540E+01 -0.60252961183E+02  0.64379687373E+02  0.00000000000E+00 0.  1.
</event>
<event>
 7    1  0.2728221E-009  0.1187990E+03  0.7561462E-02  0.1245092E+00
          2   -1    0    0  501    0  0.00000000000E+00  0.00000000000E+00  0.16979510408E+03  0.16979510408E+03  0.00000000000E+00 0.  1.
         -2   -1    0    0    0  501 -0.00000000000E+00 -0.00000000000E+00 -0.12969906529E+03  0.12969906529E+03  0.00000000000E+00 0. -1.
         25    2    1    2    0    0  0.34822018064E+02 -0.74411110969E+02 -0.46777931192E+02  0.15679813091E+03  0.12509153701E+03 0.  0.
          5    1    3    3  502    0  0.63825090834E+02 -0.93000802086E+02 -0.24320025111E+02  0.11546309986E+03  0.41800000000E+01 0.  1.
         -5    1    3    3    0  502 -0.29003072770E+02  0.18589691117E+02 -0.22457906081E+02  0.41335031045E+02  0.41800000000E+01 0.  1.
        -11    1    1    2    0    0 -0.93125964341E+01  0.60012293121E+02  0.94586928216E+02  0.11240501220E+03  0.00000000000E+00 0.  1.
         11    1    1    2    0    0 -0.25509421630E+02  0.14398817848E+02 -0.77129582338E+01  0.30291026262E+02  0.00000000000E+00 0. -1.
</event>
<event>
 7    1  0.2728221E-009  0.2258005E+03  0.7561462E-02  0.1129631E+00
         -2   -1    0    0    0  501 -0.00000000000E+00  0.00000000000E+00  0.25146687019E+03  0.25146687019E+03  0.00000000000E+00 0.  1.
          2   -1    0    0  501    0  0.00000000000E+00 -0.00000000000E+00 -0.22150164472E+03  0.22150164472E+03  0.00000000000E+00 0. -1.
         25    2    1    2    0    0 -0.68941898294E+02 -0.19753203626E+03  0.14022322461E+02  0.24416517471E+03  0.12509243112E+03 0.  0.
          5    1    3    3  502    0 -0.40289373887E+02  0.21081776368E+01 -0.76487025158E+01  0.41275332965E+02  0.41800000000E+01 0.  1.
         -5    1    3    3    0  502 -0.28652524406E+02 -0.19964021389E+03  0.21671024977E+02  0.20288984174E+03  0.41800000000E+01 0.  1.
        -11    1    1    2    0    0  0.29157621207E+02  0.74296920349E+02  0.50909594762E+02  0.94667766883E+02  0.00000000000E+00 0.  1.
         11    1    1    2    0    0  0.39784277087E+02  0.12323511591E+03 -0.34966691750E+02  0.13413557331E+03  0.00000000000E+00 0. -1.
</event>
<event>
 7    1  0.2728221E-009  0.9384593E+02  0.7561462E-02  0.1293797E+00
          1   -1    0    0  501    0  0.00000000000E+00  0.00000000000E+00  0.76083805647E+02  0.76083805647E+02  0.00000000000E+00 0. -1.
         -1   -1    0    0    0  501 -0.00000000000E+00 -0.00000000000E+00 -0.16148129602E+03  0.16148129602E+03  0.00000000000E+00 0.  1.
         25    2    1    2    0    0  0.18002431972E+02  0.39671864593E+01 -0.31931300609E+02  0.13037195477E+03  0.12504964017E+03 0.  0.
          5    1    3    3  502    0  0.26288324363E+00  0.61568437351E+02 -0.32931626268E+02  0.69947880555E+02  0.41800000000E+01 0.  1.
         -5    1    3    3    0  502  0.17739548729E+02 -0.57601250892E+02  0.10003256589E+01  0.60424074216E+02  0.41800000000E+01 0.  1.
        -11    1    1    2    0    0  0.23604976618E+02  0.12162477412E+01 -0.60248547580E+02  0.64719098149E+02  0.00000000000E+00 0.  1.
         11    1    1    2    0    0 -0.41607408591E+02 -0.51834342005E+01  0.67823578127E+01  0.42474048750E+02  0.00000000000E+00 0. -1.
</event>
<event>
 7    1  0.2728221E-009  0.8931612E+02  0.7561462E-02  0.1304516E+00
          2   -1    0    0  501    0  0.00000000000E+00  0.00000000000E+00  0.28973963747E+03  0.28973963747E+03  0.00000000000E+00 0. -1.
         -2   -1    0    0    0  501 -0.00000000000E+00 -0.00000000000E+00 -0.84316176009E+02  0.84316176009E+02  0.00000000000E+00 0.  1.
         25    2    1    2    0    0 -0.83829047105E+01 -0.71650004265E+01 -0.23529045222E+02  0.12776609534E+03  0.12509575863E+03 0.  0.
          5    1    3    3  502    0 -0.26874946142E+02 -0.48930911899E+02 -0.49783872201E+02  0.74915974269E+02  0.41800000000E+01 0. -1.
         -5    1    3    3    0  502  0.18492041431E+02  0.41765911473E+02  0.26254826979E+02  0.52850121070E+02  0.41800000000E+01 0. -1.
        -11    1    1    2    0    0  0.18569315826E+02  0.39087749445E+02  0.59596924020E+02  0.73650967404E+02  0.00000000000E+00 0.  1.
         11    1    1    2    0    0 -0.10186411116E+02 -0.31922749018E+02  0.16935558267E+03  0.17263875074E+03  0.00000000000E+00 0. -1.
</event>
<event>
 7    1  0.4064524E-009  0.1045940E+03  0.7561462E-02  0.1270922E+00
         -1   -1    0    0    0  501 -0.00000000000E+00  0.00000000000E+00  0.73026031586E+02  0.73026031586E+02  0.00000000000E+00 0.  1.
          1   -1    0    0  501    0  0.00000000000E+00 -0.00000000000E+00 -0.23990610570E+03  0.23990610570E+03  0.00000000000E+00 0. -1.
         25    2    1    2    0    0  0.94473386638E+01  0.25534213692E+02 -0.88611875408E+01  0.12831501007E+03  0.12507986604E+03 0.  0.
          5    1    3    3  502    0 -0.14479822230E+02 -0.40629300519E+02 -0.32290004822E+02  0.54041855296E+02  0.41800000000E+01 0.  1.
         -5    1    3    3    0  502  0.23927160894E+02  0.66163514211E+02  0.23428817281E+02  0.74273154776E+02  0.41800000000E+01 0.  1.
        -11    1    1    2    0    0 -0.41377234587E+02 -0.42415168101E+02 -0.10207825976E+03  0.11803005186E+03  0.00000000000E+00 0. -1.
         11    1    1    2    0    0  0.31929895924E+02  0.16880954409E+02 -0.55940626814E+02  0.66587075350E+02  0.00000000000E+00 0.  1.
</event>
<event>
 7    1  0.2728221E-009  0.1508816E+03  0.7561462E-02  0.1199394E+00
          1   -1    0    0  501    0  0.00000000000E+00  0.00000000000E+00  0.30237360723E+03  0.30237360723E+03  0.00000000000E+00 0. -1.
         -1   -1    0    0    0  501 -0.00000000000E+00 -0.00000000000E+00 -0.11296217662E+03  0.11296217662E+03  0.00000000000E+00 0.  1.
         25    2    1    2    0    0 -0.13234195448E+03  0.19547398999E+02  0.32776776544E+02  0.18606122149E+03  0.12509183561E+03 0.  0.
          5    1    3    3  502    0 -0.52904844316E+02  0.13451130515E+02 -0.47793966181E+02  0.72674555847E+02  0.41800000000E+01 0.  1.
         -5    1    3    3    0  502 -0.79437110169E+02  0.60962684836E+01  0.80570742726E+02  0.11338666564E+03  0.41800000000E+01 0.  1.
        -11    1    1    2    0    0  0.66806612633E+02  0.40688930586E+02  0.67774116940E+02  0.10349900237E+03  0.00000000000E+00 0. -1.
         11    1    1    2    0    0  0.65535341851E+02 -0.60236329584E+02  0.88860537127E+02  0.12577555999E+03  0.00000000000E+00 0.  1.
</event>
<event>
 7    1  0.2728221E-009  0.2701891E+03  0.7561462E-02  0.1101171E+00
         -2   -1    0    0    0  501 -0.00000000000E+00  0.00000000000E+00  0.42853605567E+03  0.42853605567E+03  0.00000000000E+00 0.  1.
          2   -1    0    0  501    0  0.00000000000E+00 -0.00000000000E+00 -0.22109906502E+03  0.22109906502E+03  0.00000000000E+00 0. -1.
         25    2    1    2    0    0 -0.13642303264E+03  0.22633013544E+03  0.22583245828E+03  0.36943837748E+03  0.12509133262E+03 0.  0.
          5    1    3    3  502    0 -0.33914262787E+02  0.11792543982E+03  0.35978122834E+02  0.12793937744E+03  0.41800000000E+01 0. -1.
         -5    1    3    3    0  502 -0.10250876985E+03  0.10840469562E+03  0.18985433545E+03  0.24149900003E+03  0.41800000000E+01 0. -1.
        -11    1    1    2    0    0  0.70873100496E+02 -0.73761996314E+02 -0.45481996255E+02  0.11194838301E+03  0.00000000000E+00 0. -1.
         11    1    1    2    0    0  0.65549932143E+02 -0.15256813913E+03  0.27086528625E+02  0.16824836021E+03  0.00000000000E+00 0.  1.
</event>
<event>
 7    1  0.2728221E-009  0.8924977E+02  0.7561462E-02  0.1304679E+00
         -1   -1    0    0    0  501 -0.00000000000E+00  0.00000000000E+00  0.90097513894E+03  0.90097513894E+03  0.00000000000E+00 0.  1.
          1   -1    0    0  501    0  0.00000000000E+00 -0.00000000000E+00 -0.16387192965E+02  0.16387192965E+02  0.00000000000E+00 0. -1.
         25    2    1    2    0    0  0.28845089877E+02  0.17185520536E+02  0.64413095418E+03  0.65702284936E+03  0.12508779768E+03 0.  0.
          5    1    3    3  502    0  0.37096022143E+02 -0.18789898653E+02  0.68834695562E+02  0.80528646228E+02  0.41800000000E+01 0.  1.
         -5    1    3    3    0  502 -0.82509322656E+01  0.35975419190E+02  0.57529625862E+03  0.57649420313E+03  0.41800000000E+01 0.  1.
        -11    1    1    2    0    0  0.19923731405E+02 -0.40778396335E+02  0.10097852855E+03  0.11070905974E+03  0.00000000000E+00 0.  1.
         11    1    1    2    0    0 -0.48768821283E+02  0.23592875799E+02  0.13947846325E+03  0.14963042280E+03  0.00000000000E+00 0. -1.
</event>
<event>
 7    1  0.2728221E-009  0.9891079E+02  0.7561462E-02  0.1282603E+00
         -1   -1    0    0    0  501 -0.00000000000E+00  0.00000000000E+00  0.68522140941E+02  0.68522140941E+02  0.00000000000E+00 0.  1.
          1   -1    0    0  501    0  0.00000000000E+00 -0.00000000000E+00 -0.21794149463E+03  0.21794149463E+03  0.00000000000E+00 0. -1.
         25    2    1    2    0    0 -0.59537912991E+01 -0.16814222560E+02 -0.14479137641E+03  0.19217073548E+03  0.12508750210E+03 0.  0.
          5    1    3    3  502    0 -0.16830237900E+02 -0.68814384565E+02 -0.99618488996E+02  0.12231104685E+03  0.41800000000E+01 0.  1.
         -5    1    3    3    0  502  0.10876446601E+02  0.52000162004E+02 -0.45172887410E+02  0.69859688634E+02  0.41800000000E+01 0.  1.
        -11    1    1    2    0    0 -0.35569287931E+01 -0.27760809006E+02  0.26942427104E+02  0.38848534559E+02  0.00000000000E+00 0.  1.
         11    1    1    2    0    0  0.95107200922E+01  0.44575031566E+02 -0.31570404383E+02  0.55444365527E+02  0.00000000000E+00 0. -1.
</event>
<event>
 7    1  0.2728221E-009  0.1352234E+03  0.7561462E-02  0.1219905E+00
         -1   -1    0    0    0  501 -0.00000000000E+00  0.00000000000E+00  0.17377383034E+03  0.17377383034E+03  0.00000000000E+00 0.  1.
          1   -1    0    0  501    0  0.00000000000E+00 -0.00000000000E+00 -0.13078490905E+03  0.13078490905E+03  0.00000000000E+00 0. -1.
         25    2    1    2    0    0  0.67322550591E+02  0.75775478067E+02 -0.75212406098E+01  0.16117173543E+03  0.12508201449E+03 0.  0.
          5    1    3    3  502    0  0.10353194124E+03  0.46406112813E+02  0.12852102906E+01  0.11354080469E+03  0.41800000000E+01 0. -1.
         -5    1    3    3    0  502 -0.36209390649E+02  0.29369365254E+02 -0.88064509003E+01  0.47630930749E+02  0.41800000000E+01 0. -1.
        -11    1    1    2    0    0 -0.64413223854E+02 -0.43565867560E+02  0.70836025239E+02  0.10518930884E+03  0.00000000000E+00 0.  1.
         11    1    1    2    0    0 -0.29093267364E+01 -0.32209610507E+02 -0.20325863340E+02  0.38197695108E+02  0.00000000000E+00 0. -1.
</event>
<event>
 7    1  0.2818586E-009  0.1157624E+03  0.7561462E-02  0.1250256E+00
         -2   -1    0    0    0  501 -0.00000000000E+00  0.00000000000E+00  0.56154774654E+02  0.56154774654E+02  0.00000000000E+00 0.  1.
          2   -1    0    0  501    0  0.00000000000E+00 -0.00000000000E+00 -0.40551070735E+03  0.40551070735E+03  0.00000000000E+00 0. -1.
         25    2    1    2    0    0  0.31537582806E+02  0.77498321228E+02 -0.28405508599E+03  0.32145558470E+03  0.12508314090E+03 0.  0.
          5    1    3    3  502    0  0.66166917407E+02  0.21992194260E+02 -0.21577498738E+03  0.22679954838E+03  0.41800000000E+01 0. -1.
         -5    1    3    3    0  502 -0.34629334600E+02  0.55506126968E+02 -0.68280098613E+02  0.94656036324E+02  0.41800000000E+01 0. -1.
        -11    1    1    2    0    0  0.10934528834E+02 -0.32274903177E+02 -0.70141042991E+02  0.77980761780E+02  0.00000000000E+00 0.  1.
         11    1    1    2    0    0 -0.42472111641E+02 -0.45223418051E+02  0.48401962864E+01  0.62229135520E+02  0.00000000000E+00 0. -1.
</event>
<event>
 7    1  0.2728221E-009  0.9185767E+02  0.7561462E-02  0.1298414E+00
          1   -1    0    0  501    0  0.00000000000E+00  0.00000000000E+00  0.32275338488E+02  0.32275338488E+02  0.00000000000E+00 0. -1.
         -1   -1    0    0    0  501 -0.00000000000E+00 -0.00000000000E+00 -0.54116718690E+03  0.54116718690E+03  0.00000000000E+00 0.  1.
         25    2    1    2    0    0  0.35574744992E+02 -0.31475655725E+02 -0.15426254886E+03  0.20420249354E+03  0.12508175329E+03 0.  0.
          5    1    3    3  502    0  0.56522657918E+02 -0.52054758080E+02 -0.41150203056E+02  0.87265802629E+02  0.41800000000E+01 0. -1.
         -5    1    3    3    0  502 -0.20947912926E+02  0.20579102356E+02 -0.11311234580E+03  0.11693669091E+03  0.41800000000E+01 0. -1.
        -11    1    1    2    0    0 -0.36838519933E+02  0.48011337240E+02 -0.34457001778E+03  0.34984376828E+03  0.00000000000E+00 0.  1.
         11    1    1    2    0    0  0.12637749410E+01 -0.16535681516E+02 -0.10059281781E+02  0.19396263564E+02  0.00000000000E+00 0. -1.
</event>
<event>
 7    1  0.2728221E-009  0.1627059E+03  0.7561462E-02  0.1185675E+00
          2   -1    0    0  501    0  0.00000000000E+00  0.00000000000E+00  0.19156143091E+04  0.19156143091E+04  0.00000000000E+00 0. -1.
         -2   -1    0    0    0  501 -0.00000000000E+00 -0.00000000000E+00 -0.17267846542E+02  0.17267846542E+02  0.00000000000E+00 0.  1.
         25    2    1    2    0    0 -0.87047260576E+02 -0.98686472083E+02  0.13277681594E+04  0.13401257092E+04  0.12510949632E+03 0.  0.
          5    1    3    3  502    0  0.13731463903E+02 -0.51578578321E+02  0.20586517740E+03  0.21271306144E+03  0.41800000000E+01 0. -1.
         -5    1    3    3    0  502 -0.10077872448E+03 -0.47107893762E+02  0.11219029820E+04  0.11274126478E+04  0.41800000000E+01 0. -1.
        -11    1    1    2    0    0  0.22648511781E+02  0.93205577518E+02  0.33187462636E+03  0.34545767090E+03  0.00000000000E+00 0.  1.
         11    1    1    2    0    0  0.64398748795E+02  0.54808945657E+01  0.23870367680E+03  0.24729877551E+03  0.00000000000E+00 0. -1.
</event>
<event>
 7    1  0.2728221E-009  0.1036705E+03  0.7561462E-02  0.1272761E+00
         -2   -1    0    0    0  501 -0.00000000000E+00  0.00000000000E+00  0.24797763941E+03  0.24797763941E+03  0.00000000000E+00 0.  1.
          2   -1    0    0  501    0  0.00000000000E+00 -0.00000000000E+00 -0.54442265182E+02  0.54442265182E+02  0.00000000000E+00 0. -1.
         25    2    1    2    0    0 -0.29798688285E+02  0.25142128597E+02  0.97967157674E+02  0.16360011009E+03  0.12508934241E+03 0.  0.
          5    1    3    3  502    0 -0.78610388200E+02  0.10742027796E+02  0.52511241774E+02  0.95235955430E+02  0.41800000000E+01 0. -1.
         -5    1    3    3    0  502  0.48811699915E+02  0.14400100801E+02  0.45455915900E+02  0.68364154657E+02  0.41800000000E+01 0. -1.
        -11    1    1    2    0    0  0.49122674972E+02 -0.57624679594E+01  0.12014049892E+02  0.50897746789E+02  0.00000000000E+00 0. -1.
         11    1    1    2    0    0 -0.19323986686E+02 -0.19379660638E+02  0.83554166659E+02  0.87922047712E+02  0.00000000000E+00 0.  1.
</event>
<event>
 7    1  0.2728221E-009  0.1347643E+03  0.7561462E-02  0.1220553E+00
          4   -1    0    0  501    0  0.00000000000E+00  0.00000000000E+00  0.87652084332E+02  0.87652084332E+02  0.00000000000E+00 0. -1.
         -4   -1    0    0    0  501 -0.00000000000E+00 -0.00000000000E+00 -0.27284041473E+03  0.27284041473E+03  0.00000000000E+00 0.  1.
         25    2    1    2    0    0 -0.18134836976E+02 -0.95664659740E+02 -0.15958605731E+03  0.22493623632E+03  0.12509197132E+03 0.  0.
          5    1    3    3  502    0  0.42958705115E+02 -0.60507195140E+01 -0.77269900393E+02  0.88713986826E+02  0.41800000000E+01 0. -1.
         -5    1    3    3    0  502 -0.61093542092E+02 -0.89613940226E+02 -0.82316156912E+02  0.13622224949E+03  0.41800000000E+01 0. -1.
        -11    1    1    2    0    0  0.32703714185E+02  0.15976197960E+02  0.21077878205E+02  0.42060061488E+02  0.00000000000E+00 0. -1.
         11    1    1    2    0    0 -0.14568877209E+02  0.79688461780E+02 -0.46680151297E+02  0.93496201255E+02  0.00000000000E+00 0.  1.
</event>
<event>
 7    1  0.2728221E-009  0.1424612E+03  0.7561462E-02  0.1210055E+00
          2   -1    0    0  501    0  0.00000000000E+00  0.00000000000E+00  0.13787501386E+04  0.13787501386E+04  0.00000000000E+00 0. -1.
         -2   -1    0    0    0  501 -0.00000000000E+00 -0.00000000000E+00 -0.19999500271E+02  0.19999500271E+02  0.00000000000E+00 0.  1.
         25    2    1    2    0    0 -0.50997129933E+01  0.12505882763E+03  0.74679720634E+03  0.76747581483E+03  0.12508933410E+03 0.  0.
          5    1    3    3  502    0 -0.37882787155E+02  0.24257290548E+02  0.45053314819E+03  0.45279257031E+03  0.41800000000E+01 0. -1.
         -5    1    3    3    0  502  0.32783074161E+02  0.10080153708E+03  0.29626405815E+03  0.31468324452E+03  0.41800000000E+01 0. -1.
        -11    1    1    2    0    0  0.14301358844E+02 -0.82839710166E+01  0.13148879349E+02  0.21119802762E+02  0.00000000000E+00 0.  1.
         11    1    1    2    0    0 -0.92016458503E+01 -0.11677485662E+03  0.59880455265E+03  0.61015402129E+03  0.00000000000E+00 0. -1.
</event>
<event>
 7    1  0.2728221E-009  0.2271437E+03  0.7561462E-02  0.1128666E+00
          4   -1    0    0  501    0  0.00000000000E+00  0.00000000000E+00  0.83321539706E+03  0.83321539706E+03  0.00000000000E+00 0. -1.
         -4   -1    0    0    0  501 -0.00000000000E+00 -0.00000000000E+00 -0.62822869682E+02  0.62822869682E+02  0.00000000000E+00 0.  1.
         25    2    1    2    0    0  0.17627176677E+03  0.94600966457E+02  0.36448720153E+03  0.43418813035E+03  0.12508930347E+03 0.  0.
          5    1    3    3  502    0 -0.57859359937E+01  0.47215423821E+02  0.71530238315E+02  0.86004771352E+02  0.41800000000E+01 0.  1.
         -5    1    3    3    0  502  0.18205770276E+03  0.47385542636E+02  0.29295696321E+03  0.34818335899E+03  0.41800000000E+01 0.  1.
        -11    1    1    2    0    0  0.92471842348E+01 -0.12356923391E+02  0.47954764197E+02  0.50377210931E+02  0.00000000000E+00 0. -1.
         11    1    1    2    0    0 -0.18551895100E+03 -0.82244043066E+02  0.35795056165E+03  0.41147292546E+03  0.00000000000E+00 0.  1.
</event>
<event>
 7    1  0.2728221E-009  0.2114754E+03  0.7561462E-02  0.1140403E+00
          2   -1    0    0  501    0  0.00000000000E+00  0.00000000000E+00  0.90940149613E+03  0.90940149613E+03  0.00000000000E+00 0. -1.
         -2   -1    0    0    0  501 -0.00000000000E+00 -0.00000000000E+00 -0.53127387708E+02  0.53127387708E+02  0.00000000000E+00 0.  1.
         25    2    1    2    0    0  0.10478768027E+03  0.15754044590E+03  0.39335972872E+03  0.45406841685E+03  0.12508717351E+03 0.  0.
          5    1    3    3  502    0  0.40516747981E+02  0.15143542507E+03  0.23008720136E+03  0.27844548382E+03  0.41800000000E+01 0.  1.
         -5    1    3    3    0  502  0.64270932288E+02  0.61050208318E+01  0.16327252736E+03  0.17562293303E+03  0.41800000000E+01 0.  1.
        -11    1    1    2    0    0  0.28738719476E+01 -0.47157803058E+02  0.55743347810E+02  0.73071460601E+02  0.00000000000E+00 0.  1.
         11    1    1    2    0    0 -0.10766155222E+03 -0.11038264284E+03  0.40717103190E+03  0.43538900639E+03  0.00000000000E+00 0. -1.
</event>
<event>
 7    1  0.2728221E-009  0.8192873E+02  0.7561462E-02  0.1323665E+00
         -2   -1    0    0    0  501 -0.00000000000E+00  0.00000000000E+00  0.22078110624E+02  0.22078110624E+02  0.00000000000E+00 0.  1.
          2   -1    0    0  501    0  0.00000000000E+00 -0.00000000000E+00 -0.60701454112E+03  0.60701454112E+03  0.00000000000E+00 0. -1.
         25    2    1    2    0    0  0.26957583711E+02 -0.27995499867E+02 -0.35128943916E+03  0.37491444407E+03  0.12508441540E+03 0.  0.
          5    1    3    3  502    0 -0.16697002833E+02 -0.36437535037E+02 -0.29254039910E+02  0.49797139619E+02  0.41800000000E+01 0. -1.
         -5    1    3    3    0  502  0.43654586544E+02  0.84420351702E+01 -0.32203539925E+03  0.32511730445E+03  0.41800000000E+01 0. -1.
        -11    1    1    2    0    0 -0.22616626272E+02 -0.20311234730E+02 -0.23269449158E+02  0.38282179983E+02  0.00000000000E+00 0.  1.
         11    1    1    2    0    0 -0.43409574389E+01  0.48306734597E+02 -0.21037754218E+03  0.21589602769E+03  0.00000000000E+00 0. -1.
</event>
<event>
 7    1  0.2728221E-009  0.1055385E+03  0.7561462E-02  0.1269062E+00
         -2   -1    0    0    0  501 -0.00000000000E+00  0.00000000000E+00  0.28519564663E+02  0.28519564663E+02  0.00000000000E+00 0.  1.
          2   -1    0    0  501    0  0.00000000000E+00 -0.00000000000E+00 -0.56372753772E+03  0.56372753772E+03  0.00000000000E+00 0. -1.
         25    2    1    2    0    0 -0.52053291717E+02  0.45236980175E+02 -0.26631354071E+03  0.30220294727E+03  0.12509112606E+03 0.  0.
          5    1    3    3  502    0 -0.75159021995E+02  0.54140506688E+02 -0.26038329623E+03  0.27640008395E+03  0.41800000000E+01 0. -1.
         -5    1    3    3    0  502  0.23105730278E+02 -0.89035265129E+01 -0.59302444820E+01  0.25802863323E+02  0.41800000000E+01 0. -1.
        -11    1    1    2    0    0  0.22955003888E+02 -0.57311717379E+02 -0.94859796664E+02  0.11318103275E+03  0.00000000000E+00 0.  1.
         11    1    1    2    0    0  0.29098287829E+02  0.12074737204E+02 -0.17403463569E+03  0.17686312236E+03  0.00000000000E+00 0. -1.
</event>
<event>
 7    1  0.2728221E-009  0.1168448E+03  0.7561462E-02  0.1248395E+00
          2   -1    0    0  501    0  0.00000000000E+00  0.00000000000E+00  0.93102919667E+03  0.93102919667E+03  0.00000000000E+00 0. -1.
         -2   -1    0    0    0  501 -0.00000000000E+00 -0.00000000000E+00 -0.17913133153E+02  0.17913133153E+02  0.00000000000E+00 0.  1.
         25    2    1    2    0    0 -0.64745571976E+02  0.19203375969E+02  0.60680366148E+03  0.62323206260E+03  0.12508701587E+03 0.  0.
          5    1    3    3  502    0  0.24430563109E+02 -0.28836878390E+02  0.22539477418E+03  0.22857973357E+03  0.41800000000E+01 0.  1.
         -5    1    3    3    0  502 -0.89176135086E+02  0.48040254359E+02  0.38140888729E+03  0.39465232904E+03  0.41800000000E+01 0.  1.
        -11    1    1    2    0    0  0.32550787726E+02  0.23974082276E+02  0.22208870724E+03  0.22573813210E+03  0.00000000000E+00 0. -1.
         11    1    1    2    0    0  0.32194784251E+02 -0.43177458244E+02  0.84223694802E+02  0.99972135115E+02  0.00000000000E+00 0.  1.
</event>
<event>
 7    1  0.2728221E-009  0.9618319E+02  0.7561462E-02  0.1288533E+00
         -1   -1    0    0    0  501 -0.00000000000E+00  0.00000000000E+00  0.19350372669E+02  0.19350372669E+02  0.00000000000E+00 0.  1.
          1   -1    0    0  501    0  0.00000000000E+00 -0.00000000000E+00 -0.78457279097E+03  0.78457279097E+03  0.00000000000E+00 0. -1.
         25    2    1    2    0    0  0.56773553130E+02 -0.14482099159E+02 -0.42550221314E+03  0.44736289507E+03  0.12509380071E+03 0.  0.
          5    1    3    3  502    0 -0.11622888953E+02 -0.15117382713E+02 -0.35000496462E+01  0.19833042006E+02  0.41800000000E+01 0. -1.
         -5    1    3    3    0  502  0.68396442083E+02  0.63528355404E+00 -0.42200216349E+03  0.42752985307E+03  0.41800000000E+01 0. -1.
        -11    1    1    2    0    0 -0.41731126041E+02  0.50366158150E+02 -0.16354914636E+03  0.17614357792E+03  0.00000000000E+00 0.  1.
         11    1    1    2    0    0 -0.15042427089E+02 -0.35884058991E+02 -0.17617105880E+03  0.18041669064E+03  0.00000000000E+00 0. -1.
</event>
<event>
 7    1  0.2728221E-009  0.5720610E+02  0.7561462E-02  0.1409945E+00
          2   -1    0    0  501    0  0.00000000000E+00  0.00000000000E+00  0.24796772791E+03  0.24796772791E+03  0.00000000000E+00 0. -1.
         -2   -1    0    0    0  501 -0.00000000000E+00 -0.00000000000E+00 -0.51172744180E+02  0.51172744180E+02  0.00000000000E+00 0.  1.
         25    2    1    2    0    0  0.14034944830E+02  0.21100624422E+02  0.90774080972E+02  0.15660104974E+03  0.12506693798E+03 0.  0.
          5    1    3    3  502    0  0.12224220896E+02  0.30548842317E+02  0.12055101058E+03  0.12503072381E+03  0.41800000000E+01 0. -1.
         -5    1    3    3    0  502  0.18107239333E+01 -0.94482178947E+01 -0.29776929609E+02  0.31570325933E+02  0.41800000000E+01 0. -1.
        -11    1    1    2    0    0  0.26629416184E+02 -0.11289538703E+02  0.38902348619E+00  0.28926299966E+02  0.00000000000E+00 0.  1.
         11    1    1    2    0    0 -0.40664361014E+02 -0.98110857189E+01  0.10563187927E+03  0.11361312238E+03  0.00000000000E+00 0. -1.
</event>
<event>
 7    1  0.2728221E-009  0.8705676E+02  0.7561462E-02  0.1310140E+00
          2   -1    0    0  501    0  0.00000000000E+00  0.00000000000E+00  0.86212418030E+03  0.86212418030E+03  0.00000000000E+00 0.  1.
         -2   -1    0    0    0  501 -0.00000000000E+00 -0.00000000000E+00 -0.40244426769E+02  0.40244426769E+02  0.00000000000E+00 0. -1.
         25    2    1    2    0    0 -0.45572067464E+02  0.53000565537E+02  0.75680116398E+03  0.77024611616E+03  0.12508079138E+03 0.  0.
          5    1    3    3  502    0 -0.46187947016E+02  0.44410380363E+02  0.14750948157E+03  0.16087923385E+03  0.41800000000E+01 0. -1.
         -5    1    3    3    0  502  0.61587955221E+00  0.85901851746E+01  0.60929168242E+03  0.60936688231E+03  0.41800000000E+01 0. -1.
        -11    1    1    2    0    0 -0.19327221498E+02 -0.18831543245E+02  0.50624269418E+02  0.57367108747E+02  0.00000000000E+00 0.  1.
         11    1    1    2    0    0  0.64899288962E+02 -0.34169022292E+02  0.14454320131E+02  0.74755382165E+02  0.00000000000E+00 0. -1.
</event>
<event>
 7    1  0.2728221E-009  0.9798381E+02  0.7561462E-02  0.1284594E+00
         -1   -1    0    0    0  501 -0.00000000000E+00  0.00000000000E+00  0.20481922970E+03  0.20481922970E+03  0.00000000000E+00 0.  1.
          1   -1    0    0  501    0  0.00000000000E+00 -0.00000000000E+00 -0.85678623008E+02  0.85678623008E+02  0.00000000000E+00 0. -1.
         25    2    1    2    0    0 -0.18113747965E+02  0.48359030475E+02  0.39737235756E+01  0.13538454993E+03  0.12508589923E+03 0.  0.
          5    1    3    3  502    0 -0.71578331826E+02  0.21736786720E+02  0.81622318576E+01  0.75366039519E+02  0.41800000000E+01 0. -1.
         -5    1    3    3    0  502  0.53464583861E+02  0.26622243755E+02 -0.41885082819E+01  0.60018510408E+02  0.41800000000E+01 0. -1.
        -11    1    1    2    0    0  0.27667369262E+02 -0.38835394501E+02  0.12793934229E+03  0.13653624608E+03  0.00000000000E+00 0.  1.
         11    1    1    2    0    0 -0.95536212968E+01 -0.95236359738E+01 -0.12772459178E+02  0.18577056697E+02  0.00000000000E+00 0. -1.
</event>
<event>
 7    1  0.2728221E-009  0.1027675E+03  0.7561462E-02  0.1274582E+00
         -4   -1    0    0    0  501 -0.00000000000E+00  0.00000000000E+00  0.46754737081E+02  0.46754737081E+02  0.00000000000E+00 0.  1.
          4   -1    0    0  501    0  0.00000000000E+00 -0.00000000000E+00 -0.26962196272E+03  0.26962196272E+03  0.00000000000E+00 0. -1.
         25    2    1    2    0    0 -0.11024453768E+02  0.25238073352E+02 -0.11339245741E+03  0.17106663662E+03  0.12508975114E+03 0.  0.
          5    1    3    3  502    0 -0.58206946680E+02  0.24877366552E+02 -0.20285174309E+02  0.66602497739E+02  0.41800000000E+01 0. -1.
         -5    1    3    3    0  502  0.47182492912E+02  0.36070679960E+00 -0.93107283097E+02  0.10446413888E+03  0.41800000000E+01 0. -1.
        -11    1    1    2    0    0  0.24162125802E+02 -0.56156677516E+02 -0.79496881795E+02  0.10028526795E+03  0.00000000000E+00 0.  1.
         11    1    1    2    0    0 -0.13137672034E+02  0.30918604164E+02 -0.29977886436E+02  0.45024795225E+02  0.00000000000E+00 0. -1.
</event>
<event>
 7    1  0.2728221E-009  0.1176127E+03  0.7561462E-02  0.1247088E+00
         -2   -1    0    0    0  501 -0.00000000000E+00  0.00000000000E+00  0.14598739772E+02  0.14598739772E+02  0.00000000000E+00 0. -1.
          2   -1    0    0  501    0  0.00000000000E+00 -0.00000000000E+00 -0.10563581611E+04  0.10563581611E+04  0.00000000000E+00 0.  1.
         25    2    1    2    0    0  0.49003624680E+02  0.34135444822E+02 -0.64376553698E+03  0.65851956079E+03  0.12508941406E+03 0.  0.
          5    1    3    3  502    0 -0.25413568783E+02 -0.22733088737E+02 -0.30803802030E+03  0.30994763615E+03  0.41800000000E+01 0.  1.
         -5    1    3    3    0  502  0.74417193463E+02  0.56868533559E+02 -0.33572751668E+03  0.34857192464E+03  0.41800000000E+01 0.  1.
        -11    1    1    2    0    0  0.23736053331E+02 -0.23865790518E+02 -0.15342768071E+03  0.15707650809E+03  0.00000000000E+00 0.  1.
         11    1    1    2    0    0 -0.72739678011E+02 -0.10269654304E+02 -0.24456620365E+03  0.25536083201E+03  0.00000000000E+00 0. -1.
</event>
<event>
 7    1  0.2728221E-009  0.1905196E+03  0.7561462E-02  0.1157993E+00
         -2   -1    0    0    0  501 -0.00000000000E+00  0.00000000000E+00  0.91979463530E+02  0.91979463530E+02  0.00000000000E+00 0.  1.
          2   -1    0    0  501    0  0.00000000000E+00 -0.00000000000E+00 -0.43011126468E+03  0.43011126468E+03  0.00000000000E+00 0. -1.
         25    2    1    2    0    0  0.65971848479E+02 -0.14806274705E+03 -0.12749142002E+03  0.24119703157E+03  0.12508830483E+03 0.  0.
          5    1    3    3  502    0  0.51238913354E+02 -0.16845950540E+03 -0.95736153468E+02  0.20046674208E+03  0.41800000000E+01 0. -1.
         -5    1    3    3    0  502  0.14732935125E+02  0.20396758347E+02 -0.31755266550E+02  0.40730289492E+02  0.41800000000E+01 0. -1.
        -11    1    1    2    0    0 -0.45816663373E+02  0.15209794374E+03 -0.15653812592E+03  0.22301824141E+03  0.00000000000E+00 0.  1.
         11    1    1    2    0    0 -0.20155185105E+02 -0.40351966954E+01 -0.54102255213E+02  0.57875455230E+02  0.00000000000E+00 0. -1.
</event>
<event>
 7    1  0.2728221E-009  0.1303573E+03  0.7561462E-02  0.1226927E+00
          3   -1    0    0  501    0  0.00000000000E+00  0.00000000000E+00  0.15133214030E+04  0.15133214030E+04  0.00000000000E+00 0. -1.
         -3   -1    0    0    0  501 -0.00000000000E+00 -0.00000000000E+00 -0.16885377292E+02  0.16885377292E+02  0.00000000000E+00 0.  1.
         25    2    1    2    0    0 -0.86431370569E+02  0.17870455066E+02  0.12017443482E+04  0.12114564777E+04  0.12509030297E+03 0.  0.
          5    1    3    3  502    0  0.26426723922E+02 -0.86203662652E-01  0.91301531660E+02  0.95141059757E+02  0.41800000000E+01 0.  1.
         -5    1    3    3    0  502 -0.11285809449E+03  0.17956658729E+02  0.11104428165E+04  0.11163154179E+04  0.41800000000E+01 0.  1.
        -11    1    1    2    0    0 -0.12205411137E+02  0.11416102541E+02  0.24752687798E+02  0.29866285532E+02  0.00000000000E+00 0. -1.
         11    1    1    2    0    0  0.98636781706E+02 -0.29286557607E+02  0.26993898978E+03  0.28888401715E+03  0.00000000000E+00 0.  1.
</event>
<event>
 7    1  0.2728221E-009  0.1569358E+03  0.7561462E-02  0.1192200E+00
         -1   -1    0    0    0  501 -0.00000000000E+00  0.00000000000E+00  0.26631541273E+02  0.26631541273E+02  0.00000000000E+00 0.  1.
          1   -1    0    0  501    0  0.00000000000E+00 -0.00000000000E+00 -0.11662056119E+04  0.11662056119E+04  0.00000000000E+00 0. -1.
         25    2    1    2    0    0  0.41138009357E+02 -0.13495747110E+03 -0.66788488281E+03  0.69399113271E+03  0.12509045034E+03 0.  0.
          5    1    3    3  502    0  0.63414821613E+02 -0.12186777249E+03 -0.36570688880E+03  0.39068170483E+03  0.41800000000E+01 0.  1.
         -5    1    3    3    0  502 -0.22276812255E+02 -0.13089698607E+02 -0.30217799401E+03  0.30330942787E+03  0.41800000000E+01 0.  1.
        -11    1    1    2    0    0 -0.39680143284E+02  0.43861353565E+02 -0.10026048956E+03  0.11640660580E+03  0.00000000000E+00 0.  1.
         11    1    1    2    0    0 -0.14578660729E+01  0.91096117533E+02 -0.37142869828E+03  0.38243941469E+03  0.00000000000E+00 0. -1.
</event>
<event>
 7    1  0.2728221E-009  0.1207878E+03  0.7561462E-02  0.1241803E+00
          3   -1    0    0  501    0  0.00000000000E+00  0.00000000000E+00  0.77809513819E+03  0.77809513819E+03  0.00000000000E+00 0. -1.
         -3   -1    0    0    0  501 -0.00000000000E+00 -0.00000000000E+00 -0.24315071688E+02  0.24315071688E+02  0.00000000000E+00 0.  1.
         25    2    1    2    0    0 -0.68682797985E+02 -0.47180683036E+02  0.45855867267E+03  0.48256334796E+03  0.12509190591E+03 0.  0.
          5    1    3    3  502    0 -0.79696684260E+02 -0.11016013300E+02  0.13829983478E+03  0.16005383698E+03  0.41800000000E+01 0.  1.
         -5    1    3    3    0  502  0.11013886275E+02 -0.36164669736E+02  0.32025883789E+03  0.32250951098E+03  0.41800000000E+01 0.  1.
        -11    1    1    2    0    0 -0.17750992497E+02  0.29991922610E+02  0.78162491597E+02  0.85580302928E+02  0.00000000000E+00 0.  1.
         11    1    1    2    0    0  0.86433790482E+02  0.17188760426E+02  0.21705890223E+03  0.23426655899E+03  0.00000000000E+00 0. -1.
</event>
<event>
 7    1  0.2728221E-009  0.1290855E+03  0.7561462E-02  0.1228819E+00
         -2   -1    0    0    0  501 -0.00000000000E+00  0.00000000000E+00  0.43764769150E+02  0.43764769150E+02  0.00000000000E+00 0.  1.
          2   -1    0    0  501    0  0.00000000000E+00 -0.00000000000E+00 -0.43320082759E+03  0.43320082759E+03  0.00000000000E+00 0. -1.
         25    2    1    2    0    0 -0.79903965571E+02  0.85154713857E+01 -0.17361685131E+03  0.22858226680E+03  0.12509949908E+03 0.  0.
          5    1    3    3  502    0  0.47130564249E+01 -0.44440461420E+02 -0.31393662336E+02  0.54774099235E+02  0.41800000000E+01 0. -1.
         -5    1    3    3    0  502 -0.84617021996E+02  0.52955932806E+02 -0.14222318897E+03  0.17380816757E+03  0.41800000000E+01 0. -1.
        -11    1    1    2    0    0  0.49666713713E+02 -0.44282805640E+02 -0.17127834535E+03  0.18374988683E+03  0.00000000000E+00 0.  1.
         11    1    1    2    0    0  0.30237251858E+02  0.35767334254E+02 -0.44540861786E+02  0.64633443110E+02  0.00000000000E+00 0. -1.
</event>
<event>
 7    1  0.2728221E-009  0.1173875E+03  0.7561462E-02  0.1247470E+00
          3   -1    0    0  501    0  0.00000000000E+00  0.00000000000E+00  0.19795766960E+03  0.19795766960E+03  0.00000000000E+00 0. -1.
         -3   -1    0    0    0  501 -0.00000000000E+00 -0.00000000000E+00 -0.85958428004E+02  0.85958428004E+02  0.00000000000E+00 0.  1.
         25    2    1    2    0    0  0.53475182933E+02 -0.43761297070E+02  0.87781999961E+02  0.16771368210E+03  0.12509018081E+03 0.  0.
          5    1    3    3  502    0  0.64994902797E+02 -0.79996228420E+02  0.52824060831E+02  0.11589472703E+03  0.41800000000E+01 0. -1.
         -5    1    3    3    0  502 -0.11519719865E+02  0.36234931351E+02  0.34957939130E+02  0.51818955064E+02  0.41800000000E+01 0. -1.
        -11    1    1    2    0    0 -0.22406794817E+02  0.55736038936E+02  0.46647026676E+02  0.76056002971E+02  0.00000000000E+00 0. -1.
         11    1    1    2    0    0 -0.31068388116E+02 -0.11974741867E+02 -0.22429785038E+02  0.40146412539E+02  0.00000000000E+00 0.  1.
</event>
<event>
 7    1  0.2728221E-009  0.2077745E+03  0.7561462E-02  0.1143341E+00
          3   -1    0    0  501    0  0.00000000000E+00  0.00000000000E+00  0.75403311657E+02  0.75403311657E+02  0.00000000000E+00 0. -1.
         -3   -1    0    0    0  501 -0.00000000000E+00 -0.00000000000E+00 -0.60895602349E+03  0.60895602349E+03  0.00000000000E+00 0.  1.
         25    2    1    2    0    0 -0.13300891259E+03 -0.12323420847E+03 -0.29500338898E+03  0.36817384036E+03  0.12508771423E+03 0.  0.
          5    1    3    3  502    0 -0.13703925134E+03 -0.48722855258E+02 -0.19141186944E+03  0.24043637245E+03  0.41800000000E+01 0. -1.
         -5    1    3    3    0  502  0.40303387573E+01 -0.74511353213E+02 -0.10359151954E+03  0.12773746791E+03  0.41800000000E+01 0. -1.
        -11    1    1    2    0    0 -0.70667179573E+00  0.35218377208E+02 -0.94428547050E+02  0.10078484001E+03  0.00000000000E+00 0.  1.
         11    1    1    2    0    0  0.13371558438E+03  0.88015831264E+02 -0.14412077581E+03  0.21540065478E+03  0.00000000000E+00 0. -1.
</event>
<event>
 7    1  0.3932735E-009  0.1287183E+03  0.7561462E-02  0.1229370E+00
         -2   -1    0    0    0  501 -0.00000000000E+00  0.00000000000E+00  0.43860440377E+02  0.43860440377E+02  0.00000000000E+00 0.  1.
          2   -1    0    0  501    0  0.00000000000E+00 -0.00000000000E+00 -0.59377117321E+03  0.59377117321E+03  0.00000000000E+00 0. -1.
         25    2    1    2    0    0 -0.22302239217E+02  0.82722619149E+02 -0.45693628448E+03  0.48143201568E+03  0.12508235709E+03 0.  0.
          5    1    3    3  502    0  0.22722069557E+02  0.85986787456E+02 -0.18008406872E+03  0.20089241964E+03  0.41800000000E+01 0.  1.
         -5    1    3    3    0  502 -0.45024308774E+02 -0.32641683073E+01 -0.27685221575E+03  0.28053959603E+03  0.41800000000E+01 0.  1.
        -11    1    1    2    0    0  0.56614459008E+02 -0.55292552962E+02 -0.74013614067E+02  0.10835348840E+03  0.00000000000E+00 0. -1.
         11    1    1    2    0    0 -0.34312219790E+02 -0.27430066187E+02 -0.18960834288E+02  0.47846109506E+02  0.00000000000E+00 0.  1.
</event>
<event>
 7    1  0.2728221E-009  0.1318222E+03  0.7561462E-02  0.1224777E+00
         -2   -1    0    0    0  501 -0.00000000000E+00  0.00000000000E+00  0.37355782871E+03  0.37355782871E+03  0.00000000000E+00 0.  1.
          2   -1    0    0  501    0  0.00000000000E+00 -0.00000000000E+00 -0.71955636015E+02  0.71955636015E+02  0.00000000000E+00 0. -1.
         25    2    1    2    0    0 -0.33820897240E+02 -0.68775267344E+02  0.59824692608E+02  0.15843535529E+03  0.12509547343E+03 0.  0.
          5    1    3    3  502    0 -0.70602159602E+02 -0.18440410889E+02  0.17178161451E+01  0.73110443758E+02  0.41800000000E+01 0. -1.
         -5    1    3    3    0  502  0.36781262362E+02 -0.50334856455E+02  0.58106876463E+02  0.85324911530E+02  0.41800000000E+01 0. -1.
        -11    1    1    2    0    0  0.23162051590E+02 -0.24775804314E+02  0.15620858156E+03  0.15984818443E+03  0.00000000000E+00 0.  1.
         11    1    1    2    0    0  0.10658845650E+02  0.93551071658E+02  0.85568918528E+02  0.12722992501E+03  0.00000000000E+00 0. -1.
</event>
<event>
 7    1  0.2728221E-009  0.8683438E+02  0.7561462E-02  0.1310704E+00
          1   -1    0    0  501    0  0.00000000000E+00  0.00000000000E+00  0.37601190437E+03  0.37601190437E+03  0.00000000000E+00 0.  1.
         -1   -1    0    0    0  501 -0.00000000000E+00 -0.00000000000E+00 -0.50949596985E+02  0.50949596985E+02  0.00000000000E+00 0. -1.
         25    2    1    2    0    0 -0.30128534744E+02 -0.20082481455E+02  0.29930680090E+03  0.32640731306E+03  0.12508452458E+03 0.  0.
          5    1    3    3  502    0  0.45615779947E+02  0.10375681217E+02  0.86291974583E+02  0.98245770486E+02  0.41800000000E+01 0.  1.
         -5    1    3    3    0  502 -0.75744314691E+02 -0.30458162672E+02  0.21301482632E+03  0.22816154258E+03  0.41800000000E+01 0.  1.
        -11    1    1    2    0    0 -0.13166791395E+01  0.12552613671E+02  0.55319910794E+02  0.56741468823E+02  0.00000000000E+00 0.  1.
         11    1    1    2    0    0  0.31445213884E+02  0.75298677839E+01 -0.29564404308E+02  0.43812719468E+02  0.00000000000E+00 0. -1.
</event>
<event>
 7    1  0.2728221E-009  0.8441429E+02  0.7561462E-02  0.1316971E+00
         -1   -1    0    0    0  501 -0.00000000000E+00  0.00000000000E+00  0.32936465886E+03  0.32936465886E+03  0.00000000000E+00 0.  1.
          1   -1    0    0  501    0  0.00000000000E+00 -0.00000000000E+00 -0.47336011403E+02  0.47336011403E+02  0.00000000000E+00 0. -1.
         25    2    1    2    0    0 -0.23658574564E+02  0.23903542885E+02  0.78461676782E+02  0.15144345295E+03  0.12509107564E+03 0.  0.
          5    1    3    3  502    0 -0.18365406511E+02  0.57950414629E+02 -0.49135628960E+01  0.61132268176E+02  0.41800000000E+01 0. -1.
         -5    1    3    3    0  502 -0.52931680535E+01 -0.34046871744E+02  0.83375239678E+02  0.90311184772E+02  0.41800000000E+01 0. -1.
        -11    1    1    2    0    0  0.22702016333E+02 -0.45879438784E+02  0.19507315819E+03  0.20167756815E+03  0.00000000000E+00 0.  1.
         11    1    1    2    0    0  0.95655823100E+00  0.21975895898E+02  0.84938124844E+01  0.23579649164E+02  0.00000000000E+00 0. -1.
</event>
<event>
 7    1  0.2728221E-009  0.1195956E+03  0.7561462E-02  0.1243766E+00
         -4   -1    0    0    0  501 -0.00000000000E+00  0.00000000000E+00  0.22917180376E+02  0.22917180376E+02  0.00000000000E+00 0.  1.
          4   -1    0    0  501    0  0.00000000000E+00 -0.00000000000E+00 -0.82840386523E+03  0.82840386523E+03  0.00000000000E+00 0. -1.
         25    2    1    2    0    0 -0.27720288388E+02  0.67078400310E+02 -0.57424795344E+03  0.59217844504E+03  0.12508666024E+03 0.  0.
          5    1    3    3  502    0 -0.20968261797E+02 -0.34083745038E+02 -0.22153298040E+03  0.22515706403E+03  0.41800000000E+01 0.  1.
         -5    1    3    3    0  502 -0.67520265913E+01  0.10116214535E+03 -0.35271497304E+03  0.36702138101E+03  0.41800000000E+01 0.  1.
        -11    1    1    2    0    0 -0.21499377826E+02 -0.19451679518E+02 -0.15673093783E+02  0.32958109044E+02  0.00000000000E+00 0.  1.
         11    1    1    2    0    0  0.49219666214E+02 -0.47626720791E+02 -0.21556563763E+03  0.22618449152E+03  0.00000000000E+00 0. -1.
</event>
<event>
 7    1  0.2728221E-009  0.9988981E+02  0.7561462E-02  0.1280528E+00
         -1   -1    0    0    0  501 -0.00000000000E+00  0.00000000000E+00  0.93613280576E+02  0.93613280576E+02  0.00000000000E+00 0.  1.
          1   -1    0    0  501    0  0.00000000000E+00 -0.00000000000E+00 -0.19318371995E+03  0.19318371995E+03  0.00000000000E+00 0. -1.
         25    2    1    2    0    0 -0.66512220244E+02 -0.22020014930E+02 -0.13897495284E+02  0.14404931941E+03  0.12509320345E+03 0.  0.
          5    1    3    3  502    0 -0.19258286399E+02  0.43778646640E+02 -0.35962773880E+02  0.59985373232E+02  0.41800000000E+01 0. -1.
         -5    1    3    3    0  502 -0.47253933844E+02 -0.65798661570E+02  0.22065278596E+02  0.84063946182E+02  0.41800000000E+01 0. -1.
        -11    1    1    2    0    0  0.24385399196E+02  0.12755776176E+02  0.16329563652E+02  0.32000190138E+02  0.00000000000E+00 0.  1.
         11    1    1    2    0    0  0.42126821048E+02  0.92642387534E+01 -0.10200250774E+03  0.11074749097E+03  0.00000000000E+00 0. -1.
</event>
<event>
 7    1  0.2728221E-009  0.1172487E+03  0.7561462E-02  0.1247706E+00
          1   -1    0    0  501    0  0.00000000000E+00  0.00000000000E+00  0.30170541246E+02  0.30170541246E+02  0.00000000000E+00 0. -1.
         -1   -1    0    0    0  501 -0.00000000000E+00 -0.00000000000E+00 -0.78778562368E+03  0.78778562368E+03  0.00000000000E+00 0.  1.
         25    2    1    2    0    0 -0.30212198288E+02  0.78895441856E+02 -0.59984314366E+03  0.61854402117E+03  0.12509053306E+03 0.  0.
          5    1    3    3  502    0 -0.35933791559E+02  0.93333559559E+02 -0.26437633161E+03  0.28269189559E+03  0.41800000000E+01 0.  1.
         -5    1    3    3    0  502  0.57215932711E+01 -0.14438117703E+02 -0.33546681204E+03  0.33585212558E+03  0.41800000000E+01 0.  1.
        -11    1    1    2    0    0  0.13475793005E+02 -0.94485909634E+02 -0.10499132683E+03  0.14188855777E+03  0.00000000000E+00 0.  1.
         11    1    1    2    0    0  0.16736405283E+02  0.15590467778E+02 -0.52780611937E+02  0.57523585979E+02  0.00000000000E+00 0. -1.
</event>
<event>
 7    1  0.2728221E-009  0.9730442E+02  0.7561462E-02  0.1286069E+00
          1   -1    0    0  501    0  0.00000000000E+00  0.00000000000E+00  0.19622354848E+03  0.19622354848E+03  0.00000000000E+00 0.  1.
         -1   -1    0    0    0  501 -0.00000000000E+00 -0.00000000000E+00 -0.89448725454E+02  0.89448725454E+02  0.00000000000E+00 0. -1.
         25    2    1    2    0    0 -0.47833828530E+02 -0.49110782948E+02  0.23694101347E+02  0.14460507325E+03  0.12509705280E+03 0.  0.
          5    1    3    3  502    0 -0.64912126200E+01 -0.66568585994E+02  0.57469792007E+02  0.88282285176E+02  0.41800000000E+01 0. -1.
         -5    1    3    3    0  502 -0.41342615910E+02  0.17457803045E+02 -0.33775690660E+02  0.56322788079E+02  0.41800000000E+01 0. -1.
        -11    1    1    2    0    0  0.13177016253E+02  0.45857509419E+02  0.93297098728E+02  0.10478975884E+03  0.00000000000E+00 0.  1.
         11    1    1    2    0    0  0.34656812277E+02  0.32532735299E+01 -0.10216377052E+02  0.36277441833E+02  0.00000000000E+00 0. -1.
</event>
<event>
 7    1  0.2728221E-009  0.1880408E+03  0.7561462E-02  0.1160240E+00
          2   -1    0    0  501    0  0.00000000000E+00  0.00000000000E+00  0.10514461603E+03  0.10514461603E+03  0.00000000000E+00 0. -1.
         -2   -1    0    0    0  501 -0.00000000000E+00 -0.00000000000E+00 -0.62910794240E+03  0.62910794240E+03  0.00000000000E+00 0.  1.
         25    2    1    2    0    0  0.18187774135E+03  0.45866514412E+02 -0.46758249006E+03  0.51909914590E+03  0.12508912149E+03 0.  0.
          5    1    3    3  502    0  0.84035172110E+02  0.29433660884E+02 -0.36733435902E+03  0.37799504529E+03  0.41800000000E+01 0.  1.
         -5    1    3    3    0  502  0.97842569245E+02  0.16432853529E+02 -0.10024813104E+03  0.14110410061E+03  0.41800000000E+01 0.  1.
        -11    1    1    2    0    0 -0.41281552452E+02 -0.82073678784E+01 -0.55428699310E+02  0.69597903471E+02  0.00000000000E+00 0.  1.
         11    1    1    2    0    0 -0.14059618890E+03 -0.37659146534E+02 -0.95213700003E+00  0.14555550906E+03  0.00000000000E+00 0. -1.
</event>
<event>
 7    1  0.2728221E-009  0.8728006E+02  0.7561462E-02  0.1309575E+00
         -2   -1    0    0    0  501 -0.00000000000E+00  0.00000000000E+00  0.32487769922E+02  0.32487769922E+02  0.00000000000E+00 0. -1.
          2   -1    0    0  501    0  0.00000000000E+00 -0.00000000000E+00 -0.42078657322E+03  0.42078657322E+03  0.00000000000E+00 0.  1.
         25    2    1    2    0    0 -0.11144940704E+02 -0.24114416589E+02 -0.29934187087E+03  0.32551306081E+03  0.12508989691E+03 0.  0.
          5    1    3    3  502    0  0.50990789252E+02  0.51417180608E+01 -0.75591630604E+02  0.91422452770E+02  0.41800000000E+01 0.  1.
         -5    1    3    3    0  502 -0.62135729956E+02 -0.29256134650E+02 -0.22375024027E+03  0.23409060804E+03  0.41800000000E+01 0.  1.
        -11    1    1    2    0    0  0.28004466337E+02  0.43235951773E+01  0.62932615090E+01  0.29026690312E+02  0.00000000000E+00 0. -1.
         11    1    1    2    0    0 -0.16859525633E+02  0.19790821412E+02 -0.95250193939E+02  0.98734592024E+02  0.00000000000E+00 0.  1.
</event>
<event>
 7    1  0.2728221E-009  0.2168088E+03  0.7561462E-02  0.1136285E+00
         -1   -1    0    0    0  501 -0.00000000000E+00  0.00000000000E+00  0.10630710822E+03  0.10630710822E+03  0.00000000000E+00 0. -1.
          1   -1    0    0  501    0  0.00000000000E+00 -0.00000000000E+00 -0.47453332781E+03  0.47453332781E+03  0.00000000000E+00 0.  1.
         25    2    1    2    0    0  0.18125928989E+03 -0.75967770238E+02 -0.19346327008E+03  0.30282113520E+03  0.12508625332E+03 0.  0.
          5    1    3    3  502    0  0.12262966899E+03 -0.10760603438E+03 -0.11417242583E+03  0.19917306437E+03  0.41800000000E+01 0. -1.
         -5    1    3    3    0  502  0.58629620897E+02  0.31638264141E+02 -0.79290844258E+02  0.10364807083E+03  0.41800000000E+01 0. -1.
        -11    1    1    2    0    0 -0.84381732031E+02  0.68530040951E+01 -0.12040183324E+03  0.14718641858E+03  0.00000000000E+00 0.  1.
         11    1    1    2    0    0 -0.96877557855E+02  0.69114766143E+02 -0.54361116258E+02  0.13083288224E+03  0.00000000000E+00 0. -1.
</event>
<event>
 7    1  0.3823083E-009  0.1439644E+03  0.7561462E-02  0.1208092E+00
          1   -1    0    0  501    0  0.00000000000E+00  0.00000000000E+00  0.45348462063E+03  0.45348462063E+03  0.00000000000E+00 0. -1.
         -1   -1    0    0    0  501 -0.00000000000E+00 -0.00000000000E+00 -0.66710872064E+02  0.66710872064E+02  0.00000000000E+00 0.  1.
         25    2    1    2    0    0 -0.90837432816E+02 -0.67933702838E+02  0.93927873578E+02  0.19322361140E+03  0.12508593601E+03 0.  0.
          5    1    3    3  502    0  0.18354788568E+02 -0.55657937826E+02  0.28948130638E+02  0.65499396744E+02  0.41800000000E+01 0. -1.
         -5    1    3    3    0  502 -0.10919222138E+03 -0.12275765013E+02  0.64979742940E+02  0.12772421466E+03  0.41800000000E+01 0. -1.
        -11    1    1    2    0    0  0.41140873146E+02  0.53450248219E+02  0.25246613806E+03  0.26132097379E+03  0.00000000000E+00 0.  1.
         11    1    1    2    0    0  0.49696559670E+02  0.14483454619E+02  0.40379736923E+02  0.65650907493E+02  0.00000000000E+00 0. -1.
</event>
<event>
 7    1  0.2728221E-009  0.2469827E+03  0.7561462E-02  0.1115227E+00
          2   -1    0    0  501    0  0.00000000000E+00  0.00000000000E+00  0.72462466360E+03  0.72462466360E+03  0.00000000000E+00 0. -1.
         -2   -1    0    0    0  501 -0.00000000000E+00 -0.00000000000E+00 -0.92400764973E+02  0.92400764973E+02  0.00000000000E+00 0.  1.
         25    2    1    2    0    0 -0.23290548013E+03 -0.67944635198E+01  0.27415776376E+03  0.38092169189E+03  0.12509088100E+03 0.  0.
          5    1    3    3  502    0 -0.18359576606E+03 -0.44217765214E+02  0.14670724015E+03  0.23917170148E+03  0.41800000000E+01 0. -1.
         -5    1    3    3    0  502 -0.49309714070E+02  0.37423301694E+02  0.12745052361E+03  0.14174999041E+03  0.41800000000E+01 0. -1.
        -11    1    1    2    0    0  0.21695110176E+03 -0.13316085960E+02  0.34376627340E+03  0.40671900549E+03  0.00000000000E+00 0. -1.
         11    1    1    2    0    0  0.15954378368E+02  0.20110549479E+02  0.14299861469E+02  0.29384731196E+02  0.00000000000E+00 0.  1.
</event>
<event>
 6    1  0.2728221E-009  0.2253593E+03  0.7561462E-02  0.1129949E+00
          1   -1    0    0  501    0  0.00000000000E+00  0.00000000000E+00  0.14962389303E+04  0.14962389303E+04  0.00000000000E+00 0. -1.
         -1   -1    0    0    0  501 -0.00000000000E+00 -0.00000000000E+00 -0.38108436970E+02  0.38108436970E+02  0.00000000000E+00 0.  1.
          5    1    1    2  502    0  0.23923047492E+02  0.74248653063E+02  0.39608880629E+03  0.40371894871E+03  0.41800000000E+01 0.  1.
         -5    1    1    2    0  502  0.14287412778E+03  0.57373156092E+02  0.35986410228E+03  0.39143880741E+03  0.41800000000E+01 0.  1.
        -11    1    1    2    0    0 -0.70704861293E+02 -0.24876227925E+02  0.13826842807E+03  0.15727734207E+03  0.00000000000E+00 0.  1.
         11    1    1    2    0    0 -0.96092313983E+02 -0.10674558123E+03  0.56390915671E+03  0.58191226911E+03  0.00000000000E+00 0. -1.
</event>
<event>
 7    1  0.2728221E-009  0.2478578E+03  0.7561462E-02  0.1114666E+00
          2   -1    0    0  501    0  0.00000000000E+00  0.00000000000E+00  0.44039595790E+03  0.44039595790E+03  0.00000000000E+00 0. -1.
         -2   -1    0    0    0  501 -0.00000000000E+00 -0.00000000000E+00 -0.14995184666E+03  0.14995184666E+03  0.00000000000E+00 0.  1.
         25    2    1    2    0    0 -0.20907892948E+03  0.98482432563E+02  0.11967860199E+03  0.28876081581E+03  0.12508817966E+03 0.  0.
          5    1    3    3  502    0 -0.96203962370E+02  0.11144811294E+03  0.84221144162E+02  0.16966601833E+03  0.41800000000E+01 0.  1.
         -5    1    3    3    0  502 -0.11287496711E+03 -0.12965680377E+02  0.35457457832E+02  0.11909479747E+03  0.41800000000E+01 0. -1.
        -11    1    1    2    0    0  0.50971929150E+02 -0.44507630844E+02  0.98632529760E+02  0.11961372284E+03  0.00000000000E+00 0.  1.
         11    1    1    2    0    0  0.15810700033E+03 -0.53974801719E+02  0.72132979486E+02  0.18197326591E+03  0.00000000000E+00 0. -1.
</event>
<event>
 7    1  0.2728221E-009  0.1145690E+03  0.7561462E-02  0.1252335E+00
         -2   -1    0    0    0  501 -0.00000000000E+00  0.00000000000E+00  0.28821473270E+02  0.28821473270E+02  0.00000000000E+00 0. -1.
          2   -1    0    0  501    0  0.00000000000E+00 -0.00000000000E+00 -0.48327719217E+03  0.48327719217E+03  0.00000000000E+00 0.  1.
         25    2    1    2    0    0  0.11358293308E+02  0.45317199965E+02 -0.27506540890E+03  0.30576764298E+03  0.12510081088E+03 0.  0.
          5    1    3    3  502    0  0.40987314840E+02  0.75453857083E+02 -0.14104979860E+03  0.16518402650E+03  0.41800000000E+01 0.  1.
         -5    1    3    3    0  502 -0.29629021532E+02 -0.30136657118E+02 -0.13401561029E+03  0.14058361648E+03  0.41800000000E+01 0.  1.
        -11    1    1    2    0    0  0.35776210603E+02 -0.39361633631E+02 -0.11064473707E+03  0.12276617323E+03  0.00000000000E+00 0.  1.
         11    1    1    2    0    0 -0.47134503911E+02 -0.59555663339E+01 -0.68745572931E+02  0.83564849231E+02  0.00000000000E+00 0. -1.
</event>
<event>
 7    1  0.2728221E-009  0.1100317E+03  0.7561462E-02  0.1260511E+00
         -1   -1    0    0    0  501 -0.00000000000E+00  0.00000000000E+00  0.75436637789E+02  0.75436637789E+02  0.00000000000E+00 0.  1.
          1   -1    0    0  501    0  0.00000000000E+00 -0.00000000000E+00 -0.19384299448E+03  0.19384299448E+03  0.00000000000E+00 0. -1.
         25    2    1    2    0    0  0.54414992247E+02 -0.21886392472E+01 -0.60340684590E+02  0.14917769800E+03  0.12508879182E+03 0.  0.
          5    1    3    3  502    0 -0.40104610049E+02 -0.50580840995E+01 -0.27144954380E+02  0.48870081955E+02  0.41800000000E+01 0.  1.
         -5    1    3    3    0  502  0.94519602296E+02  0.28694448523E+01 -0.33195730210E+02  0.10030761604E+03  0.41800000000E+01 0.  1.
        -11    1    1    2    0    0 -0.36740126139E+02  0.32911670761E+02  0.30845850942E+01  0.49421954699E+02  0.00000000000E+00 0.  1.
         11    1    1    2    0    0 -0.17674866108E+02 -0.30723031514E+02 -0.61150257200E+02  0.70679979577E+02  0.00000000000E+00 0. -1.
</event>
<event>
 7    1  0.2728221E-009  0.1025360E+03  0.7561462E-02  0.1275052E+00
          1   -1    0    0  501    0  0.00000000000E+00  0.00000000000E+00  0.18099468353E+03  0.18099468353E+03  0.00000000000E+00 0. -1.
         -1   -1    0    0    0  501 -0.00000000000E+00 -0.00000000000E+00 -0.14093212415E+03  0.14093212415E+03  0.00000000000E+00 0.  1.
         25    2    1    2    0    0  0.32899224524E+02 -0.13156768584E+02 -0.90750061532E+02  0.15854866785E+03  0.12508655753E+03 0.  0.
          5    1    3    3  502    0  0.68899658784E+02  0.19867125288E+02 -0.81530454158E+02  0.10865796337E+03  0.41800000000E+01 0. -1.
         -5    1    3    3    0  502 -0.36000434260E+02 -0.33023893872E+02 -0.92196073741E+01  0.49890704480E+02  0.41800000000E+01 0. -1.
        -11    1    1    2    0    0 -0.32685881787E+02 -0.28009452368E+02  0.10811432803E+03  0.11636839870E+03  0.00000000000E+00 0. -1.
         11    1    1    2    0    0 -0.21334273734E+00  0.41166220952E+02  0.22698292883E+02  0.47009741144E+02  0.00000000000E+00 0.  1.
</event>
<event>
 7    1  0.2728221E-009  0.2124797E+03  0.7561462E-02  0.1139617E+00
         -2   -1    0    0    0  501 -0.00000000000E+00  0.00000000000E+00  0.18912455191E+03  0.18912455191E+03  0.00000000000E+00 0.  1.
          2   -1    0    0  501    0  0.00000000000E+00 -0.00000000000E+00 -0.38477569542E+03  0.38477569542E+03  0.00000000000E+00 0. -1.
         25    2    1    2    0    0 -0.17361744573E+03 -0.55715527590E+02 -0.26758626985E+03  0.34713299470E+03  0.12510662144E+03 0.  0.
          5    1    3    3  502    0 -0.17377068023E+03 -0.15052822334E+02 -0.18108733053E+03  0.25146158841E+03  0.41800000000E+01 0.  1.
         -5    1    3    3    0  502  0.15323450253E+00 -0.40662705256E+02 -0.86498939315E+02  0.95671406294E+02  0.41800000000E+01 0.  1.
        -11    1    1    2    0    0  0.11586555357E+03  0.86099531950E+02  0.72436195593E+02  0.16150838473E+03  0.00000000000E+00 0.  1.
         11    1    1    2    0    0  0.57751892160E+02 -0.30384004360E+02 -0.50106926579E+00  0.65258867899E+02  0.00000000000E+00 0. -1.
</event>
<event>
 7    1  0.2728221E-009  0.9616720E+02  0.7561462E-02  0.1288569E+00
         -1   -1    0    0    0  501 -0.00000000000E+00  0.00000000000E+00  0.29843725977E+02  0.29843725977E+02  0.00000000000E+00 0.  1.
          1   -1    0    0  501    0  0.00000000000E+00 -0.00000000000E+00 -0.67161522798E+03  0.67161522798E+03  0.00000000000E+00 0. -1.
         25    2    1    2    0    0  0.34201160741E+01 -0.75207437820E+02 -0.47795220460E+03  0.49975331936E+03  0.12508882615E+03 0.  0.
          5    1    3    3  502    0  0.24934722857E+02 -0.32598036582E+02 -0.42996572393E+03  0.43194023724E+03  0.41800000000E+01 0.  1.
         -5    1    3    3    0  502 -0.21514606782E+02 -0.42609401238E+02 -0.47986480668E+02  0.67813082114E+02  0.41800000000E+01 0.  1.
        -11    1    1    2    0    0  0.33360617196E+02  0.41771754188E+02 -0.35703213417E+02  0.64284754616E+02  0.00000000000E+00 0.  1.
         11    1    1    2    0    0 -0.36780733271E+02  0.33435683632E+02 -0.12811608399E+03  0.13742087999E+03  0.00000000000E+00 0. -1.
</event>
<event>
 7    1  0.2728221E-009  0.1316238E+03  0.7561462E-02  0.1225066E+00
         -1   -1    0    0    0  501 -0.00000000000E+00  0.00000000000E+00  0.31992546585E+03  0.31992546585E+03  0.00000000000E+00 0.  1.
          1   -1    0    0  501    0  0.00000000000E+00 -0.00000000000E+00 -0.85729709684E+02  0.85729709684E+02  0.00000000000E+00 0. -1.
         25    2    1    2    0    0 -0.31990161456E+02  0.11800819585E+03  0.10226948406E+03  0.20262569341E+03  0.12509524189E+03 0.  0.
          5    1    3    3  502    0 -0.18006328346E+02  0.10150812088E+03  0.54387126791E+01  0.10332075523E+03  0.41800000000E+01 0. -1.
         -5    1    3    3    0  502 -0.13983833110E+02  0.16500074970E+02  0.96830771380E+02  0.99304938187E+02  0.41800000000E+01 0. -1.
        -11    1    1    2    0    0 -0.96801356488E+01 -0.83155408819E+02  0.12175795714E+03  0.14776172430E+03  0.00000000000E+00 0.  1.
         11    1    1    2    0    0  0.41670297104E+02 -0.34852787030E+02  0.10168314965E+02  0.55267757814E+02  0.00000000000E+00 0. -1.
</event>
<event>
 7    1  0.2728221E-009  0.1174116E+03  0.7561462E-02  0.1247429E+00
          2   -1    0    0  501    0  0.00000000000E+00  0.00000000000E+00  0.29613991289E+02  0.29613991289E+02  0.00000000000E+00 0. -1.
         -2   -1    0    0    0  501 -0.00000000000E+00 -0.00000000000E+00 -0.69163406996E+03  0.69163406996E+03  0.00000000000E+00 0.  1.
         25    2    1    2    0    0  0.54961367199E+01  0.66662384973E+02 -0.52469280094E+03  0.54352816851E+03  0.12508498518E+03 0.  0.
          5    1    3    3  502    0 -0.44077123024E+02  0.76606020644E+02 -0.28062641763E+03  0.29424468363E+03  0.41800000000E+01 0. -1.
         -5    1    3    3    0  502  0.49573259743E+02 -0.99436356708E+01 -0.24406638331E+03  0.24928348488E+03  0.41800000000E+01 0. -1.
        -11    1    1    2    0    0  0.26972893081E+02 -0.54733717147E+02 -0.36450201159E+02  0.71076957718E+02  0.00000000000E+00 0. -1.
         11    1    1    2    0    0 -0.32469029801E+02 -0.11928667827E+02 -0.10087707657E+03  0.10664293502E+03  0.00000000000E+00 0.  1.
</event>
<event>
 7    1  0.3290028E-009  0.1628820E+03  0.7561462E-02  0.1185481E+00
         -2   -1    0    0    0  501 -0.00000000000E+00  0.00000000000E+00  0.38174869173E+02  0.38174869173E+02  0.00000000000E+00 0.  1.
          2   -1    0    0  501    0  0.00000000000E+00 -0.00000000000E+00 -0.80845221869E+03  0.80845221869E+03  0.00000000000E+00 0. -1.
         25    2    1    2    0    0 -0.11804471947E+03 -0.66839997248E+02 -0.46219708336E+03  0.49767035607E+03  0.12508996131E+03 0.  0.
          5    1    3    3  502    0  0.36860495569E+01 -0.48789877724E+02 -0.62782706410E+02  0.79706836305E+02  0.41800000000E+01 0.  1.
         -5    1    3    3    0  502 -0.12173076902E+03 -0.18050119524E+02 -0.39941437695E+03  0.41796351976E+03  0.41800000000E+01 0.  1.
        -11    1    1    2    0    0 -0.33482640024E+01  0.24849414127E+02 -0.15645341598E+02  0.29554711435E+02  0.00000000000E+00 0.  1.
         11    1    1    2    0    0  0.12139298347E+03  0.41990583121E+02 -0.29243492456E+03  0.31940202036E+03  0.00000000000E+00 0. -1.
</event>
<event>
 7    1  0.2728221E-009  0.1629406E+03  0.7561462E-02  0.1185416E+00
         -2   -1    0    0    0  501 -0.00000000000E+00  0.00000000000E+00  0.80135770547E+02  0.80135770547E+02  0.00000000000E+00 0.  1.
          2   -1    0    0  501    0  0.00000000000E+00 -0.00000000000E+00 -0.42567702970E+03  0.42567702970E+03  0.00000000000E+00 0. -1.
         25    2    1    2    0    0  0.10822725794E+03  0.88309060516E+02 -0.11764530745E+03  0.22135748037E+03  0.12508831368E+03 0.  0.
          5    1    3    3  502    0  0.76371945424E+02 -0.14646333482E+02 -0.34495176655E+02  0.85173814901E+02  0.41800000000E+01 0.  1.
         -5    1    3    3    0  502  0.31855312515E+02  0.10295539400E+03 -0.83150130794E+02  0.13618366547E+03  0.41800000000E+01 0.  1.
        -11    1    1    2    0    0 -0.29424002072E+02 -0.30807140419E+02 -0.16006821666E+03  0.16564022997E+03  0.00000000000E+00 0. -1.
         11    1    1    2    0    0 -0.78803255867E+02 -0.57501920097E+02 -0.67827735046E+02  0.11881508991E+03  0.00000000000E+00 0.  1.
</event>
<event>
 7    1  0.2829045E-009  0.1018872E+03  0.7561462E-02  0.1276377E+00
         -2   -1    0    0    0  501 -0.00000000000E+00  0.00000000000E+00  0.30361480524E+02  0.30361480524E+02  0.00000000000E+00 0. -1.
          2   -1    0    0  501    0  0.00000000000E+00 -0.00000000000E+00 -0.41472268382E+03  0.41472268382E+03  0.00000000000E+00 0.  1.
         25    2    1    2    0    0 -0.28808292890E+02  0.10855926345E+01 -0.21721948233E+03  0.25231803375E+03  0.12509592480E+03 0.  0.
          5    1    3    3  502    0 -0.35808413645E+02  0.50411860349E+02 -0.56015519407E+02  0.83539266013E+02  0.41800000000E+01 0. -1.
         -5    1    3    3    0  502  0.70001207549E+01 -0.49326267715E+02 -0.16120396292E+03  0.16877876773E+03  0.41800000000E+01 0. -1.
        -11    1    1    2    0    0 -0.20433316267E+02 -0.28788555636E+02 -0.93533649555E+02  0.99974221420E+02  0.00000000000E+00 0.  1.
         11    1    1    2    0    0  0.49241609157E+02  0.27702963002E+02 -0.73608071416E+02  0.92791909179E+02  0.00000000000E+00 0. -1.
</event>
<event>
 7    1  0.2728221E-009  0.2370642E+03  0.7561462E-02  0.1121764E+00
          1   -1    0    0  501    0  0.00000000000E+00  0.00000000000E+00  0.74823889156E+03  0.74823889156E+03  0.00000000000E+00 0. -1.
         -1   -1    0    0    0  501 -0.00000000000E+00 -0.00000000000E+00 -0.88179140603E+02  0.88179140603E+02  0.00000000000E+00 0.  1.
         25    2    1    2    0    0 -0.21358529543E+03  0.90284029553E+02  0.37627578445E+03  0.45934887913E+03  0.12509213558E+03 0.  0.
          5    1    3    3  502    0 -0.10836561318E+03  0.91778822245E+01  0.81420178953E+02  0.13591930541E+03  0.41800000000E+01 0.  1.
         -5    1    3    3    0  502 -0.10521968225E+03  0.81106147328E+02  0.29485560549E+03  0.32342957372E+03  0.41800000000E+01 0.  1.
        -11    1    1    2    0    0  0.20511405871E+03 -0.83241844080E+02  0.21911307464E+03  0.31146672561E+03  0.00000000000E+00 0.  1.
         11    1    1    2    0    0  0.84712367202E+01 -0.70421854728E+01  0.64670891869E+02  0.65602427417E+02  0.00000000000E+00 0. -1.
</event>
<event>
 7    1  0.2728221E-009  0.9462732E+02  0.7561462E-02  0.1292018E+00
         -3   -1    0    0    0  501 -0.00000000000E+00  0.00000000000E+00  0.58923759180E+02  0.58923759180E+02  0.00000000000E+00 0.  1.
          3   -1    0    0  501    0  0.00000000000E+00 -0.00000000000E+00 -0.22796693915E+03  0.22796693915E+03  0.00000000000E+00 0. -1.
         25    2    1    2    0    0  0.29516059622E+02  0.30969501481E+02 -0.97239942263E+02  0.16411171406E+03  0.12508693186E+03 0.  0.
          5    1    3    3  502    0  0.45134738003E+02 -0.16697574371E+02 -0.10268880148E+03  0.11348310850E+03  0.41800000000E+01 0.  1.
         -5    1    3    3    0  502 -0.15618678382E+02  0.47667075852E+02  0.54488592167E+01  0.50628605565E+02  0.41800000000E+01 0.  1.
        -11    1    1    2    0    0  0.22614477810E+02  0.95902140304E+01  0.86401169768E+00  0.24579123825E+02  0.00000000000E+00 0.  1.
         11    1    1    2    0    0 -0.52130537432E+02 -0.40559715511E+02 -0.72667249402E+02  0.98199860443E+02  0.00000000000E+00 0. -1.
</event>
<event>
 7    1  0.2728221E-009  0.9935593E+02  0.7561462E-02  0.1281656E+00
          2   -1    0    0  501    0  0.00000000000E+00  0.00000000000E+00  0.21746791246E+03  0.21746791246E+03  0.00000000000E+00 0. -1.
         -2   -1    0    0    0  501 -0.00000000000E+00 -0.00000000000E+00 -0.95152064565E+02  0.95152064565E+02  0.00000000000E+00 0.  1.
         25    2    1    2    0    0  0.54775731996E+02  0.54539240007E+02  0.12502208872E+03  0.19301318073E+03  0.12509458722E+03 0.  0.
          5    1    3    3  502    0 -0.20856682485E+02  0.33712583021E+02  0.10446080284E+03  0.11180818927E+03  0.41800000000E+01 0.  1.
         -5    1    3    3    0  502  0.75632414481E+02  0.20826656986E+02  0.20561285885E+02  0.81204991464E+02  0.41800000000E+01 0.  1.
        -11    1    1    2    0    0 -0.53393599803E+02 -0.42691510999E+02  0.37288737585E+02  0.77870993072E+02  0.00000000000E+00 0. -1.
         11    1    1    2    0    0 -0.13821321936E+01 -0.11847729008E+02 -0.39994978413E+02  0.41735803219E+02  0.00000000000E+00 0.  1.
</event>
<event>
 7    1  0.2728221E-009  0.1233046E+03  0.7561462E-02  0.1237743E+00
         -2   -1    0    0    0  501 -0.00000000000E+00  0.00000000000E+00  0.34980680736E+03  0.34980680736E+03  0.00000000000E+00 0.  1.
          2   -1    0    0  501    0  0.00000000000E+00 -0.00000000000E+00 -0.52832450630E+02  0.52832450630E+02  0.00000000000E+00 0. -1.
         25    2    1    2    0    0 -0.56665354883E+02  0.53450518740E+02  0.23592628575E+03  0.27816843624E+03  0.12509414941E+03 0.  0.
          5    1    3    3  502    0 -0.33710910426E+02 -0.38996834986E+02  0.74611265242E+02  0.90782663112E+02  0.41800000000E+01 0.  1.
         -5    1    3    3    0  502 -0.22954444458E+02  0.92447353726E+02  0.16131502050E+03  0.18738577313E+03  0.41800000000E+01 0.  1.
        -11    1    1    2    0    0  0.62884010583E+02 -0.20689554010E+02  0.62569666012E+02  0.91090172560E+02  0.00000000000E+00 0.  1.
         11    1    1    2    0    0 -0.62186556998E+01 -0.32760964730E+02 -0.15215950282E+01  0.33380649188E+02  0.00000000000E+00 0. -1.
</event>
<event>
 7    1  0.2728221E-009  0.9914171E+02  0.7561462E-02  0.1282111E+00
          2   -1    0    0  501    0  0.00000000000E+00  0.00000000000E+00  0.49842703599E+02  0.49842703599E+02  0.00000000000E+00 0. -1.
         -2   -1    0    0    0  501 -0.00000000000E+00 -0.00000000000E+00 -0.32848246712E+03  0.32848246712E+03  0.00000000000E+00 0.  1.
         25    2    1    2    0    0  0.48895883090E+02 -0.46130053806E+02 -0.12907730732E+03  0.19190469689E+03  0.12509065583E+03 0.  0.
          5    1    3    3  502    0  0.59297239781E+01 -0.73856161945E+02 -0.11803161273E+03  0.13942319852E+03  0.41800000000E+01 0.  1.
         -5    1    3    3    0  502  0.42966159112E+02  0.27726108140E+02 -0.11045694595E+02  0.52481498364E+02  0.41800000000E+01 0.  1.
        -11    1    1    2    0    0 -0.41071439097E+02  0.20373322846E+02 -0.13603851817E+02  0.47822590661E+02  0.00000000000E+00 0. -1.
         11    1    1    2    0    0 -0.78244439936E+01  0.25756730959E+02 -0.13595860438E+03  0.13859788317E+03  0.00000000000E+00 0.  1.
</event>
<event>
 7    1  0.2728221E-009  0.9361700E+02  0.7561462E-02  0.1294322E+00
          2   -1    0    0  501    0  0.00000000000E+00  0.00000000000E+00  0.23579766488E+03  0.23579766488E+03  0.00000000000E+00 0. -1.
         -2   -1    0    0    0  501 -0.00000000000E+00 -0.00000000000E+00 -0.53927871947E+02  0.53927871947E+02  0.00000000000E+00 0.  1.
         25    2    1    2    0    0  0.17908047895E+02  0.24460042202E+02  0.11100875006E+03  0.16996805763E+03  0.12508879319E+03 0.  0.
          5    1    3    3  502    0  0.11421631402E+02  0.72180113404E+02  0.93072710045E+02  0.11840787216E+03  0.41800000000E+01 0.  1.
         -5    1    3    3    0  502  0.64864164930E+01 -0.47720071202E+02  0.17936040013E+02  0.51560185471E+02  0.41800000000E+01 0.  1.
        -11    1    1    2    0    0  0.21220252477E+02 -0.13157645234E+02  0.74782998416E+02  0.78841103464E+02  0.00000000000E+00 0. -1.
         11    1    1    2    0    0 -0.39128300372E+02 -0.11302396968E+02 -0.39219555449E+01  0.40916375726E+02  0.00000000000E+00 0.  1.
</event>
<event>
 7    1  0.2728221E-009  0.2379548E+03  0.7561462E-02  0.1121163E+00
          2   -1    0    0  501    0  0.00000000000E+00  0.00000000000E+00  0.19147196586E+03  0.19147196586E+03  0.00000000000E+00 0.  1.
         -2   -1    0    0    0  501 -0.00000000000E+00 -0.00000000000E+00 -0.31267060789E+03  0.31267060789E+03  0.00000000000E+00 0. -1.
         25    2    1    2    0    0  0.62681297924E+02 -0.20782500880E+03 -0.32794852785E+02  0.25267167911E+03  0.12508915086E+03 0.  0.
          5    1    3    3  502    0  0.70124979683E+02 -0.43236961505E+02  0.80372963056E+01  0.82879539982E+02  0.41800000000E+01 0. -1.
         -5    1    3    3    0  502 -0.74436817585E+01 -0.16458804729E+03 -0.40832149090E+02  0.16979213912E+03  0.41800000000E+01 0. -1.
        -11    1    1    2    0    0  0.16117940267E+02  0.28612766932E+02  0.71735843128E+01  0.33614561455E+02  0.00000000000E+00 0.  1.
         11    1    1    2    0    0 -0.78799238191E+02  0.17921224186E+03 -0.95577373564E+02  0.21785633319E+03  0.00000000000E+00 0. -1.
</event>
<event>
 7    1  0.2728221E-009  0.1389421E+03  0.7561462E-02  0.1214760E+00
          1   -1    0    0  501    0  0.00000000000E+00  0.00000000000E+00  0.84075826741E+03  0.84075826741E+03  0.00000000000E+00 0. -1.
         -1   -1    0    0    0  501 -0.00000000000E+00 -0.00000000000E+00 -0.32737475634E+02  0.32737475634E+02  0.00000000000E+00 0.  1.
         25    2    1    2    0    0 -0.74251023743E+02 -0.84828450267E+02  0.56780822643E+03  0.59225261460E+03  0.12509155449E+03 0.  0.
          5    1    3    3  502    0 -0.10556861943E+03 -0.47885506875E+02  0.33772304631E+03  0.35708834144E+03  0.41800000000E+01 0. -1.
         -5    1    3    3    0  502  0.31317595691E+02 -0.36942943391E+02  0.23008518011E+03  0.23516427317E+03  0.41800000000E+01 0. -1.
        -11    1    1    2    0    0  0.20436091730E+02  0.16282911572E+02  0.44957090261E+00  0.26133678816E+02  0.00000000000E+00 0.  1.
         11    1    1    2    0    0  0.53814932013E+02  0.68545538695E+02  0.23976299445E+03  0.25510944962E+03  0.00000000000E+00 0. -1.
</event>
<event>
 7    1  0.2728221E-009  0.1727778E+03  0.7561462E-02  0.1174982E+00
          2   -1    0    0  501    0  0.00000000000E+00  0.00000000000E+00  0.56560785400E+03  0.56560785400E+03  0.00000000000E+00 0. -1.
         -2   -1    0    0    0  501 -0.00000000000E+00 -0.00000000000E+00 -0.53499927622E+02  0.53499927622E+02  0.00000000000E+00 0.  1.
         25    2    1    2    0    0  0.54871557735E+02  0.12239041706E+03  0.28461738032E+03  0.33858987492E+03  0.12508296519E+03 0.  0.
          5    1    3    3  502    0  0.72574166861E+02  0.13966481152E+03  0.23316087691E+03  0.28134451513E+03  0.41800000000E+01 0. -1.
         -5    1    3    3    0  502 -0.17702609126E+02 -0.17274394464E+02  0.51456503412E+02  0.57245359789E+02  0.41800000000E+01 0. -1.
        -11    1    1    2    0    0 -0.21294488110E+01  0.15365582366E+02  0.13212796412E+02  0.20376792257E+02  0.00000000000E+00 0.  1.
         11    1    1    2    0    0 -0.52742108924E+02 -0.13775599943E+03  0.21427774965E+03  0.26014111445E+03  0.00000000000E+00 0. -1.
</event>
<event>
 7    1  0.2728221E-009  0.1011317E+03  0.7561462E-02  0.1277934E+00
          1   -1    0    0  501    0  0.00000000000E+00  0.00000000000E+00  0.58115900419E+03  0.58115900419E+03  0.00000000000E+00 0. -1.
         -1   -1    0    0    0  501 -0.00000000000E+00 -0.00000000000E+00 -0.22010973184E+02  0.22010973184E+02  0.00000000000E+00 0.  1.
         25    2    1    2    0    0 -0.24587529174E+02 -0.22950219651E+02  0.32217956648E+03  0.34724549986E+03  0.12509398446E+03 0.  0.
          5    1    3    3  502    0  0.31782503047E+02  0.35732144376E+02  0.12435143822E+03  0.13329540964E+03  0.41800000000E+01 0.  1.
         -5    1    3    3    0  502 -0.56370032220E+02 -0.58682364028E+02  0.19782812825E+03  0.21395009023E+03  0.41800000000E+01 0.  1.
        -11    1    1    2    0    0  0.41684061871E+02 -0.29046611390E+01  0.21212375039E+03  0.21620010072E+03  0.00000000000E+00 0. -1.
         11    1    1    2    0    0 -0.17096532697E+02  0.25854880790E+02  0.24844714137E+02  0.39724376792E+02  0.00000000000E+00 0.  1.
</event>
<event>
 7    1  0.2728221E-009  0.1486042E+03  0.7561462E-02  0.1202199E+00
          1   -1    0    0  501    0  0.00000000000E+00  0.00000000000E+00  0.38889974478E+02  0.38889974478E+02  0.00000000000E+00 0. -1.
         -1   -1    0    0    0  501 -0.00000000000E+00 -0.00000000000E+00 -0.79990820347E+03  0.79990820347E+03  0.00000000000E+00 0.  1.
         25    2    1    2    0    0 -0.13421313926E+03 -0.13371196321E+02 -0.34903714031E+03  0.39454475695E+03  0.12508670704E+03 0.  0.
          5    1    3    3  502    0 -0.70676449647E+02 -0.32132072646E+02 -0.60626014306E+02  0.98593187583E+02  0.41800000000E+01 0.  1.
         -5    1    3    3    0  502 -0.63536689617E+02  0.18760876325E+02 -0.28841112601E+03  0.29595156937E+03  0.41800000000E+01 0.  1.
        -11    1    1    2    0    0  0.87928430754E+02  0.43247022774E+02 -0.17127916585E+03  0.19732781499E+03  0.00000000000E+00 0. -1.
         11    1    1    2    0    0  0.46284708510E+02 -0.29875826453E+02 -0.24070192283E+03  0.24692560601E+03  0.00000000000E+00 0.  1.
</event>
<event>
 7    1  0.2728221E-009  0.7594763E+02  0.7561462E-02  0.1340961E+00
          3   -1    0    0  501    0  0.00000000000E+00  0.00000000000E+00  0.41805816595E+02  0.41805816595E+02  0.00000000000E+00 0. -1.
         -3   -1    0    0    0  501 -0.00000000000E+00 -0.00000000000E+00 -0.10549770471E+04  0.10549770471E+04  0.00000000000E+00 0.  1.
         25    2    1    2    0    0  0.20819700586E+02  0.17414826339E+02 -0.98479614203E+03  0.99307805220E+03  0.12507533848E+03 0.  0.
          5    1    3    3  502    0  0.62369205591E+02 -0.54575456010E+01 -0.29290113344E+03  0.29954673922E+03  0.41800000000E+01 0.  1.
         -5    1    3    3    0  502 -0.41549505005E+02  0.22872371940E+02 -0.69189500859E+03  0.69353131297E+03  0.41800000000E+01 0.  1.
        -11    1    1    2    0    0 -0.95920086672E+01 -0.25797959303E+02 -0.61696367574E+02  0.67557257984E+02  0.00000000000E+00 0.  1.
         11    1    1    2    0    0 -0.11227691919E+02  0.83831329636E+01  0.33321279099E+02  0.36147553512E+02  0.00000000000E+00 0. -1.
</event>
<event>
 7    1  0.2728221E-009  0.7930945E+02  0.7561462E-02  0.1331023E+00
          3   -1    0    0  501    0  0.00000000000E+00  0.00000000000E+00  0.37064280638E+03  0.37064280638E+03  0.00000000000E+00 0.  1.
         -3   -1    0    0    0  501 -0.00000000000E+00 -0.00000000000E+00 -0.49018755211E+02  0.49018755211E+02  0.00000000000E+00 0. -1.
         25    2    1    2    0    0  0.17098655267E+02  0.60559926120E+02  0.25216089094E+03  0.28843004457E+03  0.12508759743E+03 0.  0.
          5    1    3    3  502    0 -0.37368479752E+01  0.27404089101E+02 -0.48761569317E+01  0.28393616160E+02  0.41800000000E+01 0.  1.
         -5    1    3    3    0  502  0.20835503242E+02  0.33155837020E+02  0.25703704787E+03  0.26003642841E+03  0.41800000000E+01 0.  1.
        -11    1    1    2    0    0 -0.35586256262E+01 -0.72875592321E+02  0.81451224125E+02  0.10935180695E+03  0.00000000000E+00 0.  1.
         11    1    1    2    0    0 -0.13540029641E+02  0.12315666201E+02 -0.11988063894E+02  0.21879710066E+02  0.00000000000E+00 0. -1.
</event>
<event>
 7    1  0.2728221E-009  0.1451620E+03  0.7561462E-02  0.1206547E+00
          2   -1    0    0  501    0  0.00000000000E+00  0.00000000000E+00  0.22907250631E+04  0.22907250631E+04  0.00000000000E+00 0. -1.
         -2   -1    0    0    0  501 -0.00000000000E+00 -0.00000000000E+00 -0.13780980263E+02  0.13780980263E+02  0.00000000000E+00 0.  1.
         25    2    1    2    0    0  0.12267893213E+03  0.22850850094E+02  0.16276070302E+04  0.16371695042E+04  0.12508820414E+03 0.  0.
          5    1    3    3  502    0  0.29395739577E+01  0.30090125965E+02  0.93100717510E+02  0.97975878544E+02  0.41800000000E+01 0. -1.
         -5    1    3    3    0  502  0.11973935818E+03 -0.72392758711E+01  0.15345063127E+04  0.15391936256E+04  0.41800000000E+01 0. -1.
        -11    1    1    2    0    0 -0.88238001456E+02  0.13989688118E+02  0.53447755064E+03  0.54189289385E+03  0.00000000000E+00 0.  1.
         11    1    1    2    0    0 -0.34440930678E+02 -0.36840538212E+02  0.11485950198E+03  0.12544364534E+03  0.00000000000E+00 0. -1.
</event>
<event>
 7    1  0.2728221E-009  0.3191566E+03  0.7561462E-02  0.1076038E+00
          2   -1    0    0  501    0  0.00000000000E+00  0.00000000000E+00  0.18292556612E+04  0.18292556612E+04  0.00000000000E+00 0.  1.
         -2   -1    0    0    0  501 -0.00000000000E+00 -0.00000000000E+00 -0.63913054167E+02  0.63913054167E+02  0.00000000000E+00 0. -1.
         25    2    1    2    0    0  0.29725303305E+03  0.82684983042E+02  0.11586886473E+04  0.12055715311E+04  0.12508862038E+03 0.  0.
          5    1    3    3  502    0  0.27086481753E+03  0.10819505899E+03  0.95488508337E+03  0.99844725199E+03  0.41800000000E+01 0. -1.
         -5    1    3    3    0  502  0.26388215523E+02 -0.25510075946E+02  0.20380356397E+03  0.20712427907E+03  0.41800000000E+01 0. -1.
        -11    1    1    2    0    0 -0.13924806667E+03 -0.25067731401E+02  0.37906617687E+03  0.40461040728E+03  0.00000000000E+00 0.  1.
         11    1    1    2    0    0 -0.15800496638E+03 -0.57617251641E+02  0.22758778286E+03  0.28298677707E+03  0.00000000000E+00 0. -1.
</event>
<event>
 7    1  0.2728221E-009  0.1204149E+03  0.7561462E-02  0.1242414E+00
          2   -1    0    0  501    0  0.00000000000E+00  0.00000000000E+00  0.97648630112E+03  0.97648630112E+03  0.00000000000E+00 0. -1.
         -2   -1    0    0    0  501 -0.00000000000E+00 -0.00000000000E+00 -0.20777554884E+02  0.20777554884E+02  0.00000000000E+00 0.  1.
         25    2    1    2    0    0 -0.91358598319E+02 -0.10872148111E+02  0.50729655325E+03  0.53052929613E+03  0.12508774527E+03 0.  0.
          5    1    3    3  502    0 -0.20292451355E+02 -0.33315874701E+02  0.35643280624E+02  0.53006102882E+02  0.41800000000E+01 0. -1.
         -5    1    3    3    0  502 -0.71066146964E+02  0.22443726590E+02  0.47165327263E+03  0.47752319324E+03  0.41800000000E+01 0. -1.
        -11    1    1    2    0    0  0.25856561060E+02 -0.37483654247E+02  0.11913792410E+03  0.12754383970E+03  0.00000000000E+00 0.  1.
         11    1    1    2    0    0  0.65502037259E+02  0.48355802358E+02  0.32927426889E+03  0.33919072018E+03  0.00000000000E+00 0. -1.
</event>
<event>
 7    1  0.2728221E-009  0.8117252E+02  0.7561462E-02  0.1325757E+00
          2   -1    0    0  501    0  0.00000000000E+00  0.00000000000E+00  0.12200607655E+03  0.12200607655E+03  0.00000000000E+00 0. -1.
         -2   -1    0    0    0  501 -0.00000000000E+00 -0.00000000000E+00 -0.10970291952E+03  0.10970291952E+03  0.00000000000E+00 0.  1.
         25    2    1    2    0    0  0.12416721491E+02  0.28561176772E+02 -0.17479505225E+02  0.13008652286E+03  0.12508818703E+03 0.  0.
          5    1    3    3  502    0  0.11734395527E+02 -0.26072477807E+02 -0.56060785923E+02  0.63069439950E+02  0.41800000000E+01 0.  1.
         -5    1    3    3    0  502  0.68232596414E+00  0.54633654579E+02  0.38581280698E+02  0.67017082909E+02  0.41800000000E+01 0.  1.
        -11    1    1    2    0    0 -0.31493640240E+02 -0.44000677278E+02 -0.98568575838E+01  0.55000605614E+02  0.00000000000E+00 0.  1.
         11    1    1    2    0    0  0.19076918749E+02  0.15439500506E+02  0.39639519844E+02  0.46621867598E+02  0.00000000000E+00 0. -1.
</event>
<event>
 7    1  0.2728221E-009  0.1123277E+03  0.7561462E-02  0.1256319E+00
          2   -1    0    0  501    0  0.00000000000E+00  0.00000000000E+00  0.51808430550E+03  0.51808430550E+03  0.00000000000E+00 0. -1.
         -2   -1    0    0    0  501 -0.00000000000E+00 -0.00000000000E+00 -0.55874959614E+02  0.55874959614E+02  0.00000000000E+00 0.  1.
         25    2    1    2    0    0  0.10196620026E+03 -0.20486021214E+02  0.37592260365E+03  0.40961174858E+03  0.12508875881E+03 0.  0.
          5    1    3    3  502    0  0.71336531109E+02 -0.12188194524E+02  0.65983310775E+02  0.98024091209E+02  0.41800000000E+01 0.  1.
         -5    1    3    3    0  502  0.30629669147E+02 -0.82978266894E+01  0.30993929287E+03  0.31158765737E+03  0.41800000000E+01 0.  1.
        -11    1    1    2    0    0 -0.36327890694E+02  0.37642572692E+02 -0.27774597628E+01  0.52386956429E+02  0.00000000000E+00 0.  1.
         11    1    1    2    0    0 -0.65638309562E+02 -0.17156551478E+02  0.89064202004E+02  0.11196056011E+03  0.00000000000E+00 0. -1.
</event>
<event>
 7    1  0.2728221E-009  0.1045531E+03  0.7561462E-02  0.1271003E+00
         -1   -1    0    0    0  501 -0.00000000000E+00  0.00000000000E+00  0.75542714350E+02  0.75542714350E+02  0.00000000000E+00 0.  1.
          1   -1    0    0  501    0  0.00000000000E+00 -0.00000000000E+00 -0.31240626299E+03  0.31240626299E+03  0.00000000000E+00 0. -1.
         25    2    1    2    0    0 -0.12652788800E+02 -0.74649280360E+02 -0.22719977592E+03  0.27018432403E+03  0.12508885902E+03 0.  0.
          5    1    3    3  502    0 -0.47134494064E+02 -0.35700165691E+02 -0.20512951350E+03  0.21352225193E+03  0.41800000000E+01 0. -1.
         -5    1    3    3    0  502  0.34481705264E+02 -0.38949114669E+02 -0.22070262420E+02  0.56662072100E+02  0.41800000000E+01 0. -1.
        -11    1    1    2    0    0 -0.57164242135E+00 -0.10981927871E+02 -0.27220145520E+02  0.29357551617E+02  0.00000000000E+00 0. -1.
         11    1    1    2    0    0  0.13224431221E+02  0.85631208231E+02  0.17556372797E+02  0.88407101695E+02  0.00000000000E+00 0.  1.
</event>
<event>
 7    1  0.2728221E-009  0.1138801E+03  0.7561462E-02  0.1253549E+00
         -2   -1    0    0    0  501 -0.00000000000E+00  0.00000000000E+00  0.26680903151E+02  0.26680903151E+02  0.00000000000E+00 0.  1.
          2   -1    0    0  501    0  0.00000000000E+00 -0.00000000000E+00 -0.79664251411E+03  0.79664251411E+03  0.00000000000E+00 0. -1.
         25    2    1    2    0    0  0.94256643553E+02  0.25119671516E+02 -0.41505102537E+03  0.44433168637E+03  0.12509189064E+03 0.  0.
          5    1    3    3  502    0  0.18157059872E+02  0.27919441080E+02 -0.32323190347E+03  0.32497001374E+03  0.41800000000E+01 0.  1.
         -5    1    3    3    0  502  0.76099583681E+02 -0.27997695646E+01 -0.91819121898E+02  0.11936167263E+03  0.41800000000E+01 0.  1.
        -11    1    1    2    0    0 -0.82114710542E+02  0.81448939069E+01 -0.15143601300E+03  0.17245878063E+03  0.00000000000E+00 0.  1.
         11    1    1    2    0    0 -0.12141933012E+02 -0.33264565423E+02 -0.20347457259E+03  0.20653295026E+03  0.00000000000E+00 0. -1.
</event>
<event>
 7    1  0.2980961E-009  0.1649896E+03  0.7561462E-02  0.1183176E+00
          1   -1    0    0  501    0  0.00000000000E+00  0.00000000000E+00  0.12806117981E+03  0.12806117981E+03  0.00000000000E+00 0. -1.
         -1   -1    0    0    0  501 -0.00000000000E+00 -0.00000000000E+00 -0.25717827629E+03  0.25717827629E+03  0.00000000000E+00 0.  1.
         25    2    1    2    0    0 -0.80804923381E+02  0.11836471061E+03 -0.45192526464E+02  0.19552392734E+03  0.12509037275E+03 0.  0.
          5    1    3    3  502    0  0.27071522692E+02  0.21988289788E+02 -0.36331552421E+02  0.50535198921E+02  0.41800000000E+01 0. -1.
         -5    1    3    3    0  502 -0.10787644607E+03  0.96376420826E+02 -0.88609740440E+01  0.14498872842E+03  0.41800000000E+01 0. -1.
        -11    1    1    2    0    0  0.72576734186E+02 -0.69175090140E+02 -0.95555436458E+02  0.13850421249E+03  0.00000000000E+00 0.  1.
         11    1    1    2    0    0  0.82281891946E+01 -0.49189620474E+02  0.11630866446E+02  0.51211316270E+02  0.00000000000E+00 0. -1.
</event>
<event>
 7    1  0.2728221E-009  0.1998495E+03  0.7561462E-02  0.1149866E+00
         -1   -1    0    0    0  501 -0.00000000000E+00  0.00000000000E+00  0.14334875935E+03  0.14334875935E+03  0.00000000000E+00 0.  1.
          1   -1    0    0  501    0  0.00000000000E+00 -0.00000000000E+00 -0.31763323740E+03  0.31763323740E+03  0.00000000000E+00 0. -1.
         25    2    1    2    0    0  0.36443830239E+02  0.41791707053E+02 -0.13937447486E+03  0.19531304777E+03  0.12508893975E+03 0.  0.
          5    1    3    3  502    0  0.50486792963E+02  0.80481464787E+02 -0.10347912457E+03  0.14054032894E+03  0.41800000000E+01 0.  1.
         -5    1    3    3    0  502 -0.14042962723E+02 -0.38689757734E+02 -0.35895350290E+02  0.54772718830E+02  0.41800000000E+01 0.  1.
        -11    1    1    2    0    0 -0.69669863071E+01  0.10918265224E+03 -0.10312139960E+02  0.10988962953E+03  0.00000000000E+00 0. -1.
         11    1    1    2    0    0 -0.29476843932E+02 -0.15097435929E+03 -0.24597863230E+02  0.15577931945E+03  0.00000000000E+00 0.  1.
</event>
<event>
 7    1  0.3128831E-009  0.2163162E+03  0.7561462E-02  0.1136660E+00
         -3   -1    0    0    0  501 -0.00000000000E+00  0.00000000000E+00  0.12943858998E+03  0.12943858998E+03  0.00000000000E+00 0.  1.
          3   -1    0    0  501    0  0.00000000000E+00 -0.00000000000E+00 -0.41504929023E+03  0.41504929023E+03  0.00000000000E+00 0. -1.
         25    2    1    2    0    0 -0.13122259865E+03 -0.15551007439E+03 -0.17102933662E+03  0.29377085213E+03  0.12509007131E+03 0.  0.
          5    1    3    3  502    0 -0.13367744290E+03 -0.15614733965E+03 -0.18647827996E+03  0.27756669779E+03  0.41800000000E+01 0. -1.
         -5    1    3    3    0  502  0.24548442564E+01  0.63726525837E+00  0.15448943347E+02  0.16204154340E+02  0.41800000000E+01 0. -1.
        -11    1    1    2    0    0  0.33278705984E+02  0.10853485073E+03 -0.69501722749E+02  0.13310813484E+03  0.00000000000E+00 0.  1.
         11    1    1    2    0    0  0.97943892664E+02  0.46975223660E+02 -0.45079640887E+02  0.11760889325E+03  0.00000000000E+00 0. -1.
</event>
<event>
 7    1  0.2824204E-009  0.2042888E+03  0.7561462E-02  0.1146170E+00
         -1   -1    0    0    0  501 -0.00000000000E+00  0.00000000000E+00  0.71149975576E+02  0.71149975576E+02  0.00000000000E+00 0.  1.
          1   -1    0    0  501    0  0.00000000000E+00 -0.00000000000E+00 -0.79323269714E+03  0.79323269714E+03  0.00000000000E+00 0. -1.
         25    2    1    2    0    0 -0.18891909227E+03  0.28286568816E+02 -0.53640271485E+03  0.58298130018E+03  0.12509504571E+03 0.  0.
          5    1    3    3  502    0 -0.19198874302E+03  0.25427009245E+02 -0.54153911969E+03  0.57514198316E+03  0.41800000000E+01 0. -1.
         -5    1    3    3    0  502  0.30696507492E+01  0.28595595714E+01  0.51364048358E+01  0.78393170176E+01  0.41800000000E+01 0. -1.
        -11    1    1    2    0    0  0.78827182200E+02 -0.54427920713E+02 -0.63801650206E+02  0.11509462966E+03  0.00000000000E+00 0.  1.
         11    1    1    2    0    0  0.11009191007E+03  0.26141351897E+02 -0.12187835650E+03  0.16630674288E+03  0.00000000000E+00 0. -1.
</event>
<event>
 7    1  0.2728221E-009  0.9805229E+02  0.7561462E-02  0.1284446E+00
          2   -1    0    0  501    0  0.00000000000E+00  0.00000000000E+00  0.61682115817E+03  0.61682115817E+03  0.00000000000E+00 0. -1.
         -2   -1    0    0    0  501 -0.00000000000E+00 -0.00000000000E+00 -0.31936937653E+02  0.31936937653E+02  0.00000000000E+00 0.  1.
         25    2    1    2    0    0 -0.84380597607E+02 -0.17508453375E+02  0.27149176861E+03  0.31109881099E+03  0.12509220032E+03 0.  0.
          5    1    3    3  502    0 -0.69781274432E+02 -0.14778659489E+02  0.45778025660E+02  0.84858323522E+02  0.41800000000E+01 0.  1.
         -5    1    3    3    0  502 -0.14599323176E+02 -0.27297938862E+01  0.22571374295E+03  0.22624048747E+03  0.41800000000E+01 0.  1.
        -11    1    1    2    0    0  0.57109838786E+02 -0.22014094250E+02  0.25407033268E+03  0.26133864617E+03  0.00000000000E+00 0. -1.
         11    1    1    2    0    0  0.27270758822E+02  0.39522547625E+02  0.59322119226E+02  0.76320638669E+02  0.00000000000E+00 0.  1.
</event>
<event>
 7    1  0.2728221E-009  0.9267232E+02  0.7561462E-02  0.1296506E+00
          2   -1    0    0  501    0  0.00000000000E+00  0.00000000000E+00  0.71501319874E+03  0.71501319874E+03  0.00000000000E+00 0. -1.
         -2   -1    0    0    0  501 -0.00000000000E+00 -0.00000000000E+00 -0.20478579092E+02  0.20478579092E+02  0.00000000000E+00 0.  1.
         25    2    1    2    0    0  0.52242534811E+02 -0.11663822944E+01  0.34176752078E+03  0.36766832257E+03  0.12507723323E+03 0.  0.
          5    1    3    3  502    0  0.41005034718E+02  0.35927835348E+02  0.31655374081E+03  0.32124128852E+03  0.41800000000E+01 0. -1.
         -5    1    3    3    0  502  0.11237500093E+02 -0.37094217642E+02  0.25213779965E+02  0.46427034053E+02  0.41800000000E+01 0. -1.
        -11    1    1    2    0    0 -0.68344632669E+01  0.34616138455E+02  0.59441172076E+02  0.69124813689E+02  0.00000000000E+00 0.  1.
         11    1    1    2    0    0 -0.45408071544E+02 -0.33449756161E+02  0.29332592679E+03  0.29869864157E+03  0.00000000000E+00 0. -1.
</event>
<event>
 7    1  0.2728221E-009  0.6320196E+02  0.7561462E-02  0.1384866E+00
         -3   -1    0    0    0  501 -0.00000000000E+00  0.00000000000E+00  0.31150763763E+02  0.31150763763E+02  0.00000000000E+00 0.  1.
          3   -1    0    0  501    0  0.00000000000E+00 -0.00000000000E+00 -0.60523812082E+03  0.60523812082E+03  0.00000000000E+00 0. -1.
         25    2    1    2    0    0 -0.26967417487E+02 -0.11805397822E+02 -0.49980613333E+03  0.51606168960E+03  0.12508751948E+03 0.  0.
          5    1    3    3  502    0 -0.39785683637E+01  0.91136699163E+01  0.38324256278E+01  0.11447614239E+02  0.41800000000E+01 0.  1.
         -5    1    3    3    0  502 -0.22988849123E+02 -0.20919067738E+02 -0.50363855896E+03  0.50461407536E+03  0.41800000000E+01 0.  1.
        -11    1    1    2    0    0 -0.64114449660E+01  0.40031452195E+02 -0.86231603026E+01  0.41448554679E+02  0.00000000000E+00 0.  1.
         11    1    1    2    0    0  0.33378862453E+02 -0.28226054373E+02 -0.65658063424E+02  0.78878640307E+02  0.00000000000E+00 0. -1.
</event>
<event>
 7    1  0.2728221E-009  0.9212064E+02  0.7561462E-02  0.1297796E+00
          2   -1    0    0  501    0  0.00000000000E+00  0.00000000000E+00  0.15267870988E+03  0.15267870988E+03  0.00000000000E+00 0. -1.
         -2   -1    0    0    0  501 -0.00000000000E+00 -0.00000000000E+00 -0.94340940092E+02  0.94340940092E+02  0.00000000000E+00 0.  1.
         25    2    1    2    0    0 -0.12896827831E+02 -0.23662013698E+02 -0.14339139701E+02  0.12876010089E+03  0.12508930247E+03 0.  0.
          5    1    3    3  502    0 -0.54140961073E+02  0.21502752854E+02 -0.29752804374E+02  0.65546272315E+02  0.41800000000E+01 0.  1.
         -5    1    3    3    0  502  0.41244133242E+02 -0.45164766552E+02  0.15413664672E+02  0.63213828576E+02  0.41800000000E+01 0.  1.
        -11    1    1    2    0    0  0.31250550565E+02 -0.38205667312E+01 -0.67791470146E+01  0.32204820680E+02  0.00000000000E+00 0.  1.
         11    1    1    2    0    0 -0.18353722734E+02  0.27482580429E+02  0.79456056503E+02  0.86054728401E+02  0.00000000000E+00 0. -1.
</event>
<event>
 7    1  0.2761486E-009  0.8018130E+02  0.7561462E-02  0.1328538E+00
         -1   -1    0    0    0  501 -0.00000000000E+00  0.00000000000E+00  0.35703516572E+02  0.35703516572E+02  0.00000000000E+00 0.  1.
          1   -1    0    0  501    0  0.00000000000E+00 -0.00000000000E+00 -0.48338910054E+03  0.48338910054E+03  0.00000000000E+00 0. -1.
         25    2    1    2    0    0 -0.13013462966E+02  0.65629417042E+02 -0.31236208757E+03  0.34306598413E+03  0.12509046773E+03 0.  0.
          5    1    3    3  502    0 -0.16848738606E+02  0.16081997391E+01 -0.25884099196E+03  0.25942744230E+03  0.41800000000E+01 0. -1.
         -5    1    3    3    0  502  0.38352756395E+01  0.64021217303E+02 -0.53521095609E+02  0.83638541830E+02  0.41800000000E+01 0. -1.
        -11    1    1    2    0    0 -0.77986606187E+01 -0.54501002653E+02 -0.20414508534E+02  0.58719081705E+02  0.00000000000E+00 0.  1.
         11    1    1    2    0    0  0.20812123585E+02 -0.11128414390E+02 -0.11490898786E+03  0.11730755128E+03  0.00000000000E+00 0. -1.
</event>
<event>
 7    1  0.2728221E-009  0.1882067E+03  0.7561462E-02  0.1160089E+00
         -1   -1    0    0    0  501 -0.00000000000E+00  0.00000000000E+00  0.10469248174E+03  0.10469248174E+03  0.00000000000E+00 0.  1.
          1   -1    0    0  501    0  0.00000000000E+00 -0.00000000000E+00 -0.41114208024E+03  0.41114208024E+03  0.00000000000E+00 0. -1.
         25    2    1    2    0    0  0.93665455133E+02 -0.13480329801E+03 -0.79003931004E+02  0.22098498463E+03  0.12509035007E+03 0.  0.
          5    1    3    3  502    0  0.39408148720E+02 -0.14533887951E+03 -0.63042004087E+02  0.16330388471E+03  0.41800000000E+01 0. -1.
         -5    1    3    3    0  502  0.54257306413E+02  0.10535581506E+02 -0.15961926916E+02  0.57681099918E+02  0.41800000000E+01 0. -1.
        -11    1    1    2    0    0 -0.42786844568E+02  0.25586059255E+02 -0.17590696246E+02  0.52865802658E+02  0.00000000000E+00 0.  1.
         11    1    1    2    0    0 -0.50878610565E+02  0.10921723875E+03 -0.20985497125E+03  0.24198377469E+03  0.00000000000E+00 0. -1.
</event>
<event>
 7    1  0.2728221E-009  0.1661113E+03  0.7561462E-02  0.1181965E+00
          1   -1    0    0  501    0  0.00000000000E+00  0.00000000000E+00  0.83755639724E+02  0.83755639724E+02  0.00000000000E+00 0. -1.
         -1   -1    0    0    0  501 -0.00000000000E+00 -0.00000000000E+00 -0.39549445104E+03  0.39549445104E+03  0.00000000000E+00 0.  1.
         25    2    1    2    0    0  0.35073917716E+02  0.13592698901E+03 -0.10393034470E+03  0.21483834873E+03  0.12509066108E+03 0.  0.
          5    1    3    3  502    0 -0.15710215562E+01  0.14879122536E+03 -0.85230242883E+02  0.17153123201E+03  0.41800000000E+01 0.  1.
         -5    1    3    3    0  502  0.36644939273E+02 -0.12864236344E+02 -0.18700101817E+02  0.43307116724E+02  0.41800000000E+01 0.  1.
        -11    1    1    2    0    0 -0.33127197856E+02 -0.61535571706E+02 -0.16348303552E+03  0.17779409644E+03  0.00000000000E+00 0.  1.
         11    1    1    2    0    0 -0.19467198604E+01 -0.74391417308E+02 -0.44325431092E+02  0.86617645598E+02  0.00000000000E+00 0. -1.
</event>
<event>
 7    1  0.2728221E-009  0.7023380E+02  0.7561462E-02  0.1359300E+00
          1   -1    0    0  501    0  0.00000000000E+00  0.00000000000E+00  0.50198300499E+03  0.50198300499E+03  0.00000000000E+00 0. -1.
         -1   -1    0    0    0  501 -0.00000000000E+00 -0.00000000000E+00 -0.28597011041E+02  0.28597011041E+02  0.00000000000E+00 0.  1.
         25    2    1    2    0    0  0.11579206903E+02  0.51026781666E+02  0.27707661782E+03  0.30847388679E+03  0.12508747423E+03 0.  0.
          5    1    3    3  502    0  0.16619698990E+02  0.37854961665E+02  0.12365306760E+02  0.43354189284E+02  0.41800000000E+01 0.  1.
         -5    1    3    3    0  502 -0.50404920874E+01  0.13171820001E+02  0.26471131106E+03  0.26511969751E+03  0.41800000000E+01 0.  1.
        -11    1    1    2    0    0 -0.28857086964E+02  0.15129600064E+01  0.14084332304E+03  0.14377712670E+03  0.00000000000E+00 0. -1.
         11    1    1    2    0    0  0.17277880061E+02 -0.52539741672E+02  0.55466053085E+02  0.78329002542E+02  0.00000000000E+00 0.  1.
</event>
<event>
 7    1  0.2728221E-009  0.1272870E+03  0.7561462E-02  0.1231538E+00
         -2   -1    0    0    0  501 -0.00000000000E+00  0.00000000000E+00  0.39699904467E+03  0.39699904467E+03  0.00000000000E+00 0.  1.
          2   -1    0    0  501    0  0.00000000000E+00 -0.00000000000E+00 -0.50555283640E+02  0.50555283640E+02  0.00000000000E+00 0. -1.
         25    2    1    2    0    0  0.41342433185E+02 -0.54851851509E+02  0.28289123018E+03  0.31684818819E+03  0.12508958329E+03 0.  0.
          5    1    3    3  502    0  0.79598012469E+02 -0.52407173129E+01  0.15464977988E+03  0.17406129818E+03  0.41800000000E+01 0. -1.
         -5    1    3    3    0  502 -0.38255579285E+02 -0.49611134196E+02  0.12824145030E+03  0.14278689001E+03  0.41800000000E+01 0. -1.
        -11    1    1    2    0    0  0.13993771108E+02  0.54812734811E+02  0.45184810249E+02  0.72401164386E+02  0.00000000000E+00 0.  1.
         11    1    1    2    0    0 -0.55336204293E+02  0.39116698422E-01  0.18367720600E+02  0.58304975737E+02  0.00000000000E+00 0. -1.
</event>
<event>
 7    1  0.2728221E-009  0.1808740E+03  0.7561462E-02  0.1166960E+00
          1   -1    0    0  501    0  0.00000000000E+00  0.00000000000E+00  0.29494427823E+03  0.29494427823E+03  0.00000000000E+00 0. -1.
         -1   -1    0    0    0  501 -0.00000000000E+00 -0.00000000000E+00 -0.21579841426E+03  0.21579841426E+03  0.00000000000E+00 0.  1.
         25    2    1    2    0    0 -0.12040168884E+03  0.98005418217E+02 -0.12758628768E+03  0.23669946370E+03  0.12508695629E+03 0.  0.
          5    1    3    3  502    0 -0.11378252331E+03  0.12541108260E+03 -0.98348612856E+02  0.19586812987E+03  0.41800000000E+01 0.  1.
         -5    1    3    3    0  502 -0.66191655212E+01 -0.27405664380E+02 -0.29237674828E+02  0.40831333822E+02  0.41800000000E+01 0.  1.
        -11    1    1    2    0    0  0.11273459976E+03 -0.65329351753E+02  0.10631773171E+03  0.16816799416E+03  0.00000000000E+00 0.  1.
         11    1    1    2    0    0  0.76670890743E+01 -0.32676066464E+02  0.10041441995E+03  0.10587523463E+03  0.00000000000E+00 0. -1.
</event>
<event>
 7    1  0.2728221E-009  0.1104397E+03  0.7561462E-02  0.1259758E+00
          3   -1    0    0  501    0  0.00000000000E+00  0.00000000000E+00  0.51168990292E+02  0.51168990292E+02  0.00000000000E+00 0. -1.
         -3   -1    0    0    0  501 -0.00000000000E+00 -0.00000000000E+00 -0.28219722541E+03  0.28219722541E+03  0.00000000000E+00 0.  1.
         25    2    1    2    0    0 -0.22845823082E+02  0.83170121724E+00 -0.65441119489E+02  0.14301425585E+03  0.12509162200E+03 0.  0.
          5    1    3    3  502    0 -0.74749273456E+02  0.23038170405E+01 -0.34949397073E+02  0.82654063487E+02  0.41800000000E+01 0. -1.
         -5    1    3    3    0  502  0.51903450373E+02 -0.14721158232E+01 -0.30491722416E+02  0.60360192359E+02  0.41800000000E+01 0. -1.
        -11    1    1    2    0    0  0.37376702444E+02 -0.38410846400E+02 -0.93996169727E+02  0.10820208376E+03  0.00000000000E+00 0.  1.
         11    1    1    2    0    0 -0.14530879361E+02  0.37579145183E+02 -0.71590945905E+02  0.82149876100E+02  0.00000000000E+00 0. -1.
</event>
<event>
 7    1  0.2728221E-009  0.9969505E+02  0.7561462E-02  0.1280939E+00
          2   -1    0    0  501    0  0.00000000000E+00  0.00000000000E+00  0.36473166876E+03  0.36473166876E+03  0.00000000000E+00 0. -1.
         -2   -1    0    0    0  501 -0.00000000000E+00 -0.00000000000E+00 -0.37238468392E+02  0.37238468392E+02  0.00000000000E+00 0.  1.
         25    2    1    2    0    0 -0.24288493150E+02 -0.13774045038E+02  0.13355552522E+03  0.18510831618E+03  0.12509338586E+03 0.  0.
          5    1    3    3  502    0 -0.39337474174E+02 -0.63486112426E+02  0.91234161593E+02  0.11797909979E+03  0.41800000000E+01 0. -1.
         -5    1    3    3    0  502  0.15048981023E+02  0.49712067388E+02  0.42321363630E+02  0.67129216392E+02  0.41800000000E+01 0. -1.
        -11    1    1    2    0    0  0.21396021948E+02 -0.25393445718E+02  0.20479821655E+02  0.39013330230E+02  0.00000000000E+00 0.  1.
         11    1    1    2    0    0  0.28924712021E+01  0.39167490756E+02  0.17345785349E+03  0.17784849074E+03  0.00000000000E+00 0. -1.
</event>
<event>
 7    1  0.2728221E-009  0.9993563E+02  0.7561462E-02  0.1280431E+00
          3   -1    0    0  501    0  0.00000000000E+00  0.00000000000E+00  0.52789744183E+03  0.52789744183E+03  0.00000000000E+00 0. -1.
         -3   -1    0    0    0  501 -0.00000000000E+00 -0.00000000000E+00 -0.42031448675E+02  0.42031448675E+02  0.00000000000E+00 0.  1.
         25    2    1    2    0    0 -0.29717986499E+02 -0.70451716777E+02  0.13344178054E+03  0.19824383039E+03  0.12508918568E+03 0.  0.
          5    1    3    3  502    0  0.57063592131E+01 -0.83325472805E+02  0.13662744118E+03  0.16018809893E+03  0.41800000000E+01 0. -1.
         -5    1    3    3    0  502 -0.35424345712E+02  0.12873756028E+02 -0.31856606383E+01  0.38055731462E+02  0.41800000000E+01 0. -1.
        -11    1    1    2    0    0  0.10420908124E+02  0.85356576950E+01  0.12989083835E+00  0.13471067146E+02  0.00000000000E+00 0.  1.
         11    1    1    2    0    0  0.19297078375E+02  0.61916059082E+02  0.35229432177E+03  0.35821399297E+03  0.00000000000E+00 0. -1.
</event>
<event>
 7    1  0.2728221E-009  0.9545492E+02  0.7561462E-02  0.1290155E+00
         -2   -1    0    0    0  501 -0.00000000000E+00  0.00000000000E+00  0.14771135898E+03  0.14771135898E+03  0.00000000000E+00 0.  1.
          2   -1    0    0  501    0  0.00000000000E+00 -0.00000000000E+00 -0.83509456871E+02  0.83509456871E+02  0.00000000000E+00 0. -1.
         25    2    1    2    0    0 -0.18732244179E+02  0.16865949860E+02  0.42515006692E+02  0.13450061556E+03  0.12509009775E+03 0.  0.
          5    1    3    3  502    0 -0.34524689461E+02  0.65992218281E+02  0.34218066964E+02  0.82068724633E+02  0.41800000000E+01 0.  1.
         -5    1    3    3    0  502  0.15792445282E+02 -0.49126268422E+02  0.82969397278E+01  0.52431890924E+02  0.41800000000E+01 0.  1.
        -11    1    1    2    0    0 -0.13085728696E+02  0.14729976289E+02  0.42830143747E+02  0.47144773946E+02  0.00000000000E+00 0.  1.
         11    1    1    2    0    0  0.31817972875E+02 -0.31595926149E+02 -0.21143248334E+02  0.49575426344E+02  0.00000000000E+00 0. -1.
</event>
<event>
 7    1  0.2728221E-009  0.1107216E+03  0.7561462E-02  0.1259239E+00
         -4   -1    0    0    0  501 -0.00000000000E+00  0.00000000000E+00  0.23996784832E+03  0.23996784832E+03  0.00000000000E+00 0.  1.
          4   -1    0    0  501    0  0.00000000000E+00 -0.00000000000E+00 -0.81990645261E+02  0.81990645261E+02  0.00000000000E+00 0. -1.
         25    2    1    2    0    0  0.62682253870E+02  0.61354002777E+02  0.10194441320E+03  0.18366298760E+03  0.12508417575E+03 0.  0.
          5    1    3    3  502    0 -0.14209788875E+02  0.50366239696E+02  0.91073482667E+02  0.10512149089E+03  0.41800000000E+01 0.  1.
         -5    1    3    3    0  502  0.76892042745E+02  0.10987763081E+02  0.10870930532E+02  0.78541496712E+02  0.41800000000E+01 0.  1.
        -11    1    1    2    0    0 -0.14334821766E+02 -0.30782239015E+02 -0.22796311754E+02  0.40898718604E+02  0.00000000000E+00 0. -1.
         11    1    1    2    0    0 -0.48347432104E+02 -0.30571763762E+02  0.78829101615E+02  0.97396787380E+02  0.00000000000E+00 0.  1.
</event>
<event>
 7    1  0.2728221E-009  0.1195485E+03  0.7561462E-02  0.1243844E+00
         -2   -1    0    0    0  501 -0.00000000000E+00  0.00000000000E+00  0.56503682748E+02  0.56503682748E+02  0.00000000000E+00 0.  1.
          2   -1    0    0  501    0  0.00000000000E+00 -0.00000000000E+00 -0.74953134324E+03  0.74953134324E+03  0.00000000000E+00 0. -1.
         25    2    1    2    0    0  0.35236122098E+02 -0.50225710333E+02 -0.68040993431E+03  0.69452853770E+03  0.12509198492E+03 0.  0.
          5    1    3    3  502    0  0.69130647057E+02  0.59301899155E+01 -0.26566125514E+03  0.27460442167E+03  0.41800000000E+01 0.  1.
         -5    1    3    3    0  502 -0.33894524959E+02 -0.56155900249E+02 -0.41474867917E+03  0.41992411603E+03  0.41800000000E+01 0.  1.
        -11    1    1    2    0    0 -0.50146019310E+02 -0.13598624791E+01 -0.25517643884E+02  0.56281636685E+02  0.00000000000E+00 0.  1.
         11    1    1    2    0    0  0.14909897211E+02  0.51585572812E+02  0.12899917706E+02  0.55224851598E+02  0.00000000000E+00 0. -1.
</event>
<event>
 7    1  0.2728221E-009  0.2017076E+03  0.7561462E-02  0.1148306E+00
         -1   -1    0    0    0  501 -0.00000000000E+00  0.00000000000E+00  0.18073925046E+03  0.18073925046E+03  0.00000000000E+00 0.  1.
          1   -1    0    0  501    0  0.00000000000E+00 -0.00000000000E+00 -0.29039620858E+03  0.29039620858E+03  0.00000000000E+00 0. -1.
         25    2    1    2    0    0  0.55904029933E+02  0.18087754055E+03 -0.12177729872E+03  0.25752649224E+03  0.12509291940E+03 0.  0.
          5    1    3    3  502    0  0.13654301355E+02  0.25539797485E+02 -0.88335407774E+02  0.93055563335E+02  0.41800000000E+01 0.  1.
         -5    1    3    3    0  502  0.42249728577E+02  0.15533774306E+03 -0.33441890947E+02  0.16447092890E+03  0.41800000000E+01 0.  1.
        -11    1    1    2    0    0  0.15686601472E+02  0.28437353679E+01 -0.11666088205E+01  0.15984907654E+02  0.00000000000E+00 0. -1.
         11    1    1    2    0    0 -0.71590631405E+02 -0.18372127591E+03  0.13286949416E+02  0.19762405915E+03  0.00000000000E+00 0.  1.
</event>
<event>
 7    1  0.2728221E-009  0.8902204E+02  0.7561462E-02  0.1305237E+00
          2   -1    0    0  501    0  0.00000000000E+00  0.00000000000E+00  0.25872076593E+03  0.25872076593E+03  0.00000000000E+00 0. -1.
         -2   -1    0    0    0  501 -0.00000000000E+00 -0.00000000000E+00 -0.60000560749E+02  0.60000560749E+02  0.00000000000E+00 0.  1.
         25    2    1    2    0    0  0.57437509784E+02  0.10065460046E+02  0.13508134454E+03  0.19311777786E+03  0.12508847056E+03 0.  0.
          5    1    3    3  502    0 -0.10560154135E+02 -0.98283576882E+00  0.12242034726E+03  0.12294997619E+03  0.41800000000E+01 0. -1.
         -5    1    3    3    0  502  0.67997663918E+02  0.11048295815E+02  0.12660997271E+02  0.70167801666E+02  0.41800000000E+01 0. -1.
        -11    1    1    2    0    0 -0.56407111568E+02 -0.39062887179E+02  0.17019206262E+02  0.70691758869E+02  0.00000000000E+00 0.  1.
         11    1    1    2    0    0 -0.10303982158E+01  0.28997427133E+02  0.46619654380E+02  0.54911789948E+02  0.00000000000E+00 0. -1.
</event>
<event>
 7    1  0.2728221E-009  0.1169269E+03  0.7561462E-02  0.1248255E+00
          2   -1    0    0  501    0  0.00000000000E+00  0.00000000000E+00  0.91388156341E+02  0.91388156341E+02  0.00000000000E+00 0. -1.
         -2   -1    0    0    0  501 -0.00000000000E+00 -0.00000000000E+00 -0.16759320682E+03  0.16759320682E+03  0.00000000000E+00 0.  1.
         25    2    1    2    0    0  0.46050926961E+02 -0.20481643758E+02 -0.74684792622E+02  0.15416038228E+03  0.12508964630E+03 0.  0.
          5    1    3    3  502    0  0.26391713415E+02 -0.70364783634E+02 -0.65137814560E+02  0.99539603166E+02  0.41800000000E+01 0. -1.
         -5    1    3    3    0  502  0.19659213547E+02  0.49883139876E+02 -0.95469780624E+01  0.54620779116E+02  0.41800000000E+01 0. -1.
        -11    1    1    2    0    0 -0.69645887234E+01  0.53309884733E+02 -0.12136503112E+01  0.53776595778E+02  0.00000000000E+00 0.  1.
         11    1    1    2    0    0 -0.39086338238E+02 -0.32828240975E+02 -0.30660754678E+00  0.51044385103E+02  0.00000000000E+00 0. -1.
</event>
<event>
 7    1  0.2728221E-009  0.1086466E+03  0.7561462E-02  0.1263097E+00
         -2   -1    0    0    0  501 -0.00000000000E+00  0.00000000000E+00  0.99936120392E+02  0.99936120392E+02  0.00000000000E+00 0.  1.
          2   -1    0    0  501    0  0.00000000000E+00 -0.00000000000E+00 -0.17440232426E+03  0.17440232426E+03  0.00000000000E+00 0. -1.
         25    2    1    2    0    0 -0.20124780395E+01 -0.74697246547E+02 -0.33264554496E+02  0.14945937314E+03  0.12509134632E+03 0.  0.
          5    1    3    3  502    0  0.19988947640E+02 -0.89630743607E+02  0.16010565964E+02  0.93311515097E+02  0.41800000000E+01 0.  1.
         -5    1    3    3    0  502 -0.22001425680E+02  0.14933497059E+02 -0.49275120460E+02  0.56147858042E+02  0.41800000000E+01 0.  1.
        -11    1    1    2    0    0 -0.30970614582E+02  0.39801711865E+02 -0.55292968851E+02  0.74837608456E+02  0.00000000000E+00 0. -1.
         11    1    1    2    0    0  0.32983092622E+02  0.34895534683E+02  0.14091319483E+02  0.50041463053E+02  0.00000000000E+00 0.  1.
</event>
<event>
 7    1  0.2728221E-009  0.1376343E+03  0.7561462E-02  0.1216548E+00
         -2   -1    0    0    0  501 -0.00000000000E+00  0.00000000000E+00  0.41133244465E+02  0.41133244465E+02  0.00000000000E+00 0.  1.
          2   -1    0    0  501    0  0.00000000000E+00 -0.00000000000E+00 -0.66958987128E+03  0.66958987128E+03  0.00000000000E+00 0. -1.
         25    2    1    2    0    0 -0.10065931351E+02  0.86488774181E+02 -0.52900410278E+03  0.55052457145E+03  0.12510128687E+03 0.  0.
          5    1    3    3  502    0 -0.63121170364E+02  0.21205469549E+02 -0.19647656298E+03  0.20749570185E+03  0.41800000000E+01 0. -1.
         -5    1    3    3    0  502  0.53055239013E+02  0.65283304632E+02 -0.33252753980E+03  0.34302886959E+03  0.41800000000E+01 0. -1.
        -11    1    1    2    0    0  0.46952620495E+02 -0.69099391240E+02 -0.55813642400E+02  0.10047107603E+03  0.00000000000E+00 0. -1.
         11    1    1    2    0    0 -0.36886689145E+02 -0.17389382941E+02 -0.43638881638E+02  0.59727468268E+02  0.00000000000E+00 0.  1.
</event>
<event>
 7    1  0.2728221E-009  0.8797150E+02  0.7561462E-02  0.1307840E+00
          1   -1    0    0  501    0  0.00000000000E+00  0.00000000000E+00  0.41685936258E+03  0.41685936258E+03  0.00000000000E+00 0. -1.
         -1   -1    0    0    0  501 -0.00000000000E+00 -0.00000000000E+00 -0.37719636809E+02  0.37719636809E+02  0.00000000000E+00 0.  1.
         25    2    1    2    0    0  0.35154242634E+02 -0.16398739923E+02  0.11558398154E+03  0.17467821142E+03  0.12509229116E+03 0.  0.
          5    1    3    3  502    0 -0.14846797542E+02 -0.28076523168E+02  0.11881774784E+03  0.12306034354E+03  0.41800000000E+01 0. -1.
         -5    1    3    3    0  502  0.50001040176E+02  0.11677783245E+02 -0.32337662934E+01  0.51617867882E+02  0.41800000000E+01 0. -1.
        -11    1    1    2    0    0 -0.34183190050E+02 -0.30302632480E+02  0.10272689726E+03  0.11242577746E+03  0.00000000000E+00 0.  1.
         11    1    1    2    0    0 -0.97105258448E+00  0.46701372403E+02  0.16082884697E+03  0.16747501051E+03  0.00000000000E+00 0. -1.
</event>
<event>
 7    1  0.2728221E-009  0.1351452E+03  0.7561462E-02  0.1220015E+00
         -2   -1    0    0    0  501 -0.00000000000E+00  0.00000000000E+00  0.36288220492E+02  0.36288220492E+02  0.00000000000E+00 0.  1.
          2   -1    0    0  501    0  0.00000000000E+00 -0.00000000000E+00 -0.79116723515E+03  0.79116723515E+03  0.00000000000E+00 0. -1.
         25    2    1    2    0    0 -0.12264756544E+03 -0.31459419225E+02 -0.45456444991E+03  0.48816797305E+03  0.12508801072E+03 0.  0.
          5    1    3    3  502    0 -0.43627193714E+02 -0.45304482006E+02 -0.65528785716E+02  0.90924816627E+02  0.41800000000E+01 0. -1.
         -5    1    3    3    0  502 -0.79020371722E+02  0.13845062782E+02 -0.38903566419E+03  0.39724315642E+03  0.41800000000E+01 0. -1.
        -11    1    1    2    0    0  0.65308027137E+02  0.21277580334E+02 -0.57471637170E+02  0.89559270388E+02  0.00000000000E+00 0.  1.
         11    1    1    2    0    0  0.57339538299E+02  0.10181838890E+02 -0.24284292758E+03  0.24972821221E+03  0.00000000000E+00 0. -1.
</event>
<event>
 7    1  0.2728221E-009  0.7746700E+02  0.7561462E-02  0.1336397E+00
          2   -1    0    0  501    0  0.00000000000E+00  0.00000000000E+00  0.61483050077E+02  0.61483050077E+02  0.00000000000E+00 0. -1.
         -2   -1    0    0    0  501 -0.00000000000E+00 -0.00000000000E+00 -0.20960311460E+03  0.20960311460E+03  0.00000000000E+00 0.  1.
         25    2    1    2    0    0  0.26311693842E+02 -0.97464496575E+01 -0.11144407245E+03  0.16989555776E+03  0.12512961579E+03 0.  0.
          5    1    3    3  502    0  0.56797546705E+02 -0.96858171712E+01 -0.37487358037E+01  0.57890429141E+02  0.41800000000E+01 0.  1.
         -5    1    3    3    0  502 -0.30485852863E+02 -0.60632486367E-01 -0.10769533665E+03  0.11200512862E+03  0.41800000000E+01 0.  1.
        -11    1    1    2    0    0 -0.17988963825E+02 -0.24924445796E+02 -0.53548946973E+02  0.61743991932E+02  0.00000000000E+00 0.  1.
         11    1    1    2    0    0 -0.83227300168E+01  0.34670895454E+02  0.16872954903E+02  0.39446614984E+02  0.00000000000E+00 0. -1.
</event>
<event>
 7    1  0.2728221E-009  0.1358028E+03  0.7561462E-02  0.1219091E+00
          1   -1    0    0  501    0  0.00000000000E+00  0.00000000000E+00  0.17439961549E+03  0.17439961549E+03  0.00000000000E+00 0. -1.
         -1   -1    0    0    0  501 -0.00000000000E+00 -0.00000000000E+00 -0.17204006227E+03  0.17204006227E+03  0.00000000000E+00 0.  1.
         25    2    1    2    0    0 -0.94615354181E+02  0.96108284834E+02  0.25042873410E+01  0.18396600531E+03  0.12509337311E+03 0.  0.
          5    1    3    3  502    0 -0.82329734082E+02  0.80511173054E+02 -0.51546137056E+02  0.12623276415E+03  0.41800000000E+01 0. -1.
         -5    1    3    3    0  502 -0.12285620100E+02  0.15597111780E+02  0.54050424398E+02  0.57733241158E+02  0.41800000000E+01 0. -1.
        -11    1    1    2    0    0  0.43195561249E+02 -0.31229335109E+02  0.43581149787E+02  0.68850885977E+02  0.00000000000E+00 0. -1.
         11    1    1    2    0    0  0.51419792932E+02 -0.64878949725E+02 -0.43725883913E+02  0.93622786471E+02  0.00000000000E+00 0.  1.
</event>
<event>
 7    1  0.2728221E-009  0.6993364E+02  0.7561462E-02  0.1360319E+00
          2   -1    0    0  501    0  0.00000000000E+00  0.00000000000E+00  0.32004838885E+02  0.32004838885E+02  0.00000000000E+00 0. -1.
         -2   -1    0    0    0  501 -0.00000000000E+00 -0.00000000000E+00 -0.47945747799E+03  0.47945747799E+03  0.00000000000E+00 0.  1.
         25    2    1    2    0    0 -0.21723678228E+02  0.59637668089E+01 -0.36491088816E+03  0.38641298369E+03  0.12509017930E+03 0.  0.
          5    1    3    3  502    0 -0.79894972519E+01 -0.17497975655E+02 -0.35734378843E+03  0.35788554979E+03  0.41800000000E+01 0.  1.
         -5    1    3    3    0  502 -0.13734180976E+02  0.23461742463E+02 -0.75670997257E+01  0.28527433897E+02  0.41800000000E+01 0.  1.
        -11    1    1    2    0    0  0.80208696985E+01 -0.47895901432E+02 -0.53394165520E+02  0.72175401878E+02  0.00000000000E+00 0.  1.
         11    1    1    2    0    0  0.13702808530E+02  0.41932134624E+02 -0.29147585428E+02  0.52873931308E+02  0.00000000000E+00 0. -1.
</event>
<event>
 7    1  0.2728221E-009  0.1575050E+03  0.7561462E-02  0.1191543E+00
          1   -1    0    0  501    0  0.00000000000E+00  0.00000000000E+00  0.13613067446E+03  0.13613067446E+03  0.00000000000E+00 0. -1.
         -1   -1    0    0    0  501 -0.00000000000E+00 -0.00000000000E+00 -0.21948121703E+03  0.21948121703E+03  0.00000000000E+00 0.  1.
         25    2    1    2    0    0 -0.11538741277E+03 -0.66585442208E+02 -0.56208105759E+02  0.19119345570E+03  0.12509080786E+03 0.  0.
          5    1    3    3  502    0 -0.85196544248E+02  0.17011618801E+02 -0.20005189658E+01  0.87001843672E+02  0.41800000000E+01 0. -1.
         -5    1    3    3    0  502 -0.30190868523E+02 -0.83597061009E+02 -0.54207586793E+02  0.10419161203E+03  0.41800000000E+01 0. -1.
        -11    1    1    2    0    0  0.80273425704E+02  0.66016491813E+02  0.19791289247E+02  0.10580026085E+03  0.00000000000E+00 0. -1.
         11    1    1    2    0    0  0.35113987068E+02  0.56895039489E+00 -0.46933726056E+02  0.58618174945E+02  0.00000000000E+00 0.  1.
</event>
<event>
 7    1  0.2728221E-009  0.8490978E+02  0.7561462E-02  0.1315669E+00
          1   -1    0    0  501    0  0.00000000000E+00  0.00000000000E+00  0.68547941774E+03  0.68547941774E+03  0.00000000000E+00 0. -1.
         -1   -1    0    0    0  501 -0.00000000000E+00 -0.00000000000E+00 -0.22655812611E+02  0.22655812611E+02  0.00000000000E+00 0.  1.
         25    2    1    2    0    0 -0.41408474035E+02 -0.20360732078E+02  0.48769313587E+03  0.50559005023E+03  0.12508989962E+03 0.  0.
          5    1    3    3  502    0  0.29483038123E+02  0.14678796394E+02  0.45286436086E+02  0.56152028404E+02  0.41800000000E+01 0. -1.
         -5    1    3    3    0  502 -0.70891512157E+02 -0.35039528471E+02  0.44240669978E+03  0.44943802183E+03  0.41800000000E+01 0. -1.
        -11    1    1    2    0    0  0.17641698245E+02  0.27449867233E+02  0.17471941108E+03  0.17774025244E+03  0.00000000000E+00 0. -1.
         11    1    1    2    0    0  0.23766775789E+02 -0.70891351552E+01  0.41105818258E+00  0.24804927686E+02  0.00000000000E+00 0.  1.
</event>
<event>
 7    1  0.2728221E-009  0.9804580E+02  0.7561462E-02  0.1284460E+00
          2   -1    0    0  501    0  0.00000000000E+00  0.00000000000E+00  0.12033175563E+03  0.12033175563E+03  0.00000000000E+00 0. -1.
         -2   -1    0    0    0  501 -0.00000000000E+00 -0.00000000000E+00 -0.95602206672E+02  0.95602206672E+02  0.00000000000E+00 0.  1.
         25    2    1    2    0    0  0.74383816511E+01  0.70886784797E+01  0.36237454393E+02  0.13062580848E+03  0.12507745542E+03 0.  0.
          5    1    3    3  502    0 -0.20095189351E+02 -0.47074253659E+02 -0.12230245284E+02  0.52790655350E+02  0.41800000000E+01 0.  1.
         -5    1    3    3    0  502  0.27533571002E+02  0.54162932139E+02  0.48467699678E+02  0.77835153125E+02  0.41800000000E+01 0.  1.
        -11    1    1    2    0    0 -0.11497355687E+02 -0.44623266751E+02 -0.11745495011E+02  0.47553988018E+02  0.00000000000E+00 0.  1.
         11    1    1    2    0    0  0.40589740362E+01  0.37534588272E+02  0.23758957330E+00  0.37754165806E+02  0.00000000000E+00 0. -1.
</event>
<event>
 7    1  0.2728221E-009  0.1841712E+03  0.7561462E-02  0.1163826E+00
         -1   -1    0    0    0  501 -0.00000000000E+00  0.00000000000E+00  0.52157957640E+02  0.52157957640E+02  0.00000000000E+00 0.  1.
          1   -1    0    0  501    0  0.00000000000E+00 -0.00000000000E+00 -0.69653160867E+03  0.69653160867E+03  0.00000000000E+00 0. -1.
         25    2    1    2    0    0 -0.25925584740E+02  0.15162530976E+03 -0.29485976157E+03  0.35531347790E+03  0.12507205155E+03 0.  0.
          5    1    3    3  502    0  0.39315157607E+02  0.10991439612E+03 -0.21041909698E+03  0.24066683375E+03  0.41800000000E+01 0. -1.
         -5    1    3    3    0  502 -0.65240742346E+02  0.41710913641E+02 -0.84440664587E+02  0.11464664415E+03  0.41800000000E+01 0. -1.
        -11    1    1    2    0    0  0.45014803058E+02 -0.38416656364E+02 -0.17271045130E+03  0.18256799273E+03  0.00000000000E+00 0.  1.
         11    1    1    2    0    0 -0.19089218318E+02 -0.11320865340E+03 -0.17680343816E+03  0.21080809569E+03  0.00000000000E+00 0. -1.
</event>
<event>
 7    1  0.2728221E-009  0.9500186E+02  0.7561462E-02  0.1291172E+00
          3   -1    0    0  501    0  0.00000000000E+00  0.00000000000E+00  0.62157493905E+02  0.62157493905E+02  0.00000000000E+00 0. -1.
         -3   -1    0    0    0  501 -0.00000000000E+00 -0.00000000000E+00 -0.20332044371E+03  0.20332044371E+03  0.00000000000E+00 0.  1.
         25    2    1    2    0    0  0.10814444760E+01  0.29196448026E+01 -0.11985726735E+03  0.17326814442E+03  0.12508553669E+03 0.  0.
          5    1    3    3  502    0 -0.32778352202E+02 -0.51317386392E+02 -0.57204114117E+02  0.83652122454E+02  0.41800000000E+01 0.  1.
         -5    1    3    3    0  502  0.33859796678E+02  0.54237031194E+02 -0.62653153230E+02  0.89616021969E+02  0.41800000000E+01 0.  1.
        -11    1    1    2    0    0  0.28533210744E+02 -0.15780420284E+02  0.21155277412E+02  0.38867872878E+02  0.00000000000E+00 0. -1.
         11    1    1    2    0    0 -0.29614655220E+02  0.12860775481E+02 -0.42460959870E+02  0.53341920315E+02  0.00000000000E+00 0.  1.
</event>
<event>
 6    1  0.2728221E-009  0.1028508E+03  0.7561462E-02  0.1274413E+00
          1   -1    0    0  501    0  0.00000000000E+00  0.00000000000E+00  0.99185483193E+02  0.99185483193E+02  0.00000000000E+00 0. -1.
         -1   -1    0    0    0  501 -0.00000000000E+00 -0.00000000000E+00 -0.14020633926E+03  0.14020633926E+03  0.00000000000E+00 0.  1.
          5    1    1    2  502    0 -0.34309983465E+02 -0.40174027064E+02 -0.32069274288E+01  0.53093165279E+02  0.41800000000E+01 0. -1.
         -5    1    1    2    0  502  0.27095124368E+02  0.59583862559E+02 -0.59233209715E+02  0.88376625728E+02  0.41800000000E+01 0. -1.
        -11    1    1    2    0    0  0.19091507752E+01 -0.53038127530E+02  0.32363648434E+02  0.62161833696E+02  0.00000000000E+00 0. -1.
         11    1    1    2    0    0  0.53057083213E+01  0.33628292035E+02 -0.10944367352E+02  0.35760197744E+02  0.00000000000E+00 0.  1.
</event>
<event>
 7    1  0.2728221E-009  0.1154836E+03  0.7561462E-02  0.1250739E+00
         -2   -1    0    0    0  501 -0.00000000000E+00  0.00000000000E+00  0.21444047412E+02  0.21444047412E+02  0.00000000000E+00 0.  1.
          2   -1    0    0  501    0  0.00000000000E+00 -0.00000000000E+00 -0.71467913815E+03  0.71467913815E+03  0.00000000000E+00 0. -1.
         25    2    1    2    0    0 -0.51415700057E+02 -0.29399055691E+02 -0.39515732935E+03  0.41869890233E+03  0.12510626357E+03 0.  0.
          5    1    3    3  502    0 -0.82241497705E+02 -0.36304199565E+02 -0.18052087453E+03  0.20170998337E+03  0.41800000000E+01 0. -1.
         -5    1    3    3    0  502  0.30825797649E+02  0.69051438742E+01 -0.21463645482E+03  0.21698891896E+03  0.41800000000E+01 0. -1.
        -11    1    1    2    0    0 -0.25715154181E+02  0.17399039818E+02 -0.87289988563E+02  0.92647384444E+02  0.00000000000E+00 0.  1.
         11    1    1    2    0    0  0.77130854237E+02  0.12000015872E+02 -0.21078777283E+03  0.22477689879E+03  0.00000000000E+00 0. -1.
</event>
<event>
 7    1  0.2728221E-009  0.9541598E+02  0.7561462E-02  0.1290242E+00
         -2   -1    0    0    0  501 -0.00000000000E+00  0.00000000000E+00  0.63539261520E+02  0.63539261520E+02  0.00000000000E+00 0.  1.
          2   -1    0    0  501    0  0.00000000000E+00 -0.00000000000E+00 -0.40441910126E+03  0.40441910126E+03  0.00000000000E+00 0. -1.
         25    2    1    2    0    0  0.39591517635E+02 -0.26158929692E+02 -0.34160553525E+03  0.36687091852E+03  0.12509257079E+03 0.  0.
          5    1    3    3  502    0  0.65182534188E+02 -0.26824296210E+02 -0.92258450097E+02  0.11617830970E+03  0.41800000000E+01 0.  1.
         -5    1    3    3    0  502 -0.25591016553E+02  0.66536651805E+00 -0.24934708516E+03  0.25069260882E+03  0.41800000000E+01 0.  1.
        -11    1    1    2    0    0 -0.47408668730E+01 -0.28810032557E+02 -0.16796828426E+02  0.33684228354E+02  0.00000000000E+00 0. -1.
         11    1    1    2    0    0 -0.34850650762E+02  0.54968962249E+02  0.17522523940E+02  0.67403215906E+02  0.00000000000E+00 0.  1.
</event>
<event>
 7    1  0.2728221E-009  0.1541951E+03  0.7561462E-02  0.1195411E+00
          2   -1    0    0  501    0  0.00000000000E+00  0.00000000000E+00  0.41128465050E+03  0.41128465050E+03  0.00000000000E+00 0. -1.
         -2   -1    0    0    0  501 -0.00000000000E+00 -0.00000000000E+00 -0.71751773567E+02  0.71751773567E+02  0.00000000000E+00 0.  1.
         25    2    1    2    0    0 -0.11746435022E+03 -0.10515405203E+02  0.26102626330E+03  0.31255496459E+03  0.12508976151E+03 0.  0.
          5    1    3    3  502    0  0.43698371345E+01  0.34613295044E+02  0.25080352289E+02  0.43170269183E+02  0.41800000000E+01 0.  1.
         -5    1    3    3    0  502 -0.12183418735E+03 -0.45128700247E+02  0.23594591101E+03  0.26938469540E+03  0.41800000000E+01 0.  1.
        -11    1    1    2    0    0  0.12654641166E+03  0.22182954891E+02  0.85295010232E+02  0.15421192094E+03  0.00000000000E+00 0. -1.
         11    1    1    2    0    0 -0.90820614394E+01 -0.11667549687E+02 -0.67883966021E+01  0.16269538534E+02  0.00000000000E+00 0.  1.
</event>
<event>
 7    1  0.2728221E-009  0.6644977E+02  0.7561462E-02  0.1372600E+00
          1   -1    0    0  501    0  0.00000000000E+00  0.00000000000E+00  0.81620504426E+03  0.81620504426E+03  0.00000000000E+00 0. -1.
         -1   -1    0    0    0  501 -0.00000000000E+00 -0.00000000000E+00 -0.16007226408E+02  0.16007226408E+02  0.00000000000E+00 0.  1.
         25    2    1    2    0    0  0.25846860999E+02  0.17113367855E+02  0.49604682101E+03  0.51251517239E+03  0.12509366777E+03 0.  0.
          5    1    3    3  502    0  0.23929814251E+02  0.17534575517E+02  0.50315092624E+03  0.50404208587E+03  0.41800000000E+01 0.  1.
         -5    1    3    3    0  502  0.19170467471E+01 -0.42120766207E+00 -0.71041052307E+01  0.84730865247E+01  0.41800000000E+01 0.  1.
        -11    1    1    2    0    0 -0.57364707537E+02  0.81345768147E+01  0.18805560098E+03  0.19677853051E+03  0.00000000000E+00 0. -1.
         11    1    1    2    0    0  0.31517846538E+02 -0.25247944670E+02  0.11609539586E+03  0.12291856776E+03  0.00000000000E+00 0.  1.
</event>
<event>
 7    1  0.2728221E-009  0.8108014E+02  0.7561462E-02  0.1326014E+00
          2   -1    0    0  501    0  0.00000000000E+00  0.00000000000E+00  0.52182558702E+03  0.52182558702E+03  0.00000000000E+00 0. -1.
         -2   -1    0    0    0  501 -0.00000000000E+00 -0.00000000000E+00 -0.25251952369E+02  0.25251952369E+02  0.00000000000E+00 0.  1.
         25    2    1    2    0    0 -0.18722351870E+02 -0.51972946751E+01  0.35393852005E+03  0.37589579091E+03  0.12509049252E+03 0.  0.
          5    1    3    3  502    0  0.14690421189E+02 -0.36339464107E+02  0.32184014289E+02  0.50888587150E+02  0.41800000000E+01 0. -1.
         -5    1    3    3    0  502 -0.33412773059E+02  0.31142169432E+02  0.32175450576E+03  0.32500720376E+03  0.41800000000E+01 0. -1.
        -11    1    1    2    0    0 -0.27342422660E+02  0.12794964478E+02  0.12054371226E+02  0.32505800383E+02  0.00000000000E+00 0.  1.
         11    1    1    2    0    0  0.46064774530E+02 -0.75976698026E+01  0.13058074337E+03  0.13867594809E+03  0.00000000000E+00 0. -1.
</event>
<event>
 7    1  0.2728221E-009  0.7832901E+02  0.7561462E-02  0.1333861E+00
         -4   -1    0    0    0  501 -0.00000000000E+00  0.00000000000E+00  0.49961492529E+02  0.49961492529E+02  0.00000000000E+00 0.  1.
          4   -1    0    0  501    0  0.00000000000E+00 -0.00000000000E+00 -0.27069739793E+03  0.27069739793E+03  0.00000000000E+00 0. -1.
         25    2    1    2    0    0 -0.36577593441E+02 -0.12051236263E+02 -0.10512294104E+03  0.16787520577E+03  0.12509236324E+03 0.  0.
          5    1    3    3  502    0 -0.41882294639E+02 -0.42108041258E+02 -0.11977937925E+03  0.13376018031E+03  0.41800000000E+01 0. -1.
         -5    1    3    3    0  502  0.53047011979E+01  0.30056804995E+02  0.14656438202E+02  0.34115025460E+02  0.41800000000E+01 0. -1.
        -11    1    1    2    0    0  0.24054482476E+02  0.33640661776E+02 -0.77564011980E+01  0.42077000980E+02  0.00000000000E+00 0.  1.
         11    1    1    2    0    0  0.12523110965E+02 -0.21589425513E+02 -0.10785656316E+03  0.11070668371E+03  0.00000000000E+00 0. -1.
</event>
<event>
 7    1  0.2728221E-009  0.9545323E+02  0.7561462E-02  0.1290159E+00
          2   -1    0    0  501    0  0.00000000000E+00  0.00000000000E+00  0.14318590360E+03  0.14318590360E+03  0.00000000000E+00 0. -1.
         -2   -1    0    0    0  501 -0.00000000000E+00 -0.00000000000E+00 -0.96974492245E+02  0.96974492245E+02  0.00000000000E+00 0.  1.
         25    2    1    2    0    0 -0.46445250188E+02 -0.32360835829E+01  0.38050733726E+02  0.13879121087E+03  0.12509000111E+03 0.  0.
          5    1    3    3  502    0 -0.79663661699E+02  0.30189954993E+02  0.16827372866E+02  0.86938859294E+02  0.41800000000E+01 0.  1.
         -5    1    3    3    0  502  0.33218411511E+02 -0.33426038576E+02  0.21223360860E+02  0.51852351580E+02  0.41800000000E+01 0.  1.
        -11    1    1    2    0    0  0.22904728093E+02  0.19175998275E+02 -0.37277642546E+02  0.47769949891E+02  0.00000000000E+00 0.  1.
         11    1    1    2    0    0  0.23540522095E+02 -0.15939914692E+02  0.45438320177E+02  0.53599235083E+02  0.00000000000E+00 0. -1.
</event>
<event>
 7    1  0.2971717E-009  0.1011689E+03  0.7561462E-02  0.1277857E+00
         -1   -1    0    0    0  501 -0.00000000000E+00  0.00000000000E+00  0.19622311415E+03  0.19622311415E+03  0.00000000000E+00 0.  1.
          1   -1    0    0  501    0  0.00000000000E+00 -0.00000000000E+00 -0.80383139103E+02  0.80383139103E+02  0.00000000000E+00 0. -1.
         25    2    1    2    0    0 -0.84016460895E+01 -0.29863773209E+02  0.12430991090E+03  0.17906177627E+03  0.12509089961E+03 0.  0.
          5    1    3    3  502    0 -0.56383646006E+02 -0.12036000036E+02  0.17255470408E+02  0.60325819454E+02  0.41800000000E+01 0. -1.
         -5    1    3    3    0  502  0.47981999916E+02 -0.17827773173E+02  0.10705444049E+03  0.11873595682E+03  0.41800000000E+01 0. -1.
        -11    1    1    2    0    0 -0.99541120363E+01 -0.29449607540E+02  0.10187405038E+02  0.32713100619E+02  0.00000000000E+00 0.  1.
         11    1    1    2    0    0  0.18355758126E+02  0.59313380749E+02 -0.18657340889E+02  0.64831376364E+02  0.00000000000E+00 0. -1.
</event>
<event>
 7    1  0.2728221E-009  0.1419151E+03  0.7561462E-02  0.1210775E+00
          2   -1    0    0  501    0  0.00000000000E+00  0.00000000000E+00  0.11862031304E+04  0.11862031304E+04  0.00000000000E+00 0. -1.
         -2   -1    0    0    0  501 -0.00000000000E+00 -0.00000000000E+00 -0.17738548176E+02  0.17738548176E+02  0.00000000000E+00 0.  1.
         25    2    1    2    0    0 -0.75052895348E+02 -0.57853611911E+02  0.71132140318E+03  0.72842723284E+03  0.12509243547E+03 0.  0.
          5    1    3    3  502    0 -0.17633176649E+02  0.39668628495E+02  0.20791147350E+03  0.21243630156E+03  0.41800000000E+01 0. -1.
         -5    1    3    3    0  502 -0.57419718699E+02 -0.97522240406E+02  0.50340992968E+03  0.51599093128E+03  0.41800000000E+01 0. -1.
        -11    1    1    2    0    0  0.55692251851E+02  0.80049694949E+02  0.39322941916E+03  0.40514066282E+03  0.00000000000E+00 0.  1.
         11    1    1    2    0    0  0.19360643497E+02 -0.22196083038E+02  0.63913759860E+02  0.70373782890E+02  0.00000000000E+00 0. -1.
</event>
<event>
 7    1  0.2728221E-009  0.2035007E+03  0.7561462E-02  0.1146819E+00
          1   -1    0    0  501    0  0.00000000000E+00  0.00000000000E+00  0.10409614838E+04  0.10409614838E+04  0.00000000000E+00 0. -1.
         -1   -1    0    0    0  501 -0.00000000000E+00 -0.00000000000E+00 -0.46620519901E+02  0.46620519901E+02  0.00000000000E+00 0.  1.
         25    2    1    2    0    0 -0.49748315100E+02  0.17749654727E+03  0.39128794408E+03  0.45025903819E+03  0.12508807754E+03 0.  0.
          5    1    3    3  502    0 -0.63764715838E+02  0.78605987246E+02  0.29319966792E+03  0.31020695977E+03  0.41800000000E+01 0. -1.
         -5    1    3    3    0  502  0.14016400737E+02  0.98890560028E+02  0.98088276155E+02  0.14005207843E+03  0.41800000000E+01 0. -1.
        -11    1    1    2    0    0 -0.39434751981E+01 -0.14043675745E+03  0.43075793552E+03  0.45308987282E+03  0.00000000000E+00 0.  1.
         11    1    1    2    0    0  0.53691790298E+02 -0.37059789827E+02  0.17229508429E+03  0.18423309268E+03  0.00000000000E+00 0. -1.
</event>
<event>
 7    1  0.2728221E-009  0.1566765E+03  0.7561462E-02  0.1192501E+00
         -2   -1    0    0    0  501 -0.00000000000E+00  0.00000000000E+00  0.37660987965E+03  0.37660987965E+03  0.00000000000E+00 0.  1.
          2   -1    0    0  501    0  0.00000000000E+00 -0.00000000000E+00 -0.96138839552E+02  0.96138839552E+02  0.00000000000E+00 0. -1.
         25    2    1    2    0    0  0.66328421717E+02  0.12104067207E+03  0.56608764975E+02  0.19468587343E+03  0.12509089982E+03 0.  0.
          5    1    3    3  502    0  0.77397175551E+02  0.12967868840E+03  0.16488126438E+02  0.15197439166E+03  0.41800000000E+01 0.  1.
         -5    1    3    3    0  502 -0.11068753834E+02 -0.86380163349E+01  0.40120638537E+02  0.42711481761E+02  0.41800000000E+01 0.  1.
        -11    1    1    2    0    0 -0.60343367292E+02 -0.56043313288E+02  0.18397914939E+03  0.20157009290E+03  0.00000000000E+00 0.  1.
         11    1    1    2    0    0 -0.59850544247E+01 -0.64997358777E+02  0.39883125729E+02  0.76492752875E+02  0.00000000000E+00 0. -1.
</event>
<event>
 7    1  0.2728221E-009  0.1041561E+03  0.7561462E-02  0.1271791E+00
          2   -1    0    0  501    0  0.00000000000E+00  0.00000000000E+00  0.69265512231E+03  0.69265512231E+03  0.00000000000E+00 0. -1.
         -2   -1    0    0    0  501 -0.00000000000E+00 -0.00000000000E+00 -0.18263088808E+02  0.18263088808E+02  0.00000000000E+00 0.  1.
         25    2    1    2    0    0  0.32173826550E+02  0.37125287685E+01  0.39881824471E+03  0.41922900373E+03  0.12509207517E+03 0.  0.
          5    1    3    3  502    0  0.23973797031E+02 -0.51474375624E+02  0.98743311374E+02  0.11398275410E+03  0.41800000000E+01 0.  1.
         -5    1    3    3    0  502  0.82000295193E+01  0.55186904393E+02  0.30007493334E+03  0.30524624964E+03  0.41800000000E+01 0.  1.
        -11    1    1    2    0    0  0.11817615153E+02 -0.37907948381E+02  0.10578981881E+03  0.11299625808E+03  0.00000000000E+00 0.  1.
         11    1    1    2    0    0 -0.43991441703E+02  0.34195419612E+02  0.16978396999E+03  0.17869294930E+03  0.00000000000E+00 0. -1.
</event>
<event>
 7    1  0.2728221E-009  0.1057289E+03  0.7561462E-02  0.1268690E+00
         -3   -1    0    0    0  501 -0.00000000000E+00  0.00000000000E+00  0.27075235782E+03  0.27075235782E+03  0.00000000000E+00 0.  1.
          3   -1    0    0  501    0  0.00000000000E+00 -0.00000000000E+00 -0.57456093198E+02  0.57456093198E+02  0.00000000000E+00 0. -1.
         25    2    1    2    0    0  0.12460821882E+02 -0.29368100048E+02  0.19032744656E+03  0.22998580309E+03  0.12510465750E+03 0.  0.
          5    1    3    3  502    0  0.61960946548E+02 -0.35345951525E+02  0.71646281703E+02  0.10118872105E+03  0.41800000000E+01 0.  1.
         -5    1    3    3    0  502 -0.49500124666E+02  0.59778514769E+01  0.11868116485E+03  0.12879708204E+03  0.41800000000E+01 0.  1.
        -11    1    1    2    0    0 -0.30212101932E+02 -0.20847115440E+02  0.25832421681E+02  0.44885268577E+02  0.00000000000E+00 0.  1.
         11    1    1    2    0    0  0.17751280050E+02  0.50215215489E+02 -0.28636036184E+01  0.53337379348E+02  0.00000000000E+00 0. -1.
</event>
<event>
 7    1  0.2728221E-009  0.1593808E+03  0.7561462E-02  0.1189398E+00
         -2   -1    0    0    0  501 -0.00000000000E+00  0.00000000000E+00  0.40884328639E+02  0.40884328639E+02  0.00000000000E+00 0.  1.
          2   -1    0    0  501    0  0.00000000000E+00 -0.00000000000E+00 -0.88107783923E+03  0.88107783923E+03  0.00000000000E+00 0. -1.
         25    2    1    2    0    0  0.29200990404E+02  0.14524518109E+03 -0.31468974512E+03  0.36962892232E+03  0.12508814516E+03 0.  0.
          5    1    3    3  502    0  0.50946504465E+02  0.97509636775E+02 -0.29247507079E+03  0.31251050385E+03  0.41800000000E+01 0.  1.
         -5    1    3    3    0  502 -0.21745514061E+02  0.47735544315E+02 -0.22214674327E+02  0.57118418468E+02  0.41800000000E+01 0.  1.
        -11    1    1    2    0    0 -0.33645882685E+02 -0.47561444050E+02 -0.31346744802E+03  0.31883534520E+03  0.00000000000E+00 0. -1.
         11    1    1    2    0    0  0.44448922812E+01 -0.97683737040E+02 -0.21203631746E+03  0.23349790035E+03  0.00000000000E+00 0.  1.
</event>
<event>
 7    1  0.2728221E-009  0.1180293E+03  0.7561462E-02  0.1246384E+00
          2   -1    0    0  501    0  0.00000000000E+00  0.00000000000E+00  0.14020358713E+03  0.14020358713E+03  0.00000000000E+00 0. -1.
         -2   -1    0    0    0  501 -0.00000000000E+00 -0.00000000000E+00 -0.14029681516E+03  0.14029681516E+03  0.00000000000E+00 0.  1.
         25    2    1    2    0    0  0.87567319014E+02 -0.18957903726E+02 -0.19564167499E+02  0.15510185271E+03  0.12508553310E+03 0.  0.
          5    1    3    3  502    0  0.31540043350E+02  0.48744481097E+02 -0.31715903565E+02  0.66288533781E+02  0.41800000000E+01 0. -1.
         -5    1    3    3    0  502  0.56027275664E+02 -0.67702384823E+02  0.12151736067E+02  0.88813318925E+02  0.41800000000E+01 0. -1.
        -11    1    1    2    0    0 -0.52985450199E+02  0.14976304076E+02 -0.31681298066E+02  0.63525209671E+02  0.00000000000E+00 0.  1.
         11    1    1    2    0    0 -0.34581868815E+02  0.39815996500E+01  0.51152237536E+02  0.61873339909E+02  0.00000000000E+00 0. -1.
</event>
<event>
 7    1  0.2728221E-009  0.1367263E+03  0.7561462E-02  0.1217803E+00
          2   -1    0    0  501    0  0.00000000000E+00  0.00000000000E+00  0.45224629736E+03  0.45224629736E+03  0.00000000000E+00 0. -1.
         -2   -1    0    0    0  501 -0.00000000000E+00 -0.00000000000E+00 -0.62455567730E+02  0.62455567730E+02  0.00000000000E+00 0.  1.
         25    2    1    2    0    0 -0.91977604709E+02  0.61710440437E+02  0.10989680847E+03  0.19998089684E+03  0.12508793851E+03 0.  0.
          5    1    3    3  502    0 -0.84567879129E+01 -0.17465094629E+02  0.77997766849E+02  0.80483978689E+02  0.41800000000E+01 0. -1.
         -5    1    3    3    0  502 -0.83520816796E+02  0.79175535066E+02  0.31899041624E+02  0.11949691815E+03  0.41800000000E+01 0. -1.
        -11    1    1    2    0    0  0.41058094493E+02  0.17211277973E+02  0.13406319259E+03  0.14126193692E+03  0.00000000000E+00 0. -1.
         11    1    1    2    0    0  0.50919510216E+02 -0.78921718410E+02  0.14583072856E+03  0.17345903133E+03  0.00000000000E+00 0.  1.
</event>
<event>
 7    1  0.2728221E-009  0.1372044E+03  0.7561462E-02  0.1217141E+00
          2   -1    0    0  501    0  0.00000000000E+00  0.00000000000E+00  0.40072443088E+03  0.40072443088E+03  0.00000000000E+00 0. -1.
         -2   -1    0    0    0  501 -0.00000000000E+00 -0.00000000000E+00 -0.48122987334E+02  0.48122987334E+02  0.00000000000E+00 0.  1.
         25    2    1    2    0    0 -0.25643114485E+02  0.82784897884E+02  0.18703175604E+03  0.24112133506E+03  0.12509081427E+03 0.  0.
          5    1    3    3  502    0  0.11620776274E+02  0.10683110265E+03  0.13601321634E+03  0.17339260179E+03  0.41800000000E+01 0.  1.
         -5    1    3    3    0  502 -0.37263890759E+02 -0.24046204762E+02  0.51018539695E+02  0.67728733272E+02  0.41800000000E+01 0.  1.
        -11    1    1    2    0    0 -0.38372243156E+01 -0.91499081637E+02  0.10178337377E+03  0.13691844802E+03  0.00000000000E+00 0. -1.
         11    1    1    2    0    0  0.29480338800E+02  0.87141837529E+01  0.63786313735E+02  0.70807635140E+02  0.00000000000E+00 0.  1.
</event>
<event>
 7    1  0.2728221E-009  0.1109129E+03  0.7561462E-02  0.1258889E+00
         -2   -1    0    0    0  501 -0.00000000000E+00  0.00000000000E+00  0.22482742409E+02  0.22482742409E+02  0.00000000000E+00 0.  1.
          2   -1    0    0  501    0  0.00000000000E+00 -0.00000000000E+00 -0.78901295791E+03  0.78901295791E+03  0.00000000000E+00 0. -1.
         25    2    1    2    0    0 -0.56594400655E+02 -0.50138251843E+02 -0.47268820851E+03  0.49477142519E+03  0.12509136756E+03 0.  0.
          5    1    3    3  502    0  0.13919239131E+02  0.51247261183E+01 -0.19121910295E+01  0.15528583654E+02  0.41800000000E+01 0.  1.
         -5    1    3    3    0  502 -0.70513639786E+02 -0.55262977962E+02 -0.47077601748E+03  0.47924284154E+03  0.41800000000E+01 0.  1.
        -11    1    1    2    0    0  0.38645445257E+02  0.75992875368E+02 -0.23511345532E+03  0.25009343137E+03  0.00000000000E+00 0. -1.
         11    1    1    2    0    0  0.17948955398E+02 -0.25854623524E+02 -0.58728551673E+02  0.66630843751E+02  0.00000000000E+00 0.  1.
</event>
<event>
 7    1  0.2836515E-009  0.1157087E+03  0.7561462E-02  0.1250349E+00
         -2   -1    0    0    0  501 -0.00000000000E+00  0.00000000000E+00  0.15140718093E+03  0.15140718093E+03  0.00000000000E+00 0.  1.
          2   -1    0    0  501    0  0.00000000000E+00 -0.00000000000E+00 -0.19383693514E+03  0.19383693514E+03  0.00000000000E+00 0. -1.
         25    2    1    2    0    0  0.72684268186E+02  0.57337233773E+02  0.72918956011E+02  0.17185836086E+03  0.12509021079E+03 0.  0.
          5    1    3    3  502    0  0.86133968831E+02  0.53817580215E+02  0.43225254734E+01  0.10174256313E+03  0.41800000000E+01 0. -1.
         -5    1    3    3    0  502 -0.13449700645E+02  0.35196535585E+01  0.68596430538E+02  0.70115797728E+02  0.41800000000E+01 0. -1.
        -11    1    1    2    0    0 -0.66589559951E+02 -0.72780597081E+02 -0.59681705076E+02  0.11529566656E+03  0.00000000000E+00 0.  1.
         11    1    1    2    0    0 -0.60947082340E+01  0.15443363307E+02 -0.55667005141E+02  0.58090088656E+02  0.00000000000E+00 0. -1.
</event>
<event>
 7    1  0.2728221E-009  0.1021159E+03  0.7561462E-02  0.1275908E+00
         -2   -1    0    0    0  501 -0.00000000000E+00  0.00000000000E+00  0.57863374199E+02  0.57863374199E+02  0.00000000000E+00 0.  1.
          2   -1    0    0  501    0  0.00000000000E+00 -0.00000000000E+00 -0.32457344631E+03  0.32457344631E+03  0.00000000000E+00 0. -1.
         25    2    1    2    0    0  0.58300539052E+02 -0.39414314461E+02 -0.20922578810E+03  0.25372330568E+03  0.12509054480E+03 0.  0.
          5    1    3    3  502    0  0.33508439951E+02 -0.64022187918E+02 -0.43809526609E+02  0.84607346699E+02  0.41800000000E+01 0. -1.
         -5    1    3    3    0  502  0.24792099101E+02  0.24607873457E+02 -0.16541626150E+03  0.16911595898E+03  0.41800000000E+01 0. -1.
        -11    1    1    2    0    0  0.96965062622E+01 -0.89745835628E+01 -0.41744085239E+02  0.43785089200E+02  0.00000000000E+00 0. -1.
         11    1    1    2    0    0 -0.67997045314E+02  0.48388898024E+02 -0.15740198770E+02  0.84928425635E+02  0.00000000000E+00 0.  1.
</event>
<event>
 7    1  0.2728221E-009  0.1291190E+03  0.7561462E-02  0.1228769E+00
         -1   -1    0    0    0  501 -0.00000000000E+00  0.00000000000E+00  0.83101796410E+02  0.83101796410E+02  0.00000000000E+00 0.  1.
          1   -1    0    0  501    0  0.00000000000E+00 -0.00000000000E+00 -0.24136942826E+03  0.24136942826E+03  0.00000000000E+00 0. -1.
         25    2    1    2    0    0 -0.22529095265E+02 -0.70656830438E+02 -0.28018743123E+02  0.14809778632E+03  0.12509179240E+03 0.  0.
          5    1    3    3  502    0 -0.53435082003E+02 -0.92674874495E+02 -0.23957504237E+02  0.10970585564E+03  0.41800000000E+01 0.  1.
         -5    1    3    3    0  502  0.30905986738E+02  0.22018044057E+02 -0.40612388856E+01  0.38391930684E+02  0.41800000000E+01 0.  1.
        -11    1    1    2    0    0  0.55358933606E+02  0.44573571420E+02 -0.10692892195E+03  0.12839473957E+03  0.00000000000E+00 0.  1.
         11    1    1    2    0    0 -0.32829838342E+02  0.26083259018E+02 -0.23319966780E+02  0.47978698786E+02  0.00000000000E+00 0. -1.
</event>
<event>
 7    1  0.2728221E-009  0.1002100E+03  0.7561462E-02  0.1279855E+00
          1   -1    0    0  501    0  0.00000000000E+00  0.00000000000E+00  0.11126822863E+03  0.11126822863E+03  0.00000000000E+00 0. -1.
         -1   -1    0    0    0  501 -0.00000000000E+00 -0.00000000000E+00 -0.10775973664E+03  0.10775973664E+03  0.00000000000E+00 0.  1.
         25    2    1    2    0    0 -0.11614392460E+02 -0.66473742939E+01  0.82224941069E+01  0.12606413720E+03  0.12508187551E+03 0.  0.
          5    1    3    3  502    0 -0.53389292289E+02 -0.43961420246E+02 -0.74745193787E-01  0.69285647778E+02  0.41800000000E+01 0.  1.
         -5    1    3    3    0  502  0.41774899829E+02  0.37314045952E+02  0.82972393007E+01  0.56778489422E+02  0.41800000000E+01 0.  1.
        -11    1    1    2    0    0 -0.31342796172E+02 -0.87286371095E+00 -0.29288312619E+02  0.42906153627E+02  0.00000000000E+00 0.  1.
         11    1    1    2    0    0  0.42957188632E+02  0.75202380049E+01  0.24574310501E+02  0.50057674451E+02  0.00000000000E+00 0. -1.
</event>
<event>
 7    1  0.2728221E-009  0.7994650E+02  0.7561462E-02  0.1329203E+00
          3   -1    0    0  501    0  0.00000000000E+00  0.00000000000E+00  0.26050134896E+03  0.26050134896E+03  0.00000000000E+00 0. -1.
         -3   -1    0    0    0  501 -0.00000000000E+00 -0.00000000000E+00 -0.54375515307E+02  0.54375515307E+02  0.00000000000E+00 0.  1.
         25    2    1    2    0    0  0.35584658774E+02 -0.30615631787E+02  0.13829453702E+03  0.19229080890E+03  0.12508713509E+03 0.  0.
          5    1    3    3  502    0  0.30684623256E+02 -0.37770882256E+02  0.16067113948E+03  0.16793115588E+03  0.41800000000E+01 0.  1.
         -5    1    3    3    0  502  0.49000355177E+01  0.71552504688E+01 -0.22376602464E+02  0.24359653019E+02  0.41800000000E+01 0.  1.
        -11    1    1    2    0    0  0.21685920951E+02  0.37925239044E+02  0.22254005428E+02  0.49029008573E+02  0.00000000000E+00 0.  1.
         11    1    1    2    0    0 -0.57270579725E+02 -0.73096072565E+01  0.45577291204E+02  0.73557046799E+02  0.00000000000E+00 0. -1.
</event>
<event>
 7    1  0.2728221E-009  0.7397029E+02  0.7561462E-02  0.1347090E+00
         -2   -1    0    0    0  501 -0.00000000000E+00  0.00000000000E+00  0.29481511023E+02  0.29481511023E+02  0.00000000000E+00 0.  1.
          2   -1    0    0  501    0  0.00000000000E+00 -0.00000000000E+00 -0.48006595631E+03  0.48006595631E+03  0.00000000000E+00 0. -1.
         25    2    1    2    0    0 -0.21045584379E+02  0.40018856019E+02 -0.30898526318E+03  0.33639817294E+03  0.12508961763E+03 0.  0.
          5    1    3    3  502    0  0.49065055568E+01 -0.14871435244E+02  0.46902073063E+01  0.16873168866E+02  0.41800000000E+01 0. -1.
         -5    1    3    3    0  502 -0.25952089935E+02  0.54890291263E+02 -0.31367547048E+03  0.31952500408E+03  0.41800000000E+01 0. -1.
        -11    1    1    2    0    0  0.30887663329E+02 -0.12921264967E+01 -0.12683960852E+03  0.13055268525E+03  0.00000000000E+00 0. -1.
         11    1    1    2    0    0 -0.98420789503E+01 -0.38726729522E+02 -0.14759573589E+02  0.42596609138E+02  0.00000000000E+00 0.  1.
</event>
<event>
 7    1  0.2728221E-009  0.1388228E+03  0.7561462E-02  0.1214922E+00
          1   -1    0    0  501    0  0.00000000000E+00  0.00000000000E+00  0.13610988442E+04  0.13610988442E+04  0.00000000000E+00 0. -1.
         -1   -1    0    0    0  501 -0.00000000000E+00 -0.00000000000E+00 -0.17694361577E+02  0.17694361577E+02  0.00000000000E+00 0.  1.
         25    2    1    2    0    0  0.38914125708E+02 -0.87636685112E+02  0.96870948936E+03  0.98144787823E+03  0.12508942860E+03 0.  0.
          5    1    3    3  502    0  0.84563934853E+02 -0.50258350427E+02  0.60159396883E+03  0.60959801230E+03  0.41800000000E+01 0. -1.
         -5    1    3    3    0  502 -0.45649809145E+02 -0.37378334685E+02  0.36711552053E+03  0.37184986593E+03  0.41800000000E+01 0. -1.
        -11    1    1    2    0    0 -0.46291163608E+02  0.17461259806E+02  0.77942532768E+02  0.92319043737E+02  0.00000000000E+00 0.  1.
         11    1    1    2    0    0  0.73770378997E+01  0.70175425307E+02  0.29675246047E+03  0.30502628379E+03  0.00000000000E+00 0. -1.
</event>
<event>
 7    1  0.2728221E-009  0.1953734E+03  0.7561462E-02  0.1153702E+00
          2   -1    0    0  501    0  0.00000000000E+00  0.00000000000E+00  0.35235502277E+03  0.35235502277E+03  0.00000000000E+00 0. -1.
         -2   -1    0    0    0  501 -0.00000000000E+00 -0.00000000000E+00 -0.11495333810E+03  0.11495333810E+03  0.00000000000E+00 0.  1.
         25    2    1    2    0    0 -0.16512304086E+03 -0.30286207779E+02  0.14925001387E+03  0.25711035340E+03  0.12508914495E+03 0.  0.
          5    1    3    3  502    0 -0.17324017345E+03 -0.54400365862E+02  0.14132789185E+03  0.23013605306E+03  0.41800000000E+01 0. -1.
         -5    1    3    3    0  502  0.81171325953E+01  0.24114158083E+02  0.79221220193E+01  0.26974300341E+02  0.41800000000E+01 0. -1.
        -11    1    1    2    0    0  0.90696514182E+02  0.53587288762E+02  0.78996998962E+02  0.13167376750E+03  0.00000000000E+00 0. -1.
         11    1    1    2    0    0  0.74426526673E+02 -0.23301080984E+02  0.91546718358E+01  0.78524239977E+02  0.00000000000E+00 0.  1.
</event>
<event>
 7    1  0.2728221E-009  0.7449182E+02  0.7561462E-02  0.1345452E+00
         -1   -1    0    0    0  501 -0.00000000000E+00  0.00000000000E+00  0.14370844482E+03  0.14370844482E+03  0.00000000000E+00 0.  1.
          1   -1    0    0  501    0  0.00000000000E+00 -0.00000000000E+00 -0.10116026948E+03  0.10116026948E+03  0.00000000000E+00 0. -1.
         25    2    1    2    0    0  0.32838366095E+02 -0.10603557539E+02 -0.16652490676E+02  0.13082741514E+03  0.12509082056E+03 0.  0.
          5    1    3    3  502    0  0.53721796707E+02 -0.10605727472E+01 -0.60580945312E+02  0.81084397950E+02  0.41800000000E+01 0. -1.
         -5    1    3    3    0  502 -0.20883430612E+02 -0.95429847914E+01  0.43928454636E+02  0.49743017194E+02  0.41800000000E+01 0. -1.
        -11    1    1    2    0    0 -0.15386039260E+02 -0.26559425063E+02  0.65659286054E+02  0.72479480606E+02  0.00000000000E+00 0.  1.
         11    1    1    2    0    0 -0.17452326835E+02  0.37162982602E+02 -0.64586200376E+01  0.41561818543E+02  0.00000000000E+00 0. -1.
</event>
<event>
 7    1  0.2728221E-009  0.6871181E+02  0.7561462E-02  0.1364529E+00
          1   -1    0    0  501    0  0.00000000000E+00  0.00000000000E+00  0.42232032183E+03  0.42232032183E+03  0.00000000000E+00 0. -1.
         -1   -1    0    0    0  501 -0.00000000000E+00 -0.00000000000E+00 -0.34003049009E+02  0.34003049009E+02  0.00000000000E+00 0.  1.
         25    2    1    2    0    0 -0.42732706480E+02 -0.53250679215E+01  0.27639667042E+03  0.30643002360E+03  0.12509915823E+03 0.  0.
          5    1    3    3  502    0  0.16824494314E+02  0.18847211660E+02  0.32754028808E+01  0.25816306094E+02  0.41800000000E+01 0.  1.
         -5    1    3    3    0  502 -0.59557200794E+02 -0.24172279581E+02  0.27312126754E+03  0.28061371750E+03  0.41800000000E+01 0.  1.
        -11    1    1    2    0    0  0.65924399952E+01  0.89135125154E+01 -0.14560790917E+02  0.18301027364E+02  0.00000000000E+00 0.  1.
         11    1    1    2    0    0  0.36140266485E+02 -0.35884445939E+01  0.12648139331E+03  0.13159231987E+03  0.00000000000E+00 0. -1.
</event>
<event>
 7    1  0.2728221E-009  0.1606218E+03  0.7561462E-02  0.1187997E+00
         -1   -1    0    0    0  501 -0.00000000000E+00  0.00000000000E+00  0.20151455205E+02  0.20151455205E+02  0.00000000000E+00 0.  1.
          1   -1    0    0  501    0  0.00000000000E+00 -0.00000000000E+00 -0.17311429347E+04  0.17311429347E+04  0.00000000000E+00 0. -1.
         25    2    1    2    0    0  0.11867159769E+03  0.79447497997E+01 -0.13452523765E+04  0.13562803291E+04  0.12508520025E+03 0.  0.
          5    1    3    3  502    0 -0.25008515382E+02 -0.10080026268E+02 -0.17970195636E+03  0.18176165242E+03  0.41800000000E+01 0.  1.
         -5    1    3    3    0  502  0.14368011307E+03  0.18024776067E+02 -0.11655504202E+04  0.11745186767E+04  0.41800000000E+01 0.  1.
        -11    1    1    2    0    0 -0.93671779932E+02 -0.45372553965E+02 -0.26313854855E+03  0.28297520518E+03  0.00000000000E+00 0.  1.
         11    1    1    2    0    0 -0.24999817753E+02  0.37427804165E+02 -0.10260055445E+03  0.11203885570E+03  0.00000000000E+00 0. -1.
</event>
<event>
 7    1  0.2728221E-009  0.1164411E+03  0.7561462E-02  0.1249086E+00
         -1   -1    0    0    0  501 -0.00000000000E+00  0.00000000000E+00  0.10102527165E+03  0.10102527165E+03  0.00000000000E+00 0.  1.
          1   -1    0    0  501    0  0.00000000000E+00 -0.00000000000E+00 -0.17697853675E+03  0.17697853675E+03  0.00000000000E+00 0. -1.
         25    2    1    2    0    0  0.78350123524E+02 -0.42526255687E+01 -0.40191437593E+02  0.15303534541E+03  0.12509052166E+03 0.  0.
          5    1    3    3  502    0  0.67247359808E+01 -0.34527739478E+02 -0.62664651027E+02  0.71984149338E+02  0.41800000000E+01 0. -1.
         -5    1    3    3    0  502  0.71625387543E+02  0.30275113909E+02  0.22473213434E+02  0.81051196073E+02  0.41800000000E+01 0. -1.
        -11    1    1    2    0    0 -0.33027578394E+02 -0.42927442224E+02 -0.13014619421E+02  0.55704277656E+02  0.00000000000E+00 0.  1.
         11    1    1    2    0    0 -0.45322545130E+02  0.47180067793E+02 -0.22747208090E+02  0.69264185333E+02  0.00000000000E+00 0. -1.
</event>
<event>
 7    1  0.2728221E-009  0.1053722E+03  0.7561462E-02  0.1269388E+00
         -1   -1    0    0    0  501 -0.00000000000E+00  0.00000000000E+00  0.36955922719E+03  0.36955922719E+03  0.00000000000E+00 0.  1.
          1   -1    0    0  501    0  0.00000000000E+00 -0.00000000000E+00 -0.57018172438E+02  0.57018172438E+02  0.00000000000E+00 0. -1.
         25    2    1    2    0    0  0.20872827234E+01 -0.50139459481E+02  0.27514298952E+03  0.30638126994E+03  0.12508995061E+03 0.  0.
          5    1    3    3  502    0 -0.43505526994E+02  0.40679397500E+01  0.35497015619E+02  0.56451656581E+02  0.41800000000E+01 0.  1.
         -5    1    3    3    0  502  0.45592809717E+02 -0.54207399230E+02  0.23964597390E+03  0.24992961336E+03  0.41800000000E+01 0.  1.
        -11    1    1    2    0    0 -0.40646433459E+02  0.37538218220E+02  0.53109975507E+02  0.76693675609E+02  0.00000000000E+00 0.  1.
         11    1    1    2    0    0  0.38559150735E+02  0.12601241260E+02 -0.15711910270E+02  0.43502454081E+02  0.00000000000E+00 0. -1.
</event>
<event>
 7    1  0.2728221E-009  0.1481340E+03  0.7561462E-02  0.1202785E+00
          1   -1    0    0  501    0  0.00000000000E+00  0.00000000000E+00  0.44969339388E+02  0.44969339388E+02  0.00000000000E+00 0. -1.
         -1   -1    0    0    0  501 -0.00000000000E+00 -0.00000000000E+00 -0.55064971986E+03  0.55064971986E+03  0.00000000000E+00 0.  1.
         25    2    1    2    0    0 -0.53245463937E+02  0.99761218161E+02 -0.23962527134E+03  0.29301020764E+03  0.12508929225E+03 0.  0.
          5    1    3    3  502    0 -0.53379102454E+02  0.12773679723E+03 -0.18095989033E+03  0.22788148730E+03  0.41800000000E+01 0. -1.
         -5    1    3    3    0  502  0.13363851747E+00 -0.27975579073E+02 -0.58665381006E+02  0.65128720334E+02  0.41800000000E+01 0. -1.
        -11    1    1    2    0    0  0.13291737024E+02 -0.86298532642E+02 -0.10723321532E+03  0.13828618686E+03  0.00000000000E+00 0. -1.
         11    1    1    2    0    0  0.39953726913E+02 -0.13462685519E+02 -0.15882189382E+03  0.16432266475E+03  0.00000000000E+00 0.  1.
</event>
<event>
 7    1  0.2728221E-009  0.1687292E+03  0.7561462E-02  0.1179180E+00
          2   -1    0    0  501    0  0.00000000000E+00  0.00000000000E+00  0.18413311329E+03  0.18413311329E+03  0.00000000000E+00 0. -1.
         -2   -1    0    0    0  501 -0.00000000000E+00 -0.00000000000E+00 -0.18269296503E+03  0.18269296503E+03  0.00000000000E+00 0.  1.
         25    2    1    2    0    0  0.14626185808E+03  0.33415493527E+01 -0.18034016207E+02  0.19332901097E+03  0.12508870318E+03 0.  0.
          5    1    3    3  502    0  0.14994914652E+03 -0.32104584158E+02 -0.52969689849E+00  0.15340535794E+03  0.41800000000E+01 0. -1.
         -5    1    3    3    0  502 -0.36872884439E+01  0.35446133510E+02 -0.17504319308E+02  0.39923653031E+02  0.41800000000E+01 0. -1.
        -11    1    1    2    0    0 -0.81832729519E+02  0.97969548914E+01 -0.33592030535E+02  0.89000002590E+02  0.00000000000E+00 0.  1.
         11    1    1    2    0    0 -0.64429128558E+02 -0.13138504244E+02  0.53066195004E+02  0.84497064758E+02  0.00000000000E+00 0. -1.
</event>
<event>
 7    1  0.2728221E-009  0.1466813E+03  0.7561462E-02  0.1204611E+00
          1   -1    0    0  501    0  0.00000000000E+00  0.00000000000E+00  0.23540783155E+04  0.23540783155E+04  0.00000000000E+00 0. -1.
         -1   -1    0    0    0  501 -0.00000000000E+00 -0.00000000000E+00 -0.17185197311E+02  0.17185197311E+02  0.00000000000E+00 0.  1.
         25    2    1    2    0    0  0.76239740113E+02 -0.10470372135E+03  0.18081530578E+04  0.18170971564E+04  0.12509687478E+03 0.  0.
          5    1    3    3  502    0  0.33424008434E+02 -0.75564989881E+02  0.42552021658E+03  0.43348836104E+03  0.41800000000E+01 0.  1.
         -5    1    3    3    0  502  0.42815731679E+02 -0.29138731471E+02  0.13826328412E+04  0.13836087953E+04  0.41800000000E+01 0.  1.
        -11    1    1    2    0    0 -0.60754206216E+02  0.86380604215E+01  0.13045751195E+03  0.14416952550E+03  0.00000000000E+00 0.  1.
         11    1    1    2    0    0 -0.15485533897E+02  0.96065660930E+02  0.39828254841E+03  0.40999683089E+03  0.00000000000E+00 0. -1.
</event>
<event>
 7    1  0.2728221E-009  0.2033720E+03  0.7561462E-02  0.1146925E+00
          1   -1    0    0  501    0  0.00000000000E+00  0.00000000000E+00  0.17547369318E+03  0.17547369318E+03  0.00000000000E+00 0. -1.
         -1   -1    0    0    0  501 -0.00000000000E+00 -0.00000000000E+00 -0.25204834536E+03  0.25204834536E+03  0.00000000000E+00 0.  1.
         25    2    1    2    0    0  0.15619858064E+03  0.89204880941E+02 -0.41062456610E+02  0.22291095734E+03  0.12509061588E+03 0.  0.
          5    1    3    3  502    0  0.85968363484E+02  0.11369308301E+03 -0.12559918512E+02  0.14314992350E+03  0.41800000000E+01 0. -1.
         -5    1    3    3    0  502  0.70230217154E+02 -0.24488202066E+02 -0.28502538098E+02  0.79761033844E+02  0.41800000000E+01 0. -1.
        -11    1    1    2    0    0 -0.10991813665E+03 -0.28935304414E+02  0.13081618591E+02  0.11441318697E+03  0.00000000000E+00 0.  1.
         11    1    1    2    0    0 -0.46280443985E+02 -0.60269576527E+02 -0.48593814158E+02  0.90197894236E+02  0.00000000000E+00 0. -1.
</event>
<event>
 7    1  0.2728221E-009  0.1978202E+03  0.7561462E-02  0.1151591E+00
          2   -1    0    0  501    0  0.00000000000E+00  0.00000000000E+00  0.11738656270E+03  0.11738656270E+03  0.00000000000E+00 0. -1.
         -2   -1    0    0    0  501 -0.00000000000E+00 -0.00000000000E+00 -0.38023099971E+03  0.38023099971E+03  0.00000000000E+00 0.  1.
         25    2    1    2    0    0  0.13347603781E+03 -0.11568744097E+03 -0.18603495642E+03  0.28541500194E+03  0.12511307548E+03 0.  0.
          5    1    3    3  502    0  0.12484757557E+03 -0.13262366741E+03 -0.19236615094E+03  0.26494935876E+03  0.41800000000E+01 0. -1.
         -5    1    3    3    0  502  0.86284622462E+01  0.16936226440E+02  0.63311945178E+01  0.20465643180E+02  0.41800000000E+01 0. -1.
        -11    1    1    2    0    0 -0.13770174877E+03  0.82482156049E+02 -0.78509417625E+02  0.17868633506E+03  0.00000000000E+00 0. -1.
         11    1    1    2    0    0  0.42257109558E+01  0.33205284919E+02  0.16999370315E+01  0.33516225407E+02  0.00000000000E+00 0.  1.
</event>
<event>
 7    1  0.2728221E-009  0.1012459E+03  0.7561462E-02  0.1277698E+00
          1   -1    0    0  501    0  0.00000000000E+00  0.00000000000E+00  0.97272618540E+03  0.97272618540E+03  0.00000000000E+00 0. -1.
         -1   -1    0    0    0  501 -0.00000000000E+00 -0.00000000000E+00 -0.31150414403E+02  0.31150414403E+02  0.00000000000E+00 0.  1.
         25    2    1    2    0    0 -0.61656754967E+02  0.97959818196E+01  0.85320307373E+03  0.86458083484E+03  0.12508804201E+03 0.  0.
          5    1    3    3  502    0 -0.77532500753E+02  0.11208166505E+02  0.27053716896E+03  0.28168199065E+03  0.41800000000E+01 0. -1.
         -5    1    3    3    0  502  0.15875745786E+02 -0.14121846849E+01  0.58266590477E+03  0.58289884418E+03  0.41800000000E+01 0. -1.
        -11    1    1    2    0    0  0.72030699132E+02 -0.35165122969E+02  0.68543136615E+02  0.10546643574E+03  0.00000000000E+00 0.  1.
         11    1    1    2    0    0 -0.10373944165E+02  0.25369141149E+02  0.19829560653E+02  0.33829329226E+02  0.00000000000E+00 0. -1.
</event>
<event>
 7    1  0.2728221E-009  0.1492734E+03  0.7561462E-02  0.1201369E+00
         -1   -1    0    0    0  501 -0.00000000000E+00  0.00000000000E+00  0.33610524480E+03  0.33610524480E+03  0.00000000000E+00 0.  1.
          1   -1    0    0  501    0  0.00000000000E+00 -0.00000000000E+00 -0.82462847562E+02  0.82462847562E+02  0.00000000000E+00 0. -1.
         25    2    1    2    0    0  0.86654071254E+01  0.10411790791E+03  0.50662823746E+02  0.17067268788E+03  0.12508723616E+03 0.  0.
          5    1    3    3  502    0 -0.50927236948E+02  0.10974921216E+02  0.18453292550E+02  0.55425885331E+02  0.41800000000E+01 0.  1.
         -5    1    3    3    0  502  0.59592644073E+02  0.93142986691E+02  0.32209531196E+02  0.11524680255E+03  0.41800000000E+01 0.  1.
        -11    1    1    2    0    0 -0.28605108686E+02  0.10134428730E+01  0.16892230681E+02  0.33235925845E+02  0.00000000000E+00 0.  1.
         11    1    1    2    0    0  0.19939701560E+02 -0.10513135078E+03  0.18608734281E+03  0.21465947864E+03  0.00000000000E+00 0. -1.
</event>
<event>
 7    1  0.2728221E-009  0.1252899E+03  0.7561462E-02  0.1234617E+00
         -3   -1    0    0    0  501 -0.00000000000E+00  0.00000000000E+00  0.48343858728E+03  0.48343858728E+03  0.00000000000E+00 0.  1.
          3   -1    0    0  501    0  0.00000000000E+00 -0.00000000000E+00 -0.47691509729E+02  0.47691509729E+02  0.00000000000E+00 0. -1.
         25    2    1    2    0    0 -0.95824594528E+02  0.26105253745E+02  0.17174413539E+03  0.23453678076E+03  0.12509043249E+03 0.  0.
          5    1    3    3  502    0 -0.89180715339E+02  0.56273127176E+02  0.66417524915E+02  0.12469412515E+03  0.41800000000E+01 0. -1.
         -5    1    3    3    0  502 -0.66438791887E+01 -0.30167873431E+02  0.10532661048E+03  0.10984265562E+03  0.41800000000E+01 0. -1.
        -11    1    1    2    0    0  0.34585306349E+02 -0.38115769818E+02  0.20263408398E+03  0.20906823603E+03  0.00000000000E+00 0.  1.
         11    1    1    2    0    0  0.61239288178E+02  0.12010516073E+02  0.61368858169E+02  0.87525080211E+02  0.00000000000E+00 0. -1.
</event>
<event>
 7    1  0.2728221E-009  0.1727566E+03  0.7561462E-02  0.1175003E+00
         -2   -1    0    0    0  501 -0.00000000000E+00  0.00000000000E+00  0.11024321062E+03  0.11024321062E+03  0.00000000000E+00 0.  1.
          2   -1    0    0  501    0  0.00000000000E+00 -0.00000000000E+00 -0.41159837415E+03  0.41159837415E+03  0.00000000000E+00 0. -1.
         25    2    1    2    0    0 -0.16613062010E+03 -0.17666664759E+02 -0.24196063801E+03  0.31953677671E+03  0.12508919754E+03 0.  0.
          5    1    3    3  502    0 -0.15367959157E+02  0.16441086815E+02  0.91372380096E+01  0.24646399793E+02  0.41800000000E+01 0. -1.
         -5    1    3    3    0  502 -0.15076266095E+03 -0.34107751574E+02 -0.25109787602E+03  0.29489037691E+03  0.41800000000E+01 0. -1.
        -11    1    1    2    0    0  0.32961227177E+02  0.10653183538E+02 -0.59617633263E+02  0.68950670863E+02  0.00000000000E+00 0. -1.
         11    1    1    2    0    0  0.13316939293E+03  0.70134812213E+01  0.22310774650E+00  0.13335413720E+03  0.00000000000E+00 0.  1.
</event>
<event>
 7    1  0.2728221E-009  0.1092563E+03  0.7561462E-02  0.1261953E+00
          1   -1    0    0  501    0  0.00000000000E+00  0.00000000000E+00  0.95733131668E+03  0.95733131668E+03  0.00000000000E+00 0. -1.
         -1   -1    0    0    0  501 -0.00000000000E+00 -0.00000000000E+00 -0.20007066172E+02  0.20007066172E+02  0.00000000000E+00 0.  1.
         25    2    1    2    0    0 -0.67404094146E+02 -0.42683728286E+02  0.62324287313E+03  0.64065993026E+03  0.12509298448E+03 0.  0.
          5    1    3    3  502    0  0.20040888335E+02  0.21793692154E+02  0.25365015092E+03  0.25540648716E+03  0.41800000000E+01 0.  1.
         -5    1    3    3    0  502 -0.87444982480E+02 -0.64477420440E+02  0.36959272221E+03  0.38525344309E+03  0.41800000000E+01 0.  1.
        -11    1    1    2    0    0  0.10935210482E+02  0.87470669881E+01 -0.16924688457E+01  0.14105121764E+02  0.00000000000E+00 0.  1.
         11    1    1    2    0    0  0.56468883664E+02  0.33936661298E+02  0.31577384623E+03  0.32257333084E+03  0.00000000000E+00 0. -1.
</event>
<event>
 6    1  0.2793899E-009  0.1887266E+03  0.7561462E-02  0.1159615E+00
          2   -1    0    0  501    0  0.00000000000E+00  0.00000000000E+00  0.87940816013E+03  0.87940816013E+03  0.00000000000E+00 0. -1.
         -2   -1    0    0    0  501 -0.00000000000E+00 -0.00000000000E+00 -0.50701162360E+02  0.50701162360E+02  0.00000000000E+00 0.  1.
          5    1    1    2  502    0 -0.70289337612E+02 -0.14580061769E+03  0.57108382674E+03  0.59359297558E+03  0.41800000000E+01 0. -1.
         -5    1    1    2    0  502 -0.24032316380E+02  0.10792559973E+02  0.22246388201E+02  0.34733352406E+02  0.41800000000E+01 0. -1.
        -11    1    1    2    0    0  0.71689490486E+02  0.24039138902E+02  0.93730329065E+02  0.12042689829E+03  0.00000000000E+00 0. -1.
         11    1    1    2    0    0  0.22632163506E+02  0.11096891882E+03  0.14164645377E+03  0.18135609621E+03  0.00000000000E+00 0.  1.
</event>
<event>
 7    1  0.2728221E-009  0.9560223E+02  0.7561462E-02  0.1289825E+00
          1   -1    0    0  501    0  0.00000000000E+00  0.00000000000E+00  0.38498419824E+03  0.38498419824E+03  0.00000000000E+00 0. -1.
         -1   -1    0    0    0  501 -0.00000000000E+00 -0.00000000000E+00 -0.34623977420E+02  0.34623977420E+02  0.00000000000E+00 0.  1.
         25    2    1    2    0    0 -0.13251326875E+02 -0.27225889149E+01  0.26604108152E+03  0.29429312296E+03  0.12509026744E+03 0.  0.
          5    1    3    3  502    0 -0.33380015846E+02 -0.44901887472E+02  0.56734689342E+02  0.79791618176E+02  0.41800000000E+01 0.  1.
         -5    1    3    3    0  502  0.20128688971E+02  0.42179298557E+02  0.20930639218E+03  0.21450150478E+03  0.41800000000E+01 0.  1.
        -11    1    1    2    0    0 -0.37198293596E+02 -0.34131287440E+01  0.55473570827E+02  0.66878094729E+02  0.00000000000E+00 0. -1.
         11    1    1    2    0    0  0.50449620471E+02  0.61357176589E+01  0.28845568472E+02  0.58436957975E+02  0.00000000000E+00 0.  1.
</event>
<event>
 7    1  0.2728221E-009  0.1010130E+03  0.7561462E-02  0.1278180E+00
          2   -1    0    0  501    0  0.00000000000E+00  0.00000000000E+00  0.48731495742E+03  0.48731495742E+03  0.00000000000E+00 0.  1.
         -2   -1    0    0    0  501 -0.00000000000E+00 -0.00000000000E+00 -0.24719667655E+02  0.24719667655E+02  0.00000000000E+00 0. -1.
         25    2    1    2    0    0 -0.65823175473E+01  0.17482216742E+02  0.27228558100E+03  0.30022696026E+03  0.12509130761E+03 0.  0.
          5    1    3    3  502    0 -0.36582081285E+02 -0.35470691501E+02  0.19595049001E+03  0.20251045790E+03  0.41800000000E+01 0.  1.
         -5    1    3    3    0  502  0.29999763737E+02  0.52952908243E+02  0.76335090988E+02  0.97716502352E+02  0.41800000000E+01 0.  1.
        -11    1    1    2    0    0  0.15170742339E+02 -0.52081781830E+02  0.14004716780E+03  0.15018612662E+03  0.00000000000E+00 0.  1.
         11    1    1    2    0    0 -0.85884247921E+01  0.34599565087E+02  0.50262540971E+02  0.61621538195E+02  0.00000000000E+00 0. -1.
</event>
<event>
 7    1  0.2728221E-009  0.1289843E+03  0.7561462E-02  0.1228971E+00
         -2   -1    0    0    0  501 -0.00000000000E+00  0.00000000000E+00  0.47743510415E+02  0.47743510415E+02  0.00000000000E+00 0.  1.
          2   -1    0    0  501    0  0.00000000000E+00 -0.00000000000E+00 -0.38346392968E+03  0.38346392968E+03  0.00000000000E+00 0. -1.
         25    2    1    2    0    0  0.78755728976E+02 -0.17257946812E+02 -0.17534024228E+03  0.22998291704E+03  0.12509052719E+03 0.  0.
          5    1    3    3  502    0  0.11296642821E+03 -0.15016251610E+02 -0.12882424799E+03  0.17204668258E+03  0.41800000000E+01 0.  1.
         -5    1    3    3    0  502 -0.34210699232E+02 -0.22416952018E+01 -0.46515994286E+02  0.57936234463E+02  0.41800000000E+01 0.  1.
        -11    1    1    2    0    0 -0.27632168217E+02 -0.29280574690E+02 -0.10561284392E+03  0.11302637557E+03  0.00000000000E+00 0. -1.
         11    1    1    2    0    0 -0.51123560759E+02  0.46538521502E+02 -0.54767333065E+02  0.88198147482E+02  0.00000000000E+00 0.  1.
</event>
<event>
 7    1  0.2728221E-009  0.8564567E+02  0.7561462E-02  0.1313753E+00
         -1   -1    0    0    0  501 -0.00000000000E+00  0.00000000000E+00  0.38165099022E+03  0.38165099022E+03  0.00000000000E+00 0.  1.
          1   -1    0    0  501    0  0.00000000000E+00 -0.00000000000E+00 -0.32444771396E+02  0.32444771396E+02  0.00000000000E+00 0. -1.
         25    2    1    2    0    0  0.57173889495E+01 -0.56180501676E+01  0.23149666253E+03  0.26325429344E+03  0.12509143547E+03 0.  0.
          5    1    3    3  502    0 -0.34051647615E+02  0.11885821911E+02  0.21261752056E+03  0.21569531733E+03  0.41800000000E+01 0. -1.
         -5    1    3    3    0  502  0.39769036565E+02 -0.17503872079E+02  0.18879141964E+02  0.47558976107E+02  0.41800000000E+01 0. -1.
        -11    1    1    2    0    0 -0.24313832267E+02 -0.37319189088E+02  0.38646395557E+02  0.58969722768E+02  0.00000000000E+00 0. -1.
         11    1    1    2    0    0  0.18596443318E+02  0.42937239256E+02  0.79063160743E+02  0.91871745416E+02  0.00000000000E+00 0.  1.
</event>
<event>
 7    1  0.2728221E-009  0.1246417E+03  0.7561462E-02  0.1235630E+00
         -1   -1    0    0    0  501 -0.00000000000E+00  0.00000000000E+00  0.75926133058E+02  0.75926133058E+02  0.00000000000E+00 0.  1.
          1   -1    0    0  501    0  0.00000000000E+00 -0.00000000000E+00 -0.24105256134E+03  0.24105256134E+03  0.00000000000E+00 0. -1.
         25    2    1    2    0    0 -0.72754498225E+02  0.17037103680E+02 -0.12833072614E+03  0.19418690799E+03  0.12512513757E+03 0.  0.
          5    1    3    3  502    0 -0.35266274460E+02  0.63247899819E+02 -0.11003634035E+03  0.13179330614E+03  0.41800000000E+01 0.  1.
         -5    1    3    3    0  502 -0.37488223765E+02 -0.46210796139E+02 -0.18294385787E+02  0.62393601853E+02  0.41800000000E+01 0.  1.
        -11    1    1    2    0    0  0.89853501505E+02  0.40533640219E+01 -0.29814410173E+02  0.94757482800E+02  0.00000000000E+00 0.  1.
         11    1    1    2    0    0 -0.17099003280E+02 -0.21090467702E+02 -0.69812919759E+01  0.28034303607E+02  0.00000000000E+00 0. -1.
</event>
<event>
 7    1  0.2728221E-009  0.2391936E+03  0.7561462E-02  0.1120331E+00
          2   -1    0    0  501    0  0.00000000000E+00  0.00000000000E+00  0.79597675283E+02  0.79597675283E+02  0.00000000000E+00 0.  1.
         -2   -1    0    0    0  501 -0.00000000000E+00 -0.00000000000E+00 -0.88680917973E+03  0.88680917973E+03  0.00000000000E+00 0. -1.
         25    2    1    2    0    0  0.18589512889E+03  0.13253618572E+03 -0.27166163900E+03  0.37625884291E+03  0.12509129185E+03 0.  0.
          5    1    3    3  502    0  0.11995514918E+03  0.10329446685E+03 -0.25800441121E+03  0.30272550817E+03  0.41800000000E+01 0. -1.
         -5    1    3    3    0  502  0.65939979711E+02  0.29241718873E+02 -0.13657227788E+02  0.73533334739E+02  0.41800000000E+01 0. -1.
        -11    1    1    2    0    0 -0.50465954071E+02 -0.94463183690E+02 -0.24119312012E+03  0.26390192645E+03  0.00000000000E+00 0. -1.
         11    1    1    2    0    0 -0.13542917482E+03 -0.38073002034E+02 -0.29435674533E+03  0.32624608565E+03  0.00000000000E+00 0.  1.
</event>
<event>
 7    1  0.2728221E-009  0.1256543E+03  0.7561462E-02  0.1234050E+00
          1   -1    0    0  501    0  0.00000000000E+00  0.00000000000E+00  0.80486312827E+02  0.80486312827E+02  0.00000000000E+00 0. -1.
         -1   -1    0    0    0  501 -0.00000000000E+00 -0.00000000000E+00 -0.20378735129E+03  0.20378735129E+03  0.00000000000E+00 0.  1.
         25    2    1    2    0    0  0.48320479536E+02  0.47078080643E+02 -0.61158437697E+02  0.15472682405E+03  0.12509524835E+03 0.  0.
          5    1    3    3  502    0 -0.11770991404E+01 -0.38833483569E+02 -0.34108049683E+02  0.51867682247E+02  0.41800000000E+01 0. -1.
         -5    1    3    3    0  502  0.49497578676E+02  0.85911564212E+02 -0.27050388014E+02  0.10285914180E+03  0.41800000000E+01 0. -1.
        -11    1    1    2    0    0 -0.12416972258E+02  0.27527968549E+02 -0.10532452614E+02  0.31982851820E+02  0.00000000000E+00 0.  1.
         11    1    1    2    0    0 -0.35903507278E+02 -0.74606049191E+02 -0.51610148151E+02  0.97563988248E+02  0.00000000000E+00 0. -1.
</event>
<event>
 7    1  0.2728221E-009  0.1665324E+03  0.7561462E-02  0.1181513E+00
         -3   -1    0    0    0  501 -0.00000000000E+00  0.00000000000E+00  0.30462783938E+03  0.30462783938E+03  0.00000000000E+00 0.  1.
          3   -1    0    0  501    0  0.00000000000E+00 -0.00000000000E+00 -0.13792201754E+03  0.13792201754E+03  0.00000000000E+00 0. -1.
         25    2    1    2    0    0  0.15826363474E+03 -0.41126329255E+02  0.14944469589E+03  0.25440342238E+03  0.12509448890E+03 0.  0.
          5    1    3    3  502    0  0.52317465542E+01  0.13456689434E+01 -0.20592643514E+02  0.21695883568E+02  0.41800000000E+01 0.  1.
         -5    1    3    3    0  502  0.15303188818E+03 -0.42471998198E+02  0.17003733940E+03  0.23270753882E+03  0.41800000000E+01 0.  1.
        -11    1    1    2    0    0 -0.20860568002E+02  0.18948417593E+02  0.38124778484E+02  0.47409962678E+02  0.00000000000E+00 0.  1.
         11    1    1    2    0    0 -0.13740306674E+03  0.22177911662E+02 -0.20863652525E+02  0.14073647186E+03  0.00000000000E+00 0. -1.
</event>
<event>
 7    1  0.2728221E-009  0.2252519E+03  0.7561462E-02  0.1130027E+00
          2   -1    0    0  501    0  0.00000000000E+00  0.00000000000E+00  0.24568405369E+04  0.24568405369E+04  0.00000000000E+00 0. -1.
         -2   -1    0    0    0  501 -0.00000000000E+00 -0.00000000000E+00 -0.24710273393E+02  0.24710273393E+02  0.00000000000E+00 0.  1.
         25    2    1    2    0    0 -0.86867179861E+02  0.18426907085E+03  0.16748128585E+04  0.16917880635E+04  0.12509094068E+03 0.  0.
          5    1    3    3  502    0  0.18538706993E+02  0.63261653210E+02  0.27602687054E+03  0.28382041167E+03  0.41800000000E+01 0.  1.
         -5    1    3    3    0  502 -0.10540588685E+03  0.12100741764E+03  0.13987859880E+04  0.14079676519E+04  0.41800000000E+01 0.  1.
        -11    1    1    2    0    0  0.10656491340E+03 -0.14458732480E+03  0.59663531073E+03  0.62308528251E+03  0.00000000000E+00 0.  1.
         11    1    1    2    0    0 -0.19697733544E+02 -0.39681746043E+02  0.16068209425E+03  0.16667746425E+03  0.00000000000E+00 0. -1.
</event>
<event>
 7    1  0.2728221E-009  0.3651743E+02  0.7561462E-02  0.1535524E+00
          2   -1    0    0  501    0  0.00000000000E+00  0.00000000000E+00  0.91126885371E+02  0.91126885371E+02  0.00000000000E+00 0.  1.
         -2   -1    0    0    0  501 -0.00000000000E+00 -0.00000000000E+00 -0.14099787543E+03  0.14099787543E+03  0.00000000000E+00 0. -1.
         25    2    1    2    0    0 -0.68169736248E+01 -0.29226795039E+02 -0.96027631840E+01  0.12899798506E+03  0.12509032901E+03 0.  0.
          5    1    3    3  502    0 -0.18158552118E+02 -0.17582790505E+02  0.55840347529E+02  0.61436994956E+02  0.41800000000E+01 0.  1.
         -5    1    3    3    0  502  0.11341578494E+02 -0.11644004534E+02 -0.65443110713E+02  0.67560990106E+02  0.41800000000E+01 0.  1.
        -11    1    1    2    0    0  0.13421129200E-01  0.13456713207E+02  0.28888663749E+02  0.31869079115E+02  0.00000000000E+00 0.  1.
         11    1    1    2    0    0  0.68035524956E+01  0.15770081831E+02 -0.69156890620E+02  0.71257696621E+02  0.00000000000E+00 0. -1.
</event>
<event>
 7    1  0.2728221E-009  0.9860260E+02  0.7561462E-02  0.1283262E+00
          2   -1    0    0  501    0  0.00000000000E+00  0.00000000000E+00  0.11914154089E+04  0.11914154089E+04  0.00000000000E+00 0. -1.
         -2   -1    0    0    0  501 -0.00000000000E+00 -0.00000000000E+00 -0.10975835330E+02  0.10975835330E+02  0.00000000000E+00 0.  1.
         25    2    1    2    0    0 -0.11325290438E+02 -0.31611329784E+02  0.76624579467E+03  0.77711474478E+03  0.12508864991E+03 0.  0.
          5    1    3    3  502    0 -0.42126934926E+02  0.16388241097E+02  0.11927407727E+03  0.12762065272E+03  0.41800000000E+01 0.  1.
         -5    1    3    3    0  502  0.30801644488E+02 -0.47999570881E+02  0.64697171740E+03  0.64949409206E+03  0.41800000000E+01 0.  1.
        -11    1    1    2    0    0  0.47636455499E+02  0.33544401220E+02  0.21306945734E+03  0.22089149462E+03  0.00000000000E+00 0.  1.
         11    1    1    2    0    0 -0.36311165060E+02 -0.19330714360E+01  0.20112432152E+03  0.20438500478E+03  0.00000000000E+00 0. -1.
</event>
<event>
 7    1  0.2728221E-009  0.1160986E+03  0.7561462E-02  0.1249676E+00
          1   -1    0    0  501    0  0.00000000000E+00  0.00000000000E+00  0.87999293998E+03  0.87999293998E+03  0.00000000000E+00 0. -1.
         -1   -1    0    0    0  501 -0.00000000000E+00 -0.00000000000E+00 -0.21938126357E+02  0.21938126357E+02  0.00000000000E+00 0.  1.
         25    2    1    2    0    0 -0.24125645367E+02  0.58696195931E+02  0.65933214087E+03  0.67409261279E+03  0.12511869749E+03 0.  0.
          5    1    3    3  502    0 -0.33045948081E+01 -0.30243717546E+02  0.55974010060E+02  0.63844851007E+02  0.41800000000E+01 0.  1.
         -5    1    3    3    0  502 -0.20821050559E+02  0.88939913477E+02  0.60335813081E+03  0.61024776179E+03  0.41800000000E+01 0.  1.
        -11    1    1    2    0    0  0.21662684779E+02  0.21084029315E+02  0.39605004217E+02  0.49823333519E+02  0.00000000000E+00 0.  1.
         11    1    1    2    0    0  0.24629605882E+01 -0.79780225246E+02  0.15911766854E+03  0.17801512002E+03  0.00000000000E+00 0. -1.
</event>
<event>
 7    1  0.2728221E-009  0.9802318E+02  0.7561462E-02  0.1284509E+00
          2   -1    0    0  501    0  0.00000000000E+00  0.00000000000E+00  0.55939231181E+03  0.55939231181E+03  0.00000000000E+00 0. -1.
         -2   -1    0    0    0  501 -0.00000000000E+00 -0.00000000000E+00 -0.31502947623E+02  0.31502947623E+02  0.00000000000E+00 0.  1.
         25    2    1    2    0    0 -0.11297664566E+02 -0.76205398341E+02  0.29490950877E+03  0.32947724075E+03  0.12509489938E+03 0.  0.
          5    1    3    3  502    0 -0.75356454898E+01 -0.56006253463E+02  0.30719584468E+02  0.64456587326E+02  0.41800000000E+01 0. -1.
         -5    1    3    3    0  502 -0.37620190764E+01 -0.20199144878E+02  0.26418992430E+03  0.26502065343E+03  0.41800000000E+01 0. -1.
        -11    1    1    2    0    0  0.50881703912E+02  0.46421915991E+02  0.12876139663E+03  0.14602547496E+03  0.00000000000E+00 0.  1.
         11    1    1    2    0    0 -0.39584039346E+02  0.29783482350E+02  0.10421845879E+03  0.11539254371E+03  0.00000000000E+00 0. -1.
</event>
<event>
 7    1  0.2728221E-009  0.1173672E+03  0.7561462E-02  0.1247505E+00
          1   -1    0    0  501    0  0.00000000000E+00  0.00000000000E+00  0.43773507821E+03  0.43773507821E+03  0.00000000000E+00 0. -1.
         -1   -1    0    0    0  501 -0.00000000000E+00 -0.00000000000E+00 -0.69258591748E+02  0.69258591748E+02  0.00000000000E+00 0.  1.
         25    2    1    2    0    0  0.45739991482E+02 -0.65187334228E+02  0.34462438551E+03  0.37516925017E+03  0.12507783105E+03 0.  0.
          5    1    3    3  502    0  0.33188870049E+02  0.33168404579E+02  0.84289521168E+02  0.96560032810E+02  0.41800000000E+01 0. -1.
         -5    1    3    3    0  502  0.12551121432E+02 -0.98355738807E+02  0.26033486434E+03  0.27860921736E+03  0.41800000000E+01 0. -1.
        -11    1    1    2    0    0 -0.50303565010E+02  0.44376084225E+02 -0.30319541178E+02  0.73613586253E+02  0.00000000000E+00 0.  1.
         11    1    1    2    0    0  0.45635735280E+01  0.20811250003E+02  0.54171642128E+02  0.58210833536E+02  0.00000000000E+00 0. -1.
</event>
<event>
 7    1  0.2728221E-009  0.1644422E+03  0.7561462E-02  0.1183771E+00
         -1   -1    0    0    0  501 -0.00000000000E+00  0.00000000000E+00  0.31872541383E+03  0.31872541383E+03  0.00000000000E+00 0.  1.
          1   -1    0    0  501    0  0.00000000000E+00 -0.00000000000E+00 -0.89323324030E+02  0.89323324030E+02  0.00000000000E+00 0. -1.
         25    2    1    2    0    0  0.10574723692E+03  0.66078338694E+02  0.80597157306E+02  0.19414498747E+03  0.12509016521E+03 0.  0.
          5    1    3    3  502    0  0.13216488118E+03  0.67531748472E+02  0.76569109752E+02  0.16705805529E+03  0.41800000000E+01 0.  1.
         -5    1    3    3    0  502 -0.26417644254E+02 -0.14534097781E+01  0.40280475534E+01  0.27086932182E+02  0.41800000000E+01 0.  1.
        -11    1    1    2    0    0 -0.13093579767E+02 -0.59290744628E+02  0.56425598736E+02  0.82889579697E+02  0.00000000000E+00 0. -1.
         11    1    1    2    0    0 -0.92653657153E+02 -0.67875940657E+01  0.92379333756E+02  0.13101417069E+03  0.00000000000E+00 0.  1.
</event>
<event>
 7    1  0.2728221E-009  0.1229358E+03  0.7561462E-02  0.1238331E+00
          2   -1    0    0  501    0  0.00000000000E+00  0.00000000000E+00  0.64526091447E+03  0.64526091447E+03  0.00000000000E+00 0. -1.
         -2   -1    0    0    0  501 -0.00000000000E+00 -0.00000000000E+00 -0.57817298586E+02  0.57817298586E+02  0.00000000000E+00 0.  1.
         25    2    1    2    0    0 -0.83583802587E+02 -0.52777891236E+02  0.53315697206E+03  0.55648473857E+03  0.12508856682E+03 0.  0.
          5    1    3    3  502    0 -0.33587304354E+02 -0.53513210664E+02  0.87472309531E+02  0.10798448066E+03  0.41800000000E+01 0. -1.
         -5    1    3    3    0  502 -0.49996498233E+02  0.73531942800E+00  0.44568466253E+03  0.44850025791E+03  0.41800000000E+01 0. -1.
        -11    1    1    2    0    0 -0.17441724597E+02  0.19147515641E+02 -0.23220636950E+01  0.26004482151E+02  0.00000000000E+00 0.  1.
         11    1    1    2    0    0  0.10102552718E+03  0.33630375595E+02  0.56608707521E+02  0.12058899234E+03  0.00000000000E+00 0. -1.
</event>
<event>
 7    1  0.2728221E-009  0.9263200E+02  0.7561462E-02  0.1296600E+00
          1   -1    0    0  501    0  0.00000000000E+00  0.00000000000E+00  0.25741956075E+03  0.25741956075E+03  0.00000000000E+00 0. -1.
         -1   -1    0    0    0  501 -0.00000000000E+00 -0.00000000000E+00 -0.72303639423E+02  0.72303639423E+02  0.00000000000E+00 0.  1.
         25    2    1    2    0    0  0.71555796690E+02  0.38026477711E+02  0.72965088012E+02  0.16594717353E+03  0.12509322639E+03 0.  0.
          5    1    3    3  502    0  0.62132314893E+02  0.28983996760E+02 -0.20343160613E+02  0.71636675006E+02  0.41800000000E+01 0.  1.
         -5    1    3    3    0  502  0.94234817965E+01  0.90424809508E+01  0.93308248625E+02  0.94310498526E+02  0.41800000000E+01 0.  1.
        -11    1    1    2    0    0 -0.12484675206E+02 -0.41846543790E+02  0.86117947260E+01  0.44510261183E+02  0.00000000000E+00 0.  1.
         11    1    1    2    0    0 -0.59071121484E+02  0.38200660789E+01  0.10353903859E+03  0.11926576546E+03  0.00000000000E+00 0. -1.
</event>
<event>
 7    1  0.2728221E-009  0.9139185E+02  0.7561462E-02  0.1299516E+00
         -1   -1    0    0    0  501 -0.00000000000E+00  0.00000000000E+00  0.29849854860E+02  0.29849854860E+02  0.00000000000E+00 0.  1.
          1   -1    0    0  501    0  0.00000000000E+00 -0.00000000000E+00 -0.54906116283E+03  0.54906116283E+03  0.00000000000E+00 0. -1.
         25    2    1    2    0    0 -0.13102992696E+02  0.53179747236E+02 -0.38121149000E+03  0.40493139813E+03  0.12508982032E+03 0.  0.
          5    1    3    3  502    0  0.18336664974E+02  0.44089745980E+01 -0.10776578083E-01  0.19316957719E+02  0.41800000000E+01 0.  1.
         -5    1    3    3    0  502 -0.31439657670E+02  0.48770772638E+02 -0.38120071342E+03  0.38561444041E+03  0.41800000000E+01 0.  1.
        -11    1    1    2    0    0  0.50097291087E+02 -0.15392489921E+02 -0.78371766019E+02  0.94280438210E+02  0.00000000000E+00 0. -1.
         11    1    1    2    0    0 -0.36994298391E+02 -0.37787257315E+02 -0.59628051952E+02  0.79699181354E+02  0.00000000000E+00 0.  1.
</event>
<event>
 7    1  0.2728221E-009  0.1496299E+03  0.7561462E-02  0.1200929E+00
          1   -1    0    0  501    0  0.00000000000E+00  0.00000000000E+00  0.25621258627E+04  0.25621258627E+04  0.00000000000E+00 0. -1.
         -1   -1    0    0    0  501 -0.00000000000E+00 -0.00000000000E+00 -0.15171709906E+02  0.15171709906E+02  0.00000000000E+00 0.  1.
         25    2    1    2    0    0 -0.67671998916E+02 -0.10134997207E+03  0.20586542412E+04  0.20660474536E+04  0.12507389544E+03 0.  0.
          5    1    3    3  502    0 -0.96167277422E+02 -0.10830499067E+03  0.17347643426E+04  0.17408052485E+04  0.41800000000E+01 0. -1.
         -5    1    3    3    0  502  0.28495278506E+02  0.69550186078E+01  0.32388989858E+03  0.32524220511E+03  0.41800000000E+01 0. -1.
        -11    1    1    2    0    0  0.26678261934E+02  0.19027503294E+02  0.32094196242E+02  0.45867341038E+02  0.00000000000E+00 0.  1.
         11    1    1    2    0    0  0.40993736982E+02  0.82322468772E+02  0.45620571535E+03  0.46538277800E+03  0.00000000000E+00 0. -1.
</event>
<event>
 7    1  0.2728221E-009  0.7836234E+02  0.7561462E-02  0.1333764E+00
         -2   -1    0    0    0  501 -0.00000000000E+00  0.00000000000E+00  0.35170357308E+02  0.35170357308E+02  0.00000000000E+00 0.  1.
          2   -1    0    0  501    0  0.00000000000E+00 -0.00000000000E+00 -0.35859330321E+03  0.35859330321E+03  0.00000000000E+00 0. -1.
         25    2    1    2    0    0  0.24310822991E+02  0.17845542222E+02 -0.18999496558E+03  0.22946717313E+03  0.12509043571E+03 0.  0.
          5    1    3    3  502    0 -0.20464483376E+01 -0.28832771344E+02 -0.16938437962E+03  0.17188384774E+03  0.41800000000E+01 0.  1.
         -5    1    3    3    0  502  0.26357271329E+02  0.46678313567E+02 -0.20610585960E+02  0.57583325390E+02  0.41800000000E+01 0.  1.
        -11    1    1    2    0    0 -0.30426691550E+02  0.19347982023E+02 -0.13362930876E+02  0.38453815007E+02  0.00000000000E+00 0.  1.
         11    1    1    2    0    0  0.61158685586E+01 -0.37193524245E+02 -0.12006504944E+03  0.12584267238E+03  0.00000000000E+00 0. -1.
</event>
<event>
 7    1  0.2728221E-009  0.1009010E+03  0.7561462E-02  0.1278413E+00
         -1   -1    0    0    0  501 -0.00000000000E+00  0.00000000000E+00  0.12686611805E+03  0.12686611805E+03  0.00000000000E+00 0.  1.
          1   -1    0    0  501    0  0.00000000000E+00 -0.00000000000E+00 -0.11194855672E+03  0.11194855672E+03  0.00000000000E+00 0. -1.
         25    2    1    2    0    0 -0.22195490677E+02  0.23270233663E+02 -0.29241900528E+02  0.13242503913E+03  0.12508860324E+03 0.  0.
          5    1    3    3  502    0 -0.67302058635E+02  0.36383057197E+02 -0.36222606104E+02  0.84751658040E+02  0.41800000000E+01 0. -1.
         -5    1    3    3    0  502  0.45106567958E+02 -0.13112823534E+02  0.69807055759E+01  0.47673381087E+02  0.41800000000E+01 0. -1.
        -11    1    1    2    0    0  0.22399118903E+02  0.22793530427E+02 -0.11659604555E+02  0.34017817910E+02  0.00000000000E+00 0. -1.
         11    1    1    2    0    0 -0.20362822559E+00 -0.46063764090E+02  0.55819066413E+02  0.72371817732E+02  0.00000000000E+00 0.  1.
</event>
<event>
 7    1  0.2728221E-009  0.1091121E+03  0.7561462E-02  0.1262223E+00
          1   -1    0    0  501    0  0.00000000000E+00  0.00000000000E+00  0.15760875997E+03  0.15760875997E+03  0.00000000000E+00 0. -1.
         -1   -1    0    0    0  501 -0.00000000000E+00 -0.00000000000E+00 -0.17768184548E+03  0.17768184548E+03  0.00000000000E+00 0.  1.
         25    2    1    2    0    0 -0.11960608943E+02 -0.88459850170E+01  0.11549009827E+03  0.17091055757E+03  0.12510454936E+03 0.  0.
          5    1    3    3  502    0  0.56594163318E+02 -0.17493906942E+01  0.56451066054E+02  0.80063443269E+02  0.41800000000E+01 0.  1.
         -5    1    3    3    0  502 -0.68554772261E+02 -0.70965943228E+01  0.59039032219E+02  0.90847114297E+02  0.41800000000E+01 0.  1.
        -11    1    1    2    0    0 -0.33329129540E+02 -0.19843612529E+02 -0.48079360675E+02  0.61775600013E+02  0.00000000000E+00 0.  1.
         11    1    1    2    0    0  0.45289738483E+02  0.28689597546E+02 -0.87483823108E+02  0.10260444788E+03  0.00000000000E+00 0. -1.
</event>
<event>
 7    1  0.2728221E-009  0.1427306E+03  0.7561462E-02  0.1209701E+00
         -3   -1    0    0    0  501 -0.00000000000E+00  0.00000000000E+00  0.59974690525E+02  0.59974690525E+02  0.00000000000E+00 0.  1.
          3   -1    0    0  501    0  0.00000000000E+00 -0.00000000000E+00 -0.38225482908E+03  0.38225482908E+03  0.00000000000E+00 0. -1.
         25    2    1    2    0    0  0.82832220885E+02 -0.49962924997E+02 -0.23246400112E+03  0.28114815075E+03  0.12508916885E+03 0.  0.
          5    1    3    3  502    0 -0.30962864245E+02 -0.25847211341E+02 -0.75951632893E+02  0.86098201117E+02  0.41800000000E+01 0. -1.
         -5    1    3    3    0  502  0.11379508513E+03 -0.24115713655E+02 -0.15651236822E+03  0.19504994963E+03  0.41800000000E+01 0. -1.
        -11    1    1    2    0    0 -0.85786479473E+02  0.76813450353E+01 -0.38004299106E+02  0.94141647917E+02  0.00000000000E+00 0.  1.
         11    1    1    2    0    0  0.29542585879E+01  0.42281579962E+02 -0.51811838331E+02  0.66939720937E+02  0.00000000000E+00 0. -1.
</event>
<event>
 7    1  0.2728221E-009  0.1375336E+03  0.7561462E-02  0.1216687E+00
         -2   -1    0    0    0  501 -0.00000000000E+00  0.00000000000E+00  0.66998278439E+02  0.66998278439E+02  0.00000000000E+00 0.  1.
          2   -1    0    0  501    0  0.00000000000E+00 -0.00000000000E+00 -0.39670514253E+03  0.39670514253E+03  0.00000000000E+00 0. -1.
         25    2    1    2    0    0  0.10009788635E+03  0.69562254009E+02 -0.18910041773E+03  0.25742102972E+03  0.12509246389E+03 0.  0.
          5    1    3    3  502    0  0.71754573609E+02  0.18052067393E+02 -0.18387583293E+03  0.19824830468E+03  0.41800000000E+01 0.  1.
         -5    1    3    3    0  502  0.28343312739E+02  0.51510186616E+02 -0.52245847965E+01  0.59172725039E+02  0.41800000000E+01 0.  1.
        -11    1    1    2    0    0 -0.35406189846E+02  0.12476845740E+02 -0.72278334134E+02  0.81445856520E+02  0.00000000000E+00 0. -1.
         11    1    1    2    0    0 -0.64691696502E+02 -0.82039099750E+02 -0.68328112232E+02  0.12483653474E+03  0.00000000000E+00 0.  1.
</event>
<event>
 7    1  0.2728221E-009  0.1720625E+03  0.7561462E-02  0.1175714E+00
         -2   -1    0    0    0  501 -0.00000000000E+00  0.00000000000E+00  0.54583057833E+02  0.54583057833E+02  0.00000000000E+00 0. -1.
          2   -1    0    0  501    0  0.00000000000E+00 -0.00000000000E+00 -0.80948388312E+03  0.80948388312E+03  0.00000000000E+00 0.  1.
         25    2    1    2    0    0 -0.13143184953E+03  0.66032621918E+02 -0.60327905113E+03  0.63342557775E+03  0.12509081016E+03 0.  0.
          5    1    3    3  502    0  0.16814756464E+02  0.38106555429E+02 -0.11666168114E+03  0.12394460798E+03  0.41800000000E+01 0. -1.
         -5    1    3    3    0  502 -0.14824660599E+03  0.27926066489E+02 -0.48661736999E+03  0.50948096977E+03  0.41800000000E+01 0. -1.
        -11    1    1    2    0    0  0.80803437381E+02 -0.20743739997E+02 -0.13815786793E+03  0.16139112340E+03  0.00000000000E+00 0.  1.
         11    1    1    2    0    0  0.50628412150E+02 -0.45288881920E+02 -0.13463906233E+02  0.69250239808E+02  0.00000000000E+00 0. -1.
</event>
<event>
 7    1  0.3002420E-009  0.7578795E+02  0.7561462E-02  0.1341448E+00
         -1   -1    0    0    0  501 -0.00000000000E+00  0.00000000000E+00  0.69247128958E+02  0.69247128958E+02  0.00000000000E+00 0.  1.
          1   -1    0    0  501    0  0.00000000000E+00 -0.00000000000E+00 -0.23665428605E+03  0.23665428605E+03  0.00000000000E+00 0. -1.
         25    2    1    2    0    0 -0.38690410170E+01  0.13213283471E+02 -0.17215499942E+03  0.21324727735E+03  0.12508995618E+03 0.  0.
          5    1    3    3  502    0  0.68347662265E+01  0.61720713893E+02 -0.14186304513E+03  0.15491532050E+03  0.41800000000E+01 0. -1.
         -5    1    3    3    0  502 -0.10703807243E+02 -0.48507430422E+02 -0.30291954288E+02  0.58331956852E+02  0.41800000000E+01 0. -1.
        -11    1    1    2    0    0  0.16501888854E+02  0.50710433106E+01 -0.39517110137E+02  0.43123425299E+02  0.00000000000E+00 0. -1.
         11    1    1    2    0    0 -0.12632847837E+02 -0.18284326782E+02  0.44264952460E+02  0.49530712357E+02  0.00000000000E+00 0.  1.
</event>
<event>
 7    1  0.2728221E-009  0.8508167E+02  0.7561462E-02  0.1315219E+00
          1   -1    0    0  501    0  0.00000000000E+00  0.00000000000E+00  0.20951514900E+02  0.20951514900E+02  0.00000000000E+00 0. -1.
         -1   -1    0    0    0  501 -0.00000000000E+00 -0.00000000000E+00 -0.66062624998E+03  0.66062624998E+03  0.00000000000E+00 0.  1.
         25    2    1    2    0    0  0.67420134106E+01 -0.41072661174E+02 -0.41378995990E+03  0.43428266012E+03  0.12508748830E+03 0.  0.
          5    1    3    3  502    0  0.12541418136E+02  0.17559129426E+02 -0.67684306235E+01  0.22997700932E+02  0.41800000000E+01 0.  1.
         -5    1    3    3    0  502 -0.57994047250E+01 -0.58631790599E+02 -0.40702152927E+03  0.41128495919E+03  0.41800000000E+01 0.  1.
        -11    1    1    2    0    0  0.35975390201E+02  0.14355316883E+02 -0.44279528805E+02  0.58830098539E+02  0.00000000000E+00 0. -1.
         11    1    1    2    0    0 -0.42717403612E+02  0.26717344291E+02 -0.18160524638E+03  0.18846500622E+03  0.00000000000E+00 0.  1.
</event>
<event>
 7    1  0.2757513E-009  0.1155316E+03  0.7561462E-02  0.1250656E+00
          1   -1    0    0  501    0  0.00000000000E+00  0.00000000000E+00  0.47475129013E+03  0.47475129013E+03  0.00000000000E+00 0. -1.
         -1   -1    0    0    0  501 -0.00000000000E+00 -0.00000000000E+00 -0.39598840906E+02  0.39598840906E+02  0.00000000000E+00 0.  1.
         25    2    1    2    0    0  0.80956789022E+02 -0.65294089761E+01  0.27266828511E+03  0.31079279909E+03  0.12509010908E+03 0.  0.
          5    1    3    3  502    0  0.22886188241E+02 -0.46395851948E+02  0.34329401750E+02  0.62228071758E+02  0.41800000000E+01 0.  1.
         -5    1    3    3    0  502  0.58070600780E+02  0.39866442972E+02  0.23833888336E+03  0.24856472733E+03  0.41800000000E+01 0.  1.
        -11    1    1    2    0    0 -0.13393367223E+02  0.33325295693E+02  0.10474470341E+03  0.11073125354E+03  0.00000000000E+00 0. -1.
         11    1    1    2    0    0 -0.67563421799E+02 -0.26795886717E+02  0.57739460701E+02  0.92826078406E+02  0.00000000000E+00 0.  1.
</event>
<event>
 7    1  0.2728221E-009  0.1283568E+03  0.7561462E-02  0.1229914E+00
         -1   -1    0    0    0  501 -0.00000000000E+00  0.00000000000E+00  0.11125484647E+03  0.11125484647E+03  0.00000000000E+00 0.  1.
          1   -1    0    0  501    0  0.00000000000E+00 -0.00000000000E+00 -0.29696516045E+03  0.29696516045E+03  0.00000000000E+00 0. -1.
         25    2    1    2    0    0  0.20361756386E+02  0.97039219755E+02  0.21749733790E+02  0.16110674007E+03  0.12510443430E+03 0.  0.
          5    1    3    3  502    0  0.54026614366E+02  0.79096520280E+02  0.54823027497E+02  0.11044533184E+03  0.41800000000E+01 0. -1.
         -5    1    3    3    0  502 -0.33664857980E+02  0.17942699475E+02 -0.33073293707E+02  0.50661408230E+02  0.41800000000E+01 0. -1.
        -11    1    1    2    0    0  0.27142847937E+02 -0.37453769124E+02 -0.33250991277E+02  0.56966195561E+02  0.00000000000E+00 0.  1.
         11    1    1    2    0    0 -0.47504604323E+02 -0.59585450631E+02 -0.17420905649E+03  0.19014707129E+03  0.00000000000E+00 0. -1.
</event>
<event>
 7    1  0.2728221E-009  0.1113483E+03  0.7561462E-02  0.1258093E+00
         -2   -1    0    0    0  501 -0.00000000000E+00  0.00000000000E+00  0.43087684689E+02  0.43087684689E+02  0.00000000000E+00 0. -1.
          2   -1    0    0  501    0  0.00000000000E+00 -0.00000000000E+00 -0.37927383542E+03  0.37927383542E+03  0.00000000000E+00 0.  1.
         25    2    1    2    0    0  0.57105582251E+01  0.67686809974E+02 -0.17748283594E+03  0.22751206441E+03  0.12508983842E+03 0.  0.
          5    1    3    3  502    0  0.46409915395E+02  0.20983472030E+02 -0.15206254853E+03  0.16042031483E+03  0.41800000000E+01 0. -1.
         -5    1    3    3    0  502 -0.40699357170E+02  0.46703337944E+02 -0.25420287415E+02  0.67091749578E+02  0.41800000000E+01 0. -1.
        -11    1    1    2    0    0 -0.10032179718E+02 -0.88083592231E+02 -0.10608654118E+03  0.13825237093E+03  0.00000000000E+00 0.  1.
         11    1    1    2    0    0  0.43216214925E+01  0.20396782256E+02 -0.52616773612E+02  0.56597084767E+02  0.00000000000E+00 0. -1.
</event>
<event>
 7    1  0.3201268E-009  0.9099522E+02  0.7561462E-02  0.1300459E+00
          3   -1    0    0  501    0  0.00000000000E+00  0.00000000000E+00  0.17466603027E+03  0.17466603027E+03  0.00000000000E+00 0. -1.
         -3   -1    0    0    0  501 -0.00000000000E+00 -0.00000000000E+00 -0.83607770501E+02  0.83607770501E+02  0.00000000000E+00 0.  1.
         25    2    1    2    0    0 -0.43572672138E+02  0.22988215213E+02  0.72201240242E+02  0.15260382638E+03  0.12509145829E+03 0.  0.
          5    1    3    3  502    0  0.27198026226E+02 -0.28733245885E+02  0.13345802838E+01  0.39806853106E+02  0.41800000000E+01 0. -1.
         -5    1    3    3    0  502 -0.70770698364E+02  0.51721461098E+02  0.70866659958E+02  0.11279697327E+03  0.41800000000E+01 0. -1.
        -11    1    1    2    0    0  0.31424815038E+02 -0.27231951664E+02  0.54052154269E+02  0.68196287089E+02  0.00000000000E+00 0. -1.
         11    1    1    2    0    0  0.12147857100E+02  0.42437364503E+01 -0.35195134739E+02  0.37473687309E+02  0.00000000000E+00 0.  1.
</event>
<event>
 7    1  0.2728221E-009  0.9580316E+02  0.7561462E-02  0.1289377E+00
         -2   -1    0    0    0  501 -0.00000000000E+00  0.00000000000E+00  0.30103388804E+02  0.30103388804E+02  0.00000000000E+00 0.  1.
          2   -1    0    0  501    0  0.00000000000E+00 -0.00000000000E+00 -0.34379979218E+03  0.34379979218E+03  0.00000000000E+00 0. -1.
         25    2    1    2    0    0 -0.87695976730E+01  0.39652877113E+01 -0.17540995706E+03  0.21565475934E+03  0.12508274398E+03 0.  0.
          5    1    3    3  502    0  0.15644761437E+02  0.58313583159E+02 -0.11897487651E+03  0.13348305578E+03  0.41800000000E+01 0. -1.
         -5    1    3    3    0  502 -0.24414359110E+02 -0.54348295448E+02 -0.56435080553E+02  0.82171703560E+02  0.41800000000E+01 0. -1.
        -11    1    1    2    0    0  0.22812602295E+02  0.28194256885E+02 -0.40547111593E+02  0.54400360323E+02  0.00000000000E+00 0.  1.
         11    1    1    2    0    0 -0.14043004622E+02 -0.32159544596E+02 -0.97739334726E+02  0.10384806132E+03  0.00000000000E+00 0. -1.
</event>
<event>
 7    1  0.2728221E-009  0.1469192E+03  0.7561462E-02  0.1204311E+00
         -1   -1    0    0    0  501 -0.00000000000E+00  0.00000000000E+00  0.93776181174E+02  0.93776181174E+02  0.00000000000E+00 0.  1.
          1   -1    0    0  501    0  0.00000000000E+00 -0.00000000000E+00 -0.23191546803E+03  0.23191546803E+03  0.00000000000E+00 0. -1.
         25    2    1    2    0    0 -0.18650750023E+02  0.96480192242E+02 -0.68531917818E+02  0.17322010467E+03  0.12510916405E+03 0.  0.
          5    1    3    3  502    0 -0.62172639896E+02  0.12181726424E+02 -0.19955954531E+02  0.66554820499E+02  0.41800000000E+01 0. -1.
         -5    1    3    3    0  502  0.43521889873E+02  0.84298465818E+02 -0.48575963286E+02  0.10666528417E+03  0.41800000000E+01 0. -1.
        -11    1    1    2    0    0 -0.15066774583E+02 -0.10032252052E+03 -0.47904131391E+02  0.11218922241E+03  0.00000000000E+00 0.  1.
         11    1    1    2    0    0  0.33717524605E+02  0.38423282766E+01 -0.21703237650E+02  0.40282322135E+02  0.00000000000E+00 0. -1.
</event>
<event>
 7    1  0.2728221E-009  0.6390670E+02  0.7561462E-02  0.1382132E+00
         -4   -1    0    0    0  501 -0.00000000000E+00  0.00000000000E+00  0.40161079296E+03  0.40161079296E+03  0.00000000000E+00 0.  1.
          4   -1    0    0  501    0  0.00000000000E+00 -0.00000000000E+00 -0.29495488879E+02  0.29495488879E+02  0.00000000000E+00 0. -1.
         25    2    1    2    0    0 -0.14086751772E+02  0.40056523079E+02  0.21385630612E+03  0.25136567856E+03  0.12508886071E+03 0.  0.
          5    1    3    3  502    0 -0.15608304854E+02 -0.29200581601E+01 -0.12679887555E+02  0.20746032596E+02  0.41800000000E+01 0. -1.
         -5    1    3    3    0  502  0.15215530812E+01  0.42976581239E+02  0.22653619367E+03  0.23061964596E+03  0.41800000000E+01 0. -1.
        -11    1    1    2    0    0  0.28707537543E+02 -0.44455507867E+02  0.15545724988E+03  0.16421745166E+03  0.00000000000E+00 0.  1.
         11    1    1    2    0    0 -0.14620785771E+02  0.43989847880E+01  0.28017480792E+01  0.15523151614E+02  0.00000000000E+00 0. -1.
</event>
<event>
 7    1  0.2728221E-009  0.9695827E+02  0.7561462E-02  0.1286825E+00
          2   -1    0    0  501    0  0.00000000000E+00  0.00000000000E+00  0.21182661824E+03  0.21182661824E+03  0.00000000000E+00 0. -1.
         -2   -1    0    0    0  501 -0.00000000000E+00 -0.00000000000E+00 -0.73989600212E+02  0.73989600212E+02  0.00000000000E+00 0.  1.
         25    2    1    2    0    0  0.56942889543E+02 -0.72137607852E+01  0.43917886979E+02  0.14446319588E+03  0.12508518359E+03 0.  0.
          5    1    3    3  502    0  0.88842757150E+02  0.12628489365E+02  0.54674503765E+02  0.10516314946E+03  0.41800000000E+01 0.  1.
         -5    1    3    3    0  502 -0.31899867607E+02 -0.19842250150E+02 -0.10756616786E+02  0.39300046425E+02  0.41800000000E+01 0.  1.
        -11    1    1    2    0    0 -0.13945372982E+02  0.17199152855E+02 -0.13002584552E+02  0.25677840477E+02  0.00000000000E+00 0.  1.
         11    1    1    2    0    0 -0.42997516561E+02 -0.99853920702E+01  0.10692171560E+03  0.11567518209E+03  0.00000000000E+00 0. -1.
</event>
<event>
 7    1  0.2728221E-009  0.8945857E+02  0.7561462E-02  0.1304168E+00
          1   -1    0    0  501    0  0.00000000000E+00  0.00000000000E+00  0.56522539795E+03  0.56522539795E+03  0.00000000000E+00 0. -1.
         -1   -1    0    0    0  501 -0.00000000000E+00 -0.00000000000E+00 -0.20521829456E+02  0.20521829456E+02  0.00000000000E+00 0.  1.
         25    2    1    2    0    0  0.31110985369E+01  0.80550440887E+01  0.33232745245E+03  0.35519791414E+03  0.12509780128E+03 0.  0.
          5    1    3    3  502    0 -0.69333240416E+01 -0.47332458707E+02  0.58847295493E+02  0.75953335782E+02  0.41800000000E+01 0.  1.
         -5    1    3    3    0  502  0.10044422578E+02  0.55387502795E+02  0.27348015696E+03  0.27924457836E+03  0.41800000000E+01 0.  1.
        -11    1    1    2    0    0  0.30009342728E+02 -0.23298132072E+02  0.43377743918E+02  0.57662746002E+02  0.00000000000E+00 0.  1.
         11    1    1    2    0    0 -0.33120441265E+02  0.15243087983E+02  0.16899837212E+03  0.17288656727E+03  0.00000000000E+00 0. -1.
</event>
<event>
 7    1  0.2728221E-009  0.1278055E+03  0.7561462E-02  0.1230749E+00
         -2   -1    0    0    0  501 -0.00000000000E+00  0.00000000000E+00  0.15221867929E+03  0.15221867929E+03  0.00000000000E+00 0.  1.
          2   -1    0    0  501    0  0.00000000000E+00 -0.00000000000E+00 -0.11980614020E+03  0.11980614020E+03  0.00000000000E+00 0. -1.
         25    2    1    2    0    0  0.26529638082E+02  0.74727686201E+02  0.17573895095E+02  0.14915032064E+03  0.12509567369E+03 0.  0.
          5    1    3    3  502    0  0.44442514968E+02  0.97419859777E+02 -0.11698262399E+02  0.10779651181E+03  0.41800000000E+01 0.  1.
         -5    1    3    3    0  502 -0.17912876886E+02 -0.22692173576E+02  0.29272157494E+02  0.41353808824E+02  0.41800000000E+01 0.  1.
        -11    1    1    2    0    0  0.33180194419E+02 -0.28132242809E+02 -0.69749974018E+01  0.44056769921E+02  0.00000000000E+00 0. -1.
         11    1    1    2    0    0 -0.59709832502E+02 -0.46595443392E+02  0.21813641396E+02  0.78817728927E+02  0.00000000000E+00 0.  1.
</event>
<event>
 7    1  0.2728221E-009  0.9196817E+02  0.7561462E-02  0.1298154E+00
         -2   -1    0    0    0  501 -0.00000000000E+00  0.00000000000E+00  0.45818088607E+02  0.45818088607E+02  0.00000000000E+00 0.  1.
          2   -1    0    0  501    0  0.00000000000E+00 -0.00000000000E+00 -0.38014412414E+03  0.38014412414E+03  0.00000000000E+00 0. -1.
         25    2    1    2    0    0 -0.63906906938E+02 -0.45124035017E+02 -0.17147270946E+03  0.22620965833E+03  0.12509055976E+03 0.  0.
          5    1    3    3  502    0 -0.65627673439E+02 -0.30745991993E+02 -0.21822493607E+02  0.75802382363E+02  0.41800000000E+01 0.  1.
         -5    1    3    3    0  502  0.17207665011E+01 -0.14378043025E+02 -0.14965021585E+03  0.15040727597E+03  0.41800000000E+01 0.  1.
        -11    1    1    2    0    0  0.36482852097E+02  0.55944968790E+02 -0.50876863471E+02  0.83960069478E+02  0.00000000000E+00 0.  1.
         11    1    1    2    0    0  0.27424054841E+02 -0.10820933773E+02 -0.11197646260E+03  0.11579248493E+03  0.00000000000E+00 0. -1.
</event>
<event>
 7    1  0.2728221E-009  0.1278450E+03  0.7561462E-02  0.1230689E+00
         -1   -1    0    0    0  501 -0.00000000000E+00  0.00000000000E+00  0.23659275980E+02  0.23659275980E+02  0.00000000000E+00 0.  1.
          1   -1    0    0  501    0  0.00000000000E+00 -0.00000000000E+00 -0.10429377624E+04  0.10429377624E+04  0.00000000000E+00 0. -1.
         25    2    1    2    0    0  0.28697372543E+01  0.78929963624E+02 -0.82524073671E+03  0.83839577102E+03  0.12508805215E+03 0.  0.
          5    1    3    3  502    0 -0.56967450202E+02  0.21441043489E+02 -0.25882267066E+03  0.26591663351E+03  0.41800000000E+01 0.  1.
         -5    1    3    3    0  502  0.59837187456E+02  0.57488920135E+02 -0.56641806605E+03  0.57247913752E+03  0.41800000000E+01 0.  1.
        -11    1    1    2    0    0 -0.40163215266E+02 -0.51446822995E+02 -0.69576140999E+02  0.95397583056E+02  0.00000000000E+00 0.  1.
         11    1    1    2    0    0  0.37293478012E+02 -0.27483140629E+02 -0.12446160870E+03  0.13280368429E+03  0.00000000000E+00 0. -1.
</event>
<event>
 7    1  0.2728221E-009  0.9382807E+02  0.7561462E-02  0.1293838E+00
         -2   -1    0    0    0  501 -0.00000000000E+00  0.00000000000E+00  0.41190533073E+03  0.41190533073E+03  0.00000000000E+00 0.  1.
          2   -1    0    0  501    0  0.00000000000E+00 -0.00000000000E+00 -0.45076261155E+02  0.45076261155E+02  0.00000000000E+00 0. -1.
         25    2    1    2    0    0 -0.33749511000E+02 -0.47108427954E+02  0.29937367471E+03  0.32959164382E+03  0.12509125104E+03 0.  0.
          5    1    3    3  502    0 -0.36376006944E+02  0.30371105674E+02  0.18734782220E+03  0.19329329224E+03  0.41800000000E+01 0. -1.
         -5    1    3    3    0  502  0.26264959446E+01 -0.77479533629E+02  0.11202585251E+03  0.13629835158E+03  0.41800000000E+01 0. -1.
        -11    1    1    2    0    0  0.20305534700E+02  0.44273557837E+02 -0.91519266170E+01  0.49560270619E+02  0.00000000000E+00 0. -1.
         11    1    1    2    0    0  0.13443976300E+02  0.28348701175E+01  0.76607321483E+02  0.77829677451E+02  0.00000000000E+00 0.  1.
</event>
<event>
 7    1  0.2728221E-009  0.1053063E+03  0.7561462E-02  0.1269517E+00
          2   -1    0    0  501    0  0.00000000000E+00  0.00000000000E+00  0.69659433832E+03  0.69659433832E+03  0.00000000000E+00 0. -1.
         -2   -1    0    0    0  501 -0.00000000000E+00 -0.00000000000E+00 -0.17813300030E+02  0.17813300030E+02  0.00000000000E+00 0.  1.
         25    2    1    2    0    0  0.24088354920E+02 -0.96987863158E+01  0.41073410641E+03  0.43014591749E+03  0.12509471958E+03 0.  0.
          5    1    3    3  502    0 -0.37800268421E+02 -0.42942645252E+02  0.18852334902E+03  0.19705698820E+03  0.41800000000E+01 0. -1.
         -5    1    3    3    0  502  0.61888623341E+02  0.33243858936E+02  0.22221075739E+03  0.23308892929E+03  0.41800000000E+01 0. -1.
        -11    1    1    2    0    0 -0.50383414267E+02  0.20569704671E+02  0.10024303360E+03  0.11406255726E+03  0.00000000000E+00 0.  1.
         11    1    1    2    0    0  0.26295059347E+02 -0.10870918355E+02  0.16780389829E+03  0.17019916361E+03  0.00000000000E+00 0. -1.
</event>
<event>
 7    1  0.2728221E-009  0.2072664E+03  0.7561462E-02  0.1143749E+00
         -2   -1    0    0    0  501 -0.00000000000E+00  0.00000000000E+00  0.65549420999E+02  0.65549420999E+02  0.00000000000E+00 0. -1.
          2   -1    0    0  501    0  0.00000000000E+00 -0.00000000000E+00 -0.97690781697E+03  0.97690781697E+03  0.00000000000E+00 0.  1.
         25    2    1    2    0    0  0.11684544442E+03  0.16064415692E+03 -0.23821006483E+03  0.33444131434E+03  0.12509018635E+03 0.  0.
          5    1    3    3  502    0  0.11738852022E+03  0.15453995372E+03 -0.14844095259E+03  0.24436622267E+03  0.41800000000E+01 0. -1.
         -5    1    3    3    0  502 -0.54307580066E+00  0.61042031956E+01 -0.89769112239E+02  0.90075091674E+02  0.41800000000E+01 0. -1.
        -11    1    1    2    0    0 -0.23133290824E+02 -0.96999544789E+02 -0.40140790634E+03  0.41360895554E+03  0.00000000000E+00 0.  1.
         11    1    1    2    0    0 -0.93712153594E+02 -0.63644612127E+02 -0.27174042481E+03  0.29440696809E+03  0.00000000000E+00 0. -1.
</event>
<event>
 7    1  0.2728221E-009  0.9388643E+02  0.7561462E-02  0.1293704E+00
         -2   -1    0    0    0  501 -0.00000000000E+00  0.00000000000E+00  0.49301930816E+02  0.49301930816E+02  0.00000000000E+00 0.  1.
          2   -1    0    0  501    0  0.00000000000E+00 -0.00000000000E+00 -0.29622959273E+03  0.29622959273E+03  0.00000000000E+00 0. -1.
         25    2    1    2    0    0  0.26955491672E+02 -0.35462844458E+02 -0.13400585902E+03  0.18864755482E+03  0.12508444276E+03 0.  0.
          5    1    3    3  502    0  0.48553098657E+02 -0.45001040274E+02 -0.16005708173E+02  0.68236003027E+02  0.41800000000E+01 0. -1.
         -5    1    3    3    0  502 -0.21597606985E+02  0.95381958152E+01 -0.11800015084E+03  0.12041155179E+03  0.41800000000E+01 0. -1.
        -11    1    1    2    0    0 -0.18787159925E+02 -0.27867276572E+02 -0.88002085263E+01  0.34741706228E+02  0.00000000000E+00 0.  1.
         11    1    1    2    0    0 -0.81683317477E+01  0.63330121030E+02 -0.10412159437E+03  0.12214226249E+03  0.00000000000E+00 0. -1.
</event>
<event>
 7    1  0.2728221E-009  0.8802779E+02  0.7561462E-02  0.1307699E+00
         -2   -1    0    0    0  501 -0.00000000000E+00  0.00000000000E+00  0.93009994758E+02  0.93009994758E+02  0.00000000000E+00 0.  1.
          2   -1    0    0  501    0  0.00000000000E+00 -0.00000000000E+00 -0.14992438792E+03  0.14992438792E+03  0.00000000000E+00 0. -1.
         25    2    1    2    0    0  0.80135113080E+01 -0.30697663654E+02 -0.65646042766E+02  0.14478781526E+03  0.12509014989E+03 0.  0.
          5    1    3    3  502    0 -0.10736426859E+02 -0.52425476314E+02  0.17716155124E+02  0.56524649321E+02  0.41800000000E+01 0.  1.
         -5    1    3    3    0  502  0.18749938167E+02  0.21727812660E+02 -0.83362197890E+02  0.88263165937E+02  0.41800000000E+01 0.  1.
        -11    1    1    2    0    0 -0.47964569135E+02  0.20381306754E+02 -0.96069134153E+01  0.52993304697E+02  0.00000000000E+00 0.  1.
         11    1    1    2    0    0  0.39951057827E+02  0.10316356900E+02  0.18338563017E+02  0.45153262725E+02  0.00000000000E+00 0. -1.
</event>
<event>
 7    1  0.2728221E-009  0.7829226E+02  0.7561462E-02  0.1333969E+00
          2   -1    0    0  501    0  0.00000000000E+00  0.00000000000E+00  0.23563904383E+03  0.23563904383E+03  0.00000000000E+00 0. -1.
         -2   -1    0    0    0  501 -0.00000000000E+00 -0.00000000000E+00 -0.72211924780E+02  0.72211924780E+02  0.00000000000E+00 0.  1.
         25    2    1    2    0    0  0.41083766598E+02 -0.42400416737E+01  0.16119882119E+03  0.20817778238E+03  0.12508827000E+03 0.  0.
          5    1    3    3  502    0 -0.31233576083E+02 -0.91252164997E+00  0.11592593188E+00  0.31525462875E+02  0.41800000000E+01 0.  1.
         -5    1    3    3    0  502  0.72317342681E+02 -0.33275200237E+01  0.16108289526E+03  0.17665231951E+03  0.41800000000E+01 0.  1.
        -11    1    1    2    0    0 -0.32602022202E+02 -0.11577539410E+02  0.42962144787E+02  0.55160467322E+02  0.00000000000E+00 0. -1.
         11    1    1    2    0    0 -0.84817443960E+01  0.15817581084E+02 -0.40733846926E+02  0.44512718910E+02  0.00000000000E+00 0.  1.
</event>
<event>
 7    1  0.2728221E-009  0.1078673E+03  0.7561462E-02  0.1264571E+00
         -1   -1    0    0    0  501 -0.00000000000E+00  0.00000000000E+00  0.13302911978E+03  0.13302911978E+03  0.00000000000E+00 0.  1.
          1   -1    0    0  501    0  0.00000000000E+00 -0.00000000000E+00 -0.17574030220E+03  0.17574030220E+03  0.00000000000E+00 0. -1.
         25    2    1    2    0    0  0.52117714905E+02  0.33500110943E+02 -0.11102455630E+03  0.17836015964E+03  0.12508949119E+03 0.  0.
          5    1    3    3  502    0 -0.29103373568E+02  0.48484434283E+02 -0.49777524205E+02  0.75452110883E+02  0.41800000000E+01 0. -1.
         -5    1    3    3    0  502  0.81221088473E+02 -0.14984323340E+02 -0.61247032091E+02  0.10290804876E+03  0.41800000000E+01 0. -1.
        -11    1    1    2    0    0 -0.30383827349E+02  0.62597873068E+01  0.78114490870E+02  0.84049007046E+02  0.00000000000E+00 0.  1.
         11    1    1    2    0    0 -0.21733887556E+02 -0.39759898250E+02 -0.98011169890E+01  0.46360255298E+02  0.00000000000E+00 0. -1.
</event>
<event>
 7    1  0.2728221E-009  0.9990124E+02  0.7561462E-02  0.1280504E+00
          2   -1    0    0  501    0  0.00000000000E+00  0.00000000000E+00  0.15523301120E+03  0.15523301120E+03  0.00000000000E+00 0. -1.
         -2   -1    0    0    0  501 -0.00000000000E+00 -0.00000000000E+00 -0.87733032574E+02  0.87733032574E+02  0.00000000000E+00 0.  1.
         25    2    1    2    0    0  0.18650864389E+02 -0.26374949679E+02  0.71963918445E+02  0.14788479393E+03  0.12509042331E+03 0.  0.
          5    1    3    3  502    0 -0.53269573604E+02 -0.12417891412E+02  0.21977769816E+02  0.59096076563E+02  0.41800000000E+01 0.  1.
         -5    1    3    3    0  502  0.71920437993E+02 -0.13957058268E+02  0.49986148628E+02  0.88788717365E+02  0.41800000000E+01 0.  1.
        -11    1    1    2    0    0  0.86543368996E+01 -0.17707864098E+02 -0.31074172843E+02  0.36797693080E+02  0.00000000000E+00 0.  1.
         11    1    1    2    0    0 -0.27305201288E+02  0.44082813777E+02  0.26610233029E+02  0.58283556770E+02  0.00000000000E+00 0. -1.
</event>
<event>
 7    1  0.2728221E-009  0.6798836E+02  0.7561462E-02  0.1367070E+00
          2   -1    0    0  501    0  0.00000000000E+00  0.00000000000E+00  0.39327270010E+03  0.39327270010E+03  0.00000000000E+00 0. -1.
         -2   -1    0    0    0  501 -0.00000000000E+00 -0.00000000000E+00 -0.29943645966E+02  0.29943645966E+02  0.00000000000E+00 0.  1.
         25    2    1    2    0    0  0.68490433645E+01  0.12209177012E+02  0.22403407881E+03  0.25697325244E+03  0.12509200854E+03 0.  0.
          5    1    3    3  502    0  0.52970191167E+01 -0.36052329027E+02  0.19913474250E+03  0.20248443622E+03  0.41800000000E+01 0.  1.
         -5    1    3    3    0  502  0.15520242479E+01  0.48261506039E+02  0.24899336312E+02  0.54488816221E+02  0.41800000000E+01 0.  1.
        -11    1    1    2    0    0  0.15820412548E+02 -0.21192929003E+02  0.16969040043E+01  0.26501041039E+02  0.00000000000E+00 0.  1.
         11    1    1    2    0    0 -0.22669455913E+02  0.89837519917E+01  0.13759807132E+03  0.13974205259E+03  0.00000000000E+00 0. -1.
</event>
<event>
 7    1  0.2728221E-009  0.1387767E+03  0.7561462E-02  0.1214985E+00
          1   -1    0    0  501    0  0.00000000000E+00  0.00000000000E+00  0.15506411805E+03  0.15506411805E+03  0.00000000000E+00 0. -1.
         -1   -1    0    0    0  501 -0.00000000000E+00 -0.00000000000E+00 -0.23287989014E+03  0.23287989014E+03  0.00000000000E+00 0.  1.
         25    2    1    2    0    0  0.70291054043E+02  0.93919812265E+02 -0.14546590752E+03  0.22487639607E+03  0.12508916757E+03 0.  0.
          5    1    3    3  502    0  0.39459582255E+02 -0.13194117782E+02 -0.92261973330E+02  0.10129603891E+03  0.41800000000E+01 0.  1.
         -5    1    3    3    0  502  0.30831471788E+02  0.10711393005E+03 -0.53203934189E+02  0.12358035716E+03  0.41800000000E+01 0.  1.
        -11    1    1    2    0    0 -0.53248949237E+02 -0.92954865195E+02  0.15558089811E+02  0.10825022733E+03  0.00000000000E+00 0.  1.
         11    1    1    2    0    0 -0.17042104805E+02 -0.96494706990E+00  0.52092045616E+02  0.54817384793E+02  0.00000000000E+00 0. -1.
</event>
<event>
 7    1  0.2728221E-009  0.6788769E+02  0.7561462E-02  0.1367427E+00
          2   -1    0    0  501    0  0.00000000000E+00  0.00000000000E+00  0.53441010610E+03  0.53441010610E+03  0.00000000000E+00 0. -1.
         -2   -1    0    0    0  501 -0.00000000000E+00 -0.00000000000E+00 -0.25575801428E+02  0.25575801428E+02  0.00000000000E+00 0.  1.
         25    2    1    2    0    0 -0.35656577967E+02 -0.15293212144E+01  0.32806718153E+03  0.35291562167E+03  0.12509048743E+03 0.  0.
          5    1    3    3  502    0 -0.18236403714E+02  0.11406592286E+02 -0.20973735817E+01  0.22012454292E+02  0.41800000000E+01 0.  1.
         -5    1    3    3    0  502 -0.17420174253E+02 -0.12935913500E+02  0.33016455511E+03  0.33090316738E+03  0.41800000000E+01 0.  1.
        -11    1    1    2    0    0 -0.20787869147E+02 -0.22310126189E+02  0.24164337169E+02  0.38907485463E+02  0.00000000000E+00 0.  1.
         11    1    1    2    0    0  0.56444447114E+02  0.23839447403E+02  0.15660278598E+03  0.16816280040E+03  0.00000000000E+00 0. -1.
</event>
<event>
 7    1  0.2728221E-009  0.1003776E+03  0.7561462E-02  0.1279504E+00
         -2   -1    0    0    0  501 -0.00000000000E+00  0.00000000000E+00  0.15871129618E+02  0.15871129618E+02  0.00000000000E+00 0.  1.
          2   -1    0    0  501    0  0.00000000000E+00 -0.00000000000E+00 -0.10042028582E+04  0.10042028582E+04  0.00000000000E+00 0. -1.
         25    2    1    2    0    0  0.47686488227E+02  0.25617392518E+02 -0.62197379137E+03  0.63673338259E+03  0.12509097247E+03 0.  0.
          5    1    3    3  502    0  0.85112622905E+01  0.44446455263E+02 -0.72763894602E+02  0.85790359184E+02  0.41800000000E+01 0. -1.
         -5    1    3    3    0  502  0.39175225937E+02 -0.18829062745E+02 -0.54920989677E+03  0.55094302340E+03  0.41800000000E+01 0. -1.
        -11    1    1    2    0    0 -0.78021783959E+02 -0.14647576171E+02 -0.28413413942E+03  0.29501552407E+03  0.00000000000E+00 0. -1.
         11    1    1    2    0    0  0.30335295732E+02 -0.10969816347E+02 -0.82223797791E+02  0.88325081155E+02  0.00000000000E+00 0.  1.
</event>
<event>
 7    1  0.2728221E-009  0.1234780E+03  0.7561462E-02  0.1237467E+00
         -2   -1    0    0    0  501 -0.00000000000E+00  0.00000000000E+00  0.26939361541E+02  0.26939361541E+02  0.00000000000E+00 0.  1.
          2   -1    0    0  501    0  0.00000000000E+00 -0.00000000000E+00 -0.82871166533E+03  0.82871166533E+03  0.00000000000E+00 0. -1.
         25    2    1    2    0    0  0.84985114292E+02  0.19639658901E+02 -0.58922755106E+03  0.60864134549E+03  0.12508794767E+03 0.  0.
          5    1    3    3  502    0  0.28164047074E+02 -0.34901975590E+02 -0.68551105427E+02  0.82024922450E+02  0.41800000000E+01 0. -1.
         -5    1    3    3    0  502  0.56821067218E+02  0.54541634491E+02 -0.52067644564E+03  0.52661642304E+03  0.41800000000E+01 0. -1.
        -11    1    1    2    0    0 -0.37357574833E+02  0.34557524049E+02 -0.11430156233E+03  0.12511857583E+03  0.00000000000E+00 0. -1.
         11    1    1    2    0    0 -0.47627539459E+02 -0.54197182949E+02 -0.98243190390E+02  0.12189110555E+03  0.00000000000E+00 0.  1.
</event>
<event>
 7    1  0.2728221E-009  0.9370939E+02  0.7561462E-02  0.1294110E+00
         -2   -1    0    0    0  501 -0.00000000000E+00  0.00000000000E+00  0.13780236323E+03  0.13780236323E+03  0.00000000000E+00 0. -1.
          2   -1    0    0  501    0  0.00000000000E+00 -0.00000000000E+00 -0.20238108595E+03  0.20238108595E+03  0.00000000000E+00 0.  1.
         25    2    1    2    0    0 -0.48015680919E+01  0.83985261691E+02  0.63147712210E+02  0.16343686743E+03  0.12508955528E+03 0.  0.
          5    1    3    3  502    0  0.52139026419E+01  0.58940885500E+02  0.10078408974E+03  0.11694493537E+03  0.41800000000E+01 0.  1.
         -5    1    3    3    0  502 -0.10015470734E+02  0.25044376191E+02 -0.37636377532E+02  0.46491932059E+02  0.41800000000E+01 0.  1.
        -11    1    1    2    0    0 -0.25036979428E+02 -0.47299589712E+02 -0.11641086164E+03  0.12812333993E+03  0.00000000000E+00 0.  1.
         11    1    1    2    0    0  0.29838547520E+02 -0.36685671979E+02 -0.11315573285E+02  0.48623241823E+02  0.00000000000E+00 0. -1.
</event>
<event>
 7    1  0.2728221E-009  0.1199176E+03  0.7561462E-02  0.1243233E+00
          4   -1    0    0  501    0  0.00000000000E+00  0.00000000000E+00  0.10487893821E+03  0.10487893821E+03  0.00000000000E+00 0. -1.
         -4   -1    0    0    0  501 -0.00000000000E+00 -0.00000000000E+00 -0.14648252888E+03  0.14648252888E+03  0.00000000000E+00 0.  1.
         25    2    1    2    0    0 -0.12994008732E+02 -0.50503435814E+02 -0.74732922916E+00  0.13552422693E+03  0.12508723473E+03 0.  0.
          5    1    3    3  502    0 -0.19001739504E+02 -0.89639423080E+02  0.14547602172E+02  0.92873017628E+02  0.41800000000E+01 0.  1.
         -5    1    3    3    0  502  0.60077307722E+01  0.39135987266E+02 -0.15294931401E+02  0.42651209302E+02  0.41800000000E+01 0.  1.
        -11    1    1    2    0    0 -0.39884127084E+02  0.85392806870E+01 -0.13002152138E+02  0.42810265920E+02  0.00000000000E+00 0. -1.
         11    1    1    2    0    0  0.52878135816E+02  0.41964155127E+02 -0.27854109302E+02  0.73026974249E+02  0.00000000000E+00 0.  1.
</event>
<event>
 7    1  0.2728221E-009  0.1201929E+03  0.7561462E-02  0.1242779E+00
          1   -1    0    0  501    0  0.00000000000E+00  0.00000000000E+00  0.16001997759E+03  0.16001997759E+03  0.00000000000E+00 0. -1.
         -1   -1    0    0    0  501 -0.00000000000E+00 -0.00000000000E+00 -0.11247745069E+03  0.11247745069E+03  0.00000000000E+00 0.  1.
         25    2    1    2    0    0  0.20153437322E+02  0.75095904962E+02  0.14110779797E+02  0.14796543377E+03  0.12509636088E+03 0.  0.
          5    1    3    3  502    0  0.64027309009E+02  0.43153398911E+02  0.40705574488E+02  0.87384943388E+02  0.41800000000E+01 0.  1.
         -5    1    3    3    0  502 -0.43873871687E+02  0.31942506051E+02 -0.26594794691E+02  0.60580490377E+02  0.41800000000E+01 0.  1.
        -11    1    1    2    0    0 -0.21887884260E+02  0.96111468295E+01 -0.13727861536E+02  0.27566425287E+02  0.00000000000E+00 0.  1.
         11    1    1    2    0    0  0.17344469381E+01 -0.84707051792E+02  0.47159608633E+02  0.96965569229E+02  0.00000000000E+00 0. -1.
</event>
<event>
 7    1  0.2728221E-009  0.1004103E+03  0.7561462E-02  0.1279435E+00
          1   -1    0    0  501    0  0.00000000000E+00  0.00000000000E+00  0.17496578246E+03  0.17496578246E+03  0.00000000000E+00 0. -1.
         -1   -1    0    0    0  501 -0.00000000000E+00 -0.00000000000E+00 -0.98804735096E+02  0.98804735096E+02  0.00000000000E+00 0.  1.
         25    2    1    2    0    0 -0.12138662205E+02 -0.15017982361E+02 -0.33480981481E+02  0.13092418709E+03  0.12508908718E+03 0.  0.
          5    1    3    3  502    0 -0.11509127652E+02 -0.70162945010E+02 -0.20491082889E+02  0.74112453405E+02  0.41800000000E+01 0.  1.
         -5    1    3    3    0  502 -0.62953455329E+00  0.55144962649E+02 -0.12989898592E+02  0.56811733688E+02  0.41800000000E+01 0.  1.
        -11    1    1    2    0    0 -0.29961461858E+02  0.11318769743E+02  0.91337635853E+02  0.96790327349E+02  0.00000000000E+00 0. -1.
         11    1    1    2    0    0  0.42100124063E+02  0.36992126180E+01  0.18304392994E+02  0.46056003116E+02  0.00000000000E+00 0.  1.
</event>
<event>
 7    1  0.2728221E-009  0.4355767E+02  0.7561462E-02  0.1483552E+00
         -2   -1    0    0    0  501 -0.00000000000E+00  0.00000000000E+00  0.29650105613E+02  0.29650105613E+02  0.00000000000E+00 0.  1.
          2   -1    0    0  501    0  0.00000000000E+00 -0.00000000000E+00 -0.75631000072E+03  0.75631000072E+03  0.00000000000E+00 0. -1.
         25    2    1    2    0    0 -0.11641991788E+02  0.21014377857E+02 -0.65169195379E+03  0.66402296296E+03  0.12508777978E+03 0.  0.
          5    1    3    3  502    0 -0.19131585989E+01 -0.78882655453E+01  0.22126204436E+01  0.93943066995E+01  0.41800000000E+01 0.  1.
         -5    1    3    3    0  502 -0.97288331895E+01  0.28902643403E+02 -0.65390457424E+03  0.65462865626E+03  0.41800000000E+01 0.  1.
        -11    1    1    2    0    0 -0.14902869345E+02 -0.12118762198E+02 -0.88699244393E+02  0.90755252563E+02  0.00000000000E+00 0. -1.
         11    1    1    2    0    0  0.26544861133E+02 -0.88956156596E+01  0.13731303075E+02  0.31181890813E+02  0.00000000000E+00 0.  1.
</event>
<event>
 7    1  0.2728221E-009  0.1970798E+03  0.7561462E-02  0.1152226E+00
          1   -1    0    0  501    0  0.00000000000E+00  0.00000000000E+00  0.15458707604E+04  0.15458707604E+04  0.00000000000E+00 0. -1.
         -1   -1    0    0    0  501 -0.00000000000E+00 -0.00000000000E+00 -0.26164054160E+02  0.26164054160E+02  0.00000000000E+00 0.  1.
         25    2    1    2    0    0 -0.15763918008E+03 -0.57556118015E+02  0.73074807943E+03  0.76013410980E+03  0.12509313121E+03 0.  0.
          5    1    3    3  502    0 -0.11973185560E+03  0.16907279065E+02  0.35063422645E+03  0.37092237259E+03  0.41800000000E+01 0.  1.
         -5    1    3    3    0  502 -0.37907324478E+02 -0.74463397081E+02  0.38011385298E+03  0.38921173721E+03  0.41800000000E+01 0.  1.
        -11    1    1    2    0    0  0.71567406583E+02  0.72809153404E+02  0.36408769817E+03  0.37813082189E+03  0.00000000000E+00 0.  1.
         11    1    1    2    0    0  0.86071773494E+02 -0.15253035389E+02  0.42487092861E+03  0.43376988284E+03  0.00000000000E+00 0. -1.
</event>
<event>
 7    1  0.2728221E-009  0.1124675E+03  0.7561462E-02  0.1256068E+00
         -1   -1    0    0    0  501 -0.00000000000E+00  0.00000000000E+00  0.42823165147E+03  0.42823165147E+03  0.00000000000E+00 0.  1.
          1   -1    0    0  501    0  0.00000000000E+00 -0.00000000000E+00 -0.39787289980E+02  0.39787289980E+02  0.00000000000E+00 0. -1.
         25    2    1    2    0    0  0.62698347018E+02  0.92665047444E+01  0.27502965199E+03  0.30871731101E+03  0.12509243708E+03 0.  0.
          5    1    3    3  502    0 -0.74281949790E+01 -0.46469762832E+02  0.12867252011E+03  0.13707190365E+03  0.41800000000E+01 0. -1.
         -5    1    3    3    0  502  0.70126541997E+02  0.55736267577E+02  0.14635713188E+03  0.17164540736E+03  0.41800000000E+01 0. -1.
        -11    1    1    2    0    0 -0.18077121131E+02 -0.32886249150E+02  0.27063112184E+01  0.37624617100E+02  0.00000000000E+00 0. -1.
         11    1    1    2    0    0 -0.44621225887E+02  0.23619744405E+02  0.11070839828E+03  0.12167701334E+03  0.00000000000E+00 0.  1.
</event>
<event>
 7    1  0.2728221E-009  0.1117633E+03  0.7561462E-02  0.1257339E+00
         -2   -1    0    0    0  501 -0.00000000000E+00  0.00000000000E+00  0.98156311887E+01  0.98156311887E+01  0.00000000000E+00 0.  1.
          2   -1    0    0  501    0  0.00000000000E+00 -0.00000000000E+00 -0.13962332961E+04  0.13962332961E+04  0.00000000000E+00 0. -1.
         25    2    1    2    0    0 -0.35213624639E+02  0.71306630883E+01 -0.93403584925E+03  0.94305907119E+03  0.12508636354E+03 0.  0.
          5    1    3    3  502    0 -0.25872180661E+00 -0.55153692790E+02 -0.30576147003E+03  0.31072422777E+03  0.41800000000E+01 0.  1.
         -5    1    3    3    0  502 -0.34954902832E+02  0.62284355878E+02 -0.62827437922E+03  0.63233484342E+03  0.41800000000E+01 0.  1.
        -11    1    1    2    0    0  0.61919106349E+00 -0.45214521994E+02 -0.16734456466E+03  0.17334629998E+03  0.00000000000E+00 0.  1.
         11    1    1    2    0    0  0.34594433575E+02  0.38083858906E+02 -0.28503725102E+03  0.28964355614E+03  0.00000000000E+00 0. -1.
</event>
<event>
 7    1  0.2728221E-009  0.1035921E+03  0.7561462E-02  0.1272919E+00
         -2   -1    0    0    0  501 -0.00000000000E+00  0.00000000000E+00  0.11191514298E+03  0.11191514298E+03  0.00000000000E+00 0.  1.
          2   -1    0    0  501    0  0.00000000000E+00 -0.00000000000E+00 -0.15292781534E+03  0.15292781534E+03  0.00000000000E+00 0. -1.
         25    2    1    2    0    0  0.81714277818E+01  0.58399092461E+02 -0.65163191215E+02  0.15287167267E+03  0.12508509336E+03 0.  0.
          5    1    3    3  502    0  0.39118145538E+02 -0.33019550407E+01 -0.73285590095E+02  0.83242911609E+02  0.41800000000E+01 0. -1.
         -5    1    3    3    0  502 -0.30946717756E+02  0.61701047501E+02  0.81223988809E+01  0.69628761056E+02  0.41800000000E+01 0. -1.
        -11    1    1    2    0    0  0.34860940048E+02 -0.35707070304E+02  0.36443534920E+02  0.61793294524E+02  0.00000000000E+00 0.  1.
         11    1    1    2    0    0 -0.43032367830E+02 -0.22692022157E+02 -0.12293016062E+02  0.50177991137E+02  0.00000000000E+00 0. -1.
</event>
<event>
 7    1  0.2728221E-009  0.3037459E+03  0.7561462E-02  0.1083383E+00
          2   -1    0    0  501    0  0.00000000000E+00  0.00000000000E+00  0.34980899270E+03  0.34980899270E+03  0.00000000000E+00 0. -1.
         -2   -1    0    0    0  501 -0.00000000000E+00 -0.00000000000E+00 -0.30217031177E+03  0.30217031177E+03  0.00000000000E+00 0.  1.
         25    2    1    2    0    0  0.21031664652E+03  0.19515296158E+03  0.13070592048E+03  0.33918951512E+03  0.12509084419E+03 0.  0.
          5    1    3    3  502    0  0.18615206105E+03  0.10090672978E+03  0.11355577521E+03  0.24030635537E+03  0.41800000000E+01 0. -1.
         -5    1    3    3    0  502  0.24164585471E+02  0.94246231796E+02  0.17150145278E+02  0.98883159748E+02  0.41800000000E+01 0. -1.
        -11    1    1    2    0    0 -0.81345161883E+02 -0.13118902378E+03 -0.65781182388E+02  0.16779379988E+03  0.00000000000E+00 0.  1.
         11    1    1    2    0    0 -0.12897148464E+03 -0.63963937796E+02 -0.17286057172E+02  0.14499598947E+03  0.00000000000E+00 0. -1.
</event>
<event>
 7    1  0.2728221E-009  0.1417506E+03  0.7561462E-02  0.1210993E+00
          2   -1    0    0  501    0  0.00000000000E+00  0.00000000000E+00  0.49259079626E+02  0.49259079626E+02  0.00000000000E+00 0. -1.
         -2   -1    0    0    0  501 -0.00000000000E+00 -0.00000000000E+00 -0.59531239812E+03  0.59531239812E+03  0.00000000000E+00 0.  1.
         25    2    1    2    0    0 -0.11736779689E+03 -0.41898716975E+02 -0.37029788667E+03  0.41024193352E+03  0.12508883608E+03 0.  0.
          5    1    3    3  502    0 -0.81328298117E+02 -0.12276503517E+02 -0.34936230983E+03  0.35893801769E+03  0.41800000000E+01 0. -1.
         -5    1    3    3    0  502 -0.36039498774E+02 -0.29622213458E+02 -0.20935576846E+02  0.51303915834E+02  0.41800000000E+01 0. -1.
        -11    1    1    2    0    0  0.96314456905E+02 -0.11413825441E+02 -0.99692568928E+02  0.13908759226E+03  0.00000000000E+00 0. -1.
         11    1    1    2    0    0  0.21053339986E+02  0.53312542416E+02 -0.76062862892E+02  0.95241951968E+02  0.00000000000E+00 0.  1.
</event>
<event>
 7    1  0.2728221E-009  0.1419076E+03  0.7561462E-02  0.1210785E+00
         -2   -1    0    0    0  501 -0.00000000000E+00  0.00000000000E+00  0.20440956020E+02  0.20440956020E+02  0.00000000000E+00 0.  1.
          2   -1    0    0  501    0  0.00000000000E+00 -0.00000000000E+00 -0.14689737040E+04  0.14689737040E+04  0.00000000000E+00 0. -1.
         25    2    1    2    0    0 -0.10475577265E+03  0.65324997493E+02 -0.94089127048E+03  0.95716479881E+03  0.12508773734E+03 0.  0.
          5    1    3    3  502    0 -0.40186544546E+02  0.17407720740E+02 -0.73158175890E+03  0.73290335615E+03  0.41800000000E+01 0. -1.
         -5    1    3    3    0  502 -0.64569228101E+02  0.47917276753E+02 -0.20930951158E+03  0.22426144266E+03  0.41800000000E+01 0. -1.
        -11    1    1    2    0    0  0.12456650943E+03 -0.49864110556E+02 -0.44383501467E+03  0.46367312305E+03  0.00000000000E+00 0.  1.
         11    1    1    2    0    0 -0.19810736781E+02 -0.15460886937E+02 -0.63806462862E+02  0.68576738181E+02  0.00000000000E+00 0. -1.
</event>
<event>
 7    1  0.2728221E-009  0.6284238E+02  0.7561462E-02  0.1386276E+00
          1   -1    0    0  501    0  0.00000000000E+00  0.00000000000E+00  0.95477239954E+02  0.95477239954E+02  0.00000000000E+00 0. -1.
         -1   -1    0    0    0  501 -0.00000000000E+00 -0.00000000000E+00 -0.18656855601E+03  0.18656855601E+03  0.00000000000E+00 0.  1.
         25    2    1    2    0    0  0.32466445763E+02  0.35748372976E+02 -0.12145735782E+03  0.18091876123E+03  0.12509073556E+03 0.  0.
          5    1    3    3  502    0  0.20814622846E+02 -0.10117755565E+02  0.20515304551E+02  0.31208454347E+02  0.41800000000E+01 0.  1.
         -5    1    3    3    0  502  0.11651822917E+02  0.45866128541E+02 -0.14197266237E+03  0.14971030688E+03  0.41800000000E+01 0.  1.
        -11    1    1    2    0    0 -0.29946171198E+02 -0.14517285134E+02 -0.25099516936E+02  0.41683455801E+02  0.00000000000E+00 0.  1.
         11    1    1    2    0    0 -0.25202745642E+01 -0.21231087841E+02  0.55465558701E+02  0.59443578937E+02  0.00000000000E+00 0. -1.
</event>
<event>
 7    1  0.2728221E-009  0.1358823E+03  0.7561462E-02  0.1218980E+00
         -2   -1    0    0    0  501 -0.00000000000E+00  0.00000000000E+00  0.39379044726E+02  0.39379044726E+02  0.00000000000E+00 0. -1.
          2   -1    0    0  501    0  0.00000000000E+00 -0.00000000000E+00 -0.70641937010E+03  0.70641937010E+03  0.00000000000E+00 0.  1.
         25    2    1    2    0    0  0.11879607864E+03  0.99906160143E+01 -0.26676523457E+03  0.31783861642E+03  0.12508147347E+03 0.  0.
          5    1    3    3  502    0  0.79144373272E+02  0.38631913195E+02 -0.25137719782E+03  0.26639111194E+03  0.41800000000E+01 0. -1.
         -5    1    3    3    0  502  0.39651705364E+02 -0.28641297181E+02 -0.15388036758E+02  0.51447504485E+02  0.41800000000E+01 0. -1.
        -11    1    1    2    0    0 -0.64132816648E+02  0.25841057898E+02 -0.30284017478E+03  0.31063314360E+03  0.00000000000E+00 0.  1.
         11    1    1    2    0    0 -0.54663261988E+02 -0.35831673912E+02 -0.97434916020E+02  0.11732665480E+03  0.00000000000E+00 0. -1.
</event>
<event>
 7    1  0.2728221E-009  0.1123266E+03  0.7561462E-02  0.1256321E+00
          2   -1    0    0  501    0  0.00000000000E+00  0.00000000000E+00  0.12368677828E+03  0.12368677828E+03  0.00000000000E+00 0. -1.
         -2   -1    0    0    0  501 -0.00000000000E+00 -0.00000000000E+00 -0.21287338297E+03  0.21287338297E+03  0.00000000000E+00 0.  1.
         25    2    1    2    0    0  0.58899428517E+02 -0.80299987437E+02  0.19881407409E+02  0.16112102730E+03  0.12508990533E+03 0.  0.
          5    1    3    3  502    0  0.20518062527E+02 -0.18808523840E+02 -0.51887523584E+02  0.59029983589E+02  0.41800000000E+01 0.  1.
         -5    1    3    3    0  502  0.38381365991E+02 -0.61491463597E+02  0.71768930993E+02  0.10209104371E+03  0.41800000000E+01 0.  1.
        -11    1    1    2    0    0 -0.22804657560E+02 -0.11295515767E+02  0.37287052946E+01  0.25720504001E+02  0.00000000000E+00 0. -1.
         11    1    1    2    0    0 -0.36094770957E+02  0.91595503205E+02 -0.11279671739E+03  0.14971862994E+03  0.00000000000E+00 0.  1.
</event>
<event>
 7    1  0.2728221E-009  0.9962242E+02  0.7561462E-02  0.1281092E+00
          2   -1    0    0  501    0  0.00000000000E+00  0.00000000000E+00  0.19599663292E+03  0.19599663292E+03  0.00000000000E+00 0. -1.
         -2   -1    0    0    0  501 -0.00000000000E+00 -0.00000000000E+00 -0.70679318606E+02  0.70679318606E+02  0.00000000000E+00 0.  1.
         25    2    1    2    0    0 -0.41847597038E+02  0.50673327770E+02  0.59233047580E+02  0.15321595073E+03  0.12509023187E+03 0.  0.
          5    1    3    3  502    0  0.47277608814E+01 -0.35012383541E+02 -0.56244021370E+01  0.36018398404E+02  0.41800000000E+01 0.  1.
         -5    1    3    3    0  502 -0.46575357919E+02  0.85685711311E+02  0.64857449717E+02  0.11719755233E+03  0.41800000000E+01 0.  1.
        -11    1    1    2    0    0  0.95723016385E+01 -0.75637227849E+01 -0.12969815569E+02  0.17806037654E+02  0.00000000000E+00 0.  1.
         11    1    1    2    0    0  0.32275295399E+02 -0.43109604985E+02  0.79054082300E+02  0.95653963134E+02  0.00000000000E+00 0. -1.
</event>
<event>
 7    1  0.2728221E-009  0.1247478E+03  0.7561462E-02  0.1235464E+00
         -1   -1    0    0    0  501 -0.00000000000E+00  0.00000000000E+00  0.11990929462E+03  0.11990929462E+03  0.00000000000E+00 0.  1.
          1   -1    0    0  501    0  0.00000000000E+00 -0.00000000000E+00 -0.16168312909E+03  0.16168312909E+03  0.00000000000E+00 0. -1.
         25    2    1    2    0    0 -0.82367554007E+02 -0.29124433871E+02 -0.69407699818E+01  0.15273496229E+03  0.12508855989E+03 0.  0.
          5    1    3    3  502    0 -0.80039362195E+02  0.27240871193E+02 -0.32480479453E+02  0.90668729502E+02  0.41800000000E+01 0.  1.
         -5    1    3    3    0  502 -0.23281918120E+01 -0.56365305064E+02  0.25539709472E+02  0.62066232784E+02  0.41800000000E+01 0.  1.
        -11    1    1    2    0    0  0.29699594390E+02  0.44418426720E+02 -0.48690905217E+02  0.72290156937E+02  0.00000000000E+00 0.  1.
         11    1    1    2    0    0  0.52667959618E+02 -0.15293992849E+02  0.13857840733E+02  0.56567304491E+02  0.00000000000E+00 0. -1.
</event>
<event>
 7    1  0.2728221E-009  0.1851454E+03  0.7561462E-02  0.1162914E+00
         -1   -1    0    0    0  501 -0.00000000000E+00  0.00000000000E+00  0.78334686277E+02  0.78334686277E+02  0.00000000000E+00 0.  1.
          1   -1    0    0  501    0  0.00000000000E+00 -0.00000000000E+00 -0.69022300752E+03  0.69022300752E+03  0.00000000000E+00 0. -1.
         25    2    1    2    0    0  0.16546601786E+03 -0.81074979478E+02 -0.46384970729E+03  0.51454511396E+03  0.12509183820E+03 0.  0.
          5    1    3    3  502    0  0.14506737929E+03 -0.69126868395E+02 -0.23666737345E+03  0.28609786179E+03  0.41800000000E+01 0. -1.
         -5    1    3    3    0  502  0.20398638571E+02 -0.11948111082E+02 -0.22718233384E+03  0.22844725216E+03  0.41800000000E+01 0. -1.
        -11    1    1    2    0    0 -0.38302159906E+02  0.89269125690E+01 -0.87191777950E+02  0.95651196352E+02  0.00000000000E+00 0.  1.
         11    1    1    2    0    0 -0.12716385795E+03  0.72148066909E+02 -0.60846836003E+02  0.15836138348E+03  0.00000000000E+00 0. -1.
</event>
<event>
 7    1  0.2728221E-009  0.1210008E+03  0.7561462E-02  0.1241455E+00
         -1   -1    0    0    0  501 -0.00000000000E+00  0.00000000000E+00  0.14208980583E+02  0.14208980583E+02  0.00000000000E+00 0.  1.
          1   -1    0    0  501    0  0.00000000000E+00 -0.00000000000E+00 -0.10865396206E+04  0.10865396206E+04  0.00000000000E+00 0. -1.
         25    2    1    2    0    0 -0.21367624354E+02 -0.48987216111E+02 -0.72060203412E+03  0.73332834972E+03  0.12508738630E+03 0.  0.
          5    1    3    3  502    0  0.34039680054E+02 -0.68929574006E+02 -0.40625465601E+03  0.41348555467E+03  0.41800000000E+01 0. -1.
         -5    1    3    3    0  502 -0.55407304408E+02  0.19942357896E+02 -0.31434737811E+03  0.31984279505E+03  0.41800000000E+01 0. -1.
        -11    1    1    2    0    0 -0.27280302102E+02 -0.10410708219E+02 -0.85963094809E+02  0.90786845950E+02  0.00000000000E+00 0.  1.
         11    1    1    2    0    0  0.48647926456E+02  0.59397924330E+02 -0.26576551114E+03  0.27663340556E+03  0.00000000000E+00 0. -1.
</event>
<event>
 7    1  0.2728221E-009  0.7635094E+02  0.7561462E-02  0.1339738E+00
         -1   -1    0    0    0  501 -0.00000000000E+00  0.00000000000E+00  0.50393823436E+02  0.50393823436E+02  0.00000000000E+00 0. -1.
          1   -1    0    0  501    0  0.00000000000E+00 -0.00000000000E+00 -0.25338971517E+03  0.25338971517E+03  0.00000000000E+00 0.  1.
         25    2    1    2    0    0 -0.28388693326E+02  0.52044458890E+01 -0.13536892908E+03  0.18656200132E+03  0.12509048409E+03 0.  0.
          5    1    3    3  502    0 -0.14211156230E+02 -0.21705868566E+02 -0.15018841487E+03  0.15247010872E+03  0.41800000000E+01 0.  1.
         -5    1    3    3    0  502 -0.14177537096E+02  0.26910314455E+02  0.14819485788E+02  0.34091892602E+02  0.41800000000E+01 0.  1.
        -11    1    1    2    0    0 -0.12314805589E+02 -0.40198411720E+02 -0.31068898143E+02  0.52276602542E+02  0.00000000000E+00 0. -1.
         11    1    1    2    0    0  0.40703498915E+02  0.34993965831E+02 -0.36558064515E+02  0.64944934750E+02  0.00000000000E+00 0.  1.
</event>
<event>
 7    1  0.2728221E-009  0.1370463E+03  0.7561462E-02  0.1217360E+00
          1   -1    0    0  501    0  0.00000000000E+00  0.00000000000E+00  0.63234598203E+02  0.63234598203E+02  0.00000000000E+00 0. -1.
         -1   -1    0    0    0  501 -0.00000000000E+00 -0.00000000000E+00 -0.39480608113E+03  0.39480608113E+03  0.00000000000E+00 0.  1.
         25    2    1    2    0    0  0.84724634368E+02 -0.64062336382E+02 -0.24212851173E+03  0.29249941592E+03  0.12508974982E+03 0.  0.
          5    1    3    3  502    0  0.16569870543E+01 -0.51723672907E+02 -0.21144343507E+02  0.56059250864E+02  0.41800000000E+01 0.  1.
         -5    1    3    3    0  502  0.83067647314E+02 -0.12338663476E+02 -0.22098416822E+03  0.23644016506E+03  0.41800000000E+01 0.  1.
        -11    1    1    2    0    0 -0.49388061394E+01  0.57853299816E+02 -0.26994878166E+02  0.64032175918E+02  0.00000000000E+00 0.  1.
         11    1    1    2    0    0 -0.79785828229E+02  0.62090365665E+01 -0.62448093036E+02  0.10150908750E+03  0.00000000000E+00 0. -1.
</event>
<event>
 7    1  0.2728221E-009  0.1430601E+03  0.7561462E-02  0.1209270E+00
          1   -1    0    0  501    0  0.00000000000E+00  0.00000000000E+00  0.62637412272E+03  0.62637412272E+03  0.00000000000E+00 0. -1.
         -1   -1    0    0    0  501 -0.00000000000E+00 -0.00000000000E+00 -0.40402649636E+02  0.40402649636E+02  0.00000000000E+00 0.  1.
         25    2    1    2    0    0  0.32574048424E+02 -0.88731012569E+02  0.44599354418E+03  0.47274922120E+03  0.12508926203E+03 0.  0.
          5    1    3    3  502    0 -0.47368110016E+02 -0.25968818956E+02  0.13189701163E+03  0.14259176512E+03  0.41800000000E+01 0.  1.
         -5    1    3    3    0  502  0.79942158440E+02 -0.62762193613E+02  0.31409653255E+03  0.33015745608E+03  0.41800000000E+01 0.  1.
        -11    1    1    2    0    0 -0.52340937769E+02  0.95848209982E+02  0.96480382653E+02  0.14572205516E+03  0.00000000000E+00 0.  1.
         11    1    1    2    0    0  0.19766889345E+02 -0.71171974127E+01  0.43497546248E+02  0.48305495992E+02  0.00000000000E+00 0. -1.
</event>
<event>
 7    1  0.2728221E-009  0.1618957E+03  0.7561462E-02  0.1186573E+00
          4   -1    0    0  501    0  0.00000000000E+00  0.00000000000E+00  0.26031477991E+03  0.26031477991E+03  0.00000000000E+00 0. -1.
         -4   -1    0    0    0  501 -0.00000000000E+00 -0.00000000000E+00 -0.10759292712E+03  0.10759292712E+03  0.00000000000E+00 0.  1.
         25    2    1    2    0    0 -0.66522910139E+02 -0.10558519485E+03  0.53350253348E+02  0.18457467834E+03  0.12509209170E+03 0.  0.
          5    1    3    3  502    0 -0.84180496467E+02 -0.12153426461E+03  0.29871167786E+02  0.15088635633E+03  0.41800000000E+01 0. -1.
         -5    1    3    3    0  502  0.17657586328E+02  0.15949069761E+02  0.23479085562E+02  0.33688322012E+02  0.41800000000E+01 0. -1.
        -11    1    1    2    0    0  0.80301497276E+02  0.11093803598E+03  0.98170868270E+02  0.16850251532E+03  0.00000000000E+00 0. -1.
         11    1    1    2    0    0 -0.13778587137E+02 -0.53528411291E+01  0.12007311739E+01  0.14830513376E+02  0.00000000000E+00 0.  1.
</event>
<event>
 7    1  0.2728221E-009  0.9947030E+02  0.7561462E-02  0.1281414E+00
         -2   -1    0    0    0  501 -0.00000000000E+00  0.00000000000E+00  0.14424527378E+03  0.14424527378E+03  0.00000000000E+00 0.  1.
          2   -1    0    0  501    0  0.00000000000E+00 -0.00000000000E+00 -0.13798416254E+03  0.13798416254E+03  0.00000000000E+00 0. -1.
         25    2    1    2    0    0  0.60822520440E+02  0.48522226849E+02 -0.39285127219E+02  0.15246033835E+03  0.12508816115E+03 0.  0.
          5    1    3    3  502    0  0.46259969238E+02  0.14535063354E+02  0.41214787570E+02  0.63776045151E+02  0.41800000000E+01 0.  1.
         -5    1    3    3    0  502  0.14562551202E+02  0.33987163495E+02 -0.80499914790E+02  0.88684293204E+02  0.41800000000E+01 0.  1.
        -11    1    1    2    0    0  0.17777786283E+02 -0.25633142541E+02  0.35549723129E+02  0.47295776727E+02  0.00000000000E+00 0.  1.
         11    1    1    2    0    0 -0.78600306723E+02 -0.22889084308E+02  0.99965153343E+01  0.82473321239E+02  0.00000000000E+00 0. -1.
</event>
<event>
 7    1  0.2728221E-009  0.2134337E+03  0.7561462E-02  0.1138875E+00
          1   -1    0    0  501    0  0.00000000000E+00  0.00000000000E+00  0.13849061173E+03  0.13849061173E+03  0.00000000000E+00 0. -1.
         -1   -1    0    0    0  501 -0.00000000000E+00 -0.00000000000E+00 -0.38366604059E+03  0.38366604059E+03  0.00000000000E+00 0.  1.
         25    2    1    2    0    0  0.16624014848E+03 -0.10450838117E+03 -0.73647034936E+02  0.24419101709E+03  0.12509028088E+03 0.  0.
          5    1    3    3  502    0  0.10858527487E+03  0.19307273666E+01 -0.54436971879E+02  0.12155388079E+03  0.41800000000E+01 0.  1.
         -5    1    3    3    0  502  0.57654873612E+02 -0.10643910854E+03 -0.19210063056E+02  0.12263713630E+03  0.41800000000E+01 0.  1.
        -11    1    1    2    0    0 -0.71411186152E+02  0.54656034467E+02 -0.19559749703E+02  0.92029470387E+02  0.00000000000E+00 0. -1.
         11    1    1    2    0    0 -0.94828962330E+02  0.49852346708E+02 -0.15196864422E+03  0.18593616484E+03  0.00000000000E+00 0.  1.
</event>
<event>
 7    1  0.2728221E-009  0.1291927E+03  0.7561462E-02  0.1228659E+00
         -1   -1    0    0    0  501 -0.00000000000E+00  0.00000000000E+00  0.20411009596E+03  0.20411009596E+03  0.00000000000E+00 0.  1.
          1   -1    0    0  501    0  0.00000000000E+00 -0.00000000000E+00 -0.99758196059E+02  0.99758196059E+02  0.00000000000E+00 0. -1.
         25    2    1    2    0    0  0.72654439060E+02 -0.52305404520E+02  0.32290490195E+02  0.15717876849E+03  0.12509183287E+03 0.  0.
          5    1    3    3  502    0 -0.33971455103E+01 -0.74312075516E+02  0.17373970907E+02  0.76505898009E+02  0.41800000000E+01 0. -1.
         -5    1    3    3    0  502  0.76051584570E+02  0.22006670996E+02  0.14916519288E+02  0.80672870481E+02  0.41800000000E+01 0. -1.
        -11    1    1    2    0    0 -0.49896697415E+02  0.62234353997E+02  0.86743448504E+02  0.11784405411E+03  0.00000000000E+00 0.  1.
         11    1    1    2    0    0 -0.22757741645E+02 -0.99289494769E+01 -0.14682038802E+02  0.28845469417E+02  0.00000000000E+00 0. -1.
</event>
<event>
 7    1  0.2728221E-009  0.9060278E+02  0.7561462E-02  0.1301399E+00
          3   -1    0    0  501    0  0.00000000000E+00  0.00000000000E+00  0.32502974446E+03  0.32502974446E+03  0.00000000000E+00 0. -1.
         -3   -1    0    0    0  501 -0.00000000000E+00 -0.00000000000E+00 -0.31741926928E+02  0.31741926928E+02  0.00000000000E+00 0.  1.
         25    2    1    2    0    0 -0.14193498174E+01 -0.20008863255E+02  0.20755271924E+03  0.24315712668E+03  0.12507952602E+03 0.  0.
          5    1    3    3  502    0  0.15328244997E+02 -0.70065563394E+02  0.98368114402E+02  0.12181090509E+03  0.41800000000E+01 0.  1.
         -5    1    3    3    0  502 -0.16747594814E+02  0.50056700139E+02  0.10918460483E+03  0.12134622159E+03  0.41800000000E+01 0.  1.
        -11    1    1    2    0    0  0.43167214496E+01  0.37972018006E+02  0.87353409806E+02  0.95347398708E+02  0.00000000000E+00 0. -1.
         11    1    1    2    0    0 -0.28973716322E+01 -0.17963154751E+02 -0.16183115082E+01  0.18267146004E+02  0.00000000000E+00 0.  1.
</event>
<event>
 7    1  0.2728221E-009  0.8674662E+02  0.7561462E-02  0.1310927E+00
         -2   -1    0    0    0  501 -0.00000000000E+00  0.00000000000E+00  0.23038361222E+03  0.23038361222E+03  0.00000000000E+00 0.  1.
          2   -1    0    0  501    0  0.00000000000E+00 -0.00000000000E+00 -0.87523942334E+02  0.87523942334E+02  0.00000000000E+00 0. -1.
         25    2    1    2    0    0 -0.37808299393E+02  0.32685547667E+02 -0.78367183183E+01  0.13493667460E+03  0.12509468202E+03 0.  0.
          5    1    3    3  502    0 -0.31303485963E+02  0.61136187969E+02 -0.48877415747E+02  0.84403885473E+02  0.41800000000E+01 0. -1.
         -5    1    3    3    0  502 -0.65048134303E+01 -0.28450640302E+02  0.41040697429E+02  0.50532789126E+02  0.41800000000E+01 0. -1.
        -11    1    1    2    0    0 -0.55147016644E+01 -0.31375429430E+02  0.66475182101E+01  0.32542572189E+02  0.00000000000E+00 0. -1.
         11    1    1    2    0    0  0.43323001057E+02 -0.13101182369E+01  0.14404886999E+03  0.15042830776E+03  0.00000000000E+00 0.  1.
</event>
<event>
 7    1  0.2728221E-009  0.1293133E+03  0.7561462E-02  0.1228478E+00
          3   -1    0    0  501    0  0.00000000000E+00  0.00000000000E+00  0.23941187385E+02  0.23941187385E+02  0.00000000000E+00 0. -1.
         -3   -1    0    0    0  501 -0.00000000000E+00 -0.00000000000E+00 -0.92941003283E+03  0.92941003283E+03  0.00000000000E+00 0.  1.
         25    2    1    2    0    0  0.51840723345E+02  0.53100453285E+02 -0.71353203116E+03  0.72820470817E+03  0.12508804409E+03 0.  0.
          5    1    3    3  502    0  0.14403324734E+02 -0.39292205122E+02 -0.14469478098E+03  0.15068306205E+03  0.41800000000E+01 0.  1.
         -5    1    3    3    0  502  0.37437398611E+02  0.92392658407E+02 -0.56883725018E+03  0.57752164612E+03  0.41800000000E+01 0.  1.
        -11    1    1    2    0    0  0.35980477811E+01  0.22643584600E+02 -0.49645123375E+02  0.54683783211E+02  0.00000000000E+00 0.  1.
         11    1    1    2    0    0 -0.55438771126E+02 -0.75744037886E+02 -0.14229169091E+03  0.17046272884E+03  0.00000000000E+00 0. -1.
</event>
<event>
 7    1  0.2728221E-009  0.8685951E+02  0.7561462E-02  0.1310640E+00
          2   -1    0    0  501    0  0.00000000000E+00  0.00000000000E+00  0.40456696360E+03  0.40456696360E+03  0.00000000000E+00 0. -1.
         -2   -1    0    0    0  501 -0.00000000000E+00 -0.00000000000E+00 -0.40155174325E+02  0.40155174325E+02  0.00000000000E+00 0.  1.
         25    2    1    2    0    0 -0.54272192211E+02 -0.11748196317E+02  0.13920732570E+03  0.19521956385E+03  0.12509399512E+03 0.  0.
          5    1    3    3  502    0 -0.32760521005E+02  0.14344666986E+02 -0.13727413101E+02  0.38534860554E+02  0.41800000000E+01 0.  1.
         -5    1    3    3    0  502 -0.21511671206E+02 -0.26092863303E+02  0.15293473880E+03  0.15668470329E+03  0.41800000000E+01 0.  1.
        -11    1    1    2    0    0  0.58742749703E+02  0.42536702759E+02  0.12430989249E+03  0.14392022476E+03  0.00000000000E+00 0.  1.
         11    1    1    2    0    0 -0.44705574917E+01 -0.30788506442E+02  0.10089457108E+03  0.10558234932E+03  0.00000000000E+00 0. -1.
</event>
<event>
 7    1  0.2728221E-009  0.9571895E+02  0.7561462E-02  0.1289565E+00
          2   -1    0    0  501    0  0.00000000000E+00  0.00000000000E+00  0.13394171125E+04  0.13394171125E+04  0.00000000000E+00 0. -1.
         -2   -1    0    0    0  501 -0.00000000000E+00 -0.00000000000E+00 -0.24378348655E+02  0.24378348655E+02  0.00000000000E+00 0.  1.
         25    2    1    2    0    0  0.94665009825E+01 -0.66461074490E+02  0.11804230032E+04  0.11889289710E+04  0.12508773931E+03 0.  0.
          5    1    3    3  502    0 -0.26401596440E+00 -0.90259890801E+02  0.11127998119E+04  0.11164621854E+04  0.41800000000E+01 0.  1.
         -5    1    3    3    0  502  0.97305169470E+01  0.23798816311E+02  0.67623191322E+02  0.72466785650E+02  0.41800000000E+01 0.  1.
        -11    1    1    2    0    0 -0.22142750001E+02  0.42900840613E+02  0.13954667463E+03  0.14766197176E+03  0.00000000000E+00 0. -1.
         11    1    1    2    0    0  0.12676249018E+02  0.23560233878E+02 -0.49309139731E+01  0.27204518414E+02  0.00000000000E+00 0.  1.
</event>
<event>
 7    1  0.2728221E-009  0.8594318E+02  0.7561462E-02  0.1312984E+00
          2   -1    0    0  501    0  0.00000000000E+00  0.00000000000E+00  0.64872270286E+02  0.64872270286E+02  0.00000000000E+00 0. -1.
         -2   -1    0    0    0  501 -0.00000000000E+00 -0.00000000000E+00 -0.21418327598E+03  0.21418327598E+03  0.00000000000E+00 0.  1.
         25    2    1    2    0    0 -0.27696978563E+02 -0.31503173840E+02 -0.92888374212E+02  0.16135851044E+03  0.12509494892E+03 0.  0.
          5    1    3    3  502    0 -0.60899023614E+02 -0.39508992850E+02 -0.10246414915E+03  0.12564245244E+03  0.41800000000E+01 0. -1.
         -5    1    3    3    0  502  0.33202045050E+02  0.80058190105E+01  0.95757749402E+01  0.35716058003E+02  0.41800000000E+01 0. -1.
        -11    1    1    2    0    0  0.37648942908E+02  0.37506363089E+02 -0.77298324425E+02  0.93804057125E+02  0.00000000000E+00 0.  1.
         11    1    1    2    0    0 -0.99519643446E+01 -0.60031892489E+01  0.20875692942E+02  0.23892978702E+02  0.00000000000E+00 0. -1.
</event>
<event>
 7    1  0.2728221E-009  0.1136983E+03  0.7561462E-02  0.1253870E+00
          1   -1    0    0  501    0  0.00000000000E+00  0.00000000000E+00  0.78864543010E+03  0.78864543010E+03  0.00000000000E+00 0. -1.
         -1   -1    0    0    0  501 -0.00000000000E+00 -0.00000000000E+00 -0.17693713107E+02  0.17693713107E+02  0.00000000000E+00 0.  1.
         25    2    1    2    0    0 -0.43244452947E+02 -0.50909623816E+01  0.50876229298E+03  0.52572111467E+03  0.12509044348E+03 0.  0.
          5    1    3    3  502    0  0.15538733985E+02  0.46408007342E+02  0.13027906749E+03  0.13923097078E+03  0.41800000000E+01 0.  1.
         -5    1    3    3    0  502 -0.58783186932E+02 -0.51498969723E+02  0.37848322549E+03  0.38649014389E+03  0.41800000000E+01 0.  1.
        -11    1    1    2    0    0  0.33303324019E+02  0.46630934764E+02  0.14971300361E+03  0.16030451933E+03  0.00000000000E+00 0.  1.
         11    1    1    2    0    0  0.99411289277E+01 -0.41539972382E+02  0.11247642041E+03  0.12031350920E+03  0.00000000000E+00 0. -1.
</event>
<event>
 7    1  0.2728221E-009  0.1615193E+03  0.7561462E-02  0.1186992E+00
         -2   -1    0    0    0  501 -0.00000000000E+00  0.00000000000E+00  0.95036032773E+02  0.95036032773E+02  0.00000000000E+00 0.  1.
          2   -1    0    0  501    0  0.00000000000E+00 -0.00000000000E+00 -0.40992600187E+03  0.40992600187E+03  0.00000000000E+00 0. -1.
         25    2    1    2    0    0 -0.79140960502E+02 -0.12939889413E+03 -0.82369727226E+02  0.21316106053E+03  0.12508197444E+03 0.  0.
          5    1    3    3  502    0 -0.78150642458E+02 -0.10329530814E+03 -0.31419581653E+01  0.12963328238E+03  0.41800000000E+01 0. -1.
         -5    1    3    3    0  502 -0.99031804409E+00 -0.26103585989E+02 -0.79227769061E+02  0.83527778144E+02  0.41800000000E+01 0. -1.
        -11    1    1    2    0    0  0.72806938708E+02  0.52335092209E+02 -0.77291790090E+02  0.11838003639E+03  0.00000000000E+00 0. -1.
         11    1    1    2    0    0  0.63340217941E+01  0.77063801921E+02 -0.15522845178E+03  0.17342093773E+03  0.00000000000E+00 0.  1.
</event>
<event>
 7    1  0.2728221E-009  0.1247781E+03  0.7561462E-02  0.1235417E+00
         -2   -1    0    0    0  501 -0.00000000000E+00  0.00000000000E+00  0.28953647526E+02  0.28953647526E+02  0.00000000000E+00 0.  1.
          2   -1    0    0  501    0  0.00000000000E+00 -0.00000000000E+00 -0.95679585931E+03  0.95679585931E+03  0.00000000000E+00 0. -1.
         25    2    1    2    0    0 -0.39567482656E+01 -0.66040048432E+02 -0.80726982710E+03  0.81957865016E+03  0.12509055201E+03 0.  0.
          5    1    3    3  502    0 -0.40232590846E+02 -0.88622270139E+02 -0.60603233555E+03  0.61381204962E+03  0.41800000000E+01 0.  1.
         -5    1    3    3    0  502  0.36275842581E+02  0.22582221707E+02 -0.20123749155E+03  0.20576660054E+03  0.41800000000E+01 0.  1.
        -11    1    1    2    0    0  0.44467915529E+02  0.46102292756E+02 -0.94098354692E+02  0.11383021244E+03  0.00000000000E+00 0. -1.
         11    1    1    2    0    0 -0.40511167263E+02  0.19937755676E+02 -0.26474029990E+02  0.52340644229E+02  0.00000000000E+00 0.  1.
</event>
<event>
 7    1  0.2728221E-009  0.8360970E+02  0.7561462E-02  0.1319109E+00
         -2   -1    0    0    0  501 -0.00000000000E+00  0.00000000000E+00  0.50531860291E+02  0.50531860291E+02  0.00000000000E+00 0.  1.
          2   -1    0    0  501    0  0.00000000000E+00 -0.00000000000E+00 -0.35348101334E+03  0.35348101334E+03  0.00000000000E+00 0. -1.
         25    2    1    2    0    0  0.21011406266E+02 -0.86274081702E+01 -0.28290597476E+03  0.31016022401E+03  0.12509061770E+03 0.  0.
          5    1    3    3  502    0 -0.25730215707E+02  0.15052845960E+02 -0.24117105203E+03  0.24304234386E+03  0.41800000000E+01 0. -1.
         -5    1    3    3    0  502  0.46741621973E+02 -0.23680254130E+02 -0.41734922734E+02  0.67117880151E+02  0.41800000000E+01 0. -1.
        -11    1    1    2    0    0 -0.49899092975E+02 -0.90116527021E+01 -0.29559327386E+02  0.58693127363E+02  0.00000000000E+00 0. -1.
         11    1    1    2    0    0  0.28887686709E+02  0.17639060872E+02  0.95161490981E+01  0.35159522259E+02  0.00000000000E+00 0.  1.
</event>
<event>
 7    1  0.2728221E-009  0.1399832E+03  0.7561462E-02  0.1213352E+00
          1   -1    0    0  501    0  0.00000000000E+00  0.00000000000E+00  0.10197266171E+03  0.10197266171E+03  0.00000000000E+00 0. -1.
         -1   -1    0    0    0  501 -0.00000000000E+00 -0.00000000000E+00 -0.25877258916E+03  0.25877258916E+03  0.00000000000E+00 0.  1.
         25    2    1    2    0    0 -0.41298737271E+01  0.11297912848E+03 -0.13115913875E+03  0.21361588352E+03  0.12509071382E+03 0.  0.
          5    1    3    3  502    0 -0.24550557120E+02  0.13103851524E+03 -0.80107053977E+02  0.15559060006E+03  0.41800000000E+01 0. -1.
         -5    1    3    3    0  502  0.20420683393E+02 -0.18059386761E+02 -0.51052084776E+02  0.58025283458E+02  0.41800000000E+01 0. -1.
        -11    1    1    2    0    0 -0.13826171382E+02 -0.82318508554E+02  0.23288858639E+02  0.86659510744E+02  0.00000000000E+00 0. -1.
         11    1    1    2    0    0  0.17956045109E+02 -0.30660619924E+02 -0.48929647330E+02  0.60469856605E+02  0.00000000000E+00 0.  1.
</event>
<event>
 7    1  0.2728221E-009  0.1011560E+03  0.7561462E-02  0.1277884E+00
          2   -1    0    0  501    0  0.00000000000E+00  0.00000000000E+00  0.27255080415E+03  0.27255080415E+03  0.00000000000E+00 0. -1.
         -2   -1    0    0    0  501 -0.00000000000E+00 -0.00000000000E+00 -0.57498662729E+02  0.57498662729E+02  0.00000000000E+00 0.  1.
         25    2    1    2    0    0  0.74896777080E+01  0.62408051783E+02  0.13242288703E+03  0.19270225798E+03  0.12508988378E+03 0.  0.
          5    1    3    3  502    0  0.33501781716E+02 -0.22643448658E+02  0.10966389450E+02  0.42104978836E+02  0.41800000000E+01 0.  1.
         -5    1    3    3    0  502 -0.26012104008E+02  0.85051500441E+02  0.12145649758E+03  0.15059727915E+03  0.41800000000E+01 0.  1.
        -11    1    1    2    0    0 -0.22150270626E+02 -0.42143434521E+02  0.97319067568E+02  0.10834068707E+03  0.00000000000E+00 0. -1.
         11    1    1    2    0    0  0.14660592918E+02 -0.20264617262E+02 -0.14689813176E+02  0.29006521829E+02  0.00000000000E+00 0.  1.
</event>
<event>
 7    1  0.2728221E-009  0.9973813E+02  0.7561462E-02  0.1280848E+00
          2   -1    0    0  501    0  0.00000000000E+00  0.00000000000E+00  0.51560868648E+03  0.51560868648E+03  0.00000000000E+00 0.  1.
         -2   -1    0    0    0  501 -0.00000000000E+00 -0.00000000000E+00 -0.28411288981E+02  0.28411288981E+02  0.00000000000E+00 0. -1.
         25    2    1    2    0    0 -0.49236483532E+02 -0.78592052743E+01  0.33914200584E+03  0.36489894249E+03  0.12509172509E+03 0.  0.
          5    1    3    3  502    0  0.39293542422E+02  0.16005704602E+02  0.97587689861E+02  0.10649410626E+03  0.41800000000E+01 0.  1.
         -5    1    3    3    0  502 -0.88530025954E+02 -0.23864909876E+02  0.24155431598E+03  0.25840483623E+03  0.41800000000E+01 0.  1.
        -11    1    1    2    0    0  0.39476347536E+02  0.23996645688E+02  0.15283572827E+03  0.15966521492E+03  0.00000000000E+00 0.  1.
         11    1    1    2    0    0  0.97601359963E+01 -0.16137440414E+02 -0.47803366154E+01  0.19455818048E+02  0.00000000000E+00 0. -1.
</event>
<event>
 7    1  0.2728221E-009  0.1203534E+03  0.7561462E-02  0.1242515E+00
          1   -1    0    0  501    0  0.00000000000E+00  0.00000000000E+00  0.16180664988E+03  0.16180664988E+03  0.00000000000E+00 0. -1.
         -1   -1    0    0    0  501 -0.00000000000E+00 -0.00000000000E+00 -0.14947078382E+03  0.14947078382E+03  0.00000000000E+00 0.  1.
         25    2    1    2    0    0 -0.96898299591E+02 -0.34964358871E+02 -0.33485457451E+02  0.16546988876E+03  0.12508885391E+03 0.  0.
          5    1    3    3  502    0 -0.33126766764E+01 -0.35722754463E+02 -0.58277795176E+02  0.68562838504E+02  0.41800000000E+01 0. -1.
         -5    1    3    3    0  502 -0.93585622914E+02  0.75839559194E+00  0.24792337725E+02  0.96907050259E+02  0.41800000000E+01 0. -1.
        -11    1    1    2    0    0  0.95074814056E+01  0.20134041964E+02 -0.24172111957E+02  0.32864309592E+02  0.00000000000E+00 0.  1.
         11    1    1    2    0    0  0.87390818185E+02  0.14830316907E+02  0.69993435467E+02  0.11294323535E+03  0.00000000000E+00 0. -1.
</event>
<event>
 7    1  0.2728221E-009  0.1976317E+03  0.7561462E-02  0.1151753E+00
          2   -1    0    0  501    0  0.00000000000E+00  0.00000000000E+00  0.12913943468E+04  0.12913943468E+04  0.00000000000E+00 0. -1.
         -2   -1    0    0    0  501 -0.00000000000E+00 -0.00000000000E+00 -0.34553051043E+02  0.34553051043E+02  0.00000000000E+00 0.  1.
         25    2    1    2    0    0  0.17473768990E+03 -0.41123598152E+02  0.59827282609E+03  0.63702606003E+03  0.12508963238E+03 0.  0.
          5    1    3    3  502    0  0.18389073948E+03 -0.20479476250E+02  0.44363098402E+03  0.48068818936E+03  0.41800000000E+01 0.  1.
         -5    1    3    3    0  502 -0.91530495815E+01 -0.20644121903E+02  0.15464184207E+03  0.15633787067E+03  0.41800000000E+01 0.  1.
        -11    1    1    2    0    0 -0.16783299363E+03  0.50784333621E+02  0.65237334269E+03  0.67552789768E+03  0.00000000000E+00 0. -1.
         11    1    1    2    0    0 -0.69046962717E+01 -0.96607354687E+01  0.61951269925E+01  0.13393440143E+02  0.00000000000E+00 0.  1.
</event>
<event>
 7    1  0.2982996E-009  0.1248216E+03  0.7561462E-02  0.1235348E+00
         -1   -1    0    0    0  501 -0.00000000000E+00  0.00000000000E+00  0.47587402785E+02  0.47587402785E+02  0.00000000000E+00 0.  1.
          1   -1    0    0  501    0  0.00000000000E+00 -0.00000000000E+00 -0.50958242203E+03  0.50958242203E+03  0.00000000000E+00 0. -1.
         25    2    1    2    0    0 -0.19867432627E+02  0.10620723782E+03 -0.29289083315E+03  0.33631092967E+03  0.12508120974E+03 0.  0.
          5    1    3    3  502    0 -0.10615857395E+01  0.69295890173E+02 -0.28575353034E+03  0.29406733899E+03  0.41800000000E+01 0. -1.
         -5    1    3    3    0  502 -0.18805846887E+02  0.36911347652E+02 -0.71373028119E+01  0.42243590686E+02  0.41800000000E+01 0. -1.
        -11    1    1    2    0    0  0.54016656130E+02 -0.55537788234E+02 -0.69899178675E+02  0.10434625169E+03  0.00000000000E+00 0.  1.
         11    1    1    2    0    0 -0.34149223503E+02 -0.50669449591E+02 -0.99205007425E+02  0.11651264346E+03  0.00000000000E+00 0. -1.
</event>
<event>
 7    1  0.2728221E-009  0.7096867E+02  0.7561462E-02  0.1356830E+00
          2   -1    0    0  501    0  0.00000000000E+00  0.00000000000E+00  0.38728544193E+03  0.38728544193E+03  0.00000000000E+00 0.  1.
         -2   -1    0    0    0  501 -0.00000000000E+00 -0.00000000000E+00 -0.47912022336E+02  0.47912022336E+02  0.00000000000E+00 0. -1.
         25    2    1    2    0    0  0.46339021851E+02 -0.41001448638E+01  0.29922273654E+03  0.32763740407E+03  0.12509159184E+03 0.  0.
          5    1    3    3  502    0  0.48362769375E+02 -0.93641899584E+01  0.31046875622E+03  0.31438028962E+03  0.41800000000E+01 0.  1.
         -5    1    3    3    0  502 -0.20237475238E+01  0.52640450947E+01 -0.11246019680E+02  0.13257114446E+02  0.41800000000E+01 0.  1.
        -11    1    1    2    0    0  0.12649556670E+01  0.30849103137E+02  0.42936175047E+02  0.52884614065E+02  0.00000000000E+00 0.  1.
         11    1    1    2    0    0 -0.47603977518E+02 -0.26748958274E+02 -0.27854919900E+01  0.54675446133E+02  0.00000000000E+00 0. -1.
</event>
<event>
 7    1  0.2728221E-009  0.1164479E+03  0.7561462E-02  0.1249075E+00
         -1   -1    0    0    0  501 -0.00000000000E+00  0.00000000000E+00  0.54518633229E+02  0.54518633229E+02  0.00000000000E+00 0.  1.
          1   -1    0    0  501    0  0.00000000000E+00 -0.00000000000E+00 -0.35706952463E+03  0.35706952463E+03  0.00000000000E+00 0. -1.
         25    2    1    2    0    0  0.25536688956E+02 -0.76388968148E+02 -0.17056648002E+03  0.22633823821E+03  0.12509467227E+03 0.  0.
          5    1    3    3  502    0  0.19186019638E+02  0.17116093434E+02 -0.11367652363E+03  0.11662284694E+03  0.41800000000E+01 0. -1.
         -5    1    3    3    0  502  0.63506693178E+01 -0.93505061582E+02 -0.56889956389E+02  0.10971539126E+03  0.41800000000E+01 0. -1.
        -11    1    1    2    0    0  0.18232681872E+02  0.65416280684E+02 -0.31016460554E+02  0.74657493208E+02  0.00000000000E+00 0.  1.
         11    1    1    2    0    0 -0.43769370828E+02  0.10972687464E+02 -0.10096795083E+03  0.11059242645E+03  0.00000000000E+00 0. -1.
</event>
<event>
 7    1  0.2728221E-009  0.2890344E+03  0.7561462E-02  0.1090854E+00
          1   -1    0    0  501    0  0.00000000000E+00  0.00000000000E+00  0.45628851692E+03  0.45628851692E+03  0.00000000000E+00 0. -1.
         -1   -1    0    0    0  501 -0.00000000000E+00 -0.00000000000E+00 -0.24147595143E+03  0.24147595143E+03  0.00000000000E+00 0.  1.
         25    2    1    2    0    0  0.28347898836E+03  0.39620311837E+02 -0.25709397992E+02  0.31342590683E+03  0.12507885504E+03 0.  0.
          5    1    3    3  502    0  0.12245221663E+03 -0.76007472472E+01  0.45725082769E+02  0.13099836758E+03  0.41800000000E+01 0.  1.
         -5    1    3    3    0  502  0.16102677173E+03  0.47221059084E+02 -0.71434480761E+02  0.18242753925E+03  0.41800000000E+01 0.  1.
        -11    1    1    2    0    0 -0.16256217728E+03 -0.35883308675E+02  0.19166926975E+03  0.25387237402E+03  0.00000000000E+00 0. -1.
         11    1    1    2    0    0 -0.12091681108E+03 -0.37370031614E+01  0.48852693737E+02  0.13046618750E+03  0.00000000000E+00 0.  1.
</event>
<event>
 7    1  0.2728221E-009  0.1717899E+03  0.7561462E-02  0.1175994E+00
         -2   -1    0    0    0  501 -0.00000000000E+00  0.00000000000E+00  0.90621048815E+03  0.90621048815E+03  0.00000000000E+00 0.  1.
          2   -1    0    0  501    0  0.00000000000E+00 -0.00000000000E+00 -0.37050285186E+02  0.37050285186E+02  0.00000000000E+00 0. -1.
         25    2    1    2    0    0  0.96982622276E+02 -0.11034556487E+03  0.43982900643E+03  0.48028448131E+03  0.12506740338E+03 0.  0.
          5    1    3    3  502    0  0.12572202399E+03 -0.10385043033E+03  0.37599483332E+03  0.40985427444E+03  0.41800000000E+01 0.  1.
         -5    1    3    3    0  502 -0.28739401715E+02 -0.64951345342E+01  0.63834173105E+02  0.70430206869E+02  0.41800000000E+01 0.  1.
        -11    1    1    2    0    0 -0.96584231954E+02  0.95424238790E+02  0.42675022687E+03  0.44782815381E+03  0.00000000000E+00 0.  1.
         11    1    1    2    0    0 -0.39839032188E+00  0.14921326079E+02  0.25809696644E+01  0.15148138209E+02  0.00000000000E+00 0. -1.
</event>
<event>
 7    1  0.2728221E-009  0.1909174E+03  0.7561462E-02  0.1157636E+00
          3   -1    0    0  501    0  0.00000000000E+00  0.00000000000E+00  0.48447197030E+02  0.48447197030E+02  0.00000000000E+00 0. -1.
         -3   -1    0    0    0  501 -0.00000000000E+00 -0.00000000000E+00 -0.86355773243E+03  0.86355773243E+03  0.00000000000E+00 0.  1.
         25    2    1    2    0    0 -0.44671255487E+02 -0.16130853918E+03 -0.32842110473E+03  0.38926033761E+03  0.12508885851E+03 0.  0.
          5    1    3    3  502    0 -0.38908691664E+02 -0.17353252007E+01 -0.12274338172E+03  0.12884218174E+03  0.41800000000E+01 0.  1.
         -5    1    3    3    0  502 -0.57625638232E+01 -0.15957321398E+03 -0.20567772301E+03  0.26041815587E+03  0.41800000000E+01 0.  1.
        -11    1    1    2    0    0 -0.18565612025E+02  0.65930883321E+02 -0.11515977954E+03  0.13399006735E+03  0.00000000000E+00 0. -1.
         11    1    1    2    0    0  0.63236867512E+02  0.95377655859E+02 -0.37152965113E+03  0.38875452450E+03  0.00000000000E+00 0.  1.
</event>
<event>
 7    1  0.2728221E-009  0.1159559E+03  0.7561462E-02  0.1249922E+00
          3   -1    0    0  501    0  0.00000000000E+00  0.00000000000E+00  0.22484374784E+03  0.22484374784E+03  0.00000000000E+00 0. -1.
         -3   -1    0    0    0  501 -0.00000000000E+00 -0.00000000000E+00 -0.77647344978E+02  0.77647344978E+02  0.00000000000E+00 0.  1.
         25    2    1    2    0    0  0.51129761688E+02  0.47479933352E+02  0.47632005686E+02  0.15094027408E+03  0.12508222005E+03 0.  0.
          5    1    3    3  502    0  0.28967782598E+01  0.66697075560E+02  0.67651583458E+02  0.95137271125E+02  0.41800000000E+01 0.  1.
         -5    1    3    3    0  502  0.48232983428E+02 -0.19217142208E+02 -0.20019577773E+02  0.55803002959E+02  0.41800000000E+01 0.  1.
        -11    1    1    2    0    0 -0.64688634163E+02 -0.11916412643E+01  0.45492334972E+02  0.79092300131E+02  0.00000000000E+00 0.  1.
         11    1    1    2    0    0  0.13558872475E+02 -0.46288292088E+02  0.54072062200E+02  0.72458518601E+02  0.00000000000E+00 0. -1.
</event>
<event>
 7    1  0.2728221E-009  0.1844598E+03  0.7561462E-02  0.1163555E+00
         -1   -1    0    0    0  501 -0.00000000000E+00  0.00000000000E+00  0.54253304479E+02  0.54253304479E+02  0.00000000000E+00 0.  1.
          1   -1    0    0  501    0  0.00000000000E+00 -0.00000000000E+00 -0.80358990381E+03  0.80358990381E+03  0.00000000000E+00 0. -1.
         25    2    1    2    0    0  0.60713723660E+02  0.16374405200E+03 -0.31863140866E+03  0.38428107600E+03  0.12509076697E+03 0.  0.
          5    1    3    3  502    0  0.71767252741E+02  0.16104429996E+03 -0.20677799075E+03  0.27177272669E+03  0.41800000000E+01 0. -1.
         -5    1    3    3    0  502 -0.11053529081E+02  0.26997520420E+01 -0.11185341791E+03  0.11250834931E+03  0.41800000000E+01 0. -1.
        -11    1    1    2    0    0 -0.87633476435E+01 -0.88892652335E+02 -0.30823734186E+03  0.32091892873E+03  0.00000000000E+00 0. -1.
         11    1    1    2    0    0 -0.51950376017E+02 -0.74851399664E+02 -0.12246784880E+03  0.15264320355E+03  0.00000000000E+00 0.  1.
</event>
<event>
 7    1  0.2728221E-009  0.8545935E+02  0.7561462E-02  0.1314236E+00
          2   -1    0    0  501    0  0.00000000000E+00  0.00000000000E+00  0.39190951670E+02  0.39190951670E+02  0.00000000000E+00 0.  1.
         -2   -1    0    0    0  501 -0.00000000000E+00 -0.00000000000E+00 -0.38057815073E+03  0.38057815073E+03  0.00000000000E+00 0. -1.
         25    2    1    2    0    0  0.10072723161E+01  0.24666725229E+02 -0.27941762688E+03  0.30713432364E+03  0.12509124916E+03 0.  0.
          5    1    3    3  502    0 -0.22176969883E+02  0.58629260334E+02 -0.71632383052E+02  0.95277903326E+02  0.41800000000E+01 0.  1.
         -5    1    3    3    0  502  0.23184242199E+02 -0.33962535105E+02 -0.20778524382E+03  0.21185642031E+03  0.41800000000E+01 0.  1.
        -11    1    1    2    0    0 -0.16604908902E+01 -0.45694644839E+02  0.15203000000E+01  0.45750072230E+02  0.00000000000E+00 0.  1.
         11    1    1    2    0    0  0.65321857401E+00  0.21027919610E+02 -0.63489872185E+02  0.66884706531E+02  0.00000000000E+00 0. -1.
</event>
<event>
 7    1  0.2728221E-009  0.1712175E+03  0.7561462E-02  0.1176584E+00
          4   -1    0    0  501    0  0.00000000000E+00  0.00000000000E+00  0.12012880166E+03  0.12012880166E+03  0.00000000000E+00 0. -1.
         -4   -1    0    0    0  501 -0.00000000000E+00 -0.00000000000E+00 -0.29052055032E+03  0.29052055032E+03  0.00000000000E+00 0.  1.
         25    2    1    2    0    0 -0.89424281672E+02  0.11693463195E+03 -0.49908455387E+02  0.19952151789E+03  0.12509025494E+03 0.  0.
          5    1    3    3  502    0  0.19429012008E+02 -0.77871982524E+01 -0.23647739862E+02  0.31856160547E+02  0.41800000000E+01 0. -1.
         -5    1    3    3    0  502 -0.10885329368E+03  0.12472183020E+03 -0.26260715525E+02  0.16766535735E+03  0.41800000000E+01 0. -1.
        -11    1    1    2    0    0  0.20619872787E+02 -0.95585640572E+00 -0.59778490392E+02  0.63242080364E+02  0.00000000000E+00 0.  1.
         11    1    1    2    0    0  0.68804408886E+02 -0.11597877555E+03 -0.60704802887E+02  0.14788575372E+03  0.00000000000E+00 0. -1.
</event>
<event>
 7    1  0.2728221E-009  0.1055271E+03  0.7561462E-02  0.1269085E+00
          2   -1    0    0  501    0  0.00000000000E+00  0.00000000000E+00  0.24170639683E+03  0.24170639683E+03  0.00000000000E+00 0.  1.
         -2   -1    0    0    0  501 -0.00000000000E+00 -0.00000000000E+00 -0.85307961633E+02  0.85307961633E+02  0.00000000000E+00 0. -1.
         25    2    1    2    0    0 -0.74736721790E+02 -0.13114088242E+02  0.21655058510E+02  0.14785815108E+03  0.12504213044E+03 0.  0.
          5    1    3    3  502    0 -0.39659205348E+02 -0.42494875963E+02 -0.40206042690E+02  0.70800178818E+02  0.41800000000E+01 0.  1.
         -5    1    3    3    0  502 -0.35077516442E+02  0.29380787721E+02  0.61861101200E+02  0.77057972258E+02  0.41800000000E+01 0.  1.
        -11    1    1    2    0    0  0.18376021129E+02  0.40273289133E+02  0.95613544114E+02  0.10536396817E+03  0.00000000000E+00 0.  1.
         11    1    1    2    0    0  0.56360700661E+02 -0.27159200891E+02  0.39129832577E+02  0.73792239223E+02  0.00000000000E+00 0. -1.
</event>
<event>
 7    1  0.2728221E-009  0.1346620E+03  0.7561462E-02  0.1220698E+00
         -2   -1    0    0    0  501 -0.00000000000E+00  0.00000000000E+00  0.51759254432E+02  0.51759254432E+02  0.00000000000E+00 0.  1.
          2   -1    0    0  501    0  0.00000000000E+00 -0.00000000000E+00 -0.38300992880E+03  0.38300992880E+03  0.00000000000E+00 0. -1.
         25    2    1    2    0    0  0.17281878072E+02 -0.82389870400E+02 -0.22387341530E+03  0.26991772194E+03  0.12509802751E+03 0.  0.
          5    1    3    3  502    0  0.52991787827E+02 -0.94632158422E+02 -0.13466792569E+03  0.17296328395E+03  0.41800000000E+01 0. -1.
         -5    1    3    3    0  502 -0.35709909755E+02  0.12242288021E+02 -0.89205489606E+02  0.96954437993E+02  0.41800000000E+01 0. -1.
        -11    1    1    2    0    0 -0.48723524746E+02  0.19478641114E+02 -0.30654718201E+02  0.60770972275E+02  0.00000000000E+00 0.  1.
         11    1    1    2    0    0  0.31441646674E+02  0.62911229286E+02 -0.76722540871E+02  0.10408048902E+03  0.00000000000E+00 0. -1.
</event>
<event>
 7    1  0.2728221E-009  0.1490457E+03  0.7561462E-02  0.1201651E+00
          1   -1    0    0  501    0  0.00000000000E+00  0.00000000000E+00  0.50340910914E+03  0.50340910914E+03  0.00000000000E+00 0. -1.
         -1   -1    0    0    0  501 -0.00000000000E+00 -0.00000000000E+00 -0.77270564667E+02  0.77270564667E+02  0.00000000000E+00 0.  1.
         25    2    1    2    0    0 -0.91217165661E+02 -0.11123150875E+03  0.10069871195E+03  0.21559513199E+03  0.12509200812E+03 0.  0.
          5    1    3    3  502    0 -0.28377449477E+01 -0.57971946798E+01 -0.26858018263E+02  0.27937176084E+02  0.41800000000E+01 0.  1.
         -5    1    3    3    0  502 -0.88379420714E+02 -0.10543431407E+03  0.12755673022E+03  0.18765795590E+03  0.41800000000E+01 0.  1.
        -11    1    1    2    0    0  0.16325211344E+02  0.59603060877E+02  0.67214994652E+02  0.91306587371E+02  0.00000000000E+00 0.  1.
         11    1    1    2    0    0  0.74891954318E+02  0.51628447874E+02  0.25822483786E+03  0.27377795445E+03  0.00000000000E+00 0. -1.
</event>
<event>
 7    1  0.2728221E-009  0.1373830E+03  0.7561462E-02  0.1216894E+00
          1   -1    0    0  501    0  0.00000000000E+00  0.00000000000E+00  0.85757885822E+03  0.85757885822E+03  0.00000000000E+00 0. -1.
         -1   -1    0    0    0  501 -0.00000000000E+00 -0.00000000000E+00 -0.29829313418E+02  0.29829313418E+02  0.00000000000E+00 0.  1.
         25    2    1    2    0    0  0.80197370044E+02  0.85128281543E+02  0.47637089724E+03  0.50621688959E+03  0.12509142691E+03 0.  0.
          5    1    3    3  502    0  0.24047750128E+02  0.79460430741E+02  0.41289058424E+03  0.42117497705E+03  0.41800000000E+01 0.  1.
         -5    1    3    3    0  502  0.56149619916E+02  0.56678508022E+01  0.63480313004E+02  0.85041912540E+02  0.41800000000E+01 0.  1.
        -11    1    1    2    0    0 -0.77414122005E+02 -0.35191873827E+02  0.13855298657E+03  0.16256796842E+03  0.00000000000E+00 0.  1.
         11    1    1    2    0    0 -0.27832480395E+01 -0.49936407716E+02  0.21282566099E+03  0.21862331363E+03  0.00000000000E+00 0. -1.
</event>
<event>
 7    1  0.2728221E-009  0.1818237E+03  0.7561462E-02  0.1166050E+00
         -2   -1    0    0    0  501 -0.00000000000E+00  0.00000000000E+00  0.54416103143E+02  0.54416103143E+02  0.00000000000E+00 0. -1.
          2   -1    0    0  501    0  0.00000000000E+00 -0.00000000000E+00 -0.66962550002E+03  0.66962550002E+03  0.00000000000E+00 0.  1.
         25    2    1    2    0    0 -0.35992872164E+02 -0.15154565582E+03 -0.29475679808E+03  0.35607305499E+03  0.12507948605E+03 0.  0.
          5    1    3    3  502    0  0.13307610180E+02  0.77754650563E+01 -0.92609116487E+02  0.93975907562E+02  0.41800000000E+01 0.  1.
         -5    1    3    3    0  502 -0.49300482344E+02 -0.15932112088E+03 -0.20214768160E+03  0.26209714743E+03  0.41800000000E+01 0.  1.
        -11    1    1    2    0    0  0.25907118347E+02 -0.29068226261E+01 -0.44802663513E+02  0.51835384214E+02  0.00000000000E+00 0. -1.
         11    1    1    2    0    0  0.10085753817E+02  0.15445247845E+03 -0.27564993528E+03  0.31613316395E+03  0.00000000000E+00 0.  1.
</event>
<event>
 7    1  0.2728221E-009  0.6920639E+02  0.7561462E-02  0.1362813E+00
          3   -1    0    0  501    0  0.00000000000E+00  0.00000000000E+00  0.67272772934E+03  0.67272772934E+03  0.00000000000E+00 0. -1.
         -3   -1    0    0    0  501 -0.00000000000E+00 -0.00000000000E+00 -0.31649605687E+02  0.31649605687E+02  0.00000000000E+00 0.  1.
         25    2    1    2    0    0  0.13303447411E+02 -0.22433344074E+02  0.56602396118E+03  0.58026751917E+03  0.12508809911E+03 0.  0.
          5    1    3    3  502    0  0.21170648418E+02 -0.13119955285E+00  0.10102266117E+02  0.23827331962E+02  0.41800000000E+01 0.  1.
         -5    1    3    3    0  502 -0.78672010069E+01 -0.22302144521E+02  0.55592169506E+03  0.55644018721E+03  0.41800000000E+01 0.  1.
        -11    1    1    2    0    0 -0.41616781422E+02  0.41428876095E+02  0.66970794665E+02  0.89069611027E+02  0.00000000000E+00 0.  1.
         11    1    1    2    0    0  0.28313334011E+02 -0.18995532021E+02  0.80833678144E+01  0.35040204834E+02  0.00000000000E+00 0. -1.
</event>
<event>
 6    1  0.2728221E-009  0.7718756E+02  0.7561462E-02  0.1337228E+00
         -1   -1    0    0    0  501 -0.00000000000E+00  0.00000000000E+00  0.34944455384E+03  0.34944455384E+03  0.00000000000E+00 0.  1.
          1   -1    0    0  501    0  0.00000000000E+00 -0.00000000000E+00 -0.36931599484E+02  0.36931599484E+02  0.00000000000E+00 0. -1.
          5    1    1    2  502    0 -0.24159759393E+02 -0.45345549741E+02  0.19815577001E+02  0.55227188477E+02  0.41800000000E+01 0. -1.
         -5    1    1    2    0  502 -0.10379545081E+02  0.45427390355E+02  0.15853259457E+03  0.16529198012E+03  0.41800000000E+01 0. -1.
        -11    1    1    2    0    0  0.29030287685E+02 -0.20079202415E+02  0.13994214852E+03  0.14432510837E+03  0.00000000000E+00 0.  1.
         11    1    1    2    0    0  0.55090167882E+01  0.19997361800E+02 -0.57773657331E+01  0.21531876364E+02  0.00000000000E+00 0. -1.
</event>
<event>
 7    1  0.2728221E-009  0.7308890E+02  0.7561462E-02  0.1349893E+00
          1   -1    0    0  501    0  0.00000000000E+00  0.00000000000E+00  0.18398874172E+03  0.18398874172E+03  0.00000000000E+00 0. -1.
         -1   -1    0    0    0  501 -0.00000000000E+00 -0.00000000000E+00 -0.78022981150E+02  0.78022981150E+02  0.00000000000E+00 0.  1.
         25    2    1    2    0    0 -0.40790090406E+02 -0.17135647380E+02  0.36998483237E+02  0.13774407235E+03  0.12508828810E+03 0.  0.
          5    1    3    3  502    0  0.41166469412E+01  0.61143485005E+01 -0.42552666143E+02  0.43388176218E+02  0.41800000000E+01 0. -1.
         -5    1    3    3    0  502 -0.44906737347E+02 -0.23249995881E+02  0.79551149380E+02  0.94355896134E+02  0.41800000000E+01 0. -1.
        -11    1    1    2    0    0 -0.11871166135E+02  0.30418136168E+02 -0.44405941823E+01  0.32953094999E+02  0.00000000000E+00 0.  1.
         11    1    1    2    0    0  0.52661256541E+02 -0.13282488788E+02  0.73407871511E+02  0.91314555514E+02  0.00000000000E+00 0. -1.
</event>
<event>
 7    1  0.2728221E-009  0.1054268E+03  0.7561462E-02  0.1269281E+00
         -1   -1    0    0    0  501 -0.00000000000E+00  0.00000000000E+00  0.12035053007E+02  0.12035053007E+02  0.00000000000E+00 0. -1.
          1   -1    0    0  501    0  0.00000000000E+00 -0.00000000000E+00 -0.12621592035E+04  0.12621592035E+04  0.00000000000E+00 0.  1.
         25    2    1    2    0    0  0.36821080347E+02 -0.35058691167E+02 -0.84269782527E+03  0.85344707716E+03  0.12508950802E+03 0.  0.
          5    1    3    3  502    0 -0.41934134976E+02 -0.17977745643E+02 -0.46346091194E+03  0.46572004499E+03  0.41800000000E+01 0.  1.
         -5    1    3    3    0  502  0.78755215323E+02 -0.17080945524E+02 -0.37923691333E+03  0.38772703217E+03  0.41800000000E+01 0.  1.
        -11    1    1    2    0    0  0.28580761160E+01 -0.17923149758E+02 -0.17397154799E+02  0.25140980320E+02  0.00000000000E+00 0. -1.
         11    1    1    2    0    0 -0.39679156463E+02  0.52981840926E+02 -0.39002917043E+03  0.39560619903E+03  0.00000000000E+00 0.  1.
</event>
<event>
 7    1  0.2728221E-009  0.9506714E+02  0.7561462E-02  0.1291025E+00
         -1   -1    0    0    0  501 -0.00000000000E+00  0.00000000000E+00  0.29540326362E+02  0.29540326362E+02  0.00000000000E+00 0.  1.
          1   -1    0    0  501    0  0.00000000000E+00 -0.00000000000E+00 -0.42094259306E+03  0.42094259306E+03  0.00000000000E+00 0. -1.
         25    2    1    2    0    0  0.14782707629E+02 -0.67255401051E+00 -0.28191165248E+03  0.30877166288E+03  0.12508708654E+03 0.  0.
          5    1    3    3  502    0 -0.36628975138E+02  0.33013705253E+02 -0.56574696953E+02  0.75164854084E+02  0.41800000000E+01 0. -1.
         -5    1    3    3    0  502  0.51411682767E+02 -0.33686259264E+02 -0.22533695553E+03  0.23360680880E+03  0.41800000000E+01 0. -1.
        -11    1    1    2    0    0  0.16906537447E+02 -0.30319380940E+02 -0.83258199205E+02  0.90205452185E+02  0.00000000000E+00 0.  1.
         11    1    1    2    0    0 -0.31689245076E+02  0.30991934950E+02 -0.26232415014E+02  0.51505804361E+02  0.00000000000E+00 0. -1.
</event>
<event>
 6    1  0.2728221E-009  0.9423330E+02  0.7561462E-02  0.1292912E+00
         -1   -1    0    0    0  501 -0.00000000000E+00  0.00000000000E+00  0.43634719679E+02  0.43634719679E+02  0.00000000000E+00 0.  1.
          1   -1    0    0  501    0  0.00000000000E+00 -0.00000000000E+00 -0.34241506232E+03  0.34241506232E+03  0.00000000000E+00 0. -1.
          5    1    1    2  502    0  0.54211905868E+02 -0.23762609789E+02 -0.20855545630E+02  0.62896888201E+02  0.41800000000E+01 0. -1.
         -5    1    1    2    0  502  0.92105010236E+00  0.25566474787E+02 -0.16925419686E+03  0.17122776796E+03  0.41800000000E+01 0. -1.
        -11    1    1    2    0    0  0.23340561955E+02 -0.75259149771E+01 -0.42721694535E+02  0.49260170651E+02  0.00000000000E+00 0. -1.
         11    1    1    2    0    0 -0.78473517925E+02  0.57220499788E+01 -0.65948905617E+02  0.10266495519E+03  0.00000000000E+00 0.  1.
</event>
<event>
 7    1  0.2728221E-009  0.1692835E+03  0.7561462E-02  0.1178597E+00
         -2   -1    0    0    0  501 -0.00000000000E+00  0.00000000000E+00  0.65314986522E+02  0.65314986522E+02  0.00000000000E+00 0.  1.
          2   -1    0    0  501    0  0.00000000000E+00 -0.00000000000E+00 -0.71777734031E+03  0.71777734031E+03  0.00000000000E+00 0. -1.
         25    2    1    2    0    0 -0.16373919272E+02  0.14418174950E+03 -0.55842140388E+03  0.59037402973E+03  0.12510215245E+03 0.  0.
          5    1    3    3  502    0  0.35541023921E+02  0.94943311222E+02 -0.19357964274E+03  0.21855879578E+03  0.41800000000E+01 0. -1.
         -5    1    3    3    0  502 -0.51914943193E+02  0.49238438277E+02 -0.36484176113E+03  0.37181523395E+03  0.41800000000E+01 0. -1.
        -11    1    1    2    0    0 -0.16132584678E+02 -0.12819334944E+03 -0.87133837634E+02  0.15583998457E+03  0.00000000000E+00 0. -1.
         11    1    1    2    0    0  0.32506503950E+02 -0.15988400058E+02 -0.69071122786E+01  0.36878312536E+02  0.00000000000E+00 0.  1.
</event>
<event>
 7    1  0.2728221E-009  0.1268280E+03  0.7561462E-02  0.1232240E+00
         -3   -1    0    0    0  501 -0.00000000000E+00  0.00000000000E+00  0.22703271314E+03  0.22703271314E+03  0.00000000000E+00 0.  1.
          3   -1    0    0  501    0  0.00000000000E+00 -0.00000000000E+00 -0.10979298153E+03  0.10979298153E+03  0.00000000000E+00 0. -1.
         25    2    1    2    0    0  0.19140306581E+02 -0.11244179095E+03  0.78383870595E+02  0.18655139268E+03  0.12509149952E+03 0.  0.
          5    1    3    3  502    0  0.31330997270E+02 -0.49915763751E+02 -0.25715323463E+02  0.64435744130E+02  0.41800000000E+01 0.  1.
         -5    1    3    3    0  502 -0.12190690689E+02 -0.62526027199E+02  0.10409919406E+03  0.12211564855E+03  0.41800000000E+01 0.  1.
        -11    1    1    2    0    0  0.76154983095E+01  0.10156726969E+03 -0.99949063917E-02  0.10185237448E+03  0.00000000000E+00 0.  1.
         11    1    1    2    0    0 -0.26755804891E+02  0.10874521259E+02  0.38865855919E+02  0.48421927515E+02  0.00000000000E+00 0. -1.
</event>
<event>
 7    1  0.2728221E-009  0.6808287E+02  0.7561462E-02  0.1366736E+00
          2   -1    0    0  501    0  0.00000000000E+00  0.00000000000E+00  0.80067434807E+02  0.80067434807E+02  0.00000000000E+00 0. -1.
         -2   -1    0    0    0  501 -0.00000000000E+00 -0.00000000000E+00 -0.16813655860E+03  0.16813655860E+03  0.00000000000E+00 0.  1.
         25    2    1    2    0    0 -0.20795760818E+02 -0.98250896176E+01 -0.80080623021E+02  0.15029982056E+03  0.12509250107E+03 0.  0.
          5    1    3    3  502    0  0.56699396824E+01  0.56661342697E+01  0.32400684664E+02  0.33638223203E+02  0.41800000000E+01 0.  1.
         -5    1    3    3    0  502 -0.26465700500E+02 -0.15491223887E+02 -0.11248130769E+03  0.11666159736E+03  0.41800000000E+01 0.  1.
        -11    1    1    2    0    0  0.58098578076E+02  0.95093514824E+01 -0.12927991118E+02  0.60274418242E+02  0.00000000000E+00 0.  1.
         11    1    1    2    0    0 -0.37302817258E+02  0.31573813517E+00  0.49394903513E+01  0.37629754595E+02  0.00000000000E+00 0. -1.
</event>
<event>
 7    1  0.2728221E-009  0.9429121E+02  0.7561462E-02  0.1292780E+00
          2   -1    0    0  501    0  0.00000000000E+00  0.00000000000E+00  0.26243938435E+03  0.26243938435E+03  0.00000000000E+00 0. -1.
         -2   -1    0    0    0  501 -0.00000000000E+00 -0.00000000000E+00 -0.64327302207E+02  0.64327302207E+02  0.00000000000E+00 0.  1.
         25    2    1    2    0    0 -0.44840405916E+02 -0.32810241364E+02  0.52179757039E+02  0.14648475628E+03  0.12509149786E+03 0.  0.
          5    1    3    3  502    0 -0.29958825724E+02 -0.54837618958E+02 -0.22935428998E+02  0.66694842343E+02  0.41800000000E+01 0. -1.
         -5    1    3    3    0  502 -0.14881580192E+02  0.22027377594E+02  0.75115186036E+02  0.79789913936E+02  0.41800000000E+01 0. -1.
        -11    1    1    2    0    0  0.16831868112E+02  0.58601495336E+02  0.11878940824E+03  0.13352292144E+03  0.00000000000E+00 0.  1.
         11    1    1    2    0    0  0.28008537804E+02 -0.25791253973E+02  0.27142916859E+02  0.46759008832E+02  0.00000000000E+00 0. -1.
</event>
<event>
 7    1  0.2728221E-009  0.7177607E+02  0.7561462E-02  0.1354156E+00
          1   -1    0    0  501    0  0.00000000000E+00  0.00000000000E+00  0.30099971995E+03  0.30099971995E+03  0.00000000000E+00 0. -1.
         -1   -1    0    0    0  501 -0.00000000000E+00 -0.00000000000E+00 -0.10737376203E+03  0.10737376203E+03  0.00000000000E+00 0.  1.
         25    2    1    2    0    0 -0.29947978830E+02  0.90225301110E+01  0.25647747688E+03  0.28706568068E+03  0.12509085253E+03 0.  0.
          5    1    3    3  502    0 -0.23306148329E+02  0.19220947282E+02  0.26803782528E+03  0.26976725069E+03  0.41800000000E+01 0. -1.
         -5    1    3    3    0  502 -0.66418305005E+01 -0.10198417171E+02 -0.11560348391E+02  0.17298429990E+02  0.41800000000E+01 0. -1.
        -11    1    1    2    0    0 -0.34190552019E+02  0.49401681553E+01 -0.72840852202E+01  0.35305198006E+02  0.00000000000E+00 0. -1.
         11    1    1    2    0    0  0.64138530848E+02 -0.13962698266E+02 -0.55567433742E+02  0.86002603303E+02  0.00000000000E+00 0.  1.
</event>
<event>
 7    1  0.2728221E-009  0.1212326E+03  0.7561462E-02  0.1241077E+00
          2   -1    0    0  501    0  0.00000000000E+00  0.00000000000E+00  0.18238896001E+03  0.18238896001E+03  0.00000000000E+00 0. -1.
         -2   -1    0    0    0  501 -0.00000000000E+00 -0.00000000000E+00 -0.12365173232E+03  0.12365173232E+03  0.00000000000E+00 0.  1.
         25    2    1    2    0    0  0.47780192411E+02  0.77071278283E+02  0.87182113727E+02  0.17739815363E+03  0.12508579149E+03 0.  0.
          5    1    3    3  502    0 -0.26042763150E+01  0.95327486990E+02  0.32796883885E+02  0.10093175924E+03  0.41800000000E+01 0.  1.
         -5    1    3    3    0  502  0.50384468726E+02 -0.18256208707E+02  0.54385229842E+02  0.76466394385E+02  0.41800000000E+01 0.  1.
        -11    1    1    2    0    0 -0.39275508332E+01 -0.24430996102E+02 -0.50856531743E+02  0.56556927489E+02  0.00000000000E+00 0.  1.
         11    1    1    2    0    0 -0.43852641578E+02 -0.52640282180E+02  0.22411645697E+02  0.72085611215E+02  0.00000000000E+00 0. -1.
</event>
<event>
 6    1  0.2728221E-009  0.1166809E+03  0.7561462E-02  0.1248675E+00
          1   -1    0    0  501    0  0.00000000000E+00  0.00000000000E+00  0.60574823245E+03  0.60574823245E+03  0.00000000000E+00 0. -1.
         -1   -1    0    0    0  501 -0.00000000000E+00 -0.00000000000E+00 -0.29386980182E+02  0.29386980182E+02  0.00000000000E+00 0.  1.
          5    1    1    2  502    0  0.39188920555E+02 -0.43535728903E+02  0.60044031847E+02  0.83987435643E+02  0.41800000000E+01 0.  1.
         -5    1    1    2    0  502 -0.63130054830E+02 -0.25821343858E+02  0.23688073739E+03  0.24654026399E+03  0.41800000000E+01 0.  1.
        -11    1    1    2    0    0 -0.22083451826E+02  0.53069362301E+02  0.22153281715E+03  0.22886857612E+03  0.00000000000E+00 0.  1.
         11    1    1    2    0    0  0.46024586101E+02  0.16287710460E+02  0.57903665880E+02  0.75738936883E+02  0.00000000000E+00 0. -1.
</event>
<event>
 7    1  0.2728221E-009  0.1038330E+03  0.7561462E-02  0.1272436E+00
          2   -1    0    0  501    0  0.00000000000E+00  0.00000000000E+00  0.13606734011E+03  0.13606734011E+03  0.00000000000E+00 0. -1.
         -2   -1    0    0    0  501 -0.00000000000E+00 -0.00000000000E+00 -0.12166060667E+03  0.12166060667E+03  0.00000000000E+00 0.  1.
         25    2    1    2    0    0  0.48440431801E+02 -0.49175923599E+02  0.15538154452E+01  0.14287927856E+03  0.12508927614E+03 0.  0.
          5    1    3    3  502    0  0.46731404170E+02 -0.78690421604E+02 -0.32848617108E+02  0.97326823815E+02  0.41800000000E+01 0.  1.
         -5    1    3    3    0  502  0.17090276307E+01  0.29514498005E+02  0.34402432553E+02  0.45552454747E+02  0.41800000000E+01 0.  1.
        -11    1    1    2    0    0 -0.11307140273E+02  0.47708157914E+02 -0.30504281373E+02  0.57744531644E+02  0.00000000000E+00 0.  1.
         11    1    1    2    0    0 -0.37133291528E+02  0.14677656846E+01  0.43357199367E+02  0.57104136564E+02  0.00000000000E+00 0. -1.
</event>
<event>
 7    1  0.2728221E-009  0.1161903E+03  0.7561462E-02  0.1249518E+00
          4   -1    0    0  501    0  0.00000000000E+00  0.00000000000E+00  0.34171606685E+03  0.34171606685E+03  0.00000000000E+00 0. -1.
         -4   -1    0    0    0  501 -0.00000000000E+00 -0.00000000000E+00 -0.57168196061E+02  0.57168196061E+02  0.00000000000E+00 0.  1.
         25    2    1    2    0    0 -0.49696152863E+02 -0.24001631729E+02  0.56787448048E+02  0.14804761268E+03  0.12508994935E+03 0.  0.
          5    1    3    3  502    0  0.29655679135E+02  0.25452133640E+02  0.33393974631E+02  0.51574221792E+02  0.41800000000E+01 0. -1.
         -5    1    3    3    0  502 -0.79351831998E+02 -0.49453765368E+02  0.23393473416E+02  0.96473390886E+02  0.41800000000E+01 0. -1.
        -11    1    1    2    0    0  0.32512279567E+02  0.55086210535E+02  0.18197537217E+03  0.19289005933E+03  0.00000000000E+00 0.  1.
         11    1    1    2    0    0  0.17183873295E+02 -0.31084578806E+02  0.45785050575E+02  0.57946590902E+02  0.00000000000E+00 0. -1.
</event>
<event>
 7    1  0.2728221E-009  0.7802538E+02  0.7561462E-02  0.1334750E+00
          2   -1    0    0  501    0  0.00000000000E+00  0.00000000000E+00  0.84540505196E+02  0.84540505196E+02  0.00000000000E+00 0. -1.
         -2   -1    0    0    0  501 -0.00000000000E+00 -0.00000000000E+00 -0.17680871069E+03  0.17680871069E+03  0.00000000000E+00 0.  1.
         25    2    1    2    0    0 -0.37514571014E+02  0.36342688052E+02 -0.28949102378E+02  0.13861421343E+03  0.12509082949E+03 0.  0.
          5    1    3    3  502    0 -0.29162405875E+02  0.53928388236E+02 -0.69904830330E+02  0.93074565149E+02  0.41800000000E+01 0. -1.
         -5    1    3    3    0  502 -0.83521651386E+01 -0.17585700184E+02  0.40955727952E+02  0.45539648281E+02  0.41800000000E+01 0. -1.
        -11    1    1    2    0    0 -0.75475167960E+01 -0.27821862621E+02  0.14605946756E+02  0.32316477687E+02  0.00000000000E+00 0. -1.
         11    1    1    2    0    0  0.45062087810E+02 -0.85208254314E+01 -0.77925049868E+02  0.90418524766E+02  0.00000000000E+00 0.  1.
</event>
<event>
 7    1  0.2728221E-009  0.9572492E+02  0.7561462E-02  0.1289552E+00
         -2   -1    0    0    0  501 -0.00000000000E+00  0.00000000000E+00  0.31987160488E+03  0.31987160488E+03  0.00000000000E+00 0.  1.
          2   -1    0    0  501    0  0.00000000000E+00 -0.00000000000E+00 -0.62654120021E+02  0.62654120021E+02  0.00000000000E+00 0. -1.
         25    2    1    2    0    0  0.60194281717E+02 -0.60249811020E+02  0.18457258327E+03  0.23867042583E+03  0.12507254851E+03 0.  0.
          5    1    3    3  502    0  0.42663523087E+02 -0.38972647500E+02  0.63530509922E+01  0.58282734255E+02  0.41800000000E+01 0.  1.
         -5    1    3    3    0  502  0.17530758630E+02 -0.21277163520E+02  0.17821953228E+03  0.18038769158E+03  0.41800000000E+01 0.  1.
        -11    1    1    2    0    0 -0.15257553013E+02  0.58717621655E+02  0.77733392887E+02  0.98605437915E+02  0.00000000000E+00 0.  1.
         11    1    1    2    0    0 -0.44936728704E+02  0.15321893652E+01 -0.50884912997E+01  0.45249861155E+02  0.00000000000E+00 0. -1.
</event>
<event>
 7    1  0.2728221E-009  0.1033103E+03  0.7561462E-02  0.1273485E+00
         -2   -1    0    0    0  501 -0.00000000000E+00  0.00000000000E+00  0.99827767455E+02  0.99827767455E+02  0.00000000000E+00 0.  1.
          2   -1    0    0  501    0  0.00000000000E+00 -0.00000000000E+00 -0.18751348633E+03  0.18751348633E+03  0.00000000000E+00 0. -1.
         25    2    1    2    0    0 -0.75312248395E+02 -0.69452066658E+01 -0.77058426431E+02  0.16524543667E+03  0.12509149692E+03 0.  0.
          5    1    3    3  502    0  0.12043376859E+02 -0.96087237347E+01  0.25717694754E+02  0.30269501506E+02  0.41800000000E+01 0. -1.
         -5    1    3    3    0  502 -0.87355625254E+02  0.26635170689E+01 -0.10277612118E+03  0.13497593516E+03  0.41800000000E+01 0. -1.
        -11    1    1    2    0    0  0.20761347692E+02  0.35848039723E+02 -0.36449132828E+02  0.55178390643E+02  0.00000000000E+00 0. -1.
         11    1    1    2    0    0  0.54550900703E+02 -0.28902833057E+02  0.25821840379E+02  0.66917426481E+02  0.00000000000E+00 0.  1.
</event>
<event>
 7    1  0.2728221E-009  0.8483028E+02  0.7561462E-02  0.1315877E+00
          1   -1    0    0  501    0  0.00000000000E+00  0.00000000000E+00  0.25461217377E+02  0.25461217377E+02  0.00000000000E+00 0. -1.
         -1   -1    0    0    0  501 -0.00000000000E+00 -0.00000000000E+00 -0.47199459479E+03  0.47199459479E+03  0.00000000000E+00 0.  1.
         25    2    1    2    0    0 -0.28659074640E+02 -0.29182717233E+02 -0.21964916515E+03  0.25605502406E+03  0.12508175745E+03 0.  0.
          5    1    3    3  502    0 -0.22531976593E+02  0.24804283437E+02 -0.19200120768E+03  0.19494839983E+03  0.41800000000E+01 0.  1.
         -5    1    3    3    0  502 -0.61270980473E+01 -0.53987000671E+02 -0.27647957473E+02  0.61106624226E+02  0.41800000000E+01 0.  1.
        -11    1    1    2    0    0 -0.23623950021E+02  0.73843739459E+01 -0.52387982663E+02  0.57940665518E+02  0.00000000000E+00 0.  1.
         11    1    1    2    0    0  0.52283024662E+02  0.21798343288E+02 -0.17449622959E+03  0.18346012259E+03  0.00000000000E+00 0. -1.
</event>
<event>
 7    1  0.2728221E-009  0.7459358E+02  0.7561462E-02  0.1345134E+00
          2   -1    0    0  501    0  0.00000000000E+00  0.00000000000E+00  0.78572292242E+03  0.78572292242E+03  0.00000000000E+00 0. -1.
         -2   -1    0    0    0  501 -0.00000000000E+00 -0.00000000000E+00 -0.17557199754E+02  0.17557199754E+02  0.00000000000E+00 0.  1.
         25    2    1    2    0    0 -0.10016493505E+02 -0.42634713451E+02  0.48089834625E+03  0.49882757589E+03  0.12509069555E+03 0.  0.
          5    1    3    3  502    0 -0.26543613037E+02 -0.41608095271E+02  0.47910141749E+03  0.48165489474E+03  0.41800000000E+01 0. -1.
         -5    1    3    3    0  502  0.16527119532E+02 -0.10266181793E+01  0.17969287548E+01  0.17172681150E+02  0.41800000000E+01 0. -1.
        -11    1    1    2    0    0  0.10270705732E+02  0.62184423285E+02  0.27317547816E+03  0.28035197834E+03  0.00000000000E+00 0. -1.
         11    1    1    2    0    0 -0.25421222752E+00 -0.19549709834E+02  0.14091898268E+02  0.24100567945E+02  0.00000000000E+00 0.  1.
</event>
<event>
 7    1  0.2728221E-009  0.1056234E+03  0.7561462E-02  0.1268896E+00
          2   -1    0    0  501    0  0.00000000000E+00  0.00000000000E+00  0.60796743760E+03  0.60796743760E+03  0.00000000000E+00 0. -1.
         -2   -1    0    0    0  501 -0.00000000000E+00 -0.00000000000E+00 -0.34898516341E+02  0.34898516341E+02  0.00000000000E+00 0.  1.
         25    2    1    2    0    0  0.48623098782E+02  0.50170581446E+02  0.45691269165E+03  0.47885076484E+03  0.12509018435E+03 0.  0.
          5    1    3    3  502    0 -0.14769490502E+01  0.46567265237E+02  0.40041355039E+03  0.40313667075E+03  0.41800000000E+01 0.  1.
         -5    1    3    3    0  502  0.50100047832E+02  0.36033162092E+01  0.56499141259E+02  0.75714094087E+02  0.41800000000E+01 0.  1.
        -11    1    1    2    0    0  0.47521072148E+01 -0.59664069399E+02  0.46758459938E+02  0.75952203892E+02  0.00000000000E+00 0.  1.
         11    1    1    2    0    0 -0.53375205997E+02  0.94934879535E+01  0.69397769678E+02  0.88062985215E+02  0.00000000000E+00 0. -1.
</event>
<event>
 7    1  0.2728221E-009  0.9206560E+02  0.7561462E-02  0.1297925E+00
          1   -1    0    0  501    0  0.00000000000E+00  0.00000000000E+00  0.11254123647E+04  0.11254123647E+04  0.00000000000E+00 0. -1.
         -1   -1    0    0    0  501 -0.00000000000E+00 -0.00000000000E+00 -0.14907935501E+02  0.14907935501E+02  0.00000000000E+00 0.  1.
         25    2    1    2    0    0  0.38341867493E+02  0.23856228877E+02  0.88940829322E+03  0.89929852499E+03  0.12510598129E+03 0.  0.
          5    1    3    3  502    0  0.16162503145E+02  0.53373502490E+02  0.80659336812E+03  0.80852970952E+03  0.41800000000E+01 0. -1.
         -5    1    3    3    0  502  0.22179364348E+02 -0.29517273612E+02  0.82814925092E+02  0.90768815473E+02  0.41800000000E+01 0. -1.
        -11    1    1    2    0    0  0.13265775239E+02 -0.35713920952E+02  0.13189884233E+03  0.13729082107E+03  0.00000000000E+00 0. -1.
         11    1    1    2    0    0 -0.51607642732E+02  0.11857692074E+02  0.89197293617E+02  0.10373095410E+03  0.00000000000E+00 0.  1.
</event>
<event>
 6    1  0.2728221E-009  0.1060501E+03  0.7561462E-02  0.1268064E+00
         -2   -1    0    0    0  501 -0.00000000000E+00  0.00000000000E+00  0.33575476549E+03  0.33575476549E+03  0.00000000000E+00 0.  1.
          2   -1    0    0  501    0  0.00000000000E+00 -0.00000000000E+00 -0.45464764101E+02  0.45464764101E+02  0.00000000000E+00 0. -1.
          5    1    1    2  502    0 -0.59529702791E+01  0.49938473737E+02  0.95158628347E+02  0.10771223683E+03  0.41800000000E+01 0. -1.
         -5    1    1    2    0  502  0.61811916370E+02 -0.60790175392E+02  0.14943858922E+03  0.17281644244E+03  0.41800000000E+01 0. -1.
        -11    1    1    2    0    0 -0.20560728395E+02  0.28683676815E+02 -0.57992966980E+01  0.35764908919E+02  0.00000000000E+00 0. -1.
         11    1    1    2    0    0 -0.35298217696E+02 -0.17831975160E+02  0.51492080525E+02  0.64925941406E+02  0.00000000000E+00 0.  1.
</event>
<event>
 7    1  0.2728221E-009  0.6769298E+02  0.7561462E-02  0.1368119E+00
         -2   -1    0    0    0  501 -0.00000000000E+00  0.00000000000E+00  0.63518962874E+02  0.63518962874E+02  0.00000000000E+00 0.  1.
          2   -1    0    0  501    0  0.00000000000E+00 -0.00000000000E+00 -0.26484725437E+03  0.26484725437E+03  0.00000000000E+00 0. -1.
         25    2    1    2    0    0 -0.13402210341E+02 -0.29455836025E+02 -0.19137531851E+03  0.23090988522E+03  0.12509035551E+03 0.  0.
          5    1    3    3  502    0  0.34613761553E+01  0.48855200634E+01  0.17267064584E+02  0.18747622530E+02  0.41800000000E+01 0.  1.
         -5    1    3    3    0  502 -0.16863586496E+02 -0.34341356088E+02 -0.20864238309E+03  0.21216226269E+03  0.41800000000E+01 0.  1.
        -11    1    1    2    0    0  0.30843912152E+02 -0.20265552745E+02 -0.22589585915E+02  0.43270416415E+02  0.00000000000E+00 0. -1.
         11    1    1    2    0    0 -0.17441701811E+02  0.49721388770E+02  0.12636612934E+02  0.54185915603E+02  0.00000000000E+00 0.  1.
</event>
<event>
 7    1  0.2728221E-009  0.4130918E+03  0.7561462E-02  0.1039338E+00
          1   -1    0    0  501    0  0.00000000000E+00  0.00000000000E+00  0.21675491956E+03  0.21675491956E+03  0.00000000000E+00 0. -1.
         -1   -1    0    0    0  501 -0.00000000000E+00 -0.00000000000E+00 -0.81491333163E+03  0.81491333163E+03  0.00000000000E+00 0.  1.
         25    2    1    2    0    0  0.40480316637E+03  0.21241748911E+02 -0.32368536578E+03  0.53361627162E+03  0.12512910899E+03 0.  0.
          5    1    3    3  502    0  0.31104492333E+03  0.60299337763E+02 -0.28045437131E+03  0.42315136919E+03  0.41800000000E+01 0.  1.
         -5    1    3    3    0  502  0.93758243044E+02 -0.39057588852E+02 -0.43230994471E+02  0.11046490243E+03  0.41800000000E+01 0.  1.
        -11    1    1    2    0    0 -0.30847977102E+03 -0.34626686668E+02 -0.24784673270E+03  0.39722384051E+03  0.00000000000E+00 0.  1.
         11    1    1    2    0    0 -0.96323395357E+02  0.13384937757E+02 -0.26626313586E+02  0.10082813906E+03  0.00000000000E+00 0. -1.
</event>
<event>
 7    1  0.2728221E-009  0.1158855E+03  0.7561462E-02  0.1250043E+00
         -1   -1    0    0    0  501 -0.00000000000E+00  0.00000000000E+00  0.79768290365E+02  0.79768290365E+02  0.00000000000E+00 0.  1.
          1   -1    0    0  501    0  0.00000000000E+00 -0.00000000000E+00 -0.19128509069E+03  0.19128509069E+03  0.00000000000E+00 0. -1.
         25    2    1    2    0    0  0.21223229522E+02 -0.21723798028E+02 -0.17076727006E+02  0.12985250190E+03  0.12509080211E+03 0.  0.
          5    1    3    3  502    0  0.84905360442E+00 -0.72249770097E+02  0.74744765498E+00  0.72379425592E+02  0.41800000000E+01 0.  1.
         -5    1    3    3    0  502  0.20374175918E+02  0.50525972068E+02 -0.17824174661E+02  0.57473076306E+02  0.41800000000E+01 0.  1.
        -11    1    1    2    0    0  0.39998461901E+02  0.63357206058E+00 -0.40490974724E+02  0.56919218214E+02  0.00000000000E+00 0.  1.
         11    1    1    2    0    0 -0.61221691423E+02  0.21090225968E+02 -0.53949098596E+02  0.84281660944E+02  0.00000000000E+00 0. -1.
</event>
<event>
 7    1  0.2728221E-009  0.1900847E+03  0.7561462E-02  0.1158385E+00
          1   -1    0    0  501    0  0.00000000000E+00  0.00000000000E+00  0.87081844197E+03  0.87081844197E+03  0.00000000000E+00 0. -1.
         -1   -1    0    0    0  501 -0.00000000000E+00 -0.00000000000E+00 -0.51759652804E+02  0.51759652804E+02  0.00000000000E+00 0.  1.
         25    2    1    2    0    0 -0.54369703783E+00 -0.16046326435E+03  0.61208649303E+03  0.64501590065E+03  0.12508749866E+03 0.  0.
          5    1    3    3  502    0  0.45996226977E+02 -0.20401765581E+02  0.99356324978E+02  0.11144970457E+03  0.41800000000E+01 0. -1.
         -5    1    3    3    0  502 -0.46539924015E+02 -0.14006149877E+03  0.51273016805E+03  0.53356619608E+03  0.41800000000E+01 0. -1.
        -11    1    1    2    0    0 -0.42619920009E+02  0.74241119287E+02  0.12202292690E+03  0.14905635197E+03  0.00000000000E+00 0.  1.
         11    1    1    2    0    0  0.43163617047E+02  0.86222145059E+02  0.84949369239E+02  0.12850584216E+03  0.00000000000E+00 0. -1.
</event>
<event>
 7    1  0.2728221E-009  0.7138852E+02  0.7561462E-02  0.1355434E+00
         -1   -1    0    0    0  501 -0.00000000000E+00  0.00000000000E+00  0.21878468356E+03  0.21878468356E+03  0.00000000000E+00 0.  1.
          1   -1    0    0  501    0  0.00000000000E+00 -0.00000000000E+00 -0.63812174898E+02  0.63812174898E+02  0.00000000000E+00 0. -1.
         25    2    1    2    0    0 -0.36652168014E+02 -0.97860603641E+01  0.10795328294E+03  0.16954896510E+03  0.12511511447E+03 0.  0.
          5    1    3    3  502    0 -0.78955645493E+01  0.14655441628E+02 -0.25533813977E+02  0.30766377185E+02  0.41800000000E+01 0. -1.
         -5    1    3    3    0  502 -0.28756603464E+02 -0.24441501992E+02  0.13348709692E+03  0.13878258791E+03  0.41800000000E+01 0. -1.
        -11    1    1    2    0    0 -0.70634462948E+01 -0.28603717768E+02  0.46281587959E+02  0.54863925559E+02  0.00000000000E+00 0.  1.
         11    1    1    2    0    0  0.43715614308E+02  0.38389778132E+02  0.73763775384E+00  0.58183967799E+02  0.00000000000E+00 0. -1.
</event>
<event>
 7    1  0.2728221E-009  0.6827255E+02  0.7561462E-02  0.1366068E+00
          2   -1    0    0  501    0  0.00000000000E+00  0.00000000000E+00  0.26830544196E+03  0.26830544196E+03  0.00000000000E+00 0. -1.
         -2   -1    0    0    0  501 -0.00000000000E+00 -0.00000000000E+00 -0.52367244465E+02  0.52367244465E+02  0.00000000000E+00 0.  1.
         25    2    1    2    0    0  0.52137173875E+00 -0.28131285982E+02  0.68700577545E+02  0.14548472621E+03  0.12511752526E+03 0.  0.
          5    1    3    3  502    0 -0.16313940428E+01 -0.43497399193E+02 -0.25031039764E+02  0.50385618333E+02  0.41800000000E+01 0.  1.
         -5    1    3    3    0  502  0.21527657816E+01  0.15366113211E+02  0.93731617309E+02  0.95099107878E+02  0.41800000000E+01 0.  1.
        -11    1    1    2    0    0 -0.29225822889E+02  0.36583850063E+02  0.33484741940E+02  0.57565221721E+02  0.00000000000E+00 0.  1.
         11    1    1    2    0    0  0.28704451150E+02 -0.84525640807E+01  0.11375287801E+03  0.11762273850E+03  0.00000000000E+00 0. -1.
</event>
<event>
 7    1  0.2728221E-009  0.8115059E+02  0.7561462E-02  0.1325818E+00
         -1   -1    0    0    0  501 -0.00000000000E+00  0.00000000000E+00  0.14592556209E+03  0.14592556209E+03  0.00000000000E+00 0.  1.
          1   -1    0    0  501    0  0.00000000000E+00 -0.00000000000E+00 -0.10110025554E+03  0.10110025554E+03  0.00000000000E+00 0. -1.
         25    2    1    2    0    0  0.38541965369E+02 -0.13463339477E+02  0.60256953795E+02  0.14471625334E+03  0.12508056961E+03 0.  0.
          5    1    3    3  502    0  0.28666133040E+02  0.37343026171E+02  0.76835907354E+02  0.90207969969E+02  0.41800000000E+01 0. -1.
         -5    1    3    3    0  502  0.98758323296E+01 -0.50806365648E+02 -0.16578953559E+02  0.54508283367E+02  0.41800000000E+01 0. -1.
        -11    1    1    2    0    0  0.73992473333E+01  0.15448446773E+02 -0.44653453656E+02  0.47826083805E+02  0.00000000000E+00 0. -1.
         11    1    1    2    0    0 -0.45941212703E+02 -0.19851072960E+01  0.29221806408E+02  0.54483480481E+02  0.00000000000E+00 0.  1.
</event>
<event>
 7    1  0.2728221E-009  0.1096033E+03  0.7561462E-02  0.1261306E+00
          3   -1    0    0  501    0  0.00000000000E+00  0.00000000000E+00  0.58433449345E+03  0.58433449345E+03  0.00000000000E+00 0. -1.
         -3   -1    0    0    0  501 -0.00000000000E+00 -0.00000000000E+00 -0.23498831926E+02  0.23498831926E+02  0.00000000000E+00 0.  1.
         25    2    1    2    0    0  0.35722423666E+02 -0.20690712909E+02  0.26800853774E+03  0.29863123646E+03  0.12509133438E+03 0.  0.
          5    1    3    3  502    0 -0.30955295722E+02  0.24553985060E+02  0.38389779851E+02  0.55248313210E+02  0.41800000000E+01 0.  1.
         -5    1    3    3    0  502  0.66677719388E+02 -0.45244697969E+02  0.22961875788E+03  0.24338292325E+03  0.41800000000E+01 0.  1.
        -11    1    1    2    0    0 -0.42342758831E+02  0.51844253941E+02  0.18338544909E+03  0.19522028283E+03  0.00000000000E+00 0.  1.
         11    1    1    2    0    0  0.66203351654E+01 -0.31153541032E+02  0.10944167470E+03  0.11398180608E+03  0.00000000000E+00 0. -1.
</event>
<event>
 7    1  0.2728221E-009  0.1228835E+03  0.7561462E-02  0.1238415E+00
          4   -1    0    0  501    0  0.00000000000E+00  0.00000000000E+00  0.74933967148E+02  0.74933967148E+02  0.00000000000E+00 0. -1.
         -4   -1    0    0    0  501 -0.00000000000E+00 -0.00000000000E+00 -0.27298348190E+03  0.27298348190E+03  0.00000000000E+00 0.  1.
         25    2    1    2    0    0 -0.75290346474E+02 -0.15477742612E+02 -0.43197436337E+02  0.15303996325E+03  0.12508802924E+03 0.  0.
          5    1    3    3  502    0  0.38271987807E+01 -0.46933029619E+02 -0.48375795734E+02  0.67639091749E+02  0.41800000000E+01 0. -1.
         -5    1    3    3    0  502 -0.79117545254E+02  0.31455287007E+02  0.51783593966E+01  0.85400871505E+02  0.41800000000E+01 0. -1.
        -11    1    1    2    0    0  0.45943132919E+02  0.50024138636E+02 -0.11926064479E+03  0.13724535440E+03  0.00000000000E+00 0.  1.
         11    1    1    2    0    0  0.29347213554E+02 -0.34546396023E+02 -0.35591433623E+02  0.57632131393E+02  0.00000000000E+00 0. -1.
</event>
<event>
 7    1  0.2728221E-009  0.1406613E+03  0.7561462E-02  0.1212442E+00
          2   -1    0    0  501    0  0.00000000000E+00  0.00000000000E+00  0.17439503035E+03  0.17439503035E+03  0.00000000000E+00 0. -1.
         -2   -1    0    0    0  501 -0.00000000000E+00 -0.00000000000E+00 -0.22058281530E+03  0.22058281530E+03  0.00000000000E+00 0.  1.
         25    2    1    2    0    0  0.12064758135E+03  0.38136766410E+02 -0.12765470875E+03  0.21898218488E+03  0.12508885157E+03 0.  0.
          5    1    3    3  502    0  0.67176248367E+02  0.64965736294E+02 -0.19862280095E+02  0.95630423023E+02  0.41800000000E+01 0. -1.
         -5    1    3    3    0  502  0.53471332988E+02 -0.26828969884E+02 -0.10779242866E+03  0.12335176185E+03  0.41800000000E+01 0. -1.
        -11    1    1    2    0    0 -0.63239597378E+02 -0.10544775727E+02 -0.96380680116E+01  0.64833103633E+02  0.00000000000E+00 0.  1.
         11    1    1    2    0    0 -0.57407983977E+02 -0.27591990684E+02  0.91104991816E+02  0.11116255713E+03  0.00000000000E+00 0. -1.
</event>
<event>
 7    1  0.2728221E-009  0.7048322E+02  0.7561462E-02  0.1358458E+00
          2   -1    0    0  501    0  0.00000000000E+00  0.00000000000E+00  0.28860526360E+02  0.28860526360E+02  0.00000000000E+00 0. -1.
         -2   -1    0    0    0  501 -0.00000000000E+00 -0.00000000000E+00 -0.68759442722E+03  0.68759442722E+03  0.00000000000E+00 0.  1.
         25    2    1    2    0    0  0.25063556746E+02  0.44667458481E+02 -0.54483997869E+03  0.56135466753E+03  0.12508036081E+03 0.  0.
          5    1    3    3  502    0  0.66682272899E+01  0.46286602967E+02 -0.53969642435E+03  0.54173482233E+03  0.41800000000E+01 0.  1.
         -5    1    3    3    0  502  0.18395329456E+02 -0.16191444861E+01 -0.51435543408E+01  0.19619845206E+02  0.41800000000E+01 0.  1.
        -11    1    1    2    0    0  0.16429467848E+02 -0.23019611579E+02 -0.10331900451E+03  0.10711977700E+03  0.00000000000E+00 0.  1.
         11    1    1    2    0    0 -0.41493024594E+02 -0.21647846901E+02 -0.10574917667E+02  0.47980509054E+02  0.00000000000E+00 0. -1.
</event>
<event>
 7    1  0.3082117E-009  0.1726234E+03  0.7561462E-02  0.1175139E+00
         -2   -1    0    0    0  501 -0.00000000000E+00  0.00000000000E+00  0.74140488375E+02  0.74140488375E+02  0.00000000000E+00 0.  1.
          2   -1    0    0  501    0  0.00000000000E+00 -0.00000000000E+00 -0.48264909701E+03  0.48264909701E+03  0.00000000000E+00 0. -1.
         25    2    1    2    0    0  0.68616979851E+02  0.13426567124E+03 -0.16568577507E+03  0.25658120907E+03  0.12508629177E+03 0.  0.
          5    1    3    3  502    0 -0.34501069614E+02  0.51541475350E+02 -0.68145256675E+02  0.92239340268E+02  0.41800000000E+01 0. -1.
         -5    1    3    3    0  502  0.10311804947E+03  0.82724195893E+02 -0.97540518399E+02  0.16434186880E+03  0.41800000000E+01 0. -1.
        -11    1    1    2    0    0 -0.49347643955E+02 -0.93304407054E+02 -0.23015187603E+03  0.25320108289E+03  0.00000000000E+00 0. -1.
         11    1    1    2    0    0 -0.19269335896E+02 -0.40961264189E+02 -0.12670957531E+02  0.47007293419E+02  0.00000000000E+00 0.  1.
</event>
<event>
 7    1  0.2728221E-009  0.7908508E+02  0.7561462E-02  0.1331668E+00
         -1   -1    0    0    0  501 -0.00000000000E+00  0.00000000000E+00  0.26226617881E+03  0.26226617881E+03  0.00000000000E+00 0.  1.
          1   -1    0    0  501    0  0.00000000000E+00 -0.00000000000E+00 -0.60572908776E+02  0.60572908776E+02  0.00000000000E+00 0. -1.
         25    2    1    2    0    0 -0.22933929499E+01  0.31249202361E+02  0.18473654401E+03  0.22529152139E+03  0.12508759577E+03 0.  0.
          5    1    3    3  502    0 -0.39012638867E+01 -0.15001194764E+02  0.17754766150E+03  0.17827198380E+03  0.41800000000E+01 0. -1.
         -5    1    3    3    0  502  0.16078709368E+01  0.46250397125E+02  0.71888825139E+01  0.47019537588E+02  0.41800000000E+01 0. -1.
        -11    1    1    2    0    0 -0.15354407445E+02  0.29029762900E+02  0.15526133738E+01  0.32876976295E+02  0.00000000000E+00 0.  1.
         11    1    1    2    0    0  0.17647800395E+02 -0.60278965261E+02  0.15404112645E+02  0.64670589901E+02  0.00000000000E+00 0. -1.
</event>
<event>
 7    1  0.2728221E-009  0.1445218E+03  0.7561462E-02  0.1207371E+00
         -2   -1    0    0    0  501 -0.00000000000E+00  0.00000000000E+00  0.21803766081E+02  0.21803766081E+02  0.00000000000E+00 0.  1.
          2   -1    0    0  501    0  0.00000000000E+00 -0.00000000000E+00 -0.16872403358E+04  0.16872403358E+04  0.00000000000E+00 0. -1.
         25    2    1    2    0    0 -0.46737792872E+02 -0.95442069894E+02 -0.13932392310E+04  0.14028742499E+04  0.12508795392E+03 0.  0.
          5    1    3    3  502    0 -0.80051160909E+02 -0.59706687404E+02 -0.61296677356E+03  0.62106264964E+03  0.41800000000E+01 0. -1.
         -5    1    3    3    0  502  0.33313368037E+02 -0.35735382489E+02 -0.78027245744E+03  0.78181160025E+03  0.41800000000E+01 0. -1.
        -11    1    1    2    0    0  0.64441181582E+02  0.10243826164E+03 -0.23076641789E+03  0.26057513879E+03  0.00000000000E+00 0.  1.
         11    1    1    2    0    0 -0.17703388710E+02 -0.69961917425E+01 -0.41430920791E+02  0.45594713162E+02  0.00000000000E+00 0. -1.
</event>
<event>
 7    1  0.2728221E-009  0.2126247E+03  0.7561462E-02  0.1139504E+00
         -2   -1    0    0    0  501 -0.00000000000E+00  0.00000000000E+00  0.36934424103E+02  0.36934424103E+02  0.00000000000E+00 0. -1.
          2   -1    0    0  501    0  0.00000000000E+00 -0.00000000000E+00 -0.16084171959E+04  0.16084171959E+04  0.00000000000E+00 0.  1.
         25    2    1    2    0    0  0.19903133492E+03 -0.25337912262E+02 -0.11016141440E+04  0.11266986257E+04  0.12506233994E+03 0.  0.
          5    1    3    3  502    0  0.41172365334E+02  0.28018798555E+02 -0.49771769439E+03  0.50022054381E+03  0.41800000000E+01 0.  1.
         -5    1    3    3    0  502  0.15785896959E+03 -0.53356710817E+02 -0.60389644958E+03  0.62647808189E+03  0.41800000000E+01 0.  1.
        -11    1    1    2    0    0 -0.17555680472E+03  0.41111006011E+02 -0.44793679835E+03  0.48286404072E+03  0.00000000000E+00 0. -1.
         11    1    1    2    0    0 -0.23474530197E+02 -0.15773093749E+02 -0.21931829449E+02  0.35788953566E+02  0.00000000000E+00 0.  1.
</event>
<event>
 7    1  0.2728221E-009  0.1451987E+03  0.7561462E-02  0.1206500E+00
         -1   -1    0    0    0  501 -0.00000000000E+00  0.00000000000E+00  0.15642131236E+03  0.15642131236E+03  0.00000000000E+00 0.  1.
          1   -1    0    0  501    0  0.00000000000E+00 -0.00000000000E+00 -0.14157127577E+03  0.14157127577E+03  0.00000000000E+00 0. -1.
         25    2    1    2    0    0  0.87889430641E+02  0.45882420291E+02 -0.18802328086E+02  0.16072003436E+03  0.12509058076E+03 0.  0.
          5    1    3    3  502    0  0.33398266008E+02 -0.42847789395E+02 -0.14671193665E+02  0.56427772878E+02  0.41800000000E+01 0.  1.
         -5    1    3    3    0  502  0.54491164633E+02  0.88730209686E+02 -0.41311344208E+01  0.10429226148E+03  0.41800000000E+01 0.  1.
        -11    1    1    2    0    0  0.12762777257E+02 -0.26197113780E+02 -0.59411834732E+00  0.29146701877E+02  0.00000000000E+00 0. -1.
         11    1    1    2    0    0 -0.10065220790E+03 -0.19685306512E+02  0.34246483021E+02  0.10812585189E+03  0.00000000000E+00 0.  1.
</event>
<event>
 7    1  0.2728221E-009  0.1362131E+03  0.7561462E-02  0.1218517E+00
         -2   -1    0    0    0  501 -0.00000000000E+00  0.00000000000E+00  0.17883950513E+03  0.17883950513E+03  0.00000000000E+00 0. -1.
          2   -1    0    0  501    0  0.00000000000E+00 -0.00000000000E+00 -0.15673509951E+03  0.15673509951E+03  0.00000000000E+00 0.  1.
         25    2    1    2    0    0  0.82042865789E+02  0.16749677956E+01 -0.82822306268E+02  0.17099182855E+03  0.12507930953E+03 0.  0.
          5    1    3    3  502    0  0.30332171288E+02 -0.60651579523E+02 -0.45146381909E+02  0.81574033326E+02  0.41800000000E+01 0. -1.
         -5    1    3    3    0  502  0.51710694501E+02  0.62326547318E+02 -0.37675924359E+02  0.89417795224E+02  0.41800000000E+01 0. -1.
        -11    1    1    2    0    0 -0.55588439196E+02 -0.45744988162E+02  0.42056503296E+02  0.83375224040E+02  0.00000000000E+00 0.  1.
         11    1    1    2    0    0 -0.26454426592E+02  0.44070020367E+02  0.62870208590E+02  0.81207552048E+02  0.00000000000E+00 0. -1.
</event>
<event>
 7    1  0.2728221E-009  0.1244797E+03  0.7561462E-02  0.1235885E+00
         -1   -1    0    0    0  501 -0.00000000000E+00  0.00000000000E+00  0.44483566309E+02  0.44483566309E+02  0.00000000000E+00 0.  1.
          1   -1    0    0  501    0  0.00000000000E+00 -0.00000000000E+00 -0.47321297534E+03  0.47321297534E+03  0.00000000000E+00 0. -1.
         25    2    1    2    0    0 -0.15621656211E+02  0.94357535338E+02 -0.22418336238E+03  0.27395816527E+03  0.12509003052E+03 0.  0.
          5    1    3    3  502    0  0.41151290167E+01 -0.26448748733E+02 -0.13520041293E+02  0.30277623965E+02  0.41800000000E+01 0.  1.
         -5    1    3    3    0  502 -0.19736785228E+02  0.12080628407E+03 -0.21066332108E+03  0.24368054131E+03  0.41800000000E+01 0.  1.
        -11    1    1    2    0    0  0.11246589631E+02 -0.10402579941E+02  0.64412893376E+01  0.16618954723E+02  0.00000000000E+00 0.  1.
         11    1    1    2    0    0  0.43750665802E+01 -0.83954955397E+02 -0.21098733599E+03  0.22711942165E+03  0.00000000000E+00 0. -1.
</event>
<event>
 7    1  0.2728221E-009  0.9437748E+02  0.7561462E-02  0.1292584E+00
         -2   -1    0    0    0  501 -0.00000000000E+00  0.00000000000E+00  0.39158542490E+02  0.39158542490E+02  0.00000000000E+00 0.  1.
          2   -1    0    0  501    0  0.00000000000E+00 -0.00000000000E+00 -0.33050143042E+03  0.33050143042E+03  0.00000000000E+00 0. -1.
         25    2    1    2    0    0 -0.71830695178E+01 -0.15640405232E+02 -0.19965584508E+03  0.23623238089E+03  0.12508821905E+03 0.  0.
          5    1    3    3  502    0 -0.50782249055E+02  0.33033455215E+02 -0.92351324140E+02  0.11052730637E+03  0.41800000000E+01 0.  1.
         -5    1    3    3    0  502  0.43599179537E+02 -0.48673860447E+02 -0.10730452094E+03  0.12570507452E+03  0.41800000000E+01 0.  1.
        -11    1    1    2    0    0  0.19605623902E+02 -0.18046295558E+02  0.77140204714E+01  0.27740861266E+02  0.00000000000E+00 0.  1.
         11    1    1    2    0    0 -0.12422554384E+02  0.33686700790E+02 -0.99401063328E+02  0.10568673076E+03  0.00000000000E+00 0. -1.
</event>
<event>
 7    1  0.2728221E-009  0.1173153E+03  0.7561462E-02  0.1247593E+00
         -2   -1    0    0    0  501 -0.00000000000E+00  0.00000000000E+00  0.19562089561E+02  0.19562089561E+02  0.00000000000E+00 0. -1.
          2   -1    0    0  501    0  0.00000000000E+00 -0.00000000000E+00 -0.71283705159E+03  0.71283705159E+03  0.00000000000E+00 0.  1.
         25    2    1    2    0    0 -0.46185410090E+02  0.20535966973E+02 -0.37928190733E+03  0.40256384487E+03  0.12509222965E+03 0.  0.
          5    1    3    3  502    0 -0.86899945346E+02 -0.38894674344E+01 -0.23538677052E+03  0.25098034305E+03  0.41800000000E+01 0.  1.
         -5    1    3    3    0  502  0.40714535255E+02  0.24425434407E+02 -0.14389513681E+03  0.15158350182E+03  0.41800000000E+01 0.  1.
        -11    1    1    2    0    0 -0.23104036008E+02 -0.20047720626E+02 -0.12004909768E+03  0.12388500086E+03  0.00000000000E+00 0.  1.
         11    1    1    2    0    0  0.69289446099E+02 -0.48824634685E+00 -0.19394395701E+03  0.20595029543E+03  0.00000000000E+00 0. -1.
</event>
<event>
 7    1  0.2728221E-009  0.1052845E+03  0.7561462E-02  0.1269560E+00
          1   -1    0    0  501    0  0.00000000000E+00  0.00000000000E+00  0.57366465434E+03  0.57366465434E+03  0.00000000000E+00 0. -1.
         -1   -1    0    0    0  501 -0.00000000000E+00 -0.00000000000E+00 -0.24072999957E+02  0.24072999957E+02  0.00000000000E+00 0.  1.
         25    2    1    2    0    0  0.46588173106E+02 -0.29315917127E+00  0.24905018143E+03  0.28256737020E+03  0.12509109486E+03 0.  0.
          5    1    3    3  502    0  0.80222219299E+02 -0.12191196767E+02  0.22530492814E+03  0.23950785539E+03  0.41800000000E+01 0. -1.
         -5    1    3    3    0  502 -0.33634046193E+02  0.11898037596E+02  0.23745253295E+02  0.43059514814E+02  0.41800000000E+01 0. -1.
        -11    1    1    2    0    0  0.25735315549E+00 -0.34840263648E+02  0.86222952171E+02  0.92996277790E+02  0.00000000000E+00 0.  1.
         11    1    1    2    0    0 -0.46845526262E+02  0.35133422819E+02  0.21431852078E+03  0.22217400631E+03  0.00000000000E+00 0. -1.
</event>
<event>
 7    1  0.2728221E-009  0.8480904E+02  0.7561462E-02  0.1315933E+00
         -2   -1    0    0    0  501 -0.00000000000E+00  0.00000000000E+00  0.82719083916E+01  0.82719083916E+01  0.00000000000E+00 0.  1.
          2   -1    0    0  501    0  0.00000000000E+00 -0.00000000000E+00 -0.19901881291E+04  0.19901881291E+04  0.00000000000E+00 0. -1.
         25    2    1    2    0    0 -0.24845287059E+01 -0.75800198115E+01 -0.16384976982E+04  0.16432851454E+04  0.12509089644E+03 0.  0.
          5    1    3    3  502    0 -0.52703184241E+01 -0.42936731839E+02 -0.14870114563E+04  0.14876464240E+04  0.41800000000E+01 0.  1.
         -5    1    3    3    0  502  0.27857897183E+01  0.35356712027E+02 -0.15148624193E+03  0.15563872141E+03  0.41800000000E+01 0.  1.
        -11    1    1    2    0    0  0.26193094961E+02  0.41492092339E+02 -0.19737680162E+03  0.20338454653E+03  0.00000000000E+00 0. -1.
         11    1    1    2    0    0 -0.23708566255E+02 -0.33912072528E+02 -0.14604172088E+03  0.15179034559E+03  0.00000000000E+00 0.  1.
</event>
<event>
 7    1  0.2728221E-009  0.1594066E+03  0.7561462E-02  0.1189368E+00
         -1   -1    0    0    0  501 -0.00000000000E+00  0.00000000000E+00  0.37891346451E+02  0.37891346451E+02  0.00000000000E+00 0.  1.
          1   -1    0    0  501    0  0.00000000000E+00 -0.00000000000E+00 -0.99717921416E+03  0.99717921416E+03  0.00000000000E+00 0. -1.
         25    2    1    2    0    0 -0.27292466592E+02  0.14260950246E+03 -0.68499533884E+03  0.71130044927E+03  0.12508943189E+03 0.  0.
          5    1    3    3  502    0 -0.26559839201E+01 -0.13840609186E+02 -0.95662622244E+01  0.17538599892E+02  0.41800000000E+01 0. -1.
         -5    1    3    3    0  502 -0.24636482672E+02  0.15645011165E+03 -0.67542907662E+03  0.69376184938E+03  0.41800000000E+01 0. -1.
        -11    1    1    2    0    0  0.20256819997E+02 -0.74388340396E+02 -0.22887692858E+03  0.24151317227E+03  0.00000000000E+00 0. -1.
         11    1    1    2    0    0  0.70356465947E+01 -0.68221162064E+02 -0.45415600293E+02  0.82256939077E+02  0.00000000000E+00 0.  1.
</event>
<event>
 7    1  0.2728221E-009  0.1049592E+03  0.7561462E-02  0.1270200E+00
         -1   -1    0    0    0  501 -0.00000000000E+00  0.00000000000E+00  0.29409699667E+03  0.29409699667E+03  0.00000000000E+00 0.  1.
          1   -1    0    0  501    0  0.00000000000E+00 -0.00000000000E+00 -0.57813517904E+02  0.57813517904E+02  0.00000000000E+00 0. -1.
         25    2    1    2    0    0  0.36253920409E+01  0.70424853705E+02  0.11351208551E+03  0.18304540386E+03  0.12509125800E+03 0.  0.
          5    1    3    3  502    0 -0.40599441018E+02  0.72200596126E+02  0.29559695355E+02  0.88048217935E+02  0.41800000000E+01 0. -1.
         -5    1    3    3    0  502  0.44224833059E+02 -0.17757424215E+01  0.83952390154E+02  0.94997185921E+02  0.41800000000E+01 0. -1.
        -11    1    1    2    0    0  0.19666228809E+02 -0.30112392214E+02  0.11645367639E+03  0.12188098894E+03  0.00000000000E+00 0.  1.
         11    1    1    2    0    0 -0.23291620850E+02 -0.40312461491E+02  0.63177168711E+01  0.46984121783E+02  0.00000000000E+00 0. -1.
</event>
<event>
 7    1  0.2728221E-009  0.9166015E+02  0.7561462E-02  0.1298880E+00
         -2   -1    0    0    0  501 -0.00000000000E+00  0.00000000000E+00  0.10753122149E+03  0.10753122149E+03  0.00000000000E+00 0.  1.
          2   -1    0    0  501    0  0.00000000000E+00 -0.00000000000E+00 -0.10641599615E+03  0.10641599615E+03  0.00000000000E+00 0. -1.
         25    2    1    2    0    0 -0.37914658127E+02 -0.10476309402E+02 -0.32428627824E+02  0.13507939185E+03  0.12509017483E+03 0.  0.
          5    1    3    3  502    0  0.31030889753E+02 -0.27996934525E+02  0.20087572564E+02  0.46558859878E+02  0.41800000000E+01 0.  1.
         -5    1    3    3    0  502 -0.68945547880E+02  0.17520625123E+02 -0.52516200388E+02  0.88520531971E+02  0.41800000000E+01 0.  1.
        -11    1    1    2    0    0  0.29155236773E+02  0.34098868422E+02  0.28566660184E+02  0.53186602946E+02  0.00000000000E+00 0.  1.
         11    1    1    2    0    0  0.87594213548E+01 -0.23622559020E+02  0.49771929816E+01  0.25681222851E+02  0.00000000000E+00 0. -1.
</event>
<event>
 7    1  0.2728221E-009  0.1910025E+03  0.7561462E-02  0.1157560E+00
          2   -1    0    0  501    0  0.00000000000E+00  0.00000000000E+00  0.20075214934E+03  0.20075214934E+03  0.00000000000E+00 0. -1.
         -2   -1    0    0    0  501 -0.00000000000E+00 -0.00000000000E+00 -0.27081393353E+03  0.27081393353E+03  0.00000000000E+00 0.  1.
         25    2    1    2    0    0 -0.16524643230E+03 -0.75127786010E+02  0.63643205676E+02  0.22945482499E+03  0.12509393056E+03 0.  0.
          5    1    3    3  502    0 -0.77761315030E+01 -0.70034853696E+01 -0.31336208169E+02  0.33300861414E+02  0.41800000000E+01 0. -1.
         -5    1    3    3    0  502 -0.15747030080E+03 -0.68124300640E+02  0.94979413845E+02  0.19615396358E+03  0.41800000000E+01 0. -1.
        -11    1    1    2    0    0  0.28226307427E+02  0.53368893195E+02 -0.59545485181E+02  0.84797570704E+02  0.00000000000E+00 0.  1.
         11    1    1    2    0    0  0.13702012488E+03  0.21758892815E+02 -0.74159504690E+02  0.15731368718E+03  0.00000000000E+00 0. -1.
</event>
<event>
 7    1  0.2728221E-009  0.2762409E+03  0.7561462E-02  0.1097760E+00
          2   -1    0    0  501    0  0.00000000000E+00  0.00000000000E+00  0.16953515091E+04  0.16953515091E+04  0.00000000000E+00 0. -1.
         -2   -1    0    0    0  501 -0.00000000000E+00 -0.00000000000E+00 -0.53291735875E+02  0.53291735875E+02  0.00000000000E+00 0.  1.
         25    2    1    2    0    0  0.19638508542E+03  0.18927324812E+03  0.64297411730E+03  0.70954531764E+03  0.12508948011E+03 0.  0.
          5    1    3    3  502    0  0.21455849039E+02  0.45017635878E+02  0.25745055375E+03  0.26226932917E+03  0.41800000000E+01 0.  1.
         -5    1    3    3    0  502  0.17492923639E+03  0.14425561225E+03  0.38552356355E+03  0.44727598847E+03  0.41800000000E+01 0.  1.
        -11    1    1    2    0    0 -0.12884422335E+03 -0.14917650873E+03  0.57630602158E+03  0.60908381620E+03  0.00000000000E+00 0.  1.
         11    1    1    2    0    0 -0.67540862072E+02 -0.40096739398E+02  0.42277963437E+03  0.43001411117E+03  0.00000000000E+00 0. -1.
</event>
<event>
 7    1  0.2728221E-009  0.7801336E+02  0.7561462E-02  0.1334786E+00
          2   -1    0    0  501    0  0.00000000000E+00  0.00000000000E+00  0.55335278684E+02  0.55335278684E+02  0.00000000000E+00 0.  1.
         -2   -1    0    0    0  501 -0.00000000000E+00 -0.00000000000E+00 -0.21307242118E+03  0.21307242118E+03  0.00000000000E+00 0. -1.
         25    2    1    2    0    0  0.12294920256E+02  0.39204346943E+01 -0.10234848751E+03  0.16213832567E+03  0.12508832433E+03 0.  0.
          5    1    3    3  502    0  0.64087220880E+02  0.25280994626E+02 -0.48827361855E+02  0.84545160921E+02  0.41800000000E+01 0.  1.
         -5    1    3    3    0  502 -0.51792300624E+02 -0.21360559932E+02 -0.53521125658E+02  0.77593164752E+02  0.41800000000E+01 0.  1.
        -11    1    1    2    0    0 -0.36925632887E+00 -0.14727866267E+02  0.22412503108E+02  0.26821012110E+02  0.00000000000E+00 0.  1.
         11    1    1    2    0    0 -0.11925663927E+02  0.10807431573E+02 -0.77801158089E+02  0.79448362080E+02  0.00000000000E+00 0. -1.
</event>
<event>
 7    1  0.2728221E-009  0.2056416E+03  0.7561462E-02  0.1145065E+00
         -1   -1    0    0    0  501 -0.00000000000E+00  0.00000000000E+00  0.32153756587E+03  0.32153756587E+03  0.00000000000E+00 0.  1.
          1   -1    0    0  501    0  0.00000000000E+00 -0.00000000000E+00 -0.35188421049E+03  0.35188421049E+03  0.00000000000E+00 0. -1.
         25    2    1    2    0    0  0.94831613811E+02 -0.15971679847E+03  0.24248338117E+03  0.33007143762E+03  0.12508586288E+03 0.  0.
          5    1    3    3  502    0 -0.30575188607E+02 -0.39406963401E+02  0.51279763063E+02  0.71657779918E+02  0.41800000000E+01 0. -1.
         -5    1    3    3    0  502  0.12540680242E+03 -0.12030983507E+03  0.19120361811E+03  0.25841365770E+03  0.41800000000E+01 0. -1.
        -11    1    1    2    0    0 -0.37273803591E+02  0.40685335762E+02 -0.21222987668E+02  0.59118932549E+02  0.00000000000E+00 0.  1.
         11    1    1    2    0    0 -0.57557810221E+02  0.11903146271E+03 -0.25160703812E+03  0.28423140619E+03  0.00000000000E+00 0. -1.
</event>
<event>
 7    1  0.2728221E-009  0.5744592E+02  0.7561462E-02  0.1408874E+00
          2   -1    0    0  501    0  0.00000000000E+00  0.00000000000E+00  0.58463080299E+03  0.58463080299E+03  0.00000000000E+00 0. -1.
         -2   -1    0    0    0  501 -0.00000000000E+00 -0.00000000000E+00 -0.25305350788E+02  0.25305350788E+02  0.00000000000E+00 0.  1.
         25    2    1    2    0    0 -0.67103579890E+01 -0.32988364146E+02  0.43029208908E+03  0.44936629581E+03  0.12508207232E+03 0.  0.
          5    1    3    3  502    0 -0.44457555307E+01 -0.36945114573E+02  0.43793566689E+03  0.43953364714E+03  0.41800000000E+01 0. -1.
         -5    1    3    3    0  502 -0.22646024583E+01  0.39567504273E+01 -0.76435778101E+01  0.98326486756E+01  0.41800000000E+01 0. -1.
        -11    1    1    2    0    0  0.34905714774E+02  0.19845633026E+02  0.15814345515E+02  0.43154971882E+02  0.00000000000E+00 0.  1.
         11    1    1    2    0    0 -0.28195356785E+02  0.13142731120E+02  0.11321901762E+03  0.11741488609E+03  0.00000000000E+00 0. -1.
</event>
<event>
 7    1  0.2728221E-009  0.1316176E+03  0.7561462E-02  0.1225075E+00
          2   -1    0    0  501    0  0.00000000000E+00  0.00000000000E+00  0.34582368223E+03  0.34582368223E+03  0.00000000000E+00 0. -1.
         -2   -1    0    0    0  501 -0.00000000000E+00 -0.00000000000E+00 -0.70977569911E+02  0.70977569911E+02  0.00000000000E+00 0.  1.
         25    2    1    2    0    0 -0.18156482323E+02  0.10311800935E+03  0.21646883270E+03  0.27105189782E+03  0.12508954423E+03 0.  0.
          5    1    3    3  502    0 -0.66930314504E+02  0.77683442945E+02  0.10580034640E+03  0.14739596333E+03  0.41800000000E+01 0.  1.
         -5    1    3    3    0  502  0.48773832182E+02  0.25434566408E+02  0.11066848631E+03  0.12365593449E+03  0.41800000000E+01 0.  1.
        -11    1    1    2    0    0 -0.19175063265E+01 -0.10826945809E+02  0.49700981537E+02  0.50902722440E+02  0.00000000000E+00 0. -1.
         11    1    1    2    0    0  0.20073988649E+02 -0.92291063544E+02  0.86762980767E+01  0.94846631879E+02  0.00000000000E+00 0.  1.
</event>
<event>
 7    1  0.3674732E-009  0.7491228E+02  0.7561462E-02  0.1344143E+00
         -1   -1    0    0    0  501 -0.00000000000E+00  0.00000000000E+00  0.24817205333E+02  0.24817205333E+02  0.00000000000E+00 0.  1.
          1   -1    0    0  501    0  0.00000000000E+00 -0.00000000000E+00 -0.66445457558E+03  0.66445457558E+03  0.00000000000E+00 0. -1.
         25    2    1    2    0    0 -0.83184067790E+01  0.25402064417E+02 -0.52428413046E+03  0.53966278789E+03  0.12509042495E+03 0.  0.
          5    1    3    3  502    0 -0.12634379548E+02 -0.17703529069E+02 -0.11351757365E+02  0.24887291603E+02  0.41800000000E+01 0.  1.
         -5    1    3    3    0  502  0.43159727695E+01  0.43105593486E+02 -0.51293237309E+03  0.51477549629E+03  0.41800000000E+01 0.  1.
        -11    1    1    2    0    0 -0.23166626298E+02 -0.42442934905E+02 -0.29629499470E+02  0.56709809877E+02  0.00000000000E+00 0.  1.
         11    1    1    2    0    0  0.31485033077E+02  0.17040870488E+02 -0.85723740322E+02  0.92899183148E+02  0.00000000000E+00 0. -1.
</event>
<event>
 7    1  0.2728221E-009  0.1321558E+03  0.7561462E-02  0.1224292E+00
          2   -1    0    0  501    0  0.00000000000E+00  0.00000000000E+00  0.44904295400E+03  0.44904295400E+03  0.00000000000E+00 0.  1.
         -2   -1    0    0    0  501 -0.00000000000E+00 -0.00000000000E+00 -0.89461603611E+02  0.89461603611E+02  0.00000000000E+00 0. -1.
         25    2    1    2    0    0 -0.85227612565E+02  0.30701851440E+02  0.37845229995E+03  0.40875597609E+03  0.12509578340E+03 0.  0.
          5    1    3    3  502    0 -0.76161959158E+02 -0.29398018313E+02  0.13521130544E+03  0.15800144627E+03  0.41800000000E+01 0.  1.
         -5    1    3    3    0  502 -0.90656534073E+01  0.60099869753E+02  0.24324099451E+03  0.25075452982E+03  0.41800000000E+01 0.  1.
        -11    1    1    2    0    0  0.10590082202E+02  0.25892537431E+02  0.12945303346E+02  0.30824571601E+02  0.00000000000E+00 0.  1.
         11    1    1    2    0    0  0.74637530363E+02 -0.56594388871E+02 -0.31816252904E+02  0.98924009923E+02  0.00000000000E+00 0. -1.
</event>
<event>
 7    1  0.2728221E-009  0.1210629E+03  0.7561462E-02  0.1241354E+00
         -1   -1    0    0    0  501 -0.00000000000E+00  0.00000000000E+00  0.29462273975E+02  0.29462273975E+02  0.00000000000E+00 0.  1.
          1   -1    0    0  501    0  0.00000000000E+00 -0.00000000000E+00 -0.60818591793E+03  0.60818591793E+03  0.00000000000E+00 0. -1.
         25    2    1    2    0    0 -0.54396439881E+02 -0.30865149655E+02 -0.43601360822E+03  0.45789491035E+03  0.12509297437E+03 0.  0.
          5    1    3    3  502    0 -0.87230370199E+02  0.10619630077E+01 -0.34551054636E+03  0.35637799497E+03  0.41800000000E+01 0. -1.
         -5    1    3    3    0  502  0.32833930318E+02 -0.31927112662E+02 -0.90503061863E+02  0.10151691539E+03  0.41800000000E+01 0. -1.
        -11    1    1    2    0    0  0.68920321453E+01 -0.30459413896E+02 -0.48953965135E+02  0.58066915747E+02  0.00000000000E+00 0.  1.
         11    1    1    2    0    0  0.47504407736E+02  0.61324563550E+02 -0.93756070598E+02  0.12168636581E+03  0.00000000000E+00 0. -1.
</event>
<event>
 7    1  0.2728221E-009  0.7351035E+02  0.7561462E-02  0.1348547E+00
         -2   -1    0    0    0  501 -0.00000000000E+00  0.00000000000E+00  0.30682385636E+02  0.30682385636E+02  0.00000000000E+00 0.  1.
          2   -1    0    0  501    0  0.00000000000E+00 -0.00000000000E+00 -0.55636292160E+03  0.55636292160E+03  0.00000000000E+00 0. -1.
         25    2    1    2    0    0  0.30795890120E+02  0.22537056769E+02 -0.42665099721E+03  0.44624589865E+03  0.12509205755E+03 0.  0.
          5    1    3    3  502    0 -0.44284789298E+01  0.23513120447E+02 -0.72520145898E+01  0.25348419564E+02  0.41800000000E+01 0.  1.
         -5    1    3    3    0  502  0.35224369049E+02 -0.97606367772E+00 -0.41939898262E+03  0.42089747909E+03  0.41800000000E+01 0.  1.
        -11    1    1    2    0    0 -0.55820944420E+02 -0.37353689391E+01 -0.26706165887E+02  0.61993145698E+02  0.00000000000E+00 0.  1.
         11    1    1    2    0    0  0.25025054301E+02 -0.18801687830E+02 -0.72323372862E+02  0.78806262887E+02  0.00000000000E+00 0. -1.
</event>
<event>
 7    1  0.2728221E-009  0.2241689E+03  0.7561462E-02  0.1130813E+00
         -2   -1    0    0    0  501 -0.00000000000E+00  0.00000000000E+00  0.16768140871E+04  0.16768140871E+04  0.00000000000E+00 0.  1.
          2   -1    0    0  501    0  0.00000000000E+00 -0.00000000000E+00 -0.36908253886E+02  0.36908253886E+02  0.00000000000E+00 0. -1.
         25    2    1    2    0    0 -0.21245959268E+03  0.16021972795E+02  0.10877613877E+04  0.11154673682E+04  0.12508729241E+03 0.  0.
          5    1    3    3  502    0 -0.52009451054E+02  0.30654969225E+02  0.12019742608E+03  0.13457192788E+03  0.41800000000E+01 0. -1.
         -5    1    3    3    0  502 -0.16045014163E+03 -0.14632996430E+02  0.96756396167E+03  0.98089544033E+03  0.41800000000E+01 0. -1.
        -11    1    1    2    0    0  0.11555801394E+03 -0.47246467278E+02  0.35612640166E+03  0.37737500873E+03  0.00000000000E+00 0.  1.
         11    1    1    2    0    0  0.96901578742E+02  0.31224494483E+02  0.19601804378E+03  0.22087996402E+03  0.00000000000E+00 0. -1.
</event>
<event>
 7    1  0.2728221E-009  0.1189217E+03  0.7561462E-02  0.1244887E+00
          2   -1    0    0  501    0  0.00000000000E+00  0.00000000000E+00  0.33351857321E+03  0.33351857321E+03  0.00000000000E+00 0. -1.
         -2   -1    0    0    0  501 -0.00000000000E+00 -0.00000000000E+00 -0.50869402315E+02  0.50869402315E+02  0.00000000000E+00 0.  1.
         25    2    1    2    0    0 -0.70499637670E+02 -0.93597380535E+01  0.14671836831E+03  0.20550309294E+03  0.12508971981E+03 0.  0.
          5    1    3    3  502    0 -0.10973007961E+02  0.53409809791E+02  0.38418465880E+02  0.66831621304E+02  0.41800000000E+01 0. -1.
         -5    1    3    3    0  502 -0.59526629709E+02 -0.62769547844E+02  0.10829990243E+03  0.13867147164E+03  0.41800000000E+01 0. -1.
        -11    1    1    2    0    0  0.83225221137E+02  0.99080032524E+01  0.63000670190E+02  0.10485080069E+03  0.00000000000E+00 0.  1.
         11    1    1    2    0    0 -0.12725583467E+02 -0.54826519891E+00  0.72930132395E+02  0.74034081884E+02  0.00000000000E+00 0. -1.
</event>
<event>
 7    1  0.2728221E-009  0.1237842E+03  0.7561462E-02  0.1236982E+00
         -1   -1    0    0    0  501 -0.00000000000E+00  0.00000000000E+00  0.20847784152E+03  0.20847784152E+03  0.00000000000E+00 0.  1.
          1   -1    0    0  501    0  0.00000000000E+00 -0.00000000000E+00 -0.10505106567E+03  0.10505106567E+03  0.00000000000E+00 0. -1.
         25    2    1    2    0    0  0.64730582065E+02  0.44574871128E+02 -0.95432983634E+01  0.14803799326E+03  0.12508879052E+03 0.  0.
          5    1    3    3  502    0  0.81297812304E+02  0.26863873950E+01 -0.42686265339E+02  0.91957276010E+02  0.41800000000E+01 0. -1.
         -5    1    3    3    0  502 -0.16567230239E+02  0.41888483733E+02  0.33142966975E+02  0.56080717249E+02  0.41800000000E+01 0. -1.
        -11    1    1    2    0    0 -0.18523692150E+02  0.28755549698E+02  0.29756696513E+02  0.45337289252E+02  0.00000000000E+00 0.  1.
         11    1    1    2    0    0 -0.46206889915E+02 -0.73330420826E+02  0.83213377708E+02  0.12015362468E+03  0.00000000000E+00 0. -1.
</event>
<event>
 7    1  0.2728221E-009  0.1638542E+03  0.7561462E-02  0.1184413E+00
          1   -1    0    0  501    0  0.00000000000E+00  0.00000000000E+00  0.46746118899E+03  0.46746118899E+03  0.00000000000E+00 0. -1.
         -1   -1    0    0    0  501 -0.00000000000E+00 -0.00000000000E+00 -0.14226133461E+03  0.14226133461E+03  0.00000000000E+00 0.  1.
         25    2    1    2    0    0  0.89033969932E+02 -0.13216165474E+03  0.36933155231E+03  0.42124568367E+03  0.12509348379E+03 0.  0.
          5    1    3    3  502    0  0.74766351879E+02 -0.10132283602E+03  0.36572762341E+03  0.38682100692E+03  0.41800000000E+01 0. -1.
         -5    1    3    3    0  502  0.14267618053E+02 -0.30838818725E+02  0.36039289021E+01  0.34424676742E+02  0.41800000000E+01 0. -1.
        -11    1    1    2    0    0 -0.81733647796E+02  0.78498828214E+02  0.76044678543E+01  0.11357941338E+03  0.00000000000E+00 0. -1.
         11    1    1    2    0    0 -0.73003221358E+01  0.53662826530E+02 -0.51736165779E+02  0.74897426551E+02  0.00000000000E+00 0.  1.
</event>
<event>
 7    1  0.2728221E-009  0.3377693E+03  0.7561462E-02  0.1067750E+00
          2   -1    0    0  501    0  0.00000000000E+00  0.00000000000E+00  0.15998015458E+04  0.15998015458E+04  0.00000000000E+00 0. -1.
         -2   -1    0    0    0  501 -0.00000000000E+00 -0.00000000000E+00 -0.72535315455E+02  0.72535315455E+02  0.00000000000E+00 0.  1.
         25    2    1    2    0    0  0.48886688080E+01  0.31985483004E+03  0.66807709285E+03  0.75120348270E+03  0.12509460038E+03 0.  0.
          5    1    3    3  502    0 -0.22282094706E+02  0.31466282860E+03  0.61618258101E+03  0.69224824520E+03  0.41800000000E+01 0.  1.
         -5    1    3    3    0  502  0.27170763514E+02  0.51920014391E+01  0.51894511844E+02  0.58955237497E+02  0.41800000000E+01 0.  1.
        -11    1    1    2    0    0 -0.46731624457E+02 -0.18953624471E+03  0.50357496827E+03  0.54008849409E+03  0.00000000000E+00 0.  1.
         11    1    1    2    0    0  0.41842955649E+02 -0.13031858533E+03  0.35561416919E+03  0.38104488443E+03  0.00000000000E+00 0. -1.
</event>
<event>
 7    1  0.2728221E-009  0.1090442E+03  0.7561462E-02  0.1262350E+00
          4   -1    0    0  501    0  0.00000000000E+00  0.00000000000E+00  0.42168702903E+02  0.42168702903E+02  0.00000000000E+00 0. -1.
         -4   -1    0    0    0  501 -0.00000000000E+00 -0.00000000000E+00 -0.40094397585E+03  0.40094397585E+03  0.00000000000E+00 0.  1.
         25    2    1    2    0    0 -0.48339588176E+02 -0.48697018933E+02 -0.16684626644E+03  0.21951698477E+03  0.12506763986E+03 0.  0.
          5    1    3    3  502    0 -0.48293740958E+02 -0.72142325231E+02 -0.50005240055E+02  0.10027361038E+03  0.41800000000E+01 0. -1.
         -5    1    3    3    0  502 -0.45847217851E-01  0.23445306298E+02 -0.11684102638E+03  0.11924337439E+03  0.41800000000E+01 0. -1.
        -11    1    1    2    0    0  0.82034308782E+01  0.63910860520E+02 -0.15148842075E+03  0.16462270801E+03  0.00000000000E+00 0.  1.
         11    1    1    2    0    0  0.40136157298E+02 -0.15213841587E+02 -0.40440585757E+02  0.58972985976E+02  0.00000000000E+00 0. -1.
</event>
<event>
 7    1  0.2728221E-009  0.8029580E+02  0.7561462E-02  0.1328214E+00
          2   -1    0    0  501    0  0.00000000000E+00  0.00000000000E+00  0.89581324413E+02  0.89581324413E+02  0.00000000000E+00 0. -1.
         -2   -1    0    0    0  501 -0.00000000000E+00 -0.00000000000E+00 -0.13668401797E+03  0.13668401797E+03  0.00000000000E+00 0.  1.
         25    2    1    2    0    0 -0.13220275470E+02  0.42774706625E+01 -0.45002822380E+02  0.13366556479E+03  0.12509259271E+03 0.  0.
          5    1    3    3  502    0 -0.49098311907E+02  0.27924518368E+02  0.16070057950E+02  0.58873951121E+02  0.41800000000E+01 0. -1.
         -5    1    3    3    0  502  0.35878036436E+02 -0.23647047705E+02 -0.61072880330E+02  0.74791613671E+02  0.41800000000E+01 0. -1.
        -11    1    1    2    0    0  0.26883458380E+02 -0.24501522527E+02  0.33491240078E+02  0.49443989549E+02  0.00000000000E+00 0. -1.
         11    1    1    2    0    0 -0.13663182910E+02  0.20224051864E+02 -0.35591111252E+02  0.43155788038E+02  0.00000000000E+00 0.  1.
</event>
<event>
 7    1  0.2728221E-009  0.1493000E+03  0.7561462E-02  0.1201336E+00
         -2   -1    0    0    0  501 -0.00000000000E+00  0.00000000000E+00  0.10775062161E+03  0.10775062161E+03  0.00000000000E+00 0.  1.
          2   -1    0    0  501    0  0.00000000000E+00 -0.00000000000E+00 -0.21376543638E+03  0.21376543638E+03  0.00000000000E+00 0. -1.
         25    2    1    2    0    0  0.11172158291E+02  0.10503079920E+03 -0.49938960856E+02  0.17116223707E+03  0.12508527366E+03 0.  0.
          5    1    3    3  502    0 -0.11108364606E+02  0.12967482127E+03 -0.40609367117E+02  0.13640215589E+03  0.41800000000E+01 0.  1.
         -5    1    3    3    0  502  0.22280522897E+02 -0.24644022066E+02 -0.93295937390E+01  0.34760081178E+02  0.41800000000E+01 0.  1.
        -11    1    1    2    0    0 -0.42082124358E+02 -0.92354617727E+02 -0.57992568356E+02  0.11689062662E+03  0.00000000000E+00 0.  1.
         11    1    1    2    0    0  0.30909966067E+02 -0.12676181474E+02  0.19167144436E+01  0.33463194308E+02  0.00000000000E+00 0. -1.
</event>
<event>
 7    1  0.2728221E-009  0.7486985E+02  0.7561462E-02  0.1344275E+00
         -1   -1    0    0    0  501 -0.00000000000E+00  0.00000000000E+00  0.46786523879E+02  0.46786523879E+02  0.00000000000E+00 0.  1.
          1   -1    0    0  501    0  0.00000000000E+00 -0.00000000000E+00 -0.36581190423E+03  0.36581190423E+03  0.00000000000E+00 0. -1.
         25    2    1    2    0    0  0.17660417379E+02  0.36256153042E+02 -0.27392427118E+03  0.30382243060E+03  0.12508862466E+03 0.  0.
          5    1    3    3  502    0  0.41049137723E+02  0.14770292392E+02 -0.20502446528E+02  0.48384046531E+02  0.41800000000E+01 0.  1.
         -5    1    3    3    0  502 -0.23388720344E+02  0.21485860650E+02 -0.25342182465E+03  0.25543838407E+03  0.41800000000E+01 0.  1.
        -11    1    1    2    0    0  0.15384111052E+02 -0.37789244390E+02  0.12222632928E+02  0.42592142704E+02  0.00000000000E+00 0.  1.
         11    1    1    2    0    0 -0.33044528431E+02  0.15330913476E+01 -0.57323742101E+02  0.66183854805E+02  0.00000000000E+00 0. -1.
</event>
<event>
 7    1  0.2728221E-009  0.1098473E+03  0.7561462E-02  0.1260853E+00
          1   -1    0    0  501    0  0.00000000000E+00  0.00000000000E+00  0.38010915370E+02  0.38010915370E+02  0.00000000000E+00 0. -1.
         -1   -1    0    0    0  501 -0.00000000000E+00 -0.00000000000E+00 -0.40698750354E+03  0.40698750354E+03  0.00000000000E+00 0.  1.
         25    2    1    2    0    0 -0.36836591532E+02 -0.45158795810E+02 -0.23544182459E+03  0.27291622514E+03  0.12511659307E+03 0.  0.
          5    1    3    3  502    0  0.31146033629E+02 -0.40364365017E+02 -0.17294894990E+03  0.18035567373E+03  0.41800000000E+01 0.  1.
         -5    1    3    3    0  502 -0.67982625161E+02 -0.47944307927E+01 -0.62492874693E+02  0.92560551412E+02  0.41800000000E+01 0.  1.
        -11    1    1    2    0    0  0.49015617747E+02 -0.44131453990E+01 -0.32771750744E+02  0.59126933645E+02  0.00000000000E+00 0. -1.
         11    1    1    2    0    0 -0.12179026215E+02  0.49571941209E+02 -0.10076301283E+03  0.11295526013E+03  0.00000000000E+00 0.  1.
</event>
<event>
 7    1  0.2728221E-009  0.1912741E+03  0.7561462E-02  0.1157317E+00
         -2   -1    0    0    0  501 -0.00000000000E+00  0.00000000000E+00  0.47895873415E+02  0.47895873415E+02  0.00000000000E+00 0.  1.
          2   -1    0    0  501    0  0.00000000000E+00 -0.00000000000E+00 -0.97556945214E+03  0.97556945214E+03  0.00000000000E+00 0. -1.
         25    2    1    2    0    0 -0.17325632353E+03 -0.42054394867E+02 -0.62191764743E+03  0.65894924146E+03  0.12508483867E+03 0.  0.
          5    1    3    3  502    0  0.53769362079E+01 -0.74857583563E+00 -0.18468779920E+03  0.18481484622E+03  0.41800000000E+01 0.  1.
         -5    1    3    3    0  502 -0.17863325974E+03 -0.41305819032E+02 -0.43722984823E+03  0.47413439524E+03  0.41800000000E+01 0.  1.
        -11    1    1    2    0    0  0.17234272900E+03  0.23745710785E+02 -0.24110946195E+03  0.29732078243E+03  0.00000000000E+00 0.  1.
         11    1    1    2    0    0  0.91359452941E+00  0.18308684082E+02 -0.64646469346E+02  0.67195301672E+02  0.00000000000E+00 0. -1.
</event>
<event>
 7    1  0.2728221E-009  0.1020162E+03  0.7561462E-02  0.1276112E+00
         -2   -1    0    0    0  501 -0.00000000000E+00  0.00000000000E+00  0.19835675707E+02  0.19835675707E+02  0.00000000000E+00 0.  1.
          2   -1    0    0  501    0  0.00000000000E+00 -0.00000000000E+00 -0.95814587528E+03  0.95814587528E+03  0.00000000000E+00 0. -1.
         25    2    1    2    0    0 -0.55948756003E+01 -0.87483326897E+02 -0.67121321546E+03  0.68837458562E+03  0.12509098448E+03 0.  0.
          5    1    3    3  502    0  0.33167159222E+02 -0.53255795537E+02 -0.12719514044E+03  0.14188839403E+03  0.41800000000E+01 0.  1.
         -5    1    3    3    0  502 -0.38762034823E+02 -0.34227531360E+02 -0.54401807503E+03  0.54648619159E+03  0.41800000000E+01 0.  1.
        -11    1    1    2    0    0  0.10223066077E+02  0.31889912529E+02 -0.19794843031E+03  0.20076119811E+03  0.00000000000E+00 0. -1.
         11    1    1    2    0    0 -0.46281904767E+01  0.55593414368E+02 -0.69148553798E+02  0.88845767263E+02  0.00000000000E+00 0.  1.
</event>
<event>
 7    1  0.2728221E-009  0.1361893E+03  0.7561462E-02  0.1218550E+00
          2   -1    0    0  501    0  0.00000000000E+00  0.00000000000E+00  0.51706192842E+03  0.51706192842E+03  0.00000000000E+00 0. -1.
         -2   -1    0    0    0  501 -0.00000000000E+00 -0.00000000000E+00 -0.44563916744E+02  0.44563916744E+02  0.00000000000E+00 0.  1.
         25    2    1    2    0    0  0.99685063041E+02 -0.31861659305E+02  0.23709308862E+03  0.28777302240E+03  0.12509157695E+03 0.  0.
          5    1    3    3  502    0  0.11131303895E+03 -0.16151836494E+02  0.24225841707E+03  0.26712934602E+03  0.41800000000E+01 0. -1.
         -5    1    3    3    0  502 -0.11627975913E+02 -0.15709822810E+02 -0.51653284493E+01  0.20643676382E+02  0.41800000000E+01 0. -1.
        -11    1    1    2    0    0 -0.11616556844E+02 -0.30026947512E+02  0.50080701417E+02  0.59536867773E+02  0.00000000000E+00 0.  1.
         11    1    1    2    0    0 -0.88068506197E+02  0.61888606817E+02  0.18532422164E+03  0.21431595499E+03  0.00000000000E+00 0. -1.
</event>
<event>
 7    1  0.2728221E-009  0.1222090E+03  0.7561462E-02  0.1239497E+00
         -2   -1    0    0    0  501 -0.00000000000E+00  0.00000000000E+00  0.36583740706E+02  0.36583740706E+02  0.00000000000E+00 0.  1.
          2   -1    0    0  501    0  0.00000000000E+00 -0.00000000000E+00 -0.95499383111E+03  0.95499383111E+03  0.00000000000E+00 0. -1.
         25    2    1    2    0    0  0.75922954573E+02  0.79828594492E+02 -0.76025578771E+03  0.77831450542E+03  0.12509079530E+03 0.  0.
          5    1    3    3  502    0 -0.81879875943E+01  0.67495967322E+01 -0.42201697101E+03  0.42217105114E+03  0.41800000000E+01 0. -1.
         -5    1    3    3    0  502  0.84110942168E+02  0.73078997760E+02 -0.33823881670E+03  0.35614345428E+03  0.41800000000E+01 0. -1.
        -11    1    1    2    0    0 -0.39206485220E+02 -0.74799675775E+02 -0.15443462622E+03  0.17601759502E+03  0.00000000000E+00 0. -1.
         11    1    1    2    0    0 -0.36716469354E+02 -0.50289187169E+01 -0.37196764727E+01  0.37245471380E+02  0.00000000000E+00 0.  1.
</event>
<event>
 7    1  0.2728221E-009  0.2889692E+03  0.7561462E-02  0.1090889E+00
         -1   -1    0    0    0  501 -0.00000000000E+00  0.00000000000E+00  0.10296483371E+03  0.10296483371E+03  0.00000000000E+00 0.  1.
          1   -1    0    0  501    0  0.00000000000E+00 -0.00000000000E+00 -0.99591522049E+03  0.99591522049E+03  0.00000000000E+00 0. -1.
         25    2    1    2    0    0  0.16818368758E+03  0.22443691807E+03 -0.27506197665E+03  0.41226760333E+03  0.12509117793E+03 0.  0.
          5    1    3    3  502    0  0.28451158963E+02  0.49755240033E+02 -0.13899802420E+03  0.15040935971E+03  0.41800000000E+01 0. -1.
         -5    1    3    3    0  502  0.13973252862E+03  0.17468167804E+03 -0.13606395245E+03  0.26185824362E+03  0.41800000000E+01 0. -1.
        -11    1    1    2    0    0 -0.12105827239E+03 -0.80745201557E+02 -0.25729559865E+03  0.29559417784E+03  0.00000000000E+00 0.  1.
         11    1    1    2    0    0 -0.47125415189E+02 -0.14369171651E+03 -0.36059281148E+03  0.39101827303E+03  0.00000000000E+00 0. -1.
</event>
<event>
 7    1  0.2728221E-009  0.1002293E+03  0.7561462E-02  0.1279815E+00
         -1   -1    0    0    0  501 -0.00000000000E+00  0.00000000000E+00  0.24922566825E+03  0.24922566825E+03  0.00000000000E+00 0.  1.
          1   -1    0    0  501    0  0.00000000000E+00 -0.00000000000E+00 -0.60005380383E+02  0.60005380383E+02  0.00000000000E+00 0. -1.
         25    2    1    2    0    0 -0.12377134494E+02  0.27765788079E+02  0.47200012688E+02  0.13711016312E+03  0.12508886117E+03 0.  0.
          5    1    3    3  502    0 -0.37576898951E+02 -0.27830237498E+02 -0.15563304865E+02  0.49459420864E+02  0.41800000000E+01 0. -1.
         -5    1    3    3    0  502  0.25199764456E+02  0.55596025577E+02  0.62763317553E+02  0.87650742260E+02  0.41800000000E+01 0. -1.
        -11    1    1    2    0    0 -0.17751118676E+02  0.25536625007E+02  0.75801209432E+02  0.81933172661E+02  0.00000000000E+00 0. -1.
         11    1    1    2    0    0  0.30128253171E+02 -0.53302413087E+02  0.66219065744E+02  0.90187712844E+02  0.00000000000E+00 0.  1.
</event>
<event>
 7    1  0.2728221E-009  0.9977742E+02  0.7561462E-02  0.1280765E+00
          2   -1    0    0  501    0  0.00000000000E+00  0.00000000000E+00  0.62985172109E+03  0.62985172109E+03  0.00000000000E+00 0. -1.
         -2   -1    0    0    0  501 -0.00000000000E+00 -0.00000000000E+00 -0.21461691899E+02  0.21461691899E+02  0.00000000000E+00 0.  1.
         25    2    1    2    0    0 -0.12905838524E+02 -0.44064551460E+02  0.35488501575E+03  0.37907688518E+03  0.12509062760E+03 0.  0.
          5    1    3    3  502    0 -0.14930475194E+02 -0.71844781448E+02  0.33871885480E+03  0.34660139455E+03  0.41800000000E+01 0.  1.
         -5    1    3    3    0  502  0.20246366699E+01  0.27780229988E+02  0.16166160952E+02  0.32475490631E+02  0.41800000000E+01 0.  1.
        -11    1    1    2    0    0  0.36393907573E+01 -0.26485458570E+02  0.50800906510E+02  0.57406069217E+02  0.00000000000E+00 0.  1.
         11    1    1    2    0    0  0.92664477669E+01  0.70550010030E+02  0.20270410693E+03  0.21483045859E+03  0.00000000000E+00 0. -1.
</event>
<event>
 7    1  0.2728221E-009  0.1022305E+03  0.7561462E-02  0.1275674E+00
         -1   -1    0    0    0  501 -0.00000000000E+00  0.00000000000E+00  0.27688137472E+02  0.27688137472E+02  0.00000000000E+00 0.  1.
          1   -1    0    0  501    0  0.00000000000E+00 -0.00000000000E+00 -0.68727874108E+03  0.68727874108E+03  0.00000000000E+00 0. -1.
         25    2    1    2    0    0 -0.72400116548E+02  0.23831575725E+02 -0.46150123076E+03  0.48418888650E+03  0.12508305617E+03 0.  0.
          5    1    3    3  502    0 -0.62579643760E+02 -0.16979907184E+02 -0.42005585193E+03  0.42505166768E+03  0.41800000000E+01 0.  1.
         -5    1    3    3    0  502 -0.98204727887E+01  0.40811482909E+02 -0.41445378830E+02  0.59137218817E+02  0.41800000000E+01 0.  1.
        -11    1    1    2    0    0  0.22628939335E+02 -0.39154807826E+02 -0.28694117118E+02  0.53558568208E+02  0.00000000000E+00 0.  1.
         11    1    1    2    0    0  0.49771177213E+02  0.15323232101E+02 -0.16939525573E+03  0.17721942384E+03  0.00000000000E+00 0. -1.
</event>
<event>
 7    1  0.2728221E-009  0.1400035E+03  0.7561462E-02  0.1213324E+00
          3   -1    0    0  501    0  0.00000000000E+00  0.00000000000E+00  0.22281712231E+03  0.22281712231E+03  0.00000000000E+00 0. -1.
         -3   -1    0    0    0  501 -0.00000000000E+00 -0.00000000000E+00 -0.29653464018E+03  0.29653464018E+03  0.00000000000E+00 0.  1.
         25    2    1    2    0    0  0.96706380835E+02  0.64525718750E+02  0.16548307634E+03  0.23779805775E+03  0.12509026837E+03 0.  0.
          5    1    3    3  502    0  0.58758931152E+02  0.93957223039E+02  0.70855957214E+02  0.13160019310E+03  0.41800000000E+01 0. -1.
         -5    1    3    3    0  502  0.37947449683E+02 -0.29431504290E+02  0.94627119126E+02  0.10619786465E+03  0.41800000000E+01 0. -1.
        -11    1    1    2    0    0 -0.15624934009E+02  0.23532131798E+01  0.42677181747E+01  0.16367333120E+02  0.00000000000E+00 0.  1.
         11    1    1    2    0    0 -0.81081446827E+02 -0.66878931930E+02 -0.24346831238E+03  0.26518637161E+03  0.00000000000E+00 0. -1.
</event>
<event>
 7    1  0.2728221E-009  0.1155342E+03  0.7561462E-02  0.1250652E+00
         -2   -1    0    0    0  501 -0.00000000000E+00  0.00000000000E+00  0.39372394974E+02  0.39372394974E+02  0.00000000000E+00 0. -1.
          2   -1    0    0  501    0  0.00000000000E+00 -0.00000000000E+00 -0.73883863019E+03  0.73883863019E+03  0.00000000000E+00 0.  1.
         25    2    1    2    0    0  0.84630873955E+02  0.62636474718E+02 -0.19186562312E+03  0.25207964020E+03  0.12508403125E+03 0.  0.
          5    1    3    3  502    0  0.22046080538E+02  0.51187716496E+02 -0.17835033582E+03  0.18690245229E+03  0.41800000000E+01 0. -1.
         -5    1    3    3    0  502  0.62584793417E+02  0.11448758222E+02 -0.13515287304E+02  0.65177187902E+02  0.41800000000E+01 0. -1.
        -11    1    1    2    0    0 -0.80032736048E+02 -0.42212542594E+02 -0.49139707542E+03  0.49965810643E+03  0.00000000000E+00 0.  1.
         11    1    1    2    0    0 -0.45981379071E+01 -0.20423932124E+02 -0.16203536673E+02  0.26473278534E+02  0.00000000000E+00 0. -1.
</event>
<event>
 7    1  0.2728221E-009  0.1207035E+03  0.7561462E-02  0.1241941E+00
         -1   -1    0    0    0  501 -0.00000000000E+00  0.00000000000E+00  0.22051369559E+03  0.22051369559E+03  0.00000000000E+00 0.  1.
          1   -1    0    0  501    0  0.00000000000E+00 -0.00000000000E+00 -0.67979212288E+02  0.67979212288E+02  0.00000000000E+00 0. -1.
         25    2    1    2    0    0 -0.26837683039E+02 -0.70490962648E+02  0.78198514919E+02  0.16568700457E+03  0.12509172116E+03 0.  0.
          5    1    3    3  502    0  0.50262739567E+02 -0.32676538754E+02  0.32069095001E+02  0.68117533924E+02  0.41800000000E+01 0.  1.
         -5    1    3    3    0  502 -0.77100422606E+02 -0.37814423894E+02  0.46129419918E+02  0.97569470647E+02  0.41800000000E+01 0.  1.
        -11    1    1    2    0    0  0.45386581403E+02  0.46111964389E+02  0.62521573521E+02  0.89973341534E+02  0.00000000000E+00 0.  1.
         11    1    1    2    0    0 -0.18548898364E+02  0.24378998259E+02  0.11814394864E+02  0.32832561774E+02  0.00000000000E+00 0. -1.
</event>
<event>
 7    1  0.2728221E-009  0.9167425E+02  0.7561462E-02  0.1298847E+00
          1   -1    0    0  501    0  0.00000000000E+00  0.00000000000E+00  0.67137940502E+03  0.67137940502E+03  0.00000000000E+00 0. -1.
         -1   -1    0    0    0  501 -0.00000000000E+00 -0.00000000000E+00 -0.21241636812E+02  0.21241636812E+02  0.00000000000E+00 0.  1.
         25    2    1    2    0    0  0.41198998771E+02 -0.24070277524E+02  0.31112152638E+03  0.33870458267E+03  0.12508978528E+03 0.  0.
          5    1    3    3  502    0  0.45384052817E+02 -0.50270641629E+02  0.30320137627E+03  0.31070145901E+03  0.41800000000E+01 0.  1.
         -5    1    3    3    0  502 -0.41850540461E+01  0.26200364105E+02  0.79201501107E+01  0.28003123654E+02  0.41800000000E+01 0.  1.
        -11    1    1    2    0    0 -0.35916736011E+02 -0.22093938654E+02  0.24971090221E+03  0.25324630053E+03  0.00000000000E+00 0. -1.
         11    1    1    2    0    0 -0.52822627601E+01  0.46164216178E+02  0.89305339618E+02  0.10067015863E+03  0.00000000000E+00 0.  1.
</event>
<event>
 7    1  0.2728221E-009  0.1220659E+03  0.7561462E-02  0.1239727E+00
          2   -1    0    0  501    0  0.00000000000E+00  0.00000000000E+00  0.13693580566E+03  0.13693580566E+03  0.00000000000E+00 0. -1.
         -2   -1    0    0    0  501 -0.00000000000E+00 -0.00000000000E+00 -0.12594880687E+03  0.12594880687E+03  0.00000000000E+00 0.  1.
         25    2    1    2    0    0  0.66984158194E+02 -0.20073805703E+02 -0.61160928321E+01  0.14343842479E+03  0.12508932805E+03 0.  0.
          5    1    3    3  502    0 -0.19659136431E+02  0.22621782276E+02 -0.31293845017E+02  0.43531641532E+02  0.41800000000E+01 0.  1.
         -5    1    3    3    0  502  0.86643294625E+02 -0.42695587979E+02  0.25177752184E+02  0.99906783260E+02  0.41800000000E+01 0.  1.
        -11    1    1    2    0    0 -0.15007665560E+02  0.53384970571E+02  0.15942271239E+02  0.57700442985E+02  0.00000000000E+00 0. -1.
         11    1    1    2    0    0 -0.51976492635E+02 -0.33311164869E+02  0.11608203784E+01  0.61745744756E+02  0.00000000000E+00 0.  1.
</event>
<event>
 7    1  0.2728221E-009  0.2424161E+03  0.7561462E-02  0.1118194E+00
          2   -1    0    0  501    0  0.00000000000E+00  0.00000000000E+00  0.89621076343E+03  0.89621076343E+03  0.00000000000E+00 0. -1.
         -2   -1    0    0    0  501 -0.00000000000E+00 -0.00000000000E+00 -0.76328595034E+02  0.76328595034E+02  0.00000000000E+00 0.  1.
         25    2    1    2    0    0  0.15323799936E+03  0.16213379970E+03  0.26951445123E+03  0.37155728550E+03  0.12509006170E+03 0.  0.
          5    1    3    3  502    0  0.16787029304E+03  0.13746350235E+03  0.19556471315E+03  0.29212955892E+03  0.41800000000E+01 0. -1.
         -5    1    3    3    0  502 -0.14632293674E+02  0.24670297351E+02  0.73949738072E+02  0.79427726585E+02  0.41800000000E+01 0. -1.
        -11    1    1    2    0    0 -0.15397141035E+03 -0.11620871268E+03  0.40626621755E+03  0.44973758975E+03  0.00000000000E+00 0.  1.
         11    1    1    2    0    0  0.73341098847E+00 -0.45925087023E+02  0.14410149962E+03  0.15124448321E+03  0.00000000000E+00 0. -1.
</event>
<event>
 7    1  0.2728221E-009  0.1378039E+03  0.7561462E-02  0.1216315E+00
          2   -1    0    0  501    0  0.00000000000E+00  0.00000000000E+00  0.84677493285E+02  0.84677493285E+02  0.00000000000E+00 0. -1.
         -2   -1    0    0    0  501 -0.00000000000E+00 -0.00000000000E+00 -0.27194539729E+03  0.27194539729E+03  0.00000000000E+00 0.  1.
         25    2    1    2    0    0  0.89621962655E+02 -0.44836837609E+01 -0.16921283486E+03  0.22876282613E+03  0.12508895845E+03 0.  0.
          5    1    3    3  502    0 -0.80041678465E+01 -0.43122045493E+02 -0.78167957125E+02  0.89728921934E+02  0.41800000000E+01 0. -1.
         -5    1    3    3    0  502  0.97626130502E+02  0.38638361732E+02 -0.91044877738E+02  0.13903390420E+03  0.41800000000E+01 0. -1.
        -11    1    1    2    0    0 -0.52978087742E+02 -0.41769236211E+02 -0.70221826123E+01  0.67828149931E+02  0.00000000000E+00 0.  1.
         11    1    1    2    0    0 -0.36643874913E+02  0.46252919972E+02 -0.11032886528E+02  0.60031914510E+02  0.00000000000E+00 0. -1.
</event>
<event>
 6    1  0.2728221E-009  0.4789580E+03  0.7561462E-02  0.1019422E+00
          1   -1    0    0  501    0  0.00000000000E+00  0.00000000000E+00  0.16188722657E+04  0.16188722657E+04  0.00000000000E+00 0. -1.
         -1   -1    0    0    0  501 -0.00000000000E+00 -0.00000000000E+00 -0.15718416809E+03  0.15718416809E+03  0.00000000000E+00 0.  1.
          5    1    1    2  502    0 -0.49193983212E+02 -0.25185237147E+03  0.21201559218E+03  0.33289299891E+03  0.41800000000E+01 0. -1.
         -5    1    1    2    0  502 -0.13070769634E+03 -0.18563343301E+03  0.28702294349E+03  0.36598349119E+03  0.41800000000E+01 0. -1.
        -11    1    1    2    0    0  0.66978083115E+02  0.20642628150E+03  0.33816755868E+03  0.40181484673E+03  0.00000000000E+00 0.  1.
         11    1    1    2    0    0  0.11292359643E+03  0.23105952298E+03  0.62448200329E+03  0.67536509699E+03  0.00000000000E+00 0. -1.
</event>
<event>
 7    1  0.2728221E-009  0.1209997E+03  0.7561462E-02  0.1241457E+00
          3   -1    0    0  501    0  0.00000000000E+00  0.00000000000E+00  0.10749952809E+03  0.10749952809E+03  0.00000000000E+00 0. -1.
         -3   -1    0    0    0  501 -0.00000000000E+00 -0.00000000000E+00 -0.15826215465E+03  0.15826215465E+03  0.00000000000E+00 0.  1.
         25    2    1    2    0    0 -0.54882009898E+02  0.40392670310E+02 -0.55468890887E+02  0.15285996558E+03  0.12508304600E+03 0.  0.
          5    1    3    3  502    0 -0.93661085843E+02  0.13915606278E+02 -0.30840441104E+02  0.99672705928E+02  0.41800000000E+01 0.  1.
         -5    1    3    3    0  502  0.38779075945E+02  0.26477064031E+02 -0.24628449783E+02  0.53187259655E+02  0.41800000000E+01 0.  1.
        -11    1    1    2    0    0  0.18081316194E+02 -0.56928873933E+02 -0.22948815310E+02  0.63988114574E+02  0.00000000000E+00 0.  1.
         11    1    1    2    0    0  0.36800693704E+02  0.16536203624E+02  0.27655079637E+02  0.48913602578E+02  0.00000000000E+00 0. -1.
</event>
<event>
 7    1  0.2728221E-009  0.1571080E+03  0.7561462E-02  0.1192001E+00
         -2   -1    0    0    0  501 -0.00000000000E+00  0.00000000000E+00  0.11198730845E+03  0.11198730845E+03  0.00000000000E+00 0. -1.
          2   -1    0    0  501    0  0.00000000000E+00 -0.00000000000E+00 -0.28246853685E+03  0.28246853685E+03  0.00000000000E+00 0.  1.
         25    2    1    2    0    0  0.86370685513E+02 -0.93041227941E+02 -0.24883142942E+02  0.17994657035E+03  0.12508010220E+03 0.  0.
          5    1    3    3  502    0 -0.68470222812E+01 -0.83449552514E+02 -0.18992756792E+02  0.85958750221E+02  0.41800000000E+01 0.  1.
         -5    1    3    3    0  502  0.93217707795E+02 -0.95916754268E+01 -0.58903861507E+01  0.93987820131E+02  0.41800000000E+01 0.  1.
        -11    1    1    2    0    0 -0.38568688134E+02  0.85539766144E+01  0.14627533701E-01  0.39505878477E+02  0.00000000000E+00 0. -1.
         11    1    1    2    0    0 -0.47801997379E+02  0.84487251327E+02 -0.14561271299E+03  0.17500339647E+03  0.00000000000E+00 0.  1.
</event>
<event>
 7    1  0.2728221E-009  0.7920375E+02  0.7561462E-02  0.1331326E+00
         -1   -1    0    0    0  501 -0.00000000000E+00  0.00000000000E+00  0.39319125649E+02  0.39319125649E+02  0.00000000000E+00 0.  1.
          1   -1    0    0  501    0  0.00000000000E+00 -0.00000000000E+00 -0.34140264558E+03  0.34140264558E+03  0.00000000000E+00 0. -1.
         25    2    1    2    0    0  0.39707779374E+01  0.87181521795E+01 -0.20303847090E+03  0.23866939449E+03  0.12508671371E+03 0.  0.
          5    1    3    3  502    0 -0.52394004572E+02 -0.20605998118E+02 -0.61588027147E+02  0.83548167912E+02  0.41800000000E+01 0.  1.
         -5    1    3    3    0  502  0.56364782510E+02  0.29324150298E+02 -0.14145044375E+03  0.15512122658E+03  0.41800000000E+01 0.  1.
        -11    1    1    2    0    0 -0.18496839757E+02 -0.13594759737E+02 -0.11654960843E+03  0.11878872757E+03  0.00000000000E+00 0. -1.
         11    1    1    2    0    0  0.14526061819E+02  0.48766075577E+01  0.17504559391E+02  0.23263649170E+02  0.00000000000E+00 0.  1.
</event>
<event>
 7    1  0.2728221E-009  0.9911288E+02  0.7561462E-02  0.1282173E+00
          1   -1    0    0  501    0  0.00000000000E+00  0.00000000000E+00  0.14334807357E+03  0.14334807357E+03  0.00000000000E+00 0. -1.
         -1   -1    0    0    0  501 -0.00000000000E+00 -0.00000000000E+00 -0.12269676289E+03  0.12269676289E+03  0.00000000000E+00 0.  1.
         25    2    1    2    0    0  0.36962174132E+02 -0.90163212246E+01 -0.54517388201E+02  0.14165760156E+03  0.12508890478E+03 0.  0.
          5    1    3    3  502    0 -0.26543494699E+02 -0.24208670367E+02  0.20932299304E+02  0.41788160835E+02  0.41800000000E+01 0. -1.
         -5    1    3    3    0  502  0.63505668830E+02  0.15192349143E+02 -0.75449687505E+02  0.99869440725E+02  0.41800000000E+01 0. -1.
        -11    1    1    2    0    0 -0.20487178988E+02 -0.39986212493E+02  0.48870754688E+02  0.66385031115E+02  0.00000000000E+00 0. -1.
         11    1    1    2    0    0 -0.16474995143E+02  0.49002533717E+02  0.26297944191E+02  0.58002203789E+02  0.00000000000E+00 0.  1.
</event>
<event>
 7    1  0.2728221E-009  0.1016115E+03  0.7561462E-02  0.1276943E+00
         -1   -1    0    0    0  501 -0.00000000000E+00  0.00000000000E+00  0.12874310436E+03  0.12874310436E+03  0.00000000000E+00 0.  1.
          1   -1    0    0  501    0  0.00000000000E+00 -0.00000000000E+00 -0.16627294120E+03  0.16627294120E+03  0.00000000000E+00 0. -1.
         25    2    1    2    0    0  0.77238347234E+02 -0.25895334620E+02  0.18121031386E+02  0.15037179724E+03  0.12508786907E+03 0.  0.
          5    1    3    3  502    0  0.37412355512E+02 -0.17234859442E+02 -0.53627029240E+02  0.67749947528E+02  0.41800000000E+01 0. -1.
         -5    1    3    3    0  502  0.39825991722E+02 -0.86604751780E+01  0.71748060626E+02  0.82621849716E+02  0.41800000000E+01 0. -1.
        -11    1    1    2    0    0 -0.80961741903E+02  0.50858256164E+02 -0.67224441533E+02  0.11687810493E+03  0.00000000000E+00 0. -1.
         11    1    1    2    0    0  0.37233946688E+01 -0.24962921544E+02  0.11573573301E+02  0.27766143391E+02  0.00000000000E+00 0.  1.
</event>
<event>
 7    1  0.2728221E-009  0.1033500E+03  0.7561462E-02  0.1273405E+00
          1   -1    0    0  501    0  0.00000000000E+00  0.00000000000E+00  0.51838759280E+02  0.51838759280E+02  0.00000000000E+00 0. -1.
         -1   -1    0    0    0  501 -0.00000000000E+00 -0.00000000000E+00 -0.35856656395E+03  0.35856656395E+03  0.00000000000E+00 0.  1.
         25    2    1    2    0    0  0.33143695701E+02 -0.74838201436E+02 -0.17385594389E+03  0.22928670080E+03  0.12508893227E+03 0.  0.
          5    1    3    3  502    0  0.59834436628E+01 -0.34722651768E+02  0.11781640786E+02  0.37386409342E+02  0.41800000000E+01 0.  1.
         -5    1    3    3    0  502  0.27160252039E+02 -0.40115549668E+02 -0.18563758468E+03  0.19190029145E+03  0.41800000000E+01 0.  1.
        -11    1    1    2    0    0  0.31794718052E+02  0.19692355782E+02 -0.48163765854E+02  0.60979023553E+02  0.00000000000E+00 0.  1.
         11    1    1    2    0    0 -0.64938413753E+02  0.55145845654E+02 -0.84708094929E+02  0.12013959888E+03  0.00000000000E+00 0. -1.
</event>
<event>
 7    1  0.2728221E-009  0.1360933E+03  0.7561462E-02  0.1218685E+00
          1   -1    0    0  501    0  0.00000000000E+00  0.00000000000E+00  0.63004757020E+03  0.63004757020E+03  0.00000000000E+00 0.  1.
         -1   -1    0    0    0  501 -0.00000000000E+00 -0.00000000000E+00 -0.12911662471E+03  0.12911662471E+03  0.00000000000E+00 0. -1.
         25    2    1    2    0    0  0.11578978604E+03  0.18516653041E+01  0.57129597648E+03  0.59618825319E+03  0.12510250708E+03 0.  0.
          5    1    3    3  502    0  0.33094368866E+02  0.49986566652E+02  0.11294041161E+03  0.12793319769E+03  0.41800000000E+01 0.  1.
         -5    1    3    3    0  502  0.82695417172E+02 -0.48134901348E+02  0.45835556487E+03  0.46825505549E+03  0.41800000000E+01 0.  1.
        -11    1    1    2    0    0 -0.69919537378E+02  0.42153578079E+01 -0.88858346925E+02  0.11314732329E+03  0.00000000000E+00 0. -1.
         11    1    1    2    0    0 -0.45870248660E+02 -0.60670231120E+01  0.18493315930E+02  0.49828618440E+02  0.00000000000E+00 0.  1.
</event>
<event>
 7    1  0.2728221E-009  0.1048588E+03  0.7561462E-02  0.1270398E+00
         -2   -1    0    0    0  501 -0.00000000000E+00  0.00000000000E+00  0.92959266085E+02  0.92959266085E+02  0.00000000000E+00 0.  1.
          2   -1    0    0  501    0  0.00000000000E+00 -0.00000000000E+00 -0.16464667909E+03  0.16464667909E+03  0.00000000000E+00 0. -1.
         25    2    1    2    0    0 -0.25416756985E+02  0.21818932075E+02 -0.92441349476E+02  0.15910598051E+03  0.12508889883E+03 0.  0.
          5    1    3    3  502    0 -0.11663793622E+02  0.74045718613E+02 -0.48768583923E+02  0.89524631831E+02  0.41800000000E+01 0.  1.
         -5    1    3    3    0  502 -0.13752963364E+02 -0.52226786538E+02 -0.43672765553E+02  0.69581348682E+02  0.41800000000E+01 0.  1.
        -11    1    1    2    0    0  0.20347026959E+02  0.25646926704E+02  0.35739417994E+02  0.48467229692E+02  0.00000000000E+00 0.  1.
         11    1    1    2    0    0  0.50697300258E+01 -0.47465858778E+02 -0.14985481522E+02  0.50032734970E+02  0.00000000000E+00 0. -1.
</event>
<event>
 7    1  0.2728221E-009  0.1690959E+03  0.7561462E-02  0.1178794E+00
         -4   -1    0    0    0  501 -0.00000000000E+00  0.00000000000E+00  0.71418584738E+02  0.71418584738E+02  0.00000000000E+00 0. -1.
          4   -1    0    0  501    0  0.00000000000E+00 -0.00000000000E+00 -0.60676491721E+03  0.60676491721E+03  0.00000000000E+00 0.  1.
         25    2    1    2    0    0 -0.11195473293E+03  0.89837527941E+02 -0.11026623178E+03  0.22002570415E+03  0.12509206596E+03 0.  0.
          5    1    3    3  502    0 -0.75838294846E+02  0.12076803635E+03 -0.82509583508E+02  0.16480797717E+03  0.41800000000E+01 0. -1.
         -5    1    3    3    0  502 -0.36116438084E+02 -0.30930508407E+02 -0.27756648268E+02  0.55217726984E+02  0.41800000000E+01 0. -1.
        -11    1    1    2    0    0  0.88376466598E+02 -0.87048906049E+02 -0.41356839915E+03  0.43177162096E+03  0.00000000000E+00 0.  1.
         11    1    1    2    0    0  0.23578266333E+02 -0.27886218917E+01 -0.11511701547E+02  0.26386176832E+02  0.00000000000E+00 0. -1.
</event>
<event>
 7    1  0.2728221E-009  0.1185804E+03  0.7561462E-02  0.1245458E+00
         -1   -1    0    0    0  501 -0.00000000000E+00  0.00000000000E+00  0.77233572842E+03  0.77233572842E+03  0.00000000000E+00 0. -1.
          1   -1    0    0  501    0  0.00000000000E+00 -0.00000000000E+00 -0.27244785174E+02  0.27244785174E+02  0.00000000000E+00 0.  1.
         25    2    1    2    0    0  0.93771323450E+02 -0.79770257329E+00  0.35311228527E+03  0.38618320797E+03  0.12512188729E+03 0.  0.
          5    1    3    3  502    0  0.58602994648E+02 -0.24064466866E+02  0.33350062839E+03  0.33949013400E+03  0.41800000000E+01 0.  1.
         -5    1    3    3    0  502  0.35168328802E+02  0.23266764292E+02  0.19611656883E+02  0.46693073973E+02  0.41800000000E+01 0.  1.
        -11    1    1    2    0    0  0.16743953802E+02 -0.11181294582E+02  0.64002138354E+02  0.67094374216E+02  0.00000000000E+00 0. -1.
         11    1    1    2    0    0 -0.11051527725E+03  0.11978997155E+02  0.32797651962E+03  0.34630293141E+03  0.00000000000E+00 0.  1.
</event>
<event>
 7    1  0.2728221E-009  0.1286192E+03  0.7561462E-02  0.1229519E+00
         -1   -1    0    0    0  501 -0.00000000000E+00  0.00000000000E+00  0.15452450439E+03  0.15452450439E+03  0.00000000000E+00 0.  1.
          1   -1    0    0  501    0  0.00000000000E+00 -0.00000000000E+00 -0.11788501503E+03  0.11788501503E+03  0.00000000000E+00 0. -1.
         25    2    1    2    0    0 -0.76000881539E+02  0.19377033326E+01 -0.42417292191E+01  0.14643473198E+03  0.12508097287E+03 0.  0.
          5    1    3    3  502    0 -0.10304616614E+03  0.24734714687E+02 -0.19242288307E+02  0.10778708886E+03  0.41800000000E+01 0. -1.
         -5    1    3    3    0  502  0.27045284597E+02 -0.22797011355E+02  0.15000559087E+02  0.38647643118E+02  0.41800000000E+01 0. -1.
        -11    1    1    2    0    0  0.33816843006E+02  0.42487494208E+02  0.34605234851E+02  0.64391678920E+02  0.00000000000E+00 0. -1.
         11    1    1    2    0    0  0.42184038533E+02 -0.44425197541E+02  0.62759837290E+01  0.61583108522E+02  0.00000000000E+00 0.  1.
</event>
<event>
 7    1  0.2728221E-009  0.7598547E+02  0.7561462E-02  0.1340846E+00
          2   -1    0    0  501    0  0.00000000000E+00  0.00000000000E+00  0.42812000521E+03  0.42812000521E+03  0.00000000000E+00 0. -1.
         -2   -1    0    0    0  501 -0.00000000000E+00 -0.00000000000E+00 -0.27819438153E+02  0.27819438153E+02  0.00000000000E+00 0.  1.
         25    2    1    2    0    0 -0.40346445556E+01 -0.24522397760E+02  0.22241535006E+03  0.25638624297E+03  0.12509073223E+03 0.  0.
          5    1    3    3  502    0 -0.77301411742E+01  0.18413025753E+02  0.21049140319E+03  0.21147788966E+03  0.41800000000E+01 0. -1.
         -5    1    3    3    0  502  0.36954966186E+01 -0.42935423513E+02  0.11923946878E+02  0.44908353305E+02  0.41800000000E+01 0. -1.
        -11    1    1    2    0    0 -0.29014264832E+01  0.55981809881E+02  0.13275121304E+03  0.14410158180E+03  0.00000000000E+00 0. -1.
         11    1    1    2    0    0  0.69360710388E+01 -0.31459412121E+02  0.45134003952E+02  0.55451618599E+02  0.00000000000E+00 0.  1.
</event>
<event>
 7    1  0.2728221E-009  0.1035962E+03  0.7561462E-02  0.1272910E+00
          2   -1    0    0  501    0  0.00000000000E+00  0.00000000000E+00  0.12135555369E+03  0.12135555369E+03  0.00000000000E+00 0. -1.
         -2   -1    0    0    0  501 -0.00000000000E+00 -0.00000000000E+00 -0.16506893503E+03  0.16506893503E+03  0.00000000000E+00 0.  1.
         25    2    1    2    0    0  0.73451839396E+02  0.81496642014E-01  0.32376324216E+02  0.14862912010E+03  0.12508880693E+03 0.  0.
          5    1    3    3  502    0 -0.69812954884E+01 -0.17640944444E+02 -0.36390625305E+02  0.41251562609E+02  0.41800000000E+01 0.  1.
         -5    1    3    3    0  502  0.80433134884E+02  0.17722441086E+02  0.68766949522E+02  0.10737755749E+03  0.41800000000E+01 0.  1.
        -11    1    1    2    0    0  0.15576438011E+02 -0.43305263770E+01  0.53830485237E+01  0.17039838356E+02  0.00000000000E+00 0.  1.
         11    1    1    2    0    0 -0.89028277407E+02  0.42490297350E+01 -0.81472754085E+02  0.12075553027E+03  0.00000000000E+00 0. -1.
</event>
<event>
 7    1  0.2728221E-009  0.1061487E+03  0.7561462E-02  0.1267873E+00
          3   -1    0    0  501    0  0.00000000000E+00  0.00000000000E+00  0.97898590571E+03  0.97898590571E+03  0.00000000000E+00 0. -1.
         -3   -1    0    0    0  501 -0.00000000000E+00 -0.00000000000E+00 -0.16734462801E+02  0.16734462801E+02  0.00000000000E+00 0.  1.
         25    2    1    2    0    0  0.65910960686E+02  0.14730682653E+02  0.58634706708E+03  0.60333195298E+03  0.12508123229E+03 0.  0.
          5    1    3    3  502    0  0.28283427568E+01 -0.28508542587E+02  0.41060431826E+03  0.41162375429E+03  0.41800000000E+01 0. -1.
         -5    1    3    3    0  502  0.63082617929E+02  0.43239225240E+02  0.17574274882E+03  0.19170819869E+03  0.41800000000E+01 0. -1.
        -11    1    1    2    0    0 -0.71731102486E-01 -0.37188219977E+02  0.77192150979E+02  0.85683119826E+02  0.00000000000E+00 0.  1.
         11    1    1    2    0    0 -0.65839229583E+02  0.22457537323E+02  0.29871222485E+03  0.30670529570E+03  0.00000000000E+00 0. -1.
</event>
<event>
 7    1  0.2728221E-009  0.1513982E+03  0.7561462E-02  0.1198765E+00
         -1   -1    0    0    0  501 -0.00000000000E+00  0.00000000000E+00  0.20173578261E+02  0.20173578261E+02  0.00000000000E+00 0.  1.
          1   -1    0    0  501    0  0.00000000000E+00 -0.00000000000E+00 -0.14530221423E+04  0.14530221423E+04  0.00000000000E+00 0. -1.
         25    2    1    2    0    0  0.63882319752E+02  0.11269134311E+03 -0.64247828875E+03  0.66723924370E+03  0.12509823033E+03 0.  0.
          5    1    3    3  502    0  0.27177593152E+02  0.10503106970E+03 -0.24505318459E+03  0.26802739198E+03  0.41800000000E+01 0.  1.
         -5    1    3    3    0  502  0.36704726600E+02  0.76602734179E+01 -0.39742510415E+03  0.39921185172E+03  0.41800000000E+01 0.  1.
        -11    1    1    2    0    0  0.72929790501E+01 -0.76134902594E+02 -0.43679144891E+03  0.44343712156E+03  0.00000000000E+00 0. -1.
         11    1    1    2    0    0 -0.71175298802E+02 -0.36556440520E+02 -0.35357882640E+03  0.36251935532E+03  0.00000000000E+00 0.  1.
</event>
<event>
 7    1  0.2728221E-009  0.9646918E+02  0.7561462E-02  0.1287901E+00
          3   -1    0    0  501    0  0.00000000000E+00  0.00000000000E+00  0.48933838751E+03  0.48933838751E+03  0.00000000000E+00 0. -1.
         -3   -1    0    0    0  501 -0.00000000000E+00 -0.00000000000E+00 -0.26893753701E+02  0.26893753701E+02  0.00000000000E+00 0.  1.
         25    2    1    2    0    0 -0.11312290731E+02  0.31445369139E+02  0.22933616741E+03  0.26336092780E+03  0.12508845449E+03 0.  0.
          5    1    3    3  502    0 -0.37700662669E+02 -0.16432064385E+02  0.19348666133E+03  0.19785326183E+03  0.41800000000E+01 0.  1.
         -5    1    3    3    0  502  0.26388371938E+02  0.47877433524E+02  0.35849506083E+02  0.65507665969E+02  0.41800000000E+01 0.  1.
        -11    1    1    2    0    0  0.51049806308E+02 -0.11581310905E+02  0.10596386216E+03  0.11818861862E+03  0.00000000000E+00 0.  1.
         11    1    1    2    0    0 -0.39737515577E+02 -0.19864058234E+02  0.12714460424E+03  0.13468259479E+03  0.00000000000E+00 0. -1.
</event>
<event>
 7    1  0.2728221E-009  0.7457657E+02  0.7561462E-02  0.1345187E+00
          3   -1    0    0  501    0  0.00000000000E+00  0.00000000000E+00  0.23576861732E+03  0.23576861732E+03  0.00000000000E+00 0. -1.
         -3   -1    0    0    0  501 -0.00000000000E+00 -0.00000000000E+00 -0.59607152274E+02  0.59607152274E+02  0.00000000000E+00 0.  1.
         25    2    1    2    0    0  0.21577183078E+02 -0.40660051171E+02  0.81224650055E+02  0.15608779047E+03  0.12508852852E+03 0.  0.
          5    1    3    3  502    0  0.22584676576E+02 -0.38474161469E+02  0.11424445500E+03  0.12271754811E+03  0.41800000000E+01 0.  1.
         -5    1    3    3    0  502 -0.10074934976E+01 -0.21858897020E+01 -0.33019804941E+02  0.33370242362E+02  0.41800000000E+01 0.  1.
        -11    1    1    2    0    0 -0.56204251007E+02  0.24652895661E+02  0.43398178797E+02  0.75167047425E+02  0.00000000000E+00 0.  1.
         11    1    1    2    0    0  0.34627067929E+02  0.16007155509E+02  0.51538636191E+02  0.64120931694E+02  0.00000000000E+00 0. -1.
</event>
<event>
 7    1  0.2728221E-009  0.8703343E+02  0.7561462E-02  0.1310199E+00
         -1   -1    0    0    0  501 -0.00000000000E+00  0.00000000000E+00  0.46059561227E+03  0.46059561227E+03  0.00000000000E+00 0.  1.
          1   -1    0    0  501    0  0.00000000000E+00 -0.00000000000E+00 -0.49808802931E+02  0.49808802931E+02  0.00000000000E+00 0. -1.
         25    2    1    2    0    0 -0.94225905716E+01 -0.61398442647E+02  0.78589821626E+02  0.16026395854E+03  0.12509845072E+03 0.  0.
          5    1    3    3  502    0 -0.22471254154E+02 -0.79098875324E+01 -0.29944093245E+02  0.38492138214E+02  0.41800000000E+01 0. -1.
         -5    1    3    3    0  502  0.13048663582E+02 -0.53488555114E+02  0.10853391487E+03  0.12177182033E+03  0.41800000000E+01 0. -1.
        -11    1    1    2    0    0  0.36024584564E+02  0.10983737368E+02  0.52011923912E+02  0.64215678838E+02  0.00000000000E+00 0. -1.
         11    1    1    2    0    0 -0.26601993993E+02  0.50414705279E+02  0.28018506381E+03  0.28592477782E+03  0.00000000000E+00 0.  1.
</event>
<event>
 7    1  0.2728221E-009  0.1133636E+03  0.7561462E-02  0.1254465E+00
         -2   -1    0    0    0  501 -0.00000000000E+00  0.00000000000E+00  0.12871977777E+03  0.12871977777E+03  0.00000000000E+00 0.  1.
          2   -1    0    0  501    0  0.00000000000E+00 -0.00000000000E+00 -0.11278892154E+03  0.11278892154E+03  0.00000000000E+00 0. -1.
         25    2    1    2    0    0 -0.17868285829E+02  0.49009786586E+02  0.20503611951E+02  0.13708118436E+03  0.12509843398E+03 0.  0.
          5    1    3    3  502    0 -0.60837452480E+02  0.51654753458E+01 -0.18855542129E+02  0.64038126369E+02  0.41800000000E+01 0.  1.
         -5    1    3    3    0  502  0.42969166652E+02  0.43844311241E+02  0.39359154080E+02  0.73043057992E+02  0.41800000000E+01 0.  1.
        -11    1    1    2    0    0  0.43342145374E+02 -0.61806342513E+02 -0.70242566877E+01  0.75814943926E+02  0.00000000000E+00 0.  1.
         11    1    1    2    0    0 -0.25473859546E+02  0.12796555926E+02  0.24515009627E+01  0.28612571026E+02  0.00000000000E+00 0. -1.
</event>
<event>
 7    1  0.2728221E-009  0.2150534E+03  0.7561462E-02  0.1137626E+00
          1   -1    0    0  501    0  0.00000000000E+00  0.00000000000E+00  0.72707136256E+02  0.72707136256E+02  0.00000000000E+00 0. -1.
         -1   -1    0    0    0  501 -0.00000000000E+00 -0.00000000000E+00 -0.67029384170E+03  0.67029384170E+03  0.00000000000E+00 0.  1.
         25    2    1    2    0    0 -0.19097740344E+03 -0.15387632337E+02 -0.29037818681E+03  0.36969713892E+03  0.12508930928E+03 0.  0.
          5    1    3    3  502    0 -0.42878636500E+02 -0.57837002925E+02 -0.11957232186E+03  0.13963777759E+03  0.41800000000E+01 0. -1.
         -5    1    3    3    0  502 -0.14809876694E+03  0.42449370589E+02 -0.17080586495E+03  0.23005936133E+03  0.41800000000E+01 0. -1.
        -11    1    1    2    0    0  0.97094495989E+02  0.42736129533E+02 -0.21078254933E+03  0.23597245818E+03  0.00000000000E+00 0.  1.
         11    1    1    2    0    0  0.93882907455E+02 -0.27348497196E+02 -0.96425969304E+02  0.13733138085E+03  0.00000000000E+00 0. -1.
</event>
<event>
 7    1  0.2728221E-009  0.8409692E+02  0.7561462E-02  0.1317811E+00
         -2   -1    0    0    0  501 -0.00000000000E+00  0.00000000000E+00  0.34358838107E+03  0.34358838107E+03  0.00000000000E+00 0.  1.
          2   -1    0    0  501    0  0.00000000000E+00 -0.00000000000E+00 -0.42793549205E+02  0.42793549205E+02  0.00000000000E+00 0. -1.
         25    2    1    2    0    0 -0.42371277033E+02  0.11491918593E+02  0.10449852250E+03  0.16880689155E+03  0.12509370935E+03 0.  0.
          5    1    3    3  502    0  0.14367197579E+02  0.51822595833E+02  0.16258666593E+02  0.56336617262E+02  0.41800000000E+01 0.  1.
         -5    1    3    3    0  502 -0.56738474612E+02 -0.40330677240E+02  0.88239855902E+02  0.11247027428E+03  0.41800000000E+01 0.  1.
        -11    1    1    2    0    0  0.10921138642E+02  0.30972753157E+00 -0.60300263334E+01  0.12479119278E+02  0.00000000000E+00 0. -1.
         11    1    1    2    0    0  0.31450138391E+02 -0.11801646124E+02  0.20232633570E+03  0.20509591945E+03  0.00000000000E+00 0.  1.
</event>
<event>
 7    1  0.2728221E-009  0.1001824E+03  0.7561462E-02  0.1279913E+00
         -2   -1    0    0    0  501 -0.00000000000E+00  0.00000000000E+00  0.10877694366E+03  0.10877694366E+03  0.00000000000E+00 0.  1.
          2   -1    0    0  501    0  0.00000000000E+00 -0.00000000000E+00 -0.11343654834E+03  0.11343654834E+03  0.00000000000E+00 0. -1.
         25    2    1    2    0    0 -0.18430400910E+02 -0.18561333880E+02 -0.87603150565E+00  0.12779746510E+03  0.12508885587E+03 0.  0.
          5    1    3    3  502    0 -0.43458205584E+02  0.29919577137E+02 -0.34867072683E+02  0.63379664610E+02  0.41800000000E+01 0.  1.
         -5    1    3    3    0  502  0.25027804674E+02 -0.48480911017E+02  0.33991041177E+02  0.64417800491E+02  0.41800000000E+01 0.  1.
        -11    1    1    2    0    0  0.34044197144E+02  0.48321839646E+02  0.59982948127E+01  0.59413694437E+02  0.00000000000E+00 0. -1.
         11    1    1    2    0    0 -0.15613796234E+02 -0.29760505766E+02 -0.97818679949E+01  0.35002332462E+02  0.00000000000E+00 0.  1.
</event>
<event>
 7    1  0.2728221E-009  0.1091575E+03  0.7561462E-02  0.1262138E+00
         -2   -1    0    0    0  501 -0.00000000000E+00  0.00000000000E+00  0.40072191958E+03  0.40072191958E+03  0.00000000000E+00 0.  1.
          2   -1    0    0  501    0  0.00000000000E+00 -0.00000000000E+00 -0.47046954671E+02  0.47046954671E+02  0.00000000000E+00 0. -1.
         25    2    1    2    0    0  0.70472002188E+02  0.18928489240E+02  0.12996789707E+03  0.19458616826E+03  0.12509009477E+03 0.  0.
          5    1    3    3  502    0  0.59483434735E+01  0.33095135350E+02  0.12351641470E+03  0.12807984960E+03  0.41800000000E+01 0. -1.
         -5    1    3    3    0  502  0.64523658714E+02 -0.14166646109E+02  0.64514823683E+01  0.66506318652E+02  0.41800000000E+01 0. -1.
        -11    1    1    2    0    0 -0.58945503112E+01  0.34144737117E+02  0.74307801959E+02  0.81989378752E+02  0.00000000000E+00 0. -1.
         11    1    1    2    0    0 -0.64577451876E+02 -0.53073226357E+02  0.14939926588E+03  0.17119332724E+03  0.00000000000E+00 0.  1.
</event>
<event>
 7    1  0.2728221E-009  0.1205694E+03  0.7561462E-02  0.1242161E+00
          1   -1    0    0  501    0  0.00000000000E+00  0.00000000000E+00  0.15521888109E+04  0.15521888109E+04  0.00000000000E+00 0.  1.
         -1   -1    0    0    0  501 -0.00000000000E+00 -0.00000000000E+00 -0.13212932181E+02  0.13212932181E+02  0.00000000000E+00 0. -1.
         25    2    1    2    0    0  0.82165836060E+02  0.42018067331E+02  0.87113599248E+03  0.88489659367E+03  0.12508925414E+03 0.  0.
          5    1    3    3  502    0  0.75090791789E+02  0.81649883967E+01  0.21653068610E+03  0.22936500272E+03  0.41800000000E+01 0. -1.
         -5    1    3    3    0  502  0.70750442713E+01  0.33853078935E+02  0.65460530638E+03  0.65553159095E+03  0.41800000000E+01 0. -1.
        -11    1    1    2    0    0  0.92888760295E+00  0.24313039963E+02  0.12972731571E+03  0.13198925406E+03  0.00000000000E+00 0. -1.
         11    1    1    2    0    0 -0.83094723663E+02 -0.66331107294E+02  0.53811257055E+03  0.54851589537E+03  0.00000000000E+00 0.  1.
</event>
<event>
 7    1  0.2728221E-009  0.1568057E+03  0.7561462E-02  0.1192351E+00
         -2   -1    0    0    0  501 -0.00000000000E+00  0.00000000000E+00  0.11465370992E+03  0.11465370992E+03  0.00000000000E+00 0.  1.
          2   -1    0    0  501    0  0.00000000000E+00 -0.00000000000E+00 -0.42451249466E+03  0.42451249466E+03  0.00000000000E+00 0. -1.
         25    2    1    2    0    0 -0.13343690445E+03 -0.43499185381E+02 -0.32081396337E+03  0.37184222368E+03  0.12508978223E+03 0.  0.
          5    1    3    3  502    0 -0.13892630728E+02 -0.39239490064E+02 -0.16742979059E+02  0.45061541438E+02  0.41800000000E+01 0. -1.
         -5    1    3    3    0  502 -0.11954427372E+03 -0.42596953169E+01 -0.30407098431E+03  0.32678068224E+03  0.41800000000E+01 0. -1.
        -11    1    1    2    0    0  0.20546667603E+02  0.32776797479E+02  0.34122614454E+02  0.51583299815E+02  0.00000000000E+00 0.  1.
         11    1    1    2    0    0  0.11289023684E+03  0.10722387902E+02 -0.23167435826E+02  0.11574068109E+03  0.00000000000E+00 0. -1.
</event>
<event>
 7    1  0.2728221E-009  0.2127485E+03  0.7561462E-02  0.1139408E+00
          1   -1    0    0  501    0  0.00000000000E+00  0.00000000000E+00  0.59048620943E+02  0.59048620943E+02  0.00000000000E+00 0. -1.
         -1   -1    0    0    0  501 -0.00000000000E+00 -0.00000000000E+00 -0.87389028948E+03  0.87389028948E+03  0.00000000000E+00 0.  1.
         25    2    1    2    0    0  0.18437364470E+03 -0.74457828527E+02 -0.43879871261E+03  0.49772438317E+03  0.12509053649E+03 0.  0.
          5    1    3    3  502    0  0.18185083130E+03 -0.51033420573E+02 -0.43397701707E+03  0.47331560148E+03  0.41800000000E+01 0.  1.
         -5    1    3    3    0  502  0.25228134002E+01 -0.23424407954E+02 -0.48216955400E+01  0.24408781685E+02  0.41800000000E+01 0.  1.
        -11    1    1    2    0    0 -0.11644013210E+03  0.84643276056E+02 -0.20148502314E+03  0.24762674148E+03  0.00000000000E+00 0.  1.
         11    1    1    2    0    0 -0.67933512597E+02 -0.10185447529E+02 -0.17455793279E+03  0.18758778578E+03  0.00000000000E+00 0. -1.
</event>
<event>
 7    1  0.2728221E-009  0.1165775E+03  0.7561462E-02  0.1248852E+00
          1   -1    0    0  501    0  0.00000000000E+00  0.00000000000E+00  0.44120860959E+02  0.44120860959E+02  0.00000000000E+00 0. -1.
         -1   -1    0    0    0  501 -0.00000000000E+00 -0.00000000000E+00 -0.39091701901E+03  0.39091701901E+03  0.00000000000E+00 0.  1.
         25    2    1    2    0    0 -0.78274111118E+02  0.31389593882E+02 -0.19548966451E+03  0.24693222263E+03  0.12508865083E+03 0.  0.
          5    1    3    3  502    0 -0.12571426664E+02 -0.43252265553E+02 -0.31568840454E+02  0.55162154884E+02  0.41800000000E+01 0.  1.
         -5    1    3    3    0  502 -0.65702684454E+02  0.74641859435E+02 -0.16392082405E+03  0.19177006774E+03  0.41800000000E+01 0.  1.
        -11    1    1    2    0    0  0.35276942949E+02 -0.20699823375E+00 -0.12291954048E+03  0.12788166008E+03  0.00000000000E+00 0.  1.
         11    1    1    2    0    0  0.42997168169E+02 -0.31182595648E+02 -0.28386953057E+02  0.60223997258E+02  0.00000000000E+00 0. -1.
</event>
<event>
 7    1  0.2728221E-009  0.1129732E+03  0.7561462E-02  0.1255161E+00
          1   -1    0    0  501    0  0.00000000000E+00  0.00000000000E+00  0.16155315751E+03  0.16155315751E+03  0.00000000000E+00 0. -1.
         -1   -1    0    0    0  501 -0.00000000000E+00 -0.00000000000E+00 -0.15730038715E+03  0.15730038715E+03  0.00000000000E+00 0.  1.
         25    2    1    2    0    0  0.83795403902E+02 -0.48251858435E+02  0.58223156280E+02  0.16848666539E+03  0.12509160215E+03 0.  0.
          5    1    3    3  502    0  0.71825748487E+02 -0.70660301247E+02  0.84597950932E+02  0.13162865197E+03  0.41800000000E+01 0. -1.
         -5    1    3    3    0  502  0.11969655415E+02  0.22408442812E+02 -0.26374794652E+02  0.36858013416E+02  0.41800000000E+01 0. -1.
        -11    1    1    2    0    0 -0.74556732635E+02  0.33018135096E+02 -0.82970350708E+02  0.11633134884E+03  0.00000000000E+00 0. -1.
         11    1    1    2    0    0 -0.92386712671E+01  0.15233723339E+02  0.28999964790E+02  0.34035530426E+02  0.00000000000E+00 0.  1.
</event>
<event>
 7    1  0.2728221E-009  0.6197295E+02  0.7561462E-02  0.1389734E+00
          3   -1    0    0  501    0  0.00000000000E+00  0.00000000000E+00  0.81236583752E+02  0.81236583752E+02  0.00000000000E+00 0. -1.
         -3   -1    0    0    0  501 -0.00000000000E+00 -0.00000000000E+00 -0.17092151113E+03  0.17092151113E+03  0.00000000000E+00 0.  1.
         25    2    1    2    0    0 -0.29196807119E+02  0.35451615165E+01 -0.94126626790E+02  0.15929131411E+03  0.12509548018E+03 0.  0.
          5    1    3    3  502    0 -0.18350256774E+02  0.18838574839E+02  0.26249785232E+02  0.37391809937E+02  0.41800000000E+01 0. -1.
         -5    1    3    3    0  502 -0.10846550345E+02 -0.15293413323E+02 -0.12037641202E+03  0.12189950417E+03  0.41800000000E+01 0. -1.
        -11    1    1    2    0    0 -0.18133716385E+02  0.18490741243E+02 -0.22328266079E+02  0.34194892129E+02  0.00000000000E+00 0.  1.
         11    1    1    2    0    0  0.47330523504E+02 -0.22035902759E+02  0.26769965488E+02  0.58671888651E+02  0.00000000000E+00 0. -1.
</event>
<event>
 7    1  0.2728221E-009  0.9394299E+02  0.7561462E-02  0.1293575E+00
         -2   -1    0    0    0  501 -0.00000000000E+00  0.00000000000E+00  0.29750613594E+03  0.29750613594E+03  0.00000000000E+00 0.  1.
          2   -1    0    0  501    0  0.00000000000E+00 -0.00000000000E+00 -0.46441647157E+02  0.46441647157E+02  0.00000000000E+00 0. -1.
         25    2    1    2    0    0 -0.44514241413E+02 -0.14288649947E+02  0.12567027269E+03  0.18337750414E+03  0.12509439788E+03 0.  0.
          5    1    3    3  502    0 -0.64938065626E+02 -0.31166815495E+02  0.20739705624E+02  0.75072834932E+02  0.41800000000E+01 0. -1.
         -5    1    3    3    0  502  0.20423824213E+02  0.16878165548E+02  0.10493056706E+03  0.10830466921E+03  0.41800000000E+01 0. -1.
        -11    1    1    2    0    0  0.62085827238E+02 -0.56414694894E+01  0.11722761093E+03  0.13277344947E+03  0.00000000000E+00 0.  1.
         11    1    1    2    0    0 -0.17571585824E+02  0.19930119436E+02  0.81666051643E+01  0.27796829478E+02  0.00000000000E+00 0. -1.
</event>
<event>
 7    1  0.2728221E-009  0.1936943E+03  0.7561462E-02  0.1155171E+00
         -3   -1    0    0    0  501 -0.00000000000E+00  0.00000000000E+00  0.21325959575E+03  0.21325959575E+03  0.00000000000E+00 0.  1.
          3   -1    0    0  501    0  0.00000000000E+00 -0.00000000000E+00 -0.19588313690E+03  0.19588313690E+03  0.00000000000E+00 0. -1.
         25    2    1    2    0    0  0.17248152516E+03  0.15190090541E+01  0.18874616402E+02  0.21390958434E+03  0.12509546442E+03 0.  0.
          5    1    3    3  502    0  0.10443714937E+03  0.62042501753E+02  0.16974097371E+02  0.12272726907E+03  0.41800000000E+01 0. -1.
         -5    1    3    3    0  502  0.68044375792E+02 -0.60523492699E+02  0.19005190305E+01  0.91182315270E+02  0.41800000000E+01 0. -1.
        -11    1    1    2    0    0 -0.10414335913E+03  0.12581395536E+02  0.42012873603E+02  0.11300093943E+03  0.00000000000E+00 0.  1.
         11    1    1    2    0    0 -0.68338166032E+02 -0.14100404590E+02 -0.43511031150E+02  0.82232208884E+02  0.00000000000E+00 0. -1.
</event>
<event>
 7    1  0.2728221E-009  0.1111006E+03  0.7561462E-02  0.1258545E+00
         -1   -1    0    0    0  501 -0.00000000000E+00  0.00000000000E+00  0.15743858687E+03  0.15743858687E+03  0.00000000000E+00 0.  1.
          1   -1    0    0  501    0  0.00000000000E+00 -0.00000000000E+00 -0.11248231182E+03  0.11248231182E+03  0.00000000000E+00 0. -1.
         25    2    1    2    0    0  0.68849164961E+02  0.20621973672E+02  0.48765781417E+02  0.15229153243E+03  0.12509650714E+03 0.  0.
          5    1    3    3  502    0  0.21250199421E+02  0.58663313691E+02 -0.14671559408E+02  0.64231475182E+02  0.41800000000E+01 0.  1.
         -5    1    3    3    0  502  0.47598965540E+02 -0.38041340019E+02  0.63437340825E+02  0.88060057244E+02  0.41800000000E+01 0.  1.
        -11    1    1    2    0    0  0.29247097556E+01 -0.26422569364E+02 -0.30839099207E+02  0.40715551560E+02  0.00000000000E+00 0. -1.
         11    1    1    2    0    0 -0.71773874717E+02  0.58005956922E+01  0.27029592846E+02  0.76913814700E+02  0.00000000000E+00 0.  1.
</event>
<event>
 7    1  0.2728221E-009  0.1053652E+03  0.7561462E-02  0.1269402E+00
          1   -1    0    0  501    0  0.00000000000E+00  0.00000000000E+00  0.55581548410E+02  0.55581548410E+02  0.00000000000E+00 0. -1.
         -1   -1    0    0    0  501 -0.00000000000E+00 -0.00000000000E+00 -0.28653313604E+03  0.28653313604E+03  0.00000000000E+00 0.  1.
         25    2    1    2    0    0  0.53070245653E+02  0.20399659446E+02 -0.11769808510E+03  0.18092164978E+03  0.12508879663E+03 0.  0.
          5    1    3    3  502    0 -0.83258375282E+01  0.44898408102E+02  0.13104152772E-01  0.45854761938E+02  0.41800000000E+01 0. -1.
         -5    1    3    3    0  502  0.61396083181E+02 -0.24498748656E+02 -0.11771118925E+03  0.13506688784E+03  0.41800000000E+01 0. -1.
        -11    1    1    2    0    0 -0.74561634281E+02 -0.11788034271E+02 -0.42243201263E+02  0.86503659527E+02  0.00000000000E+00 0. -1.
         11    1    1    2    0    0  0.21491388629E+02 -0.86116251756E+01 -0.71010301274E+02  0.74689375150E+02  0.00000000000E+00 0.  1.
</event>
<event>
 7    1  0.2728221E-009  0.1736668E+03  0.7561462E-02  0.1174077E+00
         -1   -1    0    0    0  501 -0.00000000000E+00  0.00000000000E+00  0.13005532896E+03  0.13005532896E+03  0.00000000000E+00 0.  1.
          1   -1    0    0  501    0  0.00000000000E+00 -0.00000000000E+00 -0.27768135333E+03  0.27768135333E+03  0.00000000000E+00 0. -1.
         25    2    1    2    0    0  0.13673755982E+03 -0.50971525459E+02 -0.13591884207E+03  0.23540813041E+03  0.12509116500E+03 0.  0.
          5    1    3    3  502    0  0.48415511660E+02 -0.84471210891E+02 -0.74343650125E+02  0.12257201129E+03  0.41800000000E+01 0.  1.
         -5    1    3    3    0  502  0.88322048158E+02  0.33499685432E+02 -0.61575191948E+02  0.11283611912E+03  0.41800000000E+01 0.  1.
        -11    1    1    2    0    0 -0.12868330236E+02  0.25936838089E+02 -0.33295916259E+02  0.44124047102E+02  0.00000000000E+00 0. -1.
         11    1    1    2    0    0 -0.12386922958E+03  0.25034687370E+02  0.21588733966E+02  0.12820450477E+03  0.00000000000E+00 0.  1.
</event>
<event>
 7    1  0.2728221E-009  0.1763344E+03  0.7561462E-02  0.1171398E+00
          1   -1    0    0  501    0  0.00000000000E+00  0.00000000000E+00  0.74609335013E+02  0.74609335013E+02  0.00000000000E+00 0. -1.
         -1   -1    0    0    0  501 -0.00000000000E+00 -0.00000000000E+00 -0.47417155162E+03  0.47417155162E+03  0.00000000000E+00 0.  1.
         25    2    1    2    0    0 -0.64645611498E+02 -0.13791027417E+03 -0.23596388546E+03  0.30744836710E+03  0.12508894589E+03 0.  0.
          5    1    3    3  502    0  0.37483088765E+02 -0.47299364400E+02 -0.73186999819E+02  0.94952731180E+02  0.41800000000E+01 0.  1.
         -5    1    3    3    0  502 -0.10212870026E+03 -0.90610909770E+02 -0.16277688564E+03  0.21249563592E+03  0.41800000000E+01 0.  1.
        -11    1    1    2    0    0  0.31349408053E+02  0.33022787569E+02 -0.16877632104E+01  0.45564662062E+02  0.00000000000E+00 0. -1.
         11    1    1    2    0    0  0.33296203445E+02  0.10488748660E+03 -0.16191056794E+03  0.19576785748E+03  0.00000000000E+00 0.  1.
</event>
<event>
 7    1  0.2728221E-009  0.1071466E+03  0.7561462E-02  0.1265947E+00
          1   -1    0    0  501    0  0.00000000000E+00  0.00000000000E+00  0.17417915102E+03  0.17417915102E+03  0.00000000000E+00 0. -1.
         -1   -1    0    0    0  501 -0.00000000000E+00 -0.00000000000E+00 -0.96028103942E+02  0.96028103942E+02  0.00000000000E+00 0.  1.
         25    2    1    2    0    0 -0.12499636457E+02 -0.23570223419E+02  0.10980539619E+03  0.16855812547E+03  0.12507126083E+03 0.  0.
          5    1    3    3  502    0  0.22971633310E+02 -0.61403470841E+02  0.93039582527E+02  0.11389433035E+03  0.41800000000E+01 0. -1.
         -5    1    3    3    0  502 -0.35471269767E+02  0.37833247422E+02  0.16765813659E+02  0.54663795121E+02  0.41800000000E+01 0. -1.
        -11    1    1    2    0    0  0.48831824092E+02  0.33120799473E+02 -0.18240337611E+02  0.61759568636E+02  0.00000000000E+00 0. -1.
         11    1    1    2    0    0 -0.36332187635E+02 -0.95505760546E+01 -0.13414011496E+02  0.39889560862E+02  0.00000000000E+00 0.  1.
</event>
<event>
 7    1  0.2728221E-009  0.9186559E+02  0.7561462E-02  0.1298396E+00
         -2   -1    0    0    0  501 -0.00000000000E+00  0.00000000000E+00  0.73584368692E+02  0.73584368692E+02  0.00000000000E+00 0.  1.
          2   -1    0    0  501    0  0.00000000000E+00 -0.00000000000E+00 -0.19438450025E+03  0.19438450025E+03  0.00000000000E+00 0. -1.
         25    2    1    2    0    0 -0.17362021798E+02  0.40535136191E+02 -0.91496062200E+02  0.16113947788E+03  0.12509941993E+03 0.  0.
          5    1    3    3  502    0 -0.29227335181E+02  0.79756330589E+02 -0.36793229318E+02  0.92663496127E+02  0.41800000000E+01 0.  1.
         -5    1    3    3    0  502  0.11865313383E+02 -0.39221194398E+02 -0.54702832882E+02  0.68475981753E+02  0.41800000000E+01 0.  1.
        -11    1    1    2    0    0  0.22784506033E+02 -0.74530058609E+01  0.30184132549E+02  0.38545594680E+02  0.00000000000E+00 0.  1.
         11    1    1    2    0    0 -0.54224842347E+01 -0.33082130330E+02 -0.59488201908E+02  0.68283796384E+02  0.00000000000E+00 0. -1.
</event>
<event>
 7    1  0.2728221E-009  0.1281662E+03  0.7561462E-02  0.1230202E+00
         -1   -1    0    0    0  501 -0.00000000000E+00  0.00000000000E+00  0.86346121561E+02  0.86346121561E+02  0.00000000000E+00 0.  1.
          1   -1    0    0  501    0  0.00000000000E+00 -0.00000000000E+00 -0.22964324293E+03  0.22964324293E+03  0.00000000000E+00 0. -1.
         25    2    1    2    0    0  0.75338221104E+02 -0.46430356112E+02 -0.77467338158E+02  0.17169685658E+03  0.12508795526E+03 0.  0.
          5    1    3    3  502    0  0.52193086139E+02  0.36143295379E+02 -0.51917682885E+02  0.82118050621E+02  0.41800000000E+01 0.  1.
         -5    1    3    3    0  502  0.23145134965E+02 -0.82573651492E+02 -0.25549655273E+02  0.89578805963E+02  0.41800000000E+01 0.  1.
        -11    1    1    2    0    0 -0.50904153365E+02 -0.37458734852E+01 -0.71877052923E+02  0.88156537675E+02  0.00000000000E+00 0. -1.
         11    1    1    2    0    0 -0.24434067738E+02  0.50176229598E+02  0.60472697128E+01  0.56135970232E+02  0.00000000000E+00 0.  1.
</event>
<event>
 7    1  0.2728221E-009  0.1055141E+03  0.7561462E-02  0.1269110E+00
          1   -1    0    0  501    0  0.00000000000E+00  0.00000000000E+00  0.53940668402E+03  0.53940668402E+03  0.00000000000E+00 0. -1.
         -1   -1    0    0    0  501 -0.00000000000E+00 -0.00000000000E+00 -0.55309607897E+02  0.55309607897E+02  0.00000000000E+00 0.  1.
         25    2    1    2    0    0  0.73533441796E+02  0.45831546087E+02  0.43619875467E+03  0.46197780951E+03  0.12508575148E+03 0.  0.
          5    1    3    3  502    0  0.83192775512E+02  0.46047163674E+02  0.16431370626E+03  0.18988903508E+03  0.41800000000E+01 0.  1.
         -5    1    3    3    0  502 -0.96593337163E+01 -0.21561758654E+00  0.27188504841E+03  0.27208877443E+03  0.41800000000E+01 0.  1.
        -11    1    1    2    0    0 -0.77865789863E+02 -0.21738121343E+02  0.21727680788E+01  0.80872418485E+02  0.00000000000E+00 0.  1.
         11    1    1    2    0    0  0.43323480676E+01 -0.24093424745E+02  0.45725553374E+02  0.51866063925E+02  0.00000000000E+00 0. -1.
</event>
<event>
 7    1  0.2728221E-009  0.6651524E+02  0.7561462E-02  0.1372361E+00
          1   -1    0    0  501    0  0.00000000000E+00  0.00000000000E+00  0.63673762277E+02  0.63673762277E+02  0.00000000000E+00 0. -1.
         -1   -1    0    0    0  501 -0.00000000000E+00 -0.00000000000E+00 -0.24360663058E+03  0.24360663058E+03  0.00000000000E+00 0.  1.
         25    2    1    2    0    0  0.24540194000E+02 -0.65331624166E+01 -0.27907671690E+02  0.13064995831E+03  0.12508265321E+03 0.  0.
          5    1    3    3  502    0  0.26162761316E+02  0.27941046844E+02  0.39277338981E+02  0.55003399312E+02  0.41800000000E+01 0. -1.
         -5    1    3    3    0  502 -0.16225673162E+01 -0.34474209260E+02 -0.67185010671E+02  0.75646558994E+02  0.41800000000E+01 0. -1.
        -11    1    1    2    0    0 -0.41968734365E+02  0.42606798120E+01 -0.15330966958E+03  0.15900749305E+03  0.00000000000E+00 0.  1.
         11    1    1    2    0    0  0.17428540365E+02  0.22724826046E+01  0.12844729726E+01  0.17622941504E+02  0.00000000000E+00 0. -1.
</event>
<event>
 7    1  0.2728221E-009  0.1065075E+03  0.7561462E-02  0.1267178E+00
         -1   -1    0    0    0  501 -0.00000000000E+00  0.00000000000E+00  0.12414097686E+02  0.12414097686E+02  0.00000000000E+00 0.  1.
          1   -1    0    0  501    0  0.00000000000E+00 -0.00000000000E+00 -0.11077146717E+04  0.11077146717E+04  0.00000000000E+00 0. -1.
         25    2    1    2    0    0  0.77710258575E+00  0.19835776995E+02 -0.80455741770E+03  0.81446595758E+03  0.12509234886E+03 0.  0.
          5    1    3    3  502    0 -0.58151865511E+02  0.13574273136E+02 -0.54068738100E+03  0.54399100794E+03  0.41800000000E+01 0.  1.
         -5    1    3    3    0  502  0.58928968097E+02  0.62615038592E+01 -0.26387003670E+03  0.27047494964E+03  0.41800000000E+01 0.  1.
        -11    1    1    2    0    0 -0.32502072764E+02  0.23450294383E+02 -0.10775266679E+03  0.11496494353E+03  0.00000000000E+00 0. -1.
         11    1    1    2    0    0  0.31724970178E+02 -0.43286071378E+02 -0.18299048950E+03  0.19069786825E+03  0.00000000000E+00 0.  1.
</event>
<event>
 7    1  0.2728221E-009  0.8890342E+02  0.7561462E-02  0.1305529E+00
          2   -1    0    0  501    0  0.00000000000E+00  0.00000000000E+00  0.94314354402E+02  0.94314354402E+02  0.00000000000E+00 0. -1.
         -2   -1    0    0    0  501 -0.00000000000E+00 -0.00000000000E+00 -0.16401928080E+03  0.16401928080E+03  0.00000000000E+00 0.  1.
         25    2    1    2    0    0  0.55221969389E+02  0.98801561722E+00 -0.67305201041E+02  0.15240680737E+03  0.12508957897E+03 0.  0.
          5    1    3    3  502    0 -0.22297025937E+02  0.13474810695E+02 -0.68880855709E+02  0.73761592798E+02  0.41800000000E+01 0. -1.
         -5    1    3    3    0  502  0.77518995326E+02 -0.12486795077E+02  0.15756546676E+01  0.78645214573E+02  0.41800000000E+01 0. -1.
        -11    1    1    2    0    0 -0.25332439658E+02 -0.24133826827E+02 -0.39632265173E+02  0.52866724308E+02  0.00000000000E+00 0.  1.
         11    1    1    2    0    0 -0.29889529731E+02  0.23145811210E+02  0.37232539819E+02  0.53060103519E+02  0.00000000000E+00 0. -1.
</event>
<event>
 7    1  0.2728221E-009  0.1378832E+03  0.7561462E-02  0.1216206E+00
         -1   -1    0    0    0  501 -0.00000000000E+00  0.00000000000E+00  0.76486191964E+02  0.76486191964E+02  0.00000000000E+00 0.  1.
          1   -1    0    0  501    0  0.00000000000E+00 -0.00000000000E+00 -0.34684184743E+03  0.34684184743E+03  0.00000000000E+00 0. -1.
         25    2    1    2    0    0 -0.94383722661E+02 -0.57813933985E+02 -0.80434831838E+02  0.18538627827E+03  0.12509025514E+03 0.  0.
          5    1    3    3  502    0 -0.12373707041E+03 -0.51538098735E+02 -0.52019005901E+02  0.14384188399E+03  0.41800000000E+01 0. -1.
         -5    1    3    3    0  502  0.29353347751E+02 -0.62758352499E+01 -0.28415825937E+02  0.41544394279E+02  0.41800000000E+01 0. -1.
        -11    1    1    2    0    0  0.78340521484E+02  0.42276661747E+02 -0.19559389249E+03  0.21489886974E+03  0.00000000000E+00 0. -1.
         11    1    1    2    0    0  0.16043201177E+02  0.15537272238E+02  0.56730688711E+01  0.23042891377E+02  0.00000000000E+00 0.  1.
</event>
<event>
 7    1  0.2728221E-009  0.7689178E+02  0.7561462E-02  0.1338111E+00
         -2   -1    0    0    0  501 -0.00000000000E+00  0.00000000000E+00  0.17816412870E+03  0.17816412870E+03  0.00000000000E+00 0.  1.
          2   -1    0    0  501    0  0.00000000000E+00 -0.00000000000E+00 -0.70066315962E+02  0.70066315962E+02  0.00000000000E+00 0. -1.
         25    2    1    2    0    0  0.24070601141E+02  0.99941958816E+01  0.74036078622E+02  0.14767211181E+03  0.12508570613E+03 0.  0.
          5    1    3    3  502    0  0.67906997506E+01 -0.54044121450E+02  0.57234212010E+02  0.79120844857E+02  0.41800000000E+01 0. -1.
         -5    1    3    3    0  502  0.17279901391E+02  0.64038317331E+02  0.16801866612E+02  0.68551266949E+02  0.41800000000E+01 0. -1.
        -11    1    1    2    0    0 -0.17018629283E+02  0.35856798569E+01  0.64331328554E+02  0.66640908429E+02  0.00000000000E+00 0.  1.
         11    1    1    2    0    0 -0.70519718587E+01 -0.13579875738E+02 -0.30269594439E+02  0.33917424426E+02  0.00000000000E+00 0. -1.
</event>
<event>
 7    1  0.2728221E-009  0.5016701E+02  0.7561462E-02  0.1444443E+00
          2   -1    0    0  501    0  0.00000000000E+00  0.00000000000E+00  0.48982911414E+02  0.48982911414E+02  0.00000000000E+00 0. -1.
         -2   -1    0    0    0  501 -0.00000000000E+00 -0.00000000000E+00 -0.32975788777E+03  0.32975788777E+03  0.00000000000E+00 0.  1.
         25    2    1    2    0    0 -0.10351383186E+02  0.23098997126E+02 -0.24966872051E+03  0.28039645434E+03  0.12508791630E+03 0.  0.
          5    1    3    3  502    0 -0.75319245116E+01  0.13898497824E+02 -0.26295746662E+03  0.26346536732E+03  0.41800000000E+01 0. -1.
         -5    1    3    3    0  502 -0.28194586747E+01  0.92004993026E+01  0.13288746106E+02  0.16931087021E+02  0.41800000000E+01 0. -1.
        -11    1    1    2    0    0  0.24648324526E+02  0.17643930805E+02  0.16138381180E+02  0.34340872781E+02  0.00000000000E+00 0. -1.
         11    1    1    2    0    0 -0.14296941340E+02 -0.40742927931E+02 -0.47244637025E+02  0.64003472060E+02  0.00000000000E+00 0.  1.
</event>
<event>
 7    1  0.2728221E-009  0.9393288E+02  0.7561462E-02  0.1293598E+00
          1   -1    0    0  501    0  0.00000000000E+00  0.00000000000E+00  0.39284960769E+02  0.39284960769E+02  0.00000000000E+00 0. -1.
         -1   -1    0    0    0  501 -0.00000000000E+00 -0.00000000000E+00 -0.34627118172E+03  0.34627118172E+03  0.00000000000E+00 0.  1.
         25    2    1    2    0    0  0.37675377425E+02 -0.20451232302E+02 -0.17114781216E+03  0.21626881080E+03  0.12507173122E+03 0.  0.
          5    1    3    3  502    0 -0.11938294049E+02 -0.55391064014E+02 -0.33938219649E+02  0.66181326599E+02  0.41800000000E+01 0. -1.
         -5    1    3    3    0  502  0.49613671475E+02  0.34939831712E+02 -0.13720959251E+03  0.15008748420E+03  0.41800000000E+01 0. -1.
        -11    1    1    2    0    0 -0.22092189461E+02 -0.18152078561E+02 -0.12216929811E+03  0.12547071448E+03  0.00000000000E+00 0.  1.
         11    1    1    2    0    0 -0.15583187965E+02  0.38603310863E+02 -0.13669110682E+02  0.43816617208E+02  0.00000000000E+00 0. -1.
</event>
<event>
 7    1  0.2728221E-009  0.9581178E+02  0.7561462E-02  0.1289358E+00
         -1   -1    0    0    0  501 -0.00000000000E+00  0.00000000000E+00  0.51388813095E+02  0.51388813095E+02  0.00000000000E+00 0.  1.
          1   -1    0    0  501    0  0.00000000000E+00 -0.00000000000E+00 -0.43203346872E+03  0.43203346872E+03  0.00000000000E+00 0. -1.
         25    2    1    2    0    0  0.34578483791E+02  0.86145012127E+02 -0.27379563844E+03  0.31500454949E+03  0.12508868820E+03 0.  0.
          5    1    3    3  502    0  0.23090938177E+02  0.23089891240E+02 -0.24034044941E+03  0.24258470381E+03  0.41800000000E+01 0.  1.
         -5    1    3    3    0  502  0.11487545614E+02  0.63055120888E+02 -0.33455189029E+02  0.72419845673E+02  0.41800000000E+01 0.  1.
        -11    1    1    2    0    0 -0.21045540501E+02 -0.29522566392E+02 -0.10399143494E+03  0.11013044648E+03  0.00000000000E+00 0. -1.
         11    1    1    2    0    0 -0.13532943290E+02 -0.56622445735E+02 -0.28575822497E+01  0.58287285847E+02  0.00000000000E+00 0.  1.
</event>
<event>
 7    1  0.2728221E-009  0.1239292E+03  0.7561462E-02  0.1236752E+00
         -2   -1    0    0    0  501 -0.00000000000E+00  0.00000000000E+00  0.51033710807E+03  0.51033710807E+03  0.00000000000E+00 0.  1.
          2   -1    0    0  501    0  0.00000000000E+00 -0.00000000000E+00 -0.44337688823E+02  0.44337688823E+02  0.00000000000E+00 0. -1.
         25    2    1    2    0    0 -0.59914075089E+02 -0.75244088661E+02  0.36349708377E+03  0.39626915730E+03  0.12509095030E+03 0.  0.
          5    1    3    3  502    0  0.29395540334E+01  0.22286677899E+02  0.11452275114E+02  0.25572719741E+02  0.41800000000E+01 0.  1.
         -5    1    3    3    0  502 -0.62853629123E+02 -0.97530766560E+02  0.35204480865E+03  0.37069643756E+03  0.41800000000E+01 0.  1.
        -11    1    1    2    0    0  0.54384994162E+02  0.27716278861E+02  0.90352282504E+02  0.10903877594E+03  0.00000000000E+00 0.  1.
         11    1    1    2    0    0  0.55290809273E+01  0.47527809800E+02  0.12150052980E+02  0.49366863661E+02  0.00000000000E+00 0. -1.
</event>
<event>
 7    1  0.2728221E-009  0.7007117E+02  0.7561462E-02  0.1359851E+00
         -1   -1    0    0    0  501 -0.00000000000E+00  0.00000000000E+00  0.64840367382E+02  0.64840367382E+02  0.00000000000E+00 0.  1.
          1   -1    0    0  501    0  0.00000000000E+00 -0.00000000000E+00 -0.18815227408E+03  0.18815227408E+03  0.00000000000E+00 0. -1.
         25    2    1    2    0    0 -0.91112037948E+01 -0.21710912368E+02 -0.53489189761E+02  0.13806894038E+03  0.12509021195E+03 0.  0.
          5    1    3    3  502    0 -0.38645962354E+02 -0.99667146712E+01 -0.84451262090E+02  0.93500448535E+02  0.41800000000E+01 0.  1.
         -5    1    3    3    0  502  0.29534758559E+02 -0.11744197697E+02  0.30962072329E+02  0.44568491848E+02  0.41800000000E+01 0.  1.
        -11    1    1    2    0    0  0.30207299579E+02 -0.82493346510E+01  0.49054271582E+01  0.31695357478E+02  0.00000000000E+00 0.  1.
         11    1    1    2    0    0 -0.21096095784E+02  0.29960247019E+02 -0.74728144097E+02  0.83228343603E+02  0.00000000000E+00 0. -1.
</event>
<event>
 7    1  0.2728221E-009  0.1497150E+03  0.7561462E-02  0.1200824E+00
          2   -1    0    0  501    0  0.00000000000E+00  0.00000000000E+00  0.87437455337E+03  0.87437455337E+03  0.00000000000E+00 0. -1.
         -2   -1    0    0    0  501 -0.00000000000E+00 -0.00000000000E+00 -0.40673047267E+02  0.40673047267E+02  0.00000000000E+00 0.  1.
         25    2    1    2    0    0  0.81200956472E+02  0.73576161323E+02  0.17664255220E+03  0.24260528821E+03  0.12509071816E+03 0.  0.
          5    1    3    3  502    0  0.63472318041E+00 -0.27715678105E+02  0.64820754443E+01  0.28775882061E+02  0.41800000000E+01 0. -1.
         -5    1    3    3    0  502  0.80566233292E+02  0.10129183943E+03  0.17016047676E+03  0.21382940615E+03  0.41800000000E+01 0. -1.
        -11    1    1    2    0    0  0.65695452326E+01 -0.50800368994E+02  0.27879091189E+03  0.28345759641E+03  0.00000000000E+00 0.  1.
         11    1    1    2    0    0 -0.87770501705E+02 -0.22775792329E+02  0.37826804201E+03  0.38898471602E+03  0.00000000000E+00 0. -1.
</event>
<event>
 7    1  0.2728221E-009  0.1057679E+03  0.7561462E-02  0.1268614E+00
         -2   -1    0    0    0  501 -0.00000000000E+00  0.00000000000E+00  0.26766609710E+02  0.26766609710E+02  0.00000000000E+00 0.  1.
          2   -1    0    0  501    0  0.00000000000E+00 -0.00000000000E+00 -0.58479436679E+03  0.58479436679E+03  0.00000000000E+00 0. -1.
         25    2    1    2    0    0  0.13783219204E+02  0.62424351143E+02 -0.28882705102E+03  0.32118030410E+03  0.12509574572E+03 0.  0.
          5    1    3    3  502    0  0.37132792768E+02  0.74401341104E+02 -0.98350936886E+02  0.12885954774E+03  0.41800000000E+01 0. -1.
         -5    1    3    3    0  502 -0.23349573563E+02 -0.11976989961E+02 -0.19047611413E+03  0.19232075636E+03  0.41800000000E+01 0. -1.
        -11    1    1    2    0    0 -0.11501031369E+02 -0.81593640739E+02 -0.16527348039E+03  0.18467571376E+03  0.00000000000E+00 0.  1.
         11    1    1    2    0    0 -0.22821878353E+01  0.19169289596E+02 -0.10392722568E+03  0.10570495864E+03  0.00000000000E+00 0. -1.
</event>
<event>
 7    1  0.2728221E-009  0.1469801E+03  0.7561462E-02  0.1204234E+00
         -3   -1    0    0    0  501 -0.00000000000E+00  0.00000000000E+00  0.35445477816E+03  0.35445477816E+03  0.00000000000E+00 0.  1.
          3   -1    0    0  501    0  0.00000000000E+00 -0.00000000000E+00 -0.93497832631E+02  0.93497832631E+02  0.00000000000E+00 0. -1.
         25    2    1    2    0    0 -0.12760079072E+03  0.70278055646E+02  0.13522024104E+03  0.23484203275E+03  0.12508117310E+03 0.  0.
          5    1    3    3  502    0 -0.23637205559E+02  0.20297684621E+02  0.11300308710E+03  0.11729400488E+03  0.41800000000E+01 0.  1.
         -5    1    3    3    0  502 -0.10396358516E+03  0.49980371025E+02  0.22217153940E+02  0.11754802787E+03  0.41800000000E+01 0.  1.
        -11    1    1    2    0    0  0.18545500322E+02 -0.25491942041E+01 -0.13985465662E+02  0.23367225404E+02  0.00000000000E+00 0. -1.
         11    1    1    2    0    0  0.10905529040E+03 -0.67728861442E+02  0.13972217016E+03  0.18974335264E+03  0.00000000000E+00 0.  1.
</event>
<event>
 7    1  0.2728221E-009  0.7967843E+02  0.7561462E-02  0.1329966E+00
          2   -1    0    0  501    0  0.00000000000E+00  0.00000000000E+00  0.22493184162E+03  0.22493184162E+03  0.00000000000E+00 0. -1.
         -2   -1    0    0    0  501 -0.00000000000E+00 -0.00000000000E+00 -0.65412191126E+02  0.65412191126E+02  0.00000000000E+00 0.  1.
         25    2    1    2    0    0 -0.34663202660E+02  0.30134526472E+02  0.12868002803E+03  0.18524488312E+03  0.12508992687E+03 0.  0.
          5    1    3    3  502    0  0.66628154533E+01  0.14463563400E+02  0.13874920156E+03  0.13972258626E+03  0.41800000000E+01 0. -1.
         -5    1    3    3    0  502 -0.41326018113E+02  0.15670963073E+02 -0.10069173527E+02  0.45522296869E+02  0.41800000000E+01 0. -1.
        -11    1    1    2    0    0  0.44865872287E+02  0.18701714824E+02  0.25592466997E+02  0.54933368734E+02  0.00000000000E+00 0.  1.
         11    1    1    2    0    0 -0.10202669627E+02 -0.48836241297E+02  0.52471554608E+01  0.50165780887E+02  0.00000000000E+00 0. -1.
</event>
<event>
 7    1  0.2728221E-009  0.1151581E+03  0.7561462E-02  0.1251305E+00
         -2   -1    0    0    0  501 -0.00000000000E+00  0.00000000000E+00  0.29974099309E+02  0.29974099309E+02  0.00000000000E+00 0.  1.
          2   -1    0    0  501    0  0.00000000000E+00 -0.00000000000E+00 -0.58270255859E+03  0.58270255859E+03  0.00000000000E+00 0. -1.
         25    2    1    2    0    0 -0.43024092435E+01  0.71729052948E+02 -0.32782587365E+03  0.35816445296E+03  0.12509358163E+03 0.  0.
          5    1    3    3  502    0  0.31061001236E+01  0.96826392137E+02 -0.31326250656E+03  0.32792662059E+03  0.41800000000E+01 0. -1.
         -5    1    3    3    0  502 -0.74085093670E+01 -0.25097339190E+02 -0.14563367087E+02  0.30237832369E+02  0.41800000000E+01 0. -1.
        -11    1    1    2    0    0  0.27535190446E+02 -0.78056864267E+02 -0.11313682496E+03  0.14018203143E+03  0.00000000000E+00 0.  1.
         11    1    1    2    0    0 -0.23232781203E+02  0.63278113189E+01 -0.11176576067E+03  0.11433017351E+03  0.00000000000E+00 0. -1.
</event>
<event>
 7    1  0.2728221E-009  0.1189717E+03  0.7561462E-02  0.1244803E+00
         -1   -1    0    0    0  501 -0.00000000000E+00  0.00000000000E+00  0.36692908597E+02  0.36692908597E+02  0.00000000000E+00 0.  1.
          1   -1    0    0  501    0  0.00000000000E+00 -0.00000000000E+00 -0.56683379778E+03  0.56683379778E+03  0.00000000000E+00 0. -1.
         25    2    1    2    0    0 -0.34879494479E+02 -0.87171787559E+02 -0.26206550283E+03  0.30519002170E+03  0.12508845626E+03 0.  0.
          5    1    3    3  502    0 -0.47859233053E+02 -0.95302273554E+02 -0.11356964036E+03  0.15584789105E+03  0.41800000000E+01 0. -1.
         -5    1    3    3    0  502  0.12979738574E+02  0.81304859950E+01 -0.14849586247E+03  0.14934213065E+03  0.41800000000E+01 0. -1.
        -11    1    1    2    0    0  0.47296658090E+02  0.90821294656E+02 -0.26625502453E+03  0.28526692679E+03  0.00000000000E+00 0. -1.
         11    1    1    2    0    0 -0.12417163611E+02 -0.36495070970E+01 -0.18203618196E+01  0.13069757892E+02  0.00000000000E+00 0.  1.
</event>
<event>
 7    1  0.2728221E-009  0.1072280E+03  0.7561462E-02  0.1265791E+00
         -2   -1    0    0    0  501 -0.00000000000E+00  0.00000000000E+00  0.62155754141E+03  0.62155754141E+03  0.00000000000E+00 0.  1.
          2   -1    0    0  501    0  0.00000000000E+00 -0.00000000000E+00 -0.19392903142E+02  0.19392903142E+02  0.00000000000E+00 0. -1.
         25    2    1    2    0    0 -0.31557911012E+01 -0.18371149733E+02  0.31731495082E+03  0.34158951956E+03  0.12508862338E+03 0.  0.
          5    1    3    3  502    0 -0.59301511320E+02 -0.29919896841E+02  0.20315125265E+03  0.21377505309E+03  0.41800000000E+01 0.  1.
         -5    1    3    3    0  502  0.56145720219E+02  0.11548747107E+02  0.11416369817E+03  0.12781446647E+03  0.41800000000E+01 0.  1.
        -11    1    1    2    0    0 -0.39966177648E+02  0.24494086370E+02  0.17561483761E+03  0.18176310630E+03  0.00000000000E+00 0.  1.
         11    1    1    2    0    0  0.43121968749E+02 -0.61229366363E+01  0.10923484984E+03  0.11759781869E+03  0.00000000000E+00 0. -1.
</event>
<event>
 7    1  0.2728221E-009  0.3158809E+03  0.7561462E-02  0.1077561E+00
         -2   -1    0    0    0  501 -0.00000000000E+00  0.00000000000E+00  0.53241442606E+02  0.53241442606E+02  0.00000000000E+00 0. -1.
          2   -1    0    0  501    0  0.00000000000E+00 -0.00000000000E+00 -0.20576133279E+04  0.20576133279E+04  0.00000000000E+00 0.  1.
         25    2    1    2    0    0  0.18256642729E+03  0.23668930997E+03 -0.13030471329E+04  0.13427330466E+04  0.12509146361E+03 0.  0.
          5    1    3    3  502    0  0.18608617513E+03  0.24623932220E+03 -0.12853519856E+04  0.13218960125E+04  0.41800000000E+01 0.  1.
         -5    1    3    3    0  502 -0.35197478380E+01 -0.95500122307E+01 -0.17695147229E+02  0.20837034192E+02  0.41800000000E+01 0.  1.
        -11    1    1    2    0    0 -0.14766745211E+03 -0.11996555277E+03 -0.45987356180E+03  0.49767570074E+03  0.00000000000E+00 0.  1.
         11    1    1    2    0    0 -0.34898975188E+02 -0.11672375719E+03 -0.24145119060E+03  0.27044602309E+03  0.00000000000E+00 0. -1.
</event>
<event>
 7    1  0.2728221E-009  0.9321950E+02  0.7561462E-02  0.1295237E+00
         -1   -1    0    0    0  501 -0.00000000000E+00  0.00000000000E+00  0.11551433461E+03  0.11551433461E+03  0.00000000000E+00 0.  1.
          1   -1    0    0  501    0  0.00000000000E+00 -0.00000000000E+00 -0.18928076870E+03  0.18928076870E+03  0.00000000000E+00 0. -1.
         25    2    1    2    0    0 -0.70903874547E+02  0.17750211878E+02  0.32379736918E+02  0.14845217941E+03  0.12508865960E+03 0.  0.
          5    1    3    3  502    0 -0.40555673764E+02  0.38379764413E+02  0.74007055745E+02  0.92802401321E+02  0.41800000000E+01 0. -1.
         -5    1    3    3    0  502 -0.30348200783E+02 -0.20629552535E+02 -0.41627318827E+02  0.55649778089E+02  0.41800000000E+01 0. -1.
        -11    1    1    2    0    0  0.15615922827E+02 -0.32701437056E+02 -0.58287369609E+00  0.36243354881E+02  0.00000000000E+00 0.  1.
         11    1    1    2    0    0  0.55287951720E+02  0.14951225178E+02 -0.10556329731E+03  0.12009956902E+03  0.00000000000E+00 0. -1.
</event>
<event>
 7    1  0.2728221E-009  0.9902154E+02  0.7561462E-02  0.1282367E+00
          1   -1    0    0  501    0  0.00000000000E+00  0.00000000000E+00  0.15734051464E+03  0.15734051464E+03  0.00000000000E+00 0. -1.
         -1   -1    0    0    0  501 -0.00000000000E+00 -0.00000000000E+00 -0.91223046194E+02  0.91223046194E+02  0.00000000000E+00 0.  1.
         25    2    1    2    0    0 -0.14235545569E+02  0.49045102644E+02  0.35266430438E+02  0.13964637595E+03  0.12509722758E+03 0.  0.
          5    1    3    3  502    0  0.27260253371E+02 -0.14618423200E+02 -0.27032354986E+02  0.41292133958E+02  0.41800000000E+01 0. -1.
         -5    1    3    3    0  502 -0.41495798940E+02  0.63663525843E+02  0.62298785425E+02  0.98354241992E+02  0.41800000000E+01 0. -1.
        -11    1    1    2    0    0  0.20243136350E+02  0.15749975045E+02 -0.14628097691E+02  0.29526725610E+02  0.00000000000E+00 0.  1.
         11    1    1    2    0    0 -0.60075907812E+01 -0.64795077689E+02  0.45479135696E+02  0.79390459272E+02  0.00000000000E+00 0. -1.
</event>
<event>
 7    1  0.2728221E-009  0.1698190E+03  0.7561462E-02  0.1178037E+00
          2   -1    0    0  501    0  0.00000000000E+00  0.00000000000E+00  0.24569977772E+03  0.24569977772E+03  0.00000000000E+00 0. -1.
         -2   -1    0    0    0  501 -0.00000000000E+00 -0.00000000000E+00 -0.15633389299E+03  0.15633389299E+03  0.00000000000E+00 0.  1.
         25    2    1    2    0    0 -0.12423586038E+03  0.82059002422E+02 -0.19087994646E+02  0.19539203435E+03  0.12508183986E+03 0.  0.
          5    1    3    3  502    0 -0.95450090995E+02 -0.17759924304E+01 -0.41010178254E+02  0.10398644691E+03  0.41800000000E+01 0.  1.
         -5    1    3    3    0  502 -0.28785769388E+02  0.83834994853E+02  0.21922183609E+02  0.91405587441E+02  0.41800000000E+01 0.  1.
        -11    1    1    2    0    0  0.56216422919E+02 -0.11586157170E+02  0.90346889078E+02  0.10703777656E+03  0.00000000000E+00 0. -1.
         11    1    1    2    0    0  0.68019437465E+02 -0.70472845252E+02  0.18106990299E+02  0.99603859808E+02  0.00000000000E+00 0.  1.
</event>
<event>
 7    1  0.2728221E-009  0.2909622E+03  0.7561462E-02  0.1089848E+00
         -2   -1    0    0    0  501 -0.00000000000E+00  0.00000000000E+00  0.10734714939E+03  0.10734714939E+03  0.00000000000E+00 0.  1.
          2   -1    0    0  501    0  0.00000000000E+00 -0.00000000000E+00 -0.83834589528E+03  0.83834589528E+03  0.00000000000E+00 0. -1.
         25    2    1    2    0    0  0.65493948641E+02  0.27178381814E+03 -0.40741160021E+03  0.50969332425E+03  0.12508865530E+03 0.  0.
          5    1    3    3  502    0  0.56259877527E+02  0.28144802500E+03 -0.40344064903E+03  0.49513633909E+03  0.41800000000E+01 0.  1.
         -5    1    3    3    0  502  0.92340711142E+01 -0.96642068601E+01 -0.39709511762E+01  0.14556985156E+02  0.41800000000E+01 0.  1.
        -11    1    1    2    0    0 -0.41642008713E+02 -0.11545355443E+03 -0.83258314278E+02  0.14830889055E+03  0.00000000000E+00 0.  1.
         11    1    1    2    0    0 -0.23851939928E+02 -0.15633026371E+03 -0.24032883140E+03  0.28769082987E+03  0.00000000000E+00 0. -1.
</event>
<event>
 7    1  0.2728221E-009  0.1537164E+03  0.7561462E-02  0.1195979E+00
          1   -1    0    0  501    0  0.00000000000E+00  0.00000000000E+00  0.46261144472E+03  0.46261144472E+03  0.00000000000E+00 0. -1.
         -1   -1    0    0    0  501 -0.00000000000E+00 -0.00000000000E+00 -0.98294827605E+02  0.98294827605E+02  0.00000000000E+00 0.  1.
         25    2    1    2    0    0  0.51559719608E+02  0.10889512843E+03  0.35153475062E+03  0.39209903600E+03  0.12509364277E+03 0.  0.
          5    1    3    3  502    0  0.68506203953E+02  0.26322637555E+02  0.84269319942E+02  0.11182473747E+03  0.41800000000E+01 0.  1.
         -5    1    3    3    0  502 -0.16946484345E+02  0.82572490879E+02  0.26726543067E+03  0.28027429853E+03  0.41800000000E+01 0.  1.
        -11    1    1    2    0    0  0.94582213830E+01 -0.82508119695E+02  0.45518750622E+02  0.94704827889E+02  0.00000000000E+00 0. -1.
         11    1    1    2    0    0 -0.61017940992E+02 -0.26387008740E+02 -0.32736884125E+02  0.74102408431E+02  0.00000000000E+00 0.  1.
</event>
<event>
 7    1  0.2728221E-009  0.1353800E+03  0.7561462E-02  0.1219684E+00
          1   -1    0    0  501    0  0.00000000000E+00  0.00000000000E+00  0.49285102307E+03  0.49285102307E+03  0.00000000000E+00 0. -1.
         -1   -1    0    0    0  501 -0.00000000000E+00 -0.00000000000E+00 -0.40842346383E+02  0.40842346383E+02  0.00000000000E+00 0.  1.
         25    2    1    2    0    0  0.53980179664E+02 -0.66841433235E+02  0.27522127048E+03  0.31428721800E+03  0.12509224867E+03 0.  0.
          5    1    3    3  502    0  0.68570190229E+02  0.54193817245E+01  0.18671260208E+03  0.19902338772E+03  0.41800000000E+01 0. -1.
         -5    1    3    3    0  502 -0.14590010565E+02 -0.72260814960E+02  0.88508668409E+02  0.11526383028E+03  0.41800000000E+01 0. -1.
        -11    1    1    2    0    0  0.11570144851E+02  0.61127430320E+02  0.67152453746E+02  0.91541701063E+02  0.00000000000E+00 0.  1.
         11    1    1    2    0    0 -0.65550324516E+02  0.57140029149E+01  0.10963495245E+03  0.12786445039E+03  0.00000000000E+00 0. -1.
</event>
<event>
 7    1  0.2728221E-009  0.1490624E+03  0.7561462E-02  0.1201630E+00
         -2   -1    0    0    0  501 -0.00000000000E+00  0.00000000000E+00  0.48596373147E+02  0.48596373147E+02  0.00000000000E+00 0.  1.
          2   -1    0    0  501    0  0.00000000000E+00 -0.00000000000E+00 -0.50221977140E+03  0.50221977140E+03  0.00000000000E+00 0. -1.
         25    2    1    2    0    0  0.29712345610E+02 -0.10164989320E+03 -0.17917102564E+03  0.24282727578E+03  0.12508918884E+03 0.  0.
          5    1    3    3  502    0 -0.86036313272E+01  0.26743343280E+02 -0.44634138111E+02  0.52904702690E+02  0.41800000000E+01 0. -1.
         -5    1    3    3    0  502  0.38315976937E+02 -0.12839323648E+03 -0.13453688753E+03  0.18992257309E+03  0.41800000000E+01 0. -1.
        -11    1    1    2    0    0 -0.17523907915E+02 -0.12082144686E+02 -0.76082189281E+02  0.79003576467E+02  0.00000000000E+00 0.  1.
         11    1    1    2    0    0 -0.12188437695E+02  0.11373203789E+03 -0.19837018332E+03  0.22898529229E+03  0.00000000000E+00 0. -1.
</event>
<event>
 7    1  0.2728221E-009  0.2678235E+03  0.7561462E-02  0.1102532E+00
         -2   -1    0    0    0  501 -0.00000000000E+00  0.00000000000E+00  0.20473718286E+03  0.20473718286E+03  0.00000000000E+00 0.  1.
          2   -1    0    0  501    0  0.00000000000E+00 -0.00000000000E+00 -0.41970508377E+03  0.41970508377E+03  0.00000000000E+00 0. -1.
         25    2    1    2    0    0 -0.21288997475E+03  0.14331912509E+03 -0.23958704333E+02  0.28650287171E+03  0.12508942010E+03 0.  0.
          5    1    3    3  502    0 -0.15217822406E+03  0.94378290444E+02  0.42350012718E+02  0.18405561540E+03  0.41800000000E+01 0.  1.
         -5    1    3    3    0  502 -0.60711750694E+02  0.48940834644E+02 -0.66308717052E+02  0.10244725631E+03  0.41800000000E+01 0.  1.
        -11    1    1    2    0    0  0.14581492732E+03 -0.33278407808E+02 -0.11095431951E+03  0.18622649240E+03  0.00000000000E+00 0.  1.
         11    1    1    2    0    0  0.67075047431E+02 -0.11004071728E+03 -0.80054877068E+02  0.15171290252E+03  0.00000000000E+00 0. -1.
</event>
<event>
 7    1  0.2728221E-009  0.1127220E+03  0.7561462E-02  0.1255611E+00
          3   -1    0    0  501    0  0.00000000000E+00  0.00000000000E+00  0.23761821239E+03  0.23761821239E+03  0.00000000000E+00 0. -1.
         -3   -1    0    0    0  501 -0.00000000000E+00 -0.00000000000E+00 -0.62552137189E+02  0.62552137189E+02  0.00000000000E+00 0.  1.
         25    2    1    2    0    0 -0.55762393054E+02 -0.56482987249E+01  0.90046190283E+02  0.16401712962E+03  0.12510777221E+03 0.  0.
          5    1    3    3  502    0  0.28984997172E+02  0.14753169087E+02  0.65680121537E+02  0.73410740524E+02  0.41800000000E+01 0. -1.
         -5    1    3    3    0  502 -0.84747390225E+02 -0.20401467811E+02  0.24366068746E+02  0.90606389096E+02  0.41800000000E+01 0. -1.
        -11    1    1    2    0    0 -0.13850022285E+02  0.28853999481E+02  0.17709497197E+02  0.36578719146E+02  0.00000000000E+00 0.  1.
         11    1    1    2    0    0  0.69612415339E+02 -0.23205700757E+02  0.67310387718E+02  0.99574500810E+02  0.00000000000E+00 0. -1.
</event>
<event>
 7    1  0.2728221E-009  0.8382852E+02  0.7561462E-02  0.1318525E+00
         -2   -1    0    0    0  501 -0.00000000000E+00  0.00000000000E+00  0.23098399253E+02  0.23098399253E+02  0.00000000000E+00 0.  1.
          2   -1    0    0  501    0  0.00000000000E+00 -0.00000000000E+00 -0.53341763730E+03  0.53341763730E+03  0.00000000000E+00 0. -1.
         25    2    1    2    0    0  0.13700852573E+02  0.21140538586E+02 -0.28416941498E+03  0.31150435034E+03  0.12509223850E+03 0.  0.
          5    1    3    3  502    0 -0.41751255933E+02  0.20228565035E+02 -0.40997913649E+02  0.62053714949E+02  0.41800000000E+01 0.  1.
         -5    1    3    3    0  502  0.55452108506E+02  0.91197355067E+00 -0.24317150134E+03  0.24945063539E+03  0.41800000000E+01 0.  1.
        -11    1    1    2    0    0  0.23802524321E+02 -0.36630479136E+01 -0.12010223688E+02  0.26911401991E+02  0.00000000000E+00 0.  1.
         11    1    1    2    0    0 -0.37503376894E+02 -0.17477490672E+02 -0.21413959938E+03  0.21810028423E+03  0.00000000000E+00 0. -1.
</event>
<event>
 7    1  0.2917785E-009  0.1009353E+03  0.7561462E-02  0.1278341E+00
         -1   -1    0    0    0  501 -0.00000000000E+00  0.00000000000E+00  0.21543371854E+02  0.21543371854E+02  0.00000000000E+00 0.  1.
          1   -1    0    0  501    0  0.00000000000E+00 -0.00000000000E+00 -0.76312909298E+03  0.76312909298E+03  0.00000000000E+00 0. -1.
         25    2    1    2    0    0  0.41726556135E+01 -0.53308532597E+02 -0.54299550724E+03  0.55977743140E+03  0.12508973228E+03 0.  0.
          5    1    3    3  502    0 -0.21489038403E+02 -0.89053788547E+02 -0.37781184651E+03  0.38878222669E+03  0.41800000000E+01 0.  1.
         -5    1    3    3    0  502  0.25661694016E+02  0.35745255951E+02 -0.16518366073E+03  0.17099520471E+03  0.41800000000E+01 0.  1.
        -11    1    1    2    0    0 -0.14341864474E+02  0.30177747320E+01  0.45731587393E+01  0.15352844094E+02  0.00000000000E+00 0.  1.
         11    1    1    2    0    0  0.10169208861E+02  0.50290757865E+02 -0.20316337263E+03  0.20954218934E+03  0.00000000000E+00 0. -1.
</event>
<event>
 7    1  0.2728221E-009  0.9709935E+02  0.7561462E-02  0.1286517E+00
          2   -1    0    0  501    0  0.00000000000E+00  0.00000000000E+00  0.15787594166E+03  0.15787594166E+03  0.00000000000E+00 0.  1.
         -2   -1    0    0    0  501 -0.00000000000E+00 -0.00000000000E+00 -0.85815840945E+02  0.85815840945E+02  0.00000000000E+00 0. -1.
         25    2    1    2    0    0  0.23436746155E+02  0.25755375632E+02  0.74127911698E+02  0.14951576258E+03  0.12508955001E+03 0.  0.
          5    1    3    3  502    0  0.11740824295E+02 -0.35564818894E+02 -0.15050090416E+02  0.40579316401E+02  0.41800000000E+01 0. -1.
         -5    1    3    3    0  502  0.11695921860E+02  0.61320194526E+02  0.89178002114E+02  0.10893644618E+03  0.41800000000E+01 0. -1.
        -11    1    1    2    0    0  0.29050746589E+02 -0.29403219724E+02 -0.39955622355E+01  0.41526614660E+02  0.00000000000E+00 0.  1.
         11    1    1    2    0    0 -0.52487492744E+02  0.36478440915E+01  0.19277512574E+01  0.52649405371E+02  0.00000000000E+00 0. -1.
</event>
<event>
 7    1  0.2728221E-009  0.8260965E+02  0.7561462E-02  0.1321805E+00
          1   -1    0    0  501    0  0.00000000000E+00  0.00000000000E+00  0.33027153792E+03  0.33027153792E+03  0.00000000000E+00 0. -1.
         -1   -1    0    0    0  501 -0.00000000000E+00 -0.00000000000E+00 -0.43794640259E+02  0.43794640259E+02  0.00000000000E+00 0.  1.
         25    2    1    2    0    0  0.15198787937E+02 -0.47152873417E+02  0.17830465043E+03  0.22337146350E+03  0.12509142942E+03 0.  0.
          5    1    3    3  502    0 -0.10881317462E+02 -0.22430124770E+02 -0.13173948064E+02  0.28505067523E+02  0.41800000000E+01 0.  1.
         -5    1    3    3    0  502  0.26080105399E+02 -0.24722748648E+02  0.19147859850E+03  0.19486639598E+03  0.41800000000E+01 0.  1.
        -11    1    1    2    0    0  0.30635221256E+02  0.49115992884E+02  0.71283171629E+02  0.91826946458E+02  0.00000000000E+00 0. -1.
         11    1    1    2    0    0 -0.45834009193E+02 -0.19631194661E+01  0.36889075597E+02  0.58867768220E+02  0.00000000000E+00 0.  1.
</event>
<event>
 7    1  0.2728221E-009  0.1013883E+03  0.7561462E-02  0.1277403E+00
          2   -1    0    0  501    0  0.00000000000E+00  0.00000000000E+00  0.91842669825E+03  0.91842669825E+03  0.00000000000E+00 0. -1.
         -2   -1    0    0    0  501 -0.00000000000E+00 -0.00000000000E+00 -0.17386959357E+02  0.17386959357E+02  0.00000000000E+00 0.  1.
         25    2    1    2    0    0 -0.60760216171E+02  0.35089089298E+02  0.59017788924E+03  0.60735727621E+03  0.12509944829E+03 0.  0.
          5    1    3    3  502    0 -0.14341527326E+02 -0.20532977599E+02  0.43828598924E+03  0.43902091447E+03  0.41800000000E+01 0.  1.
         -5    1    3    3    0  502 -0.46418688844E+02  0.55622066897E+02  0.15189190000E+03  0.16833636174E+03  0.41800000000E+01 0.  1.
        -11    1    1    2    0    0  0.57410870665E+02  0.11127882761E+02  0.19790479689E+03  0.20636411141E+03  0.00000000000E+00 0. -1.
         11    1    1    2    0    0  0.33493455062E+01 -0.46216972059E+02  0.11295705276E+03  0.12209226998E+03  0.00000000000E+00 0.  1.
</event>
<event>
 7    1  0.2728221E-009  0.1148063E+03  0.7561462E-02  0.1251920E+00
          1   -1    0    0  501    0  0.00000000000E+00  0.00000000000E+00  0.50255493502E+02  0.50255493502E+02  0.00000000000E+00 0. -1.
         -1   -1    0    0    0  501 -0.00000000000E+00 -0.00000000000E+00 -0.32757344010E+03  0.32757344010E+03  0.00000000000E+00 0.  1.
         25    2    1    2    0    0 -0.63923858948E+02  0.13422546943E+02 -0.11785609945E+03  0.18385807925E+03  0.12508920264E+03 0.  0.
          5    1    3    3  502    0 -0.84745262433E+02 -0.15045805271E+02 -0.12061419438E+03  0.14823424722E+03  0.41800000000E+01 0.  1.
         -5    1    3    3    0  502  0.20821403485E+02  0.28468352215E+02  0.27580949347E+01  0.35623832031E+02  0.41800000000E+01 0.  1.
        -11    1    1    2    0    0  0.64206254028E+02 -0.43685969619E+02 -0.94580956664E+02  0.12237836558E+03  0.00000000000E+00 0.  1.
         11    1    1    2    0    0 -0.28239507977E+00  0.30263422676E+02 -0.64880890486E+02  0.71592488777E+02  0.00000000000E+00 0. -1.
</event>
<event>
 7    1  0.2728221E-009  0.1173644E+03  0.7561462E-02  0.1247509E+00
         -2   -1    0    0    0  501 -0.00000000000E+00  0.00000000000E+00  0.19906780982E+03  0.19906780982E+03  0.00000000000E+00 0.  1.
          2   -1    0    0  501    0  0.00000000000E+00 -0.00000000000E+00 -0.17057541408E+03  0.17057541408E+03  0.00000000000E+00 0. -1.
         25    2    1    2    0    0 -0.60655442721E+02 -0.49129124723E+02  0.14137448965E+03  0.20427144224E+03  0.12508925679E+03 0.  0.
          5    1    3    3  502    0  0.11417569684E+02  0.31273933429E+02  0.60925626342E+02  0.69554468978E+02  0.41800000000E+01 0. -1.
         -5    1    3    3    0  502 -0.72073012405E+02 -0.80403058153E+02  0.80448863309E+02  0.13471697326E+03  0.41800000000E+01 0. -1.
        -11    1    1    2    0    0 -0.88055667776E+01  0.10255352571E+02 -0.76793255175E+02  0.77973805236E+02  0.00000000000E+00 0. -1.
         11    1    1    2    0    0  0.69461009498E+02  0.38873772153E+02 -0.36088838733E+02  0.87397976424E+02  0.00000000000E+00 0.  1.
</event>
<event>
 7    1  0.2728221E-009  0.1081367E+03  0.7561462E-02  0.1264060E+00
          1   -1    0    0  501    0  0.00000000000E+00  0.00000000000E+00  0.26371759784E+03  0.26371759784E+03  0.00000000000E+00 0. -1.
         -1   -1    0    0    0  501 -0.00000000000E+00 -0.00000000000E+00 -0.78917285454E+02  0.78917285454E+02  0.00000000000E+00 0.  1.
         25    2    1    2    0    0  0.30205303927E+02  0.21535418314E+00  0.16917165440E+01  0.12869638147E+03  0.12508992740E+03 0.  0.
          5    1    3    3  502    0  0.45438158543E+02  0.43550767120E+02 -0.32805584584E+02  0.71098342797E+02  0.41800000000E+01 0. -1.
         -5    1    3    3    0  502 -0.15232854616E+02 -0.43335412937E+02  0.34497301128E+02  0.57598038676E+02  0.41800000000E+01 0. -1.
        -11    1    1    2    0    0 -0.43311449867E+02 -0.43776531165E+02  0.77783361924E+02  0.99209464078E+02  0.00000000000E+00 0. -1.
         11    1    1    2    0    0  0.13106145940E+02  0.43561176982E+02  0.10532523392E+03  0.11472903774E+03  0.00000000000E+00 0.  1.
</event>
<event>
 7    1  0.2728221E-009  0.7563790E+02  0.7561462E-02  0.1341907E+00
          2   -1    0    0  501    0  0.00000000000E+00  0.00000000000E+00  0.55424717792E+03  0.55424717792E+03  0.00000000000E+00 0. -1.
         -2   -1    0    0    0  501 -0.00000000000E+00 -0.00000000000E+00 -0.23718704443E+02  0.23718704443E+02  0.00000000000E+00 0.  1.
         25    2    1    2    0    0  0.35995716556E+02  0.13976650052E+02  0.29171318237E+03  0.31974171674E+03  0.12508855382E+03 0.  0.
          5    1    3    3  502    0  0.16255852104E+02  0.25049524879E+02  0.32116696258E+01  0.30323565854E+02  0.41800000000E+01 0.  1.
         -5    1    3    3    0  502  0.19739864452E+02 -0.11072874827E+02  0.28850151274E+03  0.28941815088E+03  0.41800000000E+01 0.  1.
        -11    1    1    2    0    0  0.28834781366E+02  0.75303191512E+01  0.78332695042E+02  0.83810270465E+02  0.00000000000E+00 0.  1.
         11    1    1    2    0    0 -0.64830497922E+02 -0.21506969203E+02  0.16048259607E+03  0.17441389517E+03  0.00000000000E+00 0. -1.
</event>
<event>
 7    1  0.2728221E-009  0.9381978E+02  0.7561462E-02  0.1293857E+00
         -1   -1    0    0    0  501 -0.00000000000E+00  0.00000000000E+00  0.51938643791E+02  0.51938643791E+02  0.00000000000E+00 0.  1.
          1   -1    0    0  501    0  0.00000000000E+00 -0.00000000000E+00 -0.42928869524E+03  0.42928869524E+03  0.00000000000E+00 0. -1.
         25    2    1    2    0    0 -0.19110455319E+02  0.22285649971E+02 -0.36576447279E+03  0.38767611722E+03  0.12508901873E+03 0.  0.
          5    1    3    3  502    0 -0.35275986352E+02  0.54466591196E+02 -0.33141160896E+03  0.33773085693E+03  0.41800000000E+01 0. -1.
         -5    1    3    3    0  502  0.16165531034E+02 -0.32180941225E+02 -0.34352863832E+02  0.49945260288E+02  0.41800000000E+01 0. -1.
        -11    1    1    2    0    0 -0.29540713735E+02 -0.23413009180E+02  0.11884520757E+02  0.39522962951E+02  0.00000000000E+00 0.  1.
         11    1    1    2    0    0  0.48651169053E+02  0.11273592096E+01 -0.23470099414E+02  0.54028258861E+02  0.00000000000E+00 0. -1.
</event>
<event>
 7    1  0.2728221E-009  0.8011966E+02  0.7561462E-02  0.1328712E+00
          1   -1    0    0  501    0  0.00000000000E+00  0.00000000000E+00  0.27517707576E+03  0.27517707576E+03  0.00000000000E+00 0. -1.
         -1   -1    0    0    0  501 -0.00000000000E+00 -0.00000000000E+00 -0.12359864079E+03  0.12359864079E+03  0.00000000000E+00 0.  1.
         25    2    1    2    0    0 -0.57136745627E+02 -0.27117170784E+02  0.22630391339E+03  0.26619722328E+03  0.12509017474E+03 0.  0.
          5    1    3    3  502    0 -0.60962066561E+01  0.14527858886E+02  0.19032442727E+03  0.19102115704E+03  0.41800000000E+01 0.  1.
         -5    1    3    3    0  502 -0.51040538971E+02 -0.41645029670E+02  0.35979486114E+02  0.75176066242E+02  0.41800000000E+01 0.  1.
        -11    1    1    2    0    0  0.53031079225E+02  0.38695288076E+02 -0.96494026520E+01  0.66353083233E+02  0.00000000000E+00 0. -1.
         11    1    1    2    0    0  0.41056664021E+01 -0.11578117293E+02 -0.65076075771E+02  0.66225410036E+02  0.00000000000E+00 0.  1.
</event>
<event>
 7    1  0.2728221E-009  0.8738353E+02  0.7561462E-02  0.1309314E+00
         -2   -1    0    0    0  501 -0.00000000000E+00  0.00000000000E+00  0.10133910950E+03  0.10133910950E+03  0.00000000000E+00 0. -1.
          2   -1    0    0  501    0  0.00000000000E+00 -0.00000000000E+00 -0.16722813687E+03  0.16722813687E+03  0.00000000000E+00 0.  1.
         25    2    1    2    0    0 -0.53744245644E+02  0.25165153045E+02  0.15936940445E+01  0.13846188529E+03  0.12508966764E+03 0.  0.
          5    1    3    3  502    0 -0.27747715334E+02 -0.19098994248E+02  0.54768194255E+02  0.64433956804E+02  0.41800000000E+01 0. -1.
         -5    1    3    3    0  502 -0.25996530310E+02  0.44264147294E+02 -0.53174500210E+02  0.74027928489E+02  0.41800000000E+01 0. -1.
        -11    1    1    2    0    0  0.64239766576E+02 -0.24377140331E+01 -0.70237988255E+01  0.64668568945E+02  0.00000000000E+00 0. -1.
         11    1    1    2    0    0 -0.10495520932E+02 -0.22727439012E+02 -0.60458922592E+02  0.65436792133E+02  0.00000000000E+00 0.  1.
</event>
<event>
 7    1  0.2728221E-009  0.1074281E+03  0.7561462E-02  0.1265408E+00
          1   -1    0    0  501    0  0.00000000000E+00  0.00000000000E+00  0.74229215935E+02  0.74229215935E+02  0.00000000000E+00 0.  1.
         -1   -1    0    0    0  501 -0.00000000000E+00 -0.00000000000E+00 -0.17437134874E+03  0.17437134874E+03  0.00000000000E+00 0. -1.
         25    2    1    2    0    0 -0.29401131229E+02  0.17187132248E+02 -0.51500108490E+02  0.13949190648E+03  0.12508359911E+03 0.  0.
          5    1    3    3  502    0  0.94558438297E+01 -0.47870658198E+02 -0.38934496288E+02  0.62565008591E+02  0.41800000000E+01 0.  1.
         -5    1    3    3    0  502 -0.38856975059E+02  0.65057790446E+02 -0.12565612202E+02  0.76926897886E+02  0.41800000000E+01 0.  1.
        -11    1    1    2    0    0 -0.29160055691E+02 -0.10732042863E+02  0.23901267350E+01  0.31164054578E+02  0.00000000000E+00 0.  1.
         11    1    1    2    0    0  0.58561186920E+02 -0.64550893848E+01 -0.51032151046E+02  0.77944603616E+02  0.00000000000E+00 0. -1.
</event>
<event>
 7    1  0.2728221E-009  0.1318264E+03  0.7561462E-02  0.1224771E+00
         -2   -1    0    0    0  501 -0.00000000000E+00  0.00000000000E+00  0.41465791169E+02  0.41465791169E+02  0.00000000000E+00 0.  1.
          2   -1    0    0  501    0  0.00000000000E+00 -0.00000000000E+00 -0.43685526561E+03  0.43685526561E+03  0.00000000000E+00 0. -1.
         25    2    1    2    0    0 -0.53737810706E+02 -0.57587294123E+02 -0.25727996978E+03  0.29672294793E+03  0.12508987264E+03 0.  0.
          5    1    3    3  502    0 -0.94608233605E+02 -0.35169641630E+02 -0.17547127519E+03  0.20247286825E+03  0.41800000000E+01 0.  1.
         -5    1    3    3    0  502  0.40870422900E+02 -0.22417652493E+02 -0.81808694584E+02  0.94250079686E+02  0.41800000000E+01 0.  1.
        -11    1    1    2    0    0  0.66796232178E+02  0.11310918706E+02 -0.63613343596E+02  0.92931862128E+02  0.00000000000E+00 0.  1.
         11    1    1    2    0    0 -0.13058421472E+02  0.46276375418E+02 -0.74496161075E+02  0.88666246723E+02  0.00000000000E+00 0. -1.
</event>
<event>
 7    1  0.2728221E-009  0.8233883E+02  0.7561462E-02  0.1322542E+00
          1   -1    0    0  501    0  0.00000000000E+00  0.00000000000E+00  0.12950707612E+03  0.12950707612E+03  0.00000000000E+00 0. -1.
         -1   -1    0    0    0  501 -0.00000000000E+00 -0.00000000000E+00 -0.89128955654E+02  0.89128955654E+02  0.00000000000E+00 0.  1.
         25    2    1    2    0    0 -0.38857862607E+00  0.68001081647E+01  0.35291686188E+02  0.13014096566E+03  0.12507907645E+03 0.  0.
          5    1    3    3  502    0 -0.29271127395E+02 -0.29600371521E+02  0.63186864475E+02  0.75782802372E+02  0.41800000000E+01 0.  1.
         -5    1    3    3    0  502  0.28882548769E+02  0.36400479686E+02 -0.27895178287E+02  0.54358163292E+02  0.41800000000E+01 0.  1.
        -11    1    1    2    0    0  0.15077439346E+02 -0.38445411358E+02 -0.19644442067E+02  0.45730547076E+02  0.00000000000E+00 0. -1.
         11    1    1    2    0    0 -0.14688860720E+02  0.31645303193E+02  0.24730876344E+02  0.42764519034E+02  0.00000000000E+00 0.  1.
</event>
<event>
 7    1  0.2728221E-009  0.8567939E+02  0.7561462E-02  0.1313665E+00
         -1   -1    0    0    0  501 -0.00000000000E+00  0.00000000000E+00  0.71322764421E+02  0.71322764421E+02  0.00000000000E+00 0.  1.
          1   -1    0    0  501    0  0.00000000000E+00 -0.00000000000E+00 -0.32745423557E+03  0.32745423557E+03  0.00000000000E+00 0. -1.
         25    2    1    2    0    0 -0.15375491263E+02  0.63737259066E+02 -0.25247511381E+03  0.28929252023E+03  0.12509050821E+03 0.  0.
          5    1    3    3  502    0 -0.56231109286E+01  0.42301814036E+02 -0.79604119709E+01  0.43610817534E+02  0.41800000000E+01 0.  1.
         -5    1    3    3    0  502 -0.97523803342E+01  0.21435445031E+02 -0.24451470184E+03  0.24568170270E+03  0.41800000000E+01 0.  1.
        -11    1    1    2    0    0 -0.24027884284E+02  0.57270796782E+01 -0.14881703434E+02  0.28837540844E+02  0.00000000000E+00 0. -1.
         11    1    1    2    0    0  0.39403375547E+02 -0.69464338745E+02  0.11225346092E+02  0.80646938917E+02  0.00000000000E+00 0.  1.
</event>
<event>
 7    1  0.2728221E-009  0.1055185E+03  0.7561462E-02  0.1269101E+00
          3   -1    0    0  501    0  0.00000000000E+00  0.00000000000E+00  0.48033469390E+02  0.48033469390E+02  0.00000000000E+00 0. -1.
         -3   -1    0    0    0  501 -0.00000000000E+00 -0.00000000000E+00 -0.46887144703E+03  0.46887144703E+03  0.00000000000E+00 0.  1.
         25    2    1    2    0    0 -0.62766366494E+01 -0.57667400070E+02 -0.80617192795E+02  0.15972573615E+03  0.12509298068E+03 0.  0.
          5    1    3    3  502    0 -0.47116173740E+02 -0.77841991386E+02 -0.44131186161E+02  0.10121434406E+03  0.41800000000E+01 0.  1.
         -5    1    3    3    0  502  0.40839537091E+02  0.20174591316E+02 -0.36486006634E+02  0.58511392093E+02  0.41800000000E+01 0.  1.
        -11    1    1    2    0    0  0.23808467116E+02  0.49371822359E+02 -0.33134725315E+03  0.33585029718E+03  0.00000000000E+00 0.  1.
         11    1    1    2    0    0 -0.17531830467E+02  0.82955777108E+01 -0.88735317005E+01  0.21328883091E+02  0.00000000000E+00 0. -1.
</event>
<event>
 7    1  0.2728221E-009  0.1241636E+03  0.7561462E-02  0.1236382E+00
         -1   -1    0    0    0  501 -0.00000000000E+00  0.00000000000E+00  0.12654851670E+03  0.12654851670E+03  0.00000000000E+00 0.  1.
          1   -1    0    0  501    0  0.00000000000E+00 -0.00000000000E+00 -0.16984925391E+03  0.16984925391E+03  0.00000000000E+00 0. -1.
         25    2    1    2    0    0  0.51717777726E+02  0.81523106646E+02 -0.47062909529E+01  0.15808353618E+03  0.12509000674E+03 0.  0.
          5    1    3    3  502    0  0.12620540156E+01 -0.24976596123E+02  0.25910308362E+02  0.36252442865E+02  0.41800000000E+01 0.  1.
         -5    1    3    3    0  502  0.50455723711E+02  0.10649970277E+03 -0.30616599315E+02  0.12183109332E+03  0.41800000000E+01 0.  1.
        -11    1    1    2    0    0 -0.19080988276E+02 -0.66386869877E+02 -0.64084123503E+02  0.94223540003E+02  0.00000000000E+00 0. -1.
         11    1    1    2    0    0 -0.32636789451E+02 -0.15136236769E+02  0.25489677243E+02  0.44090694428E+02  0.00000000000E+00 0.  1.
</event>
<event>
 7    1  0.2728221E-009  0.1119568E+03  0.7561462E-02  0.1256988E+00
         -1   -1    0    0    0  501 -0.00000000000E+00  0.00000000000E+00  0.26295257737E+02  0.26295257737E+02  0.00000000000E+00 0.  1.
          1   -1    0    0  501    0  0.00000000000E+00 -0.00000000000E+00 -0.57038165651E+03  0.57038165651E+03  0.00000000000E+00 0. -1.
         25    2    1    2    0    0  0.13429129523E+02 -0.51550581657E+02 -0.26701807635E+03  0.29963882073E+03  0.12508783234E+03 0.  0.
          5    1    3    3  502    0  0.18087955853E+01  0.39197679440E+02 -0.47314116387E+02  0.61610289924E+02  0.41800000000E+01 0.  1.
         -5    1    3    3    0  502  0.11620333937E+02 -0.90748261098E+02 -0.21970395997E+03  0.23802853081E+03  0.41800000000E+01 0.  1.
        -11    1    1    2    0    0  0.26145524355E+02  0.45992347649E+02 -0.79673950155E+02  0.95639023517E+02  0.00000000000E+00 0.  1.
         11    1    1    2    0    0 -0.39574653878E+02  0.55582340086E+01 -0.19739437227E+03  0.20139907000E+03  0.00000000000E+00 0. -1.
</event>
<event>
 7    1  0.2867276E-009  0.1154527E+03  0.7561462E-02  0.1250793E+00
          2   -1    0    0  501    0  0.00000000000E+00  0.00000000000E+00  0.16971643692E+03  0.16971643692E+03  0.00000000000E+00 0. -1.
         -2   -1    0    0    0  501 -0.00000000000E+00 -0.00000000000E+00 -0.16966331879E+03  0.16966331879E+03  0.00000000000E+00 0.  1.
         25    2    1    2    0    0 -0.72868987488E+02  0.33499621480E+02 -0.10269086179E+03  0.18062701190E+03  0.12509432583E+03 0.  0.
          5    1    3    3  502    0  0.16459727103E+02 -0.29275924613E+02 -0.47206957264E+02  0.58085898395E+02  0.41800000000E+01 0.  1.
         -5    1    3    3    0  502 -0.89328714590E+02  0.62775546093E+02 -0.55483904530E+02  0.12254111351E+03  0.41800000000E+01 0.  1.
        -11    1    1    2    0    0  0.41874934627E+02  0.38712934644E+00 -0.44728096621E+01  0.42114914762E+02  0.00000000000E+00 0.  1.
         11    1    1    2    0    0  0.30994052861E+02 -0.33886750826E+02  0.10721678959E+03  0.11663782905E+03  0.00000000000E+00 0. -1.
</event>
<event>
 7    1  0.2728221E-009  0.1010436E+03  0.7561462E-02  0.1278116E+00
          1   -1    0    0  501    0  0.00000000000E+00  0.00000000000E+00  0.11398456056E+03  0.11398456056E+03  0.00000000000E+00 0. -1.
         -1   -1    0    0    0  501 -0.00000000000E+00 -0.00000000000E+00 -0.11674182841E+03  0.11674182841E+03  0.00000000000E+00 0.  1.
         25    2    1    2    0    0  0.34441938956E+02 -0.79794504048E+01 -0.44098702627E+01  0.13006590086E+03  0.12509105813E+03 0.  0.
          5    1    3    3  502    0  0.49286625831E+02  0.42548088403E+02  0.24680326969E+02  0.69757453020E+02  0.41800000000E+01 0. -1.
         -5    1    3    3    0  502 -0.14844686875E+02 -0.50527538807E+02 -0.29090197232E+02  0.60308447844E+02  0.41800000000E+01 0. -1.
        -11    1    1    2    0    0  0.64283135234E+00  0.37898227545E+02  0.28392590615E+02  0.47358505942E+02  0.00000000000E+00 0. -1.
         11    1    1    2    0    0 -0.35084770309E+02 -0.29918777141E+02 -0.26739988207E+02  0.53301982163E+02  0.00000000000E+00 0.  1.
</event>
<event>
 7    1  0.2728221E-009  0.1228047E+03  0.7561462E-02  0.1238541E+00
          2   -1    0    0  501    0  0.00000000000E+00  0.00000000000E+00  0.80198892090E+03  0.80198892090E+03  0.00000000000E+00 0. -1.
         -2   -1    0    0    0  501 -0.00000000000E+00 -0.00000000000E+00 -0.26635027284E+02  0.26635027284E+02  0.00000000000E+00 0.  1.
         25    2    1    2    0    0 -0.35493404704E+02  0.62209812772E+02  0.22799845177E+03  0.26973927294E+03  0.12508452651E+03 0.  0.
          5    1    3    3  502    0 -0.69057108263E+02  0.81198652790E+01  0.67373602891E+02  0.96909706327E+02  0.41800000000E+01 0. -1.
         -5    1    3    3    0  502  0.33563703559E+02  0.54089947493E+02  0.16062484888E+03  0.17282956661E+03  0.41800000000E+01 0. -1.
        -11    1    1    2    0    0  0.54540890739E+02 -0.85378128808E+01  0.23674858057E+03  0.24309976021E+03  0.00000000000E+00 0.  1.
         11    1    1    2    0    0 -0.19047486035E+02 -0.53671999891E+02  0.31060686127E+03  0.31578491504E+03  0.00000000000E+00 0. -1.
</event>
<event>
 7    1  0.3400205E-009  0.1043851E+03  0.7561462E-02  0.1271336E+00
          3   -1    0    0  501    0  0.00000000000E+00  0.00000000000E+00  0.44109783568E+02  0.44109783568E+02  0.00000000000E+00 0. -1.
         -3   -1    0    0    0  501 -0.00000000000E+00 -0.00000000000E+00 -0.36971356021E+03  0.36971356021E+03  0.00000000000E+00 0.  1.
         25    2    1    2    0    0  0.28952433998E+02 -0.35708866419E+02 -0.10058594996E+03  0.16696842023E+03  0.12509018127E+03 0.  0.
          5    1    3    3  502    0 -0.32532692024E+02  0.18617751143E+02 -0.69606017742E+02  0.79167334260E+02  0.41800000000E+01 0.  1.
         -5    1    3    3    0  502  0.61485126022E+02 -0.54326617562E+02 -0.30979932219E+02  0.87801085972E+02  0.41800000000E+01 0.  1.
        -11    1    1    2    0    0  0.14341121741E+02 -0.15982988726E+02 -0.12102885366E+03  0.12291910803E+03  0.00000000000E+00 0.  1.
         11    1    1    2    0    0 -0.43293555739E+02  0.51691855145E+02 -0.10398897303E+03  0.12393581552E+03  0.00000000000E+00 0. -1.
</event>
<event>
 7    1  0.3242926E-009  0.1055345E+03  0.7561462E-02  0.1269070E+00
          3   -1    0    0  501    0  0.00000000000E+00  0.00000000000E+00  0.49386266769E+02  0.49386266769E+02  0.00000000000E+00 0. -1.
         -3   -1    0    0    0  501 -0.00000000000E+00 -0.00000000000E+00 -0.36418612246E+03  0.36418612246E+03  0.00000000000E+00 0.  1.
         25    2    1    2    0    0 -0.77719063047E+02 -0.10788683558E+02 -0.16699044294E+03  0.22291572528E+03  0.12509581964E+03 0.  0.
          5    1    3    3  502    0 -0.10281203180E+03 -0.20296290669E+02 -0.80355289454E+02  0.13212379892E+03  0.41800000000E+01 0.  1.
         -5    1    3    3    0  502  0.25092968749E+02  0.95076071113E+01 -0.86635153485E+02  0.90791926364E+02  0.41800000000E+01 0.  1.
        -11    1    1    2    0    0  0.50023717743E+02  0.11495906100E+02 -0.15394905965E+03  0.16228013175E+03  0.00000000000E+00 0.  1.
         11    1    1    2    0    0  0.27695345305E+02 -0.70722254206E+00  0.61396469018E+01  0.28376532194E+02  0.00000000000E+00 0. -1.
</event>
<event>
 7    1  0.2728221E-009  0.1519342E+03  0.7561462E-02  0.1198116E+00
         -1   -1    0    0    0  501 -0.00000000000E+00  0.00000000000E+00  0.12299758637E+04  0.12299758637E+04  0.00000000000E+00 0. -1.
          1   -1    0    0  501    0  0.00000000000E+00 -0.00000000000E+00 -0.22893098991E+02  0.22893098991E+02  0.00000000000E+00 0.  1.
         25    2    1    2    0    0 -0.52557059865E+02  0.10271096887E+03  0.86304776903E+03  0.87966623859E+03  0.12509776986E+03 0.  0.
          5    1    3    3  502    0 -0.75658460281E+01 -0.28655855184E+02  0.19944052079E+03  0.20167397897E+03  0.41800000000E+01 0. -1.
         -5    1    3    3    0  502 -0.44991213837E+02  0.13136682405E+03  0.66360724824E+03  0.67799225962E+03  0.41800000000E+01 0. -1.
        -11    1    1    2    0    0 -0.11000480992E+02 -0.53542117080E+02  0.77634132676E+02  0.94946445115E+02  0.00000000000E+00 0.  1.
         11    1    1    2    0    0  0.63557540857E+02 -0.49168851790E+02  0.26640086304E+03  0.27825627902E+03  0.00000000000E+00 0. -1.
</event>
<event>
 7    1  0.2728221E-009  0.2803656E+03  0.7561462E-02  0.1095489E+00
          2   -1    0    0  501    0  0.00000000000E+00  0.00000000000E+00  0.14001239598E+04  0.14001239598E+04  0.00000000000E+00 0. -1.
         -2   -1    0    0    0  501 -0.00000000000E+00 -0.00000000000E+00 -0.67493916116E+02  0.67493916116E+02  0.00000000000E+00 0.  1.
         25    2    1    2    0    0 -0.10924097831E+03  0.25742583012E+03  0.51919282711E+03  0.60283536624E+03  0.12509051810E+03 0.  0.
          5    1    3    3  502    0 -0.79521585446E+02  0.15937380432E+03  0.20132093232E+03  0.26883318665E+03  0.41800000000E+01 0.  1.
         -5    1    3    3    0  502 -0.29719392867E+02  0.98052025800E+02  0.31787189479E+03  0.33400217959E+03  0.41800000000E+01 0.  1.
        -11    1    1    2    0    0  0.39265617939E+02 -0.11102877527E+03  0.47610774211E+03  0.49045668493E+03  0.00000000000E+00 0. -1.
         11    1    1    2    0    0  0.69975360374E+02 -0.14639705485E+03  0.33732947443E+03  0.37432582471E+03  0.00000000000E+00 0.  1.
</event>
<event>
 7    1  0.2728221E-009  0.2205627E+03  0.7561462E-02  0.1133464E+00
          2   -1    0    0  501    0  0.00000000000E+00  0.00000000000E+00  0.70157307324E+03  0.70157307324E+03  0.00000000000E+00 0. -1.
         -2   -1    0    0    0  501 -0.00000000000E+00 -0.00000000000E+00 -0.72420803914E+02  0.72420803914E+02  0.00000000000E+00 0.  1.
         25    2    1    2    0    0  0.73178389332E+02  0.18345143957E+03  0.29739991900E+03  0.37829021514E+03  0.12508903913E+03 0.  0.
          5    1    3    3  502    0  0.70065105098E+02  0.19966536243E+03  0.29157640615E+03  0.36029106141E+03  0.41800000000E+01 0.  1.
         -5    1    3    3    0  502  0.31132842341E+01 -0.16213922864E+02  0.58235128505E+01  0.17999153738E+02  0.41800000000E+01 0.  1.
        -11    1    1    2    0    0 -0.59177748373E+02 -0.47778831814E+02  0.15296226622E+03  0.17082821067E+03  0.00000000000E+00 0. -1.
         11    1    1    2    0    0 -0.14000640959E+02 -0.13567260775E+03  0.17879008411E+03  0.22487545134E+03  0.00000000000E+00 0.  1.
</event>
<event>
 7    1  0.2728221E-009  0.1188836E+03  0.7561462E-02  0.1244950E+00
         -1   -1    0    0    0  501 -0.00000000000E+00  0.00000000000E+00  0.48003758727E+02  0.48003758727E+02  0.00000000000E+00 0.  1.
          1   -1    0    0  501    0  0.00000000000E+00 -0.00000000000E+00 -0.63319801015E+03  0.63319801015E+03  0.00000000000E+00 0. -1.
         25    2    1    2    0    0 -0.53122132243E+01  0.10878560973E+03 -0.47091203052E+03  0.49926714793E+03  0.12508803309E+03 0.  0.
          5    1    3    3  502    0 -0.19067808682E+01  0.98100871371E+02 -0.47617214888E+03  0.48619420456E+03  0.41800000000E+01 0. -1.
         -5    1    3    3    0  502 -0.34054323561E+01  0.10684738354E+02  0.52601183621E+01  0.13072943372E+02  0.41800000000E+01 0. -1.
        -11    1    1    2    0    0  0.22232871318E+02 -0.10840970669E+03 -0.12077279337E+03  0.16380791401E+03  0.00000000000E+00 0.  1.
         11    1    1    2    0    0 -0.16920658094E+02 -0.37590303070E+00  0.64905724680E+01  0.18126706937E+02  0.00000000000E+00 0. -1.
</event>
<event>
 7    1  0.2728221E-009  0.1566991E+03  0.7561462E-02  0.1192475E+00
          2   -1    0    0  501    0  0.00000000000E+00  0.00000000000E+00  0.30185179344E+03  0.30185179344E+03  0.00000000000E+00 0. -1.
         -2   -1    0    0    0  501 -0.00000000000E+00 -0.00000000000E+00 -0.98158544118E+02  0.98158544118E+02  0.00000000000E+00 0.  1.
         25    2    1    2    0    0  0.14393335459E+02 -0.12445895710E+03  0.54618137363E+02  0.18527534067E+03  0.12508641343E+03 0.  0.
          5    1    3    3  502    0 -0.41200058036E+02 -0.67742875489E+02  0.68111968911E+02  0.10461001229E+03  0.41800000000E+01 0.  1.
         -5    1    3    3    0  502  0.55593393495E+02 -0.56716081609E+02 -0.13493831548E+02  0.80665328383E+02  0.41800000000E+01 0.  1.
        -11    1    1    2    0    0 -0.43911578481E+02  0.24581996738E+02  0.45258082640E+02  0.67681573065E+02  0.00000000000E+00 0. -1.
         11    1    1    2    0    0  0.29518243022E+02  0.99876960361E+02  0.10381702932E+03  0.14705342383E+03  0.00000000000E+00 0.  1.
</event>
<event>
 7    1  0.2728221E-009  0.1199617E+03  0.7561462E-02  0.1243160E+00
          2   -1    0    0  501    0  0.00000000000E+00  0.00000000000E+00  0.17655985242E+03  0.17655985242E+03  0.00000000000E+00 0. -1.
         -2   -1    0    0    0  501 -0.00000000000E+00 -0.00000000000E+00 -0.10407458702E+03  0.10407458702E+03  0.00000000000E+00 0.  1.
         25    2    1    2    0    0  0.19778560328E+02  0.57764583978E+02 -0.15912109922E+02  0.14009495313E+03  0.12508182137E+03 0.  0.
          5    1    3    3  502    0  0.64924961673E+02  0.42179016454E+01 -0.23986340415E+02  0.69468397629E+02  0.41800000000E+01 0. -1.
         -5    1    3    3    0  502 -0.45146401346E+02  0.53546682332E+02  0.80742304926E+01  0.70626555497E+02  0.41800000000E+01 0. -1.
        -11    1    1    2    0    0 -0.24569533669E+02 -0.79032291925E+02  0.84709398544E+02  0.11842908154E+03  0.00000000000E+00 0. -1.
         11    1    1    2    0    0  0.47909733408E+01  0.21267707947E+02  0.36879767727E+01  0.22110404780E+02  0.00000000000E+00 0.  1.
</event>
<event>
 7    1  0.2728221E-009  0.8029571E+02  0.7561462E-02  0.1328214E+00
          1   -1    0    0  501    0  0.00000000000E+00  0.00000000000E+00  0.63188074321E+02  0.63188074321E+02  0.00000000000E+00 0. -1.
         -1   -1    0    0    0  501 -0.00000000000E+00 -0.00000000000E+00 -0.33333695280E+03  0.33333695280E+03  0.00000000000E+00 0.  1.
         25    2    1    2    0    0  0.42690613958E+02  0.16383620238E+02 -0.26156073545E+03  0.29351662910E+03  0.12508829561E+03 0.  0.
          5    1    3    3  502    0  0.44596070103E+02 -0.50636098307E+01 -0.26711406760E+03  0.27089083986E+03  0.41800000000E+01 0. -1.
         -5    1    3    3    0  502 -0.19054561446E+01  0.21447230069E+02  0.55533321492E+01  0.22625789239E+02  0.41800000000E+01 0. -1.
        -11    1    1    2    0    0  0.24708570922E+02 -0.33789550432E+01  0.16524702486E+02  0.29916493887E+02  0.00000000000E+00 0. -1.
         11    1    1    2    0    0 -0.67399184881E+02 -0.13004665195E+02 -0.25112845516E+02  0.73091904130E+02  0.00000000000E+00 0.  1.
</event>
<event>
 6    1  0.2728221E-009  0.1223524E+03  0.7561462E-02  0.1239266E+00
         -1   -1    0    0    0  501 -0.00000000000E+00  0.00000000000E+00  0.54199901522E+02  0.54199901522E+02  0.00000000000E+00 0. -1.
          1   -1    0    0  501    0  0.00000000000E+00 -0.00000000000E+00 -0.34142304392E+03  0.34142304392E+03  0.00000000000E+00 0.  1.
          5    1    1    2  502    0 -0.38071584743E+02  0.62154596438E+02 -0.15372430913E+03  0.17018012528E+03  0.41800000000E+01 0.  1.
         -5    1    1    2    0  502  0.46027324053E+02  0.19832251337E+02 -0.92643120739E+01  0.51138367502E+02  0.41800000000E+01 0.  1.
        -11    1    1    2    0    0  0.34713388642E+02 -0.68264192688E+02 -0.88085295872E+02  0.11672205748E+03  0.00000000000E+00 0.  1.
         11    1    1    2    0    0 -0.42669127951E+02 -0.13722655087E+02 -0.36149225324E+02  0.57582395177E+02  0.00000000000E+00 0. -1.
</event>
<event>
 7    1  0.4035856E-009  0.1868444E+03  0.7561462E-02  0.1161339E+00
         -3   -1    0    0    0  501 -0.00000000000E+00  0.00000000000E+00  0.23095624145E+02  0.23095624145E+02  0.00000000000E+00 0.  1.
          3   -1    0    0  501    0  0.00000000000E+00 -0.00000000000E+00 -0.18909369692E+04  0.18909369692E+04  0.00000000000E+00 0. -1.
         25    2    1    2    0    0 -0.14374227398E+03  0.97520471614E+02 -0.11557123688E+04  0.11753683460E+04  0.12509031056E+03 0.  0.
          5    1    3    3  502    0 -0.71638263590E+02  0.76398990325E+02 -0.95971567644E+03  0.96542244564E+03  0.41800000000E+01 0. -1.
         -5    1    3    3    0  502 -0.72104010388E+02  0.21121481289E+02 -0.19599669234E+03  0.20994590040E+03  0.41800000000E+01 0. -1.
        -11    1    1    2    0    0  0.11636427904E+03 -0.29128258018E+02 -0.38089953364E+03  0.39934140229E+03  0.00000000000E+00 0. -1.
         11    1    1    2    0    0  0.27377994935E+02 -0.68392213596E+02 -0.33122944264E+03  0.33932284503E+03  0.00000000000E+00 0.  1.
</event>
<event>
 7    1  0.2728221E-009  0.1086450E+03  0.7561462E-02  0.1263100E+00
          2   -1    0    0  501    0  0.00000000000E+00  0.00000000000E+00  0.11143367896E+04  0.11143367896E+04  0.00000000000E+00 0. -1.
         -2   -1    0    0    0  501 -0.00000000000E+00 -0.00000000000E+00 -0.10805601246E+02  0.10805601246E+02  0.00000000000E+00 0.  1.
         25    2    1    2    0    0  0.49377229142E+01 -0.15989898919E+02  0.65184609909E+03  0.66395645173E+03  0.12511904303E+03 0.  0.
          5    1    3    3  502    0 -0.23182637301E+01 -0.70127759368E+02  0.32101358235E+03  0.32861903389E+03  0.41800000000E+01 0.  1.
         -5    1    3    3    0  502  0.72559866443E+01  0.54137860449E+02  0.33083251674E+03  0.33533741785E+03  0.41800000000E+01 0.  1.
        -11    1    1    2    0    0  0.42159306722E+02  0.16077033033E+02  0.25327088172E+03  0.25725865906E+03  0.00000000000E+00 0.  1.
         11    1    1    2    0    0 -0.47097029636E+02 -0.87134114234E-01  0.19841420757E+03  0.20392728008E+03  0.00000000000E+00 0. -1.
</event>
<event>
 7    1  0.2728221E-009  0.1019416E+03  0.7561462E-02  0.1276265E+00
          2   -1    0    0  501    0  0.00000000000E+00  0.00000000000E+00  0.57676616688E+03  0.57676616688E+03  0.00000000000E+00 0. -1.
         -2   -1    0    0    0  501 -0.00000000000E+00 -0.00000000000E+00 -0.41515491597E+02  0.41515491597E+02  0.00000000000E+00 0.  1.
         25    2    1    2    0    0  0.28255676501E+02 -0.81633798994E+01  0.50493968172E+03  0.52103531038E+03  0.12509471795E+03 0.  0.
          5    1    3    3  502    0 -0.15747285992E+02 -0.58878461526E+02  0.22815534951E+03  0.23619268862E+03  0.41800000000E+01 0.  1.
         -5    1    3    3    0  502  0.44002962493E+02  0.50715081627E+02  0.27678433221E+03  0.28484262176E+03  0.41800000000E+01 0.  1.
        -11    1    1    2    0    0 -0.59587668305E+01 -0.30397058095E+02 -0.14377981971E+02  0.34149881530E+02  0.00000000000E+00 0.  1.
         11    1    1    2    0    0 -0.22296909670E+02  0.38560437994E+02  0.44688975532E+02  0.63096466567E+02  0.00000000000E+00 0. -1.
</event>
<event>
 7    1  0.2728221E-009  0.1118717E+03  0.7561462E-02  0.1257143E+00
          1   -1    0    0  501    0  0.00000000000E+00  0.00000000000E+00  0.46006340687E+03  0.46006340687E+03  0.00000000000E+00 0. -1.
         -1   -1    0    0    0  501 -0.00000000000E+00 -0.00000000000E+00 -0.32401390745E+02  0.32401390745E+02  0.00000000000E+00 0.  1.
         25    2    1    2    0    0 -0.28463068171E+02 -0.46811440711E+02  0.24221551523E+03  0.27806014312E+03  0.12509048782E+03 0.  0.
          5    1    3    3  502    0 -0.82782333087E+01  0.32710743790E+02  0.15321166341E+03  0.15693886743E+03  0.41800000000E+01 0.  1.
         -5    1    3    3    0  502 -0.20184834862E+02 -0.79522184501E+02  0.89003851822E+02  0.12112127569E+03  0.41800000000E+01 0.  1.
        -11    1    1    2    0    0 -0.12567373413E+02 -0.23234038645E+02  0.44138451933E+02  0.51438918781E+02  0.00000000000E+00 0.  1.
         11    1    1    2    0    0  0.41030441584E+02  0.70045479356E+02  0.14130804896E+03  0.16296573571E+03  0.00000000000E+00 0. -1.
</event>
<event>
 7    1  0.2728221E-009  0.7583893E+02  0.7561462E-02  0.1341293E+00
         -1   -1    0    0    0  501 -0.00000000000E+00  0.00000000000E+00  0.16168980502E+03  0.16168980502E+03  0.00000000000E+00 0.  1.
          1   -1    0    0  501    0  0.00000000000E+00 -0.00000000000E+00 -0.10375702442E+03  0.10375702442E+03  0.00000000000E+00 0. -1.
         25    2    1    2    0    0  0.24395436098E+02  0.12676224516E+02  0.97505720118E+02  0.16096687872E+03  0.12508855511E+03 0.  0.
          5    1    3    3  502    0 -0.29937160084E+02 -0.37885146063E+02  0.61690986945E+02  0.78452330216E+02  0.41800000000E+01 0. -1.
         -5    1    3    3    0  502  0.54332596181E+02  0.50561370579E+02  0.35814733174E+02  0.82514548505E+02  0.41800000000E+01 0. -1.
        -11    1    1    2    0    0 -0.10417203552E+02 -0.65409464096E+00  0.30387893483E+02  0.32130515713E+02  0.00000000000E+00 0.  1.
         11    1    1    2    0    0 -0.13978232545E+02 -0.12022129875E+02 -0.69960833000E+02  0.72349435008E+02  0.00000000000E+00 0. -1.
</event>
<event>
 7    1  0.2728221E-009  0.1176580E+03  0.7561462E-02  0.1247011E+00
          1   -1    0    0  501    0  0.00000000000E+00  0.00000000000E+00  0.51497955563E+03  0.51497955563E+03  0.00000000000E+00 0. -1.
         -1   -1    0    0    0  501 -0.00000000000E+00 -0.00000000000E+00 -0.34610163618E+02  0.34610163618E+02  0.00000000000E+00 0.  1.
         25    2    1    2    0    0 -0.52128526781E+02 -0.63030602459E+01  0.14762528836E+03  0.20050509522E+03  0.12510777582E+03 0.  0.
          5    1    3    3  502    0 -0.89489297028E+01  0.56292294565E+02  0.45184240725E+02  0.72855979714E+02  0.41800000000E+01 0. -1.
         -5    1    3    3    0  502 -0.43179597078E+02 -0.62595354811E+02  0.10244104764E+03  0.12764911550E+03  0.41800000000E+01 0. -1.
        -11    1    1    2    0    0 -0.76542721681E+01 -0.30738309198E+02  0.65741755552E+02  0.72975406527E+02  0.00000000000E+00 0.  1.
         11    1    1    2    0    0  0.59782798949E+02  0.37041369444E+02  0.26700234810E+03  0.27610921751E+03  0.00000000000E+00 0. -1.
</event>
<event>
 7    1  0.2728221E-009  0.1189842E+03  0.7561462E-02  0.1244782E+00
         -2   -1    0    0    0  501 -0.00000000000E+00  0.00000000000E+00  0.58808220148E+02  0.58808220148E+02  0.00000000000E+00 0.  1.
          2   -1    0    0  501    0  0.00000000000E+00 -0.00000000000E+00 -0.28479187078E+03  0.28479187078E+03  0.00000000000E+00 0. -1.
         25    2    1    2    0    0 -0.69577023036E+02  0.83746897646E+01 -0.10733941117E+03  0.17911092820E+03  0.12509147791E+03 0.  0.
          5    1    3    3  502    0 -0.29665499990E+02  0.55364140850E+02 -0.98201307517E+02  0.11664561363E+03  0.41800000000E+01 0. -1.
         -5    1    3    3    0  502 -0.39911523046E+02 -0.46989451085E+02 -0.91381036514E+01  0.62465314563E+02  0.41800000000E+01 0. -1.
        -11    1    1    2    0    0  0.48278694410E+02 -0.48100171287E+02 -0.80213785450E+02  0.10525545206E+03  0.00000000000E+00 0.  1.
         11    1    1    2    0    0  0.21298328626E+02  0.39725481522E+02 -0.38430454011E+02  0.59233710672E+02  0.00000000000E+00 0. -1.
</event>
<event>
 7    1  0.2728221E-009  0.1598388E+03  0.7561462E-02  0.1188879E+00
         -1   -1    0    0    0  501 -0.00000000000E+00  0.00000000000E+00  0.53959751849E+02  0.53959751849E+02  0.00000000000E+00 0.  1.
          1   -1    0    0  501    0  0.00000000000E+00 -0.00000000000E+00 -0.53055571007E+03  0.53055571007E+03  0.00000000000E+00 0. -1.
         25    2    1    2    0    0 -0.13768753674E+03 -0.23294722344E+02 -0.28880692582E+03  0.34432375898E+03  0.12509559839E+03 0.  0.
          5    1    3    3  502    0  0.71876869063E+01 -0.32546794325E+02 -0.10393686328E+03  0.10923049305E+03  0.41800000000E+01 0. -1.
         -5    1    3    3    0  502 -0.14487522365E+03  0.92520719807E+01 -0.18487006254E+03  0.23509326593E+03  0.41800000000E+01 0. -1.
        -11    1    1    2    0    0  0.54118289966E+02  0.69066372382E-01 -0.34848562464E+02  0.64367821035E+02  0.00000000000E+00 0.  1.
         11    1    1    2    0    0  0.83569246776E+02  0.23225655972E+02 -0.15294046994E+03  0.17582388191E+03  0.00000000000E+00 0. -1.
</event>
<event>
 7    1  0.2728221E-009  0.1136262E+03  0.7561462E-02  0.1253998E+00
          2   -1    0    0  501    0  0.00000000000E+00  0.00000000000E+00  0.54333128361E+03  0.54333128361E+03  0.00000000000E+00 0. -1.
         -2   -1    0    0    0  501 -0.00000000000E+00 -0.00000000000E+00 -0.34127461970E+02  0.34127461970E+02  0.00000000000E+00 0.  1.
         25    2    1    2    0    0 -0.35136682710E+02 -0.64147172162E+02  0.36794817285E+03  0.39545343867E+03  0.12509243816E+03 0.  0.
          5    1    3    3  502    0  0.16101643701E+02 -0.85596702579E+02  0.19142590852E+03  0.21035068166E+03  0.41800000000E+01 0.  1.
         -5    1    3    3    0  502 -0.51238326411E+02  0.21449530417E+02  0.17652226433E+03  0.18510275701E+03  0.41800000000E+01 0.  1.
        -11    1    1    2    0    0  0.14811373361E+02  0.62191679363E+02  0.33200678931E+02  0.72037954193E+02  0.00000000000E+00 0.  1.
         11    1    1    2    0    0  0.20325309350E+02  0.19554927990E+01  0.10805496987E+03  0.10996735272E+03  0.00000000000E+00 0. -1.
</event>
<event>
 7    1  0.2728221E-009  0.8313027E+02  0.7561462E-02  0.1320396E+00
         -2   -1    0    0    0  501 -0.00000000000E+00  0.00000000000E+00  0.76653410675E+02  0.76653410675E+02  0.00000000000E+00 0.  1.
          2   -1    0    0  501    0  0.00000000000E+00 -0.00000000000E+00 -0.23951587542E+03  0.23951587542E+03  0.00000000000E+00 0. -1.
         25    2    1    2    0    0 -0.54747433919E+02 -0.40641670897E+02 -0.14294223284E+03  0.20181436361E+03  0.12509008153E+03 0.  0.
          5    1    3    3  502    0 -0.39839732104E+02 -0.24987292473E+02  0.91885597000E+01  0.48098555785E+02  0.41800000000E+01 0.  1.
         -5    1    3    3    0  502 -0.14907701816E+02 -0.15654378424E+02 -0.15213079254E+03  0.15371580782E+03  0.41800000000E+01 0.  1.
        -11    1    1    2    0    0 -0.16003062090E+02  0.14529536989E+02  0.19629734333E+02  0.29198149108E+02  0.00000000000E+00 0.  1.
         11    1    1    2    0    0  0.70750496009E+02  0.26112133908E+02 -0.39549966245E+02  0.85156773381E+02  0.00000000000E+00 0. -1.
</event>
<event>
 7    1  0.2728221E-009  0.1381402E+03  0.7561462E-02  0.1215854E+00
          2   -1    0    0  501    0  0.00000000000E+00  0.00000000000E+00  0.15124433920E+03  0.15124433920E+03  0.00000000000E+00 0. -1.
         -2   -1    0    0    0  501 -0.00000000000E+00 -0.00000000000E+00 -0.27141012688E+03  0.27141012688E+03  0.00000000000E+00 0.  1.
         25    2    1    2    0    0  0.10452506332E+03 -0.33181376857E+02 -0.19924995720E+03  0.25957110620E+03  0.12510044402E+03 0.  0.
          5    1    3    3  502    0 -0.20211615824E+02  0.20553014983E+02 -0.48883568001E+02  0.56903527655E+02  0.41800000000E+01 0.  1.
         -5    1    3    3    0  502  0.12473667915E+03 -0.53734391841E+02 -0.15036638920E+03  0.20266757854E+03  0.41800000000E+01 0.  1.
        -11    1    1    2    0    0 -0.91595107865E+02  0.35311437625E+02  0.16994826358E+02  0.99626229151E+02  0.00000000000E+00 0.  1.
         11    1    1    2    0    0 -0.12929955459E+02 -0.21300607679E+01  0.62089343160E+02  0.63457130735E+02  0.00000000000E+00 0. -1.
</event>
<event>
 7    1  0.2728221E-009  0.6659341E+02  0.7561462E-02  0.1372076E+00
         -3   -1    0    0    0  501 -0.00000000000E+00  0.00000000000E+00  0.11035584383E+03  0.11035584383E+03  0.00000000000E+00 0.  1.
          3   -1    0    0  501    0  0.00000000000E+00 -0.00000000000E+00 -0.17462768517E+03  0.17462768517E+03  0.00000000000E+00 0. -1.
         25    2    1    2    0    0  0.45644634588E+02 -0.28779105672E+02  0.35104114494E+02  0.14068220730E+03  0.12509002761E+03 0.  0.
          5    1    3    3  502    0  0.20942045019E+02 -0.25941581222E+02 -0.45309189073E+02  0.56408597752E+02  0.41800000000E+01 0.  1.
         -5    1    3    3    0  502  0.24702589569E+02 -0.28375244499E+01  0.80413303568E+02  0.84273609553E+02  0.41800000000E+01 0.  1.
        -11    1    1    2    0    0 -0.35632072471E+02 -0.77759726712E+01  0.15394532746E+01  0.36503154055E+02  0.00000000000E+00 0.  1.
         11    1    1    2    0    0 -0.10012562117E+02  0.36555078343E+02 -0.10091540911E+03  0.10779816765E+03  0.00000000000E+00 0. -1.
</event>
<event>
 7    1  0.2728221E-009  0.8948029E+02  0.7561462E-02  0.1304115E+00
         -1   -1    0    0    0  501 -0.00000000000E+00  0.00000000000E+00  0.31252098448E+02  0.31252098448E+02  0.00000000000E+00 0.  1.
          1   -1    0    0  501    0  0.00000000000E+00 -0.00000000000E+00 -0.72814016398E+03  0.72814016398E+03  0.00000000000E+00 0. -1.
         25    2    1    2    0    0  0.38880924921E+01  0.62108456339E+02 -0.58736476030E+03  0.60375425736E+03  0.12509701845E+03 0.  0.
          5    1    3    3  502    0 -0.31882637313E+02  0.63776644988E+02 -0.53748135057E+03  0.54220626852E+03  0.41800000000E+01 0.  1.
         -5    1    3    3    0  502  0.35770729805E+02 -0.16681886492E+01 -0.49883409723E+02  0.61547988836E+02  0.41800000000E+01 0.  1.
        -11    1    1    2    0    0 -0.16585350302E+02 -0.13927457445E+02 -0.10315817278E+03  0.10540709904E+03  0.00000000000E+00 0. -1.
         11    1    1    2    0    0  0.12697257810E+02 -0.48180998894E+02 -0.63651324568E+01  0.50230906039E+02  0.00000000000E+00 0.  1.
</event>
<event>
 7    1  0.2728221E-009  0.8788295E+02  0.7561462E-02  0.1308061E+00
         -1   -1    0    0    0  501 -0.00000000000E+00  0.00000000000E+00  0.80375425994E+02  0.80375425994E+02  0.00000000000E+00 0.  1.
          1   -1    0    0  501    0  0.00000000000E+00 -0.00000000000E+00 -0.23495057993E+03  0.23495057993E+03  0.00000000000E+00 0. -1.
         25    2    1    2    0    0 -0.86435555523E+01  0.55466122092E+02 -0.13810191772E+02  0.13779479762E+03  0.12508190557E+03 0.  0.
          5    1    3    3  502    0 -0.36082651485E+02 -0.76031964223E+01 -0.48161017690E+02  0.60800677290E+02  0.41800000000E+01 0. -1.
         -5    1    3    3    0  502  0.27439095933E+02  0.63069318514E+02  0.34350825917E+02  0.76994120325E+02  0.41800000000E+01 0. -1.
        -11    1    1    2    0    0 -0.16518473744E+02 -0.27913912559E+02 -0.55365977753E+00  0.32439991189E+02  0.00000000000E+00 0.  1.
         11    1    1    2    0    0  0.25162029297E+02 -0.27552209533E+02 -0.14021130239E+03  0.14509121712E+03  0.00000000000E+00 0. -1.
</event>
<event>
 7    1  0.2728221E-009  0.2256964E+03  0.7561462E-02  0.1129706E+00
         -1   -1    0    0    0  501 -0.00000000000E+00  0.00000000000E+00  0.78183672670E+02  0.78183672670E+02  0.00000000000E+00 0.  1.
          1   -1    0    0  501    0  0.00000000000E+00 -0.00000000000E+00 -0.95645309019E+03  0.95645309019E+03  0.00000000000E+00 0. -1.
         25    2    1    2    0    0  0.17650109054E+03 -0.10392899200E+03 -0.17553566847E+03  0.29733294439E+03  0.12506093945E+03 0.  0.
          5    1    3    3  502    0  0.16790898881E+02 -0.75492073151E+02 -0.63276787646E+02  0.10001205752E+03  0.41800000000E+01 0.  1.
         -5    1    3    3    0  502  0.15971019166E+03 -0.28436918853E+02 -0.11225888082E+03  0.19732088688E+03  0.41800000000E+01 0.  1.
        -11    1    1    2    0    0 -0.20585299621E+02 -0.53491745817E+01 -0.22650582848E+02  0.31071162395E+02  0.00000000000E+00 0.  1.
         11    1    1    2    0    0 -0.15591579092E+03  0.10927816659E+03 -0.68008316620E+03  0.70623265607E+03  0.00000000000E+00 0. -1.
</event>
<event>
 7    1  0.2728221E-009  0.1098535E+03  0.7561462E-02  0.1260841E+00
         -1   -1    0    0    0  501 -0.00000000000E+00  0.00000000000E+00  0.42957378548E+03  0.42957378548E+03  0.00000000000E+00 0.  1.
          1   -1    0    0  501    0  0.00000000000E+00 -0.00000000000E+00 -0.41603085799E+02  0.41603085799E+02  0.00000000000E+00 0. -1.
         25    2    1    2    0    0 -0.68397348667E+02 -0.75482907062E+01  0.15671324870E+03  0.21199249151E+03  0.12508637072E+03 0.  0.
          5    1    3    3  502    0 -0.38823657747E+01 -0.48079937696E+02  0.14399875491E+02  0.50513186269E+02  0.41800000000E+01 0. -1.
         -5    1    3    3    0  502 -0.64514982893E+02  0.40531646990E+02  0.14231337321E+03  0.16147930524E+03  0.41800000000E+01 0. -1.
        -11    1    1    2    0    0 -0.13130313091E+02  0.18219114708E+01 -0.67510925594E+00  0.13273291068E+02  0.00000000000E+00 0. -1.
         11    1    1    2    0    0  0.81527661758E+02  0.57263792354E+01  0.23193256023E+03  0.24591108870E+03  0.00000000000E+00 0.  1.
</event>
<event>
 7    1  0.3610036E-009  0.1344072E+03  0.7561462E-02  0.1221059E+00
         -1   -1    0    0    0  501 -0.00000000000E+00  0.00000000000E+00  0.19185437406E+02  0.19185437406E+02  0.00000000000E+00 0.  1.
          1   -1    0    0  501    0  0.00000000000E+00 -0.00000000000E+00 -0.10513206104E+04  0.10513206104E+04  0.00000000000E+00 0. -1.
         25    2    1    2    0    0 -0.25437795275E+02  0.86720756059E+02 -0.61200675103E+03  0.63116500216E+03  0.12509766461E+03 0.  0.
          5    1    3    3  502    0  0.19040642039E+02  0.10312113142E+03 -0.37391695407E+03  0.38836564567E+03  0.41800000000E+01 0.  1.
         -5    1    3    3    0  502 -0.44478437314E+02 -0.16400375364E+02 -0.23808979695E+03  0.24279935649E+03  0.41800000000E+01 0.  1.
        -11    1    1    2    0    0  0.45943745018E+02 -0.27357536807E+02 -0.28952292606E+03  0.29441940704E+03  0.00000000000E+00 0. -1.
         11    1    1    2    0    0 -0.20505949743E+02 -0.59363219253E+02 -0.13060549589E+03  0.14492163859E+03  0.00000000000E+00 0.  1.
</event>
<event>
 7    1  0.4029896E-009  0.1239268E+03  0.7561462E-02  0.1236756E+00
         -1   -1    0    0    0  501 -0.00000000000E+00  0.00000000000E+00  0.36083573119E+02  0.36083573119E+02  0.00000000000E+00 0.  1.
          1   -1    0    0  501    0  0.00000000000E+00 -0.00000000000E+00 -0.82948163363E+03  0.82948163363E+03  0.00000000000E+00 0. -1.
         25    2    1    2    0    0  0.83438226994E+02  0.48904195885E+02 -0.65395208115E+03  0.67279605929E+03  0.12509058660E+03 0.  0.
          5    1    3    3  502    0  0.51933332177E+02  0.86832884543E+02 -0.52497145221E+03  0.53464896789E+03  0.41800000000E+01 0.  1.
         -5    1    3    3    0  502  0.31504894817E+02 -0.37928688658E+02 -0.12898062894E+03  0.13814709140E+03  0.41800000000E+01 0.  1.
        -11    1    1    2    0    0 -0.46278192636E+02 -0.22082054189E+02 -0.13766616456E+03  0.14690561969E+03  0.00000000000E+00 0. -1.
         11    1    1    2    0    0 -0.37160034357E+02 -0.26822141696E+02 -0.17798147961E+01  0.45863527768E+02  0.00000000000E+00 0.  1.
</event>
<event>
 7    1  0.2728221E-009  0.9028033E+02  0.7561462E-02  0.1302174E+00
         -1   -1    0    0    0  501 -0.00000000000E+00  0.00000000000E+00  0.40022851373E+02  0.40022851373E+02  0.00000000000E+00 0.  1.
          1   -1    0    0  501    0  0.00000000000E+00 -0.00000000000E+00 -0.47306402166E+03  0.47306402166E+03  0.00000000000E+00 0. -1.
         25    2    1    2    0    0  0.11683891764E+02 -0.78851804563E+02 -0.29349091697E+03  0.32885317342E+03  0.12511343218E+03 0.  0.
          5    1    3    3  502    0  0.33493840998E+02 -0.50469742973E+02 -0.28557305254E+03  0.29195628625E+03  0.41800000000E+01 0.  1.
         -5    1    3    3    0  502 -0.21809949233E+02 -0.28382061590E+02 -0.79178644279E+01  0.36896887169E+02  0.41800000000E+01 0.  1.
        -11    1    1    2    0    0  0.30354632838E+01  0.59078094112E+02 -0.20422237385E+02  0.62581970416E+02  0.00000000000E+00 0.  1.
         11    1    1    2    0    0 -0.14719355048E+02  0.19773710450E+02 -0.11912801593E+03  0.12165172920E+03  0.00000000000E+00 0. -1.
</event>
<event>
 7    1  0.2728221E-009  0.2300468E+03  0.7561462E-02  0.1126607E+00
         -2   -1    0    0    0  501 -0.00000000000E+00  0.00000000000E+00  0.59004181838E+03  0.59004181838E+03  0.00000000000E+00 0.  1.
          2   -1    0    0  501    0  0.00000000000E+00 -0.00000000000E+00 -0.11119905187E+03  0.11119905187E+03  0.00000000000E+00 0. -1.
         25    2    1    2    0    0  0.19908553768E+03 -0.97567946885E+02  0.15322059021E+03  0.29711833541E+03  0.12509276716E+03 0.  0.
          5    1    3    3  502    0  0.36244910770E+01  0.45817209906E+01  0.55321679501E+02  0.55786106923E+02  0.41800000000E+01 0.  1.
         -5    1    3    3    0  502  0.19546104660E+03 -0.10214966788E+03  0.97898910714E+02  0.24133222849E+03  0.41800000000E+01 0.  1.
        -11    1    1    2    0    0 -0.42268049645E+02  0.55875093652E+02  0.14674764248E+03  0.16261452790E+03  0.00000000000E+00 0.  1.
         11    1    1    2    0    0 -0.15681748804E+03  0.41692853234E+02  0.17887453382E+03  0.24150800694E+03  0.00000000000E+00 0. -1.
</event>
<event>
 7    1  0.2728221E-009  0.1022999E+03  0.7561462E-02  0.1275533E+00
          1   -1    0    0  501    0  0.00000000000E+00  0.00000000000E+00  0.15607813748E+02  0.15607813748E+02  0.00000000000E+00 0. -1.
         -1   -1    0    0    0  501 -0.00000000000E+00 -0.00000000000E+00 -0.91521527508E+03  0.91521527508E+03  0.00000000000E+00 0.  1.
         25    2    1    2    0    0 -0.22389523978E+02 -0.42815495238E+02 -0.54733421219E+03  0.56352308980E+03  0.12509626489E+03 0.  0.
          5    1    3    3  502    0  0.43784691391E+02 -0.28553105047E+02 -0.12166819196E+03  0.13248773658E+03  0.41800000000E+01 0. -1.
         -5    1    3    3    0  502 -0.66174215369E+02 -0.14262390191E+02 -0.42566602022E+03  0.43103535322E+03  0.41800000000E+01 0. -1.
        -11    1    1    2    0    0  0.27919712299E+02 -0.11169214676E+02 -0.38415894290E+02  0.48785680537E+02  0.00000000000E+00 0. -1.
         11    1    1    2    0    0 -0.55301883204E+01  0.53984709914E+02 -0.31385735485E+03  0.31851431849E+03  0.00000000000E+00 0.  1.
</event>
<event>
 7    1  0.2728221E-009  0.1899206E+03  0.7561462E-02  0.1158533E+00
         -2   -1    0    0    0  501 -0.00000000000E+00  0.00000000000E+00  0.31925995673E+02  0.31925995673E+02  0.00000000000E+00 0.  1.
          2   -1    0    0  501    0  0.00000000000E+00 -0.00000000000E+00 -0.13573067904E+04  0.13573067904E+04  0.00000000000E+00 0. -1.
         25    2    1    2    0    0 -0.31842267640E+02  0.16601696841E+03 -0.86193229851E+03  0.88721520104E+03  0.12509181406E+03 0.  0.
          5    1    3    3  502    0 -0.45126714541E+02  0.24459139627E+02 -0.10401313806E+03  0.11606409938E+03  0.41800000000E+01 0. -1.
         -5    1    3    3    0  502  0.13284446901E+02  0.14155782878E+03 -0.75791916045E+03  0.77115110166E+03  0.41800000000E+01 0. -1.
        -11    1    1    2    0    0  0.32063627568E+02 -0.15552634261E+02 -0.45400644246E+02  0.57716368070E+02  0.00000000000E+00 0.  1.
         11    1    1    2    0    0 -0.22135992756E+00 -0.15046433415E+03 -0.41804785195E+03  0.44430121693E+03  0.00000000000E+00 0. -1.
</event>
<event>
 7    1  0.2728221E-009  0.1052355E+03  0.7561462E-02  0.1269656E+00
         -2   -1    0    0    0  501 -0.00000000000E+00  0.00000000000E+00  0.28776786595E+02  0.28776786595E+02  0.00000000000E+00 0.  1.
          2   -1    0    0  501    0  0.00000000000E+00 -0.00000000000E+00 -0.46742694249E+03  0.46742694249E+03  0.00000000000E+00 0. -1.
         25    2    1    2    0    0 -0.28729958271E+02  0.58701605309E+01 -0.24475776635E+03  0.27642999381E+03  0.12508920018E+03 0.  0.
          5    1    3    3  502    0 -0.62735266759E+02 -0.30646929670E+02 -0.91326474770E+02  0.11503453998E+03  0.41800000000E+01 0.  1.
         -5    1    3    3    0  502  0.34005308488E+02  0.36517090201E+02 -0.15343129158E+03  0.16139545383E+03  0.41800000000E+01 0.  1.
        -11    1    1    2    0    0  0.41731018373E+02 -0.37593929938E+02 -0.62714633348E+02  0.84189706607E+02  0.00000000000E+00 0. -1.
         11    1    1    2    0    0 -0.13001060103E+02  0.31723769408E+02 -0.13117775620E+03  0.13558402867E+03  0.00000000000E+00 0.  1.
</event>
<event>
 7    1  0.2728221E-009  0.1014983E+03  0.7561462E-02  0.1277176E+00
         -4   -1    0    0    0  501 -0.00000000000E+00  0.00000000000E+00  0.59509116032E+02  0.59509116032E+02  0.00000000000E+00 0.  1.
          4   -1    0    0  501    0  0.00000000000E+00 -0.00000000000E+00 -0.26264364140E+03  0.26264364140E+03  0.00000000000E+00 0. -1.
         25    2    1    2    0    0 -0.62253868326E+02  0.89774912370E+01 -0.88111300679E+02  0.16543858319E+03  0.12510069556E+03 0.  0.
          5    1    3    3  502    0  0.21469560105E+02 -0.38053519500E+02 -0.26657020032E+02  0.51352521598E+02  0.41800000000E+01 0. -1.
         -5    1    3    3    0  502 -0.83723428431E+02  0.47031010737E+02 -0.61454280646E+02  0.11408606159E+03  0.41800000000E+01 0. -1.
        -11    1    1    2    0    0  0.10743333938E+02 -0.29070690084E+00  0.13923088248E+02  0.17588522422E+02  0.00000000000E+00 0.  1.
         11    1    1    2    0    0  0.51510534388E+02 -0.86867843362E+01 -0.12894631293E+03  0.13912565182E+03  0.00000000000E+00 0. -1.
</event>
<event>
 7    1  0.2728221E-009  0.1300254E+03  0.7561462E-02  0.1227418E+00
          2   -1    0    0  501    0  0.00000000000E+00  0.00000000000E+00  0.20392144726E+03  0.20392144726E+03  0.00000000000E+00 0. -1.
         -2   -1    0    0    0  501 -0.00000000000E+00 -0.00000000000E+00 -0.85972809654E+02  0.85972809654E+02  0.00000000000E+00 0.  1.
         25    2    1    2    0    0  0.72728449114E+02  0.95531331493E+01  0.48914872092E+02  0.15302810264E+03  0.12507695960E+03 0.  0.
          5    1    3    3  502    0  0.69514208098E+02 -0.49114375921E+02  0.20596819152E+02  0.87670681580E+02  0.41800000000E+01 0. -1.
         -5    1    3    3    0  502  0.32142410166E+01  0.58667509070E+02  0.28318052940E+02  0.65357421064E+02  0.41800000000E+01 0. -1.
        -11    1    1    2    0    0  0.20277773907E+02 -0.10676695203E+02  0.25135877026E+02  0.34014588766E+02  0.00000000000E+00 0. -1.
         11    1    1    2    0    0 -0.93006223021E+02  0.11235620536E+01  0.43897888484E+02  0.10285156550E+03  0.00000000000E+00 0.  1.
</event>
<event>
 7    1  0.2728221E-009  0.1359989E+03  0.7561462E-02  0.1218816E+00
          2   -1    0    0  501    0  0.00000000000E+00  0.00000000000E+00  0.12489858405E+04  0.12489858405E+04  0.00000000000E+00 0. -1.
         -2   -1    0    0    0  501 -0.00000000000E+00 -0.00000000000E+00 -0.19164971909E+02  0.19164971909E+02  0.00000000000E+00 0.  1.
         25    2    1    2    0    0 -0.69603009323E+02 -0.71556016029E+02  0.77422344959E+03  0.79059129553E+03  0.12509118410E+03 0.  0.
          5    1    3    3  502    0 -0.10565772359E+03 -0.61470481061E+02  0.58269386893E+03  0.59539213287E+03  0.41800000000E+01 0.  1.
         -5    1    3    3    0  502  0.36054714265E+02 -0.10085534968E+02  0.19152958066E+03  0.19519916266E+03  0.41800000000E+01 0.  1.
        -11    1    1    2    0    0  0.69174260564E+02  0.38907388497E+02  0.42650847583E+03  0.43382985508E+03  0.00000000000E+00 0. -1.
         11    1    1    2    0    0  0.42874875932E+00  0.32648627532E+02  0.29088943144E+02  0.43729661769E+02  0.00000000000E+00 0.  1.
</event>
<event>
 7    1  0.2728221E-009  0.9656139E+02  0.7561462E-02  0.1287698E+00
          1   -1    0    0  501    0  0.00000000000E+00  0.00000000000E+00  0.11910473016E+04  0.11910473016E+04  0.00000000000E+00 0. -1.
         -1   -1    0    0    0  501 -0.00000000000E+00 -0.00000000000E+00 -0.27452708034E+02  0.27452708034E+02  0.00000000000E+00 0.  1.
         25    2    1    2    0    0  0.14165428337E+02 -0.43316801845E+02  0.10798260495E+04  0.10880020119E+04  0.12508827366E+03 0.  0.
          5    1    3    3  502    0 -0.48625240340E+02  0.24644242051E+01  0.26497425180E+03  0.26944259853E+03  0.41800000000E+01 0.  1.
         -5    1    3    3    0  502  0.62790668677E+02 -0.45781226051E+02  0.81485179765E+03  0.81855941340E+03  0.41800000000E+01 0.  1.
        -11    1    1    2    0    0 -0.31936111503E+02  0.22506516779E+02 -0.33204566063E+01  0.39210763159E+02  0.00000000000E+00 0.  1.
         11    1    1    2    0    0  0.17770683166E+02  0.20810285067E+02  0.87089000765E+02  0.91287234589E+02  0.00000000000E+00 0. -1.
</event>
<event>
 7    1  0.2728221E-009  0.1504645E+03  0.7561462E-02  0.1199903E+00
          2   -1    0    0  501    0  0.00000000000E+00  0.00000000000E+00  0.74265394342E+03  0.74265394342E+03  0.00000000000E+00 0. -1.
         -2   -1    0    0    0  501 -0.00000000000E+00 -0.00000000000E+00 -0.39553079037E+02  0.39553079037E+02  0.00000000000E+00 0.  1.
         25    2    1    2    0    0  0.73853480336E+02 -0.89733862496E+02  0.51990830126E+03  0.54722811963E+03  0.12508984991E+03 0.  0.
          5    1    3    3  502    0  0.47012102464E+02  0.22210779833E+02  0.11548151569E+03  0.12671586082E+03  0.41800000000E+01 0.  1.
         -5    1    3    3    0  502  0.26841377872E+02 -0.11194464233E+03  0.40442678558E+03  0.42051225880E+03  0.41800000000E+01 0.  1.
        -11    1    1    2    0    0 -0.39231677208E+02  0.90822966014E+02  0.83570626815E+02  0.12950669990E+03  0.00000000000E+00 0.  1.
         11    1    1    2    0    0 -0.34621803128E+02 -0.10891035175E+01  0.99621936302E+02  0.10547220293E+03  0.00000000000E+00 0. -1.
</event>
<event>
 7    1  0.2728221E-009  0.9463558E+02  0.7561462E-02  0.1291999E+00
         -2   -1    0    0    0  501 -0.00000000000E+00  0.00000000000E+00  0.58362343034E+02  0.58362343034E+02  0.00000000000E+00 0.  1.
          2   -1    0    0  501    0  0.00000000000E+00 -0.00000000000E+00 -0.24297409851E+03  0.24297409851E+03  0.00000000000E+00 0. -1.
         25    2    1    2    0    0  0.13582113256E+02  0.41081291314E+02 -0.10854221206E+03  0.17118087853E+03  0.12509730245E+03 0.  0.
          5    1    3    3  502    0 -0.22646150926E+02 -0.33484809698E+02 -0.66994514742E+02  0.78356990995E+02  0.41800000000E+01 0. -1.
         -5    1    3    3    0  502  0.36228264182E+02  0.74566101011E+02 -0.41547697314E+02  0.92823887539E+02  0.41800000000E+01 0. -1.
        -11    1    1    2    0    0 -0.88531272672E+01  0.10553173466E+02  0.18045818364E+02  0.22702398398E+02  0.00000000000E+00 0.  1.
         11    1    1    2    0    0 -0.47289859889E+01 -0.51634464780E+02 -0.94115361781E+02  0.10745316461E+03  0.00000000000E+00 0. -1.
</event>
<event>
 7    1  0.2728221E-009  0.1907797E+03  0.7561462E-02  0.1157760E+00
          2   -1    0    0  501    0  0.00000000000E+00  0.00000000000E+00  0.19925158486E+03  0.19925158486E+03  0.00000000000E+00 0. -1.
         -2   -1    0    0    0  501 -0.00000000000E+00 -0.00000000000E+00 -0.23055673968E+03  0.23055673968E+03  0.00000000000E+00 0.  1.
         25    2    1    2    0    0 -0.16483500720E+03  0.42073609141E+00  0.64878792732E+02  0.21686063841E+03  0.12509405313E+03 0.  0.
          5    1    3    3  502    0 -0.20835446601E+02  0.43132333912E+02 -0.97935167923E+01  0.49070351893E+02  0.41800000000E+01 0.  1.
         -5    1    3    3    0  502 -0.14399956060E+03 -0.42711597820E+02  0.74672309524E+02  0.16779028652E+03  0.41800000000E+01 0.  1.
        -11    1    1    2    0    0  0.55249245418E+02 -0.38348848045E+02 -0.89730254763E+01  0.67850043860E+02  0.00000000000E+00 0. -1.
         11    1    1    2    0    0  0.10958576178E+03  0.37928111953E+02 -0.87210922078E+02  0.14509764226E+03  0.00000000000E+00 0.  1.
</event>
<event>
 7    1  0.2728221E-009  0.3519724E+03  0.7561462E-02  0.1061808E+00
          1   -1    0    0  501    0  0.00000000000E+00  0.00000000000E+00  0.21898034047E+04  0.21898034047E+04  0.00000000000E+00 0. -1.
         -1   -1    0    0    0  501 -0.00000000000E+00 -0.00000000000E+00 -0.66725654973E+02  0.66725654973E+02  0.00000000000E+00 0.  1.
         25    2    1    2    0    0  0.31505590468E+03  0.13014988095E+03  0.14724447125E+04  0.15165557603E+04  0.12509487666E+03 0.  0.
          5    1    3    3  502    0  0.75027260635E+02  0.92790754860E+02  0.53212040205E+03  0.54535200440E+03  0.41800000000E+01 0. -1.
         -5    1    3    3    0  502  0.24002864405E+03  0.37359126091E+02  0.94032431045E+03  0.97120375591E+03  0.41800000000E+01 0. -1.
        -11    1    1    2    0    0 -0.93339518046E+02 -0.27820489948E+02  0.11107075696E+03  0.14772595690E+03  0.00000000000E+00 0.  1.
         11    1    1    2    0    0 -0.22171638664E+03 -0.10232939100E+03  0.53956228022E+03  0.59224734242E+03  0.00000000000E+00 0. -1.
</event>
<event>
 7    1  0.2728221E-009  0.1418660E+03  0.7561462E-02  0.1210840E+00
          1   -1    0    0  501    0  0.00000000000E+00  0.00000000000E+00  0.32370069092E+03  0.32370069092E+03  0.00000000000E+00 0. -1.
         -1   -1    0    0    0  501 -0.00000000000E+00 -0.00000000000E+00 -0.78022785485E+02  0.78022785485E+02  0.00000000000E+00 0.  1.
         25    2    1    2    0    0 -0.45417902994E+01  0.87769377588E+02  0.10021743559E+03  0.18280126481E+03  0.12509467023E+03 0.  0.
          5    1    3    3  502    0  0.31120392358E+02 -0.59786497402E+01  0.71603393033E+02  0.78413910546E+02  0.41800000000E+01 0.  1.
         -5    1    3    3    0  502 -0.35662182657E+02  0.93748027328E+02  0.28614042556E+02  0.10438735427E+03  0.41800000000E+01 0.  1.
        -11    1    1    2    0    0 -0.50611085628E+02 -0.81411409809E+02  0.12956772449E+03  0.16117411351E+03  0.00000000000E+00 0. -1.
         11    1    1    2    0    0  0.55152875927E+02 -0.63579677788E+01  0.15892745354E+02  0.57748098083E+02  0.00000000000E+00 0.  1.
</event>
<event>
 7    1  0.2728221E-009  0.8606162E+02  0.7561462E-02  0.1312679E+00
          1   -1    0    0  501    0  0.00000000000E+00  0.00000000000E+00  0.49038475778E+02  0.49038475778E+02  0.00000000000E+00 0. -1.
         -1   -1    0    0    0  501 -0.00000000000E+00 -0.00000000000E+00 -0.34751623048E+03  0.34751623048E+03  0.00000000000E+00 0.  1.
         25    2    1    2    0    0 -0.18813322535E+02  0.69833858597E+02 -0.15358487857E+03  0.21087202693E+03  0.12509191783E+03 0.  0.
          5    1    3    3  502    0  0.28993424468E+01  0.73264998536E+02 -0.16861628479E+03  0.18391598651E+03  0.41800000000E+01 0.  1.
         -5    1    3    3    0  502 -0.21712664982E+02 -0.34311399384E+01  0.15031406226E+02  0.26956040418E+02  0.41800000000E+01 0.  1.
        -11    1    1    2    0    0 -0.30767005010E+01 -0.35199944831E+02 -0.23547726643E+00  0.35334935286E+02  0.00000000000E+00 0. -1.
         11    1    1    2    0    0  0.21890023036E+02 -0.34633913766E+02 -0.14465739887E+03  0.15034774405E+03  0.00000000000E+00 0.  1.
</event>
<event>
 7    1  0.2728221E-009  0.2676206E+03  0.7561462E-02  0.1102649E+00
          2   -1    0    0  501    0  0.00000000000E+00  0.00000000000E+00  0.72381660594E+03  0.72381660594E+03  0.00000000000E+00 0. -1.
         -2   -1    0    0    0  501 -0.00000000000E+00 -0.00000000000E+00 -0.11336298306E+03  0.11336298306E+03  0.00000000000E+00 0.  1.
         25    2    1    2    0    0 -0.10531434623E+03  0.22978873249E+03  0.42607543883E+03  0.51096184996E+03  0.12509100464E+03 0.  0.
          5    1    3    3  502    0 -0.10512685818E+03  0.80081492702E+02  0.19520320199E+03  0.23576781852E+03  0.41800000000E+01 0.  1.
         -5    1    3    3    0  502 -0.18748805203E+00  0.14970723979E+03  0.23087223684E+03  0.27519403144E+03  0.41800000000E+01 0.  1.
        -11    1    1    2    0    0  0.43764813420E+02 -0.11423831280E+03  0.34283191598E+02  0.12704758255E+03  0.00000000000E+00 0.  1.
         11    1    1    2    0    0  0.61549532808E+02 -0.11555041968E+03  0.15009499245E+03  0.19917015649E+03  0.00000000000E+00 0. -1.
</event>
<event>
 7    1  0.2728221E-009  0.1089100E+03  0.7561462E-02  0.1262602E+00
          2   -1    0    0  501    0  0.00000000000E+00  0.00000000000E+00  0.40319163858E+03  0.40319163858E+03  0.00000000000E+00 0.  1.
         -2   -1    0    0    0  501 -0.00000000000E+00 -0.00000000000E+00 -0.36326521776E+02  0.36326521776E+02  0.00000000000E+00 0. -1.
         25    2    1    2    0    0 -0.34367177519E+02 -0.35012468436E+01  0.12991017319E+03  0.18362369256E+03  0.12509055021E+03 0.  0.
          5    1    3    3  502    0 -0.22965838176E+02  0.59588868509E+02  0.78873457821E+02  0.10157144147E+03  0.41800000000E+01 0. -1.
         -5    1    3    3    0  502 -0.11401339342E+02 -0.63090115352E+02  0.51036715371E+02  0.82052251096E+02  0.41800000000E+01 0. -1.
        -11    1    1    2    0    0  0.33706815330E+02 -0.36433271897E+02  0.81793604900E+02  0.95675109111E+02  0.00000000000E+00 0. -1.
         11    1    1    2    0    0  0.66036218828E+00  0.39934518740E+02  0.15516133871E+03  0.16021935868E+03  0.00000000000E+00 0.  1.
</event>
<event>
 7    1  0.2728221E-009  0.1423647E+03  0.7561462E-02  0.1210182E+00
          2   -1    0    0  501    0  0.00000000000E+00  0.00000000000E+00  0.36595714431E+03  0.36595714431E+03  0.00000000000E+00 0. -1.
         -2   -1    0    0    0  501 -0.00000000000E+00 -0.00000000000E+00 -0.60733231091E+02  0.60733231091E+02  0.00000000000E+00 0.  1.
         25    2    1    2    0    0 -0.88384676528E+02  0.20788706166E+02  0.10555218189E+03  0.18716952304E+03  0.12508855224E+03 0.  0.
          5    1    3    3  502    0 -0.23467299513E+02  0.68233781389E+02  0.35875563503E+02  0.80691334886E+02  0.41800000000E+01 0. -1.
         -5    1    3    3    0  502 -0.64917377014E+02 -0.47445075223E+02  0.69676618391E+02  0.10647818815E+03  0.41800000000E+01 0. -1.
        -11    1    1    2    0    0  0.89305957472E+02  0.19686975466E+02  0.13008247071E+03  0.15901125819E+03  0.00000000000E+00 0.  1.
         11    1    1    2    0    0 -0.92128094449E+00 -0.40475681633E+02  0.69589260612E+02  0.80509594178E+02  0.00000000000E+00 0. -1.
</event>
<event>
 7    1  0.2728221E-009  0.1335282E+03  0.7561462E-02  0.1222312E+00
          1   -1    0    0  501    0  0.00000000000E+00  0.00000000000E+00  0.11893380025E+04  0.11893380025E+04  0.00000000000E+00 0. -1.
         -1   -1    0    0    0  501 -0.00000000000E+00 -0.00000000000E+00 -0.18900158566E+02  0.18900158566E+02  0.00000000000E+00 0.  1.
         25    2    1    2    0    0  0.91540399754E+02  0.29522977813E+02  0.78282699242E+03  0.79857171226E+03  0.12508968205E+03 0.  0.
          5    1    3    3  502    0  0.29734614548E+02  0.58731679210E+02  0.59504919515E+03  0.59869405750E+03  0.41800000000E+01 0. -1.
         -5    1    3    3    0  502  0.61805785206E+02 -0.29208701397E+02  0.18777779727E+03  0.19987765475E+03  0.41800000000E+01 0. -1.
        -11    1    1    2    0    0 -0.10681913433E+03 -0.40019191682E+02  0.33338789759E+03  0.35236253124E+03  0.00000000000E+00 0. -1.
         11    1    1    2    0    0  0.15278734578E+02  0.10496213869E+02  0.54222953899E+02  0.57303917540E+02  0.00000000000E+00 0.  1.
</event>
<event>
 7    1  0.2728221E-009  0.2713073E+03  0.7561462E-02  0.1100534E+00
          2   -1    0    0  501    0  0.00000000000E+00  0.00000000000E+00  0.12437938724E+04  0.12437938724E+04  0.00000000000E+00 0. -1.
         -2   -1    0    0    0  501 -0.00000000000E+00 -0.00000000000E+00 -0.90279095262E+02  0.90279095262E+02  0.00000000000E+00 0.  1.
         25    2    1    2    0    0 -0.16999411288E+03 -0.20606130488E+03  0.24762791084E+03  0.38513025669E+03  0.12508586096E+03 0.  0.
          5    1    3    3  502    0 -0.51618694213E+02 -0.91928336940E+02  0.25184606325E+02  0.10847601357E+03  0.41800000000E+01 0. -1.
         -5    1    3    3    0  502 -0.11837541867E+03 -0.11413296794E+03  0.22244330451E+03  0.27665424312E+03  0.41800000000E+01 0. -1.
        -11    1    1    2    0    0  0.10458972939E+03  0.84045688823E+02  0.57133497365E+03  0.58687847245E+03  0.00000000000E+00 0. -1.
         11    1    1    2    0    0  0.65404383493E+02  0.12201561605E+03  0.33455189268E+03  0.36206423855E+03  0.00000000000E+00 0.  1.
</event>
<event>
 7    1  0.2728221E-009  0.1178385E+03  0.7561462E-02  0.1246706E+00
          1   -1    0    0  501    0  0.00000000000E+00  0.00000000000E+00  0.16384357864E+03  0.16384357864E+03  0.00000000000E+00 0. -1.
         -1   -1    0    0    0  501 -0.00000000000E+00 -0.00000000000E+00 -0.11076529012E+03  0.11076529012E+03  0.00000000000E+00 0.  1.
         25    2    1    2    0    0  0.34116253465E+02 -0.71772355056E+02  0.17725038041E+02  0.14925374673E+03  0.12508922511E+03 0.  0.
          5    1    3    3  502    0  0.23840553163E+02  0.14722365910E+02 -0.36774024767E+02  0.46421130218E+02  0.41800000000E+01 0.  1.
         -5    1    3    3    0  502  0.10275700302E+02 -0.86494720966E+02  0.54499062807E+02  0.10283261651E+03  0.41800000000E+01 0.  1.
        -11    1    1    2    0    0 -0.52150378164E+02  0.66525794125E+01  0.18284062409E+02  0.55661707607E+02  0.00000000000E+00 0. -1.
         11    1    1    2    0    0  0.18034124699E+02  0.65119775643E+02  0.17069188066E+02  0.69693414429E+02  0.00000000000E+00 0.  1.
</event>
<event>
 7    1  0.2728221E-009  0.9096819E+02  0.7561462E-02  0.1300524E+00
         -2   -1    0    0    0  501 -0.00000000000E+00  0.00000000000E+00  0.39038127056E+02  0.39038127056E+02  0.00000000000E+00 0.  1.
          2   -1    0    0  501    0  0.00000000000E+00 -0.00000000000E+00 -0.30918336691E+03  0.30918336691E+03  0.00000000000E+00 0. -1.
         25    2    1    2    0    0  0.72057121939E+01  0.14656635102E+01 -0.13102748791E+03  0.18130053700E+03  0.12509041398E+03 0.  0.
          5    1    3    3  502    0  0.21253329166E+02 -0.40974770377E+02 -0.39402078862E+01  0.46514873388E+02  0.41800000000E+01 0. -1.
         -5    1    3    3    0  502 -0.14047616972E+02  0.42440433888E+02 -0.12708728003E+03  0.13478566361E+03  0.41800000000E+01 0. -1.
        -11    1    1    2    0    0 -0.14429999875E+02 -0.44639949924E+02 -0.56637100075E+02  0.73543940135E+02  0.00000000000E+00 0. -1.
         11    1    1    2    0    0  0.72242876814E+01  0.43174286414E+02 -0.82480651870E+02  0.93377016833E+02  0.00000000000E+00 0.  1.
</event>
<event>
 7    1  0.2728221E-009  0.7937447E+02  0.7561462E-02  0.1330836E+00
          1   -1    0    0  501    0  0.00000000000E+00  0.00000000000E+00  0.10800944196E+03  0.10800944196E+03  0.00000000000E+00 0. -1.
         -1   -1    0    0    0  501 -0.00000000000E+00 -0.00000000000E+00 -0.11280936084E+03  0.11280936084E+03  0.00000000000E+00 0.  1.
         25    2    1    2    0    0  0.19785387407E+02 -0.13676400384E+02  0.68125703641E+01  0.12756208694E+03  0.12508864628E+03 0.  0.
          5    1    3    3  502    0 -0.23208519297E+02 -0.33612641063E+02  0.49032910796E+02  0.63954231669E+02  0.41800000000E+01 0. -1.
         -5    1    3    3    0  502  0.42993906704E+02  0.19936240679E+02 -0.42220340432E+02  0.63607855272E+02  0.41800000000E+01 0. -1.
        -11    1    1    2    0    0 -0.16979549973E+02  0.40097352667E+02 -0.36524933874E+02  0.56834616236E+02  0.00000000000E+00 0.  1.
         11    1    1    2    0    0 -0.28058374339E+01 -0.26420952283E+02  0.24912444635E+02  0.36422099623E+02  0.00000000000E+00 0. -1.
</event>
<event>
 7    1  0.2728221E-009  0.1473854E+03  0.7561462E-02  0.1203723E+00
          2   -1    0    0  501    0  0.00000000000E+00  0.00000000000E+00  0.37372660212E+03  0.37372660212E+03  0.00000000000E+00 0. -1.
         -2   -1    0    0    0  501 -0.00000000000E+00 -0.00000000000E+00 -0.69684105008E+02  0.69684105008E+02  0.00000000000E+00 0.  1.
         25    2    1    2    0    0  0.46780663986E+02 -0.10689674583E+03  0.14449533313E+03  0.22392201171E+03  0.12508725451E+03 0.  0.
          5    1    3    3  502    0  0.68379407670E+02 -0.73669746930E+01  0.52649139148E+02  0.86714589098E+02  0.41800000000E+01 0.  1.
         -5    1    3    3    0  502 -0.21598743684E+02 -0.99529771134E+02  0.91846193984E+02  0.13720742261E+03  0.41800000000E+01 0.  1.
        -11    1    1    2    0    0 -0.49328528686E+02  0.63229745769E+02  0.35030403277E+02  0.87512477088E+02  0.00000000000E+00 0.  1.
         11    1    1    2    0    0  0.25478647000E+01  0.43667000058E+02  0.12451676070E+03  0.13197621833E+03  0.00000000000E+00 0. -1.
</event>
<event>
 7    1  0.2728221E-009  0.1239953E+03  0.7561462E-02  0.1236648E+00
         -2   -1    0    0    0  501 -0.00000000000E+00  0.00000000000E+00  0.10802082260E+02  0.10802082260E+02  0.00000000000E+00 0. -1.
          2   -1    0    0  501    0  0.00000000000E+00 -0.00000000000E+00 -0.17199993242E+04  0.17199993242E+04  0.00000000000E+00 0.  1.
         25    2    1    2    0    0 -0.68254608027E+02  0.87286403308E+00 -0.12182108108E+04  0.12265178247E+04  0.12509572811E+03 0.  0.
          5    1    3    3  502    0 -0.68686642051E+02  0.50661998359E+02 -0.56822414372E+03  0.57461347250E+03  0.41800000000E+01 0.  1.
         -5    1    3    3    0  502  0.43203402430E+00 -0.49789134325E+02 -0.64998666712E+03  0.65190435217E+03  0.41800000000E+01 0.  1.
        -11    1    1    2    0    0  0.38953603098E+02 -0.45053817786E+02 -0.20730198070E+03  0.21568806386E+03  0.00000000000E+00 0.  1.
         11    1    1    2    0    0  0.29301004929E+02  0.44180953753E+02 -0.28368445036E+03  0.28859551788E+03  0.00000000000E+00 0. -1.
</event>
<event>
 7    1  0.2728221E-009  0.2965298E+03  0.7561462E-02  0.1086988E+00
         -2   -1    0    0    0  501 -0.00000000000E+00  0.00000000000E+00  0.11325816444E+03  0.11325816444E+03  0.00000000000E+00 0.  1.
          2   -1    0    0  501    0  0.00000000000E+00 -0.00000000000E+00 -0.86113221463E+03  0.86113221463E+03  0.00000000000E+00 0. -1.
         25    2    1    2    0    0 -0.19487536208E+03 -0.21810352908E+03 -0.37747518509E+03  0.49364308256E+03  0.12510164452E+03 0.  0.
          5    1    3    3  502    0 -0.15348658946E+03 -0.18375881283E+03 -0.21278896673E+03  0.32034676711E+03  0.41800000000E+01 0. -1.
         -5    1    3    3    0  502 -0.41388772626E+02 -0.34344716256E+02 -0.16468621835E+03  0.17329631545E+03  0.41800000000E+01 0. -1.
        -11    1    1    2    0    0  0.16716456725E+03  0.14435283626E+03 -0.22447697135E+03  0.31491529741E+03  0.00000000000E+00 0.  1.
         11    1    1    2    0    0  0.27710794831E+02  0.73750692829E+02 -0.14592189376E+03  0.16583199909E+03  0.00000000000E+00 0. -1.
</event>
<event>
 7    1  0.2728221E-009  0.1065387E+03  0.7561462E-02  0.1267117E+00
          1   -1    0    0  501    0  0.00000000000E+00  0.00000000000E+00  0.44840783536E+03  0.44840783536E+03  0.00000000000E+00 0. -1.
         -1   -1    0    0    0  501 -0.00000000000E+00 -0.00000000000E+00 -0.36746734672E+02  0.36746734672E+02  0.00000000000E+00 0.  1.
         25    2    1    2    0    0  0.62954476182E+02 -0.28780211293E+02  0.21651768828E+03  0.25945845034E+03  0.12508881439E+03 0.  0.
          5    1    3    3  502    0 -0.25664914778E+02 -0.21595425575E+02  0.13360874724E+03  0.13781806846E+03  0.41800000000E+01 0.  1.
         -5    1    3    3    0  502  0.88619390960E+02 -0.71847857189E+01  0.82908941037E+02  0.12164038188E+03  0.41800000000E+01 0.  1.
        -11    1    1    2    0    0 -0.11681878432E+02  0.36584831519E+02  0.15616634686E+03  0.16081929011E+03  0.00000000000E+00 0. -1.
         11    1    1    2    0    0 -0.51272597750E+02 -0.78046202255E+01  0.38977065555E+02  0.64876829579E+02  0.00000000000E+00 0.  1.
</event>
<event>
 7    1  0.2728221E-009  0.1057607E+03  0.7561462E-02  0.1268628E+00
         -4   -1    0    0    0  501 -0.00000000000E+00  0.00000000000E+00  0.20089669127E+03  0.20089669127E+03  0.00000000000E+00 0. -1.
          4   -1    0    0  501    0  0.00000000000E+00 -0.00000000000E+00 -0.71826076364E+02  0.71826076364E+02  0.00000000000E+00 0.  1.
         25    2    1    2    0    0 -0.15944571567E+02  0.43850256885E+02  0.93779982366E+02  0.16315344263E+03  0.12508911367E+03 0.  0.
          5    1    3    3  502    0 -0.22600755196E+02  0.86128649388E+02  0.73838041513E+02  0.11575174796E+03  0.41800000000E+01 0.  1.
         -5    1    3    3    0  502  0.66561836284E+01 -0.42278392503E+02  0.19941940853E+02  0.47401694675E+02  0.41800000000E+01 0.  1.
        -11    1    1    2    0    0 -0.24184731366E+02 -0.25834743944E+02 -0.18621655205E+02  0.39988764278E+02  0.00000000000E+00 0.  1.
         11    1    1    2    0    0  0.40129302933E+02 -0.18015512941E+02  0.53912287742E+02  0.69580560719E+02  0.00000000000E+00 0. -1.
</event>
<event>
 7    1  0.2728221E-009  0.1568932E+03  0.7561462E-02  0.1192250E+00
         -3   -1    0    0    0  501 -0.00000000000E+00  0.00000000000E+00  0.12993792342E+03  0.12993792342E+03  0.00000000000E+00 0.  1.
          3   -1    0    0  501    0  0.00000000000E+00 -0.00000000000E+00 -0.19566543854E+03  0.19566543854E+03  0.00000000000E+00 0. -1.
         25    2    1    2    0    0 -0.10929542001E+03  0.28904198064E+02 -0.64774925766E+01  0.16873347972E+03  0.12509231698E+03 0.  0.
          5    1    3    3  502    0  0.25593868111E+02  0.21068033295E+02 -0.37292938180E+00  0.33414362004E+02  0.41800000000E+01 0. -1.
         -5    1    3    3    0  502 -0.13488928812E+03  0.78361647690E+01 -0.61045631948E+01  0.13531911772E+03  0.41800000000E+01 0. -1.
        -11    1    1    2    0    0  0.75530858590E+02 -0.62145613716E+02 -0.41972417082E+02  0.10643623302E+03  0.00000000000E+00 0.  1.
         11    1    1    2    0    0  0.33764561419E+02  0.33241415653E+02 -0.17277605461E+02  0.50433649212E+02  0.00000000000E+00 0. -1.
</event>
<event>
 7    1  0.2728221E-009  0.4100095E+03  0.7561462E-02  0.1040368E+00
          2   -1    0    0  501    0  0.00000000000E+00  0.00000000000E+00  0.21697257276E+03  0.21697257276E+03  0.00000000000E+00 0. -1.
         -2   -1    0    0    0  501 -0.00000000000E+00 -0.00000000000E+00 -0.81667355588E+03  0.81667355588E+03  0.00000000000E+00 0.  1.
         25    2    1    2    0    0 -0.84029666207E+02 -0.39258236515E+03 -0.38409007739E+03  0.56952147987E+03  0.12509048827E+03 0.  0.
          5    1    3    3  502    0 -0.10993103183E+03 -0.29412602439E+03 -0.32410682648E+03  0.45128445281E+03  0.41800000000E+01 0.  1.
         -5    1    3    3    0  502  0.25901365621E+02 -0.98456340764E+02 -0.59983250912E+02  0.11823702706E+03  0.41800000000E+01 0.  1.
        -11    1    1    2    0    0  0.29039234767E+02  0.24303087854E+03 -0.88407757586E+02  0.26023684728E+03  0.00000000000E+00 0. -1.
         11    1    1    2    0    0  0.54990431440E+02  0.14955148661E+03 -0.12720314816E+03  0.20388780149E+03  0.00000000000E+00 0.  1.
</event>
<event>
 7    1  0.2728221E-009  0.1314080E+03  0.7561462E-02  0.1225381E+00
         -1   -1    0    0    0  501 -0.00000000000E+00  0.00000000000E+00  0.36801172826E+02  0.36801172826E+02  0.00000000000E+00 0.  1.
          1   -1    0    0  501    0  0.00000000000E+00 -0.00000000000E+00 -0.98556037797E+03  0.98556037797E+03  0.00000000000E+00 0. -1.
         25    2    1    2    0    0  0.11191726922E+03 -0.10347946610E+02 -0.20713834663E+03  0.26680860794E+03  0.12509190013E+03 0.  0.
          5    1    3    3  502    0  0.11050377616E+03 -0.15504819339E+02 -0.75040140279E+02  0.13453616251E+03  0.41800000000E+01 0. -1.
         -5    1    3    3    0  502  0.14134930510E+01  0.51568727288E+01 -0.13209820635E+03  0.13227244543E+03  0.41800000000E+01 0. -1.
        -11    1    1    2    0    0  0.12038588356E+01 -0.25631219160E+02 -0.12361745215E+03  0.12625245798E+03  0.00000000000E+00 0.  1.
         11    1    1    2    0    0 -0.11312112805E+03  0.35979165770E+02 -0.61800340637E+03  0.62930048487E+03  0.00000000000E+00 0. -1.
</event>
<event>
 7    1  0.2728221E-009  0.1398629E+03  0.7561462E-02  0.1213514E+00
          3   -1    0    0  501    0  0.00000000000E+00  0.00000000000E+00  0.93679522021E+02  0.93679522021E+02  0.00000000000E+00 0. -1.
         -3   -1    0    0    0  501 -0.00000000000E+00 -0.00000000000E+00 -0.35533181241E+03  0.35533181241E+03  0.00000000000E+00 0.  1.
         25    2    1    2    0    0 -0.46857405018E+02  0.10765312435E+03 -0.29778563819E+02  0.17412281015E+03  0.12508868280E+03 0.  0.
          5    1    3    3  502    0 -0.61670526752E+02  0.10244234282E+03  0.20405402664E+02  0.12137355696E+03  0.41800000000E+01 0. -1.
         -5    1    3    3    0  502  0.14813121734E+02  0.52107815272E+01 -0.50183966482E+02  0.52749253184E+02  0.41800000000E+01 0. -1.
        -11    1    1    2    0    0 -0.24204159494E+02 -0.24310354847E+02 -0.31692933616E+02  0.46704140403E+02  0.00000000000E+00 0. -1.
         11    1    1    2    0    0  0.71061564512E+02 -0.83342769499E+02 -0.20018079295E+03  0.22818438388E+03  0.00000000000E+00 0.  1.
</event>
<event>
 7    1  0.2728221E-009  0.9158808E+02  0.7561462E-02  0.1299051E+00
          1   -1    0    0  501    0  0.00000000000E+00  0.00000000000E+00  0.94581393051E+02  0.94581393051E+02  0.00000000000E+00 0. -1.
         -1   -1    0    0    0  501 -0.00000000000E+00 -0.00000000000E+00 -0.16550390912E+03  0.16550390912E+03  0.00000000000E+00 0.  1.
         25    2    1    2    0    0  0.15096164772E+02 -0.58732319137E+02 -0.55707954362E+02  0.14973778749E+03  0.12506258162E+03 0.  0.
          5    1    3    3  502    0  0.11254724033E+01  0.15072872621E+02 -0.71217513044E+02  0.72923691221E+02  0.41800000000E+01 0.  1.
         -5    1    3    3    0  502  0.13970692369E+02 -0.73805191758E+02  0.15509558682E+02  0.76814096273E+02  0.41800000000E+01 0.  1.
        -11    1    1    2    0    0  0.19790167359E+02 -0.42700489836E+01 -0.30614232236E+02  0.36703068779E+02  0.00000000000E+00 0.  1.
         11    1    1    2    0    0 -0.34886332131E+02  0.63002368121E+02  0.15399670533E+02  0.73644445893E+02  0.00000000000E+00 0. -1.
</event>
<event>
 7    1  0.2728221E-009  0.1968852E+03  0.7561462E-02  0.1152394E+00
         -2   -1    0    0    0  501 -0.00000000000E+00  0.00000000000E+00  0.41817434965E+02  0.41817434965E+02  0.00000000000E+00 0. -1.
          2   -1    0    0  501    0  0.00000000000E+00 -0.00000000000E+00 -0.12064094775E+04  0.12064094775E+04  0.00000000000E+00 0.  1.
         25    2    1    2    0    0  0.18136786157E+03  0.72880528216E+02 -0.65034998523E+03  0.69051300562E+03  0.12508890856E+03 0.  0.
          5    1    3    3  502    0  0.88484926358E+02  0.31812911758E+02 -0.13098449607E+03  0.16129492911E+03  0.41800000000E+01 0.  1.
         -5    1    3    3    0  502  0.92882935216E+02  0.41067616458E+02 -0.51936548916E+03  0.52921807651E+03  0.41800000000E+01 0.  1.
        -11    1    1    2    0    0 -0.89131964203E+02 -0.52837723837E+02 -0.15622562316E+03  0.18746406972E+03  0.00000000000E+00 0. -1.
         11    1    1    2    0    0 -0.92235897371E+02 -0.20042804379E+02 -0.35801643412E+03  0.37024983709E+03  0.00000000000E+00 0.  1.
</event>
<event>
 7    1  0.2728221E-009  0.6208128E+02  0.7561462E-02  0.1389299E+00
         -3   -1    0    0    0  501 -0.00000000000E+00  0.00000000000E+00  0.17297479340E+03  0.17297479340E+03  0.00000000000E+00 0.  1.
          3   -1    0    0  501    0  0.00000000000E+00 -0.00000000000E+00 -0.85732970682E+02  0.85732970682E+02  0.00000000000E+00 0. -1.
         25    2    1    2    0    0  0.93138693682E+01  0.38966352164E+01  0.11487624423E+03  0.17013341441E+03  0.12508755047E+03 0.  0.
          5    1    3    3  502    0  0.29166715106E+01  0.21168728881E+02 -0.22590325958E+02  0.31375424810E+02  0.41800000000E+01 0. -1.
         -5    1    3    3    0  502  0.63971978576E+01 -0.17272093664E+02  0.13746657019E+03  0.13875798960E+03  0.41800000000E+01 0. -1.
        -11    1    1    2    0    0  0.20350035087E+02  0.31386085420E+02 -0.69311885180E+01  0.38042760945E+02  0.00000000000E+00 0.  1.
         11    1    1    2    0    0 -0.29663904455E+02 -0.35282720636E+02 -0.20703232989E+02  0.50531588727E+02  0.00000000000E+00 0. -1.
</event>
<event>
 7    1  0.2728221E-009  0.1007354E+03  0.7561462E-02  0.1278757E+00
         -1   -1    0    0    0  501 -0.00000000000E+00  0.00000000000E+00  0.24306604361E+02  0.24306604361E+02  0.00000000000E+00 0.  1.
          1   -1    0    0  501    0  0.00000000000E+00 -0.00000000000E+00 -0.50637400175E+03  0.50637400175E+03  0.00000000000E+00 0. -1.
         25    2    1    2    0    0  0.12153324564E+02  0.75218715321E+01 -0.27909863032E+03  0.30618063279E+03  0.12508498151E+03 0.  0.
          5    1    3    3  502    0  0.59735997242E+02  0.30279810311E+02 -0.10857672407E+03  0.12763868414E+03  0.41800000000E+01 0. -1.
         -5    1    3    3    0  502 -0.47582672678E+02 -0.22757938779E+02 -0.17052190625E+03  0.17854194865E+03  0.41800000000E+01 0. -1.
        -11    1    1    2    0    0 -0.46247362657E+02  0.12112499164E+01 -0.52523621758E+02  0.69992974802E+02  0.00000000000E+00 0.  1.
         11    1    1    2    0    0  0.34094038094E+02 -0.87331214485E+01 -0.15044514531E+03  0.15450699852E+03  0.00000000000E+00 0. -1.
</event>
<event>
 7    1  0.2728221E-009  0.8854089E+02  0.7561462E-02  0.1306424E+00
          1   -1    0    0  501    0  0.00000000000E+00  0.00000000000E+00  0.13885491848E+03  0.13885491848E+03  0.00000000000E+00 0. -1.
         -1   -1    0    0    0  501 -0.00000000000E+00 -0.00000000000E+00 -0.11702305036E+03  0.11702305036E+03  0.00000000000E+00 0.  1.
         25    2    1    2    0    0  0.61551705843E+02 -0.26076688700E+02  0.98192229149E+01  0.14217096718E+03  0.12509020978E+03 0.  0.
          5    1    3    3  502    0 -0.34450220424E+01 -0.29869003058E+02  0.54994159965E+02  0.62816045330E+02  0.41800000000E+01 0.  1.
         -5    1    3    3    0  502  0.64996727886E+02  0.37923143580E+01 -0.45174937051E+02  0.79354921848E+02  0.41800000000E+01 0.  1.
        -11    1    1    2    0    0 -0.59764092836E+02  0.37082716941E+02 -0.25313837511E+02  0.74750686002E+02  0.00000000000E+00 0.  1.
         11    1    1    2    0    0 -0.17876130073E+01 -0.11006028241E+02  0.37326482720E+02  0.38956315665E+02  0.00000000000E+00 0. -1.
</event>
<event>
 7    1  0.2728221E-009  0.1245368E+03  0.7561462E-02  0.1235795E+00
          1   -1    0    0  501    0  0.00000000000E+00  0.00000000000E+00  0.46935991515E+03  0.46935991515E+03  0.00000000000E+00 0. -1.
         -1   -1    0    0    0  501 -0.00000000000E+00 -0.00000000000E+00 -0.67947440625E+02  0.67947440625E+02  0.00000000000E+00 0.  1.
         25    2    1    2    0    0 -0.54639464342E+02 -0.11056035250E+03  0.31620352692E+03  0.36172119957E+03  0.12509393739E+03 0.  0.
          5    1    3    3  502    0 -0.21452481586E+02 -0.33046973179E+02  0.25345488823E+03  0.25653296898E+03  0.41800000000E+01 0.  1.
         -5    1    3    3    0  502 -0.33186982756E+02 -0.77513379316E+02  0.62748638688E+02  0.10518823059E+03  0.41800000000E+01 0.  1.
        -11    1    1    2    0    0  0.15787931143E+02  0.14601151932E+02  0.67134088252E+02  0.70494242410E+02  0.00000000000E+00 0. -1.
         11    1    1    2    0    0  0.38851533198E+02  0.95959200563E+02  0.18074859348E+02  0.10509191379E+03  0.00000000000E+00 0.  1.
</event>
<event>
 7    1  0.2728221E-009  0.1568088E+03  0.7561462E-02  0.1192347E+00
         -3   -1    0    0    0  501 -0.00000000000E+00  0.00000000000E+00  0.17685038816E+03  0.17685038816E+03  0.00000000000E+00 0.  1.
          3   -1    0    0  501    0  0.00000000000E+00 -0.00000000000E+00 -0.18237016080E+03  0.18237016080E+03  0.00000000000E+00 0. -1.
         25    2    1    2    0    0  0.10640339661E+03  0.96739016314E+02 -0.40416063834E+02  0.19483523523E+03  0.12508873085E+03 0.  0.
          5    1    3    3  502    0  0.98055597754E+02  0.11218347112E+03 -0.66418544545E+02  0.16318372132E+03  0.41800000000E+01 0. -1.
         -5    1    3    3    0  502  0.83477988518E+01 -0.15444454806E+02  0.26002480711E+02  0.31651513914E+02  0.41800000000E+01 0. -1.
        -11    1    1    2    0    0 -0.41317159279E+02 -0.20034767778E+02  0.43718812716E+02  0.63402162078E+02  0.00000000000E+00 0.  1.
         11    1    1    2    0    0 -0.65086237327E+02 -0.76704248536E+02 -0.88225215233E+01  0.10098315166E+03  0.00000000000E+00 0. -1.
</event>
<event>
 7    1  0.2728221E-009  0.1453825E+03  0.7561462E-02  0.1206264E+00
         -1   -1    0    0    0  501 -0.00000000000E+00  0.00000000000E+00  0.69802083187E+02  0.69802083187E+02  0.00000000000E+00 0.  1.
          1   -1    0    0  501    0  0.00000000000E+00 -0.00000000000E+00 -0.44614737664E+03  0.44614737664E+03  0.00000000000E+00 0. -1.
         25    2    1    2    0    0  0.13770650007E+02 -0.11430068539E+03 -0.31629118867E+03  0.35908376537E+03  0.12508699788E+03 0.  0.
          5    1    3    3  502    0  0.40729543173E+02  0.10477767035E+02 -0.80656926935E+02  0.91058725841E+02  0.41800000000E+01 0.  1.
         -5    1    3    3    0  502 -0.26958893167E+02 -0.12477845243E+03 -0.23563426173E+03  0.26802503953E+03  0.41800000000E+01 0.  1.
        -11    1    1    2    0    0 -0.26129601782E+02  0.67788493294E+02 -0.76981071131E+02  0.10584952161E+03  0.00000000000E+00 0. -1.
         11    1    1    2    0    0  0.12358951775E+02  0.46512192099E+02  0.16926966344E+02  0.51016172851E+02  0.00000000000E+00 0.  1.
</event>
<event>
 7    1  0.2728221E-009  0.9007211E+02  0.7561462E-02  0.1302677E+00
          4   -1    0    0  501    0  0.00000000000E+00  0.00000000000E+00  0.26193677671E+02  0.26193677671E+02  0.00000000000E+00 0. -1.
         -4   -1    0    0    0  501 -0.00000000000E+00 -0.00000000000E+00 -0.50537655287E+03  0.50537655287E+03  0.00000000000E+00 0.  1.
         25    2    1    2    0    0 -0.12268969285E+01 -0.26290562865E+02 -0.20426753470E+03  0.24096701595E+03  0.12508868082E+03 0.  0.
          5    1    3    3  502    0  0.26644236346E+02 -0.47876682711E+02 -0.28986354787E+02  0.62127073340E+02  0.41800000000E+01 0.  1.
         -5    1    3    3    0  502 -0.27871133275E+02  0.21586119846E+02 -0.17528117992E+03  0.17883994261E+03  0.41800000000E+01 0.  1.
        -11    1    1    2    0    0 -0.19510275865E+02 -0.26539708370E+02 -0.14727772990E+03  0.15091632354E+03  0.00000000000E+00 0.  1.
         11    1    1    2    0    0  0.20737172793E+02  0.52830271235E+02 -0.12763761059E+03  0.13968689105E+03  0.00000000000E+00 0. -1.
</event>
<event>
 7    1  0.2728221E-009  0.9583582E+02  0.7561462E-02  0.1289305E+00
         -2   -1    0    0    0  501 -0.00000000000E+00  0.00000000000E+00  0.18074701564E+03  0.18074701564E+03  0.00000000000E+00 0.  1.
          2   -1    0    0  501    0  0.00000000000E+00 -0.00000000000E+00 -0.76498908317E+02  0.76498908317E+02  0.00000000000E+00 0. -1.
         25    2    1    2    0    0 -0.28331038482E+02 -0.32554824454E+02  0.42516210463E+02  0.13899077300E+03  0.12509333511E+03 0.  0.
          5    1    3    3  502    0  0.32494468294E+02 -0.36580394141E+02 -0.18654836766E+02  0.52530857979E+02  0.41800000000E+01 0. -1.
         -5    1    3    3    0  502 -0.60825506776E+02  0.40255696870E+01  0.61171047229E+02  0.86459915019E+02  0.41800000000E+01 0. -1.
        -11    1    1    2    0    0  0.49709834146E+02  0.10616965975E+02  0.70016801943E+02  0.86522483388E+02  0.00000000000E+00 0.  1.
         11    1    1    2    0    0 -0.21378795664E+02  0.21937858479E+02 -0.82849050857E+01  0.31732667568E+02  0.00000000000E+00 0. -1.
</event>
<event>
 7    1  0.2728221E-009  0.1171727E+03  0.7561462E-02  0.1247835E+00
          2   -1    0    0  501    0  0.00000000000E+00  0.00000000000E+00  0.63764943173E+03  0.63764943173E+03  0.00000000000E+00 0. -1.
         -2   -1    0    0    0  501 -0.00000000000E+00 -0.00000000000E+00 -0.32813655468E+02  0.32813655468E+02  0.00000000000E+00 0.  1.
         25    2    1    2    0    0  0.65028948989E+02 -0.63299554192E+02  0.39923506818E+03  0.42809869865E+03  0.12507700968E+03 0.  0.
          5    1    3    3  502    0  0.23803729210E+02  0.21150922675E+02  0.21073356599E+02  0.38412729826E+02  0.41800000000E+01 0.  1.
         -5    1    3    3    0  502  0.41225219779E+02 -0.84450476867E+02  0.37816171158E+03  0.38968596882E+03  0.41800000000E+01 0.  1.
        -11    1    1    2    0    0 -0.70307525499E+02  0.33469954639E+02  0.19549181659E+03  0.21042917183E+03  0.00000000000E+00 0. -1.
         11    1    1    2    0    0  0.52785765099E+01  0.29829599553E+02  0.10108891488E+02  0.31935216714E+02  0.00000000000E+00 0.  1.
</event>
<event>
 7    1  0.2728221E-009  0.9560228E+02  0.7561462E-02  0.1289825E+00
         -3   -1    0    0    0  501 -0.00000000000E+00  0.00000000000E+00  0.24502455350E+02  0.24502455350E+02  0.00000000000E+00 0.  1.
          3   -1    0    0  501    0  0.00000000000E+00 -0.00000000000E+00 -0.50415841826E+03  0.50415841826E+03  0.00000000000E+00 0. -1.
         25    2    1    2    0    0  0.13306658503E+01  0.11440756319E+02 -0.21475058754E+03  0.24879424699E+03  0.12509236950E+03 0.  0.
          5    1    3    3  502    0 -0.34932202258E+02  0.54672997948E+02 -0.83184112957E+02  0.10557681804E+03  0.41800000000E+01 0. -1.
         -5    1    3    3    0  502  0.36262868108E+02 -0.43232241629E+02 -0.13156647459E+03  0.14321742895E+03  0.41800000000E+01 0. -1.
        -11    1    1    2    0    0  0.91097577335E+01 -0.39046129655E+02 -0.23291739736E+03  0.23634318675E+03  0.00000000000E+00 0. -1.
         11    1    1    2    0    0 -0.10440423584E+02  0.27605373336E+02 -0.31987977998E+02  0.43523439869E+02  0.00000000000E+00 0.  1.
</event>
<event>
 7    1  0.2728221E-009  0.9347522E+02  0.7561462E-02  0.1294648E+00
          1   -1    0    0  501    0  0.00000000000E+00  0.00000000000E+00  0.51443665994E+03  0.51443665994E+03  0.00000000000E+00 0. -1.
         -1   -1    0    0    0  501 -0.00000000000E+00 -0.00000000000E+00 -0.42435688665E+02  0.42435688665E+02  0.00000000000E+00 0.  1.
         25    2    1    2    0    0  0.11333021249E+02 -0.15979614470E+02  0.44057827985E+03  0.45840964826E+03  0.12508556869E+03 0.  0.
          5    1    3    3  502    0 -0.10147800020E+02 -0.54704929884E+02  0.96506533638E+02  0.11147461879E+03  0.41800000000E+01 0.  1.
         -5    1    3    3    0  502  0.21480821269E+02  0.38725315414E+02  0.34407174621E+03  0.34693502948E+03  0.41800000000E+01 0.  1.
        -11    1    1    2    0    0 -0.39228669616E+02  0.35274758886E+02  0.79452759168E+00  0.52761997768E+02  0.00000000000E+00 0.  1.
         11    1    1    2    0    0  0.27895648368E+02 -0.19295144416E+02  0.30628163833E+02  0.45700702573E+02  0.00000000000E+00 0. -1.
</event>
<event>
 7    1  0.2728221E-009  0.8326364E+02  0.7561462E-02  0.1320037E+00
         -1   -1    0    0    0  501 -0.00000000000E+00  0.00000000000E+00  0.45713945145E+03  0.45713945145E+03  0.00000000000E+00 0.  1.
          1   -1    0    0  501    0  0.00000000000E+00 -0.00000000000E+00 -0.27575610049E+02  0.27575610049E+02  0.00000000000E+00 0. -1.
         25    2    1    2    0    0 -0.13826659141E+02 -0.23033997223E+02  0.26842820151E+03  0.29736044232E+03  0.12509113383E+03 0.  0.
          5    1    3    3  502    0  0.25852164565E+02 -0.29654735679E+01  0.24595629445E+03  0.24736430548E+03  0.41800000000E+01 0.  1.
         -5    1    3    3    0  502 -0.39678823706E+02 -0.20068523655E+02  0.22471907057E+02  0.49996136842E+02  0.41800000000E+01 0.  1.
        -11    1    1    2    0    0 -0.37574688851E+02  0.23103621921E+02  0.70672864238E+02  0.83308392901E+02  0.00000000000E+00 0.  1.
         11    1    1    2    0    0  0.51401347992E+02 -0.69624698301E-01  0.90462775662E+02  0.10404622628E+03  0.00000000000E+00 0. -1.
</event>
<event>
 7    1  0.2728221E-009  0.1421091E+03  0.7561462E-02  0.1210519E+00
         -2   -1    0    0    0  501 -0.00000000000E+00  0.00000000000E+00  0.31205237187E+03  0.31205237187E+03  0.00000000000E+00 0.  1.
          2   -1    0    0  501    0  0.00000000000E+00 -0.00000000000E+00 -0.14768927208E+03  0.14768927208E+03  0.00000000000E+00 0. -1.
         25    2    1    2    0    0 -0.59798281459E+02 -0.12520810297E+03 -0.45334151551E+02  0.19223862035E+03  0.12509036070E+03 0.  0.
          5    1    3    3  502    0 -0.34176330201E+02 -0.26693584354E+02 -0.74469068880E+02  0.86276784893E+02  0.41800000000E+01 0.  1.
         -5    1    3    3    0  502 -0.25621951257E+02 -0.98514518620E+02  0.29134917329E+02  0.10596183545E+03  0.41800000000E+01 0. -1.
        -11    1    1    2    0    0  0.40477280833E+02  0.82218291078E+02  0.57529273316E+02  0.10820293406E+03  0.00000000000E+00 0. -1.
         11    1    1    2    0    0  0.19321000625E+02  0.42989811896E+02  0.15216797803E+03  0.15930008954E+03  0.00000000000E+00 0.  1.
</event>
<event>
 7    1  0.2728221E-009  0.9586511E+02  0.7561462E-02  0.1289239E+00
         -1   -1    0    0    0  501 -0.00000000000E+00  0.00000000000E+00  0.93479004098E+02  0.93479004098E+02  0.00000000000E+00 0.  1.
          1   -1    0    0  501    0  0.00000000000E+00 -0.00000000000E+00 -0.16798318758E+03  0.16798318758E+03  0.00000000000E+00 0. -1.
         25    2    1    2    0    0 -0.23043800599E+02 -0.48531710483E+02 -0.73797558106E+02  0.15485518476E+03  0.12509078701E+03 0.  0.
          5    1    3    3  502    0 -0.30129419587E+02  0.83297605058E+01 -0.89831053615E+02  0.95206393841E+02  0.41800000000E+01 0. -1.
         -5    1    3    3    0  502  0.70856189878E+01 -0.56861470989E+02  0.16033495509E+02  0.59648790916E+02  0.41800000000E+01 0. -1.
        -11    1    1    2    0    0 -0.33440379811E+02  0.23978593524E+02  0.13672359197E+02  0.43360873553E+02  0.00000000000E+00 0. -1.
         11    1    1    2    0    0  0.56484180410E+02  0.24553116959E+02 -0.14378984577E+02  0.63246133372E+02  0.00000000000E+00 0.  1.
</event>
<event>
 7    1  0.2728221E-009  0.1655667E+03  0.7561462E-02  0.1182552E+00
         -1   -1    0    0    0  501 -0.00000000000E+00  0.00000000000E+00  0.91101784952E+02  0.91101784952E+02  0.00000000000E+00 0.  1.
          1   -1    0    0  501    0  0.00000000000E+00 -0.00000000000E+00 -0.39420926121E+03  0.39420926121E+03  0.00000000000E+00 0. -1.
         25    2    1    2    0    0 -0.11577555577E+03 -0.97542003040E+02 -0.20115061512E+03  0.28111829112E+03  0.12508997551E+03 0.  0.
          5    1    3    3  502    0 -0.92386862352E+02 -0.52791755557E+02 -0.42641784888E+02  0.11470874425E+03  0.41800000000E+01 0.  1.
         -5    1    3    3    0  502 -0.23388693419E+02 -0.44750247482E+02 -0.15850883023E+03  0.16640954687E+03  0.41800000000E+01 0.  1.
        -11    1    1    2    0    0  0.98275426090E+02  0.11361228559E+03 -0.99770628984E+02  0.18033299537E+03  0.00000000000E+00 0.  1.
         11    1    1    2    0    0  0.17500129681E+02 -0.16070282554E+02 -0.21862321562E+01  0.23859759664E+02  0.00000000000E+00 0. -1.
</event>
<event>
 7    1  0.2728221E-009  0.1131728E+03  0.7561462E-02  0.1254805E+00
          2   -1    0    0  501    0  0.00000000000E+00  0.00000000000E+00  0.76563209435E+03  0.76563209435E+03  0.00000000000E+00 0. -1.
         -2   -1    0    0    0  501 -0.00000000000E+00 -0.00000000000E+00 -0.30751010837E+02  0.30751010837E+02  0.00000000000E+00 0.  1.
         25    2    1    2    0    0 -0.10108275785E+03  0.13568555728E+02  0.29864153002E+03  0.33946458945E+03  0.12509042489E+03 0.  0.
          5    1    3    3  502    0 -0.90669464738E+02 -0.13687594111E+02  0.29595938439E+03  0.30986728074E+03  0.41800000000E+01 0. -1.
         -5    1    3    3    0  502 -0.10413293108E+02  0.27256149840E+02  0.26821456305E+01  0.29597308706E+02  0.41800000000E+01 0. -1.
        -11    1    1    2    0    0  0.95054485771E+01  0.62560082480E+01  0.68555581538E+00  0.11400051694E+02  0.00000000000E+00 0.  1.
         11    1    1    2    0    0  0.91577309269E+02 -0.19824563976E+02  0.43555399768E+03  0.44551846404E+03  0.00000000000E+00 0. -1.
</event>
<event>
 7    1  0.2728221E-009  0.1035305E+03  0.7561462E-02  0.1273042E+00
         -2   -1    0    0    0  501 -0.00000000000E+00  0.00000000000E+00  0.23681788752E+03  0.23681788752E+03  0.00000000000E+00 0.  1.
          2   -1    0    0  501    0  0.00000000000E+00 -0.00000000000E+00 -0.52471330566E+02  0.52471330566E+02  0.00000000000E+00 0. -1.
         25    2    1    2    0    0 -0.25725195721E+02 -0.13721489072E+02  0.92059462083E+02  0.15802680025E+03  0.12508980806E+03 0.  0.
          5    1    3    3  502    0 -0.65158920555E+02  0.12580203689E+02  0.16135170566E+02  0.68423406682E+02  0.41800000000E+01 0.  1.
         -5    1    3    3    0  502  0.39433724835E+02 -0.26301692761E+02  0.75924291517E+02  0.89603393567E+02  0.41800000000E+01 0.  1.
        -11    1    1    2    0    0  0.19780644289E+02 -0.36977917978E+02  0.47389288962E+02  0.63280210294E+02  0.00000000000E+00 0. -1.
         11    1    1    2    0    0  0.59445514314E+01  0.50699407050E+02  0.44897805910E+02  0.67982207544E+02  0.00000000000E+00 0.  1.
</event>
<event>
 7    1  0.2728221E-009  0.1035519E+03  0.7561462E-02  0.1272999E+00
         -2   -1    0    0    0  501 -0.00000000000E+00  0.00000000000E+00  0.19055789550E+02  0.19055789550E+02  0.00000000000E+00 0.  1.
          2   -1    0    0  501    0  0.00000000000E+00 -0.00000000000E+00 -0.86787644282E+03  0.86787644282E+03  0.00000000000E+00 0. -1.
         25    2    1    2    0    0 -0.54870686626E+02  0.15529842929E+01 -0.63010895681E+03  0.64474611291E+03  0.12508816351E+03 0.  0.
          5    1    3    3  502    0  0.21698678628E+02 -0.21904782723E+02 -0.39723671225E+03  0.39845342278E+03  0.41800000000E+01 0. -1.
         -5    1    3    3    0  502 -0.76569365254E+02  0.23457767016E+02 -0.23287224456E+03  0.24629269014E+03  0.41800000000E+01 0. -1.
        -11    1    1    2    0    0  0.74679176820E+02  0.52255623623E+01 -0.12123038282E+03  0.14248189946E+03  0.00000000000E+00 0.  1.
         11    1    1    2    0    0 -0.19808490194E+02 -0.67785466552E+01 -0.97481313633E+02  0.99704220002E+02  0.00000000000E+00 0. -1.
</event>
<event>
 7    1  0.2728221E-009  0.1476348E+03  0.7561462E-02  0.1203410E+00
         -2   -1    0    0    0  501 -0.00000000000E+00  0.00000000000E+00  0.41275400318E+02  0.41275400318E+02  0.00000000000E+00 0. -1.
          2   -1    0    0  501    0  0.00000000000E+00 -0.00000000000E+00 -0.57731965712E+03  0.57731965712E+03  0.00000000000E+00 0.  1.
         25    2    1    2    0    0  0.10130627519E+03  0.25251518142E+02 -0.34913721333E+03  0.38528560288E+03  0.12509037331E+03 0.  0.
          5    1    3    3  502    0 -0.23528831216E+02 -0.14567792941E+02 -0.98940604655E+02  0.10282286778E+03  0.41800000000E+01 0.  1.
         -5    1    3    3    0  502  0.12483510641E+03  0.39819311083E+02 -0.25019660867E+03  0.28246273510E+03  0.41800000000E+01 0.  1.
        -11    1    1    2    0    0 -0.10920892727E+03  0.53807782080E+00 -0.12628476113E+03  0.16695724068E+03  0.00000000000E+00 0. -1.
         11    1    1    2    0    0  0.79026520740E+01 -0.25789595963E+02 -0.60622282346E+02  0.66352213879E+02  0.00000000000E+00 0.  1.
</event>
<event>
 7    1  0.2728221E-009  0.1796000E+03  0.7561462E-02  0.1168191E+00
          2   -1    0    0  501    0  0.00000000000E+00  0.00000000000E+00  0.95966066080E+03  0.95966066080E+03  0.00000000000E+00 0. -1.
         -2   -1    0    0    0  501 -0.00000000000E+00 -0.00000000000E+00 -0.38775316947E+02  0.38775316947E+02  0.00000000000E+00 0.  1.
         25    2    1    2    0    0  0.52530159809E+02 -0.14268481512E+03  0.61111937596E+03  0.64205349997E+03  0.12508969182E+03 0.  0.
          5    1    3    3  502    0  0.63016581511E+02 -0.13874236318E+02  0.15465494109E+03  0.16762818135E+03  0.41800000000E+01 0. -1.
         -5    1    3    3    0  502 -0.10486421702E+02 -0.12881057880E+03  0.45646443487E+03  0.47442531862E+03  0.41800000000E+01 0. -1.
        -11    1    1    2    0    0 -0.14992787736E+02  0.12091584956E+03  0.27499019046E+03  0.30077405342E+03  0.00000000000E+00 0.  1.
         11    1    1    2    0    0 -0.37537372072E+02  0.21768965555E+02  0.34775777433E+02  0.55608424358E+02  0.00000000000E+00 0. -1.
</event>
<event>
 7    1  0.2728221E-009  0.9401045E+02  0.7561462E-02  0.1293420E+00
         -1   -1    0    0    0  501 -0.00000000000E+00  0.00000000000E+00  0.13663931618E+02  0.13663931618E+02  0.00000000000E+00 0. -1.
          1   -1    0    0  501    0  0.00000000000E+00 -0.00000000000E+00 -0.10763032733E+04  0.10763032733E+04  0.00000000000E+00 0.  1.
         25    2    1    2    0    0 -0.94946758340E+00  0.18595805391E+02 -0.83071808571E+03  0.84028841471E+03  0.12508147946E+03 0.  0.
          5    1    3    3  502    0 -0.36611516170E+02  0.60378404666E+02 -0.50816914616E+03  0.51306852211E+03  0.41800000000E+01 0.  1.
         -5    1    3    3    0  502  0.35662048586E+02 -0.41782599275E+02 -0.32254893955E+03  0.32721989260E+03  0.41800000000E+01 0.  1.
        -11    1    1    2    0    0 -0.11705536968E+02 -0.37590303374E+02 -0.22081236914E+03  0.22429479010E+03  0.00000000000E+00 0.  1.
         11    1    1    2    0    0  0.12655004551E+02  0.18994497983E+02 -0.11108886807E+02  0.25384000077E+02  0.00000000000E+00 0. -1.
</event>
<event>
 7    1  0.2728221E-009  0.1137781E+03  0.7561462E-02  0.1253729E+00
          1   -1    0    0  501    0  0.00000000000E+00  0.00000000000E+00  0.29907314390E+03  0.29907314390E+03  0.00000000000E+00 0. -1.
         -1   -1    0    0    0  501 -0.00000000000E+00 -0.00000000000E+00 -0.29356140509E+03  0.29356140509E+03  0.00000000000E+00 0.  1.
         25    2    1    2    0    0  0.36279055726E+02 -0.87643082853E+02 -0.25634303313E+03  0.30059489621E+03  0.12509221053E+03 0.  0.
          5    1    3    3  502    0  0.24332655423E+02  0.30874370556E+01 -0.17894670182E+03  0.18066821768E+03  0.41800000000E+01 0.  1.
         -5    1    3    3    0  502  0.11946400303E+02 -0.90730519908E+02 -0.77396331317E+02  0.11992667853E+03  0.41800000000E+01 0.  1.
        -11    1    1    2    0    0  0.13090103296E+02  0.35684693844E+01  0.10520789986E+01  0.13608513815E+02  0.00000000000E+00 0.  1.
         11    1    1    2    0    0 -0.49369159022E+02  0.84074613468E+02  0.26080269295E+03  0.27843113896E+03  0.00000000000E+00 0. -1.
</event>
<event>
 7    1  0.2728221E-009  0.1447839E+03  0.7561462E-02  0.1207033E+00
          1   -1    0    0  501    0  0.00000000000E+00  0.00000000000E+00  0.12446423317E+04  0.12446423317E+04  0.00000000000E+00 0. -1.
         -1   -1    0    0    0  501 -0.00000000000E+00 -0.00000000000E+00 -0.18742442261E+02  0.18742442261E+02  0.00000000000E+00 0.  1.
         25    2    1    2    0    0 -0.88814455553E+01 -0.10565427933E+03  0.71879006976E+03  0.73725691177E+03  0.12508750042E+03 0.  0.
          5    1    3    3  502    0 -0.44297570892E+02 -0.10736293551E+03  0.40202486106E+03  0.41848600457E+03  0.41800000000E+01 0.  1.
         -5    1    3    3    0  502  0.35416125337E+02  0.17086561847E+01  0.31676520869E+03  0.31877090720E+03  0.41800000000E+01 0.  1.
        -11    1    1    2    0    0  0.42201596156E+02  0.21979403544E+02  0.22552994909E+03  0.23049474362E+03  0.00000000000E+00 0. -1.
         11    1    1    2    0    0 -0.33320150601E+02  0.83674875787E+02  0.28157987062E+03  0.29563311860E+03  0.00000000000E+00 0.  1.
</event>
<event>
 7    1  0.2728221E-009  0.1570105E+03  0.7561462E-02  0.1192114E+00
          4   -1    0    0  501    0  0.00000000000E+00  0.00000000000E+00  0.10515598238E+04  0.10515598238E+04  0.00000000000E+00 0. -1.
         -4   -1    0    0    0  501 -0.00000000000E+00 -0.00000000000E+00 -0.36582230411E+02  0.36582230411E+02  0.00000000000E+00 0.  1.
         25    2    1    2    0    0 -0.30280392709E+02 -0.13917110275E+03  0.74887150401E+03  0.77249055401E+03  0.12509048119E+03 0.  0.
          5    1    3    3  502    0  0.10809704180E+01  0.12984074487E+02  0.87794495878E+01  0.16257485119E+02  0.41800000000E+01 0.  1.
         -5    1    3    3    0  502 -0.31361363127E+02 -0.15215517724E+03  0.74009205443E+03  0.75623306889E+03  0.41800000000E+01 0.  1.
        -11    1    1    2    0    0 -0.59326774739E+00  0.59221094955E+02  0.19653467786E+03  0.20526414605E+03  0.00000000000E+00 0. -1.
         11    1    1    2    0    0  0.30873660456E+02  0.79950007796E+02  0.69571411526E+02  0.11038735416E+03  0.00000000000E+00 0.  1.
</event>
<event>
 7    1  0.2728221E-009  0.1783714E+03  0.7561462E-02  0.1169389E+00
         -2   -1    0    0    0  501 -0.00000000000E+00  0.00000000000E+00  0.95633495591E+02  0.95633495591E+02  0.00000000000E+00 0.  1.
          2   -1    0    0  501    0  0.00000000000E+00 -0.00000000000E+00 -0.36918200489E+03  0.36918200489E+03  0.00000000000E+00 0. -1.
         25    2    1    2    0    0  0.14895125841E+03  0.12289127838E+02 -0.12370732148E+03  0.23084282753E+03  0.12508960625E+03 0.  0.
          5    1    3    3  502    0  0.34379547870E+02  0.57117527797E+02 -0.69311376202E+02  0.96259568691E+02  0.41800000000E+01 0.  1.
         -5    1    3    3    0  502  0.11457171054E+03 -0.44828399960E+02 -0.54395945273E+02  0.13458325884E+03  0.41800000000E+01 0.  1.
        -11    1    1    2    0    0 -0.69469976178E+02 -0.42927750018E+02 -0.30121146747E+02  0.87041098300E+02  0.00000000000E+00 0.  1.
         11    1    1    2    0    0 -0.79481282227E+02  0.30638622181E+02 -0.11972004108E+03  0.14693157465E+03  0.00000000000E+00 0. -1.
</event>
<event>
 7    1  0.2728221E-009  0.1446916E+03  0.7561462E-02  0.1207152E+00
          1   -1    0    0  501    0  0.00000000000E+00  0.00000000000E+00  0.19874920926E+03  0.19874920926E+03  0.00000000000E+00 0. -1.
         -1   -1    0    0    0  501 -0.00000000000E+00 -0.00000000000E+00 -0.19558226542E+03  0.19558226542E+03  0.00000000000E+00 0.  1.
         25    2    1    2    0    0  0.12769714059E+03  0.24984749277E+02  0.10186399398E+03  0.20725289129E+03  0.12508673098E+03 0.  0.
          5    1    3    3  502    0 -0.47130588371E+01  0.22932162558E+02 -0.17018611104E+02  0.29243845970E+02  0.41800000000E+01 0.  1.
         -5    1    3    3    0  502  0.13241019942E+03  0.20525867187E+01  0.11888260509E+03  0.17800904532E+03  0.41800000000E+01 0.  1.
        -11    1    1    2    0    0 -0.56453050587E+02  0.30795901413E+01 -0.94835075337E+02  0.11040888692E+03  0.00000000000E+00 0.  1.
         11    1    1    2    0    0 -0.71244090001E+02 -0.28064339418E+02 -0.38619748044E+01  0.76669696467E+02  0.00000000000E+00 0. -1.
</event>
<event>
 7    1  0.2728221E-009  0.2211044E+03  0.7561462E-02  0.1133062E+00
         -1   -1    0    0    0  501 -0.00000000000E+00  0.00000000000E+00  0.29686005846E+02  0.29686005846E+02  0.00000000000E+00 0.  1.
          1   -1    0    0  501    0  0.00000000000E+00 -0.00000000000E+00 -0.19664656347E+04  0.19664656347E+04  0.00000000000E+00 0. -1.
         25    2    1    2    0    0 -0.19243022378E+03 -0.51790206267E+02 -0.13318825094E+04  0.13525051713E+04  0.12509037898E+03 0.  0.
          5    1    3    3  502    0 -0.18181752201E+01  0.22699087136E+02 -0.27569547721E+03  0.27666590479E+03  0.41800000000E+01 0.  1.
         -5    1    3    3    0  502 -0.19061204856E+03 -0.74489293402E+02 -0.10561870322E+04  0.10758392665E+04  0.41800000000E+01 0.  1.
        -11    1    1    2    0    0  0.68060631482E+02 -0.19773377564E+02 -0.13708030668E+03  0.15431865246E+03  0.00000000000E+00 0.  1.
         11    1    1    2    0    0  0.12436959230E+03  0.71563583831E+02 -0.46781681276E+03  0.48932781683E+03  0.00000000000E+00 0. -1.
</event>
<event>
 7    1  0.2728221E-009  0.1544815E+03  0.7561462E-02  0.1195072E+00
         -1   -1    0    0    0  501 -0.00000000000E+00  0.00000000000E+00  0.75038544955E+02  0.75038544955E+02  0.00000000000E+00 0. -1.
          1   -1    0    0  501    0  0.00000000000E+00 -0.00000000000E+00 -0.34797304309E+03  0.34797304309E+03  0.00000000000E+00 0.  1.
         25    2    1    2    0    0 -0.84313556099E+02  0.78855873892E+02 -0.11056586946E+03  0.20297461990E+03  0.12508741041E+03 0.  0.
          5    1    3    3  502    0 -0.62774428549E+02  0.10785164097E+03 -0.54697275971E+02  0.13631533200E+03  0.41800000000E+01 0. -1.
         -5    1    3    3    0  502 -0.21539127549E+02 -0.28995767079E+02 -0.55868593492E+02  0.66659287896E+02  0.41800000000E+01 0. -1.
        -11    1    1    2    0    0  0.98124352889E+02 -0.39052713288E+02 -0.10565873333E+03  0.14938966154E+03  0.00000000000E+00 0. -1.
         11    1    1    2    0    0 -0.13810796791E+02 -0.39803160604E+02 -0.56709895343E+02  0.70647306615E+02  0.00000000000E+00 0.  1.
</event>
<event>
 7    1  0.2728221E-009  0.1023750E+03  0.7561462E-02  0.1275379E+00
         -2   -1    0    0    0  501 -0.00000000000E+00  0.00000000000E+00  0.55780258720E+02  0.55780258720E+02  0.00000000000E+00 0.  1.
          2   -1    0    0  501    0  0.00000000000E+00 -0.00000000000E+00 -0.22749857949E+03  0.22749857949E+03  0.00000000000E+00 0. -1.
         25    2    1    2    0    0 -0.29639075058E+02 -0.59690125413E+01 -0.10900075523E+03  0.16865538529E+03  0.12509744388E+03 0.  0.
          5    1    3    3  502    0 -0.36510841200E+02 -0.61946477298E+02 -0.57435165265E+02  0.92123168550E+02  0.41800000000E+01 0. -1.
         -5    1    3    3    0  502  0.68717661421E+01  0.55977464757E+02 -0.51565589965E+02  0.76532216739E+02  0.41800000000E+01 0. -1.
        -11    1    1    2    0    0  0.51109173922E+02 -0.62129095761E+01 -0.48532548017E+01  0.51713653773E+02  0.00000000000E+00 0.  1.
         11    1    1    2    0    0 -0.21470098864E+02  0.12181922117E+02 -0.57864310739E+02  0.62909799149E+02  0.00000000000E+00 0. -1.
</event>
<event>
 7    1  0.2728221E-009  0.1448886E+03  0.7561462E-02  0.1206898E+00
         -1   -1    0    0    0  501 -0.00000000000E+00  0.00000000000E+00  0.52689557292E+02  0.52689557292E+02  0.00000000000E+00 0.  1.
          1   -1    0    0  501    0  0.00000000000E+00 -0.00000000000E+00 -0.50312227790E+03  0.50312227790E+03  0.00000000000E+00 0. -1.
         25    2    1    2    0    0 -0.11697535410E+03  0.11387061362E+02 -0.29166531624E+03  0.33842121249E+03  0.12508941495E+03 0.  0.
          5    1    3    3  502    0 -0.11366962244E+03  0.34114841984E+02 -0.13404413303E+03  0.17908072902E+03  0.41800000000E+01 0.  1.
         -5    1    3    3    0  502 -0.33057316605E+01 -0.22727780623E+02 -0.15762118321E+03  0.15934048347E+03  0.41800000000E+01 0.  1.
        -11    1    1    2    0    0  0.11064849442E+03  0.22749498611E+02 -0.13065858363E+03  0.17272027814E+03  0.00000000000E+00 0.  1.
         11    1    1    2    0    0  0.63268596805E+01 -0.34136559973E+02 -0.28108820741E+02  0.44670344566E+02  0.00000000000E+00 0. -1.
</event>
<event>
 7    1  0.2728221E-009  0.1273661E+03  0.7561462E-02  0.1231417E+00
          1   -1    0    0  501    0  0.00000000000E+00  0.00000000000E+00  0.53461799550E+03  0.53461799550E+03  0.00000000000E+00 0. -1.
         -1   -1    0    0    0  501 -0.00000000000E+00 -0.00000000000E+00 -0.40724318184E+02  0.40724318184E+02  0.00000000000E+00 0.  1.
         25    2    1    2    0    0 -0.33907237535E+02  0.93932176325E+02  0.26403826219E+03  0.30876388487E+03  0.12508388463E+03 0.  0.
          5    1    3    3  502    0  0.32638571505E+02  0.25358639677E+02  0.18924951357E+02  0.45650445124E+02  0.41800000000E+01 0.  1.
         -5    1    3    3    0  502 -0.66545809039E+02  0.68573536648E+02  0.24511331083E+03  0.26311343975E+03  0.41800000000E+01 0.  1.
        -11    1    1    2    0    0  0.42969957653E+02 -0.28673358741E+02  0.16960718243E+03  0.17729967595E+03  0.00000000000E+00 0. -1.
         11    1    1    2    0    0 -0.90627201181E+01 -0.65258817584E+02  0.60248232701E+02  0.89278752858E+02  0.00000000000E+00 0.  1.
</event>
<event>
 7    1  0.2728221E-009  0.1152435E+03  0.7561462E-02  0.1251157E+00
         -1   -1    0    0    0  501 -0.00000000000E+00  0.00000000000E+00  0.20623809540E+03  0.20623809540E+03  0.00000000000E+00 0.  1.
          1   -1    0    0  501    0  0.00000000000E+00 -0.00000000000E+00 -0.16708367347E+03  0.16708367347E+03  0.00000000000E+00 0. -1.
         25    2    1    2    0    0 -0.20078951562E+02  0.70120304432E+02  0.15302970441E+03  0.21067926149E+03  0.12509052482E+03 0.  0.
          5    1    3    3  502    0  0.37606347578E+02  0.47102083694E+02  0.19724179887E+02  0.63555954392E+02  0.41800000000E+01 0.  1.
         -5    1    3    3    0  502 -0.57685299140E+02  0.23018220738E+02  0.13330552452E+03  0.14712330710E+03  0.41800000000E+01 0.  1.
        -11    1    1    2    0    0 -0.30207230189E+02 -0.16952871108E+02 -0.10903255081E+02  0.36314701787E+02  0.00000000000E+00 0.  1.
         11    1    1    2    0    0  0.50286181751E+02 -0.53167433325E+02 -0.10297202740E+03  0.12632780560E+03  0.00000000000E+00 0. -1.
</event>
<event>
 7    1  0.2728221E-009  0.1067884E+03  0.7561462E-02  0.1266636E+00
         -2   -1    0    0    0  501 -0.00000000000E+00  0.00000000000E+00  0.33953207375E+03  0.33953207375E+03  0.00000000000E+00 0.  1.
          2   -1    0    0  501    0  0.00000000000E+00 -0.00000000000E+00 -0.44618752275E+02  0.44618752275E+02  0.00000000000E+00 0. -1.
         25    2    1    2    0    0 -0.46375732478E+02 -0.33406793508E+02  0.18067472157E+03  0.22706491844E+03  0.12509356400E+03 0.  0.
          5    1    3    3  502    0 -0.67023316011E+02 -0.45868422277E+02  0.18511360679E+03  0.20218940840E+03  0.41800000000E+01 0.  1.
         -5    1    3    3    0  502  0.20647583533E+02  0.12461628769E+02 -0.44388852218E+01  0.24875510032E+02  0.41800000000E+01 0.  1.
        -11    1    1    2    0    0  0.73597856205E+02  0.15555492500E+02  0.77637965186E+02  0.10810305927E+03  0.00000000000E+00 0.  1.
         11    1    1    2    0    0 -0.27222123727E+02  0.17851301008E+02  0.36600634724E+02  0.48982848326E+02  0.00000000000E+00 0. -1.
</event>
<event>
 7    1  0.2728221E-009  0.2138247E+03  0.7561462E-02  0.1138573E+00
         -1   -1    0    0    0  501 -0.00000000000E+00  0.00000000000E+00  0.25814814589E+02  0.25814814589E+02  0.00000000000E+00 0.  1.
          1   -1    0    0  501    0  0.00000000000E+00 -0.00000000000E+00 -0.21973897068E+04  0.21973897068E+04  0.00000000000E+00 0. -1.
         25    2    1    2    0    0 -0.85504600791E+02 -0.17603198697E+03 -0.14962146593E+04  0.15141349849E+04  0.12509256022E+03 0.  0.
          5    1    3    3  502    0 -0.11484326557E+03 -0.16309089827E+03 -0.12542288592E+04  0.12699980789E+04  0.41800000000E+01 0. -1.
         -5    1    3    3    0  502  0.29338664778E+02 -0.12941088704E+02 -0.24198580009E+03  0.24413690601E+03  0.41800000000E+01 0. -1.
        -11    1    1    2    0    0  0.48259040201E+02  0.92191859129E+02 -0.50467906442E+03  0.51529528614E+03  0.00000000000E+00 0.  1.
         11    1    1    2    0    0  0.37245560590E+02  0.83840127844E+02 -0.17068116852E+03  0.19377425038E+03  0.00000000000E+00 0. -1.
</event>
<event>
 7    1  0.2728221E-009  0.7166420E+02  0.7561462E-02  0.1354524E+00
          2   -1    0    0  501    0  0.00000000000E+00  0.00000000000E+00  0.78785440183E+02  0.78785440183E+02  0.00000000000E+00 0. -1.
         -2   -1    0    0    0  501 -0.00000000000E+00 -0.00000000000E+00 -0.14986978846E+03  0.14986978846E+03  0.00000000000E+00 0.  1.
         25    2    1    2    0    0 -0.11193231811E+02  0.15192867529E+02 -0.50608272723E+02  0.13625264061E+03  0.12508986027E+03 0.  0.
          5    1    3    3  502    0 -0.45714264471E+02 -0.82901701468E+00 -0.77071467468E+02  0.89710449464E+02  0.41800000000E+01 0. -1.
         -5    1    3    3    0  502  0.34521032660E+02  0.16021884543E+02  0.26463194745E+02  0.46542191142E+02  0.41800000000E+01 0. -1.
        -11    1    1    2    0    0 -0.21580837653E+02 -0.15128009517E+02 -0.44532809532E+02  0.51747080599E+02  0.00000000000E+00 0.  1.
         11    1    1    2    0    0  0.32774069464E+02 -0.64858012066E-01  0.24056733974E+02  0.40655507441E+02  0.00000000000E+00 0. -1.
</event>
<event>
 7    1  0.2728221E-009  0.1023585E+03  0.7561462E-02  0.1275413E+00
         -1   -1    0    0    0  501 -0.00000000000E+00  0.00000000000E+00  0.80703960723E+02  0.80703960723E+02  0.00000000000E+00 0.  1.
          1   -1    0    0  501    0  0.00000000000E+00 -0.00000000000E+00 -0.17869113939E+03  0.17869113939E+03  0.00000000000E+00 0. -1.
         25    2    1    2    0    0  0.25644108490E+02  0.32241723106E+02 -0.18324246317E+02  0.13297128778E+03  0.12509371032E+03 0.  0.
          5    1    3    3  502    0  0.63965351502E+02  0.22499297449E+02 -0.48148846487E+02  0.83268051475E+02  0.41800000000E+01 0.  1.
         -5    1    3    3    0  502 -0.38321243012E+02  0.97424256569E+01  0.29824600170E+02  0.49703236302E+02  0.41800000000E+01 0.  1.
        -11    1    1    2    0    0  0.15910062635E+02 -0.49523294819E+02 -0.52251358806E+02  0.73728497339E+02  0.00000000000E+00 0. -1.
         11    1    1    2    0    0 -0.41554171125E+02  0.17281571713E+02 -0.27411573548E+02  0.52695315001E+02  0.00000000000E+00 0.  1.
</event>
<event>
 7    1  0.2728221E-009  0.8743844E+02  0.7561462E-02  0.1309176E+00
          2   -1    0    0  501    0  0.00000000000E+00  0.00000000000E+00  0.71546957970E+02  0.71546957970E+02  0.00000000000E+00 0. -1.
         -2   -1    0    0    0  501 -0.00000000000E+00 -0.00000000000E+00 -0.17487369694E+03  0.17487369694E+03  0.00000000000E+00 0.  1.
         25    2    1    2    0    0  0.97943027813E+00  0.43783588180E+01 -0.32953421322E+02  0.12943681353E+03  0.12509129230E+03 0.  0.
          5    1    3    3  502    0  0.31599425584E+02 -0.26716124626E+02 -0.63568593160E+02  0.75965212095E+02  0.41800000000E+01 0.  1.
         -5    1    3    3    0  502 -0.30619995306E+02  0.31094483444E+02  0.30615171837E+02  0.53471601433E+02  0.41800000000E+01 0.  1.
        -11    1    1    2    0    0 -0.34507214353E+02  0.26777310086E+02 -0.51364229094E+02  0.67424448150E+02  0.00000000000E+00 0.  1.
         11    1    1    2    0    0  0.33527784075E+02 -0.31155668904E+02 -0.19009088553E+02  0.49559393231E+02  0.00000000000E+00 0. -1.
</event>
<event>
 7    1  0.2728221E-009  0.1106940E+03  0.7561462E-02  0.1259290E+00
         -2   -1    0    0    0  501 -0.00000000000E+00  0.00000000000E+00  0.29922291510E+03  0.29922291510E+03  0.00000000000E+00 0.  1.
          2   -1    0    0  501    0  0.00000000000E+00 -0.00000000000E+00 -0.44259189443E+02  0.44259189443E+02  0.00000000000E+00 0. -1.
         25    2    1    2    0    0 -0.36500521128E+02 -0.18543663054E+02  0.15436764571E+03  0.20285204094E+03  0.12507367824E+03 0.  0.
          5    1    3    3  502    0  0.43174114760E+02 -0.27434746233E+02  0.60734140231E+02  0.79515895742E+02  0.41800000000E+01 0. -1.
         -5    1    3    3    0  502 -0.79674635888E+02  0.88910831793E+01  0.93633505478E+02  0.12333614520E+03  0.41800000000E+01 0. -1.
        -11    1    1    2    0    0  0.43274341120E+02 -0.22093688061E+02  0.82255228066E+02  0.95533879831E+02  0.00000000000E+00 0.  1.
         11    1    1    2    0    0 -0.67738199916E+01  0.40637351115E+02  0.18340851879E+02  0.45096183770E+02  0.00000000000E+00 0. -1.
</event>
<event>
 7    1  0.2728221E-009  0.9903080E+02  0.7561462E-02  0.1282347E+00
          2   -1    0    0  501    0  0.00000000000E+00  0.00000000000E+00  0.12277522834E+04  0.12277522834E+04  0.00000000000E+00 0. -1.
         -2   -1    0    0    0  501 -0.00000000000E+00 -0.00000000000E+00 -0.11467762751E+02  0.11467762751E+02  0.00000000000E+00 0.  1.
         25    2    1    2    0    0  0.41919019035E+02 -0.91024165636E+01  0.77958284577E+03  0.79071930297E+03  0.12509014557E+03 0.  0.
          5    1    3    3  502    0  0.59769442890E+02 -0.38697349556E+02  0.24951054949E+03  0.25950502475E+03  0.41800000000E+01 0.  1.
         -5    1    3    3    0  502 -0.17850423856E+02  0.29594932992E+02  0.53007229629E+03  0.53121427822E+03  0.41800000000E+01 0.  1.
        -11    1    1    2    0    0 -0.65310517222E+02  0.16548721776E+02  0.38963325327E+03  0.39541547252E+03  0.00000000000E+00 0. -1.
         11    1    1    2    0    0  0.23391498188E+02 -0.74463052122E+01  0.47068421576E+02  0.53085270635E+02  0.00000000000E+00 0.  1.
</event>
<event>
 7    1  0.2728221E-009  0.1403800E+03  0.7561462E-02  0.1212819E+00
         -1   -1    0    0    0  501 -0.00000000000E+00  0.00000000000E+00  0.12610536294E+03  0.12610536294E+03  0.00000000000E+00 0.  1.
          1   -1    0    0  501    0  0.00000000000E+00 -0.00000000000E+00 -0.22192990674E+03  0.22192990674E+03  0.00000000000E+00 0. -1.
         25    2    1    2    0    0 -0.11044588140E+03 -0.22063250720E+02 -0.10197753188E+03  0.19680134462E+03  0.12508506100E+03 0.  0.
          5    1    3    3  502    0 -0.23869367403E+02  0.25266546421E+02 -0.90919216908E+02  0.97426492657E+02  0.41800000000E+01 0.  1.
         -5    1    3    3    0  502 -0.86576513996E+02 -0.47329797141E+02 -0.11058314974E+02  0.99374851965E+02  0.41800000000E+01 0.  1.
        -11    1    1    2    0    0  0.60155542272E+02  0.59259956690E+02  0.20852027840E+02  0.86978381210E+02  0.00000000000E+00 0.  1.
         11    1    1    2    0    0  0.50290339127E+02 -0.37196705970E+02 -0.14699039761E+02  0.64255543842E+02  0.00000000000E+00 0. -1.
</event>
<event>
 7    1  0.2728221E-009  0.1247680E+03  0.7561462E-02  0.1235432E+00
          1   -1    0    0  501    0  0.00000000000E+00  0.00000000000E+00  0.64357872593E+02  0.64357872593E+02  0.00000000000E+00 0. -1.
         -1   -1    0    0    0  501 -0.00000000000E+00 -0.00000000000E+00 -0.41356435785E+03  0.41356435785E+03  0.00000000000E+00 0.  1.
         25    2    1    2    0    0 -0.10762386991E+03 -0.54932221836E+02 -0.19418019928E+03  0.26067957837E+03  0.12508975344E+03 0.  0.
          5    1    3    3  502    0 -0.10785159241E+03 -0.58510603406E+02 -0.80375663731E+02  0.14674187002E+03  0.41800000000E+01 0. -1.
         -5    1    3    3    0  502  0.22772250168E+00  0.35783815698E+01 -0.11380453555E+03  0.11393770835E+03  0.41800000000E+01 0. -1.
        -11    1    1    2    0    0  0.60595638835E+02  0.36539329162E+02 -0.15079142571E+03  0.16656832859E+03  0.00000000000E+00 0.  1.
         11    1    1    2    0    0  0.47028231075E+02  0.18392892673E+02 -0.42348602642E+01  0.50674323483E+02  0.00000000000E+00 0. -1.
</event>
<event>
 7    1  0.2728221E-009  0.1612149E+03  0.7561462E-02  0.1187332E+00
         -2   -1    0    0    0  501 -0.00000000000E+00  0.00000000000E+00  0.88877493713E+03  0.88877493713E+03  0.00000000000E+00 0.  1.
          2   -1    0    0  501    0  0.00000000000E+00 -0.00000000000E+00 -0.37511391968E+02  0.37511391968E+02  0.00000000000E+00 0. -1.
         25    2    1    2    0    0 -0.42415606128E+02 -0.66085339989E+02  0.38569883830E+03  0.41301058037E+03  0.12509112609E+03 0.  0.
          5    1    3    3  502    0 -0.79624118957E+02 -0.66577549548E+02  0.22224000852E+03  0.24531747636E+03  0.41800000000E+01 0.  1.
         -5    1    3    3    0  502  0.37208512828E+02  0.49220955951E+00  0.16345882978E+03  0.16769310401E+03  0.41800000000E+01 0.  1.
        -11    1    1    2    0    0  0.85979723823E+02 -0.16676043828E+02  0.36737930722E+03  0.37767467313E+03  0.00000000000E+00 0.  1.
         11    1    1    2    0    0 -0.43564117695E+02  0.82761383817E+02  0.98185399639E+02  0.13560107560E+03  0.00000000000E+00 0. -1.
</event>
<event>
 7    1  0.2728221E-009  0.1110023E+03  0.7561462E-02  0.1258725E+00
          1   -1    0    0  501    0  0.00000000000E+00  0.00000000000E+00  0.13165022393E+03  0.13165022393E+03  0.00000000000E+00 0. -1.
         -1   -1    0    0    0  501 -0.00000000000E+00 -0.00000000000E+00 -0.15489936807E+03  0.15489936807E+03  0.00000000000E+00 0.  1.
         25    2    1    2    0    0 -0.82288047543E+02 -0.89585985732E+01 -0.51697644414E+02  0.15866041257E+03  0.12509556675E+03 0.  0.
          5    1    3    3  502    0 -0.91082124908E+02  0.31342935526E+02 -0.54790491872E+01  0.96570313581E+02  0.41800000000E+01 0. -1.
         -5    1    3    3    0  502  0.87940773648E+01 -0.40301534100E+02 -0.46218595226E+02  0.62090098987E+02  0.41800000000E+01 0. -1.
        -11    1    1    2    0    0  0.35048768307E+02  0.11317087797E+02 -0.33610082335E+02  0.49861109801E+02  0.00000000000E+00 0.  1.
         11    1    1    2    0    0  0.47239279236E+02 -0.23584892236E+01  0.62058582611E+02  0.78028069628E+02  0.00000000000E+00 0. -1.
</event>
<event>
 7    1  0.2728221E-009  0.1462973E+03  0.7561462E-02  0.1205098E+00
         -2   -1    0    0    0  501 -0.00000000000E+00  0.00000000000E+00  0.30100120247E+02  0.30100120247E+02  0.00000000000E+00 0.  1.
          2   -1    0    0  501    0  0.00000000000E+00 -0.00000000000E+00 -0.94040539472E+03  0.94040539472E+03  0.00000000000E+00 0. -1.
         25    2    1    2    0    0  0.10500549134E+03  0.34327648234E+02 -0.67399060271E+03  0.69434507686E+03  0.12508881878E+03 0.  0.
          5    1    3    3  502    0  0.77493015231E+02  0.72194805966E+02 -0.57597341990E+03  0.58564503775E+03  0.41800000000E+01 0.  1.
         -5    1    3    3    0  502  0.27512476111E+02 -0.37867157732E+02 -0.98017182808E+02  0.10870003911E+03  0.41800000000E+01 0.  1.
        -11    1    1    2    0    0 -0.44413312664E+02 -0.59285815503E+02 -0.15446992848E+03  0.17131348185E+03  0.00000000000E+00 0.  1.
         11    1    1    2    0    0 -0.60592178678E+02  0.24958167269E+02 -0.81844743289E+02  0.10484695625E+03  0.00000000000E+00 0. -1.
</event>
<event>
 7    1  0.2728221E-009  0.1073647E+03  0.7561462E-02  0.1265529E+00
         -1   -1    0    0    0  501 -0.00000000000E+00  0.00000000000E+00  0.34748613173E+02  0.34748613173E+02  0.00000000000E+00 0.  1.
          1   -1    0    0  501    0  0.00000000000E+00 -0.00000000000E+00 -0.39808453325E+03  0.39808453325E+03  0.00000000000E+00 0. -1.
         25    2    1    2    0    0  0.15076390107E+02 -0.22339982729E+02 -0.13696927107E+03  0.18744014640E+03  0.12508738904E+03 0.  0.
          5    1    3    3  502    0 -0.53039042052E+02 -0.38887892785E+01 -0.36680556788E+02  0.64739464859E+02  0.41800000000E+01 0.  1.
         -5    1    3    3    0  502  0.68115432159E+02 -0.18451193450E+02 -0.10028871428E+03  0.12270068154E+03  0.41800000000E+01 0.  1.
        -11    1    1    2    0    0  0.74112954207E+01  0.52527146703E+02 -0.16582290697E+03  0.17410130647E+03  0.00000000000E+00 0. -1.
         11    1    1    2    0    0 -0.22487685527E+02 -0.30187163975E+02 -0.60543742036E+02  0.71291693548E+02  0.00000000000E+00 0.  1.
</event>
<event>
 7    1  0.2728221E-009  0.6643931E+02  0.7561462E-02  0.1372638E+00
         -1   -1    0    0    0  501 -0.00000000000E+00  0.00000000000E+00  0.69401232133E+02  0.69401232133E+02  0.00000000000E+00 0.  1.
          1   -1    0    0  501    0  0.00000000000E+00 -0.00000000000E+00 -0.30728272328E+03  0.30728272328E+03  0.00000000000E+00 0. -1.
         25    2    1    2    0    0 -0.20435626773E+02  0.20467384390E+02 -0.10276870016E+02  0.12880090303E+03  0.12509008713E+03 0.  0.
          5    1    3    3  502    0  0.22758849633E+01 -0.10310773197E+01  0.55571222340E+02  0.55784190638E+02  0.41800000000E+01 0.  1.
         -5    1    3    3    0  502 -0.22711511736E+02  0.21498461709E+02 -0.65848092356E+02  0.73016712389E+02  0.41800000000E+01 0.  1.
        -11    1    1    2    0    0  0.56905070316E+02 -0.18874258329E+02 -0.16303376284E+03  0.17370789412E+03  0.00000000000E+00 0.  1.
         11    1    1    2    0    0 -0.36469443543E+02 -0.15931260611E+01 -0.64570858294E+02  0.74175158266E+02  0.00000000000E+00 0. -1.
</event>
<event>
 7    1  0.2728221E-009  0.1260156E+03  0.7561462E-02  0.1233491E+00
         -1   -1    0    0    0  501 -0.00000000000E+00  0.00000000000E+00  0.59762787785E+02  0.59762787785E+02  0.00000000000E+00 0.  1.
          1   -1    0    0  501    0  0.00000000000E+00 -0.00000000000E+00 -0.50207048850E+03  0.50207048850E+03  0.00000000000E+00 0. -1.
         25    2    1    2    0    0 -0.31773499064E+02 -0.83824410767E+02 -0.29768279027E+03  0.33511086357E+03  0.12509260642E+03 0.  0.
          5    1    3    3  502    0 -0.39660554796E+02 -0.28398166656E+02 -0.26636311103E+03  0.27082502616E+03  0.41800000000E+01 0. -1.
         -5    1    3    3    0  502  0.78870557320E+01 -0.55426244111E+02 -0.31319679235E+02  0.64285837412E+02  0.41800000000E+01 0. -1.
        -11    1    1    2    0    0  0.58232834742E+02  0.10014479449E+03 -0.15539332179E+03  0.19382241192E+03  0.00000000000E+00 0. -1.
         11    1    1    2    0    0 -0.26459335678E+02 -0.16320383723E+02  0.10768411342E+02  0.32900000793E+02  0.00000000000E+00 0.  1.
</event>
<event>
 7    1  0.2728221E-009  0.7439221E+02  0.7561462E-02  0.1345764E+00
         -2   -1    0    0    0  501 -0.00000000000E+00  0.00000000000E+00  0.56250286936E+02  0.56250286936E+02  0.00000000000E+00 0.  1.
          2   -1    0    0  501    0  0.00000000000E+00 -0.00000000000E+00 -0.24379388564E+03  0.24379388564E+03  0.00000000000E+00 0. -1.
         25    2    1    2    0    0 -0.34020756277E+02  0.23913632216E+02 -0.10145506929E+03  0.16634182620E+03  0.12508876206E+03 0.  0.
          5    1    3    3  502    0  0.12596735290E+02  0.32206333146E+02 -0.11230717640E+03  0.11758528779E+03  0.41800000000E+01 0.  1.
         -5    1    3    3    0  502 -0.46617491567E+02 -0.82927009304E+01  0.10852107103E+02  0.48756538405E+02  0.41800000000E+01 0.  1.
        -11    1    1    2    0    0  0.30982567376E+02  0.98549147878E+01  0.81771493846E+01  0.33524686408E+02  0.00000000000E+00 0.  1.
         11    1    1    2    0    0  0.30381889011E+01 -0.33768547003E+02 -0.94265678795E+02  0.10017765997E+03  0.00000000000E+00 0. -1.
</event>
<event>
 6    1  0.2728221E-009  0.9360423E+02  0.7561462E-02  0.1294351E+00
          2   -1    0    0  501    0  0.00000000000E+00  0.00000000000E+00  0.13380133424E+03  0.13380133424E+03  0.00000000000E+00 0.  1.
         -2   -1    0    0    0  501 -0.00000000000E+00 -0.00000000000E+00 -0.10822364374E+03  0.10822364374E+03  0.00000000000E+00 0. -1.
          5    1    1    2  502    0 -0.28278741118E+02 -0.17616336980E+02  0.68044765925E+02  0.75878752609E+02  0.41800000000E+01 0. -1.
         -5    1    1    2    0  502 -0.12182752309E+02  0.49763601993E+02 -0.36760245413E+02  0.63195123071E+02  0.41800000000E+01 0. -1.
        -11    1    1    2    0    0 -0.56726607726E+01 -0.51779446225E+02 -0.83003495447E+01  0.52746430535E+02  0.00000000000E+00 0.  1.
         11    1    1    2    0    0  0.46134154200E+02  0.19632181212E+02  0.25935195300E+01  0.50204671759E+02  0.00000000000E+00 0. -1.
</event>
<event>
 7    1  0.2728221E-009  0.2608386E+03  0.7561462E-02  0.1106640E+00
         -2   -1    0    0    0  501 -0.00000000000E+00  0.00000000000E+00  0.61707126889E+02  0.61707126889E+02  0.00000000000E+00 0.  1.
          2   -1    0    0  501    0  0.00000000000E+00 -0.00000000000E+00 -0.11741333982E+04  0.11741333982E+04  0.00000000000E+00 0. -1.
         25    2    1    2    0    0 -0.22993904729E+03 -0.87471198895E+02 -0.57708289967E+03  0.63968415881E+03  0.12509186157E+03 0.  0.
          5    1    3    3  502    0 -0.11773257822E+03 -0.10655462633E+03 -0.38327042070E+03  0.41488376221E+03  0.41800000000E+01 0. -1.
         -5    1    3    3    0  502 -0.11220646906E+03  0.19083427431E+02 -0.19381247897E+03  0.22480039659E+03  0.41800000000E+01 0. -1.
        -11    1    1    2    0    0  0.13948396824E+03  0.32959551782E+02 -0.21118478516E+03  0.25522759046E+03  0.00000000000E+00 0.  1.
         11    1    1    2    0    0  0.90455079051E+02  0.54511647113E+02 -0.32415858648E+03  0.34092877583E+03  0.00000000000E+00 0. -1.
</event>
<event>
 7    1  0.2728221E-009  0.1018761E+03  0.7561462E-02  0.1276399E+00
          2   -1    0    0  501    0  0.00000000000E+00  0.00000000000E+00  0.54147528335E+03  0.54147528335E+03  0.00000000000E+00 0. -1.
         -2   -1    0    0    0  501 -0.00000000000E+00 -0.00000000000E+00 -0.23234800639E+02  0.23234800639E+02  0.00000000000E+00 0.  1.
         25    2    1    2    0    0 -0.15539304436E+01 -0.11626604157E+02  0.23362186949E+03  0.26525925508E+03  0.12508278009E+03 0.  0.
          5    1    3    3  502    0 -0.12910411253E+02  0.54655341678E+02  0.83560659066E+02  0.10076577413E+03  0.41800000000E+01 0.  1.
         -5    1    3    3    0  502  0.11356480810E+02 -0.66281945834E+02  0.15006121042E+03  0.16449348095E+03  0.41800000000E+01 0.  1.
        -11    1    1    2    0    0  0.34871876598E+02  0.26276354003E+02  0.22799685690E+03  0.23214017600E+03  0.00000000000E+00 0. -1.
         11    1    1    2    0    0 -0.33317946155E+02 -0.14649749847E+02  0.56621756327E+02  0.67310652917E+02  0.00000000000E+00 0.  1.
</event>
<event>
 7    1  0.3379801E-009  0.8164613E+02  0.7561462E-02  0.1324444E+00
          1   -1    0    0  501    0  0.00000000000E+00  0.00000000000E+00  0.12472016071E+04  0.12472016071E+04  0.00000000000E+00 0. -1.
         -1   -1    0    0    0  501 -0.00000000000E+00 -0.00000000000E+00 -0.13204722475E+02  0.13204722475E+02  0.00000000000E+00 0.  1.
         25    2    1    2    0    0  0.22568513789E+02  0.38479162220E+02  0.93771806163E+03  0.94707626130E+03  0.12509315675E+03 0.  0.
          5    1    3    3  502    0  0.26692953234E+02 -0.12167359939E+01  0.85201354794E+03  0.85244269747E+03  0.41800000000E+01 0.  1.
         -5    1    3    3    0  502 -0.41244394450E+01  0.39695898214E+02  0.85704513694E+02  0.94633563830E+02  0.41800000000E+01 0.  1.
        -11    1    1    2    0    0  0.88489317675E+01  0.24330523124E+02  0.40360057243E+02  0.47950100829E+02  0.00000000000E+00 0.  1.
         11    1    1    2    0    0 -0.31417445556E+02 -0.62809685344E+02  0.25591876574E+03  0.26537996744E+03  0.00000000000E+00 0. -1.
</event>
<event>
 7    1  0.2728221E-009  0.9240512E+02  0.7561462E-02  0.1297130E+00
         -3   -1    0    0    0  501 -0.00000000000E+00  0.00000000000E+00  0.26748939186E+03  0.26748939186E+03  0.00000000000E+00 0.  1.
          3   -1    0    0  501    0  0.00000000000E+00 -0.00000000000E+00 -0.50262647706E+02  0.50262647706E+02  0.00000000000E+00 0. -1.
         25    2    1    2    0    0 -0.15927318591E+02  0.36734555852E+01  0.68157961925E+02  0.14338709695E+03  0.12508868072E+03 0.  0.
          5    1    3    3  502    0 -0.23755822830E+01  0.62862315015E+02  0.48112398440E+02  0.79306931121E+02  0.41800000000E+01 0.  1.
         -5    1    3    3    0  502 -0.13551736308E+02 -0.59188859430E+02  0.20045563485E+02  0.64080165831E+02  0.41800000000E+01 0.  1.
        -11    1    1    2    0    0 -0.10399043730E+02  0.21871281425E+02  0.37725953536E+01  0.24509702923E+02  0.00000000000E+00 0. -1.
         11    1    1    2    0    0  0.26326362321E+02 -0.25544737010E+02  0.14529618688E+03  0.14985523969E+03  0.00000000000E+00 0.  1.
</event>
<event>
 7    1  0.2806795E-009  0.8070349E+02  0.7561462E-02  0.1327067E+00
         -1   -1    0    0    0  501 -0.00000000000E+00  0.00000000000E+00  0.42567428396E+02  0.42567428396E+02  0.00000000000E+00 0. -1.
          1   -1    0    0  501    0  0.00000000000E+00 -0.00000000000E+00 -0.58154939305E+03  0.58154939305E+03  0.00000000000E+00 0.  1.
         25    2    1    2    0    0 -0.22591100379E+02  0.32203303172E+02 -0.50087834909E+03  0.51775898824E+03  0.12509132172E+03 0.  0.
          5    1    3    3  502    0 -0.43148355010E+02 -0.21765272244E+02 -0.84983690470E+02  0.97852990051E+02  0.41800000000E+01 0.  1.
         -5    1    3    3    0  502  0.20557254630E+02  0.53968575416E+02 -0.41589465862E+03  0.41990599819E+03  0.41800000000E+01 0.  1.
        -11    1    1    2    0    0  0.26387469140E+00 -0.32664080799E+02 -0.64186803419E+02  0.72020535526E+02  0.00000000000E+00 0.  1.
         11    1    1    2    0    0  0.22327225688E+02  0.46077762737E+00  0.26083187855E+02  0.34337297675E+02  0.00000000000E+00 0. -1.
</event>
<event>
 7    1  0.2728221E-009  0.1566355E+03  0.7561462E-02  0.1192548E+00
          2   -1    0    0  501    0  0.00000000000E+00  0.00000000000E+00  0.18174232465E+03  0.18174232465E+03  0.00000000000E+00 0. -1.
         -2   -1    0    0    0  501 -0.00000000000E+00 -0.00000000000E+00 -0.14053177722E+03  0.14053177722E+03  0.00000000000E+00 0.  1.
         25    2    1    2    0    0 -0.88808497228E+02 -0.65776289038E+02 -0.16780733932E+01  0.16692446551E+03  0.12508993514E+03 0.  0.
          5    1    3    3  502    0 -0.11851575000E+03 -0.62525961202E+02  0.10300626471E+02  0.13445837321E+03  0.41800000000E+01 0.  1.
         -5    1    3    3    0  502  0.29707252770E+02 -0.32503278366E+01 -0.11978699864E+02  0.32466092291E+02  0.41800000000E+01 0.  1.
        -11    1    1    2    0    0  0.11123669519E+03  0.52960394884E+02  0.39005296797E+02  0.12922777937E+03  0.00000000000E+00 0.  1.
         11    1    1    2    0    0 -0.22428197966E+02  0.12815894155E+02  0.38833240334E+01  0.26121856989E+02  0.00000000000E+00 0. -1.
</event>
<event>
 7    1  0.2728221E-009  0.6748700E+02  0.7561462E-02  0.1368853E+00
         -2   -1    0    0    0  501 -0.00000000000E+00  0.00000000000E+00  0.19485040965E+02  0.19485040965E+02  0.00000000000E+00 0. -1.
          2   -1    0    0  501    0  0.00000000000E+00 -0.00000000000E+00 -0.70219618115E+03  0.70219618115E+03  0.00000000000E+00 0.  1.
         25    2    1    2    0    0 -0.35960550463E+02 -0.30919903771E+02 -0.34421004364E+03  0.36929313439E+03  0.12509062047E+03 0.  0.
          5    1    3    3  502    0  0.48298542581E+01 -0.85525194087E+01 -0.31285456852E+03  0.31303662170E+03  0.41800000000E+01 0. -1.
         -5    1    3    3    0  502 -0.40790404721E+02 -0.22367384362E+02 -0.31355475119E+02  0.56256512694E+02  0.41800000000E+01 0. -1.
        -11    1    1    2    0    0  0.40892563999E+02  0.46104239972E+02 -0.32688703488E+03  0.33264536117E+03  0.00000000000E+00 0.  1.
         11    1    1    2    0    0 -0.49320135362E+01 -0.15184336201E+02 -0.11614061659E+02  0.19742726549E+02  0.00000000000E+00 0. -1.
</event>
<event>
 7    1  0.2728221E-009  0.1260634E+03  0.7561462E-02  0.1233417E+00
          2   -1    0    0  501    0  0.00000000000E+00  0.00000000000E+00  0.90641384103E+03  0.90641384103E+03  0.00000000000E+00 0. -1.
         -2   -1    0    0    0  501 -0.00000000000E+00 -0.00000000000E+00 -0.18433885169E+02  0.18433885169E+02  0.00000000000E+00 0.  1.
         25    2    1    2    0    0 -0.37450923193E+02 -0.44882694121E+02  0.39823043322E+03  0.42148898496E+03  0.12509379932E+03 0.  0.
          5    1    3    3  502    0 -0.47181314519E+02 -0.83924776353E+02  0.30494879848E+03  0.31981351851E+03  0.41800000000E+01 0. -1.
         -5    1    3    3    0  502  0.97303913261E+01  0.39042082231E+02  0.93281634734E+02  0.10167546646E+03  0.41800000000E+01 0. -1.
        -11    1    1    2    0    0 -0.24858139576E+01 -0.30178632517E+02  0.10217292369E+03  0.10656563924E+03  0.00000000000E+00 0.  1.
         11    1    1    2    0    0  0.39936737151E+02  0.75061326638E+02  0.38757659896E+03  0.39679310200E+03  0.00000000000E+00 0. -1.
</event>
<event>
 7    1  0.2728221E-009  0.1474108E+03  0.7561462E-02  0.1203691E+00
          1   -1    0    0  501    0  0.00000000000E+00  0.00000000000E+00  0.94176924147E+03  0.94176924147E+03  0.00000000000E+00 0. -1.
         -1   -1    0    0    0  501 -0.00000000000E+00 -0.00000000000E+00 -0.27227049806E+02  0.27227049806E+02  0.00000000000E+00 0.  1.
         25    2    1    2    0    0 -0.10845285044E+03 -0.46290430893E+02  0.50600914312E+03  0.53441405325E+03  0.12509317579E+03 0.  0.
          5    1    3    3  502    0 -0.47491017310E+02  0.42609676472E+02  0.17983601566E+03  0.19086499465E+03  0.41800000000E+01 0. -1.
         -5    1    3    3    0  502 -0.60961833128E+02 -0.88900107365E+02  0.32617312746E+03  0.34354905860E+03  0.41800000000E+01 0. -1.
        -11    1    1    2    0    0  0.93453676120E+02  0.24605573001E+02  0.39136252337E+03  0.40311741280E+03  0.00000000000E+00 0. -1.
         11    1    1    2    0    0  0.14999174318E+02  0.21684857893E+02  0.17170525179E+02  0.31464825234E+02  0.00000000000E+00 0.  1.
</event>
<event>
 7    1  0.2728221E-009  0.1102631E+03  0.7561462E-02  0.1260083E+00
         -1   -1    0    0    0  501 -0.00000000000E+00  0.00000000000E+00  0.33524113843E+02  0.33524113843E+02  0.00000000000E+00 0.  1.
          1   -1    0    0  501    0  0.00000000000E+00 -0.00000000000E+00 -0.50763628173E+03  0.50763628173E+03  0.00000000000E+00 0. -1.
         25    2    1    2    0    0  0.22722700436E+02  0.16437250874E+02 -0.39793455397E+03  0.41807422444E+03  0.12509054150E+03 0.  0.
          5    1    3    3  502    0 -0.50132682199E+01  0.66718328141E+02 -0.16429690858E+03  0.17744693499E+03  0.41800000000E+01 0. -1.
         -5    1    3    3    0  502  0.27735968656E+02 -0.50281077267E+02 -0.23363764539E+03  0.24062728946E+03  0.41800000000E+01 0. -1.
        -11    1    1    2    0    0  0.14952031409E+02 -0.45780423651E+02 -0.30511404581E+02  0.57011895622E+02  0.00000000000E+00 0. -1.
         11    1    1    2    0    0 -0.37674731845E+02  0.29343172777E+02 -0.45666209338E+02  0.66074275505E+02  0.00000000000E+00 0.  1.
</event>
<event>
 7    1  0.2728221E-009  0.1166141E+03  0.7561462E-02  0.1248790E+00
         -4   -1    0    0    0  501 -0.00000000000E+00  0.00000000000E+00  0.90754465232E+02  0.90754465232E+02  0.00000000000E+00 0.  1.
          4   -1    0    0  501    0  0.00000000000E+00 -0.00000000000E+00 -0.45902202423E+03  0.45902202423E+03  0.00000000000E+00 0. -1.
         25    2    1    2    0    0 -0.87965604164E+02 -0.14057905359E+02 -0.39188231441E+03  0.42089734506E+03  0.12508898640E+03 0.  0.
          5    1    3    3  502    0  0.13031126243E+02 -0.23772795748E+02 -0.16474784466E+02  0.31997609161E+02  0.41800000000E+01 0. -1.
         -5    1    3    3    0  502 -0.10099673041E+03  0.97148903883E+01 -0.37540752994E+03  0.38889973590E+03  0.41800000000E+01 0. -1.
        -11    1    1    2    0    0  0.89968713703E+02 -0.81031848892E-01  0.46979503249E+02  0.10149605774E+03  0.00000000000E+00 0.  1.
         11    1    1    2    0    0 -0.20031095390E+01  0.14138937208E+02 -0.23364747844E+02  0.27383086660E+02  0.00000000000E+00 0. -1.
</event>
<event>
 7    1  0.2728221E-009  0.1709360E+03  0.7561462E-02  0.1176875E+00
         -3   -1    0    0    0  501 -0.00000000000E+00  0.00000000000E+00  0.50702038385E+02  0.50702038385E+02  0.00000000000E+00 0.  1.
          3   -1    0    0  501    0  0.00000000000E+00 -0.00000000000E+00 -0.86798998098E+03  0.86798998098E+03  0.00000000000E+00 0. -1.
         25    2    1    2    0    0 -0.80459734240E+02 -0.14075896102E+03 -0.25792205590E+03  0.32932897763E+03  0.12508770781E+03 0.  0.
          5    1    3    3  502    0 -0.28533705223E+02 -0.54121323425E+01 -0.13817131454E+03  0.14125242679E+03  0.41800000000E+01 0. -1.
         -5    1    3    3    0  502 -0.51926029018E+02 -0.13534682867E+03 -0.11975074136E+03  0.18807655084E+03  0.41800000000E+01 0. -1.
        -11    1    1    2    0    0  0.46032138450E+02  0.11684680013E+03 -0.50680923056E+03  0.52213765297E+03  0.00000000000E+00 0. -1.
         11    1    1    2    0    0  0.34427595790E+02  0.23912160889E+02 -0.52556656138E+02  0.67225388766E+02  0.00000000000E+00 0.  1.
</event>
